<event>
12    1  0.2083715E-007  0.1844400E+04  0.7818608E-02  0.8683038E-01
          1   -1    0    0  501    0  0.00000000000E+00  0.00000000000E+00  0.11129671652E+04  0.11129671652E+04  0.00000000000E+00 0. -1.
         -1   -1    0    0    0  501 -0.00000000000E+00 -0.00000000000E+00 -0.76413107115E+03  0.76413107115E+03  0.00000000000E+00 0.  1.
         23    2    1    2    0    0 -0.32104794966E+03  0.16371561581E+03  0.74229412864E+03  0.83016241029E+03  0.91073954523E+02 0.  0.
        254    2    1    2    0    0  0.32104794966E+03 -0.16371561581E+03 -0.39345803459E+03  0.10469358261E+04  0.90077234087E+03 0.  0.
        -24    2    4    4    0    0  0.15131787851E+03  0.12978223959E+03  0.24107600487E+03  0.32311282870E+03  0.80893324083E+02 0.  0.
         24    2    4    4    0    0  0.16973007116E+03 -0.29349785540E+03 -0.63453403946E+03  0.72382299736E+03  0.79605251686E+02 0.  0.
         13    1    3    3    0    0 -0.11572611512E+03  0.10956876611E+03  0.31972980214E+03  0.35724640601E+03  0.00000000000E+00 0.  1.
        -13    1    3    3    0    0 -0.20532183454E+03  0.54146849705E+02  0.42256432650E+03  0.47291600428E+03  0.00000000000E+00 0. -1.
          4    1    6    6  502    0  0.82863387416E+02 -0.14687094731E+03 -0.39831708822E+03  0.43254354568E+03  0.00000000000E+00 0. -1.
          3    1    5    5  503    0  0.13779934918E+03  0.99363551752E+02  0.23385701862E+03  0.28905169297E+03  0.00000000000E+00 0. -1.
         -4    1    5    5    0  503  0.13518529327E+02  0.30418687837E+02  0.72189862457E+01  0.34061135731E+02  0.00000000000E+00 0.  1.
         -1    1    6    6    0  502  0.86866683741E+02 -0.14662690810E+03 -0.23621695124E+03  0.29127945168E+03  0.00000000000E+00 0.  1.
<mgrwt>
<rscale>  0 0.18443999E+04</rscale>
<asrwt>0</asrwt>
<pdfrwt beam="1">  1        1 0.17122572E+00 0.18443999E+04</pdfrwt>
<pdfrwt beam="2">  1       -1 0.11755863E+00 0.18443999E+04</pdfrwt>
<totfact> 0.75866893E+00</totfact>
</mgrwt>
</event>
<event>
12    1  0.2083715E-007  0.1206794E+04  0.7818608E-02  0.9106931E-01
          1   -1    0    0  501    0  0.00000000000E+00  0.00000000000E+00  0.31022416658E+04  0.31022416658E+04  0.00000000000E+00 0. -1.
         -1   -1    0    0    0  501 -0.00000000000E+00 -0.00000000000E+00 -0.11736283572E+03  0.11736283572E+03  0.00000000000E+00 0.  1.
         23    2    1    2    0    0  0.14169004934E+03  0.13497156310E+03  0.10966982987E+04  0.11181430823E+04  0.95934358908E+02 0.  0.
        254    2    1    2    0    0 -0.14169004934E+03 -0.13497156310E+03  0.18881805314E+04  0.21014614192E+04  0.90145492647E+03 0.  0.
        -24    2    4    4    0    0 -0.18538759670E+03 -0.37639074833E+03  0.17643796417E+04  0.18153532197E+04  0.80207454159E+02 0.  0.
         24    2    4    4    0    0  0.43697547363E+02  0.24141918523E+03  0.12380088967E+03  0.28610819953E+03  0.79614966646E+02 0.  0.
         11    1    3    3    0    0  0.14151547911E+03  0.89574615908E+02  0.74919663759E+03  0.76768863767E+03  0.00000000000E+00 0.  1.
        -11    1    3    3    0    0  0.17457023005E+00  0.45396947191E+02  0.34750166108E+03  0.35045444460E+03  0.00000000000E+00 0. -1.
          2    1    6    6  502    0  0.29732483569E+02  0.19648578300E+03  0.61473207264E+02  0.20801355415E+03  0.00000000000E+00 0. -1.
          1    1    5    5  503    0 -0.11572391006E+03 -0.22282674971E+03  0.12151774847E+04  0.12408465268E+04  0.00000000000E+00 0. -1.
         -2    1    5    5    0  503 -0.69663686637E+02 -0.15356399862E+03  0.54920215705E+03  0.57450669292E+03  0.00000000000E+00 0.  1.
         -1    1    6    6    0  502  0.13965063795E+02  0.44933402231E+02  0.62327682407E+02  0.78094645380E+02  0.00000000000E+00 0.  1.
<mgrwt>
<rscale>  0 0.12067939E+04</rscale>
<asrwt>0</asrwt>
<pdfrwt beam="1">  1        1 0.47726789E+00 0.12067939E+04</pdfrwt>
<pdfrwt beam="2">  1       -1 0.18055823E-01 0.12067939E+04</pdfrwt>
<totfact> 0.12241460E+01</totfact>
</mgrwt>
</event>
<event>
12    1  0.2459601E-007  0.3701061E+04  0.7818608E-02  0.8067727E-01
         -2   -1    0    0    0  501 -0.00000000000E+00  0.00000000000E+00  0.18107061788E+04  0.18107061788E+04  0.00000000000E+00 0.  1.
          2   -1    0    0  501    0  0.00000000000E+00 -0.00000000000E+00 -0.18912311263E+04  0.18912311263E+04  0.00000000000E+00 0. -1.
         23    2    1    2    0    0 -0.78736858227E+03  0.15049067071E+04 -0.40940744940E+03  0.17494040373E+04  0.90036350980E+02 0.  0.
        254    2    1    2    0    0  0.78736858227E+03 -0.15049067071E+04  0.32888250186E+03  0.19525332678E+04  0.90527839930E+03 0.  0.
        -24    2    4    4    0    0  0.57202202388E+03 -0.15176517114E+04  0.97344434169E+02  0.16267264741E+04  0.79291675061E+02 0.  0.
         24    2    4    4    0    0  0.21534655839E+03  0.12745004221E+02  0.23153806769E+03  0.32580679372E+03  0.77482996239E+02 0.  0.
         13    1    3    3    0    0 -0.34330020902E+03  0.66384134396E+03 -0.22604053415E+03  0.78079106459E+03  0.00000000000E+00 0.  1.
        -13    1    3    3    0    0 -0.44406837325E+03  0.84106536318E+03 -0.18336691525E+03  0.96861297269E+03  0.00000000000E+00 0. -1.
          4    1    6    6  502    0  0.73718025586E+02  0.36850598512E+02  0.11113391859E+03  0.13835845391E+03  0.00000000000E+00 0. -1.
          1    1    5    5  503    0  0.25186688938E+03 -0.60085358828E+03  0.69913359974E+02  0.65524792438E+03  0.00000000000E+00 0. -1.
         -2    1    5    5    0  503  0.32015513451E+03 -0.91679812309E+03  0.27431074195E+02  0.97147854968E+03  0.00000000000E+00 0.  1.
         -3    1    6    6    0  502  0.14162853280E+03 -0.24105594290E+02  0.12040414910E+03  0.18744833981E+03  0.00000000000E+00 0.  1.
<mgrwt>
<rscale>  0 0.37010614E+04</rscale>
<asrwt>0</asrwt>
<pdfrwt beam="1">  1        2 0.29095863E+00 0.37010614E+04</pdfrwt>
<pdfrwt beam="2">  1       -2 0.27857018E+00 0.37010614E+04</pdfrwt>
<totfact> 0.26671258E-01</totfact>
</mgrwt>
</event>
<event>
12    1  0.2083715E-007  0.1122201E+04  0.7818608E-02  0.9183819E-01
          2   -1    0    0  501    0  0.00000000000E+00  0.00000000000E+00  0.10915309982E+04  0.10915309982E+04  0.00000000000E+00 0. -1.
         -2   -1    0    0    0  501 -0.00000000000E+00 -0.00000000000E+00 -0.28843314936E+03  0.28843314936E+03  0.00000000000E+00 0.  1.
         23    2    1    2    0    0  0.12493807084E+03  0.11540205095E+03  0.79703256996E+02  0.21224253045E+03  0.98828779444E+02 0.  0.
        254    2    1    2    0    0 -0.12493807084E+03 -0.11540205095E+03  0.72339459189E+03  0.11677216172E+04  0.90074795848E+03 0.  0.
        -24    2    4    4    0    0 -0.18659037568E+03  0.28917901302E+03  0.65706655286E+03  0.74579635082E+03  0.77687013957E+02 0.  0.
         24    2    4    4    0    0  0.61652304847E+02 -0.40458106397E+03  0.66328039030E+02  0.42192526635E+03  0.78324182763E+02 0.  0.
         11    1    3    3    0    0  0.60122704358E+02  0.76481037561E+02  0.94024287336E+02  0.13529469796E+03  0.00000000000E+00 0. -1.
        -11    1    3    3    0    0  0.64815366480E+02  0.38921013390E+02 -0.14321030340E+02  0.76947832492E+02  0.00000000000E+00 0.  1.
          2    1    6    6  502    0 -0.12286021325E+02 -0.13253078158E+02  0.64972168634E+01  0.19204276285E+02  0.00000000000E+00 0. -1.
          1    1    5    5  503    0 -0.90706002054E+02  0.20596110646E+03  0.39555259609E+03  0.45509275149E+03  0.00000000000E+00 0. -1.
         -2    1    5    5    0  503 -0.95884373631E+02  0.83217906561E+02  0.26151395676E+03  0.29070359933E+03  0.00000000000E+00 0.  1.
         -1    1    6    6    0  502  0.73938326171E+02 -0.39132798581E+03  0.59830822167E+02  0.40272099006E+03  0.00000000000E+00 0.  1.
<mgrwt>
<rscale>  0 0.11222009E+04</rscale>
<asrwt>0</asrwt>
<pdfrwt beam="1">  1        2 0.16792784E+00 0.11222009E+04</pdfrwt>
<pdfrwt beam="2">  1       -2 0.44374331E-01 0.11222009E+04</pdfrwt>
<totfact> 0.10524854E+02</totfact>
</mgrwt>
</event>
<event>
12    1  0.2083715E-007  0.1637535E+04  0.7818608E-02  0.8797815E-01
          1   -1    0    0  501    0  0.00000000000E+00  0.00000000000E+00  0.97250438288E+03  0.97250438288E+03  0.00000000000E+00 0. -1.
         -1   -1    0    0    0  501 -0.00000000000E+00 -0.00000000000E+00 -0.68933382005E+03  0.68933382005E+03  0.00000000000E+00 0.  1.
         23    2    1    2    0    0 -0.34576142837E+03 -0.41794666667E+03  0.26531629132E+03  0.61070221380E+03  0.91291171368E+02 0.  0.
        254    2    1    2    0    0  0.34576142837E+03  0.41794666667E+03  0.17854271509E+02  0.10511359891E+04  0.90018759773E+03 0.  0.
        -24    2    4    4    0    0 -0.43462648580E+02  0.94096211875E+02  0.39387588121E+03  0.41477379706E+03  0.78460142839E+02 0.  0.
         24    2    4    4    0    0  0.38922407695E+03  0.32385045480E+03 -0.37602160970E+03  0.63636219207E+03  0.84794394770E+02 0.  0.
         11    1    3    3    0    0 -0.23882758227E+03 -0.33325951624E+03  0.16773125309E+03  0.44298339978E+03  0.00000000000E+00 0.  1.
        -11    1    3    3    0    0 -0.10693384610E+03 -0.84687150433E+02  0.97585038230E+02  0.16771881402E+03  0.00000000000E+00 0. -1.
          2    1    6    6  502    0  0.34664988849E+03  0.25204440653E+03 -0.29723697936E+03  0.52157679200E+03  0.00000000000E+00 0. -1.
          3    1    5    5  503    0 -0.63863793937E+02  0.59274889093E+02  0.30424630866E+03  0.31647734988E+03  0.00000000000E+00 0. -1.
         -4    1    5    5    0  503  0.20401145357E+02  0.34821322782E+02  0.89629572554E+02  0.98296447181E+02  0.00000000000E+00 0.  1.
         -1    1    6    6    0  502  0.42574188452E+02  0.71806048269E+02 -0.78784630346E+02  0.11478540007E+03  0.00000000000E+00 0.  1.
<mgrwt>
<rscale>  0 0.16375349E+04</rscale>
<asrwt>0</asrwt>
<pdfrwt beam="1">  1        1 0.14961606E+00 0.16375349E+04</pdfrwt>
<pdfrwt beam="2">  1       -1 0.10605136E+00 0.16375349E+04</pdfrwt>
<totfact> 0.12657450E+01</totfact>
</mgrwt>
</event>
<event>
12    1  0.2083715E-007  0.2254390E+04  0.7818608E-02  0.8496125E-01
          2   -1    0    0  501    0  0.00000000000E+00  0.00000000000E+00  0.21110400655E+04  0.21110400655E+04  0.00000000000E+00 0. -1.
         -2   -1    0    0    0  501 -0.00000000000E+00 -0.00000000000E+00 -0.60186830147E+03  0.60186830147E+03  0.00000000000E+00 0.  1.
         23    2    1    2    0    0  0.88676503002E+03 -0.17164529889E+03  0.30116431369E+03  0.95645373149E+03  0.91046523998E+02 0.  0.
        254    2    1    2    0    0 -0.88676503002E+03  0.17164529889E+03  0.12080074503E+04  0.17564546355E+04  0.90002031050E+03 0.  0.
        -24    2    4    4    0    0 -0.91718770160E+03 -0.95318724070E+02  0.11389532974E+04  0.14675997840E+04  0.79470581942E+02 0.  0.
         24    2    4    4    0    0  0.30422671574E+02  0.26696402296E+03  0.69054152923E+02  0.28885485141E+03  0.80456949012E+02 0.  0.
         11    1    3    3    0    0  0.53069382846E+03 -0.74286351178E+02  0.21499485219E+03  0.57738824720E+03  0.00000000000E+00 0.  1.
        -11    1    3    3    0    0  0.35607120156E+03 -0.97358947713E+02  0.86169461500E+02  0.37906548428E+03  0.00000000000E+00 0. -1.
          2    1    6    6  502    0 -0.26107681248E+02  0.11659099840E+03  0.22298628344E+02  0.12154135409E+03  0.00000000000E+00 0. -1.
          1    1    5    5  503    0 -0.25534337601E+03 -0.44548718432E+02  0.37024449158E+03  0.45195775414E+03  0.00000000000E+00 0. -1.
         -2    1    5    5    0  503 -0.66184432559E+03 -0.50770005637E+02  0.76870880581E+03  0.10156420299E+04  0.00000000000E+00 0.  1.
         -1    1    6    6    0  502  0.56530352821E+02  0.15037302456E+03  0.46755524579E+02  0.16731349732E+03  0.00000000000E+00 0.  1.
<mgrwt>
<rscale>  0 0.22543896E+04</rscale>
<asrwt>0</asrwt>
<pdfrwt beam="1">  1        2 0.32477539E+00 0.22543896E+04</pdfrwt>
<pdfrwt beam="2">  1       -2 0.92595124E-01 0.22543896E+04</pdfrwt>
<totfact> 0.52151928E+00</totfact>
</mgrwt>
</event>
<event>
12    1  0.2312542E-007  0.2629443E+04  0.7818608E-02  0.8358268E-01
         -1   -1    0    0    0  501 -0.00000000000E+00  0.00000000000E+00  0.12575464764E+04  0.12575464764E+04  0.00000000000E+00 0.  1.
          1   -1    0    0  501    0  0.00000000000E+00 -0.00000000000E+00 -0.13744964437E+04  0.13744964437E+04  0.00000000000E+00 0. -1.
         23    2    1    2    0    0 -0.45108401925E+03 -0.86471291706E+03 -0.67826946147E+03  0.11915046809E+04  0.91808065948E+02 0.  0.
        254    2    1    2    0    0  0.45108401925E+03  0.86471291706E+03  0.56131949423E+03  0.14405382392E+04  0.89936956954E+03 0.  0.
        -24    2    4    4    0    0  0.56549626520E+03  0.97451983912E+03  0.57335794823E+03  0.12667000613E+04  0.79465500015E+02 0.  0.
         24    2    4    4    0    0 -0.11441224595E+03 -0.10980692206E+03 -0.12038454000E+02  0.17383817790E+03  0.70193059239E+02 0.  0.
         13    1    3    3    0    0 -0.27777085241E+03 -0.61758399947E+03 -0.44991417433E+03  0.81301255040E+03  0.00000000000E+00 0. -1.
        -13    1    3    3    0    0 -0.17331316684E+03 -0.24712891759E+03 -0.22835528713E+03  0.37849213053E+03  0.00000000000E+00 0.  1.
          4    1    6    6  502    0 -0.50890414331E+01 -0.43346451955E+02  0.79024544594E+01  0.44353827639E+02  0.00000000000E+00 0. -1.
          3    1    5    5  503    0  0.10868869080E+03  0.21066792377E+03  0.87415890181E+02  0.25265736378E+03  0.00000000000E+00 0. -1.
         -4    1    5    5    0  503  0.45680757440E+03  0.76385191534E+03  0.48594205805E+03  0.10140426975E+04  0.00000000000E+00 0.  1.
         -1    1    6    6    0  502 -0.10932320451E+03 -0.66460470104E+02 -0.19940908460E+02  0.12948435026E+03  0.00000000000E+00 0.  1.
<mgrwt>
<rscale>  0 0.26294434E+04</rscale>
<asrwt>0</asrwt>
<pdfrwt beam="1">  1        1 0.21146099E+00 0.26294434E+04</pdfrwt>
<pdfrwt beam="2">  1       -1 0.19346869E+00 0.26294434E+04</pdfrwt>
<totfact> 0.11753849E+00</totfact>
</mgrwt>
</event>
<event>
12    1  0.2083715E-007  0.2210574E+04  0.7818608E-02  0.8514040E-01
         -2   -1    0    0    0  501 -0.00000000000E+00  0.00000000000E+00  0.50807375359E+03  0.50807375359E+03  0.00000000000E+00 0.  1.
          2   -1    0    0  501    0  0.00000000000E+00 -0.00000000000E+00 -0.24044931621E+04  0.24044931621E+04  0.00000000000E+00 0. -1.
         23    2    1    2    0    0  0.82292837552E+03 -0.37166623028E+03 -0.10230587828E+04  0.13677635484E+04  0.93706740315E+02 0.  0.
        254    2    1    2    0    0 -0.82292837552E+03  0.37166623028E+03 -0.87336062570E+03  0.15448033673E+04  0.89906160146E+03 0.  0.
        -24    2    4    4    0    0 -0.83588692547E+03  0.46306486358E+03 -0.37144458574E+03  0.10282976198E+04  0.79302551311E+02 0.  0.
         24    2    4    4    0    0  0.12958549953E+02 -0.91398633303E+02 -0.50191603996E+03  0.51650574748E+03  0.79604282725E+02 0.  0.
         13    1    3    3    0    0  0.65545981217E+03 -0.32484844175E+03 -0.86400135218E+03  0.11321008842E+04  0.00000000000E+00 0. -1.
        -13    1    3    3    0    0  0.16746856335E+03 -0.46817788525E+02 -0.15905743062E+03  0.23566266413E+03  0.00000000000E+00 0.  1.
          2    1    6    6  502    0  0.36028879182E+02 -0.88267050868E+02 -0.34734707718E+03  0.36019320431E+03  0.00000000000E+00 0. -1.
          1    1    5    5  503    0 -0.15886236852E+03  0.62415067358E+02 -0.88565582710E+02  0.19229340915E+03  0.00000000000E+00 0. -1.
         -2    1    5    5    0  503 -0.67702455695E+03  0.40064979623E+03 -0.28287900303E+03  0.83600421069E+03  0.00000000000E+00 0.  1.
         -1    1    6    6    0  502 -0.23070329230E+02 -0.31315824352E+01 -0.15456896277E+03  0.15631254317E+03  0.00000000000E+00 0.  1.
<mgrwt>
<rscale>  0 0.22105745E+04</rscale>
<asrwt>0</asrwt>
<pdfrwt beam="1">  1        2 0.36992203E+00 0.22105745E+04</pdfrwt>
<pdfrwt beam="2">  1       -2 0.78165193E-01 0.22105745E+04</pdfrwt>
<totfact> 0.52555936E+00</totfact>
</mgrwt>
</event>
<event>
12    1  0.2083715E-007  0.2671136E+04  0.7818608E-02  0.8344431E-01
          2   -1    0    0  501    0  0.00000000000E+00  0.00000000000E+00  0.16182207302E+04  0.16182207302E+04  0.00000000000E+00 0. -1.
         -2   -1    0    0    0  501 -0.00000000000E+00 -0.00000000000E+00 -0.11022860212E+04  0.11022860212E+04  0.00000000000E+00 0.  1.
         23    2    1    2    0    0 -0.11715345694E+04 -0.15078719912E+03  0.28271287017E+03  0.12183789700E+04  0.96388386086E+02 0.  0.
        254    2    1    2    0    0  0.11715345694E+04  0.15078719912E+03  0.23322183883E+03  0.15021277814E+04  0.89820121292E+03 0.  0.
        -24    2    4    4    0    0  0.96577249545E+03  0.48416046765E+03  0.18586692042E+03  0.10991317547E+04  0.80101377281E+02 0.  0.
         24    2    4    4    0    0  0.20576207391E+03 -0.33337326853E+03  0.47354918412E+02  0.40299602670E+03  0.81777393048E+02 0.  0.
         11    1    3    3    0    0 -0.68743154999E+03 -0.76768665335E+02  0.11803341461E+03  0.70170324986E+03  0.00000000000E+00 0.  1.
        -11    1    3    3    0    0 -0.48410301936E+03 -0.74018533786E+02  0.16467945556E+03  0.51667572014E+03  0.00000000000E+00 0. -1.
          4    1    6    6  502    0  0.48804392454E+02 -0.12669520098E+03 -0.13485179077E+02  0.13643823778E+03  0.00000000000E+00 0. -1.
          3    1    5    5  503    0  0.32367413079E+03  0.13148583924E+03  0.85881601922E+02  0.35976258617E+03  0.00000000000E+00 0. -1.
         -4    1    5    5    0  503  0.64209836466E+03  0.35267462841E+03  0.99985318498E+02  0.73936916850E+03  0.00000000000E+00 0.  1.
         -3    1    6    6    0  502  0.15695768145E+03 -0.20667806755E+03  0.60840097488E+02  0.26655778892E+03  0.00000000000E+00 0.  1.
<mgrwt>
<rscale>  0 0.26711362E+04</rscale>
<asrwt>0</asrwt>
<pdfrwt beam="1">  1        2 0.24895703E+00 0.26711362E+04</pdfrwt>
<pdfrwt beam="2">  1       -2 0.16958247E+00 0.26711362E+04</pdfrwt>
<totfact> 0.20560204E+00</totfact>
</mgrwt>
</event>
<event>
12    1  0.2083715E-007  0.1931171E+04  0.7818608E-02  0.8639494E-01
          2   -1    0    0  501    0  0.00000000000E+00  0.00000000000E+00  0.12148945094E+04  0.12148945094E+04  0.00000000000E+00 0. -1.
         -2   -1    0    0    0  501 -0.00000000000E+00 -0.00000000000E+00 -0.76743731858E+03  0.76743731858E+03  0.00000000000E+00 0.  1.
         23    2    1    2    0    0  0.53294541211E+03 -0.49867407973E+03 -0.14542127842E+02  0.73629223143E+03  0.95958983382E+02 0.  0.
        254    2    1    2    0    0 -0.53294541211E+03  0.49867407973E+03  0.46199931866E+03  0.12460395966E+04  0.89803377201E+03 0.  0.
        -24    2    4    4    0    0 -0.66630741532E+03  0.60180858751E+03  0.19949944192E+03  0.92322527172E+03  0.80035787716E+02 0.  0.
         24    2    4    4    0    0  0.13336200321E+03 -0.10313450778E+03  0.26249987675E+03  0.32281432484E+03  0.82950300990E+02 0.  0.
         13    1    3    3    0    0  0.46346167495E+03 -0.40803303683E+03  0.17299173711E+02  0.61772724135E+03  0.00000000000E+00 0. -1.
        -13    1    3    3    0    0  0.69483737163E+02 -0.90641042897E+02 -0.31841301553E+02  0.11856499008E+03  0.00000000000E+00 0.  1.
          4    1    6    6  502    0  0.84648021545E+02 -0.86313137293E+02  0.11612308824E+03  0.16762999983E+03  0.00000000000E+00 0. -1.
          1    1    5    5  503    0 -0.94264370194E+02  0.79615882441E+02  0.55998146218E+02  0.13550000961E+03  0.00000000000E+00 0. -1.
         -2    1    5    5    0  503 -0.57204304513E+03  0.52219270507E+03  0.14350129570E+03  0.78772526211E+03  0.00000000000E+00 0.  1.
         -3    1    6    6    0  502  0.48713981666E+02 -0.16821370486E+02  0.14637678851E+03  0.15518432501E+03  0.00000000000E+00 0.  1.
<mgrwt>
<rscale>  0 0.19311710E+04</rscale>
<asrwt>0</asrwt>
<pdfrwt beam="1">  1        2 0.18690685E+00 0.19311710E+04</pdfrwt>
<pdfrwt beam="2">  1       -2 0.11806728E+00 0.19311710E+04</pdfrwt>
<totfact> 0.95853668E+00</totfact>
</mgrwt>
</event>
<event>
12    1  0.2083715E-007  0.1738824E+04  0.7818608E-02  0.8739526E-01
         -1   -1    0    0    0  501 -0.00000000000E+00  0.00000000000E+00  0.52193620047E+03  0.52193620047E+03  0.00000000000E+00 0.  1.
          1   -1    0    0  501    0  0.00000000000E+00 -0.00000000000E+00 -0.14482176991E+04  0.14482176991E+04  0.00000000000E+00 0. -1.
         23    2    1    2    0    0  0.56318571948E+03  0.26926045189E+03 -0.22198862356E+03  0.66861325223E+03  0.89918777168E+02 0.  0.
        254    2    1    2    0    0 -0.56318571948E+03 -0.26926045189E+03 -0.70429287511E+03  0.13015406474E+04  0.89905520255E+03 0.  0.
        -24    2    4    4    0    0 -0.36280045261E+03 -0.57686587519E+03 -0.29727447554E+03  0.74768394459E+03  0.79124969647E+02 0.  0.
         24    2    4    4    0    0 -0.20038526687E+03  0.30760542330E+03 -0.40701839956E+03  0.55385670277E+03  0.79485331965E+02 0.  0.
         11    1    3    3    0    0  0.31080929106E+03  0.11887020728E+03 -0.15594767033E+03  0.36749451352E+03  0.00000000000E+00 0. -1.
        -11    1    3    3    0    0  0.25237642842E+03  0.15039024462E+03 -0.66040953233E+02  0.30111873871E+03  0.00000000000E+00 0.  1.
          2    1    6    6  502    0 -0.29259175661E+02  0.10129703717E+03 -0.89290144235E+02  0.13816627286E+03  0.00000000000E+00 0. -1.
          3    1    5    5  503    0 -0.22786361622E+02 -0.84476488530E+02 -0.43561773988E+02  0.97740081560E+02  0.00000000000E+00 0. -1.
         -4    1    5    5    0  503 -0.34001409099E+03 -0.49238938666E+03 -0.25371270155E+03  0.64994386303E+03  0.00000000000E+00 0.  1.
         -1    1    6    6    0  502 -0.17112609121E+03  0.20630838613E+03 -0.31772825533E+03  0.41569042991E+03  0.00000000000E+00 0.  1.
<mgrwt>
<rscale>  0 0.17388240E+04</rscale>
<asrwt>0</asrwt>
<pdfrwt beam="1">  1        1 0.22280272E+00 0.17388240E+04</pdfrwt>
<pdfrwt beam="2">  1       -1 0.80297877E-01 0.17388240E+04</pdfrwt>
<totfact> 0.10433233E+01</totfact>
</mgrwt>
</event>
<event>
12    1  0.2083715E-007  0.2196947E+04  0.7818608E-02  0.8519700E-01
         -2   -1    0    0    0  501 -0.00000000000E+00  0.00000000000E+00  0.45581301117E+03  0.45581301117E+03  0.00000000000E+00 0.  1.
          2   -1    0    0  501    0  0.00000000000E+00 -0.00000000000E+00 -0.26472344073E+04  0.26472344073E+04  0.00000000000E+00 0. -1.
         23    2    1    2    0    0  0.58149127144E+03 -0.70254529697E+03 -0.87688297701E+03  0.12683336485E+04  0.89691111267E+02 0.  0.
        254    2    1    2    0    0 -0.58149127144E+03  0.70254529697E+03 -0.13145384191E+04  0.18347137700E+04  0.89803194232E+03 0.  0.
        -24    2    4    4    0    0  0.19592779393E+02 -0.18604741137E+03 -0.23908665233E+03  0.31370306288E+03  0.79054842078E+02 0.  0.
         24    2    4    4    0    0 -0.60108405083E+03  0.88859270834E+03 -0.10754517668E+04  0.15210107071E+04  0.77317727682E+02 0.  0.
         11    1    3    3    0    0  0.49550972055E+03 -0.64049916539E+03 -0.76088321996E+03  0.11111761059E+04  0.00000000000E+00 0.  1.
        -11    1    3    3    0    0  0.85981550890E+02 -0.62046131584E+02 -0.11599975705E+03  0.15715754253E+03  0.00000000000E+00 0. -1.
          4    1    6    6  502    0 -0.48142831803E+03  0.65300869998E+03 -0.80422189905E+03  0.11423512816E+04  0.00000000000E+00 0. -1.
          3    1    5    5  503    0  0.45883405808E+02 -0.12058532051E+03 -0.18124866070E+03  0.22247962482E+03  0.00000000000E+00 0. -1.
         -4    1    5    5    0  503 -0.26290626416E+02 -0.65462090854E+02 -0.57837991626E+02  0.91223438061E+02  0.00000000000E+00 0.  1.
         -3    1    6    6    0  502 -0.11965573280E+03  0.23558400836E+03 -0.27122986776E+03  0.37865942554E+03  0.00000000000E+00 0.  1.
<mgrwt>
<rscale>  0 0.21969469E+04</rscale>
<asrwt>0</asrwt>
<pdfrwt beam="1">  1        2 0.40726683E+00 0.21969469E+04</pdfrwt>
<pdfrwt beam="2">  1       -2 0.70125078E-01 0.21969469E+04</pdfrwt>
<totfact> 0.48335882E+00</totfact>
</mgrwt>
</event>
<event>
12    1  0.2083715E-007  0.3270246E+04  0.7818608E-02  0.8170508E-01
         -1   -1    0    0    0  501 -0.00000000000E+00  0.00000000000E+00  0.94037728338E+03  0.94037728338E+03  0.00000000000E+00 0.  1.
          1   -1    0    0  501    0  0.00000000000E+00 -0.00000000000E+00 -0.28431434270E+04  0.28431434270E+04  0.00000000000E+00 0. -1.
         23    2    1    2    0    0  0.35487502019E+03  0.82432679350E+03  0.52658467528E+03  0.10440006129E+04  0.84822856760E+02 0.  0.
        254    2    1    2    0    0 -0.35487502019E+03 -0.82432679350E+03 -0.24293508189E+04  0.27395200975E+04  0.89318196402E+03 0.  0.
        -24    2    4    4    0    0  0.19995181183E+03 -0.25232447176E+03 -0.24299822186E+03  0.41110045682E+03  0.79417149700E+02 0.  0.
         24    2    4    4    0    0 -0.55482683202E+03 -0.57200232174E+03 -0.21863525971E+04  0.23284196407E+04  0.79880378574E+02 0.  0.
         11    1    3    3    0    0  0.12506650211E+03  0.20212623226E+03  0.12381562033E+03  0.26800550658E+03  0.00000000000E+00 0.  1.
        -11    1    3    3    0    0  0.22980851807E+03  0.62220056124E+03  0.40276905494E+03  0.77599510630E+03  0.00000000000E+00 0. -1.
          2    1    6    6  502    0 -0.48343837646E+03 -0.50574303539E+03 -0.19863427639E+04  0.21059549515E+04  0.00000000000E+00 0. -1.
          3    1    5    5  503    0  0.10776474988E+03 -0.13082313777E+03 -0.78536532970E+02  0.18680450129E+03  0.00000000000E+00 0. -1.
         -4    1    5    5    0  503  0.92187061953E+02 -0.12150133399E+03 -0.16446168889E+03  0.22429595553E+03  0.00000000000E+00 0.  1.
         -1    1    6    6    0  502 -0.71388455559E+02 -0.66259286354E+02 -0.20000983314E+03  0.22246468926E+03  0.00000000000E+00 0.  1.
<mgrwt>
<rscale>  0 0.32702462E+04</rscale>
<asrwt>0</asrwt>
<pdfrwt beam="1">  1        1 0.43740668E+00 0.32702462E+04</pdfrwt>
<pdfrwt beam="2">  1       -1 0.14467343E+00 0.32702462E+04</pdfrwt>
<totfact> 0.24798632E-01</totfact>
</mgrwt>
</event>
<event>
12    1  0.2083715E-007  0.2543044E+04  0.7818608E-02  0.8387809E-01
         -1   -1    0    0    0  501 -0.00000000000E+00  0.00000000000E+00  0.63141540710E+03  0.63141540710E+03  0.00000000000E+00 0.  1.
          1   -1    0    0  501    0  0.00000000000E+00 -0.00000000000E+00 -0.25605466845E+04  0.25605466845E+04  0.00000000000E+00 0. -1.
         23    2    1    2    0    0 -0.77843028529E+03  0.66347663981E+03 -0.30426062146E+03  0.10710330413E+04  0.91554841842E+02 0.  0.
        254    2    1    2    0    0  0.77843028529E+03 -0.66347663981E+03 -0.16248706560E+04  0.21209290504E+04  0.90109956580E+03 0.  0.
        -24    2    4    4    0    0  0.72006651919E+03 -0.83470280806E+03 -0.10974903814E+04  0.15575232110E+04  0.78541998075E+02 0.  0.
         24    2    4    4    0    0  0.58363766103E+02  0.17122616825E+03 -0.52738027454E+03  0.56340583944E+03  0.81064517802E+02 0.  0.
         13    1    3    3    0    0 -0.32387900211E+03  0.23010940111E+03 -0.14688154075E+03  0.42358249668E+03  0.00000000000E+00 0.  1.
        -13    1    3    3    0    0 -0.45455128318E+03  0.43336723870E+03 -0.15737908071E+03  0.64745054457E+03  0.00000000000E+00 0. -1.
          4    1    6    6  502    0 -0.58243312907E+01  0.82432885364E+02 -0.16064992017E+03  0.18065851842E+03  0.00000000000E+00 0. -1.
          1    1    5    5  503    0  0.17761223393E+03 -0.23582390214E+03 -0.33510009538E+03  0.44659947647E+03  0.00000000000E+00 0. -1.
         -2    1    5    5    0  503  0.54245428526E+03 -0.59887890592E+03 -0.76239028606E+03  0.11109237345E+04  0.00000000000E+00 0.  1.
         -3    1    6    6    0  502  0.64188097393E+02  0.88793282890E+02 -0.36673035437E+03  0.38274732102E+03  0.00000000000E+00 0.  1.
<mgrwt>
<rscale>  0 0.25430443E+04</rscale>
<asrwt>0</asrwt>
<pdfrwt beam="1">  1        1 0.39393027E+00 0.25430443E+04</pdfrwt>
<pdfrwt beam="2">  1       -1 0.97140828E-01 0.25430443E+04</pdfrwt>
<totfact> 0.11076435E+00</totfact>
</mgrwt>
</event>
<event>
12    1  0.2083715E-007  0.1145392E+04  0.7818608E-02  0.9162045E-01
          1   -1    0    0  501    0  0.00000000000E+00  0.00000000000E+00  0.14952159038E+04  0.14952159038E+04  0.00000000000E+00 0.  1.
         -1   -1    0    0    0  501 -0.00000000000E+00 -0.00000000000E+00 -0.21935355586E+03  0.21935355586E+03  0.00000000000E+00 0. -1.
         23    2    1    2    0    0 -0.12557922749E+03 -0.40594464913E+02  0.18110889111E+02  0.16207830282E+03  0.92321822901E+02 0.  0.
        254    2    1    2    0    0  0.12557922749E+03  0.40594464913E+02  0.12577514588E+04  0.15524911568E+04  0.90048431796E+03 0.  0.
        -24    2    4    4    0    0 -0.36686158361E+03 -0.89268415617E+02  0.64179968176E+03  0.74932982730E+03  0.83857539960E+02 0.  0.
         24    2    4    4    0    0  0.49244081110E+03  0.12986288053E+03  0.61595177705E+03  0.80316132952E+03  0.79430531991E+02 0.  0.
         11    1    3    3    0    0 -0.35914239607E+02 -0.45644633954E+01 -0.36226653451E+02  0.51215596774E+02  0.00000000000E+00 0. -1.
        -11    1    3    3    0    0 -0.89664987878E+02 -0.36030001517E+02  0.54337542562E+02  0.11086270605E+03  0.00000000000E+00 0.  1.
          4    1    6    6  502    0  0.18654194803E+03  0.53445390252E+02  0.29618813060E+03  0.35409280820E+03  0.00000000000E+00 0. -1.
          1    1    5    5  503    0 -0.18207294191E+03 -0.62898223509E+02  0.25246339701E+03  0.31756024550E+03  0.00000000000E+00 0. -1.
         -2    1    5    5    0  503 -0.18478864171E+03 -0.26370192108E+02  0.38933628476E+03  0.43176958180E+03  0.00000000000E+00 0.  1.
         -3    1    6    6    0  502  0.30589886307E+03  0.76417490278E+02  0.31976364645E+03  0.44906852132E+03  0.00000000000E+00 0.  1.
<mgrwt>
<rscale>  0 0.11453924E+04</rscale>
<asrwt>0</asrwt>
<pdfrwt beam="1">  1        1 0.23003321E+00 0.11453924E+04</pdfrwt>
<pdfrwt beam="2">  1       -1 0.33746702E-01 0.11453924E+04</pdfrwt>
<totfact> 0.54232995E+01</totfact>
</mgrwt>
</event>
<event>
12    1  0.3196924E-007  0.2575640E+04  0.7818608E-02  0.8376523E-01
         -2   -1    0    0    0  501 -0.00000000000E+00  0.00000000000E+00  0.10285615025E+04  0.10285615025E+04  0.00000000000E+00 0.  1.
          2   -1    0    0  501    0  0.00000000000E+00 -0.00000000000E+00 -0.16124273408E+04  0.16124273408E+04  0.00000000000E+00 0. -1.
         23    2    1    2    0    0 -0.10639799868E+04  0.36355096592E+03 -0.36910986969E+03  0.11869798865E+04  0.91958892626E+02 0.  0.
        254    2    1    2    0    0  0.10639799868E+04 -0.36355096592E+03 -0.21475596855E+03  0.14540089568E+04  0.89654849459E+03 0.  0.
        -24    2    4    4    0    0  0.29380581061E+03  0.32588003512E+02 -0.45864292306E+03  0.55074140913E+03  0.74692278999E+02 0.  0.
         24    2    4    4    0    0  0.77017417622E+03 -0.39613896943E+03  0.24388695450E+03  0.90326754764E+03  0.79480005179E+02 0.  0.
         11    1    3    3    0    0 -0.62276829104E+03  0.20097113094E+03 -0.16833706737E+03  0.67569749744E+03  0.00000000000E+00 0. -1.
        -11    1    3    3    0    0 -0.44121169579E+03  0.16257983498E+03 -0.20077280232E+03  0.51128238909E+03  0.00000000000E+00 0.  1.
          4    1    6    6  502    0  0.61016427285E+03 -0.30521507741E+03  0.15864534000E+03  0.70044630575E+03  0.00000000000E+00 0. -1.
          1    1    5    5  503    0  0.15977622244E+03  0.32183937831E+02 -0.31246493692E+03  0.35241819464E+03  0.00000000000E+00 0. -1.
         -4    1    5    5    0  503  0.13402958817E+03  0.40406568044E+00 -0.14617798614E+03  0.19832321449E+03  0.00000000000E+00 0.  1.
         -3    1    6    6    0  502  0.16000990338E+03 -0.90923892019E+02  0.85241614505E+02  0.20282124189E+03  0.00000000000E+00 0.  1.
<mgrwt>
<rscale>  0 0.25756403E+04</rscale>
<asrwt>0</asrwt>
<pdfrwt beam="1">  1        2 0.24806574E+00 0.25756403E+04</pdfrwt>
<pdfrwt beam="2">  1       -2 0.15824023E+00 0.25756403E+04</pdfrwt>
<totfact> 0.25255002E+00</totfact>
</mgrwt>
</event>
<event>
12    1  0.2083715E-007  0.1535169E+04  0.7818608E-02  0.8861397E-01
          2   -1    0    0  501    0  0.00000000000E+00  0.00000000000E+00  0.14271885660E+04  0.14271885660E+04  0.00000000000E+00 0. -1.
         -2   -1    0    0    0  501 -0.00000000000E+00 -0.00000000000E+00 -0.41282984748E+03  0.41282984748E+03  0.00000000000E+00 0.  1.
         23    2    1    2    0    0  0.41325220271E+03  0.22693836270E+03  0.49437471826E+03  0.68961705355E+03  0.94270435345E+02 0.  0.
        254    2    1    2    0    0 -0.41325220271E+03 -0.22693836270E+03  0.51998400027E+03  0.11504013599E+04  0.91146120317E+03 0.  0.
        -24    2    4    4    0    0  0.28433027672E+03 -0.50922517537E+02  0.17996155898E+03  0.34972793671E+03  0.80539791119E+02 0.  0.
         24    2    4    4    0    0 -0.69758247943E+03 -0.17601584517E+03  0.34002244129E+03  0.80067342322E+03  0.88655381773E+02 0.  0.
         11    1    3    3    0    0  0.22003948073E+03  0.17105559979E+03  0.30846170723E+03  0.41572348517E+03  0.00000000000E+00 0. -1.
        -11    1    3    3    0    0  0.19321272199E+03  0.55882762915E+02  0.18591301103E+03  0.27389356838E+03  0.00000000000E+00 0.  1.
          2    1    6    6  502    0 -0.50175273222E+03 -0.16289172227E+03  0.26708493453E+03  0.59129001321E+03  0.00000000000E+00 0. -1.
          3    1    5    5  503    0  0.11106232326E+03  0.16837598136E+02  0.84874456836E+02  0.14079068784E+03  0.00000000000E+00 0. -1.
         -4    1    5    5    0  503  0.17326795345E+03 -0.67760115673E+02  0.95087102147E+02  0.20893724887E+03  0.00000000000E+00 0.  1.
         -1    1    6    6    0  502 -0.19582974721E+03 -0.13124122895E+02  0.72937506757E+02  0.20938341001E+03  0.00000000000E+00 0.  1.
<mgrwt>
<rscale>  0 0.15351691E+04</rscale>
<asrwt>0</asrwt>
<pdfrwt beam="1">  1        2 0.21956747E+00 0.15351691E+04</pdfrwt>
<pdfrwt beam="2">  1       -2 0.63512285E-01 0.15351691E+04</pdfrwt>
<totfact> 0.30867090E+01</totfact>
</mgrwt>
</event>
<event>
12    1  0.2083715E-007  0.3640429E+04  0.7818608E-02  0.8081293E-01
         -2   -1    0    0    0  501 -0.00000000000E+00  0.00000000000E+00  0.20251406833E+04  0.20251406833E+04  0.00000000000E+00 0.  1.
          2   -1    0    0  501    0  0.00000000000E+00 -0.00000000000E+00 -0.16360250316E+04  0.16360250316E+04  0.00000000000E+00 0. -1.
         23    2    1    2    0    0 -0.14984804927E+03  0.16524694944E+04  0.58768438018E+03  0.17625419419E+04  0.89840404174E+02 0.  0.
        254    2    1    2    0    0  0.14984804927E+03 -0.16524694944E+04 -0.19856872852E+03  0.18986237730E+04  0.90123960385E+03 0.  0.
        -24    2    4    4    0    0 -0.20955070424E+03 -0.12904507589E+04  0.79478753434E+02  0.13121455034E+04  0.78957527161E+02 0.  0.
         24    2    4    4    0    0  0.35939875351E+03 -0.36201873559E+03 -0.27804748195E+03  0.58647826963E+03  0.80133199064E+02 0.  0.
         13    1    3    3    0    0 -0.53101854306E+02  0.96071856858E+03  0.31008671636E+03  0.10109172798E+04  0.00000000000E+00 0. -1.
        -13    1    3    3    0    0 -0.96746194959E+02  0.69175092586E+03  0.27759766381E+03  0.75162466206E+03  0.00000000000E+00 0.  1.
          4    1    6    6  502    0  0.36060572177E+03 -0.36501721755E+03 -0.27568176979E+03  0.58247274089E+03  0.00000000000E+00 0. -1.
          1    1    5    5  503    0 -0.16213482192E+03 -0.10904566499E+04  0.91650240129E+02  0.11062473378E+04  0.00000000000E+00 0. -1.
         -2    1    5    5    0  503 -0.47415882322E+02 -0.19999410891E+03 -0.12171486694E+02  0.20589816557E+03  0.00000000000E+00 0.  1.
         -3    1    6    6    0  502 -0.12069682689E+01  0.29984819615E+01 -0.23657121628E+01  0.40055287432E+01  0.00000000000E+00 0.  1.
<mgrwt>
<rscale>  0 0.36404290E+04</rscale>
<asrwt>0</asrwt>
<pdfrwt beam="1">  1        2 0.25169616E+00 0.36404290E+04</pdfrwt>
<pdfrwt beam="2">  1       -2 0.31156010E+00 0.36404290E+04</pdfrwt>
<totfact> 0.23341262E-01</totfact>
</mgrwt>
</event>
<event>
12    1  0.2083715E-007  0.4307968E+04  0.7818608E-02  0.7945146E-01
          2   -1    0    0  501    0  0.00000000000E+00  0.00000000000E+00  0.47136217927E+04  0.47136217927E+04  0.00000000000E+00 0. -1.
         -2   -1    0    0    0  501 -0.00000000000E+00 -0.00000000000E+00 -0.98430607919E+03  0.98430607919E+03  0.00000000000E+00 0.  1.
         23    2    1    2    0    0 -0.10256517820E+04 -0.11076777196E+04 -0.68144603280E+02  0.15138876042E+04  0.91106985644E+02 0.  0.
        254    2    1    2    0    0  0.10256517820E+04  0.11076777196E+04  0.37974603168E+04  0.41840402677E+04  0.89809609484E+03 0.  0.
        -24    2    4    4    0    0  0.25664307367E+03  0.82209826861E+03  0.25172489496E+04  0.26616635726E+04  0.78736708604E+02 0.  0.
         24    2    4    4    0    0  0.76900870834E+03  0.28557945098E+03  0.12802113672E+04  0.15223766951E+04  0.75892295556E+02 0.  0.
         13    1    3    3    0    0 -0.81885717977E+02 -0.11705974832E+03  0.11748956560E+02  0.14333978326E+03  0.00000000000E+00 0.  1.
        -13    1    3    3    0    0 -0.94376606403E+03 -0.99061797126E+03 -0.79893559840E+02  0.13705478210E+04  0.00000000000E+00 0. -1.
          2    1    6    6  502    0  0.64529375699E+03  0.25716221215E+03  0.10393540740E+04  0.12501173254E+04  0.00000000000E+00 0. -1.
          3    1    5    5  503    0  0.35012629386E+02  0.72416300749E+02  0.30167995626E+03  0.31221915515E+03  0.00000000000E+00 0. -1.
         -4    1    5    5    0  503  0.22163044428E+03  0.74968196786E+03  0.22155689933E+04  0.23494444175E+04  0.00000000000E+00 0.  1.
         -1    1    6    6    0  502  0.12371495136E+03  0.28417238822E+02  0.24085729326E+03  0.27225936966E+03  0.00000000000E+00 0.  1.
<mgrwt>
<rscale>  0 0.43079678E+04</rscale>
<asrwt>0</asrwt>
<pdfrwt beam="1">  1        2 0.72517257E+00 0.43079678E+04</pdfrwt>
<pdfrwt beam="2">  1       -2 0.15143171E+00 0.43079678E+04</pdfrwt>
<totfact> 0.16506905E-02</totfact>
</mgrwt>
</event>
<event>
12    1  0.2083715E-007  0.2789968E+04  0.7818608E-02  0.8306390E-01
          1   -1    0    0  501    0  0.00000000000E+00  0.00000000000E+00  0.14158764508E+04  0.14158764508E+04  0.00000000000E+00 0. -1.
         -1   -1    0    0    0  501 -0.00000000000E+00 -0.00000000000E+00 -0.13743993714E+04  0.13743993714E+04  0.00000000000E+00 0.  1.
         23    2    1    2    0    0 -0.10955022377E+04 -0.55890182207E+03 -0.17355101752E+03  0.12454383423E+04  0.92197121522E+02 0.  0.
        254    2    1    2    0    0  0.10955022377E+04  0.55890182207E+03  0.21502809684E+03  0.15448374799E+04  0.90982930124E+03 0.  0.
        -24    2    4    4    0    0  0.46113225143E+03  0.45347721190E+03  0.51544386599E+03  0.83071372880E+03  0.78220107417E+02 0.  0.
         24    2    4    4    0    0  0.63436998628E+03  0.10542461017E+03 -0.30041576914E+03  0.71412375113E+03  0.78635040847E+02 0.  0.
         11    1    3    3    0    0 -0.62206781389E+03 -0.30611723220E+03 -0.14281921727E+03  0.70786542065E+03  0.00000000000E+00 0. -1.
        -11    1    3    3    0    0 -0.47343442382E+03 -0.25278458988E+03 -0.30731800252E+02  0.53757292164E+03  0.00000000000E+00 0.  1.
          4    1    6    6  502    0  0.17084437897E+02  0.30411205368E+01  0.46991164506E+01  0.17977990093E+02  0.00000000000E+00 0. -1.
          1    1    5    5  503    0  0.10732173585E+03  0.12465801942E+03  0.92614300552E+02  0.18877231115E+03  0.00000000000E+00 0. -1.
         -2    1    5    5    0  503  0.35381051559E+03  0.32881919248E+03  0.42282956543E+03  0.64194141764E+03  0.00000000000E+00 0.  1.
         -3    1    6    6    0  502  0.61728554838E+03  0.10238348964E+03 -0.30511488559E+03  0.69614576103E+03  0.00000000000E+00 0.  1.
<mgrwt>
<rscale>  0 0.27899675E+04</rscale>
<asrwt>0</asrwt>
<pdfrwt beam="1">  1        1 0.21782715E+00 0.27899675E+04</pdfrwt>
<pdfrwt beam="2">  1       -1 0.21144606E+00 0.27899675E+04</pdfrwt>
<totfact> 0.81550264E-01</totfact>
</mgrwt>
</event>
<event>
12    1  0.2083715E-007  0.1314182E+04  0.7818608E-02  0.9018394E-01
          2   -1    0    0  501    0  0.00000000000E+00  0.00000000000E+00  0.10727806233E+04  0.10727806233E+04  0.00000000000E+00 0.  1.
         -2   -1    0    0    0  501 -0.00000000000E+00 -0.00000000000E+00 -0.40247610152E+03  0.40247610152E+03  0.00000000000E+00 0. -1.
         23    2    1    2    0    0  0.92116875618E+02 -0.12576918764E+03 -0.15917933101E+03  0.24123411704E+03  0.92479362395E+02 0.  0.
        254    2    1    2    0    0 -0.92116875618E+02  0.12576918764E+03  0.82948385280E+03  0.12340226078E+04  0.90025825581E+03 0.  0.
        -24    2    4    4    0    0 -0.11462805920E+03 -0.23404754850E+03 -0.51193297697E+02  0.27927109981E+03  0.86335082924E+02 0.  0.
         24    2    4    4    0    0  0.22511183580E+02  0.35981673614E+03  0.88067715049E+03  0.95475150798E+03  0.77352191953E+02 0.  0.
         13    1    3    3    0    0  0.20975484820E+02 -0.10317725708E+03 -0.10733007648E+03  0.15035046610E+03  0.00000000000E+00 0. -1.
        -13    1    3    3    0    0  0.71141390798E+02 -0.22591930562E+02 -0.51849254533E+02  0.90883650932E+02  0.00000000000E+00 0.  1.
          2    1    6    6  502    0  0.17098011767E+02  0.90827967235E+02  0.31630575266E+03  0.32953207857E+03  0.00000000000E+00 0. -1.
          1    1    5    5  503    0 -0.12049474398E+03 -0.19235696355E+03 -0.62970499385E+02  0.23555353648E+03  0.00000000000E+00 0. -1.
         -2    1    5    5    0  503  0.58666847861E+01 -0.41690584955E+02  0.11777201687E+02  0.43717563333E+02  0.00000000000E+00 0.  1.
         -1    1    6    6    0  502  0.54131718135E+01  0.26898876891E+03  0.56437139783E+03  0.62521942942E+03  0.00000000000E+00 0.  1.
<mgrwt>
<rscale>  0 0.13141820E+04</rscale>
<asrwt>0</asrwt>
<pdfrwt beam="1">  1        2 0.16504317E+00 0.13141820E+04</pdfrwt>
<pdfrwt beam="2">  1       -2 0.61919401E-01 0.13141820E+04</pdfrwt>
<totfact> 0.53734298E+01</totfact>
</mgrwt>
</event>
<event>
12    1  0.2083715E-007  0.2665944E+04  0.7818608E-02  0.8346140E-01
          1   -1    0    0  501    0  0.00000000000E+00  0.00000000000E+00  0.97850003846E+03  0.97850003846E+03  0.00000000000E+00 0. -1.
         -1   -1    0    0    0  501 -0.00000000000E+00 -0.00000000000E+00 -0.18158549988E+04  0.18158549988E+04  0.00000000000E+00 0.  1.
         23    2    1    2    0    0  0.56061697957E+03  0.64031521337E+03  0.48370842157E+03  0.98344969068E+03  0.94363588011E+02 0.  0.
        254    2    1    2    0    0 -0.56061697957E+03 -0.64031521337E+03 -0.13210633819E+04  0.18109053466E+04  0.89993041119E+03 0.  0.
        -24    2    4    4    0    0 -0.43430098179E+03 -0.62312827072E+03 -0.14330514544E+04  0.16235230660E+04  0.72694499888E+02 0.  0.
         24    2    4    4    0    0 -0.12631599778E+03 -0.17186942645E+02  0.11198807250E+03  0.18738228057E+03  0.79496342024E+02 0.  0.
         13    1    3    3    0    0  0.51376004751E+03  0.53902109328E+03  0.41833521763E+03  0.85410624616E+03  0.00000000000E+00 0.  1.
        -13    1    3    3    0    0  0.46856932063E+02  0.10129412009E+03  0.65373203938E+02  0.12934344452E+03  0.00000000000E+00 0. -1.
          4    1    6    6  502    0 -0.93704102017E+02  0.20139959622E+02  0.95097241785E+02  0.13501689562E+03  0.00000000000E+00 0. -1.
          1    1    5    5  503    0 -0.22419126453E+03 -0.29047989499E+03 -0.62437504849E+03  0.72421301678E+03  0.00000000000E+00 0. -1.
         -2    1    5    5    0  503 -0.21010971726E+03 -0.33264837574E+03 -0.80867640591E+03  0.89931004923E+03  0.00000000000E+00 0.  1.
         -1    1    6    6    0  502 -0.32611895764E+02 -0.37326902267E+02  0.16890830716E+02  0.52365384945E+02  0.00000000000E+00 0.  1.
<mgrwt>
<rscale>  0 0.26659439E+04</rscale>
<asrwt>0</asrwt>
<pdfrwt beam="1">  1        1 0.15053847E+00 0.26659439E+04</pdfrwt>
<pdfrwt beam="2">  1       -1 0.27936230E+00 0.26659439E+04</pdfrwt>
<totfact> 0.61898318E-01</totfact>
</mgrwt>
</event>
<event>
12    1  0.2083715E-007  0.2178191E+04  0.7818608E-02  0.8527561E-01
         -2   -1    0    0    0  501 -0.00000000000E+00  0.00000000000E+00  0.10417234661E+04  0.10417234661E+04  0.00000000000E+00 0.  1.
          2   -1    0    0  501    0  0.00000000000E+00 -0.00000000000E+00 -0.11386214575E+04  0.11386214575E+04  0.00000000000E+00 0. -1.
         23    2    1    2    0    0  0.22951978690E+03 -0.15811526646E+01  0.83146026547E+03  0.86744584382E+03  0.91947192858E+02 0.  0.
        254    2    1    2    0    0 -0.22951978690E+03  0.15811526646E+01 -0.92835825683E+03  0.13128990798E+04  0.89954049830E+03 0.  0.
        -24    2    4    4    0    0 -0.53223710009E+03 -0.15244107376E+03 -0.69362101460E+03  0.89103809994E+03  0.79524662575E+02 0.  0.
         24    2    4    4    0    0  0.30271731320E+03  0.15402222642E+03 -0.23473724223E+03  0.42186097986E+03  0.86628491261E+02 0.  0.
         11    1    3    3    0    0  0.21113730997E+03 -0.22942456210E+02  0.78392410277E+03  0.81218367311E+03  0.00000000000E+00 0.  1.
        -11    1    3    3    0    0  0.18382476922E+02  0.21361303545E+02  0.47536162706E+02  0.55262170711E+02  0.00000000000E+00 0. -1.
          4    1    6    6  502    0  0.30391973512E+03  0.15710510160E+03 -0.21999469671E+03  0.40675162559E+03  0.00000000000E+00 0. -1.
          3    1    5    5  503    0 -0.48003778993E+03 -0.16104015881E+03 -0.63251659544E+03  0.81021445064E+03  0.00000000000E+00 0. -1.
         -4    1    5    5    0  503 -0.52199310164E+02  0.85990850547E+01 -0.61104419157E+02  0.80823649298E+02  0.00000000000E+00 0.  1.
         -3    1    6    6    0  502 -0.12024219181E+01 -0.30828751842E+01 -0.14742545525E+02  0.15109354269E+02  0.00000000000E+00 0.  1.
<mgrwt>
<rscale>  0 0.21781907E+04</rscale>
<asrwt>0</asrwt>
<pdfrwt beam="1">  1        2 0.17517253E+00 0.21781907E+04</pdfrwt>
<pdfrwt beam="2">  1       -2 0.16026515E+00 0.21781907E+04</pdfrwt>
<totfact> 0.47366471E+00</totfact>
</mgrwt>
</event>
<event>
12    1  0.2083715E-007  0.2373227E+04  0.7818608E-02  0.8449595E-01
         -1   -1    0    0    0  501 -0.00000000000E+00  0.00000000000E+00  0.13850204267E+04  0.13850204267E+04  0.00000000000E+00 0.  1.
          1   -1    0    0  501    0  0.00000000000E+00 -0.00000000000E+00 -0.10166289556E+04  0.10166289556E+04  0.00000000000E+00 0. -1.
         23    2    1    2    0    0  0.78655786734E+03 -0.18027175477E+03 -0.46308014974E+03  0.93507832032E+03  0.93579141882E+02 0.  0.
        254    2    1    2    0    0 -0.78655786734E+03  0.18027175477E+03  0.83147162079E+03  0.14665710620E+04  0.89906308986E+03 0.  0.
        -24    2    4    4    0    0 -0.22269631869E+03 -0.15194321806E+03 -0.12274586075E+03  0.30682559345E+03  0.79968785092E+02 0.  0.
         24    2    4    4    0    0 -0.56386154865E+03  0.33221497283E+03  0.95421748154E+03  0.11597454686E+04  0.78561540209E+02 0.  0.
         13    1    3    3    0    0  0.65041666436E+03 -0.13874159514E+03 -0.34006349571E+03  0.74694996393E+03  0.00000000000E+00 0. -1.
        -13    1    3    3    0    0  0.13614120298E+03 -0.41530159635E+02 -0.12301665403E+03  0.18812835639E+03  0.00000000000E+00 0.  1.
          4    1    6    6  502    0 -0.54010947647E+03  0.32384610941E+03  0.93798711213E+03  0.11297850998E+04  0.00000000000E+00 0. -1.
          1    1    5    5  503    0 -0.20901615888E+03 -0.13284553264E+03 -0.13309141686E+03  0.28115656752E+03  0.00000000000E+00 0. -1.
         -2    1    5    5    0  503 -0.13680159810E+02 -0.19097685417E+02  0.10345556113E+02  0.25669025927E+02  0.00000000000E+00 0.  1.
         -3    1    6    6    0  502 -0.23752072185E+02  0.83688634277E+01  0.16230369415E+02  0.29960368815E+02  0.00000000000E+00 0.  1.
<mgrwt>
<rscale>  0 0.23732272E+04</rscale>
<asrwt>0</asrwt>
<pdfrwt beam="1">  1        1 0.15640445E+00 0.23732272E+04</pdfrwt>
<pdfrwt beam="2">  1       -1 0.21308007E+00 0.23732272E+04</pdfrwt>
<totfact> 0.16160655E+00</totfact>
</mgrwt>
</event>
<event>
12    1  0.2083715E-007  0.1412341E+04  0.7818608E-02  0.8944934E-01
         -2   -1    0    0    0  501 -0.00000000000E+00  0.00000000000E+00  0.14652138864E+04  0.14652138864E+04  0.00000000000E+00 0.  1.
          2   -1    0    0  501    0  0.00000000000E+00 -0.00000000000E+00 -0.34034403786E+03  0.34034403786E+03  0.00000000000E+00 0. -1.
         23    2    1    2    0    0 -0.40827620640E+03  0.52169849418E+02  0.34216870054E+03  0.54285746753E+03  0.90574038913E+02 0.  0.
        254    2    1    2    0    0  0.40827620640E+03 -0.52169849418E+02  0.78270114801E+03  0.12627004567E+04  0.90132136468E+03 0.  0.
        -24    2    4    4    0    0  0.44077361870E+02  0.30888314525E+03  0.65275821340E+03  0.72742112633E+03  0.75475814796E+02 0.  0.
         24    2    4    4    0    0  0.36419884453E+03 -0.36105299467E+03  0.12994293461E+03  0.53527933040E+03  0.81478414190E+02 0.  0.
         11    1    3    3    0    0 -0.10994054271E+03  0.29679227073E+02  0.14574448572E+03  0.18495738581E+03  0.00000000000E+00 0.  1.
        -11    1    3    3    0    0 -0.29833566370E+03  0.22490622346E+02  0.19642421482E+03  0.35790008172E+03  0.00000000000E+00 0. -1.
          4    1    6    6  502    0  0.72256650616E+02 -0.12031311362E+03  0.45908734454E+02  0.14766137195E+03  0.00000000000E+00 0. -1.
          3    1    5    5  503    0  0.35777603993E+02  0.68776810718E+02  0.11820136916E+03  0.14135717283E+03  0.00000000000E+00 0. -1.
         -4    1    5    5    0  503  0.82997578764E+01  0.24010633454E+03  0.53455684424E+03  0.58606395350E+03  0.00000000000E+00 0.  1.
         -3    1    6    6    0  502  0.29194219392E+03 -0.24073988105E+03  0.84034200156E+02  0.38761795845E+03  0.00000000000E+00 0.  1.
<mgrwt>
<rscale>  0 0.14123411E+04</rscale>
<asrwt>0</asrwt>
<pdfrwt beam="1">  1        2 0.52360622E-01 0.14123411E+04</pdfrwt>
<pdfrwt beam="2">  1       -2 0.22541752E+00 0.14123411E+04</pdfrwt>
<totfact> 0.84685691E+00</totfact>
</mgrwt>
</event>
<event>
12    1  0.2083715E-007  0.2841198E+04  0.7818608E-02  0.8290591E-01
          2   -1    0    0  501    0  0.00000000000E+00  0.00000000000E+00  0.12952324880E+04  0.12952324880E+04  0.00000000000E+00 0. -1.
         -2   -1    0    0    0  501 -0.00000000000E+00 -0.00000000000E+00 -0.15580994668E+04  0.15580994668E+04  0.00000000000E+00 0.  1.
         23    2    1    2    0    0 -0.17185540599E+03  0.10915471739E+04 -0.75952839452E+03  0.13439624574E+04  0.91335597201E+02 0.  0.
        254    2    1    2    0    0  0.17185540599E+03 -0.10915471739E+04  0.49666141577E+03  0.15093694974E+04  0.90028562379E+03 0.  0.
        -24    2    4    4    0    0  0.16038610214E+03 -0.12408226836E+04  0.45943813032E+03  0.13352230234E+04  0.79827894360E+02 0.  0.
         24    2    4    4    0    0  0.11469303854E+02  0.14927550970E+03  0.37223285451E+02  0.17414647402E+03  0.80787986170E+02 0.  0.
         11    1    3    3    0    0 -0.17578779470E+03  0.96664254097E+03 -0.65252554784E+03  0.11794442511E+04  0.00000000000E+00 0. -1.
        -11    1    3    3    0    0  0.39323887108E+01  0.12490463292E+03 -0.10700284669E+03  0.16451820630E+03  0.00000000000E+00 0.  1.
          4    1    6    6  502    0 -0.48939508600E+01  0.11273262530E+03  0.60292751793E+02  0.12793674796E+03  0.00000000000E+00 0. -1.
          1    1    5    5  503    0  0.97686941765E+02 -0.94243714360E+03  0.37345114703E+03  0.10184283320E+04  0.00000000000E+00 0. -1.
         -2    1    5    5    0  503  0.62699160374E+02 -0.29838554000E+03  0.85986983283E+02  0.31679469138E+03  0.00000000000E+00 0.  1.
         -3    1    6    6    0  502  0.16363254714E+02  0.36542884401E+02 -0.23069466342E+02  0.46209726060E+02  0.00000000000E+00 0.  1.
<mgrwt>
<rscale>  0 0.28411977E+04</rscale>
<asrwt>0</asrwt>
<pdfrwt beam="1">  1        2 0.19926654E+00 0.28411977E+04</pdfrwt>
<pdfrwt beam="2">  1       -2 0.23970761E+00 0.28411977E+04</pdfrwt>
<totfact> 0.10732943E+00</totfact>
</mgrwt>
</event>
<event>
12    1  0.2083715E-007  0.1608328E+04  0.7818608E-02  0.8815448E-01
         -2   -1    0    0    0  501 -0.00000000000E+00  0.00000000000E+00  0.60154469270E+03  0.60154469270E+03  0.00000000000E+00 0.  1.
          2   -1    0    0  501    0  0.00000000000E+00 -0.00000000000E+00 -0.10750317467E+04  0.10750317467E+04  0.00000000000E+00 0. -1.
         23    2    1    2    0    0  0.21150777752E+03  0.50102562263E+03 -0.99778508275E+02  0.56008139755E+03  0.89292814285E+02 0.  0.
        254    2    1    2    0    0 -0.21150777752E+03 -0.50102562263E+03 -0.37370854571E+03  0.11164950418E+04  0.90063360297E+03 0.  0.
        -24    2    4    4    0    0 -0.22062869514E+03 -0.70511715796E+03 -0.46729046100E+03  0.87785339597E+03  0.79993639052E+02 0.  0.
         24    2    4    4    0    0  0.91209176170E+01  0.20409153534E+03  0.93581915295E+02  0.23864164586E+03  0.80347460041E+02 0.  0.
         13    1    3    3    0    0  0.40446479666E+02  0.90782296511E+02  0.16257684451E+02  0.10070578623E+03  0.00000000000E+00 0.  1.
        -13    1    3    3    0    0  0.17106129786E+03  0.41024332612E+03 -0.11603619273E+03  0.45937561131E+03  0.00000000000E+00 0. -1.
          2    1    6    6  502    0  0.11467666459E+02 -0.20594308035E+01  0.12549462146E+02  0.17124182591E+02  0.00000000000E+00 0. -1.
          1    1    5    5  503    0 -0.15270748336E+03 -0.43770825857E+03 -0.25023832854E+03  0.52680861436E+03  0.00000000000E+00 0. -1.
         -2    1    5    5    0  503 -0.67921211776E+02 -0.26740889940E+03 -0.21705213246E+03  0.35104478160E+03  0.00000000000E+00 0.  1.
         -1    1    6    6    0  502 -0.23467488419E+01  0.20615096614E+03  0.81032453148E+02  0.22151746327E+03  0.00000000000E+00 0.  1.
<mgrwt>
<rscale>  0 0.16083279E+04</rscale>
<asrwt>0</asrwt>
<pdfrwt beam="1">  1        2 0.16538950E+00 0.16083279E+04</pdfrwt>
<pdfrwt beam="2">  1       -2 0.92545338E-01 0.16083279E+04</pdfrwt>
<totfact> 0.21439366E+01</totfact>
</mgrwt>
</event>
<event>
12    1  0.2083715E-007  0.2962241E+04  0.7818608E-02  0.8254596E-01
         -2   -1    0    0    0  501 -0.00000000000E+00  0.00000000000E+00  0.46785986405E+03  0.46785986405E+03  0.00000000000E+00 0.  1.
          2   -1    0    0  501    0  0.00000000000E+00 -0.00000000000E+00 -0.46888365644E+04  0.46888365644E+04  0.00000000000E+00 0. -1.
         23    2    1    2    0    0  0.76717744655E+03  0.10384859913E+04 -0.12694869836E+04  0.18119429377E+04  0.67272722467E+02 0.  0.
        254    2    1    2    0    0 -0.76717744655E+03 -0.10384859913E+04 -0.29514897168E+04  0.33447534908E+04  0.89948317229E+03 0.  0.
        -24    2    4    4    0    0  0.43573025803E+02 -0.29515492196E+03 -0.14449019302E+04  0.14775647742E+04  0.80256073194E+02 0.  0.
         24    2    4    4    0    0 -0.81075047235E+03 -0.74333106937E+03 -0.15065877865E+04  0.18671887166E+04  0.82033760465E+02 0.  0.
         13    1    3    3    0    0  0.61586367917E+03  0.83081351473E+03 -0.97821775939E+03  0.14235340363E+04  0.00000000000E+00 0.  1.
        -13    1    3    3    0    0  0.15131376738E+03  0.20767247660E+03 -0.29126922421E+03  0.38840890142E+03  0.00000000000E+00 0. -1.
          4    1    6    6  502    0 -0.71092121897E+03 -0.66104064873E+03 -0.12830609882E+04  0.16089217564E+04  0.00000000000E+00 0. -1.
          1    1    5    5  503    0  0.33930768342E+02 -0.26890059562E+03 -0.11576446997E+04  0.11889491486E+04  0.00000000000E+00 0. -1.
         -4    1    5    5    0  503  0.96422574611E+01 -0.26254326336E+02 -0.28725723059E+03  0.28861562555E+03  0.00000000000E+00 0.  1.
         -3    1    6    6    0  502 -0.99829253382E+02 -0.82290420641E+02 -0.22352679830E+03  0.25826696018E+03  0.00000000000E+00 0.  1.
<mgrwt>
<rscale>  0 0.29622413E+04</rscale>
<asrwt>0</asrwt>
<pdfrwt beam="1">  1        2 0.72135949E+00 0.29622413E+04</pdfrwt>
<pdfrwt beam="2">  1       -2 0.71978439E-01 0.29622413E+04</pdfrwt>
<totfact> 0.11841608E-01</totfact>
</mgrwt>
</event>
<event>
12    1  0.2083715E-007  0.2198854E+04  0.7818608E-02  0.8518905E-01
          1   -1    0    0  501    0  0.00000000000E+00  0.00000000000E+00  0.16887419566E+04  0.16887419566E+04  0.00000000000E+00 0. -1.
         -1   -1    0    0    0  501 -0.00000000000E+00 -0.00000000000E+00 -0.71576334531E+03  0.71576334531E+03  0.00000000000E+00 0.  1.
         23    2    1    2    0    0  0.70612574778E+03  0.30399868901E+02  0.10366889088E+04  0.12566081620E+04  0.69299750179E+02 0.  0.
        254    2    1    2    0    0 -0.70612574778E+03 -0.30399868901E+02 -0.63710297525E+02  0.11478971399E+04  0.90225889751E+03 0.  0.
        -24    2    4    4    0    0 -0.78037887433E+03  0.17996022830E+03  0.16169986213E+03  0.82097212850E+03  0.80445752482E+02 0.  0.
         24    2    4    4    0    0  0.74253126550E+02 -0.21036009720E+03 -0.22541015965E+03  0.32692501143E+03  0.79406081167E+02 0.  0.
         13    1    3    3    0    0  0.64856482168E+03  0.86102946631E+01  0.94696843611E+03  0.11478064663E+04  0.00000000000E+00 0.  1.
        -13    1    3    3    0    0  0.57560926097E+02  0.21789574238E+02  0.89720472700E+02  0.10880169567E+03  0.00000000000E+00 0. -1.
          4    1    6    6  502    0  0.11645442316E+02 -0.10095841610E+03 -0.14620411658E+03  0.17805578287E+03  0.00000000000E+00 0. -1.
          3    1    5    5  503    0 -0.41124854144E+02  0.26307013905E+02  0.19898042417E+02  0.52718542288E+02  0.00000000000E+00 0. -1.
         -4    1    5    5    0  503 -0.73925402019E+03  0.15365321440E+03  0.14180181971E+03  0.76825358621E+03  0.00000000000E+00 0.  1.
         -3    1    6    6    0  502  0.62607684234E+02 -0.10940168110E+03 -0.79206043071E+02  0.14886922856E+03  0.00000000000E+00 0.  1.
<mgrwt>
<rscale>  0 0.21988539E+04</rscale>
<asrwt>0</asrwt>
<pdfrwt beam="1">  1        1 0.25980645E+00 0.21988539E+04</pdfrwt>
<pdfrwt beam="2">  1       -1 0.11011744E+00 0.21988539E+04</pdfrwt>
<totfact> 0.33669679E+00</totfact>
</mgrwt>
</event>
<event>
12    1  0.2083715E-007  0.2590541E+04  0.7818608E-02  0.8371421E-01
          2   -1    0    0  501    0  0.00000000000E+00  0.00000000000E+00  0.18030414045E+04  0.18030414045E+04  0.00000000000E+00 0. -1.
         -2   -1    0    0    0  501 -0.00000000000E+00 -0.00000000000E+00 -0.93049788085E+03  0.93049788085E+03  0.00000000000E+00 0.  1.
         23    2    1    2    0    0 -0.96575360180E+03 -0.58779472469E+03  0.26824124094E+03  0.11665138905E+04  0.10304676448E+03 0.  0.
        254    2    1    2    0    0  0.96575360180E+03  0.58779472469E+03  0.60430228275E+03  0.15670253949E+04  0.90122399071E+03 0.  0.
        -24    2    4    4    0    0 -0.58543253992E+02 -0.91858984692E+02  0.25182868201E+03  0.28589018459E+03  0.80312682117E+02 0.  0.
         24    2    4    4    0    0  0.10242968558E+04  0.67965370938E+03  0.35247360075E+03  0.12811352103E+04  0.77178846178E+02 0.  0.
         11    1    3    3    0    0 -0.66741487127E+03 -0.36155314372E+03  0.21019479631E+03  0.78761992009E+03  0.00000000000E+00 0.  1.
        -11    1    3    3    0    0 -0.29833873053E+03 -0.22624158097E+03  0.58046444629E+02  0.37889397043E+03  0.00000000000E+00 0. -1.
          4    1    6    6  502    0  0.78984035366E+03  0.56139624760E+03  0.28308353098E+03  0.10095295026E+04  0.00000000000E+00 0. -1.
          1    1    5    5  503    0 -0.10552374418E+01 -0.53537260307E+02  0.52760051529E+02  0.75172965916E+02  0.00000000000E+00 0. -1.
         -2    1    5    5    0  503 -0.57488016550E+02 -0.38321724385E+02  0.19906863048E+03  0.21071721868E+03  0.00000000000E+00 0.  1.
         -3    1    6    6    0  502  0.23445650214E+03  0.11825746178E+03  0.69390069770E+02  0.27160570768E+03  0.00000000000E+00 0.  1.
<mgrwt>
<rscale>  0 0.25905414E+04</rscale>
<asrwt>0</asrwt>
<pdfrwt beam="1">  1        2 0.27739098E+00 0.25905414E+04</pdfrwt>
<pdfrwt beam="2">  1       -2 0.14315352E+00 0.25905414E+04</pdfrwt>
<totfact> 0.25788686E+00</totfact>
</mgrwt>
</event>
<event>
12    1  0.2083715E-007  0.1698137E+04  0.7818608E-02  0.8762427E-01
          1   -1    0    0  501    0  0.00000000000E+00  0.00000000000E+00  0.10688265535E+04  0.10688265535E+04  0.00000000000E+00 0. -1.
         -1   -1    0    0    0  501 -0.00000000000E+00 -0.00000000000E+00 -0.67449441971E+03  0.67449441971E+03  0.00000000000E+00 0.  1.
         23    2    1    2    0    0  0.38415106726E+03  0.12830690273E+02 -0.33704193316E+03  0.52171699517E+03  0.10418583997E+03 0.  0.
        254    2    1    2    0    0 -0.38415106726E+03 -0.12830690273E+02  0.73137406695E+03  0.12216039780E+04  0.89981752833E+03 0.  0.
        -24    2    4    4    0    0 -0.30795791849E+03 -0.31006009078E+03  0.78281961083E+03  0.90009130227E+03  0.79890361434E+02 0.  0.
         24    2    4    4    0    0 -0.76193148763E+02  0.29722940051E+03 -0.51445543885E+02  0.32151267578E+03  0.81074313177E+02 0.  0.
         11    1    3    3    0    0  0.23590812772E+03 -0.37135586988E+02 -0.23430834111E+03  0.33456254311E+03  0.00000000000E+00 0.  1.
        -11    1    3    3    0    0  0.14824293954E+03  0.49966277261E+02 -0.10273359205E+03  0.18715445205E+03  0.00000000000E+00 0. -1.
          2    1    6    6  502    0 -0.60996428680E+02  0.23465187854E+03 -0.56914011234E+01  0.24251692819E+03  0.00000000000E+00 0. -1.
          1    1    5    5  503    0 -0.10622789735E+03 -0.12506570452E+03  0.22219543959E+03  0.27621840995E+03  0.00000000000E+00 0. -1.
         -2    1    5    5    0  503 -0.20173002115E+03 -0.18499438626E+03  0.56062417125E+03  0.62387289232E+03  0.00000000000E+00 0.  1.
         -1    1    6    6    0  502 -0.15196720083E+02  0.62577521972E+02 -0.45754142762E+02  0.78995747590E+02  0.00000000000E+00 0.  1.
<mgrwt>
<rscale>  0 0.16981373E+04</rscale>
<asrwt>0</asrwt>
<pdfrwt beam="1">  1        1 0.16443486E+00 0.16981373E+04</pdfrwt>
<pdfrwt beam="2">  1       -1 0.10376837E+00 0.16981373E+04</pdfrwt>
<totfact> 0.11152249E+01</totfact>
</mgrwt>
</event>
<event>
12    1  0.2083715E-007  0.1213968E+04  0.7818608E-02  0.9100717E-01
          2   -1    0    0  501    0  0.00000000000E+00  0.00000000000E+00  0.66240458940E+03  0.66240458940E+03  0.00000000000E+00 0. -1.
         -2   -1    0    0    0  501 -0.00000000000E+00 -0.00000000000E+00 -0.55620064708E+03  0.55620064708E+03  0.00000000000E+00 0.  1.
         23    2    1    2    0    0 -0.11494979692E+02  0.22421509507E+03  0.15713082950E+03  0.28883532037E+03  0.91275414544E+02 0.  0.
        254    2    1    2    0    0  0.11494979692E+02 -0.22421509507E+03 -0.50926887173E+02  0.92976991610E+03  0.90081851981E+03 0.  0.
        -24    2    4    4    0    0  0.38837385785E+03  0.10009829963E+03  0.62327395031E+02  0.41375445713E+03  0.80337560138E+02 0.  0.
         24    2    4    4    0    0 -0.37687887816E+03 -0.32431339470E+03 -0.11325428220E+03  0.51601545898E+03  0.78921192852E+02 0.  0.
         11    1    3    3    0    0 -0.22339047396E+02  0.15889581799E+03  0.15422474024E+03  0.22255827218E+03  0.00000000000E+00 0. -1.
        -11    1    3    3    0    0  0.10844067704E+02  0.65319277077E+02  0.29060892603E+01  0.66277048192E+02  0.00000000000E+00 0.  1.
          4    1    6    6  502    0 -0.24175315245E+03 -0.18625437809E+03 -0.33485467958E+02  0.30701230699E+03  0.00000000000E+00 0. -1.
          3    1    5    5  503    0  0.30916636677E+03  0.52649171056E+02  0.26572270469E+02  0.31474094604E+03  0.00000000000E+00 0. -1.
         -4    1    5    5    0  503  0.79207491084E+02  0.47449128570E+02  0.35755124563E+02  0.99013511090E+02  0.00000000000E+00 0.  1.
         -3    1    6    6    0  502 -0.13512572571E+03 -0.13805901660E+03 -0.79768814246E+02  0.20900315199E+03  0.00000000000E+00 0.  1.
<mgrwt>
<rscale>  0 0.12139685E+04</rscale>
<asrwt>0</asrwt>
<pdfrwt beam="1">  1        2 0.10190840E+00 0.12139685E+04</pdfrwt>
<pdfrwt beam="2">  1       -2 0.85569330E-01 0.12139685E+04</pdfrwt>
<totfact> 0.51404515E+01</totfact>
</mgrwt>
</event>
<event>
12    1  0.2083715E-007  0.1215486E+04  0.7818608E-02  0.9099408E-01
          2   -1    0    0  501    0  0.00000000000E+00  0.00000000000E+00  0.12900379863E+04  0.12900379863E+04  0.00000000000E+00 0. -1.
         -2   -1    0    0    0  501 -0.00000000000E+00 -0.00000000000E+00 -0.28631075214E+03  0.28631075214E+03  0.00000000000E+00 0.  1.
         23    2    1    2    0    0 -0.34114198855E+02 -0.15522765142E+03 -0.35759058102E+02  0.18665948084E+03  0.91124361300E+02 0.  0.
        254    2    1    2    0    0  0.34114198855E+02  0.15522765142E+03  0.10394862923E+04  0.13896892576E+04  0.90854008087E+03 0.  0.
        -24    2    4    4    0    0 -0.13114325825E+03 -0.13489383307E+03  0.10259339857E+04  0.10460326034E+04  0.79049124136E+02 0.  0.
         24    2    4    4    0    0  0.16525745710E+03  0.29012148449E+03  0.13552306624E+02  0.34365665423E+03  0.80222989803E+02 0.  0.
         11    1    3    3    0    0 -0.11327898943E+02 -0.75491363281E+02  0.28774991650E+02  0.81579822070E+02  0.00000000000E+00 0. -1.
        -11    1    3    3    0    0 -0.22786299912E+02 -0.79736288138E+02 -0.64534049752E+02  0.10507965877E+03  0.00000000000E+00 0.  1.
          4    1    6    6  502    0  0.15393749268E+02  0.20167587810E+02 -0.21042931821E+02  0.32962161553E+02  0.00000000000E+00 0. -1.
          1    1    5    5  503    0 -0.82075693563E+01  0.57557642388E+01  0.15383175463E+02  0.18361239175E+02  0.00000000000E+00 0. -1.
         -2    1    5    5    0  503 -0.12293568889E+03 -0.14064959731E+03  0.10105508102E+04  0.10276713642E+04  0.00000000000E+00 0.  1.
         -3    1    6    6    0  502  0.14986370783E+03  0.26995389668E+03  0.34595238445E+02  0.31069449268E+03  0.00000000000E+00 0.  1.
<mgrwt>
<rscale>  0 0.12154863E+04</rscale>
<asrwt>0</asrwt>
<pdfrwt beam="1">  1        2 0.19846738E+00 0.12154863E+04</pdfrwt>
<pdfrwt beam="2">  1       -2 0.44047809E-01 0.12154863E+04</pdfrwt>
<totfact> 0.80685135E+01</totfact>
</mgrwt>
</event>
<event>
12    1  0.2083715E-007  0.1699622E+04  0.7818608E-02  0.8761580E-01
          1   -1    0    0  501    0  0.00000000000E+00  0.00000000000E+00  0.87376138804E+03  0.87376138804E+03  0.00000000000E+00 0. -1.
         -1   -1    0    0    0  501 -0.00000000000E+00 -0.00000000000E+00 -0.82651669263E+03  0.82651669263E+03  0.00000000000E+00 0.  1.
         23    2    1    2    0    0 -0.48734210164E+00 -0.48315742823E+03 -0.35101166262E+03  0.60432429912E+03  0.92505855232E+02 0.  0.
        254    2    1    2    0    0  0.48734210164E+00  0.48315742823E+03  0.39825635804E+03  0.10959537816E+04  0.89948053155E+03 0.  0.
        -24    2    4    4    0    0 -0.91210606833E+02 -0.18201034353E+03 -0.11461688851E+03  0.24726855069E+03  0.80978793987E+02 0.  0.
         24    2    4    4    0    0  0.91697948935E+02  0.66516777176E+03  0.51287324655E+03  0.84868523087E+03  0.79818391589E+02 0.  0.
         11    1    3    3    0    0 -0.44062557595E+02 -0.24667404629E+03 -0.16093808384E+03  0.29780977305E+03  0.00000000000E+00 0. -1.
        -11    1    3    3    0    0  0.43575215494E+02 -0.23648338194E+03 -0.19007357878E+03  0.30651452607E+03  0.00000000000E+00 0.  1.
          4    1    6    6  502    0  0.20911032551E+02  0.74011072285E+02  0.90151706242E+02  0.11849995882E+03  0.00000000000E+00 0. -1.
          1    1    5    5  503    0 -0.79818690773E+02 -0.15260390648E+03 -0.12637610544E+03  0.21361155328E+03  0.00000000000E+00 0. -1.
         -2    1    5    5    0  503 -0.11391916060E+02 -0.29406437056E+02  0.11759216926E+02  0.33656997409E+02  0.00000000000E+00 0.  1.
         -1    1    6    6    0  502  0.70786916384E+02  0.59115669947E+03  0.42272154031E+03  0.73018527204E+03  0.00000000000E+00 0.  1.
<mgrwt>
<rscale>  0 0.16996216E+04</rscale>
<asrwt>0</asrwt>
<pdfrwt beam="1">  1        1 0.13442483E+00 0.16996216E+04</pdfrwt>
<pdfrwt beam="2">  1       -1 0.12715641E+00 0.16996216E+04</pdfrwt>
<totfact> 0.97629711E+00</totfact>
</mgrwt>
</event>
<event>
12    1  0.2083715E-007  0.4473727E+04  0.7818608E-02  0.7915253E-01
          2   -1    0    0  501    0  0.00000000000E+00  0.00000000000E+00  0.29702566292E+04  0.29702566292E+04  0.00000000000E+00 0. -1.
         -2   -1    0    0    0  501 -0.00000000000E+00 -0.00000000000E+00 -0.16845539045E+04  0.16845539045E+04  0.00000000000E+00 0.  1.
         23    2    1    2    0    0  0.29559682055E+03  0.21209144264E+04  0.48135069735E+03  0.21967827931E+04  0.92199034575E+02 0.  0.
        254    2    1    2    0    0 -0.29559682055E+03 -0.21209144264E+04  0.80435202730E+03  0.24580277406E+04  0.89959029876E+03 0.  0.
        -24    2    4    4    0    0 -0.89845108344E+02  0.51368228722E+02 -0.36617775550E+01  0.13006045488E+03  0.78685925642E+02 0.  0.
         24    2    4    4    0    0 -0.20575171220E+03 -0.21722826551E+04  0.80801380486E+03  0.23279672858E+04  0.73482474183E+02 0.  0.
         11    1    3    3    0    0  0.11972103696E+03  0.60028384417E+03  0.15950092540E+03  0.63254593941E+03  0.00000000000E+00 0. -1.
        -11    1    3    3    0    0  0.17587578359E+03  0.15206305822E+04  0.32184977195E+03  0.15642368537E+04  0.00000000000E+00 0.  1.
          2    1    6    6  502    0 -0.17736269970E+03 -0.15333263937E+04  0.58167162375E+03  0.16495118171E+04  0.00000000000E+00 0. -1.
          3    1    5    5  503    0  0.10825054220E+02  0.19175263913E+02 -0.99875497071E+01  0.24178992827E+02  0.00000000000E+00 0. -1.
         -4    1    5    5    0  503 -0.10067016256E+03  0.32192964809E+02  0.63257721521E+01  0.10588146206E+03  0.00000000000E+00 0.  1.
         -1    1    6    6    0  502 -0.28389012500E+02 -0.63895626142E+03  0.22634218110E+03  0.67845546869E+03  0.00000000000E+00 0.  1.
<mgrwt>
<rscale>  0 0.44737266E+04</rscale>
<asrwt>0</asrwt>
<pdfrwt beam="1">  1        2 0.45696256E+00 0.44737266E+04</pdfrwt>
<pdfrwt beam="2">  1       -2 0.25916214E+00 0.44737266E+04</pdfrwt>
<totfact> 0.77869050E-02</totfact>
</mgrwt>
</event>
<event>
12    1  0.2083715E-007  0.2497232E+04  0.7818608E-02  0.8403972E-01
          2   -1    0    0  501    0  0.00000000000E+00  0.00000000000E+00  0.23143743134E+04  0.23143743134E+04  0.00000000000E+00 0. -1.
         -2   -1    0    0    0  501 -0.00000000000E+00 -0.00000000000E+00 -0.67363434300E+03  0.67363434300E+03  0.00000000000E+00 0.  1.
         23    2    1    2    0    0 -0.10787239804E+04 -0.28817882243E+02  0.57979903654E+03  0.12287664832E+04  0.96042966257E+02 0.  0.
        254    2    1    2    0    0  0.10787239804E+04  0.28817882243E+02  0.10609409339E+04  0.17592421732E+04  0.89714071506E+03 0.  0.
        -24    2    4    4    0    0  0.75695908247E+03 -0.21266196311E+03  0.21475203845E+03  0.81898445547E+03  0.80030851418E+02 0.  0.
         24    2    4    4    0    0  0.32176489789E+03  0.24147984536E+03  0.84618889542E+03  0.94025771773E+03  0.78763975182E+02 0.  0.
         13    1    3    3    0    0 -0.92406948468E+02 -0.55117319887E+01  0.21033060278E+02  0.94930569045E+02  0.00000000000E+00 0.  1.
        -13    1    3    3    0    0 -0.98631703190E+03 -0.23306150254E+02  0.55876597626E+03  0.11338359142E+04  0.00000000000E+00 0. -1.
          2    1    6    6  502    0  0.91707624127E+02  0.42767045531E+02  0.27824175876E+03  0.29607057406E+03  0.00000000000E+00 0. -1.
          1    1    5    5  503    0  0.21333972332E+03 -0.24863563242E+02  0.46849864633E+02  0.21983390125E+03  0.00000000000E+00 0. -1.
         -2    1    5    5    0  503  0.54361935916E+03 -0.18779839987E+03  0.16790217382E+03  0.59915055422E+03  0.00000000000E+00 0.  1.
         -1    1    6    6    0  502  0.23005727376E+03  0.19871279982E+03  0.56794713666E+03  0.64418714366E+03  0.00000000000E+00 0.  1.
<mgrwt>
<rscale>  0 0.24972321E+04</rscale>
<asrwt>0</asrwt>
<pdfrwt beam="1">  1        2 0.35605758E+00 0.24972321E+04</pdfrwt>
<pdfrwt beam="2">  1       -2 0.10363605E+00 0.24972321E+04</pdfrwt>
<totfact> 0.30100582E+00</totfact>
</mgrwt>
</event>
<event>
12    1  0.2083715E-007  0.2871221E+04  0.7818608E-02  0.8281492E-01
         -2   -1    0    0    0  501 -0.00000000000E+00  0.00000000000E+00  0.11863948400E+04  0.11863948400E+04  0.00000000000E+00 0.  1.
          2   -1    0    0  501    0  0.00000000000E+00 -0.00000000000E+00 -0.17371770005E+04  0.17371770005E+04  0.00000000000E+00 0. -1.
         23    2    1    2    0    0  0.66619534523E+03  0.10484476711E+04  0.11622276340E+03  0.12506829031E+04  0.87414165655E+02 0.  0.
        254    2    1    2    0    0 -0.66619534523E+03 -0.10484476711E+04 -0.66700492391E+03  0.16728889373E+04  0.90033497706E+03 0.  0.
        -24    2    4    4    0    0 -0.51226965881E+03 -0.86394566586E+03 -0.53258545309E+02  0.10089813885E+04  0.79904022886E+02 0.  0.
         24    2    4    4    0    0 -0.15392568642E+03 -0.18450200526E+03 -0.61374637861E+03  0.66390754875E+03  0.79715175187E+02 0.  0.
         11    1    3    3    0    0  0.19845651549E+03  0.24259377876E+03  0.23035673206E+02  0.31427276731E+03  0.00000000000E+00 0. -1.
        -11    1    3    3    0    0  0.46773882974E+03  0.80585389236E+03  0.93187090199E+02  0.93641013581E+03  0.00000000000E+00 0.  1.
          4    1    6    6  502    0 -0.67538639072E+02 -0.97970935094E+02 -0.40362025257E+03  0.42079577015E+03  0.00000000000E+00 0. -1.
          3    1    5    5  503    0 -0.49981360083E+03 -0.83865864522E+03 -0.64964126005E+02  0.97845914398E+03  0.00000000000E+00 0. -1.
         -4    1    5    5    0  503 -0.12456057976E+02 -0.25287020641E+02  0.11705580696E+02  0.30522244554E+02  0.00000000000E+00 0.  1.
         -3    1    6    6    0  502 -0.86387047345E+02 -0.86531070162E+02 -0.21012612604E+03  0.24311177860E+03  0.00000000000E+00 0.  1.
<mgrwt>
<rscale>  0 0.28712212E+04</rscale>
<asrwt>0</asrwt>
<pdfrwt beam="1">  1        2 0.26725800E+00 0.28712212E+04</pdfrwt>
<pdfrwt beam="2">  1       -2 0.18252228E+00 0.28712212E+04</pdfrwt>
<totfact> 0.14095020E+00</totfact>
</mgrwt>
</event>
<event>
12    1  0.2083715E-007  0.2043568E+04  0.7818608E-02  0.8586518E-01
          1   -1    0    0  501    0  0.00000000000E+00  0.00000000000E+00  0.19320409351E+04  0.19320409351E+04  0.00000000000E+00 0. -1.
         -1   -1    0    0    0  501 -0.00000000000E+00 -0.00000000000E+00 -0.54038336569E+03  0.54038336569E+03  0.00000000000E+00 0.  1.
         23    2    1    2    0    0 -0.26991632513E+03  0.66822389508E+03  0.10393671708E+04  0.12683133118E+04  0.94639022173E+02 0.  0.
        254    2    1    2    0    0  0.26991632513E+03 -0.66822389508E+03  0.35229039861E+03  0.12041109890E+04  0.89799596461E+03 0.  0.
        -24    2    4    4    0    0  0.20946126237E+03 -0.24774827080E+02 -0.23626670035E+03  0.32636742048E+03  0.78777706004E+02 0.  0.
         24    2    4    4    0    0  0.60455062759E+02 -0.64344906800E+03  0.58855709896E+03  0.87774356856E+03  0.79704427056E+02 0.  0.
         11    1    3    3    0    0 -0.24155975710E+02  0.16464021090E+03  0.22874860392E+03  0.28287070191E+03  0.00000000000E+00 0.  1.
        -11    1    3    3    0    0 -0.24576034942E+03  0.50358368418E+03  0.81061856692E+03  0.98544260988E+03  0.00000000000E+00 0. -1.
          4    1    6    6  502    0  0.41781030538E+02 -0.14083275360E+03  0.11034027061E+03  0.18372396229E+03  0.00000000000E+00 0. -1.
          1    1    5    5  503    0  0.11631082687E+02  0.82912810778E+01 -0.52254102835E+02  0.54171197970E+02  0.00000000000E+00 0. -1.
         -2    1    5    5    0  503  0.19783017969E+03 -0.33066108158E+02 -0.18401259752E+03  0.27219622251E+03  0.00000000000E+00 0.  1.
         -3    1    6    6    0  502  0.18674032221E+02 -0.50261631440E+03  0.47821682835E+03  0.69401960628E+03  0.00000000000E+00 0.  1.
<mgrwt>
<rscale>  0 0.20435682E+04</rscale>
<asrwt>0</asrwt>
<pdfrwt beam="1">  1        1 0.29723706E+00 0.20435682E+04</pdfrwt>
<pdfrwt beam="2">  1       -1 0.83135903E-01 0.20435682E+04</pdfrwt>
<totfact> 0.43987229E+00</totfact>
</mgrwt>
</event>
<event>
12    1  0.2083715E-007  0.2176996E+04  0.7818608E-02  0.8528064E-01
         -2   -1    0    0    0  501 -0.00000000000E+00  0.00000000000E+00  0.56159126680E+03  0.56159126680E+03  0.00000000000E+00 0.  1.
          2   -1    0    0  501    0  0.00000000000E+00 -0.00000000000E+00 -0.21097683300E+04  0.21097683300E+04  0.00000000000E+00 0. -1.
         23    2    1    2    0    0 -0.26904923730E+03 -0.34271889870E+03 -0.16083537553E+04  0.16688324809E+04  0.91412863031E+02 0.  0.
        254    2    1    2    0    0  0.26904923730E+03  0.34271889870E+03  0.60176692105E+02  0.10025271159E+04  0.90088603509E+03 0.  0.
        -24    2    4    4    0    0  0.21458686555E+03  0.60495226856E+03  0.21654546274E+03  0.68171709033E+03  0.76364152006E+02 0.  0.
         24    2    4    4    0    0  0.54462371754E+02 -0.26223336986E+03 -0.15636877064E+03  0.32081002557E+03  0.82069421037E+02 0.  0.
         11    1    3    3    0    0 -0.12743408904E+03 -0.21746274289E+03 -0.10285607975E+04  0.10589932983E+04  0.00000000000E+00 0. -1.
        -11    1    3    3    0    0 -0.14161514826E+03 -0.12525615581E+03 -0.57979295780E+03  0.60983918265E+03  0.00000000000E+00 0.  1.
          4    1    6    6  502    0  0.11686642073E+02 -0.13608421383E+02 -0.38253929498E+02  0.42250797122E+02  0.00000000000E+00 0. -1.
          3    1    5    5  503    0  0.24719651373E+02  0.12687376560E+03  0.69258917763E+02  0.14664518830E+03  0.00000000000E+00 0. -1.
         -4    1    5    5    0  503  0.18986721417E+03  0.47807850296E+03  0.14728654498E+03  0.53507190203E+03  0.00000000000E+00 0.  1.
         -3    1    6    6    0  502  0.42775729681E+02 -0.24862494848E+03 -0.11811484114E+03  0.27855922845E+03  0.00000000000E+00 0.  1.
<mgrwt>
<rscale>  0 0.21769956E+04</rscale>
<asrwt>0</asrwt>
<pdfrwt beam="1">  1        2 0.32457975E+00 0.21769956E+04</pdfrwt>
<pdfrwt beam="2">  1       -2 0.86398656E-01 0.21769956E+04</pdfrwt>
<totfact> 0.61675286E+00</totfact>
</mgrwt>
</event>
<event>
12    1  0.2083715E-007  0.1394745E+04  0.7818608E-02  0.8957631E-01
         -2   -1    0    0    0  501 -0.00000000000E+00  0.00000000000E+00  0.15624657172E+03  0.15624657172E+03  0.00000000000E+00 0.  1.
          2   -1    0    0  501    0  0.00000000000E+00 -0.00000000000E+00 -0.31125721382E+04  0.31125721382E+04  0.00000000000E+00 0. -1.
         23    2    1    2    0    0  0.20813628053E+02  0.30139073077E+03 -0.14762314229E+04  0.15095538328E+04  0.90686164571E+02 0.  0.
        254    2    1    2    0    0 -0.20813628053E+02 -0.30139073077E+03 -0.14800941436E+04  0.17592648771E+04  0.90170097833E+03 0.  0.
        -24    2    4    4    0    0 -0.12025594737E+03 -0.92224667560E+02 -0.15034439639E+04  0.15131377627E+04  0.79216502554E+02 0.  0.
         24    2    4    4    0    0  0.99442319321E+02 -0.20916606321E+03  0.23349820308E+02  0.24612711439E+03  0.79963275700E+02 0.  0.
         11    1    3    3    0    0  0.38418521696E+02  0.89622750878E+02 -0.34395647924E+03  0.35751123045E+03  0.00000000000E+00 0.  1.
        -11    1    3    3    0    0 -0.17604893643E+02  0.21176797989E+03 -0.11322749437E+04  0.11520426024E+04  0.00000000000E+00 0. -1.
          2    1    6    6  502    0  0.35543609935E+02 -0.63108427771E+02 -0.29449702360E+02  0.78187638614E+02  0.00000000000E+00 0. -1.
          3    1    5    5  503    0  0.10525172406E+02 -0.15667720589E+02 -0.13099269525E+03  0.13234554367E+03  0.00000000000E+00 0. -1.
         -4    1    5    5    0  503 -0.13078111978E+03 -0.76556946972E+02 -0.13724512686E+04  0.13807922191E+04  0.00000000000E+00 0.  1.
         -1    1    6    6    0  502  0.63898709386E+02 -0.14605763544E+03  0.52799522668E+02  0.16793947578E+03  0.00000000000E+00 0.  1.
<mgrwt>
<rscale>  0 0.13947455E+04</rscale>
<asrwt>0</asrwt>
<pdfrwt beam="1">  1        2 0.47885724E+00 0.13947455E+04</pdfrwt>
<pdfrwt beam="2">  1       -2 0.24037935E-01 0.13947455E+04</pdfrwt>
<totfact> 0.22395574E+01</totfact>
</mgrwt>
</event>
<event>
12    1  0.2083715E-007  0.1236437E+04  0.7818608E-02  0.9081548E-01
          2   -1    0    0  501    0  0.00000000000E+00  0.00000000000E+00  0.19435849301E+04  0.19435849301E+04  0.00000000000E+00 0. -1.
         -2   -1    0    0    0  501 -0.00000000000E+00 -0.00000000000E+00 -0.19664379726E+03  0.19664379726E+03  0.00000000000E+00 0.  1.
         23    2    1    2    0    0 -0.19895581745E+03 -0.18235382694E+03  0.29366443546E+03  0.40856209089E+03  0.88588068995E+02 0.  0.
        254    2    1    2    0    0  0.19895581745E+03  0.18235382694E+03  0.14532766974E+04  0.17316666365E+04  0.90211964020E+03 0.  0.
        -24    2    4    4    0    0  0.23763805370E+03  0.50506627779E+03  0.64449177996E+03  0.85651294856E+03  0.81737305410E+02 0.  0.
         24    2    4    4    0    0 -0.38682236257E+02 -0.32271245085E+03  0.80878491742E+03  0.87515368791E+03  0.78238695542E+02 0.  0.
         11    1    3    3    0    0 -0.12845991643E+03 -0.15337390089E+03  0.16640582417E+03  0.26022375357E+03  0.00000000000E+00 0.  1.
        -11    1    3    3    0    0 -0.70495901017E+02 -0.28979926050E+02  0.12725861129E+03  0.14833833733E+03  0.00000000000E+00 0. -1.
          2    1    6    6  502    0  0.19063075112E+02 -0.70839132272E+02  0.22708169988E+03  0.23863713440E+03  0.00000000000E+00 0. -1.
          1    1    5    5  503    0  0.37967709820E+02  0.11083674878E+03  0.91600329789E+02  0.14871769325E+03  0.00000000000E+00 0. -1.
         -2    1    5    5    0  503  0.19967034388E+03  0.39422952901E+03  0.55289145017E+03  0.70779525531E+03  0.00000000000E+00 0.  1.
         -1    1    6    6    0  502 -0.57745311369E+02 -0.25187331858E+03  0.58170321754E+03  0.63651655351E+03  0.00000000000E+00 0.  1.
<mgrwt>
<rscale>  0 0.12364367E+04</rscale>
<asrwt>0</asrwt>
<pdfrwt beam="1">  1        2 0.29901305E+00 0.12364367E+04</pdfrwt>
<pdfrwt beam="2">  1       -2 0.30252893E-01 0.12364367E+04</pdfrwt>
<totfact> 0.71425677E+01</totfact>
</mgrwt>
</event>
<event>
12    1  0.2083715E-007  0.1596299E+04  0.7818608E-02  0.8822825E-01
          2   -1    0    0  501    0  0.00000000000E+00  0.00000000000E+00  0.21425696401E+04  0.21425696401E+04  0.00000000000E+00 0. -1.
         -2   -1    0    0    0  501 -0.00000000000E+00 -0.00000000000E+00 -0.29732661752E+03  0.29732661752E+03  0.00000000000E+00 0.  1.
         23    2    1    2    0    0 -0.28999366684E+03 -0.56785137917E+02  0.13217147482E+04  0.13576189061E+04  0.94224942943E+02 0.  0.
        254    2    1    2    0    0  0.28999366684E+03  0.56785137917E+02  0.52352827434E+03  0.10822773515E+04  0.89995640607E+03 0.  0.
        -24    2    4    4    0    0  0.24684801563E+03 -0.29806718595E+03  0.59002998941E+03  0.70989081183E+03  0.77663287004E+02 0.  0.
         24    2    4    4    0    0  0.43145651209E+02  0.35485232387E+03 -0.66501715074E+02  0.37238653966E+03  0.80421003708E+02 0.  0.
         11    1    3    3    0    0 -0.17591831090E+03 -0.38560961201E+02  0.99291276567E+03  0.10091134525E+04  0.00000000000E+00 0. -1.
        -11    1    3    3    0    0 -0.11407535594E+03 -0.18224176716E+02  0.32880198255E+03  0.34850545358E+03  0.00000000000E+00 0.  1.
          4    1    6    6  502    0  0.64661640299E+02  0.20933467856E+03 -0.33647685044E+02  0.22166258611E+03  0.00000000000E+00 0. -1.
          1    1    5    5  503    0  0.16379201329E+03 -0.17759032012E+03  0.42866591073E+03  0.49205752554E+03  0.00000000000E+00 0. -1.
         -2    1    5    5    0  503  0.83056002333E+02 -0.12047686584E+03  0.16136407868E+03  0.21783328629E+03  0.00000000000E+00 0.  1.
         -3    1    6    6    0  502 -0.21515989089E+02  0.14551764532E+03 -0.32854030030E+02  0.15072395355E+03  0.00000000000E+00 0.  1.
<mgrwt>
<rscale>  0 0.15962995E+04</rscale>
<asrwt>0</asrwt>
<pdfrwt beam="1">  1        2 0.32962609E+00 0.15962995E+04</pdfrwt>
<pdfrwt beam="2">  1       -2 0.45742558E-01 0.15962995E+04</pdfrwt>
<totfact> 0.24192816E+01</totfact>
</mgrwt>
</event>
<event>
12    1  0.2083715E-007  0.3167140E+04  0.7818608E-02  0.8197550E-01
          1   -1    0    0  501    0  0.00000000000E+00  0.00000000000E+00  0.12333229052E+04  0.12333229052E+04  0.00000000000E+00 0. -1.
         -1   -1    0    0    0  501 -0.00000000000E+00 -0.00000000000E+00 -0.20332825687E+04  0.20332825687E+04  0.00000000000E+00 0.  1.
         23    2    1    2    0    0 -0.17845367285E+02 -0.13761619175E+04 -0.85365897541E+03  0.16214045562E+04  0.77967994827E+02 0.  0.
        254    2    1    2    0    0  0.17845367285E+02  0.13761619175E+04  0.53699311911E+02  0.16452009177E+04  0.89981240438E+03 0.  0.
        -24    2    4    4    0    0  0.32248492260E+03  0.12405569662E+04  0.13960557642E+03  0.12918385643E+04  0.79868938607E+02 0.  0.
         24    2    4    4    0    0 -0.30463955531E+03  0.13560495125E+03 -0.85906264509E+02  0.35336235339E+03  0.79316486613E+02 0.  0.
         11    1    3    3    0    0  0.19113729044E+02 -0.65445202855E+03 -0.37350763552E+03  0.75377765030E+03  0.00000000000E+00 0.  1.
        -11    1    3    3    0    0 -0.36959096330E+02 -0.72170988895E+03 -0.48015133989E+03  0.86762690588E+03  0.00000000000E+00 0. -1.
          2    1    6    6  502    0 -0.27544268479E+03  0.12772521609E+03 -0.10045606766E+03  0.31980279073E+03  0.00000000000E+00 0. -1.
          1    1    5    5  503    0  0.26036521605E+03  0.10957799325E+04  0.13358971763E+03  0.11341824892E+04  0.00000000000E+00 0. -1.
         -2    1    5    5    0  503  0.62119706547E+02  0.14477703375E+03  0.60158587858E+01  0.15765607505E+03  0.00000000000E+00 0.  1.
         -1    1    6    6    0  502 -0.29196870519E+02  0.78797351651E+01  0.14549803148E+02  0.33559562662E+02  0.00000000000E+00 0.  1.
<mgrwt>
<rscale>  0 0.31671400E+04</rscale>
<asrwt>0</asrwt>
<pdfrwt beam="1">  1        1 0.18974199E+00 0.31671400E+04</pdfrwt>
<pdfrwt beam="2">  1       -1 0.31281270E+00 0.31671400E+04</pdfrwt>
<totfact> 0.23107536E-01</totfact>
</mgrwt>
</event>
<event>
12    1  0.2083715E-007  0.1259754E+04  0.7818608E-02  0.9062104E-01
         -2   -1    0    0    0  501 -0.00000000000E+00  0.00000000000E+00  0.26897186290E+03  0.26897186290E+03  0.00000000000E+00 0.  1.
          2   -1    0    0  501    0  0.00000000000E+00 -0.00000000000E+00 -0.14750425211E+04  0.14750425211E+04  0.00000000000E+00 0. -1.
         23    2    1    2    0    0 -0.13864996138E+03 -0.16616307009E+03 -0.56829405451E+03  0.61514032965E+03  0.92765915705E+02 0.  0.
        254    2    1    2    0    0  0.13864996138E+03  0.16616307009E+03 -0.63777660366E+03  0.11288740543E+04  0.90596007456E+03 0.  0.
        -24    2    4    4    0    0 -0.27846223323E+03  0.32339952703E+03 -0.14278459152E+03  0.45720810176E+03  0.80767192124E+02 0.  0.
         24    2    4    4    0    0  0.41711219461E+03 -0.15723645694E+03 -0.49499201214E+03  0.67166595256E+03  0.86093980417E+02 0.  0.
         11    1    3    3    0    0 -0.14149106165E+03 -0.14727678178E+03 -0.55625913114E+03  0.59256593891E+03  0.00000000000E+00 0. -1.
        -11    1    3    3    0    0  0.28411002636E+01 -0.18886288312E+02 -0.12034923373E+02  0.22574390745E+02  0.00000000000E+00 0.  1.
          4    1    6    6  502    0  0.40373433849E+03 -0.15127596650E+03 -0.49574627126E+03  0.65700091293E+03  0.00000000000E+00 0. -1.
          1    1    5    5  503    0 -0.16428250813E+03  0.21661034118E+03 -0.53180895269E+02  0.27701442202E+03  0.00000000000E+00 0. -1.
         -2    1    5    5    0  503 -0.11417972510E+03  0.10678918585E+03 -0.89603696251E+02  0.18019367974E+03  0.00000000000E+00 0.  1.
         -3    1    6    6    0  502  0.13377856118E+02 -0.59604904337E+01  0.75425912423E+00  0.14665039630E+02  0.00000000000E+00 0.  1.
<mgrwt>
<rscale>  0 0.12597538E+04</rscale>
<asrwt>0</asrwt>
<pdfrwt beam="1">  1        2 0.22692962E+00 0.12597538E+04</pdfrwt>
<pdfrwt beam="2">  1       -2 0.41380287E-01 0.12597538E+04</pdfrwt>
<totfact> 0.71274971E+01</totfact>
</mgrwt>
</event>
<event>
12    1  0.2083715E-007  0.1693020E+04  0.7818608E-02  0.8765355E-01
         -1   -1    0    0    0  501 -0.00000000000E+00  0.00000000000E+00  0.61178261612E+03  0.61178261612E+03  0.00000000000E+00 0.  1.
          1   -1    0    0  501    0  0.00000000000E+00 -0.00000000000E+00 -0.11712968954E+04  0.11712968954E+04  0.00000000000E+00 0. -1.
         23    2    1    2    0    0  0.32009419659E+02  0.37844887616E+03  0.29193967206E+03  0.48740545965E+03  0.89928611445E+02 0.  0.
        254    2    1    2    0    0 -0.32009419659E+02 -0.37844887616E+03 -0.85145395134E+03  0.12956740519E+04  0.89974955551E+03 0.  0.
        -24    2    4    4    0    0  0.18515053358E+03 -0.19563293534E+03 -0.94504290019E+03  0.98596233050E+03  0.80390723997E+02 0.  0.
         24    2    4    4    0    0 -0.21715995323E+03 -0.18281594082E+03  0.93588948846E+02  0.30971172137E+03  0.81131655360E+02 0.  0.
         13    1    3    3    0    0  0.40922643855E+01  0.35071471164E+03  0.25752858813E+03  0.43513047388E+03  0.00000000000E+00 0.  1.
        -13    1    3    3    0    0  0.27917155274E+02  0.27734164514E+02  0.34411083929E+02  0.52274985768E+02  0.00000000000E+00 0. -1.
          2    1    6    6  502    0 -0.16658188938E+03 -0.12325368497E+03  0.30858030196E+02  0.20950707567E+03  0.00000000000E+00 0. -1.
          3    1    5    5  503    0  0.84701740386E+02 -0.57969148002E+02 -0.24822150163E+03  0.26860513922E+03  0.00000000000E+00 0. -1.
         -4    1    5    5    0  503  0.10044879319E+03 -0.13766378734E+03 -0.69682139856E+03  0.71735719128E+03  0.00000000000E+00 0.  1.
         -1    1    6    6    0  502 -0.50578063852E+02 -0.59562255852E+02  0.62730918650E+02  0.10020464570E+03  0.00000000000E+00 0.  1.
<mgrwt>
<rscale>  0 0.16930199E+04</rscale>
<asrwt>0</asrwt>
<pdfrwt beam="1">  1        1 0.18019952E+00 0.16930199E+04</pdfrwt>
<pdfrwt beam="2">  1       -1 0.94120403E-01 0.16930199E+04</pdfrwt>
<totfact> 0.11679784E+01</totfact>
</mgrwt>
</event>
<event>
12    1  0.2083715E-007  0.2116139E+04  0.7818608E-02  0.8554167E-01
          2   -1    0    0  501    0  0.00000000000E+00  0.00000000000E+00  0.96515223434E+03  0.96515223434E+03  0.00000000000E+00 0. -1.
         -2   -1    0    0    0  501 -0.00000000000E+00 -0.00000000000E+00 -0.11599322215E+04  0.11599322215E+04  0.00000000000E+00 0.  1.
         23    2    1    2    0    0  0.76244786364E+03 -0.27436817127E+03 -0.38171882519E+03  0.90085072968E+03  0.96011132013E+02 0.  0.
        254    2    1    2    0    0 -0.76244786364E+03  0.27436817127E+03  0.18693883801E+03  0.12242337262E+04  0.89844167811E+03 0.  0.
        -24    2    4    4    0    0  0.68820814461E+02 -0.18315548752E+02 -0.22195806732E+03  0.24938273128E+03  0.88626176622E+02 0.  0.
         24    2    4    4    0    0 -0.83126867811E+03  0.29268372002E+03  0.40889690533E+03  0.97485099490E+03  0.80413978238E+02 0.  0.
         11    1    3    3    0    0  0.54171790099E+03 -0.22558631524E+03 -0.31017157522E+03  0.66374232647E+03  0.00000000000E+00 0.  1.
        -11    1    3    3    0    0  0.22072996266E+03 -0.48781856036E+02 -0.71547249964E+02  0.23710840320E+03  0.00000000000E+00 0. -1.
          2    1    6    6  502    0 -0.73357286974E+03  0.25241468710E+03  0.33038156207E+03  0.84320478298E+03  0.00000000000E+00 0. -1.
          1    1    5    5  503    0  0.86682817479E+02 -0.27197981392E+02 -0.15656368898E+03  0.18101334134E+03  0.00000000000E+00 0. -1.
         -2    1    5    5    0  503 -0.17862003018E+02  0.88824326407E+01 -0.65394378339E+02  0.68369389933E+02  0.00000000000E+00 0.  1.
         -1    1    6    6    0  502 -0.97695808362E+02  0.40269032920E+02  0.78515343263E+02  0.13164621191E+03  0.00000000000E+00 0.  1.
<mgrwt>
<rscale>  0 0.21161391E+04</rscale>
<asrwt>0</asrwt>
<pdfrwt beam="1">  1        2 0.14848496E+00 0.21161391E+04</pdfrwt>
<pdfrwt beam="2">  1       -2 0.17845111E+00 0.21161391E+04</pdfrwt>
<totfact> 0.45378806E+00</totfact>
</mgrwt>
</event>
<event>
12    1  0.2083715E-007  0.1821674E+04  0.7818608E-02  0.8694857E-01
         -1   -1    0    0    0  501 -0.00000000000E+00  0.00000000000E+00  0.43305221793E+03  0.43305221793E+03  0.00000000000E+00 0.  1.
          1   -1    0    0  501    0  0.00000000000E+00 -0.00000000000E+00 -0.19157606076E+04  0.19157606076E+04  0.00000000000E+00 0. -1.
         23    2    1    2    0    0  0.66985413182E+03 -0.55500535838E+02 -0.73175029705E+03  0.99781955875E+03  0.91654280876E+02 0.  0.
        254    2    1    2    0    0 -0.66985413182E+03  0.55500535838E+02 -0.75095809264E+03  0.13509932668E+04  0.89969988474E+03 0.  0.
        -24    2    4    4    0    0 -0.64835765980E+03  0.11520862565E+03 -0.93174756990E+03  0.11436363935E+04  0.78166387800E+02 0.  0.
         24    2    4    4    0    0 -0.21496472022E+02 -0.59708089810E+02  0.18078947726E+03  0.20735687325E+03  0.79277257128E+02 0.  0.
         11    1    3    3    0    0  0.58432346879E+03 -0.55518568855E+02 -0.58980795265E+03  0.83209954253E+03  0.00000000000E+00 0.  1.
        -11    1    3    3    0    0  0.85530663030E+02  0.18033016912E-01 -0.14194234440E+03  0.16572001623E+03  0.00000000000E+00 0. -1.
          2    1    6    6  502    0 -0.17407021519E+02 -0.39215692501E+02  0.18144630874E+03  0.18645009491E+03  0.00000000000E+00 0. -1.
          1    1    5    5  503    0 -0.31249993674E+03  0.17242224363E+02 -0.42258583194E+03  0.52586337591E+03  0.00000000000E+00 0. -1.
         -2    1    5    5    0  503 -0.33585772306E+03  0.97966401286E+02 -0.50916173795E+03  0.61777301763E+03  0.00000000000E+00 0.  1.
         -1    1    6    6    0  502 -0.40894505026E+01 -0.20492397309E+02 -0.65683148210E+00  0.20906778338E+02  0.00000000000E+00 0.  1.
<mgrwt>
<rscale>  0 0.18216744E+04</rscale>
<asrwt>0</asrwt>
<pdfrwt beam="1">  1        1 0.29473240E+00 0.18216744E+04</pdfrwt>
<pdfrwt beam="2">  1       -1 0.66623418E-01 0.18216744E+04</pdfrwt>
<totfact> 0.73086225E+00</totfact>
</mgrwt>
</event>
<event>
12    1  0.2083715E-007  0.3329212E+04  0.7818608E-02  0.8155502E-01
          2   -1    0    0  501    0  0.00000000000E+00  0.00000000000E+00  0.31452624859E+04  0.31452624859E+04  0.00000000000E+00 0.  1.
         -2   -1    0    0    0  501 -0.00000000000E+00 -0.00000000000E+00 -0.88098015908E+03  0.88098015908E+03  0.00000000000E+00 0. -1.
         23    2    1    2    0    0  0.60699764499E+03 -0.64041199360E+03 -0.47523959073E+03  0.10063427538E+04  0.91101080551E+02 0.  0.
        254    2    1    2    0    0 -0.60699764499E+03  0.64041199360E+03  0.27395219175E+04  0.30198998912E+04  0.91446233037E+03 0.  0.
        -24    2    4    4    0    0 -0.18325627957E+03  0.75163055343E+03  0.21084356387E+04  0.22474108998E+04  0.82604826448E+02 0.  0.
         24    2    4    4    0    0 -0.42374136542E+03 -0.11121855984E+03  0.63108627885E+03  0.77248899137E+03  0.80889045078E+02 0.  0.
         11    1    3    3    0    0  0.52607946263E+03 -0.50616536174E+03 -0.38171339214E+03  0.82381313911E+03  0.00000000000E+00 0. -1.
        -11    1    3    3    0    0  0.80918182355E+02 -0.13424663186E+03 -0.93526198594E+02  0.18252961465E+03  0.00000000000E+00 0.  1.
          4    1    6    6  502    0 -0.18612591609E+03 -0.15573213443E+02  0.22569475751E+03  0.29295649026E+03  0.00000000000E+00 0. -1.
          3    1    5    5  503    0 -0.18271258141E+03  0.69657252812E+03  0.20019179221E+04  0.21275038287E+04  0.00000000000E+00 0. -1.
         -2    1    5    5    0  503 -0.54369815987E+00  0.55058025311E+02  0.10651771655E+03  0.11990707109E+03  0.00000000000E+00 0.  1.
         -3    1    6    6    0  502 -0.23761544933E+03 -0.95645346396E+02  0.40539152134E+03  0.47953250111E+03  0.00000000000E+00 0.  1.
<mgrwt>
<rscale>  0 0.33292124E+04</rscale>
<asrwt>0</asrwt>
<pdfrwt beam="1">  1        2 0.48388653E+00 0.33292124E+04</pdfrwt>
<pdfrwt beam="2">  1       -2 0.13553541E+00 0.33292124E+04</pdfrwt>
<totfact> 0.45753939E-01</totfact>
</mgrwt>
</event>
<event>
12    1  0.2083715E-007  0.1122487E+04  0.7818608E-02  0.9183548E-01
         -1   -1    0    0    0  501 -0.00000000000E+00  0.00000000000E+00  0.16837711285E+03  0.16837711285E+03  0.00000000000E+00 0.  1.
          1   -1    0    0  501    0  0.00000000000E+00 -0.00000000000E+00 -0.18707652355E+04  0.18707652355E+04  0.00000000000E+00 0. -1.
         23    2    1    2    0    0  0.90866975886E+02 -0.68482277176E+02 -0.48518407997E+02  0.15362664916E+03  0.91106980107E+02 0.  0.
        254    2    1    2    0    0 -0.90866975886E+02  0.68482277176E+02 -0.16538697146E+04  0.18855156992E+04  0.89829716088E+03 0.  0.
        -24    2    4    4    0    0  0.23279517508E+02 -0.39535431706E+03 -0.93874303237E+03  0.10218491502E+04  0.78039945283E+02 0.  0.
         24    2    4    4    0    0 -0.11414649339E+03  0.46383659423E+03 -0.71512668225E+03  0.86366654892E+03  0.79623664591E+02 0.  0.
         13    1    3    3    0    0 -0.68154712195E+01  0.20058977202E+01  0.15617405902E+02  0.17157436893E+02  0.00000000000E+00 0.  1.
        -13    1    3    3    0    0  0.97682447105E+02 -0.70488174896E+02 -0.64135813899E+02  0.13646921227E+03  0.00000000000E+00 0. -1.
          4    1    6    6  502    0 -0.80591354162E+02  0.33300552409E+03 -0.57283694067E+03  0.66748019149E+03  0.00000000000E+00 0. -1.
          1    1    5    5  503    0 -0.23416120985E+02 -0.24167603674E+03 -0.58181152299E+03  0.63044450172E+03  0.00000000000E+00 0. -1.
         -2    1    5    5    0  503  0.46695638493E+02 -0.15367828032E+03 -0.35693150937E+03  0.39140464851E+03  0.00000000000E+00 0.  1.
         -3    1    6    6    0  502 -0.33555139231E+02  0.13083107014E+03 -0.14228974158E+03  0.19618635743E+03  0.00000000000E+00 0.  1.
<mgrwt>
<rscale>  0 0.11224866E+04</rscale>
<asrwt>0</asrwt>
<pdfrwt beam="1">  1        1 0.28781005E+00 0.11224866E+04</pdfrwt>
<pdfrwt beam="2">  1       -1 0.25904170E-01 0.11224866E+04</pdfrwt>
<totfact> 0.47891875E+01</totfact>
</mgrwt>
</event>
<event>
12    1  0.2335469E-007  0.2700933E+04  0.7818608E-02  0.8334702E-01
         -2   -1    0    0    0  501 -0.00000000000E+00  0.00000000000E+00  0.96769248391E+03  0.96769248391E+03  0.00000000000E+00 0.  1.
          2   -1    0    0  501    0  0.00000000000E+00 -0.00000000000E+00 -0.18846481601E+04  0.18846481601E+04  0.00000000000E+00 0. -1.
         23    2    1    2    0    0  0.75115532205E+01 -0.94397980213E+03 -0.11882115137E+04  0.15201945216E+04  0.89389552386E+02 0.  0.
        254    2    1    2    0    0 -0.75115532205E+01  0.94397980213E+03  0.27125583748E+03  0.13321461224E+04  0.89993292626E+03 0.  0.
        -24    2    4    4    0    0 -0.12391068008E+03  0.10027454866E+04 -0.72744978540E+01  0.10133464227E+04  0.77237856256E+02 0.  0.
         24    2    4    4    0    0  0.11639912686E+03 -0.58765684521E+02  0.27853033534E+03  0.31879969969E+03  0.83975820378E+02 0.  0.
         11    1    3    3    0    0  0.15753088643E+02 -0.65611203743E+03 -0.76008094542E+03  0.10042182079E+04  0.00000000000E+00 0.  1.
        -11    1    3    3    0    0 -0.82415354223E+01 -0.28786776470E+03 -0.42813056827E+03  0.51597631374E+03  0.00000000000E+00 0. -1.
          4    1    6    6  502    0  0.79078693124E+02 -0.32924699442E+02  0.87495185960E+02  0.12244542909E+03  0.00000000000E+00 0. -1.
          1    1    5    5  503    0 -0.10310230723E+03  0.65401071831E+03  0.24567145651E+02  0.66254331939E+03  0.00000000000E+00 0. -1.
         -2    1    5    5    0  503 -0.20808372848E+02  0.34873476834E+03 -0.31841643505E+02  0.35080310331E+03  0.00000000000E+00 0.  1.
         -3    1    6    6    0  502  0.37320433737E+02 -0.25840985079E+02  0.19103514938E+03  0.19635427060E+03  0.00000000000E+00 0.  1.
<mgrwt>
<rscale>  0 0.27009331E+04</rscale>
<asrwt>0</asrwt>
<pdfrwt beam="1">  1        2 0.28994587E+00 0.27009331E+04</pdfrwt>
<pdfrwt beam="2">  1       -2 0.14887577E+00 0.27009331E+04</pdfrwt>
<totfact> 0.20766076E+00</totfact>
</mgrwt>
</event>
<event>
12    1  0.2083715E-007  0.1882714E+04  0.7818608E-02  0.8663509E-01
         -1   -1    0    0    0  501 -0.00000000000E+00  0.00000000000E+00  0.14750398764E+04  0.14750398764E+04  0.00000000000E+00 0.  1.
          1   -1    0    0  501    0  0.00000000000E+00 -0.00000000000E+00 -0.60076526239E+03  0.60076526239E+03  0.00000000000E+00 0. -1.
         23    2    1    2    0    0 -0.29238895102E+03  0.36964096179E+03  0.94277615075E+03  0.10580216831E+04  0.91963428748E+02 0.  0.
        254    2    1    2    0    0  0.29238895102E+03 -0.36964096179E+03 -0.68501536719E+02  0.10177834557E+04  0.89948038490E+03 0.  0.
        -24    2    4    4    0    0 -0.75729526677E+02 -0.57069653096E+03 -0.96089183728E+02  0.58994200412E+03  0.85842561352E+02 0.  0.
         24    2    4    4    0    0  0.36811847770E+03  0.20105556917E+03  0.27587647010E+02  0.42784145156E+03  0.79703662974E+02 0.  0.
         13    1    3    3    0    0 -0.20570170239E+03  0.23333857767E+03  0.70490789426E+03  0.77049024756E+03  0.00000000000E+00 0.  1.
        -13    1    3    3    0    0 -0.86687248633E+02  0.13630238412E+03  0.23786825649E+03  0.28753143556E+03  0.00000000000E+00 0. -1.
          2    1    6    6  502    0  0.15233120286E+03  0.57265715905E+02 -0.20786730944E+02  0.16406171328E+03  0.00000000000E+00 0. -1.
          3    1    5    5  503    0 -0.66995816856E+01 -0.12114759907E+03  0.13575395560E+02  0.12208978876E+03  0.00000000000E+00 0. -1.
         -4    1    5    5    0  503 -0.69029944992E+02 -0.44954893189E+03 -0.10966457929E+03  0.46785221536E+03  0.00000000000E+00 0.  1.
         -1    1    6    6    0  502  0.21578727484E+03  0.14378985326E+03  0.48374377954E+02  0.26377973828E+03  0.00000000000E+00 0.  1.
<mgrwt>
<rscale>  0 0.18827137E+04</rscale>
<asrwt>0</asrwt>
<pdfrwt beam="1">  1        1 0.92425425E-01 0.18827137E+04</pdfrwt>
<pdfrwt beam="2">  1       -1 0.22692921E+00 0.18827137E+04</pdfrwt>
<totfact> 0.31684835E+00</totfact>
</mgrwt>
</event>
<event>
12    1  0.2083715E-007  0.2230812E+04  0.7818608E-02  0.8505712E-01
         -2   -1    0    0    0  501 -0.00000000000E+00  0.00000000000E+00  0.14549203077E+04  0.14549203077E+04  0.00000000000E+00 0.  1.
          2   -1    0    0  501    0  0.00000000000E+00 -0.00000000000E+00 -0.85511964606E+03  0.85511964606E+03  0.00000000000E+00 0. -1.
         23    2    1    2    0    0 -0.44533007225E+03 -0.72785371914E+03 -0.13493311909E+03  0.86857921573E+03  0.90183133984E+02 0.  0.
        254    2    1    2    0    0  0.44533007225E+03  0.72785371914E+03  0.73473378076E+03  0.14414607381E+04  0.89993634277E+03 0.  0.
        -24    2    4    4    0    0 -0.13612850127E+02 -0.16167595725E+03 -0.24897164660E+02  0.18239469243E+03  0.79520627379E+02 0.  0.
         24    2    4    4    0    0  0.45894292238E+03  0.88952967639E+03  0.75963094542E+03  0.12590660456E+04  0.79476303544E+02 0.  0.
         11    1    3    3    0    0 -0.75235419623E+02 -0.14828455511E+03  0.70098824429E+01  0.16642660875E+03  0.00000000000E+00 0.  1.
        -11    1    3    3    0    0 -0.37009465263E+03 -0.57956916404E+03 -0.14194300153E+03  0.70215260698E+03  0.00000000000E+00 0. -1.
          2    1    6    6  502    0  0.42282264462E+03  0.76888060478E+03  0.64849188716E+03  0.10910994918E+04  0.00000000000E+00 0. -1.
          3    1    5    5  503    0 -0.18756295181E+02 -0.15221282888E+03 -0.44792147690E+02  0.15977133779E+03  0.00000000000E+00 0. -1.
         -4    1    5    5    0  503  0.51434450545E+01 -0.94631283674E+01  0.19894983029E+02  0.22623354642E+02  0.00000000000E+00 0.  1.
         -1    1    6    6    0  502  0.36120277763E+02  0.12064907161E+03  0.11113905827E+03  0.16796655387E+03  0.00000000000E+00 0.  1.
<mgrwt>
<rscale>  0 0.22308124E+04</rscale>
<asrwt>0</asrwt>
<pdfrwt beam="1">  1        2 0.13155687E+00 0.22308124E+04</pdfrwt>
<pdfrwt beam="2">  1       -2 0.22383389E+00 0.22308124E+04</pdfrwt>
<totfact> 0.26817639E+00</totfact>
</mgrwt>
</event>
<event>
12    1  0.2083715E-007  0.2389753E+04  0.7818608E-02  0.8443350E-01
         -1   -1    0    0    0  501 -0.00000000000E+00  0.00000000000E+00  0.12255778439E+04  0.12255778439E+04  0.00000000000E+00 0.  1.
          1   -1    0    0  501    0  0.00000000000E+00 -0.00000000000E+00 -0.11649437937E+04  0.11649437937E+04  0.00000000000E+00 0. -1.
         23    2    1    2    0    0  0.63901048847E+03 -0.76976763590E+03  0.23659801958E+03  0.10321728867E+04  0.92334324605E+02 0.  0.
        254    2    1    2    0    0 -0.63901048847E+03  0.76976763590E+03 -0.17596396942E+03  0.13583487509E+04  0.90181560919E+03 0.  0.
        -24    2    4    4    0    0 -0.24538440800E+03 -0.16921052120E+03 -0.13203424097E+03  0.33561829361E+03  0.79755188164E+02 0.  0.
         24    2    4    4    0    0 -0.39362608046E+03  0.93897815710E+03 -0.43929728447E+02  0.10227304573E+04  0.86175962856E+02 0.  0.
         13    1    3    3    0    0  0.28832720818E+03 -0.27917047041E+03  0.81985911469E+02  0.40962228969E+03  0.00000000000E+00 0. -1.
        -13    1    3    3    0    0  0.35068328028E+03 -0.49059716549E+03  0.15461210811E+03  0.62255059700E+03  0.00000000000E+00 0.  1.
          2    1    6    6  502    0 -0.54943487077E+02  0.11667966946E+03  0.22586736227E+02  0.13093163366E+03  0.00000000000E+00 0. -1.
          1    1    5    5  503    0 -0.15442131375E+02 -0.28441666480E+02 -0.38384208294E+02  0.50206924422E+02  0.00000000000E+00 0. -1.
         -2    1    5    5    0  503 -0.22994227663E+03 -0.14076885472E+03 -0.93650032681E+02  0.28541136919E+03  0.00000000000E+00 0.  1.
         -1    1    6    6    0  502 -0.33868259339E+03  0.82229848764E+03 -0.66516464673E+02  0.89179882367E+03  0.00000000000E+00 0.  1.
<mgrwt>
<rscale>  0 0.23897525E+04</rscale>
<asrwt>0</asrwt>
<pdfrwt beam="1">  1        1 0.17922212E+00 0.23897525E+04</pdfrwt>
<pdfrwt beam="2">  1       -1 0.18855044E+00 0.23897525E+04</pdfrwt>
<totfact> 0.18399017E+00</totfact>
</mgrwt>
</event>
<event>
12    1  0.2083715E-007  0.1916595E+04  0.7818608E-02  0.8646640E-01
         -2   -1    0    0    0  501 -0.00000000000E+00  0.00000000000E+00  0.35751658358E+03  0.35751658358E+03  0.00000000000E+00 0.  1.
          2   -1    0    0  501    0  0.00000000000E+00 -0.00000000000E+00 -0.25686487819E+04  0.25686487819E+04  0.00000000000E+00 0. -1.
         23    2    1    2    0    0  0.23970980442E+03  0.11354009546E+03  0.19455980494E+03  0.34212426507E+03  0.94039095263E+02 0.  0.
        254    2    1    2    0    0 -0.23970980442E+03 -0.11354009546E+03 -0.24056920032E+04  0.25840411004E+04  0.90529677475E+03 0.  0.
        -24    2    4    4    0    0  0.15069197749E+03 -0.24818211881E+03 -0.26086658778E+03  0.39830969748E+03  0.79352393256E+02 0.  0.
         24    2    4    4    0    0 -0.39040178191E+03  0.13464202335E+03 -0.21448254154E+04  0.21857314029E+04  0.81263011308E+02 0.  0.
         11    1    3    3    0    0  0.75760727358E+02  0.32500232440E+02  0.11780860886E+03  0.14378741684E+03  0.00000000000E+00 0.  1.
        -11    1    3    3    0    0  0.16394907706E+03  0.81039863016E+02  0.76751196084E+02  0.19833684823E+03  0.00000000000E+00 0. -1.
          4    1    6    6  502    0 -0.19163942253E+03  0.39715106440E+02 -0.84444259785E+03  0.86682539130E+03  0.00000000000E+00 0. -1.
          3    1    5    5  503    0  0.57085418967E+02 -0.34218562033E+02 -0.71075774936E+02  0.97372587667E+02  0.00000000000E+00 0. -1.
         -4    1    5    5    0  503  0.93606558526E+02 -0.21396355677E+03 -0.18979081284E+03  0.30093710982E+03  0.00000000000E+00 0.  1.
         -3    1    6    6    0  502 -0.19876235938E+03  0.94926916910E+02 -0.13003828176E+04  0.13189060116E+04  0.00000000000E+00 0.  1.
<mgrwt>
<rscale>  0 0.19165955E+04</rscale>
<asrwt>0</asrwt>
<pdfrwt beam="1">  1        2 0.39517673E+00 0.19165955E+04</pdfrwt>
<pdfrwt beam="2">  1       -2 0.55002552E-01 0.19165955E+04</pdfrwt>
<totfact> 0.92403942E+00</totfact>
</mgrwt>
</event>
<event>
12    1  0.2083715E-007  0.1548925E+04  0.7818608E-02  0.8852555E-01
         -2   -1    0    0    0  501 -0.00000000000E+00  0.00000000000E+00  0.30113466368E+03  0.30113466368E+03  0.00000000000E+00 0.  1.
          2   -1    0    0  501    0  0.00000000000E+00 -0.00000000000E+00 -0.19917741727E+04  0.19917741727E+04  0.00000000000E+00 0. -1.
         23    2    1    2    0    0 -0.35278813062E+03 -0.70831538716E+02 -0.34388198209E+02  0.37368180644E+03  0.94757439307E+02 0.  0.
        254    2    1    2    0    0  0.35278813062E+03  0.70831538716E+02 -0.16562513108E+04  0.19192270299E+04  0.90043734699E+03 0.  0.
        -24    2    4    4    0    0  0.44248364066E+03  0.16951917801E+03 -0.32717180564E+03  0.58119629015E+03  0.78861989024E+02 0.  0.
         24    2    4    4    0    0 -0.89695510039E+02 -0.98687639295E+02 -0.13290795051E+04  0.13380307398E+04  0.78034574808E+02 0.  0.
         13    1    3    3    0    0 -0.34957777411E+03 -0.73959058644E+02 -0.19183582907E+02  0.35783036814E+03  0.00000000000E+00 0.  1.
        -13    1    3    3    0    0 -0.32103565121E+01  0.31275199286E+01 -0.15204615302E+02  0.15851438305E+02  0.00000000000E+00 0. -1.
          4    1    6    6  502    0 -0.96206033055E+02 -0.84576704182E+02 -0.12834670250E+04  0.12898435657E+04  0.00000000000E+00 0. -1.
          3    1    5    5  503    0  0.37454026072E+03  0.12071417093E+03 -0.24284114208E+03  0.46241122203E+03  0.00000000000E+00 0. -1.
         -4    1    5    5    0  503  0.67943379937E+02  0.48805007085E+02 -0.84330663558E+02  0.11878506813E+03  0.00000000000E+00 0.  1.
         -3    1    6    6    0  502  0.65105230162E+01 -0.14110935113E+02 -0.45612480161E+02  0.48187174083E+02  0.00000000000E+00 0.  1.
<mgrwt>
<rscale>  0 0.15489251E+04</rscale>
<asrwt>0</asrwt>
<pdfrwt beam="1">  1        2 0.30642678E+00 0.15489251E+04</pdfrwt>
<pdfrwt beam="2">  1       -2 0.46328412E-01 0.15489251E+04</pdfrwt>
<totfact> 0.28720206E+01</totfact>
</mgrwt>
</event>
<event>
12    1  0.2083715E-007  0.1649004E+04  0.7818608E-02  0.8790996E-01
          2   -1    0    0  501    0  0.00000000000E+00  0.00000000000E+00  0.23192381910E+04  0.23192381910E+04  0.00000000000E+00 0. -1.
         -2   -1    0    0    0  501 -0.00000000000E+00 -0.00000000000E+00 -0.29311517226E+03  0.29311517226E+03  0.00000000000E+00 0.  1.
         23    2    1    2    0    0 -0.37971615918E+03 -0.34772251302E+03  0.11110686932E+04  0.12283834894E+04  0.96731837755E+02 0.  0.
        254    2    1    2    0    0  0.37971615918E+03  0.34772251302E+03  0.91505432549E+03  0.13839698738E+04  0.90163899948E+03 0.  0.
        -24    2    4    4    0    0 -0.15051738003E+03  0.28492185024E+03  0.74847607276E+03  0.81948968920E+03  0.86665891632E+02 0.  0.
         24    2    4    4    0    0  0.53023353921E+03  0.62800662781E+02  0.16657825273E+03  0.56448018460E+03  0.76144830237E+02 0.  0.
         13    1    3    3    0    0 -0.13589420019E+03 -0.12640234910E+03  0.51477789661E+03  0.54721208899E+03  0.00000000000E+00 0. -1.
        -13    1    3    3    0    0 -0.24382195899E+03 -0.22132016392E+03  0.59629079661E+03  0.68117140043E+03  0.00000000000E+00 0.  1.
          4    1    6    6  502    0  0.47648538046E+03  0.33505608003E+02  0.14008621853E+03  0.49778016451E+03  0.00000000000E+00 0. -1.
          1    1    5    5  503    0 -0.13429268667E+03  0.23743801369E+03  0.53911190965E+03  0.60419614958E+03  0.00000000000E+00 0. -1.
         -2    1    5    5    0  503 -0.16224693366E+02  0.47483836553E+02  0.20936416311E+03  0.21529353962E+03  0.00000000000E+00 0.  1.
         -3    1    6    6    0  502  0.53748158751E+02  0.29295054778E+02  0.26492034193E+02  0.66700020084E+02  0.00000000000E+00 0.  1.
<mgrwt>
<rscale>  0 0.16490044E+04</rscale>
<asrwt>0</asrwt>
<pdfrwt beam="1">  1        2 0.35680586E+00 0.16490044E+04</pdfrwt>
<pdfrwt beam="2">  1       -2 0.45094643E-01 0.16490044E+04</pdfrwt>
<totfact> 0.19716860E+01</totfact>
</mgrwt>
</event>
<event>
12    1  0.2083715E-007  0.1617206E+04  0.7818608E-02  0.8810047E-01
          2   -1    0    0  501    0  0.00000000000E+00  0.00000000000E+00  0.16080774056E+04  0.16080774056E+04  0.00000000000E+00 0. -1.
         -2   -1    0    0    0  501 -0.00000000000E+00 -0.00000000000E+00 -0.40659644127E+03  0.40659644127E+03  0.00000000000E+00 0.  1.
         23    2    1    2    0    0  0.54769672656E+03  0.40261149613E+02  0.50356109336E+03  0.75048810790E+03  0.89810694797E+02 0.  0.
        254    2    1    2    0    0 -0.54769672656E+03 -0.40261149613E+02  0.69791987093E+03  0.12641857389E+04  0.89971149367E+03 0.  0.
        -24    2    4    4    0    0 -0.52390860999E+03 -0.41170148791E+03  0.48423804716E+03  0.82761659825E+03  0.80525776129E+02 0.  0.
         24    2    4    4    0    0 -0.23788116573E+02  0.37144033830E+03  0.21368182377E+03  0.43656914068E+03  0.79993083359E+02 0.  0.
         11    1    3    3    0    0  0.17237270359E+03 -0.18935069551E+02  0.19555078487E+03  0.26136372216E+03  0.00000000000E+00 0. -1.
        -11    1    3    3    0    0  0.37532402297E+03  0.59196219164E+02  0.30801030850E+03  0.48912438574E+03  0.00000000000E+00 0.  1.
          2    1    6    6  502    0 -0.40288847617E+02  0.16930861499E+03  0.67932740558E+02  0.18682466537E+03  0.00000000000E+00 0. -1.
          1    1    5    5  503    0 -0.10990605343E+03 -0.93017615317E+02  0.14703832679E+03  0.20579574069E+03  0.00000000000E+00 0. -1.
         -2    1    5    5    0  503 -0.41400255656E+03 -0.31868387259E+03  0.33719972037E+03  0.62182085757E+03  0.00000000000E+00 0.  1.
         -3    1    6    6    0  502  0.16500731044E+02  0.20213172331E+03  0.14574908321E+03  0.24974447531E+03  0.00000000000E+00 0.  1.
<mgrwt>
<rscale>  0 0.16172057E+04</rscale>
<asrwt>0</asrwt>
<pdfrwt beam="1">  1        2 0.24739652E+00 0.16172057E+04</pdfrwt>
<pdfrwt beam="2">  1       -2 0.62553300E-01 0.16172057E+04</pdfrwt>
<totfact> 0.25049470E+01</totfact>
</mgrwt>
</event>
<event>
12    1  0.2083715E-007  0.1627862E+04  0.7818608E-02  0.8803612E-01
         -2   -1    0    0    0  501 -0.00000000000E+00  0.00000000000E+00  0.14673925647E+04  0.14673925647E+04  0.00000000000E+00 0.  1.
          2   -1    0    0  501    0  0.00000000000E+00 -0.00000000000E+00 -0.45146992445E+03  0.45146992445E+03  0.00000000000E+00 0. -1.
         23    2    1    2    0    0  0.43821250816E+03  0.27368525140E+03  0.99283721831E+02  0.53409378928E+03  0.92005973638E+02 0.  0.
        254    2    1    2    0    0 -0.43821250816E+03 -0.27368525140E+03  0.91663891844E+03  0.13847686999E+04  0.90023531715E+03 0.  0.
        -24    2    4    4    0    0  0.17213466146E+03 -0.36157646643E+03  0.44930851276E+03  0.60703517012E+03  0.79029585440E+02 0.  0.
         24    2    4    4    0    0 -0.61034716962E+03  0.87891215028E+02  0.46733040569E+03  0.77773352977E+03  0.78887274739E+02 0.  0.
         13    1    3    3    0    0  0.19379601828E+03  0.68348640518E+02  0.34710896752E+02  0.20840652512E+03  0.00000000000E+00 0. -1.
        -13    1    3    3    0    0  0.24441648989E+03  0.20533661088E+03  0.64572825079E+02  0.32568726416E+03  0.00000000000E+00 0.  1.
          2    1    6    6  502    0 -0.57575584162E+03  0.10084134756E+03  0.44422650647E+03  0.73416684452E+03  0.00000000000E+00 0. -1.
          3    1    5    5  503    0  0.77436219492E+02 -0.16096171099E+03  0.14289103262E+03  0.22874196750E+03  0.00000000000E+00 0. -1.
         -4    1    5    5    0  503  0.94698441963E+02 -0.20061475544E+03  0.30641748014E+03  0.37829320261E+03  0.00000000000E+00 0.  1.
         -3    1    6    6    0  502 -0.34591327994E+02 -0.12950132533E+02  0.23103899217E+02  0.43566685255E+02  0.00000000000E+00 0.  1.
<mgrwt>
<rscale>  0 0.16278619E+04</rscale>
<asrwt>0</asrwt>
<pdfrwt beam="1">  1        2 0.69456912E-01 0.16278619E+04</pdfrwt>
<pdfrwt beam="2">  1       -2 0.22575270E+00 0.16278619E+04</pdfrwt>
<totfact> 0.60239267E+00</totfact>
</mgrwt>
</event>
<event>
12    1  0.2083715E-007  0.2328190E+04  0.7818608E-02  0.8466888E-01
         -2   -1    0    0    0  501 -0.00000000000E+00  0.00000000000E+00  0.11931154089E+04  0.11931154089E+04  0.00000000000E+00 0. -1.
          2   -1    0    0  501    0  0.00000000000E+00 -0.00000000000E+00 -0.11357806229E+04  0.11357806229E+04  0.00000000000E+00 0.  1.
         23    2    1    2    0    0  0.29753764736E+03 -0.74445998374E+03  0.60207857522E+03  0.10067464721E+04  0.91052344357E+02 0.  0.
        254    2    1    2    0    0 -0.29753764736E+03  0.74445998374E+03 -0.54474378922E+03  0.13221495597E+04  0.89921318011E+03 0.  0.
        -24    2    4    4    0    0 -0.20921828351E+03  0.55544620794E+03  0.12823392053E+03  0.61296851217E+03  0.83628215768E+02 0.  0.
         24    2    4    4    0    0 -0.88319363841E+02  0.18901377580E+03 -0.67297770975E+03  0.70918104751E+03  0.80698468716E+02 0.  0.
         13    1    3    3    0    0  0.12899748003E+03 -0.30240248012E+03  0.30261111028E+03  0.44683452631E+03  0.00000000000E+00 0. -1.
        -13    1    3    3    0    0  0.16854016733E+03 -0.44205750362E+03  0.29946746494E+03  0.55991194582E+03  0.00000000000E+00 0.  1.
          4    1    6    6  502    0 -0.42432433352E+02  0.15309616674E+03 -0.55947407804E+03  0.58159280572E+03  0.00000000000E+00 0. -1.
          1    1    5    5  503    0 -0.13746369932E+03  0.26252989438E+03  0.85130260224E+02  0.30832673461E+03  0.00000000000E+00 0. -1.
         -2    1    5    5    0  503 -0.71754584198E+02  0.29291631356E+03  0.43103660302E+02  0.30464177756E+03  0.00000000000E+00 0.  1.
         -3    1    6    6    0  502 -0.45886930489E+02  0.35917609067E+02 -0.11350363171E+03  0.12758824179E+03  0.00000000000E+00 0.  1.
<mgrwt>
<rscale>  0 0.23281902E+04</rscale>
<asrwt>0</asrwt>
<pdfrwt beam="1">  1        2 0.17473548E+00 0.23281902E+04</pdfrwt>
<pdfrwt beam="2">  1       -2 0.18355622E+00 0.23281902E+04</pdfrwt>
<totfact> 0.32107586E+00</totfact>
</mgrwt>
</event>
<event>
12    1  0.2083715E-007  0.1281943E+04  0.7818608E-02  0.9044008E-01
         -2   -1    0    0    0  501 -0.00000000000E+00  0.00000000000E+00  0.74445591848E+03  0.74445591848E+03  0.00000000000E+00 0.  1.
          2   -1    0    0  501    0  0.00000000000E+00 -0.00000000000E+00 -0.55187201870E+03  0.55187201870E+03  0.00000000000E+00 0. -1.
         23    2    1    2    0    0  0.31139323536E+02  0.22852923256E+03  0.26749089349E+03  0.36428928561E+03  0.89219044491E+02 0.  0.
        254    2    1    2    0    0 -0.31139323536E+02 -0.22852923256E+03 -0.74906993711E+02  0.93203865157E+03  0.89993873275E+03 0.  0.
        -24    2    4    4    0    0 -0.20312855978E+03  0.28946302714E+03  0.51730215303E+02  0.36616894467E+03  0.79709629202E+02 0.  0.
         24    2    4    4    0    0  0.17198923625E+03 -0.51799225971E+03 -0.12663720901E+03  0.56586970690E+03  0.79216563788E+02 0.  0.
         13    1    3    3    0    0  0.43453662986E+02  0.10047402539E+03  0.17278297910E+03  0.20454145906E+03  0.00000000000E+00 0. -1.
        -13    1    3    3    0    0 -0.12314339449E+02  0.12805520717E+03  0.94707914393E+02  0.15974782655E+03  0.00000000000E+00 0.  1.
          2    1    6    6  502    0 -0.52430531724E+01 -0.60292885148E+02 -0.93944037721E+01  0.61245215554E+02  0.00000000000E+00 0. -1.
          3    1    5    5  503    0 -0.40187182753E+02  0.11433581606E+03  0.36090335052E+02  0.12645236564E+03  0.00000000000E+00 0. -1.
         -4    1    5    5    0  503 -0.16294137703E+03  0.17512721108E+03  0.15639880251E+02  0.23971657903E+03  0.00000000000E+00 0.  1.
         -1    1    6    6    0  502  0.17723228942E+03 -0.45769937456E+03 -0.11724280524E+03  0.50462449134E+03  0.00000000000E+00 0.  1.
<mgrwt>
<rscale>  0 0.12819429E+04</rscale>
<asrwt>0</asrwt>
<pdfrwt beam="1">  1        2 0.84903387E-01 0.12819429E+04</pdfrwt>
<pdfrwt beam="2">  1       -2 0.11453168E+00 0.12819429E+04</pdfrwt>
<totfact> 0.32042907E+01</totfact>
</mgrwt>
</event>
<event>
12    1  0.2083715E-007  0.1574845E+04  0.7818608E-02  0.8836153E-01
          2   -1    0    0  501    0  0.00000000000E+00  0.00000000000E+00  0.11912406818E+04  0.11912406818E+04  0.00000000000E+00 0. -1.
         -2   -1    0    0    0  501 -0.00000000000E+00 -0.00000000000E+00 -0.52049417935E+03  0.52049417935E+03  0.00000000000E+00 0.  1.
         23    2    1    2    0    0  0.45921125592E+03 -0.16185543709E+03  0.92679259942E+01  0.49535772543E+03  0.90670952398E+02 0.  0.
        254    2    1    2    0    0 -0.45921125592E+03  0.16185543709E+03  0.66147857643E+03  0.12163771357E+04  0.89718853599E+03 0.  0.
        -24    2    4    4    0    0 -0.35282255357E+03 -0.20424292818E+03 -0.37362786545E+02  0.41650940948E+03  0.76714942106E+02 0.  0.
         24    2    4    4    0    0 -0.10638870235E+03  0.36609836527E+03  0.69884136297E+03  0.79986772622E+03  0.77862441576E+02 0.  0.
         13    1    3    3    0    0  0.14708762324E+03 -0.53966896901E+02 -0.39382892499E+02  0.16154939521E+03  0.00000000000E+00 0.  1.
        -13    1    3    3    0    0  0.31212363268E+03 -0.10788854019E+03  0.48650818493E+02  0.33380833021E+03  0.00000000000E+00 0. -1.
          2    1    6    6  502    0 -0.94214170207E+02  0.30598023415E+03  0.63609120340E+03  0.71211813108E+03  0.00000000000E+00 0. -1.
          1    1    5    5  503    0 -0.10213154099E+03 -0.30214820506E+02 -0.32282431742E+02  0.11129214906E+03  0.00000000000E+00 0. -1.
         -2    1    5    5    0  503 -0.25069101258E+03 -0.17402810768E+03 -0.50803548032E+01  0.30521726042E+03  0.00000000000E+00 0.  1.
         -1    1    6    6    0  502 -0.12174532139E+02  0.60118131125E+02  0.62750159570E+02  0.87749595149E+02  0.00000000000E+00 0.  1.
<mgrwt>
<rscale>  0 0.15748446E+04</rscale>
<asrwt>0</asrwt>
<pdfrwt beam="1">  1        2 0.18326780E+00 0.15748446E+04</pdfrwt>
<pdfrwt beam="2">  1       -2 0.80076028E-01 0.15748446E+04</pdfrwt>
<totfact> 0.25409731E+01</totfact>
</mgrwt>
</event>
<event>
12    1  0.2083715E-007  0.2931080E+04  0.7818608E-02  0.8263690E-01
          1   -1    0    0  501    0  0.00000000000E+00  0.00000000000E+00  0.99140192004E+03  0.99140192004E+03  0.00000000000E+00 0. -1.
         -1   -1    0    0    0  501 -0.00000000000E+00 -0.00000000000E+00 -0.21664351250E+04  0.21664351250E+04  0.00000000000E+00 0.  1.
         23    2    1    2    0    0 -0.12779263215E+04 -0.18026774392E+03 -0.20568228713E+03  0.13101952178E+04  0.93349680187E+02 0.  0.
        254    2    1    2    0    0  0.12779263215E+04  0.18026774392E+03 -0.96935091785E+03  0.18476418272E+04  0.89919240269E+03 0.  0.
        -24    2    4    4    0    0  0.13846849455E+04  0.18367225868E+03 -0.74068163600E+03  0.15831145145E+04  0.80959145518E+02 0.  0.
         24    2    4    4    0    0 -0.10675862391E+03 -0.34045147593E+01 -0.22866928185E+03  0.26452731277E+03  0.79221614741E+02 0.  0.
         13    1    3    3    0    0 -0.58225034084E+03 -0.74074656785E+02 -0.13995137119E+03  0.60339779622E+03  0.00000000000E+00 0.  1.
        -13    1    3    3    0    0 -0.69567598070E+03 -0.10619308713E+03 -0.65730915949E+02  0.70679742161E+03  0.00000000000E+00 0. -1.
          2    1    6    6  502    0  0.43424426753E+01  0.13657509748E+02 -0.61043564066E+02  0.62703278182E+02  0.00000000000E+00 0. -1.
          3    1    5    5  503    0  0.16638635342E+03  0.46505396341E+02 -0.10407513459E+03  0.20168987118E+03  0.00000000000E+00 0. -1.
         -4    1    5    5    0  503  0.12182985920E+04  0.13716686234E+03 -0.63660650141E+03  0.13814246433E+04  0.00000000000E+00 0.  1.
         -1    1    6    6    0  502 -0.11110106658E+03 -0.17062024507E+02 -0.16762571778E+03  0.20182403459E+03  0.00000000000E+00 0.  1.
<mgrwt>
<rscale>  0 0.29310803E+04</rscale>
<asrwt>0</asrwt>
<pdfrwt beam="1">  1        1 0.15252337E+00 0.29310803E+04</pdfrwt>
<pdfrwt beam="2">  1       -1 0.33329771E+00 0.29310803E+04</pdfrwt>
<totfact> 0.26344317E-01</totfact>
</mgrwt>
</event>
<event>
12    1  0.2083715E-007  0.1511114E+04  0.7818608E-02  0.8877096E-01
          2   -1    0    0  501    0  0.00000000000E+00  0.00000000000E+00  0.50137343362E+03  0.50137343362E+03  0.00000000000E+00 0. -1.
         -2   -1    0    0    0  501 -0.00000000000E+00 -0.00000000000E+00 -0.11386048037E+04  0.11386048037E+04  0.00000000000E+00 0.  1.
         23    2    1    2    0    0  0.41529476954E+03  0.24408867764E+03 -0.22441329178E+03  0.53905317107E+03  0.90376808687E+02 0.  0.
        254    2    1    2    0    0 -0.41529476954E+03 -0.24408867764E+03 -0.41281807829E+03  0.11009250663E+04  0.89976008335E+03 0.  0.
        -24    2    4    4    0    0 -0.46379390047E+03  0.19386569706E+03 -0.40898077147E+03  0.65317694108E+03  0.81768908006E+02 0.  0.
         24    2    4    4    0    0  0.48499130937E+02 -0.43795437470E+03 -0.38373068189E+01  0.44774812517E+03  0.79419510499E+02 0.  0.
         13    1    3    3    0    0  0.36700976901E+03  0.18602298805E+03 -0.21079985665E+03  0.46231731765E+03  0.00000000000E+00 0. -1.
        -13    1    3    3    0    0  0.48285000526E+02  0.58065689594E+02 -0.13613435134E+02  0.76735853419E+02  0.00000000000E+00 0.  1.
          4    1    6    6  502    0  0.35933285952E+02 -0.39282196467E+03  0.20422682828E+02  0.39499035804E+03  0.00000000000E+00 0. -1.
          1    1    5    5  503    0 -0.26435333721E+03  0.15238670523E+03 -0.25863160664E+03  0.39999337842E+03  0.00000000000E+00 0. -1.
         -2    1    5    5    0  503 -0.19944056326E+03  0.41478991825E+02 -0.15034916483E+03  0.25318356266E+03  0.00000000000E+00 0.  1.
         -3    1    6    6    0  502  0.12565844985E+02 -0.45132410032E+02 -0.24259989647E+02  0.52757767136E+02  0.00000000000E+00 0.  1.
<mgrwt>
<rscale>  0 0.15111138E+04</rscale>
<asrwt>0</asrwt>
<pdfrwt beam="1">  1        2 0.77134375E-01 0.15111138E+04</pdfrwt>
<pdfrwt beam="2">  1       -2 0.17516997E+00 0.15111138E+04</pdfrwt>
<totfact> 0.11598563E+01</totfact>
</mgrwt>
</event>
<event>
12    1  0.2083715E-007  0.1701127E+04  0.7818608E-02  0.8760722E-01
         -3   -1    0    0    0  501 -0.00000000000E+00  0.00000000000E+00  0.26913737973E+04  0.26913737973E+04  0.00000000000E+00 0.  1.
          3   -1    0    0  501    0  0.00000000000E+00 -0.00000000000E+00 -0.26880635361E+03  0.26880635361E+03  0.00000000000E+00 0. -1.
         23    2    1    2    0    0 -0.23757955853E+03  0.45203176456E+03  0.30133855668E+03  0.60013566834E+03  0.92634398903E+02 0.  0.
        254    2    1    2    0    0  0.23757955853E+03 -0.45203176456E+03  0.21212288870E+04  0.23600444825E+04  0.89967839022E+03 0.  0.
        -24    2    4    4    0    0  0.18243845368E+03 -0.11242434551E+03  0.19558770378E+04  0.19693322912E+04  0.83016043310E+02 0.  0.
         24    2    4    4    0    0  0.55141104856E+02 -0.33960741905E+03  0.16535184921E+03  0.39071219135E+03  0.83312915638E+02 0.  0.
         13    1    3    3    0    0 -0.15128370023E+03  0.31223946196E+03  0.25128290667E+03  0.42839624035E+03  0.00000000000E+00 0.  1.
        -13    1    3    3    0    0 -0.86295858303E+02  0.13979230260E+03  0.50055650009E+02  0.17173942798E+03  0.00000000000E+00 0. -1.
          2    1    6    6  502    0  0.96470419532E+01 -0.27231224416E+03  0.13390182607E+03  0.30360619684E+03  0.00000000000E+00 0. -1.
          3    1    5    5  503    0  0.89788768125E+02 -0.30208399350E+02  0.55866119710E+03  0.56663648260E+03  0.00000000000E+00 0. -1.
         -4    1    5    5    0  503  0.92649685553E+02 -0.82215946163E+02  0.13972158407E+04  0.14026958086E+04  0.00000000000E+00 0.  1.
         -1    1    6    6    0  502  0.45494062902E+02 -0.67295174890E+02  0.31450023143E+02  0.87105994504E+02  0.00000000000E+00 0.  1.
<mgrwt>
<rscale>  0 0.17011271E+04</rscale>
<asrwt>0</asrwt>
<pdfrwt beam="1">  1        3 0.41354826E-01 0.17011271E+04</pdfrwt>
<pdfrwt beam="2">  1       -3 0.41405749E+00 0.17011271E+04</pdfrwt>
<totfact> 0.12919327E-01</totfact>
</mgrwt>
</event>
<event>
12    1  0.2159719E-007  0.2892402E+04  0.7818608E-02  0.8275142E-01
          1   -1    0    0  501    0  0.00000000000E+00  0.00000000000E+00  0.14315553725E+04  0.14315553725E+04  0.00000000000E+00 0. -1.
         -1   -1    0    0    0  501 -0.00000000000E+00 -0.00000000000E+00 -0.14609967220E+04  0.14609967220E+04  0.00000000000E+00 0.  1.
         23    2    1    2    0    0 -0.24681926616E+03  0.11946262341E+04 -0.47501314796E+03  0.13123708048E+04  0.92887292985E+02 0.  0.
        254    2    1    2    0    0  0.24681926616E+03 -0.11946262341E+04  0.44557179842E+03  0.15801812897E+04  0.90021502506E+03 0.  0.
        -24    2    4    4    0    0  0.49672115081E+03 -0.33078061864E+03  0.86372253686E+02  0.60853578371E+03  0.81901859094E+02 0.  0.
         24    2    4    4    0    0 -0.24990188465E+03 -0.86384561549E+03  0.35919954474E+03  0.97164550599E+03  0.79940459172E+02 0.  0.
         13    1    3    3    0    0 -0.19366525151E+03  0.75697702282E+03 -0.27604474609E+03  0.82868639700E+03  0.00000000000E+00 0. -1.
        -13    1    3    3    0    0 -0.53154014650E+02  0.43764921131E+03 -0.19896840188E+03  0.48368440783E+03  0.00000000000E+00 0.  1.
          4    1    6    6  502    0 -0.10560083915E+02 -0.85416232623E+02  0.55800162341E+02  0.10257244408E+03  0.00000000000E+00 0. -1.
          1    1    5    5  503    0  0.13417926138E+03 -0.11737305908E+03 -0.37122495338E+01  0.17830953418E+03  0.00000000000E+00 0. -1.
         -2    1    5    5    0  503  0.36254188943E+03 -0.21340755956E+03  0.90084503220E+02  0.43022624953E+03  0.00000000000E+00 0.  1.
         -3    1    6    6    0  502 -0.23934180073E+03 -0.77842938287E+03  0.30339938240E+03  0.86907306190E+03  0.00000000000E+00 0.  1.
<mgrwt>
<rscale>  0 0.28924023E+04</rscale>
<asrwt>0</asrwt>
<pdfrwt beam="1">  1        1 0.22023929E+00 0.28924023E+04</pdfrwt>
<pdfrwt beam="2">  1       -1 0.22476873E+00 0.28924023E+04</pdfrwt>
<totfact> 0.64130031E-01</totfact>
</mgrwt>
</event>
<event>
12    1  0.2083715E-007  0.2783399E+04  0.7818608E-02  0.8308441E-01
         -2   -1    0    0    0  501 -0.00000000000E+00  0.00000000000E+00  0.17012155270E+04  0.17012155270E+04  0.00000000000E+00 0.  1.
          2   -1    0    0  501    0  0.00000000000E+00 -0.00000000000E+00 -0.11384963128E+04  0.11384963128E+04  0.00000000000E+00 0. -1.
         23    2    1    2    0    0 -0.73276012407E+03 -0.10000636773E+04  0.36466738759E+03  0.12955175040E+04  0.91206039070E+02 0.  0.
        254    2    1    2    0    0  0.73276012407E+03  0.10000636773E+04  0.19805182665E+03  0.15441943358E+04  0.89902550729E+03 0.  0.
        -24    2    4    4    0    0  0.70263928884E+03  0.22564461542E+03  0.71104668616E+01  0.74222416506E+03  0.78922048686E+02 0.  0.
         24    2    4    4    0    0  0.30120835227E+02  0.77441906184E+03  0.19094135979E+03  0.80197017077E+03  0.77880702776E+02 0.  0.
         11    1    3    3    0    0 -0.25501062703E+03 -0.30421163452E+03  0.81691849998E+02  0.40527607483E+03  0.00000000000E+00 0. -1.
        -11    1    3    3    0    0 -0.47774949704E+03 -0.69585204274E+03  0.28297553760E+03  0.89024142916E+03  0.00000000000E+00 0.  1.
          2    1    6    6  502    0  0.46654938137E+02  0.68605395212E+03  0.18385266944E+03  0.71179246451E+03  0.00000000000E+00 0. -1.
          1    1    5    5  503    0  0.62667021975E+03  0.19679502841E+03  0.30841268872E+02  0.65756751090E+03  0.00000000000E+00 0. -1.
         -2    1    5    5    0  503  0.75969069093E+02  0.28849587006E+02 -0.23730802010E+02  0.84656654159E+02  0.00000000000E+00 0.  1.
         -1    1    6    6    0  502 -0.16534102910E+02  0.88365109723E+02  0.70886903486E+01  0.90177706259E+02  0.00000000000E+00 0.  1.
<mgrwt>
<rscale>  0 0.27833991E+04</rscale>
<asrwt>0</asrwt>
<pdfrwt beam="1">  1        2 0.17515328E+00 0.27833991E+04</pdfrwt>
<pdfrwt beam="2">  1       -2 0.26172546E+00 0.27833991E+04</pdfrwt>
<totfact> 0.97891295E-01</totfact>
</mgrwt>
</event>
<event>
12    1  0.2083715E-007  0.2248095E+04  0.7818608E-02  0.8498672E-01
         -1   -1    0    0    0  501 -0.00000000000E+00  0.00000000000E+00  0.11710945737E+04  0.11710945737E+04  0.00000000000E+00 0.  1.
          1   -1    0    0  501    0  0.00000000000E+00 -0.00000000000E+00 -0.10788902714E+04  0.10788902714E+04  0.00000000000E+00 0. -1.
         23    2    1    2    0    0 -0.59224510841E+03  0.71663376068E+03 -0.10976023779E+03  0.94063290126E+03  0.91786326629E+02 0.  0.
        254    2    1    2    0    0  0.59224510841E+03 -0.71663376068E+03  0.20196454006E+03  0.13093519438E+04  0.89960803793E+03 0.  0.
        -24    2    4    4    0    0  0.10244921921E+03 -0.77705080190E+03  0.17900349166E+03  0.80870232052E+03  0.87483723765E+02 0.  0.
         24    2    4    4    0    0  0.48979588920E+03  0.60417041225E+02  0.22961048395E+02  0.50064962328E+03  0.81071595524E+02 0.  0.
         13    1    3    3    0    0 -0.13880759151E+03  0.22638678523E+03 -0.49489992347E+02  0.27012549552E+03  0.00000000000E+00 0.  1.
        -13    1    3    3    0    0 -0.45343751690E+03  0.49024697545E+03 -0.60270245445E+02  0.67050740574E+03  0.00000000000E+00 0. -1.
          2    1    6    6  502    0  0.26459282359E+03  0.50440820440E+02  0.48823706738E+02  0.27374695067E+03  0.00000000000E+00 0. -1.
          3    1    5    5  503    0  0.67902692351E+02 -0.68894248505E+03  0.13974886942E+03  0.70624519102E+03  0.00000000000E+00 0. -1.
         -4    1    5    5    0  503  0.34546526860E+02 -0.88108316852E+02  0.39254622244E+02  0.10245712949E+03  0.00000000000E+00 0.  1.
         -1    1    6    6    0  502  0.22520306561E+03  0.99762207855E+01 -0.25862658343E+02  0.22690267261E+03  0.00000000000E+00 0.  1.
<mgrwt>
<rscale>  0 0.22480948E+04</rscale>
<asrwt>0</asrwt>
<pdfrwt beam="1">  1        1 0.16598312E+00 0.22480948E+04</pdfrwt>
<pdfrwt beam="2">  1       -1 0.18016840E+00 0.22480948E+04</pdfrwt>
<totfact> 0.24785875E+00</totfact>
</mgrwt>
</event>
<event>
12    1  0.2083715E-007  0.1932163E+04  0.7818608E-02  0.8639011E-01
          2   -1    0    0  501    0  0.00000000000E+00  0.00000000000E+00  0.18966689835E+04  0.18966689835E+04  0.00000000000E+00 0. -1.
         -2   -1    0    0    0  501 -0.00000000000E+00 -0.00000000000E+00 -0.49208016423E+03  0.49208016423E+03  0.00000000000E+00 0.  1.
         23    2    1    2    0    0  0.61209059800E+03  0.33790481570E+03  0.20522650475E+03  0.73431843973E+03  0.90945522345E+02 0.  0.
        254    2    1    2    0    0 -0.61209059800E+03 -0.33790481570E+03  0.11993623145E+04  0.16544307080E+04  0.89990912956E+03 0.  0.
        -24    2    4    4    0    0  0.80814577400E+02 -0.15132497023E+03 -0.63837879643E+02  0.19938499930E+03  0.79049734551E+02 0.  0.
         24    2    4    4    0    0 -0.69290517540E+03 -0.18657984548E+03  0.12632001942E+04  0.14550457087E+04  0.80954697618E+02 0.  0.
         11    1    3    3    0    0  0.36587198287E+03  0.18490413547E+03  0.75963361235E+02  0.41691999162E+03  0.00000000000E+00 0. -1.
        -11    1    3    3    0    0  0.24621861513E+03  0.15300068023E+03  0.12926314351E+03  0.31739844810E+03  0.00000000000E+00 0.  1.
          2    1    6    6  502    0 -0.45069057749E+03 -0.15742021277E+03  0.86758239728E+03  0.99025367261E+03  0.00000000000E+00 0. -1.
          1    1    5    5  503    0  0.29369826518E+02 -0.32838312324E+02 -0.54208773237E+02  0.69853651027E+02  0.00000000000E+00 0. -1.
         -2    1    5    5    0  503  0.51444750881E+02 -0.11848665790E+03 -0.96291064060E+01  0.12953134827E+03  0.00000000000E+00 0.  1.
         -1    1    6    6    0  502 -0.24221459791E+03 -0.29159632702E+02  0.39561779688E+03  0.46479203610E+03  0.00000000000E+00 0.  1.
<mgrwt>
<rscale>  0 0.19321627E+04</rscale>
<asrwt>0</asrwt>
<pdfrwt beam="1">  1        2 0.29179522E+00 0.19321627E+04</pdfrwt>
<pdfrwt beam="2">  1       -2 0.75704642E-01 0.19321627E+04</pdfrwt>
<totfact> 0.11140282E+01</totfact>
</mgrwt>
</event>
<event>
12    1  0.2083715E-007  0.4710169E+04  0.7818608E-02  0.7874841E-01
          1   -1    0    0  501    0  0.00000000000E+00  0.00000000000E+00  0.17946199131E+04  0.17946199131E+04  0.00000000000E+00 0. -1.
         -1   -1    0    0    0  501 -0.00000000000E+00 -0.00000000000E+00 -0.30905832619E+04  0.30905832619E+04  0.00000000000E+00 0.  1.
         23    2    1    2    0    0 -0.19609640018E+04  0.11297380446E+04 -0.78319613880E+03  0.23964696916E+04  0.89347216302E+02 0.  0.
        254    2    1    2    0    0  0.19609640018E+04 -0.11297380446E+04 -0.51276721000E+03  0.24887334835E+04  0.89954225832E+03 0.  0.
        -24    2    4    4    0    0  0.54856697788E+03 -0.65252489849E+03 -0.50841791464E+03  0.99583983174E+03  0.80583634681E+02 0.  0.
         24    2    4    4    0    0  0.14123970239E+04 -0.47721314608E+03 -0.43492953588E+01  0.14928936518E+04  0.78197180987E+02 0.  0.
         11    1    3    3    0    0 -0.60503206772E+03  0.35261547925E+03 -0.19902833789E+03  0.72802043822E+03  0.00000000000E+00 0. -1.
        -11    1    3    3    0    0 -0.13559319341E+04  0.77712256532E+03 -0.58416780091E+03  0.16684492533E+04  0.00000000000E+00 0.  1.
          4    1    6    6  502    0  0.41060368361E+03 -0.12252687811E+03  0.30637701024E+02  0.42958921027E+03  0.00000000000E+00 0. -1.
          3    1    5    5  503    0  0.10328668971E+03 -0.90537379056E+02 -0.10699856847E+03  0.17410873308E+03  0.00000000000E+00 0. -1.
         -4    1    5    5    0  503  0.44528028817E+03 -0.56198751944E+03 -0.40141934616E+03  0.82173109867E+03  0.00000000000E+00 0.  1.
         -3    1    6    6    0  502  0.10017933403E+04 -0.35468626796E+03 -0.34986996383E+02  0.10633044415E+04  0.00000000000E+00 0.  1.
<mgrwt>
<rscale>  0 0.47101687E+04</rscale>
<asrwt>0</asrwt>
<pdfrwt beam="1">  1        1 0.27609537E+00 0.47101687E+04</pdfrwt>
<pdfrwt beam="2">  1       -1 0.47547435E+00 0.47101687E+04</pdfrwt>
<totfact> 0.65941530E-03</totfact>
</mgrwt>
</event>
<event>
12    1  0.2083715E-007  0.3156872E+04  0.7818608E-02  0.8200301E-01
          2   -1    0    0  501    0  0.00000000000E+00  0.00000000000E+00  0.36150588836E+04  0.36150588836E+04  0.00000000000E+00 0. -1.
         -2   -1    0    0    0  501 -0.00000000000E+00 -0.00000000000E+00 -0.68918945098E+03  0.68918945098E+03  0.00000000000E+00 0.  1.
         23    2    1    2    0    0 -0.10931832608E+04  0.50262082491E+03  0.24455970112E+04  0.27270768215E+04  0.91246447509E+02 0.  0.
        254    2    1    2    0    0  0.10931832608E+04 -0.50262082491E+03  0.48027242146E+03  0.15771715131E+04  0.89951711907E+03 0.  0.
        -24    2    4    4    0    0  0.98527543898E+03 -0.22114238286E+03  0.10633693296E+02  0.10133664785E+04  0.84420969415E+02 0.  0.
         24    2    4    4    0    0  0.10790782181E+03 -0.28147844205E+03  0.46963872817E+03  0.56380503461E+03  0.80258150387E+02 0.  0.
         11    1    3    3    0    0 -0.29761231504E+03  0.15319916470E+03  0.59667435186E+03  0.68415155945E+03  0.00000000000E+00 0.  1.
        -11    1    3    3    0    0 -0.79557094575E+03  0.34942166021E+03  0.18489226593E+04  0.20429252621E+04  0.00000000000E+00 0. -1.
          2    1    6    6  502    0  0.10178791318E+03 -0.15625768244E+03  0.27389279609E+03  0.33135254087E+03  0.00000000000E+00 0. -1.
          1    1    5    5  503    0  0.47231543999E+03 -0.78498430627E+02 -0.27464048773E+02  0.47958122612E+03  0.00000000000E+00 0. -1.
         -2    1    5    5    0  503  0.51295999898E+03 -0.14264395223E+03  0.38097742068E+02  0.53378525234E+03  0.00000000000E+00 0.  1.
         -1    1    6    6    0  502  0.61199086368E+01 -0.12522075961E+03  0.19574593208E+03  0.23245249374E+03  0.00000000000E+00 0.  1.
<mgrwt>
<rscale>  0 0.31568722E+04</rscale>
<asrwt>0</asrwt>
<pdfrwt beam="1">  1        2 0.55616289E+00 0.31568722E+04</pdfrwt>
<pdfrwt beam="2">  1       -2 0.10602915E+00 0.31568722E+04</pdfrwt>
<totfact> 0.40806271E-01</totfact>
</mgrwt>
</event>
<event>
12    1  0.2083715E-007  0.2027905E+04  0.7818608E-02  0.8593684E-01
         -2   -1    0    0    0  501 -0.00000000000E+00  0.00000000000E+00  0.31676303742E+03  0.31676303742E+03  0.00000000000E+00 0.  1.
          2   -1    0    0  501    0  0.00000000000E+00 -0.00000000000E+00 -0.32456424344E+04  0.32456424344E+04  0.00000000000E+00 0. -1.
         23    2    1    2    0    0 -0.62859099717E+03  0.41858171926E+03 -0.17051119013E+04  0.18670718320E+04  0.90627437479E+02 0.  0.
        254    2    1    2    0    0  0.62859099717E+03 -0.41858171926E+03 -0.12237674957E+04  0.16953336399E+04  0.89789307241E+03 0.  0.
        -24    2    4    4    0    0  0.28590642576E+03  0.20623727593E+03 -0.12255441030E+03  0.38123893157E+03  0.77764009577E+02 0.  0.
         24    2    4    4    0    0  0.34268457141E+03 -0.62481899519E+03 -0.11012130854E+04  0.13140947083E+04  0.79643899068E+02 0.  0.
         11    1    3    3    0    0 -0.35555831824E+03  0.18582062667E+03 -0.86133999370E+03  0.95018819595E+03  0.00000000000E+00 0. -1.
        -11    1    3    3    0    0 -0.27303267893E+03  0.23276109260E+03 -0.84377190759E+03  0.91688363604E+03  0.00000000000E+00 0.  1.
          2    1    6    6  502    0  0.15273634223E+03 -0.22225521892E+03 -0.46680078546E+03  0.53909994053E+03  0.00000000000E+00 0. -1.
          3    1    5    5  503    0  0.14735994820E+03  0.10547146581E+03 -0.21878398968E+02  0.18253177469E+03  0.00000000000E+00 0. -1.
         -4    1    5    5    0  503  0.13854647756E+03  0.10076581012E+03 -0.10067601133E+03  0.19870715687E+03  0.00000000000E+00 0.  1.
         -1    1    6    6    0  502  0.18994822918E+03 -0.40256377627E+03 -0.63441229997E+03  0.77499476778E+03  0.00000000000E+00 0.  1.
<mgrwt>
<rscale>  0 0.20279049E+04</rscale>
<asrwt>0</asrwt>
<pdfrwt beam="1">  1        2 0.49932962E+00 0.20279049E+04</pdfrwt>
<pdfrwt beam="2">  1       -2 0.48732774E-01 0.20279049E+04</pdfrwt>
<totfact> 0.44896886E+00</totfact>
</mgrwt>
</event>
<event>
12    1  0.2083715E-007  0.2996843E+04  0.7818608E-02  0.8244633E-01
          2   -1    0    0  501    0  0.00000000000E+00  0.00000000000E+00  0.37286590064E+04  0.37286590064E+04  0.00000000000E+00 0.  1.
         -2   -1    0    0    0  501 -0.00000000000E+00 -0.00000000000E+00 -0.60216480616E+03  0.60216480616E+03  0.00000000000E+00 0. -1.
         23    2    1    2    0    0  0.65258175593E+03  0.99675787635E+03  0.46754179399E+03  0.12828082287E+04  0.87249127444E+02 0.  0.
        254    2    1    2    0    0 -0.65258175593E+03 -0.99675787635E+03  0.26589524063E+04  0.30480155839E+04  0.89497591505E+03 0.  0.
        -24    2    4    4    0    0 -0.43117816163E+03  0.23892973852E+02  0.69367315532E+03  0.82103555509E+03  0.80196353000E+02 0.  0.
         24    2    4    4    0    0 -0.22140359431E+03 -0.10206508502E+04  0.19652792510E+04  0.22269800288E+04  0.79811057303E+02 0.  0.
         13    1    3    3    0    0  0.54587108821E+03  0.81426615274E+03  0.34992094836E+03  0.10408886984E+04  0.00000000000E+00 0. -1.
        -13    1    3    3    0    0  0.10671066772E+03  0.18249172361E+03  0.11762084563E+03  0.24191953025E+03  0.00000000000E+00 0.  1.
          2    1    6    6  502    0 -0.15812501810E+03 -0.54277286194E+03  0.10713391946E+04  0.12113519600E+04  0.00000000000E+00 0. -1.
          1    1    5    5  503    0 -0.29786362082E+03  0.46266588090E+02  0.43599134655E+03  0.53004885440E+03  0.00000000000E+00 0. -1.
         -2    1    5    5    0  503 -0.13331454081E+03 -0.22373614238E+02  0.25768180877E+03  0.29098670069E+03  0.00000000000E+00 0.  1.
         -1    1    6    6    0  502 -0.63278576208E+02 -0.47787798826E+03  0.89394005635E+03  0.10156280688E+04  0.00000000000E+00 0.  1.
<mgrwt>
<rscale>  0 0.29968432E+04</rscale>
<asrwt>0</asrwt>
<pdfrwt beam="1">  1        2 0.57363983E+00 0.29968432E+04</pdfrwt>
<pdfrwt beam="2">  1       -2 0.92640742E-01 0.29968432E+04</pdfrwt>
<totfact> 0.46998264E-01</totfact>
</mgrwt>
</event>
<event>
12    1  0.2083715E-007  0.2487072E+04  0.7818608E-02  0.8407606E-01
          2   -1    0    0  501    0  0.00000000000E+00  0.00000000000E+00  0.32540810239E+04  0.32540810239E+04  0.00000000000E+00 0. -1.
         -2   -1    0    0    0  501 -0.00000000000E+00 -0.00000000000E+00 -0.47521295534E+03  0.47521295534E+03  0.00000000000E+00 0.  1.
         23    2    1    2    0    0 -0.22661224696E+03 -0.83924053961E+03  0.25143569868E+03  0.90838942358E+03  0.79206316096E+02 0.  0.
        254    2    1    2    0    0  0.22661224696E+03  0.83924053961E+03  0.25274323699E+04  0.28209045556E+04  0.90216979219E+03 0.  0.
        -24    2    4    4    0    0  0.22084863667E+03  0.81467107878E+03  0.10895316127E+04  0.13805572851E+04  0.79976217723E+02 0.  0.
         24    2    4    4    0    0  0.57636102940E+01  0.24569460836E+02  0.14379007571E+04  0.14403472705E+04  0.80029961490E+02 0.  0.
         11    1    3    3    0    0 -0.66312334158E+02 -0.32339431549E+03  0.61578925717E+02  0.33581717205E+03  0.00000000000E+00 0.  1.
        -11    1    3    3    0    0 -0.16029991280E+03 -0.51584622412E+03  0.18985677296E+03  0.57257225153E+03  0.00000000000E+00 0. -1.
          2    1    6    6  502    0  0.24174656969E+02  0.38861406885E+02  0.12713605277E+04  0.12721840332E+04  0.00000000000E+00 0. -1.
          1    1    5    5  503    0  0.11873217281E+03  0.46509460712E+03  0.55540552006E+03  0.73408828771E+03  0.00000000000E+00 0. -1.
         -2    1    5    5    0  503  0.10211646386E+03  0.34957647165E+03  0.53412609266E+03  0.64646899739E+03  0.00000000000E+00 0.  1.
         -1    1    6    6    0  502 -0.18411046675E+02 -0.14291946049E+02  0.16654022943E+03  0.16816323730E+03  0.00000000000E+00 0.  1.
<mgrwt>
<rscale>  0 0.24870717E+04</rscale>
<asrwt>0</asrwt>
<pdfrwt beam="1">  1        2 0.50062784E+00 0.24870717E+04</pdfrwt>
<pdfrwt beam="2">  1       -2 0.73109687E-01 0.24870717E+04</pdfrwt>
<totfact> 0.18037984E+00</totfact>
</mgrwt>
</event>
<event>
12    1  0.2853335E-007  0.4349105E+04  0.7818608E-02  0.7937600E-01
         -1   -1    0    0    0  501 -0.00000000000E+00  0.00000000000E+00  0.18025999401E+04  0.18025999401E+04  0.00000000000E+00 0.  1.
          1   -1    0    0  501    0  0.00000000000E+00 -0.00000000000E+00 -0.26232551073E+04  0.26232551073E+04  0.00000000000E+00 0. -1.
         23    2    1    2    0    0 -0.17977771902E+04 -0.89530457565E+03 -0.93838890467E+03  0.22186391493E+04  0.90624665033E+02 0.  0.
        254    2    1    2    0    0  0.17977771902E+04  0.89530457565E+03  0.11773373743E+03  0.22072158981E+04  0.90794695827E+03 0.  0.
        -24    2    4    4    0    0 -0.28629843472E+02 -0.49037787535E+02 -0.99675985989E+02  0.13810353079E+03  0.76895451681E+02 0.  0.
         24    2    4    4    0    0  0.18264070336E+04  0.94434236318E+03  0.21740972342E+03  0.20691123673E+04  0.80086510235E+02 0.  0.
         13    1    3    3    0    0 -0.12205127867E+04 -0.65236782152E+03 -0.66042993129E+03  0.15334284891E+04  0.00000000000E+00 0. -1.
        -13    1    3    3    0    0 -0.57726440348E+03 -0.24293675413E+03 -0.27795897339E+03  0.68521066025E+03  0.00000000000E+00 0.  1.
          2    1    6    6  502    0  0.85678724319E+03  0.40616161783E+03  0.77221064483E+02  0.95132262282E+03  0.00000000000E+00 0. -1.
          1    1    5    5  503    0 -0.15384304029E+02 -0.15439950189E+02  0.90021502147E+01  0.23581933356E+02  0.00000000000E+00 0. -1.
         -2    1    5    5    0  503 -0.13245539443E+02 -0.33597837346E+02 -0.10867813620E+03  0.11452159743E+03  0.00000000000E+00 0.  1.
         -1    1    6    6    0  502  0.96961979045E+03  0.53818074535E+03  0.14018865894E+03  0.11177897444E+04  0.00000000000E+00 0.  1.
<mgrwt>
<rscale>  0 0.43491054E+04</rscale>
<asrwt>0</asrwt>
<pdfrwt beam="1">  1        1 0.40357771E+00 0.43491054E+04</pdfrwt>
<pdfrwt beam="2">  1       -1 0.27732307E+00 0.43491054E+04</pdfrwt>
<totfact> 0.39159729E-02</totfact>
</mgrwt>
</event>
<event>
12    1  0.2083715E-007  0.2013437E+04  0.7818608E-02  0.8600364E-01
         -2   -1    0    0    0  501 -0.00000000000E+00  0.00000000000E+00  0.49750502775E+03  0.49750502775E+03  0.00000000000E+00 0. -1.
          2   -1    0    0  501    0  0.00000000000E+00 -0.00000000000E+00 -0.20371293093E+04  0.20371293093E+04  0.00000000000E+00 0.  1.
         23    2    1    2    0    0 -0.29721808184E+03 -0.24918932884E+02  0.32035568073E+03  0.44739605625E+03  0.92606304199E+02 0.  0.
        254    2    1    2    0    0  0.29721808184E+03  0.24918932884E+02 -0.18599799623E+04  0.20872382808E+04  0.89893194366E+03 0.  0.
        -24    2    4    4    0    0  0.36938058982E+03 -0.25502212306E+03 -0.43149763627E+03  0.62772752955E+03  0.79833187763E+02 0.  0.
         24    2    4    4    0    0 -0.72162507974E+02  0.27994105594E+03 -0.14284823260E+04  0.14595107512E+04  0.77688190187E+02 0.  0.
         11    1    3    3    0    0 -0.78138937930E+02 -0.14679403929E+02  0.14970446431E+03  0.16950694722E+03  0.00000000000E+00 0. -1.
        -11    1    3    3    0    0 -0.21907914391E+03 -0.10239528955E+02  0.17065121642E+03  0.27788910903E+03  0.00000000000E+00 0.  1.
          2    1    6    6  502    0 -0.81843011275E+01  0.94054917946E+01 -0.18097026896E+03  0.18139924010E+03  0.00000000000E+00 0. -1.
          3    1    5    5  503    0  0.32392251537E+02 -0.35053829453E+02 -0.18788457523E+02  0.51293616124E+02  0.00000000000E+00 0. -1.
         -4    1    5    5    0  503  0.33698833828E+03 -0.21996829360E+03 -0.41270917874E+03  0.57643391343E+03  0.00000000000E+00 0.  1.
         -1    1    6    6    0  502 -0.63978206847E+02  0.27053556415E+03 -0.12475120571E+04  0.12781115111E+04  0.00000000000E+00 0.  1.
<mgrwt>
<rscale>  0 0.20134369E+04</rscale>
<asrwt>0</asrwt>
<pdfrwt beam="1">  1        2 0.31340450E+00 0.20134369E+04</pdfrwt>
<pdfrwt beam="2">  1       -2 0.76539236E-01 0.20134369E+04</pdfrwt>
<totfact> 0.90227436E+00</totfact>
</mgrwt>
</event>
<event>
12    1  0.2083715E-007  0.1584768E+04  0.7818608E-02  0.8829961E-01
          2   -1    0    0  501    0  0.00000000000E+00  0.00000000000E+00  0.17198289852E+04  0.17198289852E+04  0.00000000000E+00 0. -1.
         -2   -1    0    0    0  501 -0.00000000000E+00 -0.00000000000E+00 -0.36507824635E+03  0.36507824635E+03  0.00000000000E+00 0.  1.
         23    2    1    2    0    0 -0.15559737434E+03 -0.40827321289E+03  0.64157354856E+02  0.45216399437E+03  0.97152212347E+02 0.  0.
        254    2    1    2    0    0  0.15559737434E+03  0.40827321289E+03  0.12905933839E+04  0.16327432371E+04  0.89962305242E+03 0.  0.
        -24    2    4    4    0    0  0.14432017961E+03  0.54857526084E+03  0.13454021620E+04  0.14621467454E+04  0.77479007283E+02 0.  0.
         24    2    4    4    0    0  0.11277194735E+02 -0.14030204795E+03 -0.54808778025E+02  0.17059649174E+03  0.79292629331E+02 0.  0.
         13    1    3    3    0    0 -0.10061616179E+03 -0.15141524988E+03  0.52513069153E+02  0.18922952292E+03  0.00000000000E+00 0. -1.
        -13    1    3    3    0    0 -0.54981212548E+02 -0.25685796300E+03  0.11644285702E+02  0.26293447146E+03  0.00000000000E+00 0.  1.
          2    1    6    6  502    0 -0.82558257385E+01 -0.13852527164E+03 -0.58570983133E+02  0.15062526218E+03  0.00000000000E+00 0. -1.
          1    1    5    5  503    0  0.90187628764E+02  0.23944177745E+03  0.53297192202E+03  0.59120659911E+03  0.00000000000E+00 0. -1.
         -2    1    5    5    0  503  0.54132550843E+02  0.30913348339E+03  0.81243023995E+03  0.87094014628E+03  0.00000000000E+00 0.  1.
         -1    1    6    6    0  502  0.19533020473E+02 -0.17767763071E+01  0.37622051085E+01  0.19971229560E+02  0.00000000000E+00 0.  1.
<mgrwt>
<rscale>  0 0.15847677E+04</rscale>
<asrwt>0</asrwt>
<pdfrwt beam="1">  1        2 0.26458907E+00 0.15847677E+04</pdfrwt>
<pdfrwt beam="2">  1       -2 0.56165885E-01 0.15847677E+04</pdfrwt>
<totfact> 0.27312097E+01</totfact>
</mgrwt>
</event>
<event>
12    1  0.2083715E-007  0.1129194E+04  0.7818608E-02  0.9177195E-01
         -1   -1    0    0    0  501 -0.00000000000E+00  0.00000000000E+00  0.19648493367E+03  0.19648493367E+03  0.00000000000E+00 0.  1.
          1   -1    0    0  501    0  0.00000000000E+00 -0.00000000000E+00 -0.16223630720E+04  0.16223630720E+04  0.00000000000E+00 0. -1.
         23    2    1    2    0    0  0.14416678248E+03  0.51637705699E+02 -0.43508690800E+03  0.47033551233E+03  0.92001971826E+02 0.  0.
        254    2    1    2    0    0 -0.14416678248E+03 -0.51637705699E+02 -0.99079123032E+03  0.13485124933E+04  0.90186926369E+03 0.  0.
        -24    2    4    4    0    0 -0.26349391880E+03  0.81395973591E+02  0.49292121824E+02  0.29012056930E+03  0.75404785637E+02 0.  0.
         24    2    4    4    0    0  0.11932713632E+03 -0.13303367929E+03 -0.10400833521E+04  0.10583919240E+04  0.80518073551E+02 0.  0.
         13    1    3    3    0    0  0.10188495955E+03  0.18995243136E+02 -0.37886222424E+03  0.39278231783E+03  0.00000000000E+00 0. -1.
        -13    1    3    3    0    0  0.42281822933E+02  0.32642462562E+02 -0.56224683768E+02  0.77553194502E+02  0.00000000000E+00 0.  1.
          4    1    6    6  502    0  0.41293012306E+02 -0.33609155802E+02 -0.14571723152E+03  0.15513929154E+03  0.00000000000E+00 0. -1.
          3    1    5    5  503    0 -0.13393423579E+03  0.71551660477E+02  0.20406273273E+01  0.15186238440E+03  0.00000000000E+00 0. -1.
         -4    1    5    5    0  503 -0.12955968301E+03  0.98443131149E+01  0.47251494497E+02  0.13825818491E+03  0.00000000000E+00 0.  1.
         -3    1    6    6    0  502  0.78034124011E+02 -0.99424523488E+02 -0.89436612062E+03  0.90325263249E+03  0.00000000000E+00 0.  1.
<mgrwt>
<rscale>  0 0.11291942E+04</rscale>
<asrwt>0</asrwt>
<pdfrwt beam="1">  1        1 0.24959431E+00 0.11291942E+04</pdfrwt>
<pdfrwt beam="2">  1       -1 0.30228452E-01 0.11291942E+04</pdfrwt>
<totfact> 0.53947132E+01</totfact>
</mgrwt>
</event>
<event>
12    1  0.2083715E-007  0.4290927E+04  0.7818608E-02  0.7948298E-01
         -2   -1    0    0    0  501 -0.00000000000E+00  0.00000000000E+00  0.23202060973E+04  0.23202060973E+04  0.00000000000E+00 0.  1.
          2   -1    0    0  501    0  0.00000000000E+00 -0.00000000000E+00 -0.19838817574E+04  0.19838817574E+04  0.00000000000E+00 0. -1.
         23    2    1    2    0    0 -0.87641556280E+03 -0.18148219898E+04 -0.21321391577E+03  0.20286304154E+04  0.90543331018E+02 0.  0.
        254    2    1    2    0    0  0.87641556280E+03  0.18148219898E+04  0.54953825571E+03  0.22754574394E+04  0.90223675959E+03 0.  0.
        -24    2    4    4    0    0  0.21820653020E+02  0.10293391313E+04  0.14043964673E+03  0.10421895291E+04  0.80128222525E+02 0.  0.
         24    2    4    4    0    0  0.85459490978E+03  0.78548285852E+03  0.40909860898E+03  0.12332679103E+04  0.79197763575E+02 0.  0.
         11    1    3    3    0    0 -0.54125135102E+03 -0.10236137956E+04 -0.13726212837E+03  0.11660099140E+04  0.00000000000E+00 0.  1.
        -11    1    3    3    0    0 -0.33516421178E+03 -0.79120819423E+03 -0.75951787404E+02  0.86262050143E+03  0.00000000000E+00 0. -1.
          2    1    6    6  502    0  0.35022366458E+03  0.35974879091E+03  0.14753704223E+03  0.52330009232E+03  0.00000000000E+00 0. -1.
          1    1    5    5  503    0  0.10428865771E+02  0.63589956463E+03  0.12583431108E+03  0.64831419187E+03  0.00000000000E+00 0. -1.
         -2    1    5    5    0  503  0.11391787249E+02  0.39343956669E+03  0.14605335655E+02  0.39387533724E+03  0.00000000000E+00 0.  1.
         -1    1    6    6    0  502  0.50437124520E+03  0.42573406761E+03  0.26156156674E+03  0.70996781793E+03  0.00000000000E+00 0.  1.
<mgrwt>
<rscale>  0 0.42909274E+04</rscale>
<asrwt>0</asrwt>
<pdfrwt beam="1">  1        2 0.30521258E+00 0.42909274E+04</pdfrwt>
<pdfrwt beam="2">  1       -2 0.35695479E+00 0.42909274E+04</pdfrwt>
<totfact> 0.73888025E-02</totfact>
</mgrwt>
</event>
<event>
12    1  0.2083715E-007  0.1347239E+04  0.7818608E-02  0.8992920E-01
          2   -1    0    0  501    0  0.00000000000E+00  0.00000000000E+00  0.13095569041E+04  0.13095569041E+04  0.00000000000E+00 0. -1.
         -2   -1    0    0    0  501 -0.00000000000E+00 -0.00000000000E+00 -0.34650159807E+03  0.34650159807E+03  0.00000000000E+00 0.  1.
         23    2    1    2    0    0 -0.33902160281E+03 -0.68557826428E+02  0.12987440725E+03  0.38044590088E+03  0.90751854541E+02 0.  0.
        254    2    1    2    0    0  0.33902160281E+03  0.68557826428E+02  0.83318089879E+03  0.12756126013E+04  0.90186544214E+03 0.  0.
        -24    2    4    4    0    0  0.19948539199E+03  0.24761745057E+03 -0.74838631846E+02  0.33632607537E+03  0.80034896871E+02 0.  0.
         24    2    4    4    0    0  0.13953621082E+03 -0.17905962414E+03  0.90801953064E+03  0.93928652592E+03  0.78911384654E+02 0.  0.
         13    1    3    3    0    0 -0.26402793690E+03 -0.24803630026E+02  0.12582615187E+03  0.29352715721E+03  0.00000000000E+00 0. -1.
        -13    1    3    3    0    0 -0.74993665905E+02 -0.43754196402E+02  0.40482553766E+01  0.86918743665E+02  0.00000000000E+00 0.  1.
          4    1    6    6  502    0  0.10218212585E+03 -0.13045533716E+03  0.77919768934E+03  0.79662338712E+03  0.00000000000E+00 0. -1.
          3    1    5    5  503    0  0.19110016244E+03  0.21006708852E+03 -0.85181417790E+02  0.29648495359E+03  0.00000000000E+00 0. -1.
         -4    1    5    5    0  503  0.83852295446E+01  0.37550362041E+02  0.10342785944E+02  0.39841121784E+02  0.00000000000E+00 0.  1.
         -3    1    6    6    0  502  0.37354084966E+02 -0.48604286975E+02  0.12882184130E+03  0.14266313880E+03  0.00000000000E+00 0.  1.
<mgrwt>
<rscale>  0 0.13472395E+04</rscale>
<asrwt>0</asrwt>
<pdfrwt beam="1">  1        2 0.20147029E+00 0.13472395E+04</pdfrwt>
<pdfrwt beam="2">  1       -2 0.53307939E-01 0.13472395E+04</pdfrwt>
<totfact> 0.52882878E+01</totfact>
</mgrwt>
</event>
<event>
12    1  0.2083715E-007  0.1531880E+04  0.7818608E-02  0.8863526E-01
          2   -1    0    0  501    0  0.00000000000E+00  0.00000000000E+00  0.17908652815E+04  0.17908652815E+04  0.00000000000E+00 0. -1.
         -2   -1    0    0    0  501 -0.00000000000E+00 -0.00000000000E+00 -0.32758689118E+03  0.32758689118E+03  0.00000000000E+00 0.  1.
         23    2    1    2    0    0  0.13496242418E+03  0.26491331191E+03  0.10342282542E+04  0.10799631551E+04  0.91095641678E+02 0.  0.
        254    2    1    2    0    0 -0.13496242418E+03 -0.26491331191E+03  0.42905013616E+03  0.10384890176E+04  0.89776472502E+03 0.  0.
        -24    2    4    4    0    0  0.21102469508E+03 -0.32315230814E+02  0.55177161121E+03  0.59670656340E+03  0.77660258732E+02 0.  0.
         24    2    4    4    0    0 -0.34598711926E+03 -0.23259808109E+03 -0.12272147505E+03  0.44178245417E+03  0.79386537556E+02 0.  0.
         11    1    3    3    0    0  0.13381892937E+02  0.10634138188E+03  0.28305119613E+03  0.30266407813E+03  0.00000000000E+00 0.  1.
        -11    1    3    3    0    0  0.12158053125E+03  0.15857193003E+03  0.75117705802E+03  0.77729907698E+03  0.00000000000E+00 0. -1.
          4    1    6    6  502    0 -0.19428156763E+03 -0.15377728232E+03 -0.36959051916E+02  0.25051696868E+03  0.00000000000E+00 0. -1.
          3    1    5    5  503    0  0.19774066692E+03 -0.69626499001E+01  0.46534166377E+03  0.50566067069E+03  0.00000000000E+00 0. -1.
         -4    1    5    5    0  503  0.13284028159E+02 -0.25352580914E+02  0.86429947449E+02  0.91045892709E+02  0.00000000000E+00 0.  1.
         -3    1    6    6    0  502 -0.15170555164E+03 -0.78820798777E+02 -0.85762423138E+02  0.19126548549E+03  0.00000000000E+00 0.  1.
<mgrwt>
<rscale>  0 0.15318799E+04</rscale>
<asrwt>0</asrwt>
<pdfrwt beam="1">  1        2 0.27551773E+00 0.15318799E+04</pdfrwt>
<pdfrwt beam="2">  1       -2 0.50397984E-01 0.15318799E+04</pdfrwt>
<totfact> 0.31330209E+01</totfact>
</mgrwt>
</event>
<event>
12    1  0.2083715E-007  0.1634403E+04  0.7818608E-02  0.8799687E-01
         -1   -1    0    0    0  501 -0.00000000000E+00  0.00000000000E+00  0.11512054799E+04  0.11512054799E+04  0.00000000000E+00 0.  1.
          1   -1    0    0  501    0  0.00000000000E+00 -0.00000000000E+00 -0.58010362260E+03  0.58010362260E+03  0.00000000000E+00 0. -1.
         23    2    1    2    0    0 -0.57479155460E+02  0.26936230044E+03  0.72640999888E+03  0.78223956819E+03  0.91473238483E+02 0.  0.
        254    2    1    2    0    0  0.57479155460E+02 -0.26936230044E+03 -0.15530814159E+03  0.94906953431E+03  0.89484773001E+03 0.  0.
        -24    2    4    4    0    0  0.46607299069E+03 -0.19920707772E+03 -0.10402679288E+03  0.52369924314E+03  0.80819744890E+02 0.  0.
         24    2    4    4    0    0 -0.40859383523E+03 -0.70155222720E+02 -0.51281348701E+02  0.42537029117E+03  0.80246061733E+02 0.  0.
         13    1    3    3    0    0 -0.24822463023E+02  0.91313864589E+02  0.14368287475E+03  0.17204402063E+03  0.00000000000E+00 0. -1.
        -13    1    3    3    0    0 -0.32656692437E+02  0.17804843585E+03  0.58272712413E+03  0.61019554757E+03  0.00000000000E+00 0.  1.
          4    1    6    6  502    0 -0.83607129204E+01  0.53094833104E+01  0.93213720605E+01  0.13600739342E+02  0.00000000000E+00 0. -1.
          1    1    5    5  503    0  0.75957612622E+02 -0.31148737604E+02 -0.48389906689E+02  0.95296305484E+02  0.00000000000E+00 0. -1.
         -2    1    5    5    0  503  0.39011537807E+03 -0.16805834011E+03 -0.55636886196E+02  0.42840293766E+03  0.00000000000E+00 0.  1.
         -3    1    6    6    0  502 -0.40023312231E+03 -0.75464706030E+02 -0.60602720761E+02  0.41176955183E+03  0.00000000000E+00 0.  1.
<mgrwt>
<rscale>  0 0.16344032E+04</rscale>
<asrwt>0</asrwt>
<pdfrwt beam="1">  1        1 0.89246712E-01 0.16344032E+04</pdfrwt>
<pdfrwt beam="2">  1       -1 0.17710853E+00 0.16344032E+04</pdfrwt>
<totfact> 0.75108635E+00</totfact>
</mgrwt>
</event>
<event>
12    1  0.2083715E-007  0.2411983E+04  0.7818608E-02  0.8435031E-01
         -2   -1    0    0    0  501 -0.00000000000E+00  0.00000000000E+00  0.40727149491E+03  0.40727149491E+03  0.00000000000E+00 0. -1.
          2   -1    0    0  501    0  0.00000000000E+00 -0.00000000000E+00 -0.35711208844E+04  0.35711208844E+04  0.00000000000E+00 0.  1.
         23    2    1    2    0    0  0.84583195454E+02  0.55436710006E+03 -0.28010655577E+04  0.28581191635E+04  0.91649854547E+02 0.  0.
        254    2    1    2    0    0 -0.84583195454E+02 -0.55436710006E+03 -0.36278383182E+03  0.11202732158E+04  0.89940134025E+03 0.  0.
        -24    2    4    4    0    0  0.16140762140E+03  0.65614229210E+02  0.17536500239E+03  0.25952091531E+03  0.78997304400E+02 0.  0.
         24    2    4    4    0    0 -0.24599081686E+03 -0.61998132927E+03 -0.53814883420E+03  0.86075230049E+03  0.80012651651E+02 0.  0.
         13    1    3    3    0    0  0.95002513650E+02  0.36813512913E+03 -0.19742927042E+04  0.20105672415E+04  0.00000000000E+00 0. -1.
        -13    1    3    3    0    0 -0.10419318196E+02  0.18623197093E+03 -0.82677285351E+03  0.84755192201E+03  0.00000000000E+00 0.  1.
          4    1    6    6  502    0 -0.50463214672E+02 -0.75605049088E+02 -0.99812682089E+02  0.13500085551E+03  0.00000000000E+00 0. -1.
          3    1    5    5  503    0  0.75860425615E+02 -0.97970726737E+01  0.59094117847E+02  0.96658685961E+02  0.00000000000E+00 0. -1.
         -4    1    5    5    0  503  0.85547195787E+02  0.75411301884E+02  0.11627088454E+03  0.16286222935E+03  0.00000000000E+00 0.  1.
         -3    1    6    6    0  502 -0.19552760218E+03 -0.54437628018E+03 -0.43833615211E+03  0.72575144498E+03  0.00000000000E+00 0.  1.
<mgrwt>
<rscale>  0 0.24119832E+04</rscale>
<asrwt>0</asrwt>
<pdfrwt beam="1">  1        2 0.54940325E+00 0.24119832E+04</pdfrwt>
<pdfrwt beam="2">  1       -2 0.62657149E-01 0.24119832E+04</pdfrwt>
<totfact> 0.15397360E+00</totfact>
</mgrwt>
</event>
<event>
12    1  0.2083715E-007  0.2165043E+04  0.7818608E-02  0.8533120E-01
         -2   -1    0    0    0  501 -0.00000000000E+00  0.00000000000E+00  0.60717740682E+03  0.60717740682E+03  0.00000000000E+00 0.  1.
          2   -1    0    0  501    0  0.00000000000E+00 -0.00000000000E+00 -0.19300012901E+04  0.19300012901E+04  0.00000000000E+00 0. -1.
         23    2    1    2    0    0  0.50845600392E+03 -0.44667839537E+03  0.13294334221E+03  0.69612988051E+03  0.94200750957E+02 0.  0.
        254    2    1    2    0    0 -0.50845600392E+03  0.44667839537E+03 -0.14557672254E+04  0.18410488164E+04  0.90119555745E+03 0.  0.
        -24    2    4    4    0    0 -0.49009622494E+02  0.49833088856E+03 -0.12092095249E+04  0.13110841909E+04  0.77578754038E+02 0.  0.
         24    2    4    4    0    0 -0.45944638143E+03 -0.51652493192E+02 -0.24655770057E+03  0.52996462544E+03  0.79453426897E+02 0.  0.
         11    1    3    3    0    0  0.43013445713E+03 -0.33587753691E+03  0.12695843625E+03  0.56031046354E+03  0.00000000000E+00 0.  1.
        -11    1    3    3    0    0  0.78321546795E+02 -0.11080085846E+03  0.59849059618E+01  0.13581941697E+03  0.00000000000E+00 0. -1.
          2    1    6    6  502    0 -0.18360574192E+03 -0.47611374784E+02 -0.68730475965E+02  0.20174684583E+03  0.00000000000E+00 0. -1.
          3    1    5    5  503    0 -0.51038462124E+02  0.35371252899E+03 -0.93694801022E+03  0.10027906320E+04  0.00000000000E+00 0. -1.
         -4    1    5    5    0  503  0.20288396300E+01  0.14461835957E+03 -0.27226151466E+03  0.30829355893E+03  0.00000000000E+00 0.  1.
         -1    1    6    6    0  502 -0.27584063951E+03 -0.40411184085E+01 -0.17782722461E+03  0.32821777961E+03  0.00000000000E+00 0.  1.
<mgrwt>
<rscale>  0 0.21650434E+04</rscale>
<asrwt>0</asrwt>
<pdfrwt beam="1">  1        2 0.29692328E+00 0.21650434E+04</pdfrwt>
<pdfrwt beam="2">  1       -2 0.93411908E-01 0.21650434E+04</pdfrwt>
<totfact> 0.64933928E+00</totfact>
</mgrwt>
</event>
<event>
12    1  0.2083715E-007  0.1511399E+04  0.7818608E-02  0.8876908E-01
         -2   -1    0    0    0  501 -0.00000000000E+00  0.00000000000E+00  0.65954755510E+03  0.65954755510E+03  0.00000000000E+00 0.  1.
          2   -1    0    0  501    0  0.00000000000E+00 -0.00000000000E+00 -0.86586852894E+03  0.86586852894E+03  0.00000000000E+00 0. -1.
         23    2    1    2    0    0 -0.45163486542E+03  0.16744184550E+03 -0.95041338644E+02  0.49938912749E+03  0.91355466840E+02 0.  0.
        254    2    1    2    0    0  0.45163486542E+03 -0.16744184550E+03 -0.11127963519E+03  0.10260269565E+04  0.89907582276E+03 0.  0.
        -24    2    4    4    0    0  0.13851416632E+03 -0.26414392371E+03 -0.45182149478E+03  0.54715541969E+03  0.79235114957E+02 0.  0.
         24    2    4    4    0    0  0.31312069910E+03  0.96702078217E+02  0.34054185960E+03  0.47887153686E+03  0.77157802817E+02 0.  0.
         11    1    3    3    0    0 -0.31385832012E+03  0.88437526349E+02 -0.98170867753E+02  0.34053745822E+03  0.00000000000E+00 0. -1.
        -11    1    3    3    0    0 -0.13777654530E+03  0.79004319147E+02  0.31295291091E+01  0.15885166927E+03  0.00000000000E+00 0.  1.
          4    1    6    6  502    0  0.25462124882E+03  0.10063599735E+03  0.30689536819E+03  0.41127162719E+03  0.00000000000E+00 0. -1.
          1    1    5    5  503    0  0.11915080932E+03 -0.24044706079E+03 -0.43779031667E+03  0.51349008343E+03  0.00000000000E+00 0. -1.
         -2    1    5    5    0  503  0.19363357002E+02 -0.23696862918E+02 -0.14031178112E+02  0.33665336264E+02  0.00000000000E+00 0.  1.
         -3    1    6    6    0  502  0.58499450281E+02 -0.39339191382E+01  0.33646491409E+02  0.67599909668E+02  0.00000000000E+00 0.  1.
<mgrwt>
<rscale>  0 0.15113987E+04</rscale>
<asrwt>0</asrwt>
<pdfrwt beam="1">  1        2 0.13321054E+00 0.15113987E+04</pdfrwt>
<pdfrwt beam="2">  1       -2 0.10146885E+00 0.15113987E+04</pdfrwt>
<totfact> 0.23836479E+01</totfact>
</mgrwt>
</event>
<event>
12    1  0.2083715E-007  0.2337614E+04  0.7818608E-02  0.8463236E-01
          1   -1    0    0  501    0  0.00000000000E+00  0.00000000000E+00  0.15176490642E+04  0.15176490642E+04  0.00000000000E+00 0. -1.
         -1   -1    0    0    0  501 -0.00000000000E+00 -0.00000000000E+00 -0.90014906424E+03  0.90014906424E+03  0.00000000000E+00 0.  1.
         23    2    1    2    0    0  0.57929708950E+03 -0.66211841611E+03 -0.21386400962E+03  0.90987412395E+03  0.90261796777E+02 0.  0.
        254    2    1    2    0    0 -0.57929708950E+03  0.66211841611E+03  0.83136400954E+03  0.15079240045E+04  0.89926790891E+03 0.  0.
        -24    2    4    4    0    0 -0.78543851818E+03  0.44254550521E+03  0.77605862097E+03  0.11922181279E+04  0.79730115318E+02 0.  0.
         24    2    4    4    0    0  0.20614142868E+03  0.21957291090E+03  0.55305388572E+02  0.31570587656E+03  0.76843754905E+02 0.  0.
         11    1    3    3    0    0  0.46279863046E+03 -0.48904761247E+03 -0.19171170153E+03  0.70007393618E+03  0.00000000000E+00 0.  1.
        -11    1    3    3    0    0  0.11649845904E+03 -0.17307080365E+03 -0.22152308093E+02  0.20980018777E+03  0.00000000000E+00 0. -1.
          4    1    6    6  502    0  0.20817036517E+03  0.22240216256E+03  0.49055314590E+02  0.30855153012E+03  0.00000000000E+00 0. -1.
          1    1    5    5  503    0 -0.65798097127E+03  0.36548775904E+03  0.68454474016E+03  0.10174093384E+04  0.00000000000E+00 0. -1.
         -2    1    5    5    0  503 -0.12745754691E+03  0.77057746176E+02  0.91513880814E+02  0.17480878952E+03  0.00000000000E+00 0.  1.
         -3    1    6    6    0  502 -0.20289364867E+01 -0.28292516622E+01  0.62500739827E+01  0.71543464429E+01  0.00000000000E+00 0.  1.
<mgrwt>
<rscale>  0 0.23376145E+04</rscale>
<asrwt>0</asrwt>
<pdfrwt beam="1">  1        1 0.23348447E+00 0.23376145E+04</pdfrwt>
<pdfrwt beam="2">  1       -1 0.13848447E+00 0.23376145E+04</pdfrwt>
<totfact> 0.24711533E+00</totfact>
</mgrwt>
</event>
<event>
12    1  0.2083715E-007  0.1828849E+04  0.7818608E-02  0.8691106E-01
         -1   -1    0    0    0  501 -0.00000000000E+00  0.00000000000E+00  0.11056368909E+04  0.11056368909E+04  0.00000000000E+00 0.  1.
          1   -1    0    0  501    0  0.00000000000E+00 -0.00000000000E+00 -0.75628139645E+03  0.75628139645E+03  0.00000000000E+00 0. -1.
         23    2    1    2    0    0  0.62421234166E+03 -0.19725728297E+03  0.35231373592E+03  0.74894035620E+03  0.90748032851E+02 0.  0.
        254    2    1    2    0    0 -0.62421234166E+03  0.19725728297E+03 -0.29582414235E+01  0.11129779312E+04  0.90008868506E+03 0.  0.
        -24    2    4    4    0    0 -0.80859848982E+03  0.28511546720E+02 -0.12678961096E+03  0.82281930927E+03  0.79445479641E+02 0.  0.
         24    2    4    4    0    0  0.18438614816E+03  0.16874573625E+03  0.12383136953E+03  0.29015862192E+03  0.79902707471E+02 0.  0.
         11    1    3    3    0    0  0.33329676990E+03 -0.11714655393E+03  0.23941727760E+03  0.42676771754E+03  0.00000000000E+00 0.  1.
        -11    1    3    3    0    0  0.29091557176E+03 -0.80110729042E+02  0.11289645832E+03  0.32217263866E+03  0.00000000000E+00 0. -1.
          4    1    6    6  502    0  0.98446876856E+02  0.70856023949E+02  0.10115404588E+03  0.15793829393E+03  0.00000000000E+00 0. -1.
          3    1    5    5  503    0 -0.34030756641E+03  0.49416101361E+02 -0.65724600031E+02  0.35010129088E+03  0.00000000000E+00 0. -1.
         -4    1    5    5    0  503 -0.46829092341E+03 -0.20904554640E+02 -0.61065010925E+02  0.47271801839E+03  0.00000000000E+00 0.  1.
         -3    1    6    6    0  502  0.85939271303E+02  0.97889712300E+02  0.22677323655E+02  0.13222032799E+03  0.00000000000E+00 0.  1.
<mgrwt>
<rscale>  0 0.18288495E+04</rscale>
<asrwt>0</asrwt>
<pdfrwt beam="1">  1        1 0.11635098E+00 0.18288495E+04</pdfrwt>
<pdfrwt beam="2">  1       -1 0.17009798E+00 0.18288495E+04</pdfrwt>
<totfact> 0.55897835E+00</totfact>
</mgrwt>
</event>
<event>
12    1  0.3082938E-007  0.2289716E+04  0.7818608E-02  0.8481987E-01
          1   -1    0    0  501    0  0.00000000000E+00  0.00000000000E+00  0.62293336289E+03  0.62293336289E+03  0.00000000000E+00 0. -1.
         -1   -1    0    0    0  501 -0.00000000000E+00 -0.00000000000E+00 -0.21040772215E+04  0.21040772215E+04  0.00000000000E+00 0.  1.
         23    2    1    2    0    0 -0.60444310157E+03 -0.62129726224E+03 -0.11330379245E+04  0.14294207780E+04  0.90039275494E+02 0.  0.
        254    2    1    2    0    0  0.60444310157E+03  0.62129726224E+03 -0.34810593411E+03  0.12975898064E+04  0.90066631624E+03 0.  0.
        -24    2    4    4    0    0 -0.60733736976E+02 -0.17618108401E+03 -0.10467081067E+02  0.20266751525E+03  0.78969619352E+02 0.  0.
         24    2    4    4    0    0  0.66517683854E+03  0.79747834625E+03 -0.33763885304E+03  0.10949222911E+04  0.80142930490E+02 0.  0.
         11    1    3    3    0    0 -0.32266898106E+03 -0.27164353906E+03 -0.57590140848E+03  0.71384025939E+03  0.00000000000E+00 0. -1.
        -11    1    3    3    0    0 -0.28177412051E+03 -0.34965372318E+03 -0.55713651606E+03  0.71558051864E+03  0.00000000000E+00 0.  1.
          4    1    6    6  502    0  0.57016511793E+03  0.63908319245E+03 -0.28928727330E+03  0.90399265211E+03  0.00000000000E+00 0. -1.
          1    1    5    5  503    0 -0.74793357908E+02 -0.12558293961E+03  0.95190138572E+01  0.14647775508E+03  0.00000000000E+00 0. -1.
         -2    1    5    5    0  503  0.14059620932E+02 -0.50598144397E+02 -0.19986094924E+02  0.56189760166E+02  0.00000000000E+00 0.  1.
         -3    1    6    6    0  502  0.95011720615E+02  0.15839515380E+03 -0.48351579738E+02  0.19092963904E+03  0.00000000000E+00 0.  1.
<mgrwt>
<rscale>  0 0.22897161E+04</rscale>
<asrwt>0</asrwt>
<pdfrwt beam="1">  1        1 0.95835903E-01 0.22897161E+04</pdfrwt>
<pdfrwt beam="2">  1       -1 0.32370419E+00 0.22897161E+04</pdfrwt>
<totfact> 0.67943020E-01</totfact>
</mgrwt>
</event>
<event>
12    1  0.2083715E-007  0.1266062E+04  0.7818608E-02  0.9056920E-01
         -2   -1    0    0    0  501 -0.00000000000E+00  0.00000000000E+00  0.15957443574E+03  0.15957443574E+03  0.00000000000E+00 0. -1.
          2   -1    0    0  501    0  0.00000000000E+00 -0.00000000000E+00 -0.25112316366E+04  0.25112316366E+04  0.00000000000E+00 0.  1.
         23    2    1    2    0    0 -0.83100577662E+02  0.28362334919E+03 -0.72193144270E+03  0.78546971314E+03  0.91813681377E+02 0.  0.
        254    2    1    2    0    0  0.83100577662E+02 -0.28362334919E+03 -0.16297257582E+04  0.18853363592E+04  0.90063268332E+03 0.  0.
        -24    2    4    4    0    0 -0.10994604103E+02  0.19538178756E+03 -0.12340922615E+04  0.12520681245E+04  0.79974709307E+02 0.  0.
         24    2    4    4    0    0  0.94095181765E+02 -0.47900513675E+03 -0.39563349662E+03  0.63326823470E+03  0.78758930746E+02 0.  0.
         11    1    3    3    0    0 -0.10041838992E+03  0.19926673370E+03 -0.50725440689E+03  0.55416434160E+03  0.00000000000E+00 0.  1.
        -11    1    3    3    0    0  0.17317812258E+02  0.84356615485E+02 -0.21467703581E+03  0.23130537154E+03  0.00000000000E+00 0. -1.
          4    1    6    6  502    0  0.10149738658E+03 -0.42159253631E+03 -0.32480691575E+03  0.54179472005E+03  0.00000000000E+00 0. -1.
          1    1    5    5  503    0 -0.71206640712E+01  0.17743505048E+03 -0.89316323283E+03  0.91064507986E+03  0.00000000000E+00 0. -1.
         -2    1    5    5    0  503 -0.38739400318E+01  0.17946737081E+02 -0.34092902870E+03  0.34142304462E+03  0.00000000000E+00 0.  1.
         -3    1    6    6    0  502 -0.74022048165E+01 -0.57412600442E+02 -0.70826580866E+02  0.91473514652E+02  0.00000000000E+00 0.  1.
<mgrwt>
<rscale>  0 0.12660622E+04</rscale>
<asrwt>0</asrwt>
<pdfrwt beam="1">  1        2 0.38634330E+00 0.12660622E+04</pdfrwt>
<pdfrwt beam="2">  1       -2 0.24549915E-01 0.12660622E+04</pdfrwt>
<totfact> 0.50219881E+01</totfact>
</mgrwt>
</event>
<event>
12    1  0.2083715E-007  0.1967317E+04  0.7818608E-02  0.8622055E-01
         -1   -1    0    0    0  501 -0.00000000000E+00  0.00000000000E+00  0.15067633273E+04  0.15067633273E+04  0.00000000000E+00 0.  1.
          1   -1    0    0  501    0  0.00000000000E+00 -0.00000000000E+00 -0.64216074483E+03  0.64216074483E+03  0.00000000000E+00 0. -1.
         23    2    1    2    0    0 -0.15107022114E+03 -0.71568978731E+03  0.64581460318E+02  0.73987861902E+03  0.90639519460E+02 0.  0.
        254    2    1    2    0    0  0.15107022114E+03  0.71568978731E+03  0.80002112211E+03  0.14090454531E+04  0.90018954095E+03 0.  0.
        -24    2    4    4    0    0  0.19871074701E+03  0.30846825584E+03 -0.12327290327E+03  0.39571948812E+03  0.82213616631E+02 0.  0.
         24    2    4    4    0    0 -0.47640525875E+02  0.40722153148E+03  0.92329402538E+03  0.10133259650E+04  0.79111684014E+02 0.  0.
         13    1    3    3    0    0 -0.28317248348E+02 -0.19057555595E+03  0.55610846850E+02  0.20053297826E+03  0.00000000000E+00 0.  1.
        -13    1    3    3    0    0 -0.12275297279E+03 -0.52511423136E+03  0.89706134676E+01  0.53934564076E+03  0.00000000000E+00 0. -1.
          2    1    6    6  502    0  0.61177094537E+01  0.22522311058E+03  0.44572255139E+03  0.49943114513E+03  0.00000000000E+00 0. -1.
          3    1    5    5  503    0  0.62538590460E+02  0.71874850160E+02 -0.68380321355E+02  0.11727291985E+03  0.00000000000E+00 0. -1.
         -4    1    5    5    0  503  0.13617215655E+03  0.23659340568E+03 -0.54892581912E+02  0.27844656827E+03  0.00000000000E+00 0.  1.
         -1    1    6    6    0  502 -0.53758235329E+02  0.18199842090E+03  0.47757147400E+03  0.51389481983E+03  0.00000000000E+00 0.  1.
<mgrwt>
<rscale>  0 0.19673172E+04</rscale>
<asrwt>0</asrwt>
<pdfrwt beam="1">  1        1 0.98793961E-01 0.19673172E+04</pdfrwt>
<pdfrwt beam="2">  1       -1 0.23180974E+00 0.19673172E+04</pdfrwt>
<totfact> 0.26483560E+00</totfact>
</mgrwt>
</event>
<event>
12    1  0.2083715E-007  0.2725511E+04  0.7818608E-02  0.8326775E-01
         -4   -1    0    0    0  501 -0.00000000000E+00  0.00000000000E+00  0.11671819791E+04  0.11671819791E+04  0.00000000000E+00 0.  1.
          4   -1    0    0  501    0  0.00000000000E+00 -0.00000000000E+00 -0.15910996443E+04  0.15910996443E+04  0.00000000000E+00 0. -1.
         23    2    1    2    0    0 -0.52259557984E+03 -0.89238657181E+03  0.45059431644E+03  0.11320123270E+04  0.94640038854E+02 0.  0.
        254    2    1    2    0    0  0.52259557984E+03  0.89238657181E+03 -0.87451198162E+03  0.16262692963E+04  0.90028922267E+03 0.  0.
        -24    2    4    4    0    0  0.21001636376E+03  0.90009139905E+03 -0.31399395832E+03  0.97946015159E+03  0.80489645257E+02 0.  0.
         24    2    4    4    0    0  0.31257921608E+03 -0.77048272416E+01 -0.56051802329E+03  0.64680914470E+03  0.80102962164E+02 0.  0.
         11    1    3    3    0    0 -0.42223709231E+03 -0.66755227993E+03  0.37555629240E+03  0.87461576553E+03  0.00000000000E+00 0.  1.
        -11    1    3    3    0    0 -0.10035848753E+03 -0.22483429188E+03  0.75038024042E+02  0.25739656151E+03  0.00000000000E+00 0. -1.
          4    1    6    6  502    0  0.15625327492E+03  0.22037107890E+02 -0.21787288566E+03  0.26901545374E+03  0.00000000000E+00 0. -1.
          1    1    5    5  503    0  0.11736822177E+03  0.47664991114E+03 -0.12474797133E+03  0.50649036874E+03  0.00000000000E+00 0. -1.
         -2    1    5    5    0  503  0.92648141990E+02  0.42344148791E+03 -0.18924598699E+03  0.47296978285E+03  0.00000000000E+00 0.  1.
         -3    1    6    6    0  502  0.15632594116E+03 -0.29741935131E+02 -0.34264513763E+03  0.37779369096E+03  0.00000000000E+00 0.  1.
<mgrwt>
<rscale>  0 0.27255112E+04</rscale>
<asrwt>0</asrwt>
<pdfrwt beam="1">  1        4 0.24478456E+00 0.27255112E+04</pdfrwt>
<pdfrwt beam="2">  1       -4 0.17956646E+00 0.27255112E+04</pdfrwt>
<totfact> 0.21469378E-02</totfact>
</mgrwt>
</event>
<event>
12    1  0.2083715E-007  0.2032592E+04  0.7818608E-02  0.8591533E-01
         -1   -1    0    0    0  501 -0.00000000000E+00  0.00000000000E+00  0.12334315104E+04  0.12334315104E+04  0.00000000000E+00 0. -1.
          1   -1    0    0  501    0  0.00000000000E+00 -0.00000000000E+00 -0.83738510540E+03  0.83738510540E+03  0.00000000000E+00 0.  1.
         23    2    1    2    0    0 -0.77416347774E+03  0.21644933620E+03  0.30103566691E+02  0.80952267475E+03  0.90781775685E+02 0.  0.
        254    2    1    2    0    0  0.77416347774E+03 -0.21644933620E+03  0.36594283835E+03  0.12612939411E+04  0.90042703175E+03 0.  0.
        -24    2    4    4    0    0  0.60295163677E+03 -0.23756000550E+03  0.64897621349E+03  0.92051817597E+03  0.78728356546E+02 0.  0.
         24    2    4    4    0    0  0.17121184097E+03  0.21110669302E+02 -0.28303337514E+03  0.34077576512E+03  0.79126960049E+02 0.  0.
         11    1    3    3    0    0 -0.37058966615E+03  0.12744159961E+03  0.53827275796E+02  0.39556976324E+03  0.00000000000E+00 0. -1.
        -11    1    3    3    0    0 -0.40357381158E+03  0.89007736582E+02 -0.23723709105E+02  0.41395291150E+03  0.00000000000E+00 0.  1.
          4    1    6    6  502    0 -0.16709628981E+01  0.27112876202E+01 -0.49650056326E+02  0.49752098355E+02  0.00000000000E+00 0. -1.
          3    1    5    5  503    0  0.37651948942E+03 -0.13530990901E+03  0.45057320962E+03  0.60257108677E+03  0.00000000000E+00 0. -1.
         -4    1    5    5    0  503  0.22643214735E+03 -0.10225009648E+03  0.19840300387E+03  0.31794708920E+03  0.00000000000E+00 0.  1.
         -3    1    6    6    0  502  0.17288280386E+03  0.18399381682E+02 -0.23338331881E+03  0.29102366677E+03  0.00000000000E+00 0.  1.
<mgrwt>
<rscale>  0 0.20325916E+04</rscale>
<asrwt>0</asrwt>
<pdfrwt beam="1">  1        1 0.12882848E+00 0.20325916E+04</pdfrwt>
<pdfrwt beam="2">  1       -1 0.18975869E+00 0.20325916E+04</pdfrwt>
<totfact> 0.33682241E+00</totfact>
</mgrwt>
</event>
<event>
12    1  0.2083715E-007  0.3865570E+04  0.7818608E-02  0.8032228E-01
          1   -1    0    0  501    0  0.00000000000E+00  0.00000000000E+00  0.17130688026E+04  0.17130688026E+04  0.00000000000E+00 0. -1.
         -1   -1    0    0    0  501 -0.00000000000E+00 -0.00000000000E+00 -0.21806813415E+04  0.21806813415E+04  0.00000000000E+00 0.  1.
         23    2    1    2    0    0 -0.14344370937E+04 -0.92620301147E+03 -0.87592181235E+03  0.19212497016E+04  0.92193277227E+02 0.  0.
        254    2    1    2    0    0  0.14344370937E+04  0.92620301147E+03  0.40830927350E+03  0.19725004425E+04  0.89921061968E+03 0.  0.
        -24    2    4    4    0    0  0.10925875203E+04  0.77132063252E+03  0.67968381703E+03  0.15023952577E+04  0.80860444536E+02 0.  0.
         24    2    4    4    0    0  0.34184957336E+03  0.15488237895E+03 -0.27137454353E+03  0.47010518478E+03  0.80653950743E+02 0.  0.
         11    1    3    3    0    0 -0.79087119674E+03 -0.56487940349E+03 -0.49426493506E+03  0.10903503182E+04  0.00000000000E+00 0.  1.
        -11    1    3    3    0    0 -0.64356589696E+03 -0.36132360798E+03 -0.38165687728E+03  0.83089938343E+03  0.00000000000E+00 0. -1.
          2    1    6    6  502    0  0.13502677923E+03  0.79952356005E+02 -0.69826178817E+02  0.17175652997E+03  0.00000000000E+00 0. -1.
          1    1    5    5  503    0  0.34797195325E+03  0.20789383919E+03  0.22909340822E+03  0.46560510984E+03  0.00000000000E+00 0. -1.
         -2    1    5    5    0  503  0.74461556710E+03  0.56342679333E+03  0.45059040881E+03  0.10367901479E+04  0.00000000000E+00 0.  1.
         -1    1    6    6    0  502  0.20682279412E+03  0.74930022944E+02 -0.20154836471E+03  0.29834865480E+03  0.00000000000E+00 0.  1.
<mgrwt>
<rscale>  0 0.38655696E+04</rscale>
<asrwt>0</asrwt>
<pdfrwt beam="1">  1        1 0.26354905E+00 0.38655696E+04</pdfrwt>
<pdfrwt beam="2">  1       -1 0.33548944E+00 0.38655696E+04</pdfrwt>
<totfact> 0.71564868E-02</totfact>
</mgrwt>
</event>
<event>
12    1  0.2083715E-007  0.1896335E+04  0.7818608E-02  0.8656683E-01
         -1   -1    0    0    0  501 -0.00000000000E+00  0.00000000000E+00  0.12597216860E+04  0.12597216860E+04  0.00000000000E+00 0.  1.
          1   -1    0    0  501    0  0.00000000000E+00 -0.00000000000E+00 -0.71366687135E+03  0.71366687135E+03  0.00000000000E+00 0. -1.
         23    2    1    2    0    0 -0.57857937028E+03 -0.41863656618E+03  0.37168628865E+03  0.81024534113E+03  0.91302537749E+02 0.  0.
        254    2    1    2    0    0  0.57857937028E+03  0.41863656618E+03  0.17436852597E+03  0.11631432162E+04  0.90138066112E+03 0.  0.
        -24    2    4    4    0    0 -0.12328808895E+03  0.18572462508E+03 -0.21761628102E+03  0.32224752900E+03  0.82419869805E+02 0.  0.
         24    2    4    4    0    0  0.70186745923E+03  0.23291194110E+03  0.39198480699E+03  0.84089568718E+03  0.81163816883E+02 0.  0.
         13    1    3    3    0    0 -0.25751606009E+03 -0.19060086807E+03  0.11608298089E+03  0.34076160372E+03  0.00000000000E+00 0. -1.
        -13    1    3    3    0    0 -0.32106331019E+03 -0.22803569811E+03  0.25560330776E+03  0.46948373742E+03  0.00000000000E+00 0.  1.
          4    1    6    6  502    0  0.50861674796E+03  0.13955900787E+03  0.25086157759E+03  0.58403702288E+03  0.00000000000E+00 0. -1.
          1    1    5    5  503    0 -0.10437988525E+03  0.15049730158E+03 -0.12605732358E+03  0.22233993581E+03  0.00000000000E+00 0. -1.
         -2    1    5    5    0  503 -0.18908203702E+02  0.35227323504E+02 -0.91558957445E+02  0.99907593190E+02  0.00000000000E+00 0.  1.
         -3    1    6    6    0  502  0.19325071127E+03  0.93352933228E+02  0.14112322940E+03  0.25685866430E+03  0.00000000000E+00 0.  1.
<mgrwt>
<rscale>  0 0.18963350E+04</rscale>
<asrwt>0</asrwt>
<pdfrwt beam="1">  1        1 0.10979490E+00 0.18963350E+04</pdfrwt>
<pdfrwt beam="2">  1       -1 0.19380334E+00 0.18963350E+04</pdfrwt>
<totfact> 0.41133504E+00</totfact>
</mgrwt>
</event>
<event>
12    1  0.2083715E-007  0.1779220E+04  0.7818608E-02  0.8717429E-01
         -2   -1    0    0    0  501 -0.00000000000E+00  0.00000000000E+00  0.46154177886E+03  0.46154177886E+03  0.00000000000E+00 0.  1.
          2   -1    0    0  501    0  0.00000000000E+00 -0.00000000000E+00 -0.17147005970E+04  0.17147005970E+04  0.00000000000E+00 0. -1.
         23    2    1    2    0    0  0.38918591114E+02  0.56812693558E+03 -0.87121032358E+03  0.10447278949E+04  0.90366336574E+02 0.  0.
        254    2    1    2    0    0 -0.38918591114E+02 -0.56812693558E+03 -0.38194849457E+03  0.11315144810E+04  0.90008749378E+03 0.  0.
        -24    2    4    4    0    0 -0.17747087020E+03 -0.16913038024E+03 -0.59711850140E+03  0.65007437571E+03  0.77105083834E+02 0.  0.
         24    2    4    4    0    0  0.13855227909E+03 -0.39899655535E+03  0.21517000683E+03  0.48144010526E+03  0.84210794368E+02 0.  0.
         13    1    3    3    0    0  0.27886394795E+02  0.54758517129E+03 -0.85710872217E+03  0.10174785169E+04  0.00000000000E+00 0. -1.
        -13    1    3    3    0    0  0.11032196319E+02  0.20541764299E+02 -0.14101601405E+02  0.27249377944E+02  0.00000000000E+00 0.  1.
          2    1    6    6  502    0  0.18651983161E+02 -0.11903193908E+03  0.27107255642E+02  0.12349616312E+03  0.00000000000E+00 0. -1.
          3    1    5    5  503    0  0.64156383255E+01 -0.16282840522E+02 -0.32567591688E+02  0.36972142742E+02  0.00000000000E+00 0. -1.
         -4    1    5    5    0  503 -0.18388650852E+03 -0.15284753971E+03 -0.56455090971E+03  0.61310223297E+03  0.00000000000E+00 0.  1.
         -1    1    6    6    0  502  0.11990029592E+03 -0.27996461626E+03  0.18806275119E+03  0.35794394213E+03  0.00000000000E+00 0.  1.
<mgrwt>
<rscale>  0 0.17792200E+04</rscale>
<asrwt>0</asrwt>
<pdfrwt beam="1">  1        2 0.26380009E+00 0.17792200E+04</pdfrwt>
<pdfrwt beam="2">  1       -2 0.71006428E-01 0.17792200E+04</pdfrwt>
<totfact> 0.16394966E+01</totfact>
</mgrwt>
</event>
<event>
12    1  0.2083715E-007  0.4323745E+04  0.7818608E-02  0.7942242E-01
         -2   -1    0    0    0  501 -0.00000000000E+00  0.00000000000E+00  0.14197228184E+04  0.14197228184E+04  0.00000000000E+00 0.  1.
          2   -1    0    0  501    0  0.00000000000E+00 -0.00000000000E+00 -0.32919762114E+04  0.32919762114E+04  0.00000000000E+00 0. -1.
         23    2    1    2    0    0 -0.19944428706E+04 -0.25405434704E+03 -0.14188000892E+04  0.24624904662E+04  0.92301831228E+02 0.  0.
        254    2    1    2    0    0  0.19944428706E+04  0.25405434704E+03 -0.45345330386E+03  0.22492085636E+04  0.90054055367E+03 0.  0.
        -24    2    4    4    0    0  0.65512055632E+03 -0.10257103009E+03 -0.53876365823E+03  0.85825135025E+03  0.81396199212E+02 0.  0.
         24    2    4    4    0    0  0.13393223142E+04  0.35662537713E+03  0.85310354373E+02  0.13909572134E+04  0.80735320031E+02 0.  0.
         13    1    3    3    0    0 -0.39038646997E+03 -0.26278309054E+02 -0.24205526403E+03  0.46009009586E+03  0.00000000000E+00 0.  1.
        -13    1    3    3    0    0 -0.16040564006E+04 -0.22777603798E+03 -0.11767448251E+04  0.20024003704E+04  0.00000000000E+00 0. -1.
          2    1    6    6  502    0  0.13032889323E+02  0.25678301440E+00 -0.64865768050E+01  0.14560144926E+02  0.00000000000E+00 0. -1.
          1    1    5    5  503    0  0.29358967132E+03 -0.84034103707E+02 -0.26604852038E+03  0.40501659335E+03  0.00000000000E+00 0. -1.
         -2    1    5    5    0  503  0.36153088500E+03 -0.18536926382E+02 -0.27271513785E+03  0.45323475690E+03  0.00000000000E+00 0.  1.
         -1    1    6    6    0  502  0.13262894249E+04  0.35636859411E+03  0.91796931178E+02  0.13763970685E+04  0.00000000000E+00 0.  1.
<mgrwt>
<rscale>  0 0.43237455E+04</rscale>
<asrwt>0</asrwt>
<pdfrwt beam="1">  1        2 0.50645787E+00 0.43237455E+04</pdfrwt>
<pdfrwt beam="2">  1       -2 0.21841890E+00 0.43237455E+04</pdfrwt>
<totfact> 0.87553268E-02</totfact>
</mgrwt>
</event>
<event>
12    1  0.2083715E-007  0.3925252E+04  0.7818608E-02  0.8019798E-01
          2   -1    0    0  501    0  0.00000000000E+00  0.00000000000E+00  0.18865351959E+04  0.18865351959E+04  0.00000000000E+00 0. -1.
         -2   -1    0    0    0  501 -0.00000000000E+00 -0.00000000000E+00 -0.20417853170E+04  0.20417853170E+04  0.00000000000E+00 0.  1.
         23    2    1    2    0    0  0.79523269348E+03 -0.15247539452E+04 -0.77819065163E+03  0.18897048265E+04  0.90188751201E+02 0.  0.
        254    2    1    2    0    0 -0.79523269348E+03  0.15247539452E+04  0.62294053058E+03  0.20386156864E+04  0.90034958879E+03 0.  0.
        -24    2    4    4    0    0 -0.29647689324E+03  0.63894355984E+03  0.72466603180E+03  0.10138739737E+04  0.81560749864E+02 0.  0.
         24    2    4    4    0    0 -0.49875580025E+03  0.88581038537E+03 -0.10172550123E+03  0.10247417128E+04  0.79562008265E+02 0.  0.
         13    1    3    3    0    0  0.34119363909E+03 -0.65045555716E+03 -0.28361610243E+03  0.78736498827E+03  0.00000000000E+00 0. -1.
        -13    1    3    3    0    0  0.45403905439E+03 -0.87429838805E+03 -0.49457454920E+03  0.11023398382E+04  0.00000000000E+00 0.  1.
          2    1    6    6  502    0 -0.46623473652E+03  0.78553196685E+03 -0.10340450073E+03  0.91930832220E+03  0.00000000000E+00 0. -1.
          3    1    5    5  503    0 -0.24807251124E+03  0.50590232004E+03  0.62020956462E+03  0.83793617436E+03  0.00000000000E+00 0. -1.
         -4    1    5    5    0  503 -0.48404381992E+02  0.13304123979E+03  0.10445646718E+03  0.17593779929E+03  0.00000000000E+00 0.  1.
         -1    1    6    6    0  502 -0.32521063724E+02  0.10027841852E+03  0.16789995066E+01  0.10543339057E+03  0.00000000000E+00 0.  1.
<mgrwt>
<rscale>  0 0.39252515E+04</rscale>
<asrwt>0</asrwt>
<pdfrwt beam="1">  1        2 0.29023618E+00 0.39252515E+04</pdfrwt>
<pdfrwt beam="2">  1       -2 0.31412082E+00 0.39252515E+04</pdfrwt>
<totfact> 0.15958452E-01</totfact>
</mgrwt>
</event>
<event>
12    1  0.2083715E-007  0.1329988E+04  0.7818608E-02  0.9006117E-01
         -2   -1    0    0    0  501 -0.00000000000E+00  0.00000000000E+00  0.11723621202E+03  0.11723621202E+03  0.00000000000E+00 0.  1.
          2   -1    0    0  501    0  0.00000000000E+00 -0.00000000000E+00 -0.37720162215E+04  0.37720162215E+04  0.00000000000E+00 0. -1.
         23    2    1    2    0    0 -0.19373058161E+03  0.15771303951E+03 -0.17267345870E+04  0.17470459053E+04  0.90289091347E+02 0.  0.
        254    2    1    2    0    0  0.19373058161E+03 -0.15771303951E+03 -0.19280454225E+04  0.21422065283E+04  0.89960253309E+03 0.  0.
        -24    2    4    4    0    0  0.69087531677E+01 -0.17451403536E+03 -0.19301272599E+04  0.19396236411E+04  0.79030060911E+02 0.  0.
         24    2    4    4    0    0  0.18682182844E+03  0.16800995843E+02  0.20818373986E+01  0.20258288714E+03  0.76490673091E+02 0.  0.
         13    1    3    3    0    0 -0.17008782707E+03  0.88579916049E+02 -0.11878222438E+04  0.12032032053E+04  0.00000000000E+00 0.  1.
        -13    1    3    3    0    0 -0.23642754536E+02  0.69133123464E+02 -0.53891234324E+03  0.54384269996E+03  0.00000000000E+00 0. -1.
          4    1    6    6  502    0  0.29386015313E+02  0.32005826596E+02 -0.76373925344E+01  0.44116216937E+02  0.00000000000E+00 0. -1.
          3    1    5    5  503    0 -0.13802974019E+02 -0.22100423856E+02 -0.11153438364E+03  0.11453763382E+03  0.00000000000E+00 0. -1.
         -4    1    5    5    0  503  0.20711727186E+02 -0.15241361150E+03 -0.18185928762E+04  0.18250860073E+04  0.00000000000E+00 0.  1.
         -3    1    6    6    0  502  0.15743581313E+03 -0.15204830753E+02  0.97192299330E+01  0.15846667020E+03  0.00000000000E+00 0.  1.
<mgrwt>
<rscale>  0 0.13299878E+04</rscale>
<asrwt>0</asrwt>
<pdfrwt beam="1">  1        2 0.58031022E+00 0.13299878E+04</pdfrwt>
<pdfrwt beam="2">  1       -2 0.18036339E-01 0.13299878E+04</pdfrwt>
<totfact> 0.13254061E+01</totfact>
</mgrwt>
</event>
<event>
12    1  0.2124012E-007  0.1936362E+04  0.7818608E-02  0.8636965E-01
         -1   -1    0    0    0  501 -0.00000000000E+00  0.00000000000E+00  0.40804910092E+03  0.40804910092E+03  0.00000000000E+00 0.  1.
          1   -1    0    0  501    0  0.00000000000E+00 -0.00000000000E+00 -0.22972097357E+04  0.22972097357E+04  0.00000000000E+00 0. -1.
         23    2    1    2    0    0  0.14476201626E+03 -0.74127696904E+03 -0.69644685088E+03  0.10313509712E+04  0.90548459657E+02 0.  0.
        254    2    1    2    0    0 -0.14476201626E+03  0.74127696904E+03 -0.11927137839E+04  0.16739078654E+04  0.89941858186E+03 0.  0.
        -24    2    4    4    0    0 -0.47976720207E+03  0.64919795775E+03 -0.73998214071E+03  0.10976519470E+04  0.75044464491E+02 0.  0.
         24    2    4    4    0    0  0.33500518581E+03  0.92079011289E+02 -0.45273164320E+03  0.57625591841E+03  0.79987023418E+02 0.  0.
         13    1    3    3    0    0  0.35164725397E+02 -0.40784516385E+03 -0.39048420782E+03  0.56573151949E+03  0.00000000000E+00 0. -1.
        -13    1    3    3    0    0  0.10959729087E+03 -0.33343180519E+03 -0.30596264307E+03  0.46561945173E+03  0.00000000000E+00 0.  1.
          2    1    6    6  502    0  0.32078500458E+03  0.88363438107E+02 -0.39393907721E+03  0.51565406321E+03  0.00000000000E+00 0. -1.
          3    1    5    5  503    0 -0.40089753524E+03  0.53186361079E+03 -0.64622220122E+03  0.92800908810E+03  0.00000000000E+00 0. -1.
         -2    1    5    5    0  503 -0.78869666832E+02  0.11733434696E+03 -0.93759939491E+02  0.16964285890E+03  0.00000000000E+00 0.  1.
         -1    1    6    6    0  502  0.14220181235E+02  0.37155731819E+01 -0.58792565990E+02  0.60601855204E+02  0.00000000000E+00 0.  1.
<mgrwt>
<rscale>  0 0.19363619E+04</rscale>
<asrwt>0</asrwt>
<pdfrwt beam="1">  1        1 0.35341687E+00 0.19363619E+04</pdfrwt>
<pdfrwt beam="2">  1       -1 0.62776786E-01 0.19363619E+04</pdfrwt>
<totfact> 0.44887745E+00</totfact>
</mgrwt>
</event>
<event>
12    1  0.2083715E-007  0.1806375E+04  0.7818608E-02  0.8702917E-01
          1   -1    0    0  501    0  0.00000000000E+00  0.00000000000E+00  0.14319886886E+04  0.14319886886E+04  0.00000000000E+00 0. -1.
         -1   -1    0    0    0  501 -0.00000000000E+00 -0.00000000000E+00 -0.56966060890E+03  0.56966060890E+03  0.00000000000E+00 0.  1.
         23    2    1    2    0    0  0.53376806949E+03  0.41339813075E+03  0.31736810992E+03  0.75161914471E+03  0.91664905942E+02 0.  0.
        254    2    1    2    0    0 -0.53376806949E+03 -0.41339813075E+03  0.54495996979E+03  0.12500301528E+04  0.89988201878E+03 0.  0.
        -24    2    4    4    0    0 -0.93260401600E+02 -0.36009694939E+03  0.68013581561E+03  0.77940905317E+03  0.80786317013E+02 0.  0.
         24    2    4    4    0    0 -0.44050766789E+03 -0.53301181359E+02 -0.13517584582E+03  0.47062109963E+03  0.79521624254E+02 0.  0.
         11    1    3    3    0    0  0.21789785371E+03  0.17982928942E+03  0.18216370040E+03  0.33615719794E+03  0.00000000000E+00 0.  1.
        -11    1    3    3    0    0  0.31587021578E+03  0.23356884133E+03  0.13520440952E+03  0.41546194677E+03  0.00000000000E+00 0. -1.
          2    1    6    6  502    0 -0.31487477373E+03 -0.70618868346E+01 -0.74525205204E+02  0.32365104602E+03  0.00000000000E+00 0. -1.
          3    1    5    5  503    0 -0.10408504758E+03 -0.34840030002E+03  0.66181848932E+03  0.75512924655E+03  0.00000000000E+00 0. -1.
         -4    1    5    5    0  503  0.10824645982E+02 -0.11696649368E+02  0.18317326290E+02  0.24279806620E+02  0.00000000000E+00 0.  1.
         -1    1    6    6    0  502 -0.12563289416E+03 -0.46239294524E+02 -0.60650640618E+02  0.14697005362E+03  0.00000000000E+00 0.  1.
<mgrwt>
<rscale>  0 0.18063749E+04</rscale>
<asrwt>0</asrwt>
<pdfrwt beam="1">  1        1 0.22030595E+00 0.18063749E+04</pdfrwt>
<pdfrwt beam="2">  1       -1 0.87640094E-01 0.18063749E+04</pdfrwt>
<totfact> 0.88120673E+00</totfact>
</mgrwt>
</event>
<event>
12    1  0.2083715E-007  0.1866645E+04  0.7818608E-02  0.8671640E-01
         -1   -1    0    0    0  501 -0.00000000000E+00  0.00000000000E+00  0.61297487145E+03  0.61297487145E+03  0.00000000000E+00 0.  1.
          1   -1    0    0  501    0  0.00000000000E+00 -0.00000000000E+00 -0.14210880183E+04  0.14210880183E+04  0.00000000000E+00 0. -1.
         23    2    1    2    0    0  0.46491036910E+03  0.29711595271E+03 -0.80343769617E+03  0.97931531714E+03  0.95534381785E+02 0.  0.
        254    2    1    2    0    0 -0.46491036910E+03 -0.29711595271E+03 -0.46754506752E+01  0.10547475726E+04  0.89891659314E+03 0.  0.
        -24    2    4    4    0    0 -0.39601424411E+03 -0.54212245846E+03  0.21457701396E+03  0.70921482332E+03  0.78856383334E+02 0.  0.
         24    2    4    4    0    0 -0.68896124989E+02  0.24500650575E+03 -0.21925246464E+03  0.34553274928E+03  0.80909663701E+02 0.  0.
         13    1    3    3    0    0  0.55090329089E+02  0.63941871636E+02 -0.83579307625E+02  0.11878134521E+03  0.00000000000E+00 0.  1.
        -13    1    3    3    0    0  0.40982004001E+03  0.23317408108E+03 -0.71985838855E+03  0.86053397193E+03  0.00000000000E+00 0. -1.
          2    1    6    6  502    0  0.17377700313E+02  0.29023780243E+02 -0.36323498818E+02  0.49636285660E+02  0.00000000000E+00 0. -1.
          1    1    5    5  503    0 -0.98181748556E+02 -0.16684708790E+03  0.93842821702E+02  0.21513735537E+03  0.00000000000E+00 0. -1.
         -2    1    5    5    0  503 -0.29783249555E+03 -0.37527537056E+03  0.12073419226E+03  0.49407746795E+03  0.00000000000E+00 0.  1.
         -1    1    6    6    0  502 -0.86273825302E+02  0.21598272550E+03 -0.18292896582E+03  0.29589646362E+03  0.00000000000E+00 0.  1.
<mgrwt>
<rscale>  0 0.18666454E+04</rscale>
<asrwt>0</asrwt>
<pdfrwt beam="1">  1        1 0.21862892E+00 0.18666454E+04</pdfrwt>
<pdfrwt beam="2">  1       -1 0.94303828E-01 0.18666454E+04</pdfrwt>
<totfact> 0.75841926E+00</totfact>
</mgrwt>
</event>
<event>
12    1  0.2083715E-007  0.1667317E+04  0.7818608E-02  0.8780227E-01
         -1   -1    0    0    0  501 -0.00000000000E+00  0.00000000000E+00  0.26176598458E+03  0.26176598458E+03  0.00000000000E+00 0.  1.
          1   -1    0    0  501    0  0.00000000000E+00 -0.00000000000E+00 -0.26549909267E+04  0.26549909267E+04  0.00000000000E+00 0. -1.
         23    2    1    2    0    0  0.90174880929E+02 -0.19195844823E+03  0.10282192733E+03  0.25293514023E+03  0.91783884372E+02 0.  0.
        254    2    1    2    0    0 -0.90174880929E+02  0.19195844823E+03 -0.24960468695E+04  0.26638217711E+04  0.90593426829E+03 0.  0.
        -24    2    4    4    0    0 -0.23317892288E+03 -0.24640327989E+03 -0.17420214272E+04  0.17764110103E+04  0.76879376360E+02 0.  0.
         24    2    4    4    0    0  0.14300404195E+03  0.43836172812E+03 -0.75402544233E+03  0.88741076077E+03  0.79575938237E+02 0.  0.
         11    1    3    3    0    0  0.37420163301E+02 -0.91548960464E+02 -0.13812684250E+01  0.98911013977E+02  0.00000000000E+00 0. -1.
        -11    1    3    3    0    0  0.52754717627E+02 -0.10040948776E+03  0.10420319575E+03  0.15402412626E+03  0.00000000000E+00 0.  1.
          2    1    6    6  502    0  0.12713474352E+03  0.26642327640E+03 -0.48147623396E+03  0.56476895195E+03  0.00000000000E+00 0. -1.
          1    1    5    5  503    0 -0.29307087553E+02 -0.13592038074E+02 -0.89219535589E+02  0.94888220610E+02  0.00000000000E+00 0. -1.
         -4    1    5    5    0  503 -0.20387183532E+03 -0.23281124182E+03 -0.16528018916E+04  0.16815227897E+04  0.00000000000E+00 0.  1.
         -1    1    6    6    0  502  0.15869298428E+02  0.17193845172E+03 -0.27254920837E+03  0.32264180882E+03  0.00000000000E+00 0.  1.
<mgrwt>
<rscale>  0 0.16673168E+04</rscale>
<asrwt>0</asrwt>
<pdfrwt beam="1">  1        1 0.40846016E+00 0.16673168E+04</pdfrwt>
<pdfrwt beam="2">  1       -1 0.40271689E-01 0.16673168E+04</pdfrwt>
<totfact> 0.60746389E+00</totfact>
</mgrwt>
</event>
<event>
12    1  0.2083715E-007  0.2023713E+04  0.7818608E-02  0.8595614E-01
         -2   -1    0    0    0  501 -0.00000000000E+00  0.00000000000E+00  0.96278516536E+03  0.96278516536E+03  0.00000000000E+00 0.  1.
          2   -1    0    0  501    0  0.00000000000E+00 -0.00000000000E+00 -0.10634288005E+04  0.10634288005E+04  0.00000000000E+00 0. -1.
         23    2    1    2    0    0 -0.59576998005E+03  0.51685698036E+03  0.13902905203E+03  0.80607154742E+03  0.91319521354E+02 0.  0.
        254    2    1    2    0    0  0.59576998005E+03 -0.51685698036E+03 -0.23967268712E+03  0.12201424184E+04  0.89956740544E+03 0.  0.
        -24    2    4    4    0    0 -0.83257740908E+01 -0.17098161347E+03  0.28717329278E+03  0.34338834500E+03  0.78377450415E+02 0.  0.
         24    2    4    4    0    0  0.60409575414E+03 -0.34587536689E+03 -0.52684597991E+03  0.87675407339E+03  0.81052878249E+02 0.  0.
         13    1    3    3    0    0 -0.41467726586E+03  0.31181962762E+03  0.11525054694E+03  0.53148038869E+03  0.00000000000E+00 0.  1.
        -13    1    3    3    0    0 -0.18109271419E+03  0.20503735274E+03  0.23778505096E+02  0.27459115873E+03  0.00000000000E+00 0. -1.
          2    1    6    6  502    0  0.47418022198E+03 -0.25411898782E+03 -0.36686297104E+03  0.65116187112E+03  0.00000000000E+00 0. -1.
          1    1    5    5  503    0 -0.28193503044E+02 -0.70050382375E+02  0.17816452848E+03  0.19350588852E+03  0.00000000000E+00 0. -1.
         -2    1    5    5    0  503  0.19867728953E+02 -0.10093123110E+03  0.10900876431E+03  0.14988245648E+03  0.00000000000E+00 0.  1.
         -1    1    6    6    0  502  0.12991553216E+03 -0.91756379072E+02 -0.15998300887E+03  0.22559220227E+03  0.00000000000E+00 0.  1.
<mgrwt>
<rscale>  0 0.20237129E+04</rscale>
<asrwt>0</asrwt>
<pdfrwt beam="1">  1        2 0.16360443E+00 0.20237129E+04</pdfrwt>
<pdfrwt beam="2">  1       -2 0.14812079E+00 0.20237129E+04</pdfrwt>
<totfact> 0.65948486E+00</totfact>
</mgrwt>
</event>
<event>
12    1  0.2083715E-007  0.2047564E+04  0.7818608E-02  0.8584700E-01
         -3   -1    0    0    0  501 -0.00000000000E+00  0.00000000000E+00  0.86287536172E+03  0.86287536172E+03  0.00000000000E+00 0.  1.
          3   -1    0    0  501    0  0.00000000000E+00 -0.00000000000E+00 -0.12146946200E+04  0.12146946200E+04  0.00000000000E+00 0. -1.
         23    2    1    2    0    0  0.63799029848E+03  0.50060936690E+03  0.27221349400E+01  0.81487230861E+03  0.79800439428E+02 0.  0.
        254    2    1    2    0    0 -0.63799029848E+03 -0.50060936690E+03 -0.35454139319E+03  0.12626976731E+04  0.90059116971E+03 0.  0.
        -24    2    4    4    0    0 -0.66681920087E+03 -0.12397524739E+03  0.73168542660E+02  0.68661669745E+03  0.77917552352E+02 0.  0.
         24    2    4    4    0    0  0.28828902389E+02 -0.37663411951E+03 -0.42770993585E+03  0.57608097564E+03  0.79051474872E+02 0.  0.
         11    1    3    3    0    0  0.41102767219E+03  0.27732579443E+03  0.17524890315E+02  0.49614560901E+03  0.00000000000E+00 0. -1.
        -11    1    3    3    0    0  0.22696262629E+03  0.22328357247E+03 -0.14802755375E+02  0.31872669960E+03  0.00000000000E+00 0.  1.
          4    1    6    6  502    0  0.53171763920E+02 -0.26218548958E+03 -0.31943133795E+03  0.41665914977E+03  0.00000000000E+00 0. -1.
          1    1    5    5  503    0 -0.29064737098E+03 -0.93391405858E+02  0.30806175975E+02  0.30683361847E+03  0.00000000000E+00 0. -1.
         -2    1    5    5    0  503 -0.37617182990E+03 -0.30583841532E+02  0.42362366685E+02  0.37978307898E+03  0.00000000000E+00 0.  1.
         -3    1    6    6    0  502 -0.24342861531E+02 -0.11444862993E+03 -0.10827859791E+03  0.15942182587E+03  0.00000000000E+00 0.  1.
<mgrwt>
<rscale>  0 0.20475645E+04</rscale>
<asrwt>0</asrwt>
<pdfrwt beam="1">  1        3 0.18687610E+00 0.20475645E+04</pdfrwt>
<pdfrwt beam="2">  1       -3 0.13275006E+00 0.20475645E+04</pdfrwt>
<totfact> 0.19043776E-01</totfact>
</mgrwt>
</event>
<event>
12    1  0.2083715E-007  0.1664899E+04  0.7818608E-02  0.8781641E-01
          2   -1    0    0  501    0  0.00000000000E+00  0.00000000000E+00  0.10471003532E+04  0.10471003532E+04  0.00000000000E+00 0. -1.
         -2   -1    0    0    0  501 -0.00000000000E+00 -0.00000000000E+00 -0.66180126150E+03  0.66180126150E+03  0.00000000000E+00 0.  1.
         23    2    1    2    0    0  0.10217253759E+03 -0.24563045832E+03  0.67117284048E+03  0.72835577501E+03  0.96206048192E+02 0.  0.
        254    2    1    2    0    0 -0.10217253759E+03  0.24563045832E+03 -0.28587374878E+03  0.98054583969E+03  0.89942914897E+03 0.  0.
        -24    2    4    4    0    0  0.22383263562E+02 -0.32172433355E+03 -0.20088519493E+03  0.38787587299E+03  0.78008166366E+02 0.  0.
         24    2    4    4    0    0 -0.12455580115E+03  0.56735479187E+03 -0.84988553848E+02  0.59266996670E+03  0.81418841161E+02 0.  0.
         13    1    3    3    0    0  0.17227177842E+02  0.21992564466E+01  0.20178620019E+02  0.26623093193E+02  0.00000000000E+00 0.  1.
        -13    1    3    3    0    0  0.84945359744E+02 -0.24782971476E+03  0.65099422046E+03  0.70173268182E+03  0.00000000000E+00 0. -1.
          2    1    6    6  502    0 -0.37910835905E+02  0.14734749644E+03 -0.58486306650E+02  0.16300050384E+03  0.00000000000E+00 0. -1.
          1    1    5    5  503    0  0.24299901770E+02 -0.27416611346E+02 -0.13883990178E+02  0.39178067678E+02  0.00000000000E+00 0. -1.
         -2    1    5    5    0  503 -0.19166382072E+01 -0.29430772220E+03 -0.18700120475E+03  0.34869780531E+03  0.00000000000E+00 0.  1.
         -1    1    6    6    0  502 -0.86644965243E+02  0.42000729543E+03 -0.26502247198E+02  0.42966946287E+03  0.00000000000E+00 0.  1.
<mgrwt>
<rscale>  0 0.16648992E+04</rscale>
<asrwt>0</asrwt>
<pdfrwt beam="1">  1        2 0.16109236E+00 0.16648992E+04</pdfrwt>
<pdfrwt beam="2">  1       -2 0.10181558E+00 0.16648992E+04</pdfrwt>
<totfact> 0.17752817E+01</totfact>
</mgrwt>
</event>
<event>
12    1  0.2083715E-007  0.1440313E+04  0.7818608E-02  0.8925144E-01
         -3   -1    0    0    0  501 -0.00000000000E+00  0.00000000000E+00  0.51012388479E+03  0.51012388479E+03  0.00000000000E+00 0.  1.
          3   -1    0    0  501    0  0.00000000000E+00 -0.00000000000E+00 -0.10166653088E+04  0.10166653088E+04  0.00000000000E+00 0. -1.
         23    2    1    2    0    0  0.39023345283E+03  0.18019462979E+03 -0.20389616883E+03  0.48439637070E+03  0.91180831193E+02 0.  0.
        254    2    1    2    0    0 -0.39023345283E+03 -0.18019462979E+03 -0.30264525518E+03  0.10423928229E+04  0.90013132066E+03 0.  0.
        -24    2    4    4    0    0 -0.25572243667E+03  0.19315606209E+03  0.20844882399E+03  0.39047409493E+03  0.79472496202E+02 0.  0.
         24    2    4    4    0    0 -0.13451101616E+03 -0.37335069188E+03 -0.51109407917E+03  0.65191872797E+03  0.79353119160E+02 0.  0.
         11    1    3    3    0    0  0.16744946829E+03  0.65997243662E+02 -0.13425709216E+03  0.22454382066E+03  0.00000000000E+00 0. -1.
        -11    1    3    3    0    0  0.22278398453E+03  0.11419738613E+03 -0.69639076669E+02  0.25985255004E+03  0.00000000000E+00 0.  1.
          4    1    6    6  502    0 -0.58643228010E+02 -0.12514742299E+03 -0.23764168857E+03  0.27490812614E+03  0.00000000000E+00 0. -1.
          1    1    5    5  503    0 -0.16728989150E+03  0.96303728417E+02  0.15979506522E+03  0.25058886403E+03  0.00000000000E+00 0. -1.
         -2    1    5    5    0  503 -0.88432545168E+02  0.96852333671E+02  0.48653758762E+02  0.13988523090E+03  0.00000000000E+00 0.  1.
         -3    1    6    6    0  502 -0.75867788153E+02 -0.24820326889E+03 -0.27345239060E+03  0.37701060183E+03  0.00000000000E+00 0.  1.
<mgrwt>
<rscale>  0 0.14403128E+04</rscale>
<asrwt>0</asrwt>
<pdfrwt beam="1">  1        3 0.15641005E+00 0.14403128E+04</pdfrwt>
<pdfrwt beam="2">  1       -3 0.78480599E-01 0.14403128E+04</pdfrwt>
<totfact> 0.11193738E+00</totfact>
</mgrwt>
</event>
<event>
12    1  0.2083715E-007  0.1361659E+04  0.7818608E-02  0.8982049E-01
         -2   -1    0    0    0  501 -0.00000000000E+00  0.00000000000E+00  0.31758590620E+03  0.31758590620E+03  0.00000000000E+00 0.  1.
          2   -1    0    0  501    0  0.00000000000E+00 -0.00000000000E+00 -0.14595374795E+04  0.14595374795E+04  0.00000000000E+00 0. -1.
         23    2    1    2    0    0  0.12257835290E+03 -0.31824089128E+03 -0.52876891734E+03  0.63570512940E+03  0.90673734463E+02 0.  0.
        254    2    1    2    0    0 -0.12257835290E+03  0.31824089128E+03 -0.61318265594E+03  0.11414182563E+04  0.90029992154E+03 0.  0.
        -24    2    4    4    0    0 -0.25386534422E+03 -0.21736103587E+03 -0.48122021283E+02  0.34750895248E+03  0.82178526452E+02 0.  0.
         24    2    4    4    0    0  0.13128699132E+03  0.53560192715E+03 -0.56506063465E+03  0.79390930379E+03  0.83022667698E+02 0.  0.
         11    1    3    3    0    0  0.10069171837E+03 -0.19672183088E+03 -0.40200751091E+03  0.45874648742E+03  0.00000000000E+00 0. -1.
        -11    1    3    3    0    0  0.21886634534E+02 -0.12151906041E+03 -0.12676140643E+03  0.17695864199E+03  0.00000000000E+00 0.  1.
          2    1    6    6  502    0  0.80354907261E+02  0.45665457282E+03 -0.46580165011E+03  0.65723777071E+03  0.00000000000E+00 0. -1.
          3    1    5    5  503    0 -0.10315411852E+03 -0.13589694255E+03 -0.43754580432E+02  0.17613408094E+03  0.00000000000E+00 0. -1.
         -4    1    5    5    0  503 -0.15071122571E+03 -0.81464093321E+02 -0.43674408507E+01  0.17137487154E+03  0.00000000000E+00 0.  1.
         -1    1    6    6    0  502  0.50932084062E+02  0.78947354328E+02 -0.99258984540E+02  0.13667153308E+03  0.00000000000E+00 0.  1.
<mgrwt>
<rscale>  0 0.13616586E+04</rscale>
<asrwt>0</asrwt>
<pdfrwt beam="1">  1        2 0.22454423E+00 0.13616586E+04</pdfrwt>
<pdfrwt beam="2">  1       -2 0.48859371E-01 0.13616586E+04</pdfrwt>
<totfact> 0.51791052E+01</totfact>
</mgrwt>
</event>
<event>
12    1  0.2083715E-007  0.3466374E+04  0.7818608E-02  0.8121805E-01
          1   -1    0    0  501    0  0.00000000000E+00  0.00000000000E+00  0.22445944792E+04  0.22445944792E+04  0.00000000000E+00 0. -1.
         -1   -1    0    0    0  501 -0.00000000000E+00 -0.00000000000E+00 -0.13382982194E+04  0.13382982194E+04  0.00000000000E+00 0.  1.
         23    2    1    2    0    0 -0.95442830626E+02  0.60814854280E+03 -0.11195929038E+04  0.12820355146E+04  0.10570149648E+03 0.  0.
        254    2    1    2    0    0  0.95442830626E+02 -0.60814854280E+03  0.20258891637E+04  0.23008571840E+04  0.90042373007E+03 0.  0.
        -24    2    4    4    0    0  0.40578422891E+03 -0.31793018964E+03  0.16412184075E+04  0.17220652105E+04  0.78551143905E+02 0.  0.
         24    2    4    4    0    0 -0.31034139828E+03 -0.29021835316E+03  0.38467075619E+03  0.57879197351E+03  0.80561044788E+02 0.  0.
         11    1    3    3    0    0 -0.11162469685E+03  0.42053956834E+03 -0.81695566843E+03  0.92559719407E+03  0.00000000000E+00 0.  1.
        -11    1    3    3    0    0  0.16181866220E+02  0.18760897446E+03 -0.30263723539E+03  0.35643832052E+03  0.00000000000E+00 0. -1.
          2    1    6    6  502    0 -0.25144401085E+02 -0.30494956558E+00  0.15474801921E+02  0.29526316984E+02  0.00000000000E+00 0. -1.
          1    1    5    5  503    0  0.17718867974E+03 -0.15773092732E+03  0.63570627190E+03  0.67852585639E+03  0.00000000000E+00 0. -1.
         -2    1    5    5    0  503  0.22859554917E+03 -0.16019926232E+03  0.10055121356E+04  0.10435393541E+04  0.00000000000E+00 0.  1.
         -1    1    6    6    0  502 -0.28519699720E+03 -0.28991340360E+03  0.36919595426E+03  0.54926565653E+03  0.00000000000E+00 0.  1.
<mgrwt>
<rscale>  0 0.34663738E+04</rscale>
<asrwt>0</asrwt>
<pdfrwt beam="1">  1        1 0.34532223E+00 0.34663738E+04</pdfrwt>
<pdfrwt beam="2">  1       -1 0.20589203E+00 0.34663738E+04</pdfrwt>
<totfact> 0.22783513E-01</totfact>
</mgrwt>
</event>
<event>
12    1  0.2083715E-007  0.4540215E+04  0.7818608E-02  0.7903634E-01
         -2   -1    0    0    0  501 -0.00000000000E+00  0.00000000000E+00  0.16508193142E+04  0.16508193142E+04  0.00000000000E+00 0. -1.
          2   -1    0    0  501    0  0.00000000000E+00 -0.00000000000E+00 -0.31217157953E+04  0.31217157953E+04  0.00000000000E+00 0.  1.
         23    2    1    2    0    0 -0.89295289083E+03  0.74048121858E+03 -0.26479774772E+04  0.28923728534E+04  0.91425943201E+02 0.  0.
        254    2    1    2    0    0  0.89295289083E+03 -0.74048121858E+03  0.11770809961E+04  0.18801622561E+04  0.89655626572E+03 0.  0.
        -24    2    4    4    0    0  0.94559585107E+03 -0.31269262070E+03  0.98003612528E+03  0.13995382845E+04  0.79425527730E+02 0.  0.
         24    2    4    4    0    0 -0.52642960232E+02 -0.42778859788E+03  0.19704487084E+03  0.48062397158E+03  0.79989719314E+02 0.  0.
         11    1    3    3    0    0 -0.52435106722E+03  0.49244996123E+03 -0.16419955086E+04  0.17926517387E+04  0.00000000000E+00 0. -1.
        -11    1    3    3    0    0 -0.36860182361E+03  0.24803125735E+03 -0.10059819685E+04  0.10997211146E+04  0.00000000000E+00 0.  1.
          4    1    6    6  502    0  0.10289616384E+02 -0.12997249109E+03  0.87957002812E+02  0.15727415232E+03  0.00000000000E+00 0. -1.
          3    1    5    5  503    0  0.34303088778E+03 -0.74631919254E+02  0.35697868115E+03  0.50067343862E+03  0.00000000000E+00 0. -1.
         -4    1    5    5    0  503  0.60256496328E+03 -0.23806070145E+03  0.62305744413E+03  0.89886484592E+03  0.00000000000E+00 0.  1.
         -3    1    6    6    0  502 -0.62932576615E+02 -0.29781610679E+03  0.10908786803E+03  0.32334981925E+03  0.00000000000E+00 0.  1.
<mgrwt>
<rscale>  0 0.45402153E+04</rscale>
<asrwt>0</asrwt>
<pdfrwt beam="1">  1        2 0.48026396E+00 0.45402153E+04</pdfrwt>
<pdfrwt beam="2">  1       -2 0.25397220E+00 0.45402153E+04</pdfrwt>
<totfact> 0.66811785E-02</totfact>
</mgrwt>
</event>
<event>
12    1  0.2083715E-007  0.1749435E+04  0.7818608E-02  0.8733661E-01
         -2   -1    0    0    0  501 -0.00000000000E+00  0.00000000000E+00  0.20638463282E+03  0.20638463282E+03  0.00000000000E+00 0.  1.
          2   -1    0    0  501    0  0.00000000000E+00 -0.00000000000E+00 -0.37073056786E+04  0.37073056786E+04  0.00000000000E+00 0. -1.
         23    2    1    2    0    0  0.71317079652E+02  0.37181208956E+03 -0.24380317889E+04  0.24691006483E+04  0.95543977179E+02 0.  0.
        254    2    1    2    0    0 -0.71317079652E+02 -0.37181208956E+03 -0.10628892569E+04  0.14445896632E+04  0.90209498768E+03 0.  0.
        -24    2    4    4    0    0 -0.44410067608E+03 -0.23154860953E+03 -0.32546295051E+03  0.60256593163E+03  0.79494658544E+02 0.  0.
         24    2    4    4    0    0  0.37278359643E+03 -0.14026348003E+03 -0.73742630635E+03  0.84202373154E+03  0.81024401152E+02 0.  0.
         11    1    3    3    0    0  0.50162404427E+02  0.17132409542E+03 -0.86708947244E+03  0.88527530504E+03  0.00000000000E+00 0.  1.
        -11    1    3    3    0    0  0.21154675226E+02  0.20048799414E+03 -0.15709423165E+04  0.15838253432E+04  0.00000000000E+00 0. -1.
          4    1    6    6  502    0  0.83726391406E+02 -0.12935138724E+02 -0.22075139581E+03  0.23645000568E+03  0.00000000000E+00 0. -1.
          1    1    5    5  503    0 -0.78191055902E+02 -0.73737564877E+02 -0.86114074382E+02  0.13771965547E+03  0.00000000000E+00 0. -1.
         -2    1    5    5    0  503 -0.36590962018E+03 -0.15781104465E+03 -0.23934887613E+03  0.46484627616E+03  0.00000000000E+00 0.  1.
         -3    1    6    6    0  502  0.28905720502E+03 -0.12732834131E+03 -0.51667491054E+03  0.60557372586E+03  0.00000000000E+00 0.  1.
<mgrwt>
<rscale>  0 0.17494352E+04</rscale>
<asrwt>0</asrwt>
<pdfrwt beam="1">  1        2 0.57035467E+00 0.17494352E+04</pdfrwt>
<pdfrwt beam="2">  1       -2 0.31751485E-01 0.17494352E+04</pdfrwt>
<totfact> 0.50963335E+00</totfact>
</mgrwt>
</event>
<event>
12    1  0.2083715E-007  0.4859627E+04  0.7818608E-02  0.7850533E-01
          2   -1    0    0  501    0  0.00000000000E+00  0.00000000000E+00  0.20853632899E+04  0.20853632899E+04  0.00000000000E+00 0. -1.
         -2   -1    0    0    0  501 -0.00000000000E+00 -0.00000000000E+00 -0.28311583991E+04  0.28311583991E+04  0.00000000000E+00 0.  1.
         23    2    1    2    0    0  0.19276868328E+04  0.12986020934E+04 -0.40296813860E+02  0.23264571895E+04  0.91843884835E+02 0.  0.
        254    2    1    2    0    0 -0.19276868328E+04 -0.12986020934E+04 -0.70549829531E+03  0.25900644994E+04  0.89908973085E+03 0.  0.
        -24    2    4    4    0    0 -0.42377638323E+03 -0.45165444413E+02 -0.43120626870E+03  0.61157835621E+03  0.80392159251E+02 0.  0.
         24    2    4    4    0    0 -0.15039104496E+04 -0.12534366490E+04 -0.27429202661E+03  0.19784861432E+04  0.79506160937E+02 0.  0.
         11    1    3    3    0    0  0.11693170901E+04  0.82125397932E+03  0.10238498654E+02  0.14289385510E+04  0.00000000000E+00 0.  1.
        -11    1    3    3    0    0  0.75836974268E+03  0.47734811411E+03 -0.50535312514E+02  0.89751863850E+03  0.00000000000E+00 0. -1.
          2    1    6    6  502    0 -0.76924672519E+03 -0.69231377608E+03 -0.13940742115E+03  0.10442573044E+04  0.00000000000E+00 0. -1.
          3    1    5    5  503    0 -0.35896709047E+03 -0.83446658927E+01 -0.35232428791E+03  0.50305010620E+03  0.00000000000E+00 0. -1.
         -4    1    5    5    0  503 -0.64809292754E+02 -0.36820778521E+02 -0.78881980784E+02  0.10852825001E+03  0.00000000000E+00 0.  1.
         -1    1    6    6    0  502 -0.73466372437E+03 -0.56112287293E+03 -0.13488460545E+03  0.93422883879E+03  0.00000000000E+00 0.  1.
<mgrwt>
<rscale>  0 0.48596271E+04</rscale>
<asrwt>0</asrwt>
<pdfrwt beam="1">  1        2 0.32082512E+00 0.48596271E+04</pdfrwt>
<pdfrwt beam="2">  1       -2 0.43556283E+00 0.48596271E+04</pdfrwt>
<totfact> 0.19097507E-02</totfact>
</mgrwt>
</event>
<event>
12    1  0.2083715E-007  0.1212297E+04  0.7818608E-02  0.9102161E-01
          2   -1    0    0  501    0  0.00000000000E+00  0.00000000000E+00  0.82833381216E+03  0.82833381216E+03  0.00000000000E+00 0.  1.
         -2   -1    0    0    0  501 -0.00000000000E+00 -0.00000000000E+00 -0.44355997896E+03  0.44355997896E+03  0.00000000000E+00 0. -1.
         23    2    1    2    0    0  0.15053751598E+03 -0.13345431533E+03  0.26209457916E+03  0.34163147162E+03  0.86872872499E+02 0.  0.
        254    2    1    2    0    0 -0.15053751598E+03  0.13345431533E+03  0.12267925404E+03  0.93026231950E+03  0.89992565566E+03 0.  0.
        -24    2    4    4    0    0  0.14086130681E+03  0.13199685998E+03 -0.32703258898E+03  0.38791574362E+03  0.79140578030E+02 0.  0.
         24    2    4    4    0    0 -0.29139882279E+03  0.14574553512E+01  0.44971184302E+03  0.54234657589E+03  0.83568346418E+02 0.  0.
         13    1    3    3    0    0  0.22904954939E+02 -0.67957468870E+02  0.58370489524E+02  0.92466040162E+02  0.00000000000E+00 0. -1.
        -13    1    3    3    0    0  0.12763256104E+03 -0.65496846462E+02  0.20372408964E+03  0.24916543145E+03  0.00000000000E+00 0.  1.
          4    1    6    6  502    0 -0.16258054364E+03 -0.40237164308E+02  0.23736374636E+03  0.29050475151E+03  0.00000000000E+00 0. -1.
          3    1    5    5  503    0  0.10851157657E+03  0.69271909888E+02 -0.15200954314E+03  0.19919904858E+03  0.00000000000E+00 0. -1.
         -4    1    5    5    0  503  0.32349730237E+02  0.62724950093E+02 -0.17502304584E+03  0.18871669504E+03  0.00000000000E+00 0.  1.
         -3    1    6    6    0  502 -0.12881827915E+03  0.41694619659E+02  0.21234809666E+03  0.25184182438E+03  0.00000000000E+00 0.  1.
<mgrwt>
<rscale>  0 0.12122965E+04</rscale>
<asrwt>0</asrwt>
<pdfrwt beam="1">  1        2 0.12743597E+00 0.12122965E+04</pdfrwt>
<pdfrwt beam="2">  1       -2 0.68239997E-01 0.12122965E+04</pdfrwt>
<totfact> 0.63716386E+01</totfact>
</mgrwt>
</event>
<event>
12    1  0.2083715E-007  0.2506247E+04  0.7818608E-02  0.8400764E-01
         -2   -1    0    0    0  501 -0.00000000000E+00  0.00000000000E+00  0.11058238215E+04  0.11058238215E+04  0.00000000000E+00 0.  1.
          2   -1    0    0  501    0  0.00000000000E+00 -0.00000000000E+00 -0.14200434589E+04  0.14200434589E+04  0.00000000000E+00 0. -1.
         23    2    1    2    0    0 -0.10706486574E+04 -0.20759107006E+02 -0.34026010457E+03  0.11273554667E+04  0.91836383193E+02 0.  0.
        254    2    1    2    0    0  0.10706486574E+04  0.20759107006E+02  0.26040467179E+02  0.13985118137E+04  0.89913163609E+03 0.  0.
        -24    2    4    4    0    0  0.80414738284E+03  0.13282378399E+03  0.40688330666E+03  0.91453475415E+03  0.80775122367E+02 0.  0.
         24    2    4    4    0    0  0.26650127458E+03 -0.11206467698E+03 -0.38084283948E+03  0.48397705957E+03  0.74907306864E+02 0.  0.
         13    1    3    3    0    0 -0.37683318252E+03  0.19510567537E+02 -0.83554212241E+02  0.38647796325E+03  0.00000000000E+00 0. -1.
        -13    1    3    3    0    0 -0.69381547490E+03 -0.40269674542E+02 -0.25670589233E+03  0.74087750341E+03  0.00000000000E+00 0.  1.
          4    1    6    6  502    0  0.81200497840E+02 -0.21492376211E+02 -0.16666857246E+03  0.18663830296E+03  0.00000000000E+00 0. -1.
          3    1    5    5  503    0  0.43583284766E+03  0.32725569856E+02  0.22957902210E+03  0.49368791904E+03  0.00000000000E+00 0. -1.
         -4    1    5    5    0  503  0.36831453518E+03  0.10009821413E+03  0.17730428455E+03  0.42084683511E+03  0.00000000000E+00 0.  1.
         -3    1    6    6    0  502  0.18530077674E+03 -0.90572300772E+02 -0.21417426702E+03  0.29733875661E+03  0.00000000000E+00 0.  1.
<mgrwt>
<rscale>  0 0.25062465E+04</rscale>
<asrwt>0</asrwt>
<pdfrwt beam="1">  1        2 0.21846822E+00 0.25062465E+04</pdfrwt>
<pdfrwt beam="2">  1       -2 0.17012674E+00 0.25062465E+04</pdfrwt>
<totfact> 0.26724450E+00</totfact>
</mgrwt>
</event>
<event>
12    1  0.2083715E-007  0.2473785E+04  0.7818608E-02  0.8412385E-01
         -2   -1    0    0    0  501 -0.00000000000E+00  0.00000000000E+00  0.14102856224E+04  0.14102856224E+04  0.00000000000E+00 0.  1.
          2   -1    0    0  501    0  0.00000000000E+00 -0.00000000000E+00 -0.10848175767E+04  0.10848175767E+04  0.00000000000E+00 0. -1.
         23    2    1    2    0    0  0.40272022277E+03 -0.86499005274E+03  0.63070160274E+03  0.11472550814E+04  0.89545189863E+02 0.  0.
        254    2    1    2    0    0 -0.40272022277E+03  0.86499005274E+03 -0.30523355698E+03  0.13478481176E+04  0.90174034773E+03 0.  0.
        -24    2    4    4    0    0 -0.53231791578E+03  0.64995893559E+03  0.11478859359E+03  0.85194912058E+03  0.82655317061E+02 0.  0.
         24    2    4    4    0    0  0.12959769301E+03  0.21503111715E+03 -0.42002215057E+03  0.49589899704E+03  0.80394433394E+02 0.  0.
         13    1    3    3    0    0  0.11010142999E+03 -0.26329996750E+03  0.14240124072E+03  0.31894719176E+03  0.00000000000E+00 0. -1.
        -13    1    3    3    0    0  0.29261879278E+03 -0.60169008524E+03  0.48830036202E+03  0.82830788969E+03  0.00000000000E+00 0.  1.
          4    1    6    6  502    0  0.57151527444E+01  0.38757895822E+02 -0.26626420473E+02  0.47368805417E+02  0.00000000000E+00 0. -1.
          1    1    5    5  503    0 -0.85114162905E+02  0.10816905925E+03  0.50047331976E+02  0.14645716624E+03  0.00000000000E+00 0. -1.
         -2    1    5    5    0  503 -0.44720375287E+03  0.54178987634E+03  0.64741261616E+02  0.70549195434E+03  0.00000000000E+00 0.  1.
         -3    1    6    6    0  502  0.12388254027E+03  0.17627322133E+03 -0.39339573010E+03  0.44853019163E+03  0.00000000000E+00 0.  1.
<mgrwt>
<rscale>  0 0.24737847E+04</rscale>
<asrwt>0</asrwt>
<pdfrwt beam="1">  1        2 0.16689501E+00 0.24737847E+04</pdfrwt>
<pdfrwt beam="2">  1       -2 0.21696702E+00 0.24737847E+04</pdfrwt>
<totfact> 0.20557200E+00</totfact>
</mgrwt>
</event>
<event>
12    1  0.2083715E-007  0.1893356E+04  0.7818608E-02  0.8658170E-01
          2   -1    0    0  501    0  0.00000000000E+00  0.00000000000E+00  0.72835903847E+03  0.72835903847E+03  0.00000000000E+00 0.  1.
         -2   -1    0    0    0  501 -0.00000000000E+00 -0.00000000000E+00 -0.12304365194E+04  0.12304365194E+04  0.00000000000E+00 0. -1.
         23    2    1    2    0    0  0.54834210894E+03 -0.40115108755E+03 -0.46877091195E+03  0.83052842438E+03  0.91815207546E+02 0.  0.
        254    2    1    2    0    0 -0.54834210894E+03  0.40115108755E+03 -0.33306568937E+02  0.11282671334E+04  0.90015339437E+03 0.  0.
        -24    2    4    4    0    0 -0.30054366300E+03 -0.14400472237E+03 -0.31141880876E+03  0.46317630179E+03  0.80540416227E+02 0.  0.
         24    2    4    4    0    0 -0.24779844593E+03  0.54515580992E+03  0.27811223983E+03  0.66509083166E+03  0.80002934417E+02 0.  0.
         11    1    3    3    0    0  0.20631243636E+03 -0.18124378225E+03 -0.14372400264E+03  0.30995276888E+03  0.00000000000E+00 0.  1.
        -11    1    3    3    0    0  0.34202967258E+03 -0.21990730530E+03 -0.32504690931E+03  0.52057565550E+03  0.00000000000E+00 0. -1.
          2    1    6    6  502    0 -0.13851601853E+03  0.39144054407E+03  0.20127210734E+03  0.46143563812E+03  0.00000000000E+00 0. -1.
          3    1    5    5  503    0 -0.26326624897E+02 -0.12499833004E+02 -0.18282332782E+01  0.29200675343E+02  0.00000000000E+00 0. -1.
         -4    1    5    5    0  503 -0.27421703811E+03 -0.13150488937E+03 -0.30959057548E+03  0.43397562644E+03  0.00000000000E+00 0.  1.
         -1    1    6    6    0  502 -0.10928242741E+03  0.15371526585E+03  0.76840132485E+02  0.20365519354E+03  0.00000000000E+00 0.  1.
<mgrwt>
<rscale>  0 0.18933563E+04</rscale>
<asrwt>0</asrwt>
<pdfrwt beam="1">  1        2 0.11205524E+00 0.18933563E+04</pdfrwt>
<pdfrwt beam="2">  1       -2 0.18929792E+00 0.18933563E+04</pdfrwt>
<totfact> 0.57148516E+00</totfact>
</mgrwt>
</event>
<event>
12    1  0.2083715E-007  0.2461369E+04  0.7818608E-02  0.8416879E-01
          2   -1    0    0  501    0  0.00000000000E+00  0.00000000000E+00  0.20651935004E+04  0.20651935004E+04  0.00000000000E+00 0. -1.
         -2   -1    0    0    0  501 -0.00000000000E+00 -0.00000000000E+00 -0.73338642145E+03  0.73338642145E+03  0.00000000000E+00 0.  1.
         23    2    1    2    0    0  0.47012430221E+03 -0.43000549720E+02  0.16636003935E+04  0.17317733398E+04  0.92772434100E+02 0.  0.
        254    2    1    2    0    0 -0.47012430221E+03  0.43000549720E+02 -0.33179331449E+03  0.10668065821E+04  0.89728678425E+03 0.  0.
        -24    2    4    4    0    0 -0.88844225630E+02  0.30957475421E+03  0.17447817660E+03  0.37508508334E+03  0.80723978860E+02 0.  0.
         24    2    4    4    0    0 -0.38128007658E+03 -0.26657420449E+03 -0.50627149109E+03  0.69172149872E+03  0.75706709205E+02 0.  0.
         13    1    3    3    0    0  0.28335530214E+03 -0.14112187662E+02  0.11508161488E+04  0.11852709351E+04  0.00000000000E+00 0. -1.
        -13    1    3    3    0    0  0.18676900006E+03 -0.28888362058E+02  0.51278424464E+03  0.54650240475E+03  0.00000000000E+00 0.  1.
          4    1    6    6  502    0 -0.32731428416E+03 -0.25723520919E+03 -0.43952877162E+03  0.60538428667E+03  0.00000000000E+00 0. -1.
          3    1    5    5  503    0  0.58722825325E+00  0.11571440507E+03  0.38444714666E+02  0.12193508299E+03  0.00000000000E+00 0. -1.
         -4    1    5    5    0  503 -0.89431453883E+02  0.19386034914E+03  0.13603346193E+03  0.25315000035E+03  0.00000000000E+00 0.  1.
         -3    1    6    6    0  502 -0.53965792416E+02 -0.93389953023E+01 -0.66742719462E+02  0.86337212056E+02  0.00000000000E+00 0.  1.
<mgrwt>
<rscale>  0 0.24613694E+04</rscale>
<asrwt>0</asrwt>
<pdfrwt beam="1">  1        2 0.31772207E+00 0.24613694E+04</pdfrwt>
<pdfrwt beam="2">  1       -2 0.11282868E+00 0.24613694E+04</pdfrwt>
<totfact> 0.33960073E+00</totfact>
</mgrwt>
</event>
<event>
12    1  0.2083715E-007  0.1202977E+04  0.7818608E-02  0.9110254E-01
          2   -1    0    0  501    0  0.00000000000E+00  0.00000000000E+00  0.65250701884E+03  0.65250701884E+03  0.00000000000E+00 0. -1.
         -2   -1    0    0    0  501 -0.00000000000E+00 -0.00000000000E+00 -0.55445935424E+03  0.55445935424E+03  0.00000000000E+00 0.  1.
         23    2    1    2    0    0  0.39881636162E+02 -0.22739898676E+03  0.12504868377E+03  0.27761665626E+03  0.90183093964E+02 0.  0.
        254    2    1    2    0    0 -0.39881636162E+02  0.22739898676E+03 -0.27001019182E+02  0.92934971682E+03  0.89981164531E+03 0.  0.
        -24    2    4    4    0    0  0.19620208683E+03 -0.27812512626E+03  0.71354068597E+02  0.35710677938E+03  0.81148037809E+02 0.  0.
         24    2    4    4    0    0 -0.23608372299E+03  0.50552411301E+03 -0.98355087779E+02  0.57224293745E+03  0.80610812339E+02 0.  0.
         13    1    3    3    0    0 -0.17438257224E+02 -0.80899818960E+02  0.77229470967E+02  0.11319569209E+03  0.00000000000E+00 0. -1.
        -13    1    3    3    0    0  0.57319893386E+02 -0.14649916780E+03  0.47819212807E+02  0.16442096416E+03  0.00000000000E+00 0.  1.
          2    1    6    6  502    0 -0.14380558482E+03  0.30430891692E+03 -0.99145469498E+02  0.35087574334E+03  0.00000000000E+00 0. -1.
          3    1    5    5  503    0  0.63467051155E+02 -0.14925813060E+03  0.55514935851E+02  0.17142918140E+03  0.00000000000E+00 0. -1.
         -4    1    5    5    0  503  0.13273503567E+03 -0.12886699566E+03  0.15839132746E+02  0.18567759798E+03  0.00000000000E+00 0.  1.
         -1    1    6    6    0  502 -0.92278138170E+02  0.20121519609E+03  0.79038171929E+00  0.22136719411E+03  0.00000000000E+00 0.  1.
<mgrwt>
<rscale>  0 0.12029773E+04</rscale>
<asrwt>0</asrwt>
<pdfrwt beam="1">  1        2 0.10038570E+00 0.12029773E+04</pdfrwt>
<pdfrwt beam="2">  1       -2 0.85301439E-01 0.12029773E+04</pdfrwt>
<totfact> 0.52790512E+01</totfact>
</mgrwt>
</event>
<event>
12    1  0.2083715E-007  0.2601942E+04  0.7818608E-02  0.8367542E-01
         -2   -1    0    0    0  501 -0.00000000000E+00  0.00000000000E+00  0.45743162481E+03  0.45743162481E+03  0.00000000000E+00 0.  1.
          2   -1    0    0  501    0  0.00000000000E+00 -0.00000000000E+00 -0.37000635617E+04  0.37000635617E+04  0.00000000000E+00 0. -1.
         23    2    1    2    0    0  0.11013618809E+04 -0.35452034806E+02 -0.19092732933E+04  0.22063570924E+04  0.91827398727E+02 0.  0.
        254    2    1    2    0    0 -0.11013618809E+04  0.35452034806E+02 -0.13333586435E+04  0.19511380941E+04  0.90268474591E+03 0.  0.
        -24    2    4    4    0    0 -0.62249986151E+03  0.42775306982E+03 -0.96098453982E+03  0.12247877234E+04  0.78325699929E+02 0.  0.
         24    2    4    4    0    0 -0.47886201936E+03 -0.39230103501E+03 -0.37237410373E+03  0.72635037071E+03  0.75587381486E+02 0.  0.
         11    1    3    3    0    0  0.89805502388E+03 -0.13234474865E+02 -0.16159095933E+04  0.18487405959E+04  0.00000000000E+00 0.  1.
        -11    1    3    3    0    0  0.20330685699E+03 -0.22217559941E+02 -0.29336370005E+03  0.35761649651E+03  0.00000000000E+00 0. -1.
          4    1    6    6  502    0 -0.17609001986E+03 -0.14533295966E+03 -0.95569925341E+02  0.24751358526E+03  0.00000000000E+00 0. -1.
          1    1    5    5  503    0 -0.55590616583E+03  0.36125942703E+03 -0.87069370697E+03  0.10943708559E+04  0.00000000000E+00 0. -1.
         -2    1    5    5    0  503 -0.66593695678E+02  0.66493642791E+02 -0.90290832848E+02  0.13041686751E+03  0.00000000000E+00 0.  1.
         -3    1    6    6    0  502 -0.30277199950E+03 -0.24696807535E+03 -0.27680417839E+03  0.47883678545E+03  0.00000000000E+00 0.  1.
<mgrwt>
<rscale>  0 0.26019424E+04</rscale>
<asrwt>0</asrwt>
<pdfrwt beam="1">  1        2 0.56924057E+00 0.26019424E+04</pdfrwt>
<pdfrwt beam="2">  1       -2 0.70374094E-01 0.26019424E+04</pdfrwt>
<totfact> 0.94961502E-01</totfact>
</mgrwt>
</event>
<event>
12    1  0.2083715E-007  0.1485852E+04  0.7818608E-02  0.8893916E-01
          1   -1    0    0  501    0  0.00000000000E+00  0.00000000000E+00  0.96801837651E+03  0.96801837651E+03  0.00000000000E+00 0. -1.
         -1   -1    0    0    0  501 -0.00000000000E+00 -0.00000000000E+00 -0.57017402956E+03  0.57017402956E+03  0.00000000000E+00 0.  1.
         23    2    1    2    0    0 -0.78036707851E+02  0.74456356838E+02 -0.34028296174E+03  0.36870627269E+03  0.92294878635E+02 0.  0.
        254    2    1    2    0    0  0.78036707851E+02 -0.74456356838E+02  0.73812730869E+03  0.11694861334E+04  0.90068441504E+03 0.  0.
        -24    2    4    4    0    0  0.21382749307E+03  0.22744217794E+03 -0.35767292999E+02  0.32345890658E+03  0.76773849048E+02 0.  0.
         24    2    4    4    0    0 -0.13579078521E+03 -0.30189853478E+03  0.77389460169E+03  0.84602722680E+03  0.85248761425E+02 0.  0.
         11    1    3    3    0    0 -0.49466090052E+02  0.79020785640E+02 -0.32017675837E+03  0.33347314019E+03  0.00000000000E+00 0.  1.
        -11    1    3    3    0    0 -0.28570617799E+02 -0.45644288017E+01 -0.20106203375E+02  0.35233132502E+02  0.00000000000E+00 0. -1.
          2    1    6    6  502    0 -0.49775362896E+02 -0.36616335442E+02  0.16895016761E+03  0.17989580847E+03  0.00000000000E+00 0. -1.
          3    1    5    5  503    0  0.17996661520E+03  0.15807190118E+03 -0.50693762046E+02  0.24483579403E+03  0.00000000000E+00 0. -1.
         -4    1    5    5    0  503  0.33860877865E+02  0.69370276763E+02  0.14926469047E+02  0.78623112545E+02  0.00000000000E+00 0.  1.
         -1    1    6    6    0  502 -0.86015422319E+02 -0.26528219934E+03  0.60494443408E+03  0.66613141833E+03  0.00000000000E+00 0.  1.
<mgrwt>
<rscale>  0 0.14858519E+04</rscale>
<asrwt>0</asrwt>
<pdfrwt beam="1">  1        1 0.14892590E+00 0.14858519E+04</pdfrwt>
<pdfrwt beam="2">  1       -1 0.87719082E-01 0.14858519E+04</pdfrwt>
<totfact> 0.19854907E+01</totfact>
</mgrwt>
</event>
<event>
12    1  0.2083715E-007  0.1425129E+04  0.7818608E-02  0.8935827E-01
          2   -1    0    0  501    0  0.00000000000E+00  0.00000000000E+00  0.20187796108E+04  0.20187796108E+04  0.00000000000E+00 0.  1.
         -2   -1    0    0    0  501 -0.00000000000E+00 -0.00000000000E+00 -0.25151258821E+03  0.25151258821E+03  0.00000000000E+00 0. -1.
         23    2    1    2    0    0  0.42238714538E+03  0.20788847249E+02  0.49056687508E+03  0.65341150040E+03  0.86299786624E+02 0.  0.
        254    2    1    2    0    0 -0.42238714538E+03 -0.20788847249E+02  0.12767001476E+04  0.16168806987E+04  0.89749476332E+03 0.  0.
        -24    2    4    4    0    0 -0.23140192873E+03 -0.10746752981E+02  0.13683866422E+04  0.13900230731E+04  0.77587343075E+02 0.  0.
         24    2    4    4    0    0 -0.19098521665E+03 -0.10042094268E+02 -0.91686494680E+02  0.22685762555E+03  0.80509454896E+02 0.  0.
         13    1    3    3    0    0  0.15350591293E+03  0.14769308883E+02  0.24337605535E+03  0.28812167934E+03  0.00000000000E+00 0.  1.
        -13    1    3    3    0    0  0.26888123246E+03  0.60195383662E+01  0.24719081973E+03  0.36528982106E+03  0.00000000000E+00 0. -1.
          4    1    6    6  502    0 -0.78118720354E+02 -0.43162459756E+02 -0.48332787270E+02  0.10149675230E+03  0.00000000000E+00 0. -1.
          1    1    5    5  503    0 -0.14269643162E+03  0.15006162372E+01  0.61532412002E+03  0.63165520351E+03  0.00000000000E+00 0. -1.
         -4    1    5    5    0  503 -0.88705497116E+02 -0.12247369218E+02  0.75306252222E+03  0.75836786960E+03  0.00000000000E+00 0.  1.
         -3    1    6    6    0  502 -0.11286649630E+03  0.33120365488E+02 -0.43353707410E+02  0.12536087325E+03  0.00000000000E+00 0.  1.
<mgrwt>
<rscale>  0 0.14251294E+04</rscale>
<asrwt>0</asrwt>
<pdfrwt beam="1">  1        2 0.31058147E+00 0.14251294E+04</pdfrwt>
<pdfrwt beam="2">  1       -2 0.38694246E-01 0.14251294E+04</pdfrwt>
<totfact> 0.40013078E+01</totfact>
</mgrwt>
</event>
<event>
12    1  0.2083715E-007  0.1221280E+04  0.7818608E-02  0.9094432E-01
          2   -1    0    0  501    0  0.00000000000E+00  0.00000000000E+00  0.13560451184E+04  0.13560451184E+04  0.00000000000E+00 0. -1.
         -2   -1    0    0    0  501 -0.00000000000E+00 -0.00000000000E+00 -0.27497687336E+03  0.27497687336E+03  0.00000000000E+00 0.  1.
         23    2    1    2    0    0  0.79322575217E+02  0.20614255160E+03  0.44867320985E+03  0.50854754080E+03  0.92337042926E+02 0.  0.
        254    2    1    2    0    0 -0.79322575217E+02 -0.20614255160E+03  0.63239503518E+03  0.11224744510E+04  0.90068784272E+03 0.  0.
        -24    2    4    4    0    0  0.14689247673E+03 -0.31045557534E+03 -0.81961530744E+02  0.36181952422E+03  0.78965888855E+02 0.  0.
         24    2    4    4    0    0 -0.22621505195E+03  0.10431302374E+03  0.71435656593E+03  0.76065492674E+03  0.78969346221E+02 0.  0.
         13    1    3    3    0    0  0.41611519352E+02  0.12436816016E+03  0.35573317630E+03  0.37913724497E+03  0.00000000000E+00 0. -1.
        -13    1    3    3    0    0  0.37711055865E+02  0.81774391442E+02  0.92940033555E+02  0.12941029583E+03  0.00000000000E+00 0.  1.
          2    1    6    6  502    0 -0.19914637475E+03  0.11700242724E+03  0.64587112849E+03  0.68592883098E+03  0.00000000000E+00 0. -1.
          3    1    5    5  503    0  0.13192500681E+03 -0.31055892253E+03 -0.79394816945E+02  0.34663321933E+03  0.00000000000E+00 0. -1.
         -4    1    5    5    0  503  0.14967469926E+02  0.10334718424E+00 -0.25667137990E+01  0.15186304895E+02  0.00000000000E+00 0.  1.
         -1    1    6    6    0  502 -0.27068677199E+02 -0.12689403498E+02  0.68485437442E+02  0.74726095764E+02  0.00000000000E+00 0.  1.
<mgrwt>
<rscale>  0 0.12212797E+04</rscale>
<asrwt>0</asrwt>
<pdfrwt beam="1">  1        2 0.20862232E+00 0.12212797E+04</pdfrwt>
<pdfrwt beam="2">  1       -2 0.42304135E-01 0.12212797E+04</pdfrwt>
<totfact> 0.80004649E+01</totfact>
</mgrwt>
</event>
<event>
12    1  0.2083715E-007  0.2367716E+04  0.7818608E-02  0.8451690E-01
         -2   -1    0    0    0  501 -0.00000000000E+00  0.00000000000E+00  0.73512497214E+03  0.73512497214E+03  0.00000000000E+00 0.  1.
          2   -1    0    0  501    0  0.00000000000E+00 -0.00000000000E+00 -0.19065058009E+04  0.19065058009E+04  0.00000000000E+00 0. -1.
         23    2    1    2    0    0  0.30810347620E+03  0.65388309255E+03  0.28549138115E+03  0.78251887641E+03  0.91321478579E+02 0.  0.
        254    2    1    2    0    0 -0.30810347620E+03 -0.65388309255E+03 -0.14568722099E+04  0.18591118967E+04  0.90073834016E+03 0.  0.
        -24    2    4    4    0    0  0.16585413572E+03 -0.45919483913E+03 -0.26682049078E+03  0.56107152264E+03  0.72391882132E+02 0.  0.
         24    2    4    4    0    0 -0.47395761193E+03 -0.19468825342E+03 -0.11900517192E+04  0.12980403740E+04  0.78398879924E+02 0.  0.
         13    1    3    3    0    0  0.23123667793E+03  0.55324800276E+03  0.25885193710E+03  0.65311413943E+03  0.00000000000E+00 0.  1.
        -13    1    3    3    0    0  0.76866798272E+02  0.10063508979E+03  0.26639444054E+02  0.12940473698E+03  0.00000000000E+00 0. -1.
          2    1    6    6  502    0 -0.47542471131E+03 -0.19313110704E+03 -0.11899692884E+04  0.12958993742E+04  0.00000000000E+00 0. -1.
          3    1    5    5  503    0  0.14553704024E+03 -0.36749635077E+03 -0.24367100057E+03  0.46433840508E+03  0.00000000000E+00 0. -1.
         -4    1    5    5    0  503  0.20317095478E+02 -0.91698488361E+02 -0.23149490208E+02  0.96733117562E+02  0.00000000000E+00 0.  1.
         -1    1    6    6    0  502  0.14670993820E+01 -0.15571463824E+01 -0.82430741663E-01  0.21409998318E+01  0.00000000000E+00 0.  1.
<mgrwt>
<rscale>  0 0.23677162E+04</rscale>
<asrwt>0</asrwt>
<pdfrwt beam="1">  1        2 0.29330858E+00 0.23677162E+04</pdfrwt>
<pdfrwt beam="2">  1       -2 0.11309615E+00 0.23677162E+04</pdfrwt>
<totfact> 0.41699968E+00</totfact>
</mgrwt>
</event>
<event>
12    1  0.2083715E-007  0.2418300E+04  0.7818608E-02  0.8432684E-01
          2   -1    0    0  501    0  0.00000000000E+00  0.00000000000E+00  0.88448733619E+03  0.88448733619E+03  0.00000000000E+00 0. -1.
         -2   -1    0    0    0  501 -0.00000000000E+00 -0.00000000000E+00 -0.16529840485E+04  0.16529840485E+04  0.00000000000E+00 0.  1.
         23    2    1    2    0    0 -0.94200472715E+03 -0.38990413094E+03 -0.11582932739E+03  0.10301524332E+04  0.91648596950E+02 0.  0.
        254    2    1    2    0    0  0.94200472715E+03  0.38990413094E+03 -0.65266738493E+03  0.15073189515E+04  0.89813004001E+03 0.  0.
        -24    2    4    4    0    0  0.10171140867E+04  0.29269868054E+03 -0.26705636465E+03  0.10943657839E+04  0.78254610954E+02 0.  0.
         24    2    4    4    0    0 -0.75109359587E+02  0.97205450394E+02 -0.38561102027E+03  0.41295316751E+03  0.82122738104E+02 0.  0.
         13    1    3    3    0    0 -0.13395290402E+03 -0.45768899721E+02  0.14329272172E+02  0.14227965672E+03  0.00000000000E+00 0. -1.
        -13    1    3    3    0    0 -0.80805182314E+03 -0.34413523122E+03 -0.13015859956E+03  0.88787277652E+03  0.00000000000E+00 0.  1.
          4    1    6    6  502    0 -0.39861221689E+02  0.16954625807E+02 -0.23274133802E+03  0.23673805515E+03  0.00000000000E+00 0. -1.
          3    1    5    5  503    0  0.95214729058E+03  0.28428900497E+03 -0.26672112480E+03  0.10288560928E+04  0.00000000000E+00 0. -1.
         -4    1    5    5    0  503  0.64966796163E+02  0.84096755749E+01 -0.33523985112E+00  0.65509691136E+02  0.00000000000E+00 0.  1.
         -3    1    6    6    0  502 -0.35248137898E+02  0.80250824587E+02 -0.15286968225E+03  0.17621511236E+03  0.00000000000E+00 0.  1.
<mgrwt>
<rscale>  0 0.24182998E+04</rscale>
<asrwt>0</asrwt>
<pdfrwt beam="1">  1        2 0.13607498E+00 0.24182998E+04</pdfrwt>
<pdfrwt beam="2">  1       -2 0.25430524E+00 0.24182998E+04</pdfrwt>
<totfact> 0.16307950E+00</totfact>
</mgrwt>
</event>
<event>
12    1  0.2083715E-007  0.2124170E+04  0.7818608E-02  0.8550670E-01
         -1   -1    0    0    0  501 -0.00000000000E+00  0.00000000000E+00  0.98772790462E+03  0.98772790462E+03  0.00000000000E+00 0.  1.
          1   -1    0    0  501    0  0.00000000000E+00 -0.00000000000E+00 -0.11420399898E+04  0.11420399898E+04  0.00000000000E+00 0. -1.
         23    2    1    2    0    0 -0.42768218819E+02 -0.65821859745E+03 -0.63036779071E+03  0.91681113194E+03  0.89990319006E+02 0.  0.
        254    2    1    2    0    0  0.42768218819E+02  0.65821859745E+03  0.47605570555E+03  0.12129567625E+04  0.89975231605E+03 0.  0.
        -24    2    4    4    0    0 -0.16541685589E+03  0.48570889764E+03 -0.13794398591E+03  0.53722071237E+03  0.79383128481E+02 0.  0.
         24    2    4    4    0    0  0.20818507471E+03  0.17250969981E+03  0.61399969146E+03  0.67573605009E+03  0.80764883591E+02 0.  0.
         13    1    3    3    0    0  0.18802961595E+02 -0.15618257243E+03 -0.11629328091E+03  0.19562892036E+03  0.00000000000E+00 0.  1.
        -13    1    3    3    0    0 -0.61571180414E+02 -0.50203602502E+03 -0.51407450981E+03  0.72118221158E+03  0.00000000000E+00 0. -1.
          4    1    6    6  502    0  0.13775588492E+03  0.11433075744E+03  0.49030924837E+03  0.52196873945E+03  0.00000000000E+00 0. -1.
          3    1    5    5  503    0 -0.97079190114E+02  0.38684796071E+03 -0.11201654907E+03  0.41427457215E+03  0.00000000000E+00 0. -1.
         -4    1    5    5    0  503 -0.68337665778E+02  0.98860936924E+02 -0.25927436837E+02  0.12294614022E+03  0.00000000000E+00 0.  1.
         -3    1    6    6    0  502  0.70429189795E+02  0.58178942371E+02  0.12369044309E+03  0.15376731064E+03  0.00000000000E+00 0.  1.
<mgrwt>
<rscale>  0 0.21241702E+04</rscale>
<asrwt>0</asrwt>
<pdfrwt beam="1">  1        1 0.17569846E+00 0.21241702E+04</pdfrwt>
<pdfrwt beam="2">  1       -1 0.15195814E+00 0.21241702E+04</pdfrwt>
<totfact> 0.36458128E+00</totfact>
</mgrwt>
</event>
<event>
12    1  0.2083715E-007  0.1517846E+04  0.7818608E-02  0.8872671E-01
          1   -1    0    0  501    0  0.00000000000E+00  0.00000000000E+00  0.23800564011E+04  0.23800564011E+04  0.00000000000E+00 0. -1.
         -1   -1    0    0    0  501 -0.00000000000E+00 -0.00000000000E+00 -0.24199603924E+03  0.24199603924E+03  0.00000000000E+00 0.  1.
         23    2    1    2    0    0  0.23886449310E+03 -0.14643585911E+03  0.10187511205E+02  0.29487880137E+03  0.91378417664E+02 0.  0.
        254    2    1    2    0    0 -0.23886449310E+03  0.14643585911E+03  0.21278728506E+04  0.23271736389E+04  0.89966358736E+03 0.  0.
        -24    2    4    4    0    0 -0.47926754910E+03 -0.18679191984E+03  0.10829775036E+04  0.12015752912E+04  0.79713877473E+02 0.  0.
         24    2    4    4    0    0  0.24040305600E+03  0.33322777895E+03  0.10448953470E+04  0.11255983477E+04  0.79567406070E+02 0.  0.
         11    1    3    3    0    0  0.26982415969E+02 -0.21716989538E+02  0.33152179325E+02  0.47945233341E+02  0.00000000000E+00 0. -1.
        -11    1    3    3    0    0  0.21188207714E+03 -0.12471886957E+03 -0.22964668120E+02  0.24693356803E+03  0.00000000000E+00 0.  1.
          4    1    6    6  502    0  0.17658843979E+03  0.27014587782E+03  0.72987120554E+03  0.79804401448E+03  0.00000000000E+00 0. -1.
          1    1    5    5  503    0 -0.12051520873E+03 -0.84318662447E+02  0.28702748041E+03  0.32251872331E+03  0.00000000000E+00 0. -1.
         -2    1    5    5    0  503 -0.35875234037E+03 -0.10247325739E+03  0.79595002320E+03  0.87905656794E+03  0.00000000000E+00 0.  1.
         -3    1    6    6    0  502  0.63814616209E+02  0.63081901134E+02  0.31502414148E+03  0.32755433322E+03  0.00000000000E+00 0.  1.
<mgrwt>
<rscale>  0 0.15178461E+04</rscale>
<asrwt>0</asrwt>
<pdfrwt beam="1">  1        1 0.36616251E+00 0.15178461E+04</pdfrwt>
<pdfrwt beam="2">  1       -1 0.37230161E-01 0.15178461E+04</pdfrwt>
<totfact> 0.11016452E+01</totfact>
</mgrwt>
</event>
<event>
12    1  0.2083715E-007  0.2007892E+04  0.7818608E-02  0.8602940E-01
         -3   -1    0    0    0  501 -0.00000000000E+00  0.00000000000E+00  0.27619856052E+03  0.27619856052E+03  0.00000000000E+00 0.  1.
          3   -1    0    0  501    0  0.00000000000E+00 -0.00000000000E+00 -0.36492120704E+04  0.36492120704E+04  0.00000000000E+00 0. -1.
         23    2    1    2    0    0  0.30248755586E+03 -0.66113690733E+02  0.88182216155E+02  0.33537740757E+03  0.93979576024E+02 0.  0.
        254    2    1    2    0    0 -0.30248755586E+03  0.66113690733E+02 -0.34611957260E+04  0.35900332233E+04  0.90143937636E+03 0.  0.
        -24    2    4    4    0    0  0.14035493932E+03 -0.23014172483E+03 -0.44701655553E+03  0.52809510358E+03  0.79974464741E+02 0.  0.
         24    2    4    4    0    0 -0.44284249519E+03  0.29625541556E+03 -0.30141791705E+04  0.30619381198E+04  0.79449547340E+02 0.  0.
         13    1    3    3    0    0  0.10556909245E+03  0.49674478268E+01 -0.59081817760E+01  0.10585091134E+03  0.00000000000E+00 0. -1.
        -13    1    3    3    0    0  0.19691846341E+03 -0.71081138560E+02  0.94090397931E+02  0.22952649623E+03  0.00000000000E+00 0.  1.
          2    1    6    6  502    0 -0.41958274856E+03  0.25747991299E+03 -0.26983692221E+04  0.27429075900E+04  0.00000000000E+00 0. -1.
          3    1    5    5  503    0  0.70233259468E+02 -0.52484712624E+02 -0.10940707402E+03  0.14020436384E+03  0.00000000000E+00 0. -1.
         -4    1    5    5    0  503  0.70121679857E+02 -0.17765701220E+03 -0.33760948151E+03  0.38789073974E+03  0.00000000000E+00 0.  1.
         -1    1    6    6    0  502 -0.23259746621E+02  0.38775502570E+02 -0.31580994842E+03  0.31903052978E+03  0.00000000000E+00 0.  1.
<mgrwt>
<rscale>  0 0.20078916E+04</rscale>
<asrwt>0</asrwt>
<pdfrwt beam="1">  1        3 0.56141724E+00 0.20078916E+04</pdfrwt>
<pdfrwt beam="2">  1       -3 0.42492086E-01 0.20078916E+04</pdfrwt>
<totfact> 0.23306327E-02</totfact>
</mgrwt>
</event>
<event>
12    1  0.2083715E-007  0.2275527E+04  0.7818608E-02  0.8487633E-01
         -1   -1    0    0    0  501 -0.00000000000E+00  0.00000000000E+00  0.18441982405E+04  0.18441982405E+04  0.00000000000E+00 0.  1.
          1   -1    0    0  501    0  0.00000000000E+00 -0.00000000000E+00 -0.70193439031E+03  0.70193439031E+03  0.00000000000E+00 0. -1.
         23    2    1    2    0    0  0.85423138007E+03  0.43005096036E+03  0.45754609330E+03  0.10641882759E+04  0.92158449676E+02 0.  0.
        254    2    1    2    0    0 -0.85423138007E+03 -0.43005096036E+03  0.68471775687E+03  0.14819443549E+04  0.90147966435E+03 0.  0.
        -24    2    4    4    0    0 -0.84404936158E+02  0.25292324783E+03  0.10021800866E+03  0.29570125678E+03  0.79380233409E+02 0.  0.
         24    2    4    4    0    0 -0.76982644391E+03 -0.68297420819E+03  0.58449974821E+03  0.11862430981E+04  0.80288289216E+02 0.  0.
         11    1    3    3    0    0  0.37168671583E+03  0.23302728432E+03  0.23200833346E+03  0.49626665892E+03  0.00000000000E+00 0.  1.
        -11    1    3    3    0    0  0.48254466424E+03  0.19702367604E+03  0.22553775984E+03  0.56792161697E+03  0.00000000000E+00 0. -1.
          4    1    6    6  502    0 -0.17237255143E+03 -0.18621264945E+03  0.11673959874E+03  0.27931269434E+03  0.00000000000E+00 0. -1.
          1    1    5    5  503    0 -0.53199763061E+02  0.53914579271E+02  0.16281888435E+02  0.77473198841E+02  0.00000000000E+00 0. -1.
         -2    1    5    5    0  503 -0.31205173098E+02  0.19900866856E+03  0.83936120230E+02  0.21822805793E+03  0.00000000000E+00 0.  1.
         -3    1    6    6    0  502 -0.59745389248E+03 -0.49676155874E+03  0.46776014947E+03  0.90693040379E+03  0.00000000000E+00 0.  1.
<mgrwt>
<rscale>  0 0.22755273E+04</rscale>
<asrwt>0</asrwt>
<pdfrwt beam="1">  1        1 0.10798991E+00 0.22755273E+04</pdfrwt>
<pdfrwt beam="2">  1       -1 0.28372280E+00 0.22755273E+04</pdfrwt>
<totfact> 0.10348200E+00</totfact>
</mgrwt>
</event>
<event>
12    1  0.2083715E-007  0.1624173E+04  0.7818608E-02  0.8805834E-01
         -2   -1    0    0    0  501 -0.00000000000E+00  0.00000000000E+00  0.28000612232E+03  0.28000612232E+03  0.00000000000E+00 0.  1.
          2   -1    0    0  501    0  0.00000000000E+00 -0.00000000000E+00 -0.23552489374E+04  0.23552489374E+04  0.00000000000E+00 0. -1.
         23    2    1    2    0    0  0.20600609640E+03  0.41110938284E+03 -0.12294315995E+04  0.13158118353E+04  0.91702190555E+02 0.  0.
        254    2    1    2    0    0 -0.20600609640E+03 -0.41110938284E+03 -0.84581121556E+03  0.13194432244E+04  0.90226624316E+03 0.  0.
        -24    2    4    4    0    0  0.56967830823E+02 -0.53549699901E+02 -0.86076746665E+03  0.86805834013E+03  0.80571372876E+02 0.  0.
         24    2    4    4    0    0 -0.26297392722E+03 -0.35755968294E+03  0.14956251084E+02  0.45138488423E+03  0.80749061963E+02 0.  0.
         11    1    3    3    0    0  0.21381301794E+03  0.38845579614E+03 -0.11864785323E+04  0.12666274984E+04  0.00000000000E+00 0. -1.
        -11    1    3    3    0    0 -0.78069215387E+01  0.22653586700E+02 -0.42953067212E+02  0.49184336909E+02  0.00000000000E+00 0.  1.
          2    1    6    6  502    0 -0.12279607781E+03 -0.15166350348E+03 -0.32469771971E+02  0.19782563308E+03  0.00000000000E+00 0. -1.
          3    1    5    5  503    0  0.77338526403E+02 -0.35912636601E+02 -0.66552047505E+03  0.67096085418E+03  0.00000000000E+00 0. -1.
         -4    1    5    5    0  503 -0.20370695580E+02 -0.17637063300E+02 -0.19524699160E+03  0.19709748595E+03  0.00000000000E+00 0.  1.
         -1    1    6    6    0  502 -0.14017784941E+03 -0.20589617946E+03  0.47426023054E+02  0.25355925115E+03  0.00000000000E+00 0.  1.
<mgrwt>
<rscale>  0 0.16241726E+04</rscale>
<asrwt>0</asrwt>
<pdfrwt beam="1">  1        2 0.36234600E+00 0.16241726E+04</pdfrwt>
<pdfrwt beam="2">  1       -2 0.43077864E-01 0.16241726E+04</pdfrwt>
<totfact> 0.20649249E+01</totfact>
</mgrwt>
</event>
<event>
12    1  0.2083715E-007  0.2663875E+04  0.7818608E-02  0.8346822E-01
         -2   -1    0    0    0  501 -0.00000000000E+00  0.00000000000E+00  0.20747756287E+04  0.20747756287E+04  0.00000000000E+00 0.  1.
          2   -1    0    0  501    0  0.00000000000E+00 -0.00000000000E+00 -0.85505983757E+03  0.85505983757E+03  0.00000000000E+00 0. -1.
         23    2    1    2    0    0 -0.60967790458E+03 -0.34314645722E+03  0.15823670441E+04  0.17325180556E+04  0.90976438252E+02 0.  0.
        254    2    1    2    0    0  0.60967790458E+03  0.34314645722E+03 -0.36265125292E+03  0.11973174107E+04  0.90144129721E+03 0.  0.
        -24    2    4    4    0    0  0.21066972575E+03  0.16034637312E+03 -0.62142852065E+03  0.68030892734E+03  0.80957628581E+02 0.  0.
         24    2    4    4    0    0  0.39900817884E+03  0.18280008410E+03  0.25877726773E+03  0.51700848337E+03  0.87799203100E+02 0.  0.
         13    1    3    3    0    0 -0.53173489688E+03 -0.30164109144E+03  0.14476514612E+04  0.15714401362E+04  0.00000000000E+00 0.  1.
        -13    1    3    3    0    0 -0.77943007707E+02 -0.41505365780E+02  0.13471558288E+03  0.16107791938E+03  0.00000000000E+00 0. -1.
          2    1    6    6  502    0  0.35163953173E+03  0.17974797350E+03  0.25343249264E+03  0.46924164625E+03  0.00000000000E+00 0. -1.
          1    1    5    5  503    0  0.18906150662E+03  0.12110719760E+03 -0.56687873504E+03  0.60972346751E+03  0.00000000000E+00 0. -1.
         -2    1    5    5    0  503  0.21608219130E+02  0.39239175517E+02 -0.54549785610E+02  0.70585459829E+02  0.00000000000E+00 0.  1.
         -1    1    6    6    0  502  0.47368647110E+02  0.30521105987E+01  0.53447750856E+01  0.47766837124E+02  0.00000000000E+00 0.  1.
<mgrwt>
<rscale>  0 0.26638749E+04</rscale>
<asrwt>0</asrwt>
<pdfrwt beam="1">  1        2 0.13154767E+00 0.26638749E+04</pdfrwt>
<pdfrwt beam="2">  1       -2 0.31919625E+00 0.26638749E+04</pdfrwt>
<totfact> 0.67097782E-01</totfact>
</mgrwt>
</event>
<event>
12    1  0.2083715E-007  0.2453797E+04  0.7818608E-02  0.8419633E-01
         -1   -1    0    0    0  501 -0.00000000000E+00  0.00000000000E+00  0.18946722763E+04  0.18946722763E+04  0.00000000000E+00 0.  1.
          1   -1    0    0  501    0  0.00000000000E+00 -0.00000000000E+00 -0.79448066599E+03  0.79448066599E+03  0.00000000000E+00 0. -1.
         23    2    1    2    0    0  0.51324634254E+03 -0.86353650569E+03  0.84431388004E+03  0.13156303610E+04  0.94340945349E+02 0.  0.
        254    2    1    2    0    0 -0.51324634254E+03  0.86353650569E+03  0.25587773022E+03  0.13735225812E+04  0.90109586814E+03 0.  0.
        -24    2    4    4    0    0 -0.75394855100E+03  0.60073532488E+03  0.84901386878E+02  0.97122875014E+03  0.82193013690E+02 0.  0.
         24    2    4    4    0    0  0.24070220846E+03  0.26280118082E+03  0.17097634335E+03  0.40229383111E+03  0.74869237778E+02 0.  0.
         11    1    3    3    0    0  0.15600147258E+03 -0.31061906108E+03  0.24362434059E+03  0.42446846748E+03  0.00000000000E+00 0. -1.
        -11    1    3    3    0    0  0.35724486996E+03 -0.55291744461E+03  0.60068953945E+03  0.89116189353E+03  0.00000000000E+00 0.  1.
          4    1    6    6  502    0  0.21219093792E+03  0.19301390384E+03  0.15167260629E+03  0.32447486915E+03  0.00000000000E+00 0. -1.
          3    1    5    5  503    0 -0.63934475294E+03  0.54480533256E+03  0.74468712525E+02  0.84327940366E+03  0.00000000000E+00 0. -1.
         -4    1    5    5    0  503 -0.11460379806E+03  0.55929992318E+02  0.10432674353E+02  0.12794934648E+03  0.00000000000E+00 0.  1.
         -3    1    6    6    0  502  0.28511270540E+02  0.69787276976E+02  0.19303737058E+02  0.77818961956E+02  0.00000000000E+00 0.  1.
<mgrwt>
<rscale>  0 0.24537975E+04</rscale>
<asrwt>0</asrwt>
<pdfrwt beam="1">  1        1 0.12222780E+00 0.24537975E+04</pdfrwt>
<pdfrwt beam="2">  1       -1 0.29148804E+00 0.24537975E+04</pdfrwt>
<totfact> 0.74783869E-01</totfact>
</mgrwt>
</event>
<event>
12    1  0.2083715E-007  0.1733531E+04  0.7818608E-02  0.8742468E-01
          1   -1    0    0  501    0  0.00000000000E+00  0.00000000000E+00  0.80500748212E+03  0.80500748212E+03  0.00000000000E+00 0. -1.
         -1   -1    0    0    0  501 -0.00000000000E+00 -0.00000000000E+00 -0.93326169560E+03  0.93326169560E+03  0.00000000000E+00 0.  1.
         23    2    1    2    0    0 -0.28688456157E+03 -0.56053453870E+03 -0.45764645604E+02  0.63750920815E+03  0.88441319256E+02 0.  0.
        254    2    1    2    0    0  0.28688456157E+03  0.56053453870E+03 -0.82489567876E+02  0.11007599696E+04  0.89909190912E+03 0.  0.
        -24    2    4    4    0    0  0.14794153197E+03 -0.22997221693E+03  0.29501570939E+02  0.28628503564E+03  0.79466102836E+02 0.  0.
         24    2    4    4    0    0  0.13894302960E+03  0.79050675563E+03 -0.11199113881E+03  0.81447493392E+03  0.81371411711E+02 0.  0.
         13    1    3    3    0    0 -0.22627928588E+03 -0.50591197560E+03 -0.42956985052E+02  0.55587277756E+03  0.00000000000E+00 0.  1.
        -13    1    3    3    0    0 -0.60605275698E+02 -0.54622563098E+02 -0.28076605523E+01  0.81636430591E+02  0.00000000000E+00 0. -1.
          2    1    6    6  502    0  0.13116457521E+03  0.52570985575E+03 -0.74362893241E+02  0.54690477975E+03  0.00000000000E+00 0. -1.
          1    1    5    5  503    0  0.29214817538E+02 -0.95286701713E+02  0.37691672983E+02  0.10655385164E+03  0.00000000000E+00 0. -1.
         -2    1    5    5    0  503  0.11872671443E+03 -0.13468551522E+03 -0.81901020446E+01  0.17973118400E+03  0.00000000000E+00 0.  1.
         -1    1    6    6    0  502  0.77784543919E+01  0.26479689988E+03 -0.37628245573E+02  0.26757015417E+03  0.00000000000E+00 0.  1.
<mgrwt>
<rscale>  0 0.17335312E+04</rscale>
<asrwt>0</asrwt>
<pdfrwt beam="1">  1        1 0.12384731E+00 0.17335312E+04</pdfrwt>
<pdfrwt beam="2">  1       -1 0.14357872E+00 0.17335312E+04</pdfrwt>
<totfact> 0.81472172E+00</totfact>
</mgrwt>
</event>
<event>
12    1  0.2083715E-007  0.1688844E+04  0.7818608E-02  0.8767753E-01
         -1   -1    0    0    0  501 -0.00000000000E+00  0.00000000000E+00  0.32687631527E+03  0.32687631527E+03  0.00000000000E+00 0.  1.
          1   -1    0    0  501    0  0.00000000000E+00 -0.00000000000E+00 -0.21814014149E+04  0.21814014149E+04  0.00000000000E+00 0. -1.
         23    2    1    2    0    0  0.56963567879E+03 -0.24720406301E+02 -0.38739605007E+03  0.69689364345E+03  0.10241653007E+03 0.  0.
        254    2    1    2    0    0 -0.56963567879E+03  0.24720406301E+02 -0.14671290496E+04  0.18113840868E+04  0.89640881107E+03 0.  0.
        -24    2    4    4    0    0 -0.70517390407E+03 -0.68975197582E+02 -0.14662702251E+04  0.16303526879E+04  0.77933953968E+02 0.  0.
         24    2    4    4    0    0  0.13553822528E+03  0.93695603884E+02 -0.85882449572E+00  0.18103139882E+03  0.74981018134E+02 0.  0.
         11    1    3    3    0    0  0.19965895114E+03  0.19193402662E+01 -0.79837510464E+02  0.21503815641E+03  0.00000000000E+00 0. -1.
        -11    1    3    3    0    0  0.36997672765E+03 -0.26639746568E+02 -0.30755853961E+03  0.48185548703E+03  0.00000000000E+00 0.  1.
          2    1    6    6  502    0  0.65929207854E+02  0.15918032830E+02 -0.27692666418E+02  0.73259320164E+02  0.00000000000E+00 0. -1.
          3    1    5    5  503    0 -0.12942066652E+03  0.14162987370E+02 -0.23772655144E+03  0.27104282391E+03  0.00000000000E+00 0. -1.
         -4    1    5    5    0  503 -0.57575323755E+03 -0.83138184952E+02 -0.12285436737E+04  0.13593098640E+04  0.00000000000E+00 0.  1.
         -1    1    6    6    0  502  0.69609017430E+02  0.77777571053E+02  0.26833841923E+02  0.10777207866E+03  0.00000000000E+00 0.  1.
<mgrwt>
<rscale>  0 0.16888439E+04</rscale>
<asrwt>0</asrwt>
<pdfrwt beam="1">  1        1 0.33560022E+00 0.16888439E+04</pdfrwt>
<pdfrwt beam="2">  1       -1 0.50288664E-01 0.16888439E+04</pdfrwt>
<totfact> 0.84876054E+00</totfact>
</mgrwt>
</event>
<event>
12    1  0.2083715E-007  0.2121649E+04  0.7818608E-02  0.8551766E-01
         -2   -1    0    0    0  501 -0.00000000000E+00  0.00000000000E+00  0.12987786845E+04  0.12987786845E+04  0.00000000000E+00 0.  1.
          2   -1    0    0  501    0  0.00000000000E+00 -0.00000000000E+00 -0.86646653141E+03  0.86646653141E+03  0.00000000000E+00 0. -1.
         23    2    1    2    0    0  0.29540620306E+02 -0.83274159293E+03  0.42244348119E+03  0.93878377267E+03  0.92332378791E+02 0.  0.
        254    2    1    2    0    0 -0.29540620306E+02  0.83274159293E+03  0.98686718481E+01  0.12264614432E+04  0.89987725393E+03 0.  0.
        -24    2    4    4    0    0 -0.44510583237E+02  0.79147030337E+03  0.35310089392E+03  0.87138567465E+03  0.78907031060E+02 0.  0.
         24    2    4    4    0    0  0.14969962931E+02  0.41271289559E+02 -0.34323222207E+03  0.35507576856E+03  0.79643104010E+02 0.  0.
         11    1    3    3    0    0  0.54444702887E+02 -0.29598230148E+03  0.15791351762E+03  0.33986236553E+03  0.00000000000E+00 0.  1.
        -11    1    3    3    0    0 -0.24904082581E+02 -0.53675929146E+03  0.26452996357E+03  0.59892140713E+03  0.00000000000E+00 0. -1.
          2    1    6    6  502    0  0.39049056738E+02 -0.58424380016E+00 -0.10567170436E+03  0.11265735340E+03  0.00000000000E+00 0. -1.
          1    1    5    5  503    0 -0.61479397187E+02  0.73672999144E+03  0.32549511429E+03  0.80777340015E+03  0.00000000000E+00 0. -1.
         -2    1    5    5    0  503  0.16968813950E+02  0.54740311927E+02  0.27605779632E+02  0.63612274491E+02  0.00000000000E+00 0.  1.
         -1    1    6    6    0  502 -0.24079093807E+02  0.41855533359E+02 -0.23756051772E+03  0.24241841516E+03  0.00000000000E+00 0.  1.
<mgrwt>
<rscale>  0 0.21216487E+04</rscale>
<asrwt>0</asrwt>
<pdfrwt beam="1">  1        2 0.13330254E+00 0.21216487E+04</pdfrwt>
<pdfrwt beam="2">  1       -2 0.19981210E+00 0.21216487E+04</pdfrwt>
<totfact> 0.37914389E+00</totfact>
</mgrwt>
</event>
<event>
12    1  0.2083715E-007  0.2053127E+04  0.7818608E-02  0.8582177E-01
          1   -1    0    0  501    0  0.00000000000E+00  0.00000000000E+00  0.28100210743E+04  0.28100210743E+04  0.00000000000E+00 0. -1.
         -1   -1    0    0    0  501 -0.00000000000E+00 -0.00000000000E+00 -0.37502666420E+03  0.37502666420E+03  0.00000000000E+00 0.  1.
         23    2    1    2    0    0  0.20243804169E+01  0.82611238608E+01  0.22689649197E+04  0.22707714067E+04  0.90158918342E+02 0.  0.
        254    2    1    2    0    0 -0.20243804169E+01 -0.82611238608E+01  0.16602949048E+03  0.91427633184E+03  0.89903452379E+03 0.  0.
        -24    2    4    4    0    0  0.33285973352E+03 -0.32863811347E+02  0.37655362299E+03  0.50998580812E+03  0.80107809844E+02 0.  0.
         24    2    4    4    0    0 -0.33488411394E+03  0.24602687486E+02 -0.21052413251E+03  0.40429052372E+03  0.79860849002E+02 0.  0.
         13    1    3    3    0    0 -0.34334121710E+02  0.23073763013E+02  0.64115111246E+03  0.64248422507E+03  0.00000000000E+00 0.  1.
        -13    1    3    3    0    0  0.36358502127E+02 -0.14812639152E+02  0.16278138072E+04  0.16282871816E+04  0.00000000000E+00 0. -1.
          2    1    6    6  502    0 -0.41120117215E+02  0.10378436093E+02  0.32479989184E+00  0.42410865006E+02  0.00000000000E+00 0. -1.
          1    1    5    5  503    0  0.10185370165E+03  0.97344529686E+01  0.70837806132E+02  0.12444649811E+03  0.00000000000E+00 0. -1.
         -2    1    5    5    0  503  0.23100603187E+03 -0.42598264315E+02  0.30571581686E+03  0.38553931001E+03  0.00000000000E+00 0.  1.
         -1    1    6    6    0  502 -0.29376399672E+03  0.14224251393E+02 -0.21084893240E+03  0.36187965872E+03  0.00000000000E+00 0.  1.
<mgrwt>
<rscale>  0 0.20531272E+04</rscale>
<asrwt>0</asrwt>
<pdfrwt beam="1">  1        1 0.43231092E+00 0.20531272E+04</pdfrwt>
<pdfrwt beam="2">  1       -1 0.57696412E-01 0.20531272E+04</pdfrwt>
<totfact> 0.23057616E+00</totfact>
</mgrwt>
</event>
<event>
12    1  0.2083715E-007  0.2179154E+04  0.7818608E-02  0.8527155E-01
         -2   -1    0    0    0  501 -0.00000000000E+00  0.00000000000E+00  0.45025033816E+03  0.45025033816E+03  0.00000000000E+00 0.  1.
          2   -1    0    0  501    0  0.00000000000E+00 -0.00000000000E+00 -0.26367071265E+04  0.26367071265E+04  0.00000000000E+00 0. -1.
         23    2    1    2    0    0 -0.56987198385E+03  0.11117163800E+03 -0.18856059702E+04  0.19748189398E+04  0.85362513938E+02 0.  0.
        254    2    1    2    0    0  0.56987198385E+03 -0.11117163800E+03 -0.30085081814E+03  0.11121385249E+04  0.89957082699E+03 0.  0.
        -24    2    4    4    0    0  0.77049890846E+03  0.74991901891E+02 -0.15697519194E+03  0.79392273410E+03  0.79873296833E+02 0.  0.
         24    2    4    4    0    0 -0.20062692461E+03 -0.18616353989E+03 -0.14387562620E+03  0.31821579083E+03  0.75186882200E+02 0.  0.
         11    1    3    3    0    0 -0.12492509651E+03  0.61166828819E+02 -0.45236908650E+03  0.47327101232E+03  0.00000000000E+00 0.  1.
        -11    1    3    3    0    0 -0.44494688734E+03  0.50004809183E+02 -0.14332368837E+04  0.15015479274E+04  0.00000000000E+00 0. -1.
          2    1    6    6  502    0 -0.19892099671E+03 -0.15908264808E+03 -0.14044943551E+03  0.29086576936E+03  0.00000000000E+00 0. -1.
          3    1    5    5  503    0  0.75711767458E+03  0.63117558062E+02 -0.14847608900E+03  0.77411636612E+03  0.00000000000E+00 0. -1.
         -4    1    5    5    0  503  0.13381233878E+02  0.11874343829E+02 -0.84991029405E+01  0.19806367973E+02  0.00000000000E+00 0.  1.
         -1    1    6    6    0  502 -0.17059278975E+01 -0.27080891814E+02 -0.34261906854E+01  0.27350021463E+02  0.00000000000E+00 0.  1.
<mgrwt>
<rscale>  0 0.21791542E+04</rscale>
<asrwt>0</asrwt>
<pdfrwt beam="1">  1        2 0.40564725E+00 0.21791542E+04</pdfrwt>
<pdfrwt beam="2">  1       -2 0.69269283E-01 0.21791542E+04</pdfrwt>
<totfact> 0.50441620E+00</totfact>
</mgrwt>
</event>
<event>
12    1  0.2083715E-007  0.2460351E+04  0.7818608E-02  0.8417249E-01
          2   -1    0    0  501    0  0.00000000000E+00  0.00000000000E+00  0.24028821189E+04  0.24028821189E+04  0.00000000000E+00 0. -1.
         -2   -1    0    0    0  501 -0.00000000000E+00 -0.00000000000E+00 -0.62979842660E+03  0.62979842660E+03  0.00000000000E+00 0.  1.
         23    2    1    2    0    0 -0.46314512583E+03 -0.83401485104E+03  0.13563865845E+04  0.16607237697E+04  0.90192535686E+02 0.  0.
        254    2    1    2    0    0  0.46314512583E+03  0.83401485104E+03  0.41669710782E+03  0.13719567758E+04  0.89361330314E+03 0.  0.
        -24    2    4    4    0    0 -0.11279757771E+03 -0.27939640048E+02  0.29231198759E+03  0.32453194350E+03  0.79817086119E+02 0.  0.
         24    2    4    4    0    0  0.57594270354E+03  0.86195449108E+03  0.12438512023E+03  0.10474248323E+04  0.83376127501E+02 0.  0.
         13    1    3    3    0    0 -0.28090887604E+03 -0.59177386808E+03  0.92014943013E+03  0.11295047947E+04  0.00000000000E+00 0. -1.
        -13    1    3    3    0    0 -0.18223624979E+03 -0.24224098296E+03  0.43623715436E+03  0.53121897501E+03  0.00000000000E+00 0.  1.
          4    1    6    6  502    0  0.26832495369E+02  0.74833494583E+02  0.20426499451E+02  0.82080914950E+02  0.00000000000E+00 0. -1.
          1    1    5    5  503    0 -0.48062234805E+02 -0.49463785396E+02  0.18427931723E+03  0.19676257581E+03  0.00000000000E+00 0. -1.
         -2    1    5    5    0  503 -0.64735342906E+02  0.21524145348E+02  0.10803267037E+03  0.12776936769E+03  0.00000000000E+00 0.  1.
         -3    1    6    6    0  502  0.54911020817E+03  0.78712099650E+03  0.10395862078E+03  0.96534391731E+03  0.00000000000E+00 0.  1.
<mgrwt>
<rscale>  0 0.24603507E+04</rscale>
<asrwt>0</asrwt>
<pdfrwt beam="1">  1        2 0.36967417E+00 0.24603507E+04</pdfrwt>
<pdfrwt beam="2">  1       -2 0.96892067E-01 0.24603507E+04</pdfrwt>
<totfact> 0.31530275E+00</totfact>
</mgrwt>
</event>
<event>
12    1  0.2372614E-007  0.4003898E+04  0.7818608E-02  0.8003761E-01
          1   -1    0    0  501    0  0.00000000000E+00  0.00000000000E+00  0.23983545870E+04  0.23983545870E+04  0.00000000000E+00 0.  1.
         -1   -1    0    0    0  501 -0.00000000000E+00 -0.00000000000E+00 -0.16710625489E+04  0.16710625489E+04  0.00000000000E+00 0. -1.
         23    2    1    2    0    0 -0.16055624642E+04  0.10017980561E+04  0.51845226677E+03  0.19641506753E+04  0.87549704469E+02 0.  0.
        254    2    1    2    0    0  0.16055624642E+04 -0.10017980561E+04  0.20883977131E+03  0.21052664607E+04  0.89838891856E+03 0.  0.
        -24    2    4    4    0    0  0.10341181359E+04 -0.24096930913E+03 -0.16985208181E+03  0.10781961927E+04  0.78681467915E+02 0.  0.
         24    2    4    4    0    0  0.57144432830E+03 -0.76082874696E+03  0.37869185312E+03  0.10270702680E+04  0.77825530949E+02 0.  0.
         11    1    3    3    0    0 -0.99877661453E+03  0.61678721496E+03  0.27776016533E+03  0.12062884828E+04  0.00000000000E+00 0.  1.
        -11    1    3    3    0    0 -0.60678584962E+03  0.38501084114E+03  0.24069210143E+03  0.75786219248E+03  0.00000000000E+00 0. -1.
          2    1    6    6  502    0  0.22537423971E+03 -0.26531364791E+03  0.10514118003E+03  0.36364755936E+03  0.00000000000E+00 0. -1.
          3    1    5    5  503    0  0.19746411541E+03 -0.47390441791E+02 -0.64127948224E+02  0.21295615650E+03  0.00000000000E+00 0. -1.
         -4    1    5    5    0  503  0.83665402044E+03 -0.19357886734E+03 -0.10572413358E+03  0.86524003619E+03  0.00000000000E+00 0.  1.
         -1    1    6    6    0  502  0.34607008859E+03 -0.49551509906E+03  0.27355067309E+03  0.66342270866E+03  0.00000000000E+00 0.  1.
<mgrwt>
<rscale>  0 0.40038984E+04</rscale>
<asrwt>0</asrwt>
<pdfrwt beam="1">  1        1 0.36897763E+00 0.40038984E+04</pdfrwt>
<pdfrwt beam="2">  1       -1 0.25708655E+00 0.40038984E+04</pdfrwt>
<totfact> 0.78116597E-02</totfact>
</mgrwt>
</event>
<event>
12    1  0.2083715E-007  0.1257588E+04  0.7818608E-02  0.9063891E-01
          2   -1    0    0  501    0  0.00000000000E+00  0.00000000000E+00  0.29604604246E+04  0.29604604246E+04  0.00000000000E+00 0. -1.
         -2   -1    0    0    0  501 -0.00000000000E+00 -0.00000000000E+00 -0.13355421463E+03  0.13355421463E+03  0.00000000000E+00 0.  1.
         23    2    1    2    0    0  0.17502925842E+03 -0.51746964886E+02  0.12694639740E+04  0.12857559097E+04  0.91194782583E+02 0.  0.
        254    2    1    2    0    0 -0.17502925842E+03  0.51746964886E+02  0.15574422360E+04  0.18082587295E+04  0.90047783141E+03 0.  0.
        -24    2    4    4    0    0 -0.12109383438E+03  0.37236940027E+03  0.13644684155E+04  0.14218178528E+04  0.80431726854E+02 0.  0.
         24    2    4    4    0    0 -0.53935424037E+02 -0.32062243538E+03  0.19297382047E+03  0.38644087672E+03  0.79936723562E+02 0.  0.
         13    1    3    3    0    0  0.32883914586E+02  0.55927265823E+00  0.77257013900E+02  0.83966129011E+02  0.00000000000E+00 0.  1.
        -13    1    3    3    0    0  0.14214534383E+03 -0.52306237544E+02  0.11922069601E+04  0.12017897807E+04  0.00000000000E+00 0. -1.
          4    1    6    6  502    0 -0.18798712927E+02 -0.76237862834E+02  0.88602046874E+02  0.11838887637E+03  0.00000000000E+00 0. -1.
          3    1    5    5  503    0 -0.55904916228E+02  0.16194109020E+03  0.45880745568E+03  0.48974948467E+03  0.00000000000E+00 0. -1.
         -4    1    5    5    0  503 -0.65188918152E+02  0.21042831007E+03  0.90566095982E+03  0.93206836813E+03  0.00000000000E+00 0.  1.
         -3    1    6    6    0  502 -0.35136711110E+02 -0.24438457255E+03  0.10437177359E+03  0.26805200035E+03  0.00000000000E+00 0.  1.
<mgrwt>
<rscale>  0 0.12575881E+04</rscale>
<asrwt>0</asrwt>
<pdfrwt beam="1">  1        2 0.45545540E+00 0.12575881E+04</pdfrwt>
<pdfrwt beam="2">  1       -2 0.20546804E-01 0.12575881E+04</pdfrwt>
<totfact> 0.37371438E+01</totfact>
</mgrwt>
</event>
<event>
12    1  0.2083715E-007  0.1390751E+04  0.7818608E-02  0.8960541E-01
         -1   -1    0    0    0  501 -0.00000000000E+00  0.00000000000E+00  0.45620757288E+03  0.45620757288E+03  0.00000000000E+00 0.  1.
          1   -1    0    0  501    0  0.00000000000E+00 -0.00000000000E+00 -0.10599270644E+04  0.10599270644E+04  0.00000000000E+00 0. -1.
         23    2    1    2    0    0 -0.17011754758E+03  0.17613106091E+03  0.16444282365E+03  0.30776817811E+03  0.87850319261E+02 0.  0.
        254    2    1    2    0    0  0.17011754758E+03 -0.17613106091E+03 -0.76816231516E+03  0.12083664591E+04  0.90006334585E+03 0.  0.
        -24    2    4    4    0    0  0.77962075157E+02  0.33571314229E+03 -0.51368473203E+03  0.62352775230E+03  0.78316376956E+02 0.  0.
         24    2    4    4    0    0  0.92155472427E+02 -0.51184420320E+03 -0.25447758313E+03  0.58483870684E+03  0.82464254400E+02 0.  0.
         13    1    3    3    0    0 -0.99134461028E+02  0.10651106117E+03  0.14697653561E+03  0.20681960626E+03  0.00000000000E+00 0.  1.
        -13    1    3    3    0    0 -0.70983086556E+02  0.69619999739E+02  0.17466288047E+02  0.10094857185E+03  0.00000000000E+00 0. -1.
          2    1    6    6  502    0  0.46445334364E+02 -0.10030347375E+03 -0.74791111018E+02  0.13346035448E+03  0.00000000000E+00 0. -1.
          1    1    5    5  503    0  0.12460366605E+02  0.18252996142E+03 -0.31460593083E+03  0.36393589994E+03  0.00000000000E+00 0. -1.
         -2    1    5    5    0  503  0.65501708552E+02  0.15318318087E+03 -0.19907880120E+03  0.25959185237E+03  0.00000000000E+00 0.  1.
         -1    1    6    6    0  502  0.45710138063E+02 -0.41154072946E+03 -0.17968647211E+03  0.45137835236E+03  0.00000000000E+00 0.  1.
<mgrwt>
<rscale>  0 0.13907505E+04</rscale>
<asrwt>0</asrwt>
<pdfrwt beam="1">  1        1 0.16306570E+00 0.13907505E+04</pdfrwt>
<pdfrwt beam="2">  1       -1 0.70185781E-01 0.13907505E+04</pdfrwt>
<totfact> 0.27232396E+01</totfact>
</mgrwt>
</event>
<event>
12    1  0.2083715E-007  0.1867545E+04  0.7818608E-02  0.8671182E-01
         -1   -1    0    0    0  501 -0.00000000000E+00  0.00000000000E+00  0.11336343001E+04  0.11336343001E+04  0.00000000000E+00 0.  1.
          1   -1    0    0  501    0  0.00000000000E+00 -0.00000000000E+00 -0.76914639937E+03  0.76914639937E+03  0.00000000000E+00 0. -1.
         23    2    1    2    0    0 -0.15538208759E+03 -0.69330568757E+03  0.21089014862E+03  0.74616297616E+03  0.86418531904E+02 0.  0.
        254    2    1    2    0    0  0.15538208759E+03  0.69330568757E+03  0.15359775210E+03  0.11566177233E+04  0.89964210597E+03 0.  0.
        -24    2    4    4    0    0  0.10644414410E+03  0.64567634414E+03 -0.27585338945E+03  0.71468845841E+03  0.80350500366E+02 0.  0.
         24    2    4    4    0    0  0.48937943497E+02  0.47629343424E+02  0.42945114155E+03  0.44192926489E+03  0.78801748164E+02 0.  0.
         11    1    3    3    0    0  0.38843891461E+01 -0.33144408673E+02 -0.46121067376E+01  0.33688452530E+02  0.00000000000E+00 0. -1.
        -11    1    3    3    0    0 -0.15926647674E+03 -0.66016127889E+03  0.21550225536E+03  0.71247452363E+03  0.00000000000E+00 0.  1.
          2    1    6    6  502    0  0.46093438201E+02  0.54786843401E+02  0.20139644870E+03  0.21374455035E+03  0.00000000000E+00 0. -1.
          3    1    5    5  503    0  0.41238846762E+02  0.35705167103E+03 -0.19017004968E+03  0.40663397062E+03  0.00000000000E+00 0. -1.
         -4    1    5    5    0  503  0.65205297334E+02  0.28862467311E+03 -0.85683339768E+02  0.30805448778E+03  0.00000000000E+00 0.  1.
         -1    1    6    6    0  502  0.28445052958E+01 -0.71574999772E+01  0.22805469286E+03  0.22818471454E+03  0.00000000000E+00 0.  1.
<mgrwt>
<rscale>  0 0.18675446E+04</rscale>
<asrwt>0</asrwt>
<pdfrwt beam="1">  1        1 0.11833021E+00 0.18675446E+04</pdfrwt>
<pdfrwt beam="2">  1       -1 0.17440528E+00 0.18675446E+04</pdfrwt>
<totfact> 0.50454861E+00</totfact>
</mgrwt>
</event>
<event>
12    1  0.2083715E-007  0.1373608E+04  0.7818608E-02  0.8973147E-01
         -1   -1    0    0    0  501 -0.00000000000E+00  0.00000000000E+00  0.20274796993E+03  0.20274796993E+03  0.00000000000E+00 0.  1.
          1   -1    0    0  501    0  0.00000000000E+00 -0.00000000000E+00 -0.23265325816E+04  0.23265325816E+04  0.00000000000E+00 0. -1.
         23    2    1    2    0    0 -0.29568517281E+03  0.22354862067E+03 -0.79772295077E+03  0.88423180306E+03  0.90001489562E+02 0.  0.
        254    2    1    2    0    0  0.29568517281E+03 -0.22354862067E+03 -0.13260616609E+04  0.16450487484E+04  0.90019006277E+03 0.  0.
        -24    2    4    4    0    0  0.26934315852E+03 -0.17972397420E+02 -0.13870602958E+04  0.14152913939E+04  0.79023549951E+02 0.  0.
         24    2    4    4    0    0  0.26342014294E+02 -0.20557622325E+03  0.60998634912E+02  0.22975735453E+03  0.78180069169E+02 0.  0.
         13    1    3    3    0    0 -0.21546437587E+03  0.16393454148E+03 -0.66566482124E+03  0.71861609041E+03  0.00000000000E+00 0. -1.
        -13    1    3    3    0    0 -0.80220796947E+02  0.59614079191E+02 -0.13205812953E+03  0.16561571265E+03  0.00000000000E+00 0.  1.
          2    1    6    6  502    0  0.40988918720E+02 -0.48062000392E+02  0.21261903124E+02  0.66649200025E+02  0.00000000000E+00 0. -1.
          3    1    5    5  503    0  0.80789945488E+02 -0.42203987749E+02 -0.44205969147E+03  0.45135901752E+03  0.00000000000E+00 0. -1.
         -4    1    5    5    0  503  0.18855321303E+03  0.24231590328E+02 -0.94500060431E+03  0.96393237639E+03  0.00000000000E+00 0.  1.
         -1    1    6    6    0  502 -0.14646904426E+02 -0.15751422286E+03  0.39736731788E+02  0.16310815450E+03  0.00000000000E+00 0.  1.
<mgrwt>
<rscale>  0 0.13736080E+04</rscale>
<asrwt>0</asrwt>
<pdfrwt beam="1">  1        1 0.35792808E+00 0.13736080E+04</pdfrwt>
<pdfrwt beam="2">  1       -1 0.31191996E-01 0.13736080E+04</pdfrwt>
<totfact> 0.16656463E+01</totfact>
</mgrwt>
</event>
<event>
12    1  0.2083715E-007  0.1944420E+04  0.7818608E-02  0.8633056E-01
         -1   -1    0    0    0  501 -0.00000000000E+00  0.00000000000E+00  0.45564876564E+03  0.45564876564E+03  0.00000000000E+00 0.  1.
          1   -1    0    0  501    0  0.00000000000E+00 -0.00000000000E+00 -0.20743884855E+04  0.20743884855E+04  0.00000000000E+00 0. -1.
         23    2    1    2    0    0 -0.37373800181E+03 -0.25947356195E+03 -0.14257837481E+04  0.14994030647E+04  0.91343476968E+02 0.  0.
        254    2    1    2    0    0  0.37373800181E+03  0.25947356195E+03 -0.19295597176E+03  0.10306341864E+04  0.90441594183E+03 0.  0.
        -24    2    4    4    0    0  0.16959915917E+02  0.14186443794E+03 -0.50820985798E+03  0.53385243374E+03  0.79422942275E+02 0.  0.
         24    2    4    4    0    0  0.35677808590E+03  0.11760912402E+03  0.31525388622E+03  0.49678175269E+03  0.79275395901E+02 0.  0.
         13    1    3    3    0    0 -0.24410146824E+03 -0.12995172295E+03 -0.95425640145E+03  0.99351812103E+03  0.00000000000E+00 0. -1.
        -13    1    3    3    0    0 -0.12963653357E+03 -0.12952183900E+03 -0.47152734661E+03  0.50588494366E+03  0.00000000000E+00 0.  1.
          4    1    6    6  502    0  0.29124800497E+03  0.12636675362E+03  0.25280065047E+03  0.40583509668E+03  0.00000000000E+00 0. -1.
          1    1    5    5  503    0  0.42339293800E+01  0.11218728109E+03 -0.25536162390E+03  0.27895066080E+03  0.00000000000E+00 0. -1.
         -4    1    5    5    0  503  0.12725986537E+02  0.29677156845E+02 -0.25284823408E+03  0.25490177294E+03  0.00000000000E+00 0.  1.
         -3    1    6    6    0  502  0.65530080933E+02 -0.87576296053E+01  0.62453235752E+02  0.90946656009E+02  0.00000000000E+00 0.  1.
<mgrwt>
<rscale>  0 0.19444203E+04</rscale>
<asrwt>0</asrwt>
<pdfrwt beam="1">  1        1 0.31913669E+00 0.19444203E+04</pdfrwt>
<pdfrwt beam="2">  1       -1 0.70099811E-01 0.19444203E+04</pdfrwt>
<totfact> 0.50865759E+00</totfact>
</mgrwt>
</event>
<event>
12    1  0.2083715E-007  0.2090823E+04  0.7818608E-02  0.8565297E-01
         -1   -1    0    0    0  501 -0.00000000000E+00  0.00000000000E+00  0.10763779289E+04  0.10763779289E+04  0.00000000000E+00 0.  1.
          1   -1    0    0  501    0  0.00000000000E+00 -0.00000000000E+00 -0.10153355475E+04  0.10153355475E+04  0.00000000000E+00 0. -1.
         23    2    1    2    0    0  0.83606989355E+03  0.18278087395E+01 -0.12171735241E+03  0.84984388786E+03  0.91669580930E+02 0.  0.
        254    2    1    2    0    0 -0.83606989355E+03 -0.18278087395E+01  0.18275973387E+03  0.12418695886E+04  0.89990152065E+03 0.  0.
        -24    2    4    4    0    0 -0.96445061186E+03  0.15197759297E+03  0.31971824872E+02  0.98014188781E+03  0.79960935241E+02 0.  0.
         24    2    4    4    0    0  0.12838071832E+03 -0.15380540171E+03  0.15078790900E+03  0.26172770074E+03  0.75011235200E+02 0.  0.
         11    1    3    3    0    0  0.41370861721E+03 -0.18001211213E+02 -0.10241669485E+03  0.42657712426E+03  0.00000000000E+00 0. -1.
        -11    1    3    3    0    0  0.42236127634E+03  0.19829019953E+02 -0.19300657558E+02  0.42326676359E+03  0.00000000000E+00 0.  1.
          4    1    6    6  502    0  0.34669389912E+02 -0.21362936334E+01  0.33940526484E+02  0.48564284051E+02  0.00000000000E+00 0. -1.
          1    1    5    5  503    0 -0.37333837663E+03  0.25973657406E+02 -0.91405704739E+01  0.37435240666E+03  0.00000000000E+00 0. -1.
         -2    1    5    5    0  503 -0.59111223523E+03  0.12600393556E+03  0.41112395346E+02  0.60578948115E+03  0.00000000000E+00 0.  1.
         -3    1    6    6    0  502  0.93711328404E+02 -0.15166910807E+03  0.11684738251E+03  0.21316341669E+03  0.00000000000E+00 0.  1.
<mgrwt>
<rscale>  0 0.20908226E+04</rscale>
<asrwt>0</asrwt>
<pdfrwt beam="1">  1        1 0.15620547E+00 0.20908226E+04</pdfrwt>
<pdfrwt beam="2">  1       -1 0.16559660E+00 0.20908226E+04</pdfrwt>
<totfact> 0.35938552E+00</totfact>
</mgrwt>
</event>
<event>
12    1  0.2083715E-007  0.1675780E+04  0.7818608E-02  0.8775300E-01
         -2   -1    0    0    0  501 -0.00000000000E+00  0.00000000000E+00  0.33576889839E+03  0.33576889839E+03  0.00000000000E+00 0.  1.
          2   -1    0    0  501    0  0.00000000000E+00 -0.00000000000E+00 -0.20909021747E+04  0.20909021747E+04  0.00000000000E+00 0. -1.
         23    2    1    2    0    0  0.58677708996E+03 -0.27212128348E+02 -0.52568719024E+03  0.79369357371E+03  0.92491154901E+02 0.  0.
        254    2    1    2    0    0 -0.58677708996E+03  0.27212128348E+02 -0.12294460860E+04  0.16329774994E+04  0.90001665635E+03 0.  0.
        -24    2    4    4    0    0 -0.26248251973E+03  0.19616028067E+03  0.10914084995E+02  0.33737862800E+03  0.79556850754E+02 0.  0.
         24    2    4    4    0    0 -0.32429457023E+03 -0.16894815233E+03 -0.12403601710E+04  0.12955988714E+04  0.79828786272E+02 0.  0.
         11    1    3    3    0    0  0.49865508696E+03 -0.56240163705E+02 -0.44730344846E+03  0.67223524659E+03  0.00000000000E+00 0.  1.
        -11    1    3    3    0    0  0.88122002999E+02  0.29028035356E+02 -0.78383741783E+02  0.12145832711E+03  0.00000000000E+00 0. -1.
          2    1    6    6  502    0 -0.17297824851E+03 -0.76883850812E+02 -0.77191004421E+03  0.79478155321E+03  0.00000000000E+00 0. -1.
          3    1    5    5  503    0 -0.15554142399E+03  0.70471016357E+02  0.20975347718E+02  0.17204436619E+03  0.00000000000E+00 0. -1.
         -4    1    5    5    0  503 -0.10694109573E+03  0.12568926432E+03 -0.10061262723E+02  0.16533426181E+03  0.00000000000E+00 0.  1.
         -1    1    6    6    0  502 -0.15131632172E+03 -0.92064301515E+02 -0.46845012683E+03  0.50081731815E+03  0.00000000000E+00 0.  1.
<mgrwt>
<rscale>  0 0.16757803E+04</rscale>
<asrwt>0</asrwt>
<pdfrwt beam="1">  1        2 0.32167726E+00 0.16757803E+04</pdfrwt>
<pdfrwt beam="2">  1       -2 0.51656753E-01 0.16757803E+04</pdfrwt>
<totfact> 0.20068001E+01</totfact>
</mgrwt>
</event>
<event>
12    1  0.2083715E-007  0.1982237E+04  0.7818608E-02  0.8614971E-01
         -1   -1    0    0    0  501 -0.00000000000E+00  0.00000000000E+00  0.16632129500E+04  0.16632129500E+04  0.00000000000E+00 0.  1.
          1   -1    0    0  501    0  0.00000000000E+00 -0.00000000000E+00 -0.59061353630E+03  0.59061353630E+03  0.00000000000E+00 0. -1.
         23    2    1    2    0    0  0.23184972911E+03  0.58807877568E+03  0.95338170518E+03  0.11474944016E+04  0.90640954852E+02 0.  0.
        254    2    1    2    0    0 -0.23184972911E+03 -0.58807877568E+03  0.11921770853E+03  0.11063320847E+04  0.90009270428E+03 0.  0.
        -24    2    4    4    0    0 -0.10535902738E+03  0.18029110310E+03 -0.16014609301E+03  0.27528977647E+03  0.80822542746E+02 0.  0.
         24    2    4    4    0    0 -0.12649070174E+03 -0.76836987878E+03  0.27936380154E+03  0.83104230821E+03  0.78708425164E+02 0.  0.
         11    1    3    3    0    0  0.19371296844E+03  0.37631752663E+03  0.64487452512E+03  0.77136421238E+03  0.00000000000E+00 0. -1.
        -11    1    3    3    0    0  0.38136760668E+02  0.21176124905E+03  0.30850718006E+03  0.37613018925E+03  0.00000000000E+00 0.  1.
          4    1    6    6  502    0  0.30414060332E+01 -0.18659412576E+03  0.70161220474E+02  0.19937205114E+03  0.00000000000E+00 0. -1.
          1    1    5    5  503    0  0.24243699707E+01 -0.70167095232E+01 -0.85027544709E+01  0.11287542508E+02  0.00000000000E+00 0. -1.
         -2    1    5    5    0  503 -0.10778339735E+03  0.18730781263E+03 -0.15164333854E+03  0.26400223396E+03  0.00000000000E+00 0.  1.
         -3    1    6    6    0  502 -0.12953210777E+03 -0.58177575302E+03  0.20920258106E+03  0.63167025707E+03  0.00000000000E+00 0.  1.
<mgrwt>
<rscale>  0 0.19822372E+04</rscale>
<asrwt>0</asrwt>
<pdfrwt beam="1">  1        1 0.90863622E-01 0.19822372E+04</pdfrwt>
<pdfrwt beam="2">  1       -1 0.25587891E+00 0.19822372E+04</pdfrwt>
<totfact> 0.20777552E+00</totfact>
</mgrwt>
</event>
<event>
12    1  0.2083715E-007  0.1688660E+04  0.7818608E-02  0.8767858E-01
          2   -1    0    0  501    0  0.00000000000E+00  0.00000000000E+00  0.10001309919E+04  0.10001309919E+04  0.00000000000E+00 0. -1.
         -2   -1    0    0    0  501 -0.00000000000E+00 -0.00000000000E+00 -0.71279990751E+03  0.71279990751E+03  0.00000000000E+00 0.  1.
         23    2    1    2    0    0  0.55082581656E+02 -0.35363463569E+03  0.59178115731E+03  0.69744913507E+03  0.90215361824E+02 0.  0.
        254    2    1    2    0    0 -0.55082581656E+02  0.35363463569E+03 -0.30445007291E+03  0.10154817643E+04  0.90023431420E+03 0.  0.
        -24    2    4    4    0    0  0.37991361180E+02 -0.11995243729E+03 -0.47470089234E+03  0.49756587733E+03  0.79993339435E+02 0.  0.
         24    2    4    4    0    0 -0.93073942836E+02  0.47358707298E+03  0.17025081944E+03  0.51791588701E+03  0.79398047674E+02 0.  0.
         11    1    3    3    0    0  0.14485352819E+02 -0.23152280083E+02  0.99180339999E+02  0.10287173257E+03  0.00000000000E+00 0. -1.
        -11    1    3    3    0    0  0.40597228837E+02 -0.33048235560E+03  0.49260081731E+03  0.59457740251E+03  0.00000000000E+00 0.  1.
          2    1    6    6  502    0 -0.26235302015E+02  0.85670381174E+02  0.64272531213E+02  0.11026633009E+03  0.00000000000E+00 0. -1.
          1    1    5    5  503    0  0.22010173663E+02  0.41683535938E+01 -0.49541389058E+02  0.54370691977E+02  0.00000000000E+00 0. -1.
         -2    1    5    5    0  503  0.15981187517E+02 -0.12412079089E+03 -0.42515950328E+03  0.44319518535E+03  0.00000000000E+00 0.  1.
         -1    1    6    6    0  502 -0.66838640821E+02  0.38791669181E+03  0.10597828822E+03  0.40764955693E+03  0.00000000000E+00 0.  1.
<mgrwt>
<rscale>  0 0.16886602E+04</rscale>
<asrwt>0</asrwt>
<pdfrwt beam="1">  1        2 0.15386631E+00 0.16886602E+04</pdfrwt>
<pdfrwt beam="2">  1       -2 0.10966152E+00 0.16886602E+04</pdfrwt>
<totfact> 0.15878637E+01</totfact>
</mgrwt>
</event>
<event>
12    1  0.2083715E-007  0.2038234E+04  0.7818608E-02  0.8588951E-01
         -2   -1    0    0    0  501 -0.00000000000E+00  0.00000000000E+00  0.59686110767E+03  0.59686110767E+03  0.00000000000E+00 0. -1.
          2   -1    0    0  501    0  0.00000000000E+00 -0.00000000000E+00 -0.17401015895E+04  0.17401015895E+04  0.00000000000E+00 0.  1.
         23    2    1    2    0    0 -0.38970555557E+03 -0.28361279017E+03  0.29330334340E+03  0.57188800727E+03  0.93393826442E+02 0.  0.
        254    2    1    2    0    0  0.38970555557E+03  0.28361279017E+03 -0.14365438253E+04  0.17650746899E+04  0.90527557374E+03 0.  0.
        -24    2    4    4    0    0  0.33283405357E+03  0.57338808222E+03 -0.70053589157E+03  0.96795974895E+03  0.81505460950E+02 0.  0.
         24    2    4    4    0    0  0.56871501997E+02 -0.28977529205E+03 -0.73600793369E+03  0.79711494100E+03  0.80501323468E+02 0.  0.
         13    1    3    3    0    0 -0.10193036218E+03 -0.82476994037E+02  0.34117897039E+02  0.13548536518E+03  0.00000000000E+00 0.  1.
        -13    1    3    3    0    0 -0.28777519339E+03 -0.20113579613E+03  0.25918544636E+03  0.43640264209E+03  0.00000000000E+00 0. -1.
          4    1    6    6  502    0  0.23123790959E+01 -0.18630527143E+02 -0.12527817718E+03  0.12667701179E+03  0.00000000000E+00 0. -1.
          1    1    5    5  503    0  0.10765139659E+01  0.20438859779E+02 -0.88031969385E+01  0.22280084105E+02  0.00000000000E+00 0. -1.
         -2    1    5    5    0  503  0.33175753961E+03  0.55294922244E+03 -0.69173269463E+03  0.94567966485E+03  0.00000000000E+00 0.  1.
         -3    1    6    6    0  502  0.54559122901E+02 -0.27114476491E+03 -0.61072975651E+03  0.67043792920E+03  0.00000000000E+00 0.  1.
<mgrwt>
<rscale>  0 0.20382335E+04</rscale>
<asrwt>0</asrwt>
<pdfrwt beam="1">  1        2 0.26770793E+00 0.20382335E+04</pdfrwt>
<pdfrwt beam="2">  1       -2 0.91824788E-01 0.20382335E+04</pdfrwt>
<totfact> 0.87043321E+00</totfact>
</mgrwt>
</event>
<event>
12    1  0.2083715E-007  0.1729613E+04  0.7818608E-02  0.8744653E-01
         -2   -1    0    0    0  501 -0.00000000000E+00  0.00000000000E+00  0.56960396856E+03  0.56960396856E+03  0.00000000000E+00 0.  1.
          2   -1    0    0  501    0  0.00000000000E+00 -0.00000000000E+00 -0.13130004730E+04  0.13130004730E+04  0.00000000000E+00 0. -1.
         23    2    1    2    0    0 -0.21615632758E+03  0.44147950563E+03 -0.69407761415E+03  0.85581788642E+03  0.95146247490E+02 0.  0.
        254    2    1    2    0    0  0.21615632758E+03 -0.44147950563E+03 -0.49318890316E+02  0.10267865552E+04  0.90012808260E+03 0.  0.
        -24    2    4    4    0    0 -0.15397974400E+03 -0.60533911792E+02  0.32354842536E+03  0.37214669979E+03  0.80221359849E+02 0.  0.
         24    2    4    4    0    0  0.37013607158E+03 -0.38094559384E+03 -0.37286731567E+03  0.65463985537E+03  0.86040968129E+02 0.  0.
         11    1    3    3    0    0 -0.12634716081E+03  0.29122335813E+03 -0.51797923434E+03  0.60751719036E+03  0.00000000000E+00 0. -1.
        -11    1    3    3    0    0 -0.89809166767E+02  0.15025614750E+03 -0.17609837981E+03  0.24830069607E+03  0.00000000000E+00 0.  1.
          4    1    6    6  502    0  0.81809534921E+02 -0.13926502293E+03 -0.10146764187E+03  0.19074388316E+03  0.00000000000E+00 0. -1.
          1    1    5    5  503    0  0.86902033072E+01 -0.10414138917E+02  0.27136507206E+02  0.30337500659E+02  0.00000000000E+00 0. -1.
         -2    1    5    5    0  503 -0.16266994731E+03 -0.50119772875E+02  0.29641191815E+03  0.34180919913E+03  0.00000000000E+00 0.  1.
         -3    1    6    6    0  502  0.28832653666E+03 -0.24168057090E+03 -0.27139967380E+03  0.46389597221E+03  0.00000000000E+00 0.  1.
<mgrwt>
<rscale>  0 0.17296130E+04</rscale>
<asrwt>0</asrwt>
<pdfrwt beam="1">  1        2 0.20200007E+00 0.17296130E+04</pdfrwt>
<pdfrwt beam="2">  1       -2 0.87631381E-01 0.17296130E+04</pdfrwt>
<totfact> 0.17332691E+01</totfact>
</mgrwt>
</event>
<event>
12    1  0.2083715E-007  0.1394509E+04  0.7818608E-02  0.8957803E-01
          2   -1    0    0  501    0  0.00000000000E+00  0.00000000000E+00  0.54431333008E+03  0.54431333008E+03  0.00000000000E+00 0. -1.
         -2   -1    0    0    0  501 -0.00000000000E+00 -0.00000000000E+00 -0.89316887956E+03  0.89316887956E+03  0.00000000000E+00 0.  1.
         23    2    1    2    0    0  0.12189990447E+03  0.37179482245E+03 -0.18416365610E+03  0.44134514998E+03  0.88194741742E+02 0.  0.
        254    2    1    2    0    0 -0.12189990447E+03 -0.37179482245E+03 -0.16469189337E+03  0.99613705966E+03  0.90115184358E+03 0.  0.
        -24    2    4    4    0    0 -0.32992041909E+03 -0.11066285886E+03 -0.43211630955E+03  0.56068931770E+03  0.80958351911E+02 0.  0.
         24    2    4    4    0    0  0.20802051462E+03 -0.26113196359E+03  0.26742441617E+03  0.43544774196E+03  0.81464597861E+02 0.  0.
         13    1    3    3    0    0  0.26732033079E+02  0.19426193396E+03 -0.12020279557E+03  0.23000220139E+03  0.00000000000E+00 0. -1.
        -13    1    3    3    0    0  0.95167871395E+02  0.17753288848E+03 -0.63960860530E+02  0.21134294859E+03  0.00000000000E+00 0.  1.
          4    1    6    6  502    0  0.19658720879E+03 -0.20748530431E+03  0.20162766818E+03  0.34978621863E+03  0.00000000000E+00 0. -1.
          1    1    5    5  503    0 -0.30741037042E+03 -0.77714559830E+02 -0.39070825752E+03  0.50318349649E+03  0.00000000000E+00 0. -1.
         -2    1    5    5    0  503 -0.22510048676E+02 -0.32948299028E+02 -0.41408052029E+02  0.57505821210E+02  0.00000000000E+00 0.  1.
         -3    1    6    6    0  502  0.11433305828E+02 -0.53646659277E+02  0.65796747994E+02  0.85661523336E+02  0.00000000000E+00 0.  1.
<mgrwt>
<rscale>  0 0.13945088E+04</rscale>
<asrwt>0</asrwt>
<pdfrwt beam="1">  1        2 0.83740513E-01 0.13945088E+04</pdfrwt>
<pdfrwt beam="2">  1       -2 0.13741060E+00 0.13945088E+04</pdfrwt>
<totfact> 0.20445205E+01</totfact>
</mgrwt>
</event>
<event>
12    1  0.2083715E-007  0.1528484E+04  0.7818608E-02  0.8865729E-01
         -1   -1    0    0    0  501 -0.00000000000E+00  0.00000000000E+00  0.55498446155E+03  0.55498446155E+03  0.00000000000E+00 0.  1.
          1   -1    0    0  501    0  0.00000000000E+00 -0.00000000000E+00 -0.10524000105E+04  0.10524000105E+04  0.00000000000E+00 0. -1.
         23    2    1    2    0    0 -0.44725583630E+03 -0.13558333249E+03  0.36542753607E+01  0.47624778391E+03  0.91531277696E+02 0.  0.
        254    2    1    2    0    0  0.44725583630E+03  0.13558333249E+03 -0.50106982429E+03  0.11311366881E+04  0.89998811951E+03 0.  0.
        -24    2    4    4    0    0 -0.17533095744E+03 -0.15720373495E+03  0.42908871534E+02  0.25065123594E+03  0.74370100847E+02 0.  0.
         24    2    4    4    0    0  0.62258679374E+03  0.29278706744E+03 -0.54397869583E+03  0.88048545219E+03  0.77480496916E+02 0.  0.
         11    1    3    3    0    0 -0.17837296412E+03 -0.78599728464E+01  0.29570558142E+01  0.17857053979E+03  0.00000000000E+00 0. -1.
        -11    1    3    3    0    0 -0.26888287217E+03 -0.12772335965E+03  0.69721954650E+00  0.29767724411E+03  0.00000000000E+00 0.  1.
          2    1    6    6  502    0  0.10589561101E+03  0.31455567656E+02 -0.11808947544E+03  0.16170484649E+03  0.00000000000E+00 0. -1.
          1    1    5    5  503    0 -0.10824838904E+03 -0.47251916994E+02  0.18301827601E+02  0.11952160593E+03  0.00000000000E+00 0. -1.
         -2    1    5    5    0  503 -0.67082568399E+02 -0.10995181796E+03  0.24607043933E+02  0.13112963001E+03  0.00000000000E+00 0.  1.
         -1    1    6    6    0  502  0.51669118272E+03  0.26133149979E+03 -0.42588922038E+03  0.71878060570E+03  0.00000000000E+00 0.  1.
<mgrwt>
<rscale>  0 0.15284838E+04</rscale>
<asrwt>0</asrwt>
<pdfrwt beam="1">  1        1 0.16190769E+00 0.15284838E+04</pdfrwt>
<pdfrwt beam="2">  1       -1 0.85382225E-01 0.15284838E+04</pdfrwt>
<totfact> 0.18035882E+01</totfact>
</mgrwt>
</event>
<event>
12    1  0.2083715E-007  0.1474362E+04  0.7818608E-02  0.8901683E-01
         -1   -1    0    0    0  501 -0.00000000000E+00  0.00000000000E+00  0.73719801202E+03  0.73719801202E+03  0.00000000000E+00 0.  1.
          1   -1    0    0  501    0  0.00000000000E+00 -0.00000000000E+00 -0.73716366579E+03  0.73716366579E+03  0.00000000000E+00 0. -1.
         23    2    1    2    0    0 -0.45132263398E+03  0.35111310810E+02 -0.12866874876E+02  0.46211004541E+03  0.91952234933E+02 0.  0.
        254    2    1    2    0    0  0.45132263398E+03 -0.35111310810E+02  0.12901221105E+02  0.10122516324E+04  0.90529663742E+03 0.  0.
        -24    2    4    4    0    0  0.32105223053E+03 -0.31323309445E+03 -0.31590088795E+03  0.55532758561E+03  0.86057249228E+02 0.  0.
         24    2    4    4    0    0  0.13027040345E+03  0.27812178364E+03  0.32880210906E+03  0.45692404680E+03  0.79665883998E+02 0.  0.
         11    1    3    3    0    0 -0.31236095941E+03  0.27707218973E+02 -0.51266582125E+02  0.31775040738E+03  0.00000000000E+00 0. -1.
        -11    1    3    3    0    0 -0.13896167457E+03  0.74040918377E+01  0.38399707249E+02  0.14435963803E+03  0.00000000000E+00 0.  1.
          4    1    6    6  502    0  0.11523184690E+03  0.16425397418E+03  0.23189039285E+03  0.30664458396E+03  0.00000000000E+00 0. -1.
          1    1    5    5  503    0  0.29206180063E+03 -0.31088946592E+03 -0.30448020484E+03  0.52408067179E+03  0.00000000000E+00 0. -1.
         -2    1    5    5    0  503  0.28990429900E+02 -0.23436285319E+01 -0.11420683112E+02  0.31246913819E+02  0.00000000000E+00 0.  1.
         -3    1    6    6    0  502  0.15038556553E+02  0.11386780946E+03  0.96911716205E+02  0.15027946284E+03  0.00000000000E+00 0.  1.
<mgrwt>
<rscale>  0 0.14743617E+04</rscale>
<asrwt>0</asrwt>
<pdfrwt beam="1">  1        1 0.11340979E+00 0.14743617E+04</pdfrwt>
<pdfrwt beam="2">  1       -1 0.11341508E+00 0.14743617E+04</pdfrwt>
<totfact> 0.17313383E+01</totfact>
</mgrwt>
</event>
<event>
12    1  0.2083715E-007  0.2943344E+04  0.7818608E-02  0.8260097E-01
          1   -1    0    0  501    0  0.00000000000E+00  0.00000000000E+00  0.17801027971E+04  0.17801027971E+04  0.00000000000E+00 0. -1.
         -1   -1    0    0    0  501 -0.00000000000E+00 -0.00000000000E+00 -0.12166820583E+04  0.12166820583E+04  0.00000000000E+00 0.  1.
         23    2    1    2    0    0  0.10434726069E+04 -0.20929659401E+03 -0.56106196934E+03  0.12064994309E+04  0.90610140784E+02 0.  0.
        254    2    1    2    0    0 -0.10434726069E+04  0.20929659401E+03  0.11244827082E+04  0.17902854245E+04  0.89889954644E+03 0.  0.
        -24    2    4    4    0    0 -0.51581235698E+03  0.24546255329E+02 -0.10958334658E+02  0.52258599770E+03  0.79442643669E+02 0.  0.
         24    2    4    4    0    0 -0.52766024995E+03  0.18475033869E+03  0.11354410429E+04  0.12676994268E+04  0.72646045682E+02 0.  0.
         13    1    3    3    0    0  0.46778124175E+03 -0.53674032091E+02 -0.27219389850E+03  0.54386552587E+03  0.00000000000E+00 0. -1.
        -13    1    3    3    0    0  0.57569136518E+03 -0.15562256192E+03 -0.28886807084E+03  0.66263390501E+03  0.00000000000E+00 0.  1.
          4    1    6    6  502    0 -0.18153331674E+03  0.55997058096E+02  0.46432867379E+03  0.50168828261E+03  0.00000000000E+00 0. -1.
          1    1    5    5  503    0 -0.27033321439E+03  0.16761613538E+02  0.33751239682E+02  0.27294714630E+03  0.00000000000E+00 0. -1.
         -2    1    5    5    0  503 -0.24547914258E+03  0.77846417914E+01 -0.44709574340E+02  0.24963885140E+03  0.00000000000E+00 0.  1.
         -3    1    6    6    0  502 -0.34612693320E+03  0.12875328059E+03  0.67111236908E+03  0.76601114423E+03  0.00000000000E+00 0.  1.
<mgrwt>
<rscale>  0 0.29433444E+04</rscale>
<asrwt>0</asrwt>
<pdfrwt beam="1">  1        1 0.27386197E+00 0.29433444E+04</pdfrwt>
<pdfrwt beam="2">  1       -1 0.18718186E+00 0.29433444E+04</pdfrwt>
<totfact> 0.66486638E-01</totfact>
</mgrwt>
</event>
<event>
12    1  0.2083715E-007  0.1770887E+04  0.7818608E-02  0.8721936E-01
         -2   -1    0    0    0  501 -0.00000000000E+00  0.00000000000E+00  0.12564088670E+04  0.12564088670E+04  0.00000000000E+00 0.  1.
          2   -1    0    0  501    0  0.00000000000E+00 -0.00000000000E+00 -0.62400890798E+03  0.62400890798E+03  0.00000000000E+00 0. -1.
         23    2    1    2    0    0 -0.41716953048E+03  0.47343846039E+03  0.41100528293E+03  0.75872163320E+03  0.92513680861E+02 0.  0.
        254    2    1    2    0    0  0.41716953048E+03 -0.47343846039E+03  0.22139467609E+03  0.11216961418E+04  0.90056217940E+03 0.  0.
        -24    2    4    4    0    0 -0.27517037829E+03 -0.12249131191E+03  0.12477331571E+03  0.33541523231E+03  0.78817124879E+02 0.  0.
         24    2    4    4    0    0  0.69233990877E+03 -0.35094714848E+03  0.96621360377E+02  0.78628090948E+03  0.80022065892E+02 0.  0.
         11    1    3    3    0    0 -0.30273804664E+03  0.27750703176E+03  0.27317313178E+03  0.49323831714E+03  0.00000000000E+00 0. -1.
        -11    1    3    3    0    0 -0.11443148384E+03  0.19593142862E+03  0.13783215115E+03  0.26548331606E+03  0.00000000000E+00 0.  1.
          4    1    6    6  502    0  0.54654529108E+03 -0.30798797755E+03  0.62087501411E+02  0.63041510717E+03  0.00000000000E+00 0. -1.
          1    1    5    5  503    0 -0.21795083023E+03 -0.68957345110E+02  0.11663802568E+03  0.25663614102E+03  0.00000000000E+00 0. -1.
         -2    1    5    5    0  503 -0.57219548057E+02 -0.53533966802E+02  0.81352900309E+01  0.78779091295E+02  0.00000000000E+00 0.  1.
         -3    1    6    6    0  502  0.14579461769E+03 -0.42959170926E+02  0.34533858966E+02  0.15586580231E+03  0.00000000000E+00 0.  1.
<mgrwt>
<rscale>  0 0.17708872E+04</rscale>
<asrwt>0</asrwt>
<pdfrwt beam="1">  1        2 0.96001371E-01 0.17708872E+04</pdfrwt>
<pdfrwt beam="2">  1       -2 0.19329367E+00 0.17708872E+04</pdfrwt>
<totfact> 0.65857500E+00</totfact>
</mgrwt>
</event>
<event>
12    1  0.2083715E-007  0.2537894E+04  0.7818608E-02  0.8389608E-01
          1   -1    0    0  501    0  0.00000000000E+00  0.00000000000E+00  0.11396233142E+04  0.11396233142E+04  0.00000000000E+00 0. -1.
         -1   -1    0    0    0  501 -0.00000000000E+00 -0.00000000000E+00 -0.14129467360E+04  0.14129467360E+04  0.00000000000E+00 0.  1.
         23    2    1    2    0    0  0.82822444058E+03 -0.73441214392E+02  0.61545732208E+03  0.10383895151E+04  0.90087368018E+02 0.  0.
        254    2    1    2    0    0 -0.82822444058E+03  0.73441214392E+02 -0.88878074381E+03  0.15141805351E+04  0.90081193729E+03 0.  0.
        -24    2    4    4    0    0 -0.35809922691E+03 -0.23795695311E+02 -0.95480825929E+03  0.10231604349E+04  0.79982323340E+02 0.  0.
         24    2    4    4    0    0 -0.47012521367E+03  0.97236909703E+02  0.66027515471E+02  0.49102010023E+03  0.79173056658E+02 0.  0.
         11    1    3    3    0    0  0.10761572200E+03 -0.21907148358E+02  0.48591697122E+02  0.12009254681E+03  0.00000000000E+00 0.  1.
        -11    1    3    3    0    0  0.72060871858E+03 -0.51534066034E+02  0.56686562496E+03  0.91829696831E+03  0.00000000000E+00 0. -1.
          2    1    6    6  502    0 -0.22239252897E+03  0.40308220323E+02  0.70611046994E+02  0.23678916682E+03  0.00000000000E+00 0. -1.
          1    1    5    5  503    0 -0.55049625792E+02 -0.18285920324E+02 -0.93024220174E+02  0.10962819765E+03  0.00000000000E+00 0. -1.
         -2    1    5    5    0  503 -0.30304960112E+03 -0.55097749870E+01 -0.86178403911E+03  0.91353223721E+03  0.00000000000E+00 0.  1.
         -1    1    6    6    0  502 -0.24773268470E+03  0.56928689380E+02 -0.45835315230E+01  0.25423093341E+03  0.00000000000E+00 0.  1.
<mgrwt>
<rscale>  0 0.25378944E+04</rscale>
<asrwt>0</asrwt>
<pdfrwt beam="1">  1        1 0.17532666E+00 0.25378944E+04</pdfrwt>
<pdfrwt beam="2">  1       -1 0.21737642E+00 0.25378944E+04</pdfrwt>
<totfact> 0.12016524E+00</totfact>
</mgrwt>
</event>
<event>
12    1  0.2083715E-007  0.2292230E+04  0.7818608E-02  0.8480991E-01
         -2   -1    0    0    0  501 -0.00000000000E+00  0.00000000000E+00  0.18155455313E+04  0.18155455313E+04  0.00000000000E+00 0.  1.
          2   -1    0    0  501    0  0.00000000000E+00 -0.00000000000E+00 -0.72351799056E+03  0.72351799056E+03  0.00000000000E+00 0. -1.
         23    2    1    2    0    0 -0.20797749017E+03 -0.76055504772E+03  0.10829673349E+04  0.13427429165E+04  0.91878585166E+02 0.  0.
        254    2    1    2    0    0  0.20797749017E+03  0.76055504772E+03  0.90602058334E+01  0.11963206053E+04  0.89966787557E+03 0.  0.
        -24    2    4    4    0    0  0.86315448840E+02 -0.11944994756E+03 -0.21882629990E+03  0.27548091208E+03  0.79285160720E+02 0.  0.
         24    2    4    4    0    0  0.12166204133E+03  0.88000499528E+03  0.22788650573E+03  0.92083969323E+03  0.82480525731E+02 0.  0.
         13    1    3    3    0    0 -0.42390809746E+02 -0.27357335454E+03  0.32807000182E+03  0.42926598649E+03  0.00000000000E+00 0.  1.
        -13    1    3    3    0    0 -0.16558668042E+03 -0.48698169318E+03  0.75489733308E+03  0.91347693004E+03  0.00000000000E+00 0. -1.
          2    1    6    6  502    0  0.37854336603E+02  0.52647175082E+03  0.11314832440E+03  0.53982219158E+03  0.00000000000E+00 0. -1.
          1    1    5    5  503    0  0.98646079662E+02 -0.84670979019E+02 -0.16177754177E+03  0.20753842232E+03  0.00000000000E+00 0. -1.
         -2    1    5    5    0  503 -0.12330630823E+02 -0.34778968540E+02 -0.57048758136E+02  0.67942489755E+02  0.00000000000E+00 0.  1.
         -3    1    6    6    0  502  0.83807704724E+02  0.35353324446E+03  0.11473818134E+03  0.38101750165E+03  0.00000000000E+00 0.  1.
<mgrwt>
<rscale>  0 0.22922302E+04</rscale>
<asrwt>0</asrwt>
<pdfrwt beam="1">  1        2 0.11131046E+00 0.22922302E+04</pdfrwt>
<pdfrwt beam="2">  1       -2 0.27931470E+00 0.22922302E+04</pdfrwt>
<totfact> 0.15154082E+00</totfact>
</mgrwt>
</event>
<event>
12    1  0.2083715E-007  0.1763645E+04  0.7818608E-02  0.8725875E-01
          2   -1    0    0  501    0  0.00000000000E+00  0.00000000000E+00  0.35881587738E+03  0.35881587738E+03  0.00000000000E+00 0. -1.
         -2   -1    0    0    0  501 -0.00000000000E+00 -0.00000000000E+00 -0.21671588900E+04  0.21671588900E+04  0.00000000000E+00 0.  1.
         23    2    1    2    0    0  0.94892924446E+02 -0.63925740011E+03 -0.61149763714E+03  0.89483936961E+03  0.95673645641E+02 0.  0.
        254    2    1    2    0    0 -0.94892924446E+02  0.63925740011E+03 -0.11968453754E+04  0.16311353977E+04  0.90028281241E+03 0.  0.
        -24    2    4    4    0    0 -0.55355503191E+02  0.86010899388E+03 -0.99375247135E+03  0.13180152644E+04  0.82271196924E+02 0.  0.
         24    2    4    4    0    0 -0.39537421254E+02 -0.22085159377E+03 -0.20309290409E+03  0.31312013331E+03  0.80367008417E+02 0.  0.
         11    1    3    3    0    0  0.55976004029E+02 -0.42235407461E+03 -0.46251149891E+03  0.62883476684E+03  0.00000000000E+00 0.  1.
        -11    1    3    3    0    0  0.38916920416E+02 -0.21690332550E+03 -0.14898613823E+03  0.26600460277E+03  0.00000000000E+00 0. -1.
          4    1    6    6  502    0 -0.39876778318E+02 -0.21991801982E+03 -0.17203496206E+03  0.28204631014E+03  0.00000000000E+00 0. -1.
          3    1    5    5  503    0 -0.61195069489E+02  0.80090578299E+03 -0.89377965473E+03  0.12016808981E+04  0.00000000000E+00 0. -1.
         -4    1    5    5    0  503  0.58395662975E+01  0.59203210898E+02 -0.99972816613E+02  0.11633436628E+03  0.00000000000E+00 0.  1.
         -3    1    6    6    0  502  0.33935706422E+00 -0.93357394814E+00 -0.31057942022E+02  0.31073823167E+02  0.00000000000E+00 0.  1.
<mgrwt>
<rscale>  0 0.17636451E+04</rscale>
<asrwt>0</asrwt>
<pdfrwt beam="1">  1        2 0.55202443E-01 0.17636451E+04</pdfrwt>
<pdfrwt beam="2">  1       -2 0.33340906E+00 0.17636451E+04</pdfrwt>
<totfact> 0.16877025E+00</totfact>
</mgrwt>
</event>
<event>
12    1  0.2083715E-007  0.1409755E+04  0.7818608E-02  0.8946787E-01
          1   -1    0    0  501    0  0.00000000000E+00  0.00000000000E+00  0.16122923532E+04  0.16122923532E+04  0.00000000000E+00 0. -1.
         -1   -1    0    0    0  501 -0.00000000000E+00 -0.00000000000E+00 -0.30816528281E+03  0.30816528281E+03  0.00000000000E+00 0.  1.
         23    2    1    2    0    0  0.39599481282E+03 -0.96782279454E+02  0.33425604328E+03  0.53497011375E+03  0.91034162511E+02 0.  0.
        254    2    1    2    0    0 -0.39599481282E+03  0.96782279454E+02  0.96987102715E+03  0.13854875223E+04  0.90152491023E+03 0.  0.
        -24    2    4    4    0    0 -0.39542938079E+03  0.38460159410E+03  0.26051980198E+03  0.61555344890E+03  0.82174812835E+02 0.  0.
         24    2    4    4    0    0 -0.56543203188E+00 -0.28781931464E+03  0.70935122517E+03  0.76993407340E+03  0.82334920549E+02 0.  0.
         13    1    3    3    0    0  0.21722072429E+03 -0.61546354365E+02  0.12713541985E+03  0.25910656452E+03  0.00000000000E+00 0.  1.
        -13    1    3    3    0    0  0.17877408853E+03 -0.35235925089E+02  0.20712062343E+03  0.27586354923E+03  0.00000000000E+00 0. -1.
          2    1    6    6  502    0  0.10851651658E+02 -0.17757073663E+03  0.53037697639E+03  0.55941832464E+03  0.00000000000E+00 0. -1.
          3    1    5    5  503    0 -0.11874023195E+03  0.87822685669E+02  0.36769584450E+02  0.15219746759E+03  0.00000000000E+00 0. -1.
         -4    1    5    5    0  503 -0.27668914884E+03  0.29677890843E+03  0.22375021753E+03  0.46335598131E+03  0.00000000000E+00 0.  1.
         -1    1    6    6    0  502 -0.11417083690E+02 -0.11024857801E+03  0.17897424878E+03  0.21051574877E+03  0.00000000000E+00 0.  1.
<mgrwt>
<rscale>  0 0.14097553E+04</rscale>
<asrwt>0</asrwt>
<pdfrwt beam="1">  1        1 0.24804497E+00 0.14097553E+04</pdfrwt>
<pdfrwt beam="2">  1       -1 0.47410044E-01 0.14097553E+04</pdfrwt>
<totfact> 0.23675363E+01</totfact>
</mgrwt>
</event>
<event>
12    1  0.2083715E-007  0.3206564E+04  0.7818608E-02  0.8187086E-01
          1   -1    0    0  501    0  0.00000000000E+00  0.00000000000E+00  0.16792238326E+04  0.16792238326E+04  0.00000000000E+00 0. -1.
         -1   -1    0    0    0  501 -0.00000000000E+00 -0.00000000000E+00 -0.15307744459E+04  0.15307744459E+04  0.00000000000E+00 0.  1.
         23    2    1    2    0    0  0.63822125552E+03 -0.10440683413E+04 -0.75978333990E+03  0.14434273740E+04  0.93844489208E+02 0.  0.
        254    2    1    2    0    0 -0.63822125552E+03  0.10440683413E+04  0.90823272657E+03  0.17665709044E+04  0.89357764213E+03 0.  0.
        -24    2    4    4    0    0 -0.47996213199E+03  0.11255907864E+04  0.96831922211E+03  0.15622577004E+04  0.75423735264E+02 0.  0.
         24    2    4    4    0    0 -0.15825912353E+03 -0.81522445150E+02 -0.60086495541E+02  0.20431320405E+03  0.80259822827E+02 0.  0.
         13    1    3    3    0    0  0.53607065058E+03 -0.82231496126E+03 -0.63649630732E+03  0.11699150342E+04  0.00000000000E+00 0.  1.
        -13    1    3    3    0    0  0.10215060494E+03 -0.22175338002E+03 -0.12328703258E+03  0.27351233984E+03  0.00000000000E+00 0. -1.
          2    1    6    6  502    0 -0.10562702601E+03 -0.11826502653E+02 -0.46141191611E+02  0.11587037737E+03  0.00000000000E+00 0. -1.
          3    1    5    5  503    0 -0.15987758493E+03  0.46134593048E+03  0.40449120178E+03  0.63404577284E+03  0.00000000000E+00 0. -1.
         -2    1    5    5    0  503 -0.32008454706E+03  0.66424485595E+03  0.56382802034E+03  0.92821192754E+03  0.00000000000E+00 0.  1.
         -1    1    6    6    0  502 -0.52632097521E+02 -0.69695942497E+02 -0.13945303930E+02  0.88442826683E+02  0.00000000000E+00 0.  1.
<mgrwt>
<rscale>  0 0.32065639E+04</rscale>
<asrwt>0</asrwt>
<pdfrwt beam="1">  1        1 0.25834213E+00 0.32065639E+04</pdfrwt>
<pdfrwt beam="2">  1       -1 0.23550376E+00 0.32065639E+04</pdfrwt>
<totfact> 0.35741586E-01</totfact>
</mgrwt>
</event>
<event>
12    1  0.2083715E-007  0.2169792E+04  0.7818608E-02  0.8531108E-01
         -1   -1    0    0    0  501 -0.00000000000E+00  0.00000000000E+00  0.14123358290E+04  0.14123358290E+04  0.00000000000E+00 0.  1.
          1   -1    0    0  501    0  0.00000000000E+00 -0.00000000000E+00 -0.83337040547E+03  0.83337040547E+03  0.00000000000E+00 0. -1.
         23    2    1    2    0    0  0.49983180688E+03 -0.65874298708E+03  0.59463070450E+03  0.10229628858E+04  0.95358443682E+02 0.  0.
        254    2    1    2    0    0 -0.49983180688E+03  0.65874298708E+03 -0.15665280936E+02  0.12227433487E+04  0.90060076482E+03 0.  0.
        -24    2    4    4    0    0 -0.55649230640E+03  0.59727847110E+03  0.30945460956E+03  0.87675684154E+03  0.80716446262E+02 0.  0.
         24    2    4    4    0    0  0.56660499515E+02  0.61464515982E+02 -0.32511989050E+03  0.34598650717E+03  0.83758110162E+02 0.  0.
         13    1    3    3    0    0  0.33581630678E+03 -0.43521685762E+03  0.44909856092E+03  0.70984211095E+03  0.00000000000E+00 0. -1.
        -13    1    3    3    0    0  0.16401550010E+03 -0.22352612946E+03  0.14553214358E+03  0.31312077484E+03  0.00000000000E+00 0.  1.
          4    1    6    6  502    0  0.69266116315E+02  0.73429475378E+02 -0.27918416129E+03  0.29687283243E+03  0.00000000000E+00 0. -1.
          1    1    5    5  503    0 -0.55583402991E+03  0.59803250970E+03  0.31198916047E+03  0.87403180018E+03  0.00000000000E+00 0. -1.
         -2    1    5    5    0  503 -0.65827648114E+00 -0.75403860550E+00 -0.25345509055E+01  0.27250413642E+01  0.00000000000E+00 0.  1.
         -3    1    6    6    0  502 -0.12605616799E+02 -0.11964959396E+02 -0.45935729210E+02  0.49113674739E+02  0.00000000000E+00 0.  1.
<mgrwt>
<rscale>  0 0.21697916E+04</rscale>
<asrwt>0</asrwt>
<pdfrwt beam="1">  1        1 0.12821083E+00 0.21697916E+04</pdfrwt>
<pdfrwt beam="2">  1       -1 0.21728244E+00 0.21697916E+04</pdfrwt>
<totfact> 0.21705553E+00</totfact>
</mgrwt>
</event>
<event>
12    1  0.2083715E-007  0.2106800E+04  0.7818608E-02  0.8558254E-01
          2   -1    0    0  501    0  0.00000000000E+00  0.00000000000E+00  0.22197237094E+04  0.22197237094E+04  0.00000000000E+00 0. -1.
         -2   -1    0    0    0  501 -0.00000000000E+00 -0.00000000000E+00 -0.49990506942E+03  0.49990506942E+03  0.00000000000E+00 0.  1.
         23    2    1    2    0    0  0.84347160594E+02  0.50316347700E+03 -0.18673559200E+03  0.55073731301E+03  0.90296614220E+02 0.  0.
        254    2    1    2    0    0 -0.84347160594E+02 -0.50316347700E+03  0.19065542320E+04  0.21688914658E+04  0.89936267595E+03 0.  0.
        -24    2    4    4    0    0  0.27413822741E+03 -0.24051047833E+03  0.24350006793E+03  0.44557640426E+03  0.79050560002E+02 0.  0.
         24    2    4    4    0    0 -0.35848538800E+03 -0.26265299867E+03  0.16630541641E+04  0.17233150616E+04  0.81038741831E+02 0.  0.
         13    1    3    3    0    0  0.28188869663E+02  0.25578632327E+03 -0.13947095301E+03  0.29270019180E+03  0.00000000000E+00 0.  1.
        -13    1    3    3    0    0  0.56158290931E+02  0.24737715373E+03 -0.47264638997E+02  0.25803712122E+03  0.00000000000E+00 0. -1.
          2    1    6    6  502    0 -0.27920311680E+02 -0.31827360331E+01  0.16752323266E+03  0.16986378983E+03  0.00000000000E+00 0. -1.
          1    1    5    5  503    0  0.52566529602E+02 -0.17452595817E+02  0.59497808479E+02  0.81288513020E+02  0.00000000000E+00 0. -1.
         -2    1    5    5    0  503  0.22157169781E+03 -0.22305788251E+03  0.18400225945E+03  0.36428789124E+03  0.00000000000E+00 0.  1.
         -3    1    6    6    0  502 -0.33056507632E+03 -0.25947026264E+03  0.14955309314E+04  0.15534512717E+04  0.00000000000E+00 0.  1.
<mgrwt>
<rscale>  0 0.21067996E+04</rscale>
<asrwt>0</asrwt>
<pdfrwt beam="1">  1        2 0.34149595E+00 0.21067996E+04</pdfrwt>
<pdfrwt beam="2">  1       -2 0.76908473E-01 0.21067996E+04</pdfrwt>
<totfact> 0.69997020E+00</totfact>
</mgrwt>
</event>
<event>
12    1  0.2083715E-007  0.1990513E+04  0.7818608E-02  0.8611069E-01
          2   -1    0    0  501    0  0.00000000000E+00  0.00000000000E+00  0.37519514281E+04  0.37519514281E+04  0.00000000000E+00 0. -1.
         -2   -1    0    0    0  501 -0.00000000000E+00 -0.00000000000E+00 -0.26400534579E+03  0.26400534579E+03  0.00000000000E+00 0.  1.
         23    2    1    2    0    0  0.52741763779E+03  0.75978264356E+02  0.25667356449E+04  0.26230876069E+04  0.92274922668E+02 0.  0.
        254    2    1    2    0    0 -0.52741763779E+03 -0.75978264356E+02  0.92121043749E+03  0.13928691671E+04  0.89861770800E+03 0.  0.
        -24    2    4    4    0    0 -0.59879525884E+03  0.28196332468E+03  0.65006650293E+03  0.93124925385E+03  0.81114956035E+02 0.  0.
         24    2    4    4    0    0  0.71377621050E+02 -0.35794158904E+03  0.27114393456E+03  0.46161991322E+03  0.79730578122E+02 0.  0.
         13    1    3    3    0    0  0.32272618011E+03  0.67014933927E+02  0.17700498741E+04  0.18004776437E+04  0.00000000000E+00 0. -1.
        -13    1    3    3    0    0  0.20469145768E+03  0.89633304291E+01  0.79668577075E+03  0.82260996314E+03  0.00000000000E+00 0.  1.
          4    1    6    6  502    0  0.54765342329E+02 -0.19771049124E+03  0.19649017184E+03  0.28407229484E+03  0.00000000000E+00 0. -1.
          3    1    5    5  503    0 -0.45224645715E+03  0.18609152492E+03  0.51404783042E+03  0.70950834077E+03  0.00000000000E+00 0. -1.
         -4    1    5    5    0  503 -0.14654880169E+03  0.95871799758E+02  0.13601867251E+03  0.22174091308E+03  0.00000000000E+00 0.  1.
         -1    1    6    6    0  502  0.16612278721E+02 -0.16023109780E+03  0.74653762727E+02  0.17754761839E+03  0.00000000000E+00 0.  1.
<mgrwt>
<rscale>  0 0.19905127E+04</rscale>
<asrwt>0</asrwt>
<pdfrwt beam="1">  1        2 0.57722326E+00 0.19905127E+04</pdfrwt>
<pdfrwt beam="2">  1       -2 0.40616210E-01 0.19905127E+04</pdfrwt>
<totfact> 0.28723218E+00</totfact>
</mgrwt>
</event>
<event>
12    1  0.2083715E-007  0.1760839E+04  0.7818608E-02  0.8727406E-01
          4   -1    0    0  501    0  0.00000000000E+00  0.00000000000E+00  0.91629543027E+03  0.91629543027E+03  0.00000000000E+00 0. -1.
         -4   -1    0    0    0  501 -0.00000000000E+00 -0.00000000000E+00 -0.84594865648E+03  0.84594865648E+03  0.00000000000E+00 0.  1.
         23    2    1    2    0    0 -0.52387274945E+03  0.29368903310E+03 -0.20499829197E+03  0.64076092726E+03  0.88624829535E+02 0.  0.
        254    2    1    2    0    0  0.52387274945E+03 -0.29368903310E+03  0.27534506576E+03  0.11214831595E+04  0.90620840098E+03 0.  0.
        -24    2    4    4    0    0  0.24005914448E+03 -0.25841299715E+03  0.58843699886E+03  0.69071668976E+03  0.80160925293E+02 0.  0.
         24    2    4    4    0    0  0.28381360497E+03 -0.35276035947E+02 -0.31309193310E+03  0.43076646973E+03  0.75753757637E+02 0.  0.
         11    1    3    3    0    0 -0.13012941170E+03  0.61258136117E+02 -0.88680683732E+02  0.16896889269E+03  0.00000000000E+00 0.  1.
        -11    1    3    3    0    0 -0.39374333776E+03  0.23243089698E+03 -0.11631760824E+03  0.47179203457E+03  0.00000000000E+00 0. -1.
          4    1    6    6  502    0  0.17110522297E+03 -0.58393288981E+02 -0.19310180805E+03  0.26452803594E+03  0.00000000000E+00 0. -1.
          3    1    5    5  503    0  0.18177184051E+03 -0.18066859679E+03  0.48656938274E+03  0.54993809478E+03  0.00000000000E+00 0. -1.
         -4    1    5    5    0  503  0.58287303976E+02 -0.77744400357E+02  0.10186761612E+03  0.14077859498E+03  0.00000000000E+00 0.  1.
         -3    1    6    6    0  502  0.11270838200E+03  0.23117253034E+02 -0.11999012505E+03  0.16623843379E+03  0.00000000000E+00 0.  1.
<mgrwt>
<rscale>  0 0.17608394E+04</rscale>
<asrwt>0</asrwt>
<pdfrwt beam="1">  1        4 0.14096853E+00 0.17608394E+04</pdfrwt>
<pdfrwt beam="2">  1       -4 0.13014595E+00 0.17608394E+04</pdfrwt>
<totfact> 0.28688639E-01</totfact>
</mgrwt>
</event>
<event>
12    1  0.2083715E-007  0.1628298E+04  0.7818608E-02  0.8803350E-01
         -1   -1    0    0    0  501 -0.00000000000E+00  0.00000000000E+00  0.52529547211E+03  0.52529547211E+03  0.00000000000E+00 0.  1.
          1   -1    0    0  501    0  0.00000000000E+00 -0.00000000000E+00 -0.12618393108E+04  0.12618393108E+04  0.00000000000E+00 0. -1.
         23    2    1    2    0    0 -0.52818466811E+03 -0.15426363758E+03 -0.37855969239E+03  0.67318566032E+03  0.84232885849E+02 0.  0.
        254    2    1    2    0    0  0.52818466811E+03  0.15426363758E+03 -0.35798414628E+03  0.11139491226E+04  0.89997426918E+03 0.  0.
        -24    2    4    4    0    0 -0.16643973670E+03  0.28668114278E+03 -0.81100212050E+02  0.35035914010E+03  0.79284418916E+02 0.  0.
         24    2    4    4    0    0  0.69462440481E+03 -0.13241750520E+03 -0.27688393423E+03  0.76358998247E+03  0.79796546642E+02 0.  0.
         11    1    3    3    0    0 -0.38909935188E+03 -0.14202109256E+03 -0.31165745307E+03  0.51836151904E+03  0.00000000000E+00 0. -1.
        -11    1    3    3    0    0 -0.13908531623E+03 -0.12242545019E+02 -0.66902239321E+02  0.15482414128E+03  0.00000000000E+00 0.  1.
          2    1    6    6  502    0  0.35519594080E+03 -0.10120662240E+03 -0.16812462819E+03  0.40579899874E+03  0.00000000000E+00 0. -1.
          1    1    5    5  503    0 -0.43420593379E+01  0.65301862395E+02 -0.50817612976E+01  0.65643057587E+02  0.00000000000E+00 0. -1.
         -2    1    5    5    0  503 -0.16209767736E+03  0.22137928038E+03 -0.76018450752E+02  0.28471608251E+03  0.00000000000E+00 0.  1.
         -3    1    6    6    0  502  0.33942846401E+03 -0.31210882794E+02 -0.10875930604E+03  0.35779098373E+03  0.00000000000E+00 0.  1.
<mgrwt>
<rscale>  0 0.16282979E+04</rscale>
<asrwt>0</asrwt>
<pdfrwt beam="1">  1        1 0.19412912E+00 0.16282979E+04</pdfrwt>
<pdfrwt beam="2">  1       -1 0.80814689E-01 0.16282979E+04</pdfrwt>
<totfact> 0.14080894E+01</totfact>
</mgrwt>
</event>
<event>
12    1  0.2083715E-007  0.3941110E+04  0.7818608E-02  0.8016533E-01
          2   -1    0    0  501    0  0.00000000000E+00  0.00000000000E+00  0.30172361209E+04  0.30172361209E+04  0.00000000000E+00 0. -1.
         -2   -1    0    0    0  501 -0.00000000000E+00 -0.00000000000E+00 -0.12869679818E+04  0.12869679818E+04  0.00000000000E+00 0.  1.
         23    2    1    2    0    0  0.12694575838E+04 -0.76624774715E+03 -0.41791644102E+03  0.15432068887E+04  0.90416715452E+02 0.  0.
        254    2    1    2    0    0 -0.12694575838E+04  0.76624774715E+03  0.21481845801E+04  0.27609972140E+04  0.89986135517E+03 0.  0.
        -24    2    4    4    0    0 -0.57945793662E+03 -0.14240018391E+02  0.12598097468E+04  0.13894534237E+04  0.86521327124E+02 0.  0.
         24    2    4    4    0    0 -0.68999964722E+03  0.78048776554E+03  0.88837483327E+03  0.13715437903E+04  0.81620212170E+02 0.  0.
         13    1    3    3    0    0  0.86131529787E+03 -0.56630196880E+03 -0.27701715148E+03  0.10673801874E+04  0.00000000000E+00 0. -1.
        -13    1    3    3    0    0  0.40814228596E+03 -0.19994577835E+03 -0.14089928954E+03  0.47582670129E+03  0.00000000000E+00 0.  1.
          4    1    6    6  502    0 -0.84923918366E+02  0.90963235912E+02  0.14274780787E+03  0.18937613062E+03  0.00000000000E+00 0. -1.
          1    1    5    5  503    0 -0.49037001390E+03 -0.41503304240E+02  0.10841521645E+04  0.11906179868E+04  0.00000000000E+00 0. -1.
         -2    1    5    5    0  503 -0.89087922715E+02  0.27263285849E+02  0.17565758230E+03  0.19883543685E+03  0.00000000000E+00 0.  1.
         -1    1    6    6    0  502 -0.60507572885E+03  0.68952452963E+03  0.74562702540E+03  0.11821676597E+04  0.00000000000E+00 0.  1.
<mgrwt>
<rscale>  0 0.39411096E+04</rscale>
<asrwt>0</asrwt>
<pdfrwt beam="1">  1        2 0.46419017E+00 0.39411096E+04</pdfrwt>
<pdfrwt beam="2">  1       -2 0.19799508E+00 0.39411096E+04</pdfrwt>
<totfact> 0.18444170E-01</totfact>
</mgrwt>
</event>
<event>
12    1  0.2083715E-007  0.1911623E+04  0.7818608E-02  0.8649092E-01
         -2   -1    0    0    0  501 -0.00000000000E+00  0.00000000000E+00  0.54174706183E+03  0.54174706183E+03  0.00000000000E+00 0.  1.
          2   -1    0    0  501    0  0.00000000000E+00 -0.00000000000E+00 -0.16863507769E+04  0.16863507769E+04  0.00000000000E+00 0. -1.
         23    2    1    2    0    0  0.57855000907E+03 -0.16857115556E+03  0.59253951111E+02  0.61250979222E+03  0.92308544320E+02 0.  0.
        254    2    1    2    0    0 -0.57855000907E+03  0.16857115556E+03 -0.12038576662E+04  0.16155880465E+04  0.89314898428E+03 0.  0.
        -24    2    4    4    0    0 -0.41976054834E+03  0.36463429155E+03 -0.23114502399E+03  0.60767084605E+03  0.81723622741E+02 0.  0.
         24    2    4    4    0    0 -0.15878946073E+03 -0.19606313599E+03 -0.97271264218E+03  0.10079172004E+04  0.77925301200E+02 0.  0.
         13    1    3    3    0    0  0.39178787649E+03 -0.76922062202E+02  0.13476237145E+02  0.39949512236E+03  0.00000000000E+00 0. -1.
        -13    1    3    3    0    0  0.18676213258E+03 -0.91649093360E+02  0.45777713966E+02  0.21301466986E+03  0.00000000000E+00 0.  1.
          2    1    6    6  502    0 -0.19656971667E+02  0.20677937423E+01 -0.11519313523E+03  0.11687656185E+03  0.00000000000E+00 0. -1.
          3    1    5    5  503    0 -0.21243012886E+03  0.15070018966E+03 -0.73557383378E+02  0.27064329931E+03  0.00000000000E+00 0. -1.
         -4    1    5    5    0  503 -0.20733041948E+03  0.21393410189E+03 -0.15758764061E+03  0.33702754675E+03  0.00000000000E+00 0.  1.
         -1    1    6    6    0  502 -0.13913248907E+03 -0.19813092973E+03 -0.85751950695E+03  0.89104063860E+03  0.00000000000E+00 0.  1.
<mgrwt>
<rscale>  0 0.19116230E+04</rscale>
<asrwt>0</asrwt>
<pdfrwt beam="1">  1        2 0.25943858E+00 0.19116230E+04</pdfrwt>
<pdfrwt beam="2">  1       -2 0.83345702E-01 0.19116230E+04</pdfrwt>
<totfact> 0.11765659E+01</totfact>
</mgrwt>
</event>
<event>
12    1  0.2083715E-007  0.1681144E+04  0.7818608E-02  0.8772192E-01
         -1   -1    0    0    0  501 -0.00000000000E+00  0.00000000000E+00  0.10250185837E+04  0.10250185837E+04  0.00000000000E+00 0.  1.
          1   -1    0    0  501    0  0.00000000000E+00 -0.00000000000E+00 -0.68931592978E+03  0.68931592978E+03  0.00000000000E+00 0. -1.
         23    2    1    2    0    0 -0.34630746733E+03  0.29702917784E+03 -0.27131713960E+03  0.53872227232E+03  0.91942928169E+02 0.  0.
        254    2    1    2    0    0  0.34630746733E+03 -0.29702917784E+03  0.60701979355E+03  0.11756122412E+04  0.89746081667E+03 0.  0.
        -24    2    4    4    0    0  0.28246940966E+03  0.10119652237E+03 -0.12641970360E+03  0.33534800929E+03  0.80290985438E+02 0.  0.
         24    2    4    4    0    0  0.63838057667E+02 -0.39822570021E+03  0.73343949715E+03  0.84026423189E+03  0.73834121566E+02 0.  0.
         11    1    3    3    0    0 -0.26649518218E+03  0.24696687271E+03 -0.17254966528E+03  0.40222593816E+03  0.00000000000E+00 0.  1.
        -11    1    3    3    0    0 -0.79812285149E+02  0.50062305125E+02 -0.98767474323E+02  0.13649633416E+03  0.00000000000E+00 0. -1.
          2    1    6    6  502    0 -0.16414981508E+02 -0.48873958917E+02  0.90889413581E+02  0.10449402365E+03  0.00000000000E+00 0. -1.
          3    1    5    5  503    0  0.42332614910E+02 -0.13489891135E+02 -0.20385951494E+02  0.48883683027E+02  0.00000000000E+00 0. -1.
         -4    1    5    5    0  503  0.24013679475E+03  0.11468641350E+03 -0.10603375211E+03  0.28646432627E+03  0.00000000000E+00 0.  1.
         -1    1    6    6    0  502  0.80253039175E+02 -0.34935174129E+03  0.64255008357E+03  0.73577020824E+03  0.00000000000E+00 0.  1.
<mgrwt>
<rscale>  0 0.16811444E+04</rscale>
<asrwt>0</asrwt>
<pdfrwt beam="1">  1        1 0.10604860E+00 0.16811444E+04</pdfrwt>
<pdfrwt beam="2">  1       -1 0.15769517E+00 0.16811444E+04</pdfrwt>
<totfact> 0.80883242E+00</totfact>
</mgrwt>
</event>
<event>
12    1  0.2083715E-007  0.4038378E+04  0.7818608E-02  0.7996849E-01
         -2   -1    0    0    0  501 -0.00000000000E+00  0.00000000000E+00  0.12936872617E+04  0.12936872617E+04  0.00000000000E+00 0.  1.
          2   -1    0    0  501    0  0.00000000000E+00 -0.00000000000E+00 -0.31515525431E+04  0.31515525431E+04  0.00000000000E+00 0. -1.
         23    2    1    2    0    0  0.12399660093E+04  0.61075980121E+03  0.57973320491E+03  0.15016432285E+04  0.91096420515E+02 0.  0.
        254    2    1    2    0    0 -0.12399660093E+04 -0.61075980121E+03 -0.24375984862E+04  0.29435965763E+04  0.90129417222E+03 0.  0.
        -24    2    4    4    0    0 -0.10934103217E+04 -0.29672631660E+03 -0.11848174917E+04  0.16412828632E+04  0.80151791843E+02 0.  0.
         24    2    4    4    0    0 -0.14655568753E+03 -0.31403348461E+03 -0.12527809945E+04  0.13023137131E+04  0.80406392985E+02 0.  0.
         11    1    3    3    0    0  0.82144300201E+03  0.40578573605E+03  0.33718442108E+03  0.97628069886E+03  0.00000000000E+00 0. -1.
        -11    1    3    3    0    0  0.41852300726E+03  0.20497406516E+03  0.24254878383E+03  0.52536252962E+03  0.00000000000E+00 0.  1.
          4    1    6    6  502    0 -0.11266679228E+03 -0.29345474882E+03 -0.11488325250E+04  0.11910607315E+04  0.00000000000E+00 0. -1.
          1    1    5    5  503    0 -0.10307161290E+04 -0.29095648740E+03 -0.11388169136E+04  0.15633091118E+04  0.00000000000E+00 0. -1.
         -2    1    5    5    0  503 -0.62694192728E+02 -0.57698292066E+01 -0.46000578139E+02  0.77973751481E+02  0.00000000000E+00 0.  1.
         -3    1    6    6    0  502 -0.33888895251E+02 -0.20578735785E+02 -0.10394846951E+03  0.11125298154E+03  0.00000000000E+00 0.  1.
<mgrwt>
<rscale>  0 0.40383776E+04</rscale>
<asrwt>0</asrwt>
<pdfrwt beam="1">  1        2 0.48485423E+00 0.40383776E+04</pdfrwt>
<pdfrwt beam="2">  1       -2 0.19902881E+00 0.40383776E+04</pdfrwt>
<totfact> 0.14786352E-01</totfact>
</mgrwt>
</event>
<event>
12    1  0.2083715E-007  0.2914739E+04  0.7818608E-02  0.8268506E-01
          2   -1    0    0  501    0  0.00000000000E+00  0.00000000000E+00  0.10656606365E+04  0.10656606365E+04  0.00000000000E+00 0. -1.
         -2   -1    0    0    0  501 -0.00000000000E+00 -0.00000000000E+00 -0.19930606545E+04  0.19930606545E+04  0.00000000000E+00 0.  1.
         23    2    1    2    0    0 -0.10108222770E+04  0.80890824823E+03 -0.67617411638E+03  0.14634203365E+04  0.91068193497E+02 0.  0.
        254    2    1    2    0    0  0.10108222770E+04 -0.80890824823E+03 -0.25122590162E+03  0.15953009545E+04  0.89765051781E+03 0.  0.
        -24    2    4    4    0    0  0.10635676605E+04 -0.92988029239E+03 -0.18053693659E+03  0.14264363707E+04  0.79206108931E+02 0.  0.
         24    2    4    4    0    0 -0.52745383473E+02  0.12097204416E+03 -0.70688965031E+02  0.16886458379E+03  0.78115343794E+02 0.  0.
         13    1    3    3    0    0 -0.24180914843E+03  0.23098769487E+03 -0.14430890276E+03  0.36421427603E+03  0.00000000000E+00 0. -1.
        -13    1    3    3    0    0 -0.76901312859E+03  0.57792055336E+03 -0.53186521361E+03  0.10992060605E+04  0.00000000000E+00 0.  1.
          4    1    6    6  502    0 -0.40762339056E+01  0.99144463098E+02 -0.37705113331E+02  0.10615043955E+03  0.00000000000E+00 0. -1.
          3    1    5    5  503    0  0.80286147553E+01 -0.34256555260E+01 -0.72283997756E+01  0.11333293166E+02  0.00000000000E+00 0. -1.
         -4    1    5    5    0  503  0.10555390457E+04 -0.92645463686E+03 -0.17330853681E+03  0.14151030776E+04  0.00000000000E+00 0.  1.
         -3    1    6    6    0  502 -0.48669149568E+02  0.21827581061E+02 -0.32983851700E+02  0.62714144239E+02  0.00000000000E+00 0.  1.
<mgrwt>
<rscale>  0 0.29147393E+04</rscale>
<asrwt>0</asrwt>
<pdfrwt beam="1">  1        2 0.16394779E+00 0.29147393E+04</pdfrwt>
<pdfrwt beam="2">  1       -2 0.30662472E+00 0.29147393E+04</pdfrwt>
<totfact> 0.57096160E-01</totfact>
</mgrwt>
</event>
<event>
12    1  0.2083715E-007  0.2821796E+04  0.7818608E-02  0.8296533E-01
         -2   -1    0    0    0  501 -0.00000000000E+00  0.00000000000E+00  0.39506623404E+03  0.39506623404E+03  0.00000000000E+00 0.  1.
          2   -1    0    0  501    0  0.00000000000E+00 -0.00000000000E+00 -0.50387340629E+04  0.50387340629E+04  0.00000000000E+00 0. -1.
         23    2    1    2    0    0 -0.21498748813E+03  0.12136541058E+04 -0.26430166108E+04  0.29177149124E+04  0.91365183675E+02 0.  0.
        254    2    1    2    0    0  0.21498748813E+03 -0.12136541058E+04 -0.20006512181E+04  0.25160853845E+04  0.89939115912E+03 0.  0.
        -24    2    4    4    0    0 -0.37147854063E+02 -0.10775039514E+04 -0.19269586579E+04  0.22092867902E+04  0.73373862567E+02 0.  0.
         24    2    4    4    0    0  0.25213534219E+03 -0.13615015439E+03 -0.73692560182E+02  0.30679859430E+03  0.81152256393E+02 0.  0.
         11    1    3    3    0    0 -0.21326444840E+03  0.10208224007E+04 -0.22506189455E+04  0.24804930431E+04  0.00000000000E+00 0. -1.
        -11    1    3    3    0    0 -0.17230397307E+01  0.19283170510E+03 -0.39239766526E+03  0.43722186937E+03  0.00000000000E+00 0.  1.
          4    1    6    6  502    0  0.11288021221E+03 -0.10691252304E+03 -0.41316559114E+02  0.16087040731E+03  0.00000000000E+00 0. -1.
          3    1    5    5  503    0  0.68900621557E+01 -0.11610141486E+03 -0.25140925741E+03  0.27700835042E+03  0.00000000000E+00 0. -1.
         -4    1    5    5    0  503 -0.44037916218E+02 -0.96140253656E+03 -0.16755494005E+04  0.19322784398E+04  0.00000000000E+00 0.  1.
         -3    1    6    6    0  502  0.13925512998E+03 -0.29237631344E+02 -0.32376001068E+02  0.14592818699E+03  0.00000000000E+00 0.  1.
<mgrwt>
<rscale>  0 0.28217964E+04</rscale>
<asrwt>0</asrwt>
<pdfrwt beam="1">  1        2 0.77518986E+00 0.28217964E+04</pdfrwt>
<pdfrwt beam="2">  1       -2 0.60779420E-01 0.28217964E+04</pdfrwt>
<totfact> 0.67225603E-02</totfact>
</mgrwt>
</event>
<event>
12    1  0.3324311E-007  0.3670888E+04  0.7818608E-02  0.8074444E-01
         -2   -1    0    0    0  501 -0.00000000000E+00  0.00000000000E+00  0.17251411235E+04  0.17251411235E+04  0.00000000000E+00 0.  1.
          2   -1    0    0  501    0  0.00000000000E+00 -0.00000000000E+00 -0.19527995971E+04  0.19527995971E+04  0.00000000000E+00 0. -1.
         23    2    1    2    0    0  0.77478594333E+03  0.15343002063E+04  0.24634593069E+02  0.17214430819E+04  0.91591702499E+02 0.  0.
        254    2    1    2    0    0 -0.77478594333E+03 -0.15343002063E+04 -0.25229306670E+03  0.19564976386E+04  0.89992268414E+03 0.  0.
        -24    2    4    4    0    0 -0.18896061877E+03  0.80533621705E+02 -0.31487181992E+02  0.22259034161E+03  0.79769905835E+02 0.  0.
         24    2    4    4    0    0 -0.58582532456E+03 -0.16148338280E+04 -0.22080588471E+03  0.17339072970E+04  0.82460129519E+02 0.  0.
         11    1    3    3    0    0  0.59301592518E+03  0.10875837966E+04  0.30447676408E+02  0.12391260885E+04  0.00000000000E+00 0.  1.
        -11    1    3    3    0    0  0.18177001815E+03  0.44671640973E+03 -0.58130833394E+01  0.48231699343E+03  0.00000000000E+00 0. -1.
          2    1    6    6  502    0 -0.56298714806E+03 -0.15181880079E+04 -0.22349095826E+03  0.16345634171E+04  0.00000000000E+00 0. -1.
          3    1    5    5  503    0 -0.16366031703E+03  0.58211332012E+02  0.38300661050E+01  0.17374673509E+03  0.00000000000E+00 0. -1.
         -4    1    5    5    0  503 -0.25300301734E+02  0.22322289694E+02 -0.35317248097E+02  0.48843606523E+02  0.00000000000E+00 0.  1.
         -1    1    6    6    0  502 -0.22838176496E+02 -0.96645820132E+02  0.26850735526E+01  0.99343879905E+02  0.00000000000E+00 0.  1.
<mgrwt>
<rscale>  0 0.36708881E+04</rscale>
<asrwt>0</asrwt>
<pdfrwt beam="1">  1        2 0.30043071E+00 0.36708881E+04</pdfrwt>
<pdfrwt beam="2">  1       -2 0.26540632E+00 0.36708881E+04</pdfrwt>
<totfact> 0.29738215E-01</totfact>
</mgrwt>
</event>
<event>
12    1  0.2083715E-007  0.1292204E+04  0.7818608E-02  0.9035771E-01
          1   -1    0    0  501    0  0.00000000000E+00  0.00000000000E+00  0.50677771098E+03  0.50677771098E+03  0.00000000000E+00 0. -1.
         -1   -1    0    0    0  501 -0.00000000000E+00 -0.00000000000E+00 -0.82372929097E+03  0.82372929097E+03  0.00000000000E+00 0.  1.
         23    2    1    2    0    0  0.27895471571E+03 -0.49983547719E+02  0.76123393794E+02  0.30759662008E+03  0.92232430010E+02 0.  0.
        254    2    1    2    0    0 -0.27895471571E+03  0.49983547719E+02 -0.39307497378E+03  0.10229103819E+04  0.90084606114E+03 0.  0.
        -24    2    4    4    0    0 -0.56340453113E+03 -0.88675059830E+02 -0.39208870841E+03  0.69662589176E+03  0.79158991092E+02 0.  0.
         24    2    4    4    0    0  0.28444981542E+03  0.13865860755E+03 -0.98626536801E+00  0.32628449012E+03  0.79515337081E+02 0.  0.
         11    1    3    3    0    0  0.19568349452E+03  0.91293577305E+01  0.48709171440E+02  0.20186123596E+03  0.00000000000E+00 0.  1.
        -11    1    3    3    0    0  0.83271221188E+02 -0.59112905450E+02  0.27414222354E+02  0.10573538413E+03  0.00000000000E+00 0. -1.
          2    1    6    6  502    0  0.28417228730E+02  0.10655651788E+02 -0.24596950174E+02  0.39065224454E+02  0.00000000000E+00 0. -1.
          3    1    5    5  503    0 -0.11080180894E+03  0.13931992191E+02 -0.79524067209E+02  0.13709565470E+03  0.00000000000E+00 0. -1.
         -4    1    5    5    0  503 -0.45260272219E+03 -0.10260705202E+03 -0.31256464120E+03  0.55953023706E+03  0.00000000000E+00 0.  1.
         -1    1    6    6    0  502  0.25603258669E+03  0.12800295576E+03  0.23610684806E+02  0.28721926566E+03  0.00000000000E+00 0.  1.
<mgrwt>
<rscale>  0 0.12922038E+04</rscale>
<asrwt>0</asrwt>
<pdfrwt beam="1">  1        1 0.77965802E-01 0.12922038E+04</pdfrwt>
<pdfrwt beam="2">  1       -1 0.12672758E+00 0.12922038E+04</pdfrwt>
<totfact> 0.23134513E+01</totfact>
</mgrwt>
</event>
<event>
12    1  0.2083715E-007  0.1328524E+04  0.7818608E-02  0.9007246E-01
          2   -1    0    0  501    0  0.00000000000E+00  0.00000000000E+00  0.12710995818E+04  0.12710995818E+04  0.00000000000E+00 0. -1.
         -2   -1    0    0    0  501 -0.00000000000E+00 -0.00000000000E+00 -0.34713554605E+03  0.34713554605E+03  0.00000000000E+00 0.  1.
         23    2    1    2    0    0  0.46252220042E+02 -0.32777699818E+03  0.10322777214E+03  0.35893811710E+03  0.92755434189E+02 0.  0.
        254    2    1    2    0    0 -0.46252220042E+02  0.32777699818E+03  0.82073626361E+03  0.12592970107E+04  0.89590396721E+03 0.  0.
        -24    2    4    4    0    0 -0.34509551303E+03  0.38788736108E+03  0.19811622060E+03  0.56149620730E+03  0.80501154975E+02 0.  0.
         24    2    4    4    0    0  0.29884329299E+03 -0.60110362895E+02  0.62262004300E+03  0.69780080344E+03  0.79684840700E+02 0.  0.
         11    1    3    3    0    0  0.63443952839E+02 -0.15438792282E+03  0.72629953972E+02  0.18203262366E+03  0.00000000000E+00 0.  1.
        -11    1    3    3    0    0 -0.17191732797E+02 -0.17338907536E+03  0.30597818170E+02  0.17690549344E+03  0.00000000000E+00 0. -1.
          4    1    6    6  502    0  0.19213319604E+03 -0.36502320488E+02  0.30905750603E+03  0.36573778374E+03  0.00000000000E+00 0. -1.
          3    1    5    5  503    0 -0.27160908248E+03  0.28680133215E+03  0.11498344023E+03  0.41139724031E+03  0.00000000000E+00 0. -1.
         -4    1    5    5    0  503 -0.73486430553E+02  0.10108602893E+03  0.83132780376E+02  0.15009896700E+03  0.00000000000E+00 0.  1.
         -3    1    6    6    0  502  0.10671009694E+03 -0.23608042407E+02  0.31356253697E+03  0.33206301970E+03  0.00000000000E+00 0.  1.
<mgrwt>
<rscale>  0 0.13285238E+04</rscale>
<asrwt>0</asrwt>
<pdfrwt beam="1">  1        2 0.19555378E+00 0.13285238E+04</pdfrwt>
<pdfrwt beam="2">  1       -2 0.53405469E-01 0.13285238E+04</pdfrwt>
<totfact> 0.55558365E+01</totfact>
</mgrwt>
</event>
<event>
12    1  0.2083715E-007  0.1890219E+04  0.7818608E-02  0.8659741E-01
         -2   -1    0    0    0  501 -0.00000000000E+00  0.00000000000E+00  0.11842221381E+04  0.11842221381E+04  0.00000000000E+00 0.  1.
          2   -1    0    0  501    0  0.00000000000E+00 -0.00000000000E+00 -0.75427710216E+03  0.75427710216E+03  0.00000000000E+00 0. -1.
         23    2    1    2    0    0 -0.13338619828E+03 -0.67695329140E+03  0.39378983719E+03  0.79954547839E+03  0.90249097023E+02 0.  0.
        254    2    1    2    0    0  0.13338619828E+03  0.67695329140E+03  0.36155198796E+02  0.11389537619E+04  0.90545614844E+03 0.  0.
        -24    2    4    4    0    0 -0.36403462842E+02  0.71051265674E+03 -0.28179807603E+03  0.76932734726E+03  0.79378612365E+02 0.  0.
         24    2    4    4    0    0  0.16978966112E+03 -0.33559365336E+02  0.31795327483E+03  0.36962641465E+03  0.74663521268E+02 0.  0.
         11    1    3    3    0    0 -0.39417076874E+02 -0.41426344490E+03  0.21782530161E+03  0.46969753007E+03  0.00000000000E+00 0. -1.
        -11    1    3    3    0    0 -0.93969121405E+02 -0.26268984650E+03  0.17596453558E+03  0.32984794832E+03  0.00000000000E+00 0.  1.
          2    1    6    6  502    0  0.62190568837E+02  0.12798729552E+01  0.53659061467E+02  0.82149861866E+02  0.00000000000E+00 0. -1.
          3    1    5    5  503    0 -0.47448089837E+02  0.42475456454E+03 -0.13720634718E+03  0.44888009873E+03  0.00000000000E+00 0. -1.
         -4    1    5    5    0  503  0.11044626995E+02  0.28575809220E+03 -0.14459172885E+03  0.32044724854E+03  0.00000000000E+00 0.  1.
         -1    1    6    6    0  502  0.10759909228E+03 -0.34839238292E+02  0.26429421336E+03  0.28747655278E+03  0.00000000000E+00 0.  1.
<mgrwt>
<rscale>  0 0.18902187E+04</rscale>
<asrwt>0</asrwt>
<pdfrwt beam="1">  1        2 0.11604263E+00 0.18902187E+04</pdfrwt>
<pdfrwt beam="2">  1       -2 0.18218802E+00 0.18902187E+04</pdfrwt>
<totfact> 0.61067998E+00</totfact>
</mgrwt>
</event>
<event>
12    1  0.2083715E-007  0.1100215E+04  0.7818608E-02  0.9204982E-01
          2   -1    0    0  501    0  0.00000000000E+00  0.00000000000E+00  0.14595225349E+04  0.14595225349E+04  0.00000000000E+00 0. -1.
         -2   -1    0    0    0  501 -0.00000000000E+00 -0.00000000000E+00 -0.20734057397E+03  0.20734057397E+03  0.00000000000E+00 0.  1.
         23    2    1    2    0    0  0.57617130431E+02  0.37760326079E+02 -0.11204203370E+02  0.11428039773E+03  0.90492536634E+02 0.  0.
        254    2    1    2    0    0 -0.57617130431E+02 -0.37760326079E+02  0.12633861643E+04  0.15525827111E+04  0.89979047496E+03 0.  0.
        -24    2    4    4    0    0  0.11336417888E+03 -0.28963731047E+02  0.13406968391E+04  0.13481557731E+04  0.79784955764E+02 0.  0.
         24    2    4    4    0    0 -0.17098130932E+03 -0.87965950314E+01 -0.77310674872E+02  0.20442693805E+03  0.80631534363E+02 0.  0.
         13    1    3    3    0    0 -0.24425516380E+02  0.10347712374E+02  0.27186728558E+01  0.26665936771E+02  0.00000000000E+00 0. -1.
        -13    1    3    3    0    0  0.82042646811E+02  0.27412613705E+02 -0.13922876226E+02  0.87614460954E+02  0.00000000000E+00 0.  1.
          4    1    6    6  502    0 -0.17465678962E+03 -0.99127812745E+01 -0.57347821769E+02  0.18409788173E+03  0.00000000000E+00 0. -1.
          1    1    5    5  503    0  0.60678777351E+02  0.25383068657E+02  0.65468285948E+03  0.65797861720E+03  0.00000000000E+00 0. -1.
         -2    1    5    5    0  503  0.52685401533E+02 -0.54346799705E+02  0.68601397966E+03  0.69017715585E+03  0.00000000000E+00 0.  1.
         -3    1    6    6    0  502  0.36754803076E+01  0.11161862431E+01 -0.19962853103E+02  0.20329056329E+02  0.00000000000E+00 0.  1.
<mgrwt>
<rscale>  0 0.11002150E+04</rscale>
<asrwt>0</asrwt>
<pdfrwt beam="1">  1        2 0.22454192E+00 0.11002150E+04</pdfrwt>
<pdfrwt beam="2">  1       -2 0.31898551E-01 0.11002150E+04</pdfrwt>
<totfact> 0.12131887E+02</totfact>
</mgrwt>
</event>
<event>
12    1  0.2083715E-007  0.1754958E+04  0.7818608E-02  0.8730626E-01
          1   -1    0    0  501    0  0.00000000000E+00  0.00000000000E+00  0.87796594785E+03  0.87796594785E+03  0.00000000000E+00 0. -1.
         -1   -1    0    0    0  501 -0.00000000000E+00 -0.00000000000E+00 -0.87699209961E+03  0.87699209961E+03  0.00000000000E+00 0.  1.
         23    2    1    2    0    0  0.30437786053E+03 -0.46472861268E+03  0.31784322566E+03  0.64663446020E+03  0.92158795539E+02 0.  0.
        254    2    1    2    0    0 -0.30437786053E+03  0.46472861268E+03 -0.31686937743E+03  0.11083235873E+04  0.90518307889E+03 0.  0.
        -24    2    4    4    0    0 -0.32125417660E+03  0.69119640513E+03 -0.78685130203E+02  0.76974215717E+03  0.73177334993E+02 0.  0.
         24    2    4    4    0    0  0.16876316072E+02 -0.22646779245E+03 -0.23818424722E+03  0.33858143010E+03  0.79581267389E+02 0.  0.
         11    1    3    3    0    0  0.23446817282E+03 -0.39935215047E+03  0.29208533312E+03  0.54751374958E+03  0.00000000000E+00 0. -1.
        -11    1    3    3    0    0  0.69909687705E+02 -0.65376462209E+02  0.25757892541E+02  0.99120710622E+02  0.00000000000E+00 0.  1.
          4    1    6    6  502    0 -0.44807019320E+01 -0.24919472725E+02 -0.72521977265E+02  0.76814673058E+02  0.00000000000E+00 0. -1.
          3    1    5    5  503    0 -0.42149033589E+02  0.16129476274E+03 -0.12347511704E+02  0.16716758826E+03  0.00000000000E+00 0. -1.
         -4    1    5    5    0  503 -0.27910514301E+03  0.52990164239E+03 -0.66337618499E+02  0.60257456890E+03  0.00000000000E+00 0.  1.
         -1    1    6    6    0  502  0.21357018004E+02 -0.20154831973E+03 -0.16566226996E+03  0.26176675704E+03  0.00000000000E+00 0.  1.
<mgrwt>
<rscale>  0 0.17549578E+04</rscale>
<asrwt>0</asrwt>
<pdfrwt beam="1">  1        1 0.13507168E+00 0.17549578E+04</pdfrwt>
<pdfrwt beam="2">  1       -1 0.13492186E+00 0.17549578E+04</pdfrwt>
<totfact> 0.82932415E+00</totfact>
</mgrwt>
</event>
<event>
12    1  0.2083715E-007  0.1201691E+04  0.7818608E-02  0.9111377E-01
         -1   -1    0    0    0  501 -0.00000000000E+00  0.00000000000E+00  0.60471592454E+03  0.60471592454E+03  0.00000000000E+00 0.  1.
          1   -1    0    0  501    0  0.00000000000E+00 -0.00000000000E+00 -0.59700033308E+03  0.59700033308E+03  0.00000000000E+00 0. -1.
         23    2    1    2    0    0  0.16599709183E+03 -0.32577257681E+02  0.20505114663E+03  0.28138772952E+03  0.92286344473E+02 0.  0.
        254    2    1    2    0    0 -0.16599709183E+03  0.32577257681E+02 -0.19733555517E+03  0.92032852811E+03  0.88286293733E+03 0.  0.
        -24    2    4    4    0    0 -0.45870510435E+03  0.24316173810E+03 -0.75098498744E+02  0.53205973985E+03  0.88936936214E+02 0.  0.
         24    2    4    4    0    0  0.29270801252E+03 -0.21058448042E+03 -0.12223705642E+03  0.38826878826E+03  0.76072005268E+02 0.  0.
         11    1    3    3    0    0  0.93669488857E+02 -0.62397778060E+02  0.10112849556E+03  0.15130904951E+03  0.00000000000E+00 0. -1.
        -11    1    3    3    0    0  0.72327602976E+02  0.29820520380E+02  0.10392265107E+03  0.13007868001E+03  0.00000000000E+00 0.  1.
          2    1    6    6  502    0  0.15642384678E+03 -0.11368494340E+03 -0.25401500474E+02  0.19503313161E+03  0.00000000000E+00 0. -1.
          3    1    5    5  503    0 -0.25249105971E+03  0.11172905120E+03 -0.80031768470E+02  0.28747208574E+03  0.00000000000E+00 0. -1.
         -4    1    5    5    0  503 -0.20621404465E+03  0.13143268690E+03  0.49332697266E+01  0.24458765412E+03  0.00000000000E+00 0.  1.
         -1    1    6    6    0  502  0.13628416574E+03 -0.96899537015E+02 -0.96835555950E+02  0.19323565665E+03  0.00000000000E+00 0.  1.
<mgrwt>
<rscale>  0 0.12016915E+04</rscale>
<asrwt>0</asrwt>
<pdfrwt beam="1">  1        1 0.91846205E-01 0.12016915E+04</pdfrwt>
<pdfrwt beam="2">  1       -1 0.93033219E-01 0.12016915E+04</pdfrwt>
<totfact> 0.38331507E+01</totfact>
</mgrwt>
</event>
<event>
12    1  0.2083715E-007  0.2967489E+04  0.7818608E-02  0.8253076E-01
         -1   -1    0    0    0  501 -0.00000000000E+00  0.00000000000E+00  0.17085762347E+04  0.17085762347E+04  0.00000000000E+00 0.  1.
          1   -1    0    0  501    0  0.00000000000E+00 -0.00000000000E+00 -0.12884983358E+04  0.12884983358E+04  0.00000000000E+00 0. -1.
         23    2    1    2    0    0  0.32734430877E+02  0.11986305431E+04  0.80686450042E+03  0.14486348602E+04  0.98620050620E+02 0.  0.
        254    2    1    2    0    0 -0.32734430877E+02 -0.11986305431E+04 -0.38678660153E+03  0.15484397102E+04  0.90015273105E+03 0.  0.
        -24    2    4    4    0    0  0.34179049069E+03 -0.45810537347E+03 -0.42102339644E+03  0.71416512981E+03  0.78037552285E+02 0.  0.
         24    2    4    4    0    0 -0.37452492157E+03 -0.74052516966E+03  0.34236794909E+02  0.83427458042E+03  0.78711330999E+02 0.  0.
         13    1    3    3    0    0  0.19371845626E+02  0.83245593715E+03  0.61383861842E+03  0.10344834485E+04  0.00000000000E+00 0.  1.
        -13    1    3    3    0    0  0.13362585252E+02  0.36617460598E+03  0.19302588200E+03  0.41415141177E+03  0.00000000000E+00 0. -1.
          4    1    6    6  502    0 -0.33439232897E+03 -0.63357146978E+03  0.53624780403E+02  0.71840563338E+03  0.00000000000E+00 0. -1.
          1    1    5    5  503    0  0.33178360906E+03 -0.45275054650E+03 -0.39674391920E+03  0.68736391964E+03  0.00000000000E+00 0. -1.
         -4    1    5    5    0  503  0.10006881629E+02 -0.53548269672E+01 -0.24279477244E+02  0.26801210179E+02  0.00000000000E+00 0.  1.
         -3    1    6    6    0  502 -0.40132592598E+02 -0.10695369988E+03 -0.19387985495E+02  0.11586894704E+03  0.00000000000E+00 0.  1.
<mgrwt>
<rscale>  0 0.29674889E+04</rscale>
<asrwt>0</asrwt>
<pdfrwt beam="1">  1        1 0.19823051E+00 0.29674889E+04</pdfrwt>
<pdfrwt beam="2">  1       -1 0.26285788E+00 0.29674889E+04</pdfrwt>
<totfact> 0.45229075E-01</totfact>
</mgrwt>
</event>
<event>
12    1  0.2083715E-007  0.2184836E+04  0.7818608E-02  0.8524766E-01
         -1   -1    0    0    0  501 -0.00000000000E+00  0.00000000000E+00  0.93922863067E+03  0.93922863067E+03  0.00000000000E+00 0.  1.
          1   -1    0    0  501    0  0.00000000000E+00 -0.00000000000E+00 -0.12705928840E+04  0.12705928840E+04  0.00000000000E+00 0. -1.
         23    2    1    2    0    0 -0.76893972929E+03 -0.41817924309E+03  0.95585488913E+02  0.88511687181E+03  0.90294542782E+02 0.  0.
        254    2    1    2    0    0  0.76893972929E+03  0.41817924309E+03 -0.42694974227E+03  0.13247046429E+04  0.89800563573E+03 0.  0.
        -24    2    4    4    0    0  0.23954518195E+03 -0.22766619684E+03  0.73448491810E+02  0.34801819702E+03  0.80673373110E+02 0.  0.
         24    2    4    4    0    0  0.52939454734E+03  0.64584543992E+03 -0.50039823408E+03  0.97668644586E+03  0.78377942252E+02 0.  0.
         11    1    3    3    0    0 -0.36474659090E+03 -0.24975415941E+03  0.48199592043E+02  0.44468012817E+03  0.00000000000E+00 0. -1.
        -11    1    3    3    0    0 -0.40419313838E+03 -0.16842508367E+03  0.47385896870E+02  0.44043674364E+03  0.00000000000E+00 0.  1.
          4    1    6    6  502    0  0.26382176585E+02  0.61335797151E+02 -0.28429687068E+02  0.72569596666E+02  0.00000000000E+00 0. -1.
          1    1    5    5  503    0  0.10766019653E+01 -0.18040690137E+02 -0.86989456434E+01  0.20057348472E+02  0.00000000000E+00 0. -1.
         -2    1    5    5    0  503  0.23846857998E+03 -0.20962550670E+03  0.82147437454E+02  0.32796084855E+03  0.00000000000E+00 0.  1.
         -3    1    6    6    0  502  0.50301237075E+03  0.58450964277E+03 -0.47196854701E+03  0.90411684919E+03  0.00000000000E+00 0.  1.
<mgrwt>
<rscale>  0 0.21848361E+04</rscale>
<asrwt>0</asrwt>
<pdfrwt beam="1">  1        1 0.19547583E+00 0.21848361E+04</pdfrwt>
<pdfrwt beam="2">  1       -1 0.14449671E+00 0.21848361E+04</pdfrwt>
<totfact> 0.33433998E+00</totfact>
</mgrwt>
</event>
<event>
12    1  0.2083715E-007  0.1556677E+04  0.7818608E-02  0.8847614E-01
          2   -1    0    0  501    0  0.00000000000E+00  0.00000000000E+00  0.29377798151E+04  0.29377798151E+04  0.00000000000E+00 0. -1.
         -2   -1    0    0    0  501 -0.00000000000E+00 -0.00000000000E+00 -0.20621380548E+03  0.20621380548E+03  0.00000000000E+00 0.  1.
         23    2    1    2    0    0  0.43549084336E+03 -0.25196363966E+03  0.11248156744E+04  0.12349525128E+04  0.82215917128E+02 0.  0.
        254    2    1    2    0    0 -0.43549084336E+03  0.25196363966E+03  0.16067503352E+04  0.19090411078E+04  0.89980740233E+03 0.  0.
        -24    2    4    4    0    0 -0.77735897944E+02  0.15170139015E+03 -0.60935362989E+02  0.19855956114E+03  0.81587984761E+02 0.  0.
         24    2    4    4    0    0 -0.35775494541E+03  0.10026224951E+03  0.16676856982E+04  0.17104815467E+04  0.80810976372E+02 0.  0.
         13    1    3    3    0    0  0.20567126170E+03 -0.72072481727E+02  0.48557130929E+03  0.53223548071E+03  0.00000000000E+00 0. -1.
        -13    1    3    3    0    0  0.22981958165E+03 -0.17989115793E+03  0.63924436510E+03  0.70271703205E+03  0.00000000000E+00 0.  1.
          2    1    6    6  502    0 -0.22330799763E+03  0.65288984706E+02  0.85896496941E+03  0.88991568814E+03  0.00000000000E+00 0. -1.
          1    1    5    5  503    0  0.93685891990E+01  0.27009783918E+02  0.10579898365E+02  0.30483325611E+02  0.00000000000E+00 0. -1.
         -2    1    5    5    0  503 -0.87104487143E+02  0.12469160623E+03 -0.71515261354E+02  0.16807623553E+03  0.00000000000E+00 0.  1.
         -1    1    6    6    0  502 -0.13444694778E+03  0.34973264809E+02  0.80872072878E+03  0.82056585853E+03  0.00000000000E+00 0.  1.
<mgrwt>
<rscale>  0 0.15566769E+04</rscale>
<asrwt>0</asrwt>
<pdfrwt beam="1">  1        2 0.45196609E+00 0.15566769E+04</pdfrwt>
<pdfrwt beam="2">  1       -2 0.31725203E-01 0.15566769E+04</pdfrwt>
<totfact> 0.17012302E+01</totfact>
</mgrwt>
</event>
<event>
12    1  0.2083715E-007  0.1861152E+04  0.7818608E-02  0.8674439E-01
          1   -1    0    0  501    0  0.00000000000E+00  0.00000000000E+00  0.19621441249E+04  0.19621441249E+04  0.00000000000E+00 0. -1.
         -1   -1    0    0    0  501 -0.00000000000E+00 -0.00000000000E+00 -0.44133943775E+03  0.44133943775E+03  0.00000000000E+00 0.  1.
         23    2    1    2    0    0  0.43831988123E+03  0.50039236737E+03  0.26543933863E+03  0.72202092925E+03  0.91319987850E+02 0.  0.
        254    2    1    2    0    0 -0.43831988123E+03 -0.50039236737E+03  0.12553653485E+04  0.16814626334E+04  0.89936510363E+03 0.  0.
        -24    2    4    4    0    0 -0.52481090779E+03 -0.19546269293E+03  0.12294730363E+04  0.13532393634E+04  0.77593004926E+02 0.  0.
         24    2    4    4    0    0  0.86491026562E+02 -0.30492967444E+03  0.25892312216E+02  0.32822326999E+03  0.81223759467E+02 0.  0.
         13    1    3    3    0    0  0.22400318868E+03  0.31066954918E+03  0.12272571360E+03  0.40218726746E+03  0.00000000000E+00 0.  1.
        -13    1    3    3    0    0  0.21431669255E+03  0.18972281820E+03  0.14271362504E+03  0.31983366180E+03  0.00000000000E+00 0. -1.
          2    1    6    6  502    0  0.45381039329E+02 -0.91413104919E+02 -0.24640829508E+02  0.10499030889E+03  0.00000000000E+00 0. -1.
          1    1    5    5  503    0 -0.52324210638E+03 -0.18810617079E+03  0.11960094109E+04  0.13189407660E+04  0.00000000000E+00 0. -1.
         -2    1    5    5    0  503 -0.15688014108E+01 -0.73565221447E+01  0.33463625373E+02  0.34298597334E+02  0.00000000000E+00 0.  1.
         -1    1    6    6    0  502  0.41109987233E+02 -0.21351656952E+03  0.50533141724E+02  0.22323296111E+03  0.00000000000E+00 0.  1.
<mgrwt>
<rscale>  0 0.18611519E+04</rscale>
<asrwt>0</asrwt>
<pdfrwt beam="1">  1        1 0.30186832E+00 0.18611519E+04</pdfrwt>
<pdfrwt beam="2">  1       -1 0.67898377E-01 0.18611519E+04</pdfrwt>
<totfact> 0.65181701E+00</totfact>
</mgrwt>
</event>
<event>
12    1  0.2083715E-007  0.2714074E+04  0.7818608E-02  0.8330453E-01
         -1   -1    0    0    0  501 -0.00000000000E+00  0.00000000000E+00  0.47505765181E+03  0.47505765181E+03  0.00000000000E+00 0.  1.
          1   -1    0    0  501    0  0.00000000000E+00 -0.00000000000E+00 -0.38764766111E+04  0.38764766111E+04  0.00000000000E+00 0. -1.
         23    2    1    2    0    0  0.51915295080E+03 -0.71337541407E+03 -0.28323267764E+04  0.29679446655E+04  0.90533428659E+02 0.  0.
        254    2    1    2    0    0 -0.51915295080E+03  0.71337541407E+03 -0.56909218289E+03  0.13835895974E+04  0.90112706849E+03 0.  0.
        -24    2    4    4    0    0 -0.76191978015E+03  0.56023800073E+03 -0.51323833462E+03  0.10793592094E+04  0.84937306351E+02 0.  0.
         24    2    4    4    0    0  0.24276682935E+03  0.15313741333E+03 -0.55853848263E+02  0.30423038792E+03  0.83962347381E+02 0.  0.
         13    1    3    3    0    0  0.33271317174E+03 -0.48376211364E+03 -0.20124243797E+04  0.20963243359E+04  0.00000000000E+00 0.  1.
        -13    1    3    3    0    0  0.18643977907E+03 -0.22961330042E+03 -0.81990239669E+03  0.87162032964E+03  0.00000000000E+00 0. -1.
          2    1    6    6  502    0  0.17695691916E+02  0.43222754770E+02  0.34415508563E+01  0.46831488494E+02  0.00000000000E+00 0. -1.
          3    1    5    5  503    0 -0.13486175773E+03  0.10057682427E+03 -0.12962659876E+03  0.21238278269E+03  0.00000000000E+00 0. -1.
         -4    1    5    5    0  503 -0.62705802242E+03  0.45966117646E+03 -0.38361173586E+03  0.86697642674E+03  0.00000000000E+00 0.  1.
         -1    1    6    6    0  502  0.22507113743E+03  0.10991465856E+03 -0.59295399120E+02  0.25739889943E+03  0.00000000000E+00 0.  1.
<mgrwt>
<rscale>  0 0.27140743E+04</rscale>
<asrwt>0</asrwt>
<pdfrwt beam="1">  1        1 0.59638101E+00 0.27140743E+04</pdfrwt>
<pdfrwt beam="2">  1       -1 0.73085793E-01 0.27140743E+04</pdfrwt>
<totfact> 0.20220051E-01</totfact>
</mgrwt>
</event>
<event>
12    1  0.2083715E-007  0.3413730E+04  0.7818608E-02  0.8134545E-01
          3   -1    0    0  501    0  0.00000000000E+00  0.00000000000E+00  0.90039001651E+03  0.90039001651E+03  0.00000000000E+00 0. -1.
         -3   -1    0    0    0  501 -0.00000000000E+00 -0.00000000000E+00 -0.32356955800E+04  0.32356955800E+04  0.00000000000E+00 0.  1.
         23    2    1    2    0    0 -0.14084197056E+03 -0.15800659436E+04 -0.11104480809E+04  0.19390073142E+04  0.10104245221E+03 0.  0.
        254    2    1    2    0    0  0.14084197056E+03  0.15800659436E+04 -0.12248574825E+04  0.21970782824E+04  0.90024012327E+03 0.  0.
        -24    2    4    4    0    0  0.38625358860E+03  0.88932343185E+03 -0.10654519652E+04  0.14427284386E+04  0.78673097823E+02 0.  0.
         24    2    4    4    0    0 -0.24541161804E+03  0.69074251172E+03 -0.15940551736E+03  0.75434984375E+03  0.79255839056E+02 0.  0.
         13    1    3    3    0    0 -0.97264102367E+02 -0.54843091613E+03 -0.39029760658E+03  0.68012425120E+03  0.00000000000E+00 0.  1.
        -13    1    3    3    0    0 -0.43577868196E+02 -0.10316350274E+04 -0.72015047436E+03  0.12588830629E+04  0.00000000000E+00 0. -1.
          4    1    6    6  502    0 -0.80932308020E+02  0.13428838339E+03 -0.42301948998E+02  0.16239723915E+03  0.00000000000E+00 0. -1.
          1    1    5    5  503    0  0.15487558252E+03  0.43664422756E+03 -0.47401565739E+03  0.66282386119E+03  0.00000000000E+00 0. -1.
         -2    1    5    5    0  503  0.23137800609E+03  0.45267920429E+03 -0.59143630779E+03  0.77990457741E+03  0.00000000000E+00 0.  1.
         -3    1    6    6    0  502 -0.16447931002E+03  0.55645412833E+03 -0.11710356836E+03  0.59195260460E+03  0.00000000000E+00 0.  1.
<mgrwt>
<rscale>  0 0.34137299E+04</rscale>
<asrwt>0</asrwt>
<pdfrwt beam="1">  1        3 0.13852154E+00 0.34137299E+04</pdfrwt>
<pdfrwt beam="2">  1       -3 0.49779932E+00 0.34137299E+04</pdfrwt>
<totfact> 0.26491349E-03</totfact>
</mgrwt>
</event>
<event>
12    1  0.2083715E-007  0.1418147E+04  0.7818608E-02  0.8940787E-01
         -2   -1    0    0    0  501 -0.00000000000E+00  0.00000000000E+00  0.56391919613E+03  0.56391919613E+03  0.00000000000E+00 0.  1.
          2   -1    0    0  501    0  0.00000000000E+00 -0.00000000000E+00 -0.89159029679E+03  0.89159029679E+03  0.00000000000E+00 0. -1.
         23    2    1    2    0    0 -0.19661307867E+02  0.78514051824E+02 -0.51684397804E+03  0.53079625328E+03  0.89810586756E+02 0.  0.
        254    2    1    2    0    0  0.19661307867E+02 -0.78514051824E+02  0.18917287738E+03  0.92471323964E+03  0.90153046242E+03 0.  0.
        -24    2    4    4    0    0 -0.23873654279E+03 -0.39022495939E+03  0.21472280293E+03  0.51144522035E+03  0.78738018268E+02 0.  0.
         24    2    4    4    0    0  0.25839785065E+03  0.31171090757E+03 -0.25549925544E+02  0.41326801929E+03  0.78768762558E+02 0.  0.
         13    1    3    3    0    0  0.16502710100E+02  0.82714383277E+02 -0.37285048549E+03  0.38227149145E+03  0.00000000000E+00 0. -1.
        -13    1    3    3    0    0 -0.36164017967E+02 -0.42003314528E+01 -0.14399349255E+03  0.14852476183E+03  0.00000000000E+00 0.  1.
          2    1    6    6  502    0  0.24059621479E+03  0.31247761678E+03 -0.21278363215E+02  0.39494501934E+03  0.00000000000E+00 0. -1.
          3    1    5    5  503    0 -0.17195267111E+03 -0.20662447982E+03  0.12335807488E+03  0.29576783361E+03  0.00000000000E+00 0. -1.
         -4    1    5    5    0  503 -0.66783871680E+02 -0.18360047958E+03  0.91364728052E+02  0.21567738674E+03  0.00000000000E+00 0.  1.
         -1    1    6    6    0  502  0.17801635869E+02 -0.76670921290E+00 -0.42715623293E+01  0.18322999955E+02  0.00000000000E+00 0.  1.
<mgrwt>
<rscale>  0 0.14181465E+04</rscale>
<asrwt>0</asrwt>
<pdfrwt beam="1">  1        2 0.13716774E+00 0.14181465E+04</pdfrwt>
<pdfrwt beam="2">  1       -2 0.86756799E-01 0.14181465E+04</pdfrwt>
<totfact> 0.33217730E+01</totfact>
</mgrwt>
</event>
<event>
12    1  0.2083715E-007  0.1271166E+04  0.7818608E-02  0.9052748E-01
         -1   -1    0    0    0  501 -0.00000000000E+00  0.00000000000E+00  0.44344909373E+03  0.44344909373E+03  0.00000000000E+00 0.  1.
          1   -1    0    0  501    0  0.00000000000E+00 -0.00000000000E+00 -0.91096336347E+03  0.91096336347E+03  0.00000000000E+00 0. -1.
         23    2    1    2    0    0 -0.36545720193E+02 -0.15449065141E+03 -0.40266474144E+03  0.44235904472E+03  0.91321845199E+02 0.  0.
        254    2    1    2    0    0  0.36545720193E+02  0.15449065141E+03 -0.64849528294E+02  0.91205341247E+03  0.89578625511E+03 0.  0.
        -24    2    4    4    0    0  0.68244649034E+02  0.10317906556E+03 -0.47116422639E+03  0.49370286047E+03  0.80271629618E+02 0.  0.
         24    2    4    4    0    0 -0.31698928841E+02  0.51311585848E+02  0.40631469809E+03  0.41835055200E+03  0.79295961692E+02 0.  0.
         11    1    3    3    0    0 -0.43314684337E+02 -0.44462972105E+02 -0.22383733356E+03  0.23228488901E+03  0.00000000000E+00 0. -1.
        -11    1    3    3    0    0  0.67689641444E+01 -0.11002767930E+03 -0.17882740789E+03  0.21007415572E+03  0.00000000000E+00 0.  1.
          2    1    6    6  502    0 -0.57315916315E+00  0.43219303052E+02  0.84311176185E+02  0.94744979273E+02  0.00000000000E+00 0. -1.
          3    1    5    5  503    0 -0.11270713516E+02 -0.11575822883E+01 -0.87521065788E+02  0.88251379233E+02  0.00000000000E+00 0. -1.
         -4    1    5    5    0  503  0.79515362550E+02  0.10433664785E+03 -0.38364316060E+03  0.40545148124E+03  0.00000000000E+00 0.  1.
         -1    1    6    6    0  502 -0.31125769678E+02  0.80922827951E+01  0.32200352191E+03  0.32360557273E+03  0.00000000000E+00 0.  1.
<mgrwt>
<rscale>  0 0.12711662E+04</rscale>
<asrwt>0</asrwt>
<pdfrwt beam="1">  1        1 0.14014821E+00 0.12711662E+04</pdfrwt>
<pdfrwt beam="2">  1       -1 0.68222939E-01 0.12711662E+04</pdfrwt>
<totfact> 0.38178623E+01</totfact>
</mgrwt>
</event>
<event>
12    1  0.2083715E-007  0.1740155E+04  0.7818608E-02  0.8738788E-01
         -2   -1    0    0    0  501 -0.00000000000E+00  0.00000000000E+00  0.26266241131E+03  0.26266241131E+03  0.00000000000E+00 0.  1.
          2   -1    0    0  501    0  0.00000000000E+00 -0.00000000000E+00 -0.28821601940E+04  0.28821601940E+04  0.00000000000E+00 0. -1.
         23    2    1    2    0    0  0.22775906275E+03  0.57217081548E+03 -0.70349476915E+03  0.93931395662E+03  0.90289457564E+02 0.  0.
        254    2    1    2    0    0 -0.22775906275E+03 -0.57217081548E+03 -0.19160030135E+04  0.22055086487E+04  0.90219023425E+03 0.  0.
        -24    2    4    4    0    0 -0.22119519023E+03 -0.36736128393E+03 -0.20696540553E+03  0.48226048073E+03  0.76543236653E+02 0.  0.
         24    2    4    4    0    0 -0.65638725158E+01 -0.20480953155E+03 -0.17090376080E+04  0.17232481679E+04  0.82369133380E+02 0.  0.
         11    1    3    3    0    0  0.11635828516E+03  0.27478839142E+03 -0.27364376108E+03  0.40488124007E+03  0.00000000000E+00 0. -1.
        -11    1    3    3    0    0  0.11140077758E+03  0.29738242405E+03 -0.42985100807E+03  0.53443271655E+03  0.00000000000E+00 0.  1.
          4    1    6    6  502    0  0.29414503175E+02 -0.14173089712E+03 -0.98519862702E+03  0.99577567498E+03  0.00000000000E+00 0. -1.
          1    1    5    5  503    0 -0.38693544109E+02 -0.32747877435E+02 -0.46233872272E+02  0.68608926369E+02  0.00000000000E+00 0. -1.
         -2    1    5    5    0  503 -0.18250164612E+03 -0.33461340650E+03 -0.16073153326E+03  0.41365155436E+03  0.00000000000E+00 0.  1.
         -3    1    6    6    0  502 -0.35978375690E+02 -0.63078634429E+02 -0.72383898096E+03  0.72747249295E+03  0.00000000000E+00 0.  1.
<mgrwt>
<rscale>  0 0.17401553E+04</rscale>
<asrwt>0</asrwt>
<pdfrwt beam="1">  1        2 0.44340923E+00 0.17401553E+04</pdfrwt>
<pdfrwt beam="2">  1       -2 0.40409605E-01 0.17401553E+04</pdfrwt>
<totfact> 0.11371071E+01</totfact>
</mgrwt>
</event>
<event>
12    1  0.2083715E-007  0.1388252E+04  0.7818608E-02  0.8962367E-01
         -2   -1    0    0    0  501 -0.00000000000E+00  0.00000000000E+00  0.51284696435E+03  0.51284696435E+03  0.00000000000E+00 0. -1.
          2   -1    0    0  501    0  0.00000000000E+00 -0.00000000000E+00 -0.93948280937E+03  0.93948280937E+03  0.00000000000E+00 0.  1.
         23    2    1    2    0    0 -0.16693137188E+03  0.32212491858E+02  0.24901207268E+03  0.31478986079E+03  0.90453947214E+02 0.  0.
        254    2    1    2    0    0  0.16693137188E+03 -0.32212491858E+02 -0.67564791770E+03  0.11375399129E+04  0.89921811440E+03 0.  0.
        -24    2    4    4    0    0 -0.20987370921E+03  0.11166367627E+03  0.90683307523E+02  0.26787237071E+03  0.83763920114E+02 0.  0.
         24    2    4    4    0    0  0.37680508108E+03 -0.14387616813E+03 -0.76633122522E+03  0.86966754221E+03  0.79847769829E+02 0.  0.
         11    1    3    3    0    0 -0.98072134113E+02 -0.11375142197E+02  0.19017207802E+03  0.21427308886E+03  0.00000000000E+00 0. -1.
        -11    1    3    3    0    0 -0.68859237764E+02  0.43587634055E+02  0.58839994655E+02  0.10051677193E+03  0.00000000000E+00 0.  1.
          4    1    6    6  502    0  0.36733177599E+03 -0.15079502989E+03 -0.72399778608E+03  0.82573880188E+03  0.00000000000E+00 0. -1.
          3    1    5    5  503    0 -0.77889750166E+02  0.82340851032E+02  0.63654421548E+02  0.12999505495E+03  0.00000000000E+00 0. -1.
         -4    1    5    5    0  503 -0.13198395904E+03  0.29322825242E+02  0.27028885975E+02  0.13787731576E+03  0.00000000000E+00 0.  1.
         -3    1    6    6    0  502  0.94733050971E+01  0.69188617583E+01 -0.42333439143E+02  0.43928740332E+02  0.00000000000E+00 0.  1.
<mgrwt>
<rscale>  0 0.13882520E+04</rscale>
<asrwt>0</asrwt>
<pdfrwt beam="1">  1        2 0.14453581E+00 0.13882520E+04</pdfrwt>
<pdfrwt beam="2">  1       -2 0.78899535E-01 0.13882520E+04</pdfrwt>
<totfact> 0.38334852E+01</totfact>
</mgrwt>
</event>
<event>
12    1  0.2083715E-007  0.2222525E+04  0.7818608E-02  0.8509111E-01
          2   -1    0    0  501    0  0.00000000000E+00  0.00000000000E+00  0.60480476698E+03  0.60480476698E+03  0.00000000000E+00 0. -1.
         -2   -1    0    0    0  501 -0.00000000000E+00 -0.00000000000E+00 -0.20418230449E+04  0.20418230449E+04  0.00000000000E+00 0.  1.
         23    2    1    2    0    0  0.57052095279E+03  0.33368022825E+03 -0.13760307981E+04  0.15290983454E+04  0.88568279984E+02 0.  0.
        254    2    1    2    0    0 -0.57052095279E+03 -0.33368022825E+03 -0.60987479827E+02  0.11175294665E+04  0.89906394852E+03 0.  0.
        -24    2    4    4    0    0 -0.74418759125E+03 -0.22174240529E+03 -0.25730472459E+03  0.82201801287E+03  0.80765258073E+02 0.  0.
         24    2    4    4    0    0  0.17366663846E+03 -0.11193782296E+03  0.19631724476E+03  0.29551145365E+03  0.78079325829E+02 0.  0.
         13    1    3    3    0    0  0.42496018593E+03  0.29099905130E+03 -0.10512240400E+04  0.11706167562E+04  0.00000000000E+00 0. -1.
        -13    1    3    3    0    0  0.14556076686E+03  0.42681176951E+02 -0.32480675804E+03  0.35848158918E+03  0.00000000000E+00 0.  1.
          4    1    6    6  502    0  0.12199181597E+03 -0.90411626888E+02  0.18332813848E+03  0.23804510455E+03  0.00000000000E+00 0. -1.
          3    1    5    5  503    0 -0.12008785286E+03 -0.41042470542E+02 -0.74069214954E+02  0.14694157137E+03  0.00000000000E+00 0. -1.
         -2    1    5    5    0  503 -0.62409973839E+03 -0.18069993475E+03 -0.18323550963E+03  0.67507644150E+03  0.00000000000E+00 0.  1.
         -3    1    6    6    0  502  0.51674822491E+02 -0.21526196075E+02  0.12989106281E+02  0.57466349100E+02  0.00000000000E+00 0.  1.
<mgrwt>
<rscale>  0 0.22225250E+04</rscale>
<asrwt>0</asrwt>
<pdfrwt beam="1">  1        2 0.93046889E-01 0.22225250E+04</pdfrwt>
<pdfrwt beam="2">  1       -2 0.31412662E+00 0.22225250E+04</pdfrwt>
<totfact> 0.11672711E+00</totfact>
</mgrwt>
</event>
<event>
12    1  0.2083715E-007  0.2031610E+04  0.7818608E-02  0.8591983E-01
          1   -1    0    0  501    0  0.00000000000E+00  0.00000000000E+00  0.14567226494E+04  0.14567226494E+04  0.00000000000E+00 0. -1.
         -1   -1    0    0    0  501 -0.00000000000E+00 -0.00000000000E+00 -0.70834312490E+03  0.70834312490E+03  0.00000000000E+00 0.  1.
         23    2    1    2    0    0  0.98510734406E+02 -0.66985795936E+03 -0.17868574943E+03  0.70644333755E+03  0.93378485856E+02 0.  0.
        254    2    1    2    0    0 -0.98510734406E+02  0.66985795936E+03  0.92706527393E+03  0.14586224368E+04  0.89984184187E+03 0.  0.
        -24    2    4    4    0    0 -0.16141659402E+03  0.69984539560E+03  0.10631929386E+04  0.12859208876E+04  0.85874384901E+02 0.  0.
         24    2    4    4    0    0  0.62905859616E+02 -0.29987436247E+02 -0.13612766469E+03  0.17270154911E+03  0.80241451033E+02 0.  0.
         13    1    3    3    0    0  0.83301790621E+02 -0.62294167566E+03 -0.18852137972E+03  0.65615229193E+03  0.00000000000E+00 0.  1.
        -13    1    3    3    0    0  0.15208943785E+02 -0.46916283692E+02  0.98356302869E+01  0.50291045621E+02  0.00000000000E+00 0. -1.
          4    1    6    6  502    0 -0.56135486883E+01 -0.16314842995E+02  0.25267273305E+01  0.17437613994E+02  0.00000000000E+00 0. -1.
          3    1    5    5  503    0 -0.13894330542E+02  0.22935408465E+03  0.31633016833E+03  0.39097458225E+03  0.00000000000E+00 0. -1.
         -4    1    5    5    0  503 -0.14752226348E+03  0.47049131095E+03  0.74686277029E+03  0.89494630540E+03  0.00000000000E+00 0.  1.
         -3    1    6    6    0  502  0.68519408304E+02 -0.13672593253E+02 -0.13865439202E+03  0.15526393511E+03  0.00000000000E+00 0.  1.
<mgrwt>
<rscale>  0 0.20316097E+04</rscale>
<asrwt>0</asrwt>
<pdfrwt beam="1">  1        1 0.22411118E+00 0.20316097E+04</pdfrwt>
<pdfrwt beam="2">  1       -1 0.10897587E+00 0.20316097E+04</pdfrwt>
<totfact> 0.50609124E+00</totfact>
</mgrwt>
</event>
<event>
12    1  0.2083715E-007  0.1157924E+04  0.7818608E-02  0.9150504E-01
          1   -1    0    0  501    0  0.00000000000E+00  0.00000000000E+00  0.13908424848E+04  0.13908424848E+04  0.00000000000E+00 0. -1.
         -1   -1    0    0    0  501 -0.00000000000E+00 -0.00000000000E+00 -0.24100292238E+03  0.24100292238E+03  0.00000000000E+00 0.  1.
         23    2    1    2    0    0  0.66887643185E+02 -0.30769490827E+02 -0.53103781239E+02  0.12929471363E+03  0.92067328708E+02 0.  0.
        254    2    1    2    0    0 -0.66887643185E+02  0.30769490827E+02  0.12029433437E+04  0.15025506935E+04  0.89730996886E+03 0.  0.
        -24    2    4    4    0    0 -0.24023164819E+03 -0.43074660653E+02 -0.25429820752E+02  0.25756486725E+03  0.78270772818E+02 0.  0.
         24    2    4    4    0    0  0.17334400500E+03  0.73844151480E+02  0.12283731644E+04  0.12449858263E+04  0.74752751323E+02 0.  0.
         11    1    3    3    0    0 -0.59535422789E+00 -0.48086408285E+02 -0.24639952735E+02  0.54035029187E+02  0.00000000000E+00 0. -1.
        -11    1    3    3    0    0  0.67482997413E+02  0.17316917458E+02 -0.28463828504E+02  0.75259684448E+02  0.00000000000E+00 0.  1.
          4    1    6    6  502    0  0.10601715478E+03  0.24582016846E+02  0.49145969703E+03  0.50336522174E+03  0.00000000000E+00 0. -1.
          3    1    5    5  503    0 -0.20502826002E+03 -0.48573077076E+02  0.49198871800E+01  0.21076085147E+03  0.00000000000E+00 0. -1.
         -4    1    5    5    0  503 -0.35203388172E+02  0.54984164224E+01 -0.30349707932E+02  0.46804015784E+02  0.00000000000E+00 0.  1.
         -3    1    6    6    0  502  0.67326850226E+02  0.49262134634E+02  0.73691346738E+03  0.74162060454E+03  0.00000000000E+00 0.  1.
<mgrwt>
<rscale>  0 0.11579242E+04</rscale>
<asrwt>0</asrwt>
<pdfrwt beam="1">  1        1 0.21397576E+00 0.11579242E+04</pdfrwt>
<pdfrwt beam="2">  1       -1 0.37077373E-01 0.11579242E+04</pdfrwt>
<totfact> 0.54108405E+01</totfact>
</mgrwt>
</event>
<event>
12    1  0.2083715E-007  0.2190394E+04  0.7818608E-02  0.8522437E-01
          1   -1    0    0  501    0  0.00000000000E+00  0.00000000000E+00  0.15761708908E+04  0.15761708908E+04  0.00000000000E+00 0. -1.
         -1   -1    0    0    0  501 -0.00000000000E+00 -0.00000000000E+00 -0.76099416710E+03  0.76099416710E+03  0.00000000000E+00 0.  1.
         23    2    1    2    0    0  0.75366477976E+03  0.15943136922E+03  0.85669412126E+03  0.11557645820E+04  0.91858531912E+02 0.  0.
        254    2    1    2    0    0 -0.75366477976E+03 -0.15943136922E+03 -0.41517397525E+02  0.11814004759E+04  0.89473707227E+03 0.  0.
        -24    2    4    4    0    0 -0.44907181830E+03  0.16175977765E+03 -0.38274448314E+03  0.61702785077E+03  0.79989409264E+02 0.  0.
         24    2    4    4    0    0 -0.30459296146E+03 -0.32119114688E+03  0.34122708561E+03  0.56437262516E+03  0.78357584655E+02 0.  0.
         11    1    3    3    0    0  0.26090204014E+03  0.10866218558E+02  0.28929828474E+03  0.38971970288E+03  0.00000000000E+00 0.  1.
        -11    1    3    3    0    0  0.49276273961E+03  0.14856515067E+03  0.56739583652E+03  0.76604487913E+03  0.00000000000E+00 0. -1.
          4    1    6    6  502    0 -0.91322990967E+01 -0.32402657133E+02  0.10853824160E+02  0.35371409005E+02  0.00000000000E+00 0. -1.
          3    1    5    5  503    0 -0.13033686306E+03  0.64096159166E+02 -0.75598157686E+02  0.16374094460E+03  0.00000000000E+00 0. -1.
         -4    1    5    5    0  503 -0.31873495524E+03  0.97663618489E+02 -0.30714632545E+03  0.45328690617E+03  0.00000000000E+00 0.  1.
         -3    1    6    6    0  502 -0.29546066236E+03 -0.28878848975E+03  0.33037326145E+03  0.52900121616E+03  0.00000000000E+00 0.  1.
<mgrwt>
<rscale>  0 0.21903944E+04</rscale>
<asrwt>0</asrwt>
<pdfrwt beam="1">  1        1 0.24248783E+00 0.21903944E+04</pdfrwt>
<pdfrwt beam="2">  1       -1 0.11707603E+00 0.21903944E+04</pdfrwt>
<totfact> 0.34761664E+00</totfact>
</mgrwt>
</event>
<event>
12    1  0.2083715E-007  0.1412156E+04  0.7818608E-02  0.8945066E-01
         -2   -1    0    0    0  501 -0.00000000000E+00  0.00000000000E+00  0.23648948960E+03  0.23648948960E+03  0.00000000000E+00 0. -1.
          2   -1    0    0  501    0  0.00000000000E+00 -0.00000000000E+00 -0.21081100852E+04  0.21081100852E+04  0.00000000000E+00 0.  1.
         23    2    1    2    0    0 -0.32814547307E+03  0.13281944663E+03 -0.21167054508E+03  0.42199045119E+03  0.89168740822E+02 0.  0.
        254    2    1    2    0    0  0.32814547307E+03 -0.13281944663E+03 -0.16599500505E+04  0.19226091236E+04  0.90314517939E+03 0.  0.
        -24    2    4    4    0    0  0.24376646258E+03 -0.41508487197E+03 -0.15009942296E+04  0.15783089588E+04  0.79736772616E+02 0.  0.
         24    2    4    4    0    0  0.84379010493E+02  0.28226542534E+03 -0.15895582089E+03  0.34430016478E+03  0.80511258353E+02 0.  0.
         13    1    3    3    0    0 -0.17649470406E+03  0.90439937769E+02 -0.16436654480E+03  0.25757741352E+03  0.00000000000E+00 0.  1.
        -13    1    3    3    0    0 -0.15165076901E+03  0.42379508865E+02 -0.47304000271E+02  0.16441303767E+03  0.00000000000E+00 0. -1.
          4    1    6    6  502    0  0.17858538597E+02  0.16113716208E+03 -0.54384906316E+02  0.17100242817E+03  0.00000000000E+00 0. -1.
          1    1    5    5  503    0  0.39593185597E+02 -0.24448446605E+02 -0.16831416419E+03  0.17462819003E+03  0.00000000000E+00 0. -1.
         -2    1    5    5    0  503  0.20417327698E+03 -0.39063642537E+03 -0.13326800654E+04  0.14036807688E+04  0.00000000000E+00 0.  1.
         -3    1    6    6    0  502  0.66520471896E+02  0.12112826326E+03 -0.10457091458E+03  0.17329773662E+03  0.00000000000E+00 0.  1.
<mgrwt>
<rscale>  0 0.14121556E+04</rscale>
<asrwt>0</asrwt>
<pdfrwt beam="1">  1        2 0.32432463E+00 0.14121556E+04</pdfrwt>
<pdfrwt beam="2">  1       -2 0.36382999E-01 0.14121556E+04</pdfrwt>
<totfact> 0.40250900E+01</totfact>
</mgrwt>
</event>
<event>
12    1  0.2083715E-007  0.2974670E+04  0.7818608E-02  0.8251001E-01
          1   -1    0    0  501    0  0.00000000000E+00  0.00000000000E+00  0.13922210023E+04  0.13922210023E+04  0.00000000000E+00 0. -1.
         -1   -1    0    0    0  501 -0.00000000000E+00 -0.00000000000E+00 -0.15889474263E+04  0.15889474263E+04  0.00000000000E+00 0.  1.
         23    2    1    2    0    0 -0.10991861011E+04 -0.10639236335E+03 -0.86402488030E+03  0.14053315057E+04  0.94277395621E+02 0.  0.
        254    2    1    2    0    0  0.10991861011E+04  0.10639236335E+03  0.66729845637E+03  0.15758369229E+04  0.90467969908E+03 0.  0.
        -24    2    4    4    0    0  0.94407068414E+03 -0.17617140671E+03  0.17115803596E+03  0.97878443927E+03  0.80112945778E+02 0.  0.
         24    2    4    4    0    0  0.15511541695E+03  0.28256377006E+03  0.49614042041E+03  0.59705248365E+03  0.80082924117E+02 0.  0.
         11    1    3    3    0    0 -0.40446714652E+03 -0.56124019053E+02 -0.37361900503E+03  0.55347514764E+03  0.00000000000E+00 0.  1.
        -11    1    3    3    0    0 -0.69471895457E+03 -0.50268344301E+02 -0.49040587527E+03  0.85185635806E+03  0.00000000000E+00 0. -1.
          4    1    6    6  502    0 -0.53419248476E+01  0.13385079178E+02  0.67189871999E+01  0.15900984079E+02  0.00000000000E+00 0. -1.
          3    1    5    5  503    0  0.13959132517E+03 -0.36841975230E+02  0.53153053601E+02  0.15384510492E+03  0.00000000000E+00 0. -1.
         -4    1    5    5    0  503  0.80447935897E+03 -0.13932943148E+03  0.11800498236E+03  0.82493933434E+03  0.00000000000E+00 0.  1.
         -3    1    6    6    0  502  0.16045734180E+03  0.26917869088E+03  0.48942143321E+03  0.58115149957E+03  0.00000000000E+00 0.  1.
<mgrwt>
<rscale>  0 0.29746704E+04</rscale>
<asrwt>0</asrwt>
<pdfrwt beam="1">  1        1 0.21418785E+00 0.29746704E+04</pdfrwt>
<pdfrwt beam="2">  1       -1 0.24445345E+00 0.29746704E+04</pdfrwt>
<totfact> 0.50297253E-01</totfact>
</mgrwt>
</event>
<event>
12    1  0.2083715E-007  0.1639158E+04  0.7818608E-02  0.8796846E-01
         -2   -1    0    0    0  501 -0.00000000000E+00  0.00000000000E+00  0.17202812488E+04  0.17202812488E+04  0.00000000000E+00 0.  1.
          2   -1    0    0  501    0  0.00000000000E+00 -0.00000000000E+00 -0.39046521514E+03  0.39046521514E+03  0.00000000000E+00 0. -1.
         23    2    1    2    0    0  0.42106783823E+03  0.75130299498E+02  0.94095950748E+03  0.10410403685E+04  0.12416749913E+03 0.  0.
        254    2    1    2    0    0 -0.42106783823E+03 -0.75130299498E+02  0.38885652622E+03  0.10697060955E+04  0.90006613447E+03 0.  0.
        -24    2    4    4    0    0 -0.67935047945E+03  0.21569807070E+02  0.37996830803E+03  0.78277740636E+03  0.79888812076E+02 0.  0.
         24    2    4    4    0    0  0.25828264122E+03 -0.96700106568E+02  0.88882181954E+01  0.28692868912E+03  0.78665359939E+02 0.  0.
         13    1    3    3    0    0  0.37016665862E+02 -0.24437508401E+02  0.57810280114E+02  0.72865999308E+02  0.00000000000E+00 0. -1.
        -13    1    3    3    0    0  0.38405117237E+03  0.99567807899E+02  0.88314922737E+03  0.96817436920E+03  0.00000000000E+00 0.  1.
          2    1    6    6  502    0 -0.34679968480E+01 -0.10070921880E+02 -0.26418917618E+01  0.10974063136E+02  0.00000000000E+00 0. -1.
          3    1    5    5  503    0 -0.10855510723E+03  0.94997410277E+00  0.95980458536E+02  0.14490466582E+03  0.00000000000E+00 0. -1.
         -4    1    5    5    0  503 -0.57079537222E+03  0.20619832967E+02  0.28398784949E+03  0.63787274054E+03  0.00000000000E+00 0.  1.
         -1    1    6    6    0  502  0.26175063806E+03 -0.86629184688E+02  0.11530109957E+02  0.27595462598E+03  0.00000000000E+00 0.  1.
<mgrwt>
<rscale>  0 0.16391583E+04</rscale>
<asrwt>0</asrwt>
<pdfrwt beam="1">  1        2 0.60071573E-01 0.16391583E+04</pdfrwt>
<pdfrwt beam="2">  1       -2 0.26465865E+00 0.16391583E+04</pdfrwt>
<totfact> 0.40853319E+00</totfact>
</mgrwt>
</event>
<event>
12    1  0.2083715E-007  0.1868677E+04  0.7818608E-02  0.8670607E-01
         -1   -1    0    0    0  501 -0.00000000000E+00  0.00000000000E+00  0.67176989959E+03  0.67176989959E+03  0.00000000000E+00 0.  1.
          1   -1    0    0  501    0  0.00000000000E+00 -0.00000000000E+00 -0.12995342485E+04  0.12995342485E+04  0.00000000000E+00 0. -1.
         23    2    1    2    0    0  0.66212114972E+03 -0.24912236745E+03 -0.34845360208E+03  0.79329412557E+03  0.86193305932E+02 0.  0.
        254    2    1    2    0    0 -0.66212114972E+03  0.24912236745E+03 -0.27931074685E+03  0.11780100225E+04  0.89957031355E+03 0.  0.
        -24    2    4    4    0    0 -0.32467316249E+03  0.37242424338E+02  0.31317281087E+03  0.45961680649E+03  0.79816907553E+02 0.  0.
         24    2    4    4    0    0 -0.33744798723E+03  0.21187994312E+03 -0.59248355772E+03  0.71839321605E+03  0.79295600830E+02 0.  0.
         11    1    3    3    0    0  0.26214030784E+03 -0.12531067825E+03 -0.18117675964E+03  0.34241104730E+03  0.00000000000E+00 0.  1.
        -11    1    3    3    0    0  0.39998084188E+03 -0.12381168920E+03 -0.16727684244E+03  0.45088307827E+03  0.00000000000E+00 0. -1.
          4    1    6    6  502    0 -0.11721784587E+03  0.41575776037E+02 -0.14138356499E+03  0.18830263140E+03  0.00000000000E+00 0. -1.
          3    1    5    5  503    0 -0.21999142556E+03  0.51656375574E+02  0.24778043863E+03  0.33535019640E+03  0.00000000000E+00 0. -1.
         -4    1    5    5    0  503 -0.10468173693E+03 -0.14413951236E+02  0.65392372235E+02  0.12426661009E+03  0.00000000000E+00 0.  1.
         -3    1    6    6    0  502 -0.22023014137E+03  0.17030416708E+03 -0.45109999273E+03  0.53009058464E+03  0.00000000000E+00 0.  1.
<mgrwt>
<rscale>  0 0.18686765E+04</rscale>
<asrwt>0</asrwt>
<pdfrwt beam="1">  1        1 0.19992834E+00 0.18686765E+04</pdfrwt>
<pdfrwt beam="2">  1       -1 0.10334922E+00 0.18686765E+04</pdfrwt>
<totfact> 0.75019914E+00</totfact>
</mgrwt>
</event>
<event>
12    1  0.2083715E-007  0.1927444E+04  0.7818608E-02  0.8641315E-01
         -2   -1    0    0    0  501 -0.00000000000E+00  0.00000000000E+00  0.17815328317E+04  0.17815328317E+04  0.00000000000E+00 0.  1.
          2   -1    0    0  501    0  0.00000000000E+00 -0.00000000000E+00 -0.52132615135E+03  0.52132615135E+03  0.00000000000E+00 0. -1.
         23    2    1    2    0    0  0.28228493727E+03 -0.69470524398E+03  0.54083276496E+03  0.92916402247E+03  0.92442085448E+02 0.  0.
        254    2    1    2    0    0 -0.28228493727E+03  0.69470524398E+03  0.71937391542E+03  0.13736949606E+04  0.89846471984E+03 0.  0.
        -24    2    4    4    0    0 -0.59322194273E+03  0.56053541721E+03  0.47141919744E+03  0.94594571304E+03  0.80405254963E+02 0.  0.
         24    2    4    4    0    0  0.31093700545E+03  0.13416982677E+03  0.24795471799E+03  0.42774924757E+03  0.82489471170E+02 0.  0.
         11    1    3    3    0    0  0.23388731246E+03 -0.51332706914E+03  0.44438613911E+03  0.71811349763E+03  0.00000000000E+00 0.  1.
        -11    1    3    3    0    0  0.48397624810E+02 -0.18137817484E+03  0.96446625852E+02  0.21105052484E+03  0.00000000000E+00 0. -1.
          4    1    6    6  502    0  0.12723591183E+03  0.72369103499E+02  0.61390562702E+02  0.15872953597E+03  0.00000000000E+00 0. -1.
          3    1    5    5  503    0 -0.35134497370E+03  0.27922725645E+03  0.24485485601E+03  0.51123874246E+03  0.00000000000E+00 0. -1.
         -4    1    5    5    0  503 -0.24187696902E+03  0.28130816077E+03  0.22656434143E+03  0.43470697058E+03  0.00000000000E+00 0.  1.
         -3    1    6    6    0  502  0.18370109362E+03  0.61800723270E+02  0.18656415528E+03  0.26901971160E+03  0.00000000000E+00 0.  1.
<mgrwt>
<rscale>  0 0.19274435E+04</rscale>
<asrwt>0</asrwt>
<pdfrwt beam="1">  1        2 0.80204024E-01 0.19274435E+04</pdfrwt>
<pdfrwt beam="2">  1       -2 0.27408197E+00 0.19274435E+04</pdfrwt>
<totfact> 0.25090990E+00</totfact>
</mgrwt>
</event>
<event>
12    1  0.2083715E-007  0.1396683E+04  0.7818608E-02  0.8956223E-01
         -2   -1    0    0    0  501 -0.00000000000E+00  0.00000000000E+00  0.36587730777E+03  0.36587730777E+03  0.00000000000E+00 0.  1.
          2   -1    0    0  501    0  0.00000000000E+00 -0.00000000000E+00 -0.13329072249E+04  0.13329072249E+04  0.00000000000E+00 0. -1.
         23    2    1    2    0    0  0.39809502697E+03 -0.51595499037E+02 -0.30204483144E+03  0.51016413995E+03  0.88851693686E+02 0.  0.
        254    2    1    2    0    0 -0.39809502697E+03  0.51595499037E+02 -0.66498508573E+03  0.11886203928E+04  0.89970635644E+03 0.  0.
        -24    2    4    4    0    0 -0.39490078113E+03  0.40125264672E+03 -0.20284766378E+03  0.60360648006E+03  0.79014521651E+02 0.  0.
         24    2    4    4    0    0 -0.31942458368E+01 -0.34965714768E+03 -0.46213742195E+03  0.58501391270E+03  0.79999732186E+02 0.  0.
         13    1    3    3    0    0  0.26444065444E+03 -0.65873354546E+02 -0.23550299489E+03  0.36018025926E+03  0.00000000000E+00 0. -1.
        -13    1    3    3    0    0  0.13365437253E+03  0.14277855509E+02 -0.66541836552E+02  0.14998388069E+03  0.00000000000E+00 0.  1.
          4    1    6    6  502    0  0.28705977543E+02 -0.72782899281E+02 -0.12657532081E+03  0.14880421840E+03  0.00000000000E+00 0. -1.
          3    1    5    5  503    0 -0.12607348086E+03  0.86945834795E+02 -0.76218334730E+02  0.17106529546E+03  0.00000000000E+00 0. -1.
         -4    1    5    5    0  503 -0.26882730027E+03  0.31430681192E+03 -0.12662932905E+03  0.43254118459E+03  0.00000000000E+00 0.  1.
         -3    1    6    6    0  502 -0.31900223380E+02 -0.27687424840E+03 -0.33556210114E+03  0.43620969430E+03  0.00000000000E+00 0.  1.
<mgrwt>
<rscale>  0 0.13966825E+04</rscale>
<asrwt>0</asrwt>
<pdfrwt beam="1">  1        2 0.20506265E+00 0.13966825E+04</pdfrwt>
<pdfrwt beam="2">  1       -2 0.56288816E-01 0.13966825E+04</pdfrwt>
<totfact> 0.45612735E+01</totfact>
</mgrwt>
</event>
<event>
12    1  0.2083715E-007  0.2134932E+04  0.7818608E-02  0.8546010E-01
          1   -1    0    0  501    0  0.00000000000E+00  0.00000000000E+00  0.19351839400E+04  0.19351839400E+04  0.00000000000E+00 0. -1.
         -1   -1    0    0    0  501 -0.00000000000E+00 -0.00000000000E+00 -0.58882427415E+03  0.58882427415E+03  0.00000000000E+00 0.  1.
         23    2    1    2    0    0 -0.50343468025E+03  0.56354057844E+02  0.14002042325E+04  0.14917629430E+04  0.90346711193E+02 0.  0.
        254    2    1    2    0    0  0.50343468025E+03 -0.56354057844E+02 -0.53844566709E+02  0.10322452711E+04  0.89777993143E+03 0.  0.
        -24    2    4    4    0    0  0.67686704767E+03 -0.95809171059E+02  0.19580701473E+03  0.71548928796E+03  0.79095743812E+02 0.  0.
         24    2    4    4    0    0 -0.17343236742E+03  0.39455113215E+02 -0.24965158144E+03  0.31675598316E+03  0.79830750491E+02 0.  0.
         13    1    3    3    0    0 -0.16616142880E+03  0.61081742781E+02  0.46080062495E+03  0.49363733213E+03  0.00000000000E+00 0. -1.
        -13    1    3    3    0    0 -0.33727325146E+03 -0.47276849371E+01  0.93940360758E+03  0.99812561087E+03  0.00000000000E+00 0.  1.
          4    1    6    6  502    0 -0.73819621263E+02  0.20018159364E+02 -0.46097162782E+02  0.89302920469E+02  0.00000000000E+00 0. -1.
          1    1    5    5  503    0  0.40400776954E+02  0.61820259119E+01  0.27599862544E+02  0.49317265083E+02  0.00000000000E+00 0. -1.
         -2    1    5    5    0  503  0.63646627072E+03 -0.10199119697E+03  0.16820715219E+03  0.66617202288E+03  0.00000000000E+00 0.  1.
         -3    1    6    6    0  502 -0.99612746155E+02  0.19436953851E+02 -0.20355441866E+03  0.22745306269E+03  0.00000000000E+00 0.  1.
<mgrwt>
<rscale>  0 0.21349316E+04</rscale>
<asrwt>0</asrwt>
<pdfrwt beam="1">  1        1 0.29772060E+00 0.21349316E+04</pdfrwt>
<pdfrwt beam="2">  1       -1 0.90588351E-01 0.21349316E+04</pdfrwt>
<totfact> 0.35995762E+00</totfact>
</mgrwt>
</event>
<event>
12    1  0.2083715E-007  0.2683369E+04  0.7818608E-02  0.8340421E-01
          2   -1    0    0  501    0  0.00000000000E+00  0.00000000000E+00  0.11481873803E+04  0.11481873803E+04  0.00000000000E+00 0. -1.
         -2   -1    0    0    0  501 -0.00000000000E+00 -0.00000000000E+00 -0.15677902804E+04  0.15677902804E+04  0.00000000000E+00 0.  1.
         23    2    1    2    0    0 -0.34748083320E+03 -0.85082991954E+03  0.57679801531E+03  0.10888979551E+04  0.91369167655E+02 0.  0.
        254    2    1    2    0    0  0.34748083320E+03  0.85082991954E+03 -0.99640091534E+03  0.16270797056E+04  0.89995505602E+03 0.  0.
        -24    2    4    4    0    0  0.32762458865E+03  0.71743172093E+03 -0.20265669416E+03  0.81802169772E+03  0.77740703400E+02 0.  0.
         24    2    4    4    0    0  0.19856244544E+02  0.13339819860E+03 -0.79374422118E+03  0.80905800787E+03  0.79722152580E+02 0.  0.
         11    1    3    3    0    0 -0.28954759537E+03 -0.69028737533E+03  0.50917478575E+03  0.90531399690E+03  0.00000000000E+00 0. -1.
        -11    1    3    3    0    0 -0.57933237826E+02 -0.16054254420E+03  0.67623229556E+02  0.18358395823E+03  0.00000000000E+00 0.  1.
          2    1    6    6  502    0 -0.30159007536E+02  0.47935199443E+02 -0.24598417402E+03  0.25241941872E+03  0.00000000000E+00 0. -1.
          3    1    5    5  503    0  0.28150419269E+03  0.55232447157E+03 -0.14028252002E+03  0.63559902283E+03  0.00000000000E+00 0. -1.
         -4    1    5    5    0  503  0.46120395967E+02  0.16510724936E+03 -0.62374174140E+02  0.18242267490E+03  0.00000000000E+00 0.  1.
         -1    1    6    6    0  502  0.50015252080E+02  0.85462999161E+02 -0.54776004716E+03  0.55663858915E+03  0.00000000000E+00 0.  1.
<mgrwt>
<rscale>  0 0.26833688E+04</rscale>
<asrwt>0</asrwt>
<pdfrwt beam="1">  1        2 0.17664421E+00 0.26833688E+04</pdfrwt>
<pdfrwt beam="2">  1       -2 0.24119851E+00 0.26833688E+04</pdfrwt>
<totfact> 0.13020232E+00</totfact>
</mgrwt>
</event>
<event>
12    1  0.2083715E-007  0.1483380E+04  0.7818608E-02  0.8895581E-01
         -1   -1    0    0    0  501 -0.00000000000E+00  0.00000000000E+00  0.88825375315E+03  0.88825375315E+03  0.00000000000E+00 0.  1.
          1   -1    0    0  501    0  0.00000000000E+00 -0.00000000000E+00 -0.61930916265E+03  0.61930916265E+03  0.00000000000E+00 0. -1.
         23    2    1    2    0    0  0.40582686137E+03 -0.14471615598E+03 -0.86335327764E+02  0.44813831084E+03  0.87954247270E+02 0.  0.
        254    2    1    2    0    0 -0.40582686137E+03  0.14471615598E+03  0.35527991826E+03  0.10594246050E+04  0.90028799063E+03 0.  0.
        -24    2    4    4    0    0 -0.10824547358E+03  0.15649836945E+02  0.61780776230E+03  0.63256764721E+03  0.80581618249E+02 0.  0.
         24    2    4    4    0    0 -0.29758138779E+03  0.12906631904E+03 -0.26252784404E+03  0.42685695775E+03  0.89850967792E+02 0.  0.
         13    1    3    3    0    0  0.14084026417E+03 -0.10027302247E+02 -0.43953142657E+02  0.14787969959E+03  0.00000000000E+00 0.  1.
        -13    1    3    3    0    0  0.26498659720E+03 -0.13468885373E+03 -0.42382185107E+02  0.30025861125E+03  0.00000000000E+00 0. -1.
          2    1    6    6  502    0 -0.22425809282E+03  0.13507973904E+03 -0.18940378730E+03  0.32312849262E+03  0.00000000000E+00 0. -1.
          1    1    5    5  503    0 -0.27516960701E+02  0.41940120256E+02  0.26324935081E+03  0.26798577857E+03  0.00000000000E+00 0. -1.
         -4    1    5    5    0  503 -0.80728512876E+02 -0.26290283311E+02  0.35455841149E+03  0.36458186865E+03  0.00000000000E+00 0.  1.
         -1    1    6    6    0  502 -0.73323294968E+02 -0.60134200042E+01 -0.73124056735E+02  0.10372846513E+03  0.00000000000E+00 0.  1.
<mgrwt>
<rscale>  0 0.14833795E+04</rscale>
<asrwt>0</asrwt>
<pdfrwt beam="1">  1        1 0.95278333E-01 0.14833795E+04</pdfrwt>
<pdfrwt beam="2">  1       -1 0.13665442E+00 0.14833795E+04</pdfrwt>
<totfact> 0.14145521E+01</totfact>
</mgrwt>
</event>
<event>
12    1  0.2083715E-007  0.1181525E+04  0.7818608E-02  0.9129183E-01
          4   -1    0    0  501    0  0.00000000000E+00  0.00000000000E+00  0.81348720722E+03  0.81348720722E+03  0.00000000000E+00 0. -1.
         -4   -1    0    0    0  501 -0.00000000000E+00 -0.00000000000E+00 -0.42901773721E+03  0.42901773721E+03  0.00000000000E+00 0.  1.
         23    2    1    2    0    0  0.11411939552E+03  0.14852006509E+03 -0.51829441683E+02  0.21070042264E+03  0.81405963594E+02 0.  0.
        254    2    1    2    0    0 -0.11411939552E+03 -0.14852006509E+03  0.43629891169E+03  0.10318045218E+04  0.91606898466E+03 0.  0.
        -24    2    4    4    0    0 -0.49114921071E+03 -0.17237768234E+03  0.13912209958E+03  0.54467969356E+03  0.79871130156E+02 0.  0.
         24    2    4    4    0    0  0.37702981519E+03  0.23857617249E+02  0.29717681211E+03  0.48712482822E+03  0.79094077984E+02 0.  0.
         11    1    3    3    0    0  0.64654926472E+02  0.12655687348E+03 -0.62974454576E+02  0.15544350637E+03  0.00000000000E+00 0.  1.
        -11    1    3    3    0    0  0.49464469050E+02  0.21963191606E+02  0.11145012893E+02  0.55256916276E+02  0.00000000000E+00 0. -1.
          2    1    6    6  502    0  0.14559429582E+03 -0.31430672850E+01  0.69540170003E+02  0.16137971710E+03  0.00000000000E+00 0. -1.
          3    1    5    5  503    0 -0.19525632179E+02 -0.29921047736E+01  0.22932373856E+02  0.30267090604E+02  0.00000000000E+00 0. -1.
         -4    1    5    5    0  503 -0.47162357853E+03 -0.16938557756E+03  0.11618972573E+03  0.51441260296E+03  0.00000000000E+00 0.  1.
         -1    1    6    6    0  502  0.23143551938E+03  0.27000684534E+02  0.22763664210E+03  0.32574511113E+03  0.00000000000E+00 0.  1.
<mgrwt>
<rscale>  0 0.11815252E+04</rscale>
<asrwt>0</asrwt>
<pdfrwt beam="1">  1        4 0.12515188E+00 0.11815252E+04</pdfrwt>
<pdfrwt beam="2">  1       -4 0.66002729E-01 0.11815252E+04</pdfrwt>
<totfact> 0.19993721E+00</totfact>
</mgrwt>
</event>
<event>
12    1  0.2083715E-007  0.1635548E+04  0.7818608E-02  0.8799002E-01
         -1   -1    0    0    0  501 -0.00000000000E+00  0.00000000000E+00  0.62336628676E+03  0.62336628676E+03  0.00000000000E+00 0.  1.
          1   -1    0    0  501    0  0.00000000000E+00 -0.00000000000E+00 -0.10728115669E+04  0.10728115669E+04  0.00000000000E+00 0. -1.
         23    2    1    2    0    0  0.11693288145E+03 -0.53084094501E+03 -0.31804614666E+03  0.63643077096E+03  0.91789798782E+02 0.  0.
        254    2    1    2    0    0 -0.11693288145E+03  0.53084094501E+03 -0.13139913343E+03  0.10597470827E+04  0.90018483617E+03 0.  0.
        -24    2    4    4    0    0  0.11964170483E+03  0.75671784891E+02  0.32815793232E+03  0.36611057420E+03  0.79429008722E+02 0.  0.
         24    2    4    4    0    0 -0.23657458629E+03  0.45516916011E+03 -0.45955706576E+03  0.69363650846E+03  0.82416078471E+02 0.  0.
         13    1    3    3    0    0  0.71155657220E+02 -0.13530106031E+03 -0.80384019674E+02  0.17271680606E+03  0.00000000000E+00 0.  1.
        -13    1    3    3    0    0  0.45777224235E+02 -0.39553988469E+03 -0.23766212699E+03  0.46371396490E+03  0.00000000000E+00 0. -1.
          4    1    6    6  502    0 -0.55061144789E+02  0.45930300325E+02 -0.69609266958E+02  0.99933839114E+02  0.00000000000E+00 0. -1.
          3    1    5    5  503    0  0.79894762292E+02  0.89532300547E+02  0.23409491360E+03  0.26305823396E+03  0.00000000000E+00 0. -1.
         -4    1    5    5    0  503  0.39746942543E+02 -0.13860515656E+02  0.94063018723E+02  0.10305234023E+03  0.00000000000E+00 0.  1.
         -3    1    6    6    0  502 -0.18151344150E+03  0.40923885979E+03 -0.38994779880E+03  0.59370266935E+03  0.00000000000E+00 0.  1.
<mgrwt>
<rscale>  0 0.16355483E+04</rscale>
<asrwt>0</asrwt>
<pdfrwt beam="1">  1        1 0.16504793E+00 0.16355483E+04</pdfrwt>
<pdfrwt beam="2">  1       -1 0.95902506E-01 0.16355483E+04</pdfrwt>
<totfact> 0.13334789E+01</totfact>
</mgrwt>
</event>
<event>
12    1  0.2083715E-007  0.2701276E+04  0.7818608E-02  0.8334591E-01
          2   -1    0    0  501    0  0.00000000000E+00  0.00000000000E+00  0.30394103271E+04  0.30394103271E+04  0.00000000000E+00 0. -1.
         -2   -1    0    0    0  501 -0.00000000000E+00 -0.00000000000E+00 -0.60018962173E+03  0.60018962173E+03  0.00000000000E+00 0.  1.
         23    2    1    2    0    0 -0.97713864877E+02 -0.92995298877E+03  0.20957760051E+04  0.22967248532E+04  0.91145088691E+02 0.  0.
        254    2    1    2    0    0  0.97713864877E+02  0.92995298877E+03  0.34344470027E+03  0.13428750956E+04  0.90055466214E+03 0.  0.
        -24    2    4    4    0    0  0.59474517515E+02  0.95106371530E+03 -0.31995719017E+02  0.95662452690E+03  0.77764713379E+02 0.  0.
         24    2    4    4    0    0  0.38239347362E+02 -0.21110726530E+02  0.37544041928E+03  0.38625056869E+03  0.79536676562E+02 0.  0.
         11    1    3    3    0    0 -0.12136791982E+02 -0.51848289232E+03  0.11165617522E+04  0.12311303578E+04  0.00000000000E+00 0. -1.
        -11    1    3    3    0    0 -0.85577072895E+02 -0.41147009644E+03  0.97921425284E+03  0.10655944954E+04  0.00000000000E+00 0.  1.
          2    1    6    6  502    0  0.17343632403E+02  0.29545237323E+02  0.18210945488E+03  0.18530401019E+03  0.00000000000E+00 0. -1.
          3    1    5    5  503    0  0.49579686628E+02  0.72767283514E+03 -0.57195805903E+02  0.73159911191E+03  0.00000000000E+00 0. -1.
         -4    1    5    5    0  503  0.98948308870E+01  0.22339088015E+03  0.25200086887E+02  0.22502541499E+03  0.00000000000E+00 0.  1.
         -1    1    6    6    0  502  0.20895714959E+02 -0.50655963853E+02  0.19333096440E+03  0.20094655850E+03  0.00000000000E+00 0.  1.
<mgrwt>
<rscale>  0 0.27012757E+04</rscale>
<asrwt>0</asrwt>
<pdfrwt beam="1">  1        2 0.46760158E+00 0.27012757E+04</pdfrwt>
<pdfrwt beam="2">  1       -2 0.92336867E-01 0.27012757E+04</pdfrwt>
<totfact> 0.14361875E+00</totfact>
</mgrwt>
</event>
<event>
12    1  0.2083715E-007  0.1937552E+04  0.7818608E-02  0.8636387E-01
          2   -1    0    0  501    0  0.00000000000E+00  0.00000000000E+00  0.12473408864E+04  0.12473408864E+04  0.00000000000E+00 0. -1.
         -2   -1    0    0    0  501 -0.00000000000E+00 -0.00000000000E+00 -0.75242204412E+03  0.75242204412E+03  0.00000000000E+00 0.  1.
         23    2    1    2    0    0 -0.67103936968E+03  0.21055176277E+03 -0.91848184659E+02  0.71527136091E+03  0.92472429635E+02 0.  0.
        254    2    1    2    0    0  0.67103936968E+03 -0.21055176277E+03  0.58676702694E+03  0.12844915696E+04  0.90055381183E+03 0.  0.
        -24    2    4    4    0    0  0.57797122682E+03 -0.53863782553E+02 -0.77380890341E+02  0.59106619802E+03  0.80121171669E+02 0.  0.
         24    2    4    4    0    0  0.93068142865E+02 -0.15668798022E+03  0.66414791728E+03  0.69342537159E+03  0.80829991752E+02 0.  0.
         13    1    3    3    0    0 -0.23883351647E+03  0.55077685734E+02 -0.72272072356E+02  0.25553522751E+03  0.00000000000E+00 0.  1.
        -13    1    3    3    0    0 -0.43220585321E+03  0.15547407704E+03 -0.19576112303E+02  0.45973613340E+03  0.00000000000E+00 0. -1.
          2    1    6    6  502    0  0.16467804775E+02  0.68155552943E+01  0.42469272669E+02  0.46057350218E+02  0.00000000000E+00 0. -1.
          3    1    5    5  503    0  0.27889730191E+03  0.13215054723E+02 -0.45761537476E+02  0.28293543610E+03  0.00000000000E+00 0. -1.
         -2    1    5    5    0  503  0.29907392490E+03 -0.67078837276E+02 -0.31619352865E+02  0.30813076192E+03  0.00000000000E+00 0.  1.
         -1    1    6    6    0  502  0.76600338089E+02 -0.16350353551E+03  0.62167864461E+03  0.64736802137E+03  0.00000000000E+00 0.  1.
<mgrwt>
<rscale>  0 0.19375518E+04</rscale>
<asrwt>0</asrwt>
<pdfrwt beam="1">  1        2 0.19189860E+00 0.19375518E+04</pdfrwt>
<pdfrwt beam="2">  1       -2 0.11575724E+00 0.19375518E+04</pdfrwt>
<totfact> 0.96199215E+00</totfact>
</mgrwt>
</event>
<event>
12    1  0.2083715E-007  0.1501021E+04  0.7818608E-02  0.8883774E-01
          2   -1    0    0  501    0  0.00000000000E+00  0.00000000000E+00  0.73907899367E+03  0.73907899367E+03  0.00000000000E+00 0. -1.
         -2   -1    0    0    0  501 -0.00000000000E+00 -0.00000000000E+00 -0.76211846986E+03  0.76211846986E+03  0.00000000000E+00 0.  1.
         23    2    1    2    0    0 -0.40533571070E+03 -0.24684691570E+03 -0.31303602993E+02  0.48396687901E+03  0.89518636414E+02 0.  0.
        254    2    1    2    0    0  0.40533571070E+03  0.24684691570E+03  0.82641268079E+01  0.10172305845E+04  0.89969957659E+03 0.  0.
        -24    2    4    4    0    0  0.32041592470E+03  0.57066436199E+03 -0.72214960136E+02  0.66310610389E+03  0.78552693710E+02 0.  0.
         24    2    4    4    0    0  0.84919785996E+02 -0.32381744630E+03  0.80479086944E+02  0.35412448063E+03  0.82813982900E+02 0.  0.
         13    1    3    3    0    0 -0.38182188566E+03 -0.25347229148E+03 -0.26447472742E+02  0.45905949912E+03  0.00000000000E+00 0. -1.
        -13    1    3    3    0    0 -0.23513825041E+02  0.66253757825E+01 -0.48561302506E+01  0.24907379897E+02  0.00000000000E+00 0.  1.
          2    1    6    6  502    0 -0.49666191468E+01 -0.44706483373E+02 -0.12186502633E+02  0.46603087963E+02  0.00000000000E+00 0. -1.
          1    1    5    5  503    0  0.16235815239E+03  0.21058993564E+03 -0.27000313194E+02  0.26727758520E+03  0.00000000000E+00 0. -1.
         -2    1    5    5    0  503  0.15805777232E+03  0.36007442636E+03 -0.45214646943E+02  0.39582851869E+03  0.00000000000E+00 0.  1.
         -1    1    6    6    0  502  0.89886405142E+02 -0.27911096292E+03  0.92665589577E+02  0.30752139266E+03  0.00000000000E+00 0.  1.
<mgrwt>
<rscale>  0 0.15010207E+04</rscale>
<asrwt>0</asrwt>
<pdfrwt beam="1">  1        2 0.11370446E+00 0.15010207E+04</pdfrwt>
<pdfrwt beam="2">  1       -2 0.11724900E+00 0.15010207E+04</pdfrwt>
<totfact> 0.20763126E+01</totfact>
</mgrwt>
</event>
<event>
12    1  0.2083715E-007  0.2316804E+04  0.7818608E-02  0.8471325E-01
          1   -1    0    0  501    0  0.00000000000E+00  0.00000000000E+00  0.34289014591E+04  0.34289014591E+04  0.00000000000E+00 0. -1.
         -1   -1    0    0    0  501 -0.00000000000E+00 -0.00000000000E+00 -0.39134851020E+03  0.39134851020E+03  0.00000000000E+00 0.  1.
         23    2    1    2    0    0  0.47534256033E+02  0.87137494555E+03  0.20308111861E+04  0.22122377135E+04  0.90817542389E+02 0.  0.
        254    2    1    2    0    0 -0.47534256033E+02 -0.87137494555E+03  0.10067417628E+04  0.16080122558E+04  0.90034473217E+03 0.  0.
        -24    2    4    4    0    0 -0.46335725680E+03 -0.53598851047E+03  0.61194238882E+03  0.93963892904E+03  0.80400242196E+02 0.  0.
         24    2    4    4    0    0  0.41582300077E+03 -0.33538643508E+03  0.39479937397E+03  0.66837332680E+03  0.73915691706E+02 0.  0.
         13    1    3    3    0    0  0.24536702799E+02  0.45484708307E+03  0.94516332687E+03  0.10492004733E+04  0.00000000000E+00 0. -1.
        -13    1    3    3    0    0  0.22997553234E+02  0.41652786249E+03  0.10856478593E+04  0.11630372402E+04  0.00000000000E+00 0.  1.
          2    1    6    6  502    0  0.31832258257E+03 -0.28077914922E+03  0.34035188618E+03  0.54406397017E+03  0.00000000000E+00 0. -1.
          1    1    5    5  503    0 -0.46575460736E+03 -0.52520569218E+03  0.60129030278E+03  0.92429346075E+03  0.00000000000E+00 0. -1.
         -2    1    5    5    0  503  0.23973505544E+01 -0.10782818290E+02  0.10652086041E+02  0.15345468288E+02  0.00000000000E+00 0.  1.
         -1    1    6    6    0  502  0.97500418204E+02 -0.54607285867E+02  0.54447487791E+02  0.12430935663E+03  0.00000000000E+00 0.  1.
<mgrwt>
<rscale>  0 0.23168042E+04</rscale>
<asrwt>0</asrwt>
<pdfrwt beam="1">  1        1 0.52752328E+00 0.23168042E+04</pdfrwt>
<pdfrwt beam="2">  1       -1 0.60207465E-01 0.23168042E+04</pdfrwt>
<totfact> 0.71854873E-01</totfact>
</mgrwt>
</event>
<event>
12    1  0.2083715E-007  0.4435962E+04  0.7818608E-02  0.7921945E-01
         -1   -1    0    0    0  501 -0.00000000000E+00  0.00000000000E+00  0.16913475605E+04  0.16913475605E+04  0.00000000000E+00 0.  1.
          1   -1    0    0  501    0  0.00000000000E+00 -0.00000000000E+00 -0.29085923267E+04  0.29085923267E+04  0.00000000000E+00 0. -1.
         23    2    1    2    0    0 -0.19185646011E+04  0.52497698130E+03  0.19293148771E+03  0.20005103461E+04  0.91258569270E+02 0.  0.
        254    2    1    2    0    0  0.19185646011E+04 -0.52497698130E+03 -0.14101762539E+04  0.25994295411E+04  0.90108041404E+03 0.  0.
        -24    2    4    4    0    0  0.54967019264E+03 -0.66159186363E+02 -0.91235219981E+03  0.10702083591E+04  0.80280986675E+02 0.  0.
         24    2    4    4    0    0  0.13688944084E+04 -0.45881779494E+03 -0.49782405411E+03  0.15292211820E+04  0.79391209317E+02 0.  0.
         11    1    3    3    0    0 -0.16290655614E+04  0.46911452776E+03  0.14084728352E+03  0.17011058170E+04  0.00000000000E+00 0.  1.
        -11    1    3    3    0    0 -0.28949903970E+03  0.55862453540E+02  0.52084204188E+02  0.29940452908E+03  0.00000000000E+00 0. -1.
          2    1    6    6  502    0  0.23545867793E+03 -0.48022348030E+02 -0.78908913270E+02  0.25292993401E+03  0.00000000000E+00 0. -1.
          3    1    5    5  503    0  0.17024431751E+03 -0.30670538676E+02 -0.35671135470E+03  0.39644268206E+03  0.00000000000E+00 0. -1.
         -4    1    5    5    0  503  0.37942587513E+03 -0.35488647687E+02 -0.55564084511E+03  0.67376567706E+03  0.00000000000E+00 0.  1.
         -1    1    6    6    0  502  0.11334357305E+04 -0.41079544691E+03 -0.41891514084E+03  0.12762912480E+04  0.00000000000E+00 0.  1.
<mgrwt>
<rscale>  0 0.44359624E+04</rscale>
<asrwt>0</asrwt>
<pdfrwt beam="1">  1        1 0.44747574E+00 0.44359624E+04</pdfrwt>
<pdfrwt beam="2">  1       -1 0.26020732E+00 0.44359624E+04</pdfrwt>
<totfact> 0.31462107E-02</totfact>
</mgrwt>
</event>
<event>
12    1  0.2083715E-007  0.3077365E+04  0.7818608E-02  0.8221978E-01
         -1   -1    0    0    0  501 -0.00000000000E+00  0.00000000000E+00  0.90507770430E+03  0.90507770430E+03  0.00000000000E+00 0.  1.
          1   -1    0    0  501    0  0.00000000000E+00 -0.00000000000E+00 -0.26158452942E+04  0.26158452942E+04  0.00000000000E+00 0. -1.
         23    2    1    2    0    0 -0.12901679796E+04  0.49379472898E+03 -0.48979009652E+03  0.14685615219E+04  0.91716710261E+02 0.  0.
        254    2    1    2    0    0  0.12901679796E+04 -0.49379472898E+03 -0.12209774934E+04  0.20523614767E+04  0.90168450229E+03 0.  0.
        -24    2    4    4    0    0 -0.68772032472E+02  0.28628750881E+02 -0.32134378833E+03  0.33912941111E+03  0.78725658820E+02 0.  0.
         24    2    4    4    0    0  0.13589400120E+04 -0.52242347986E+03 -0.89963370509E+03  0.17132320656E+04  0.78606987849E+02 0.  0.
         11    1    3    3    0    0 -0.33258632645E+03  0.11429458316E+03 -0.16554010786E+03  0.38869067855E+03  0.00000000000E+00 0.  1.
        -11    1    3    3    0    0 -0.95758165313E+03  0.37950014582E+03 -0.32424998866E+03  0.10798708433E+04  0.00000000000E+00 0. -1.
          4    1    6    6  502    0  0.43309808044E+03 -0.15782108736E+03 -0.32717722126E+03  0.56526664240E+03  0.00000000000E+00 0. -1.
          3    1    5    5  503    0 -0.82356500305E+02  0.13735096900E+02 -0.21025509282E+03  0.22622654593E+03  0.00000000000E+00 0. -1.
         -4    1    5    5    0  503  0.13584467833E+02  0.14893653981E+02 -0.11108869551E+03  0.11290286518E+03  0.00000000000E+00 0.  1.
         -1    1    6    6    0  502  0.92584193160E+03 -0.36460239250E+03 -0.57245648383E+03  0.11479654232E+04  0.00000000000E+00 0.  1.
<mgrwt>
<rscale>  0 0.30773646E+04</rscale>
<asrwt>0</asrwt>
<pdfrwt beam="1">  1        1 0.40243773E+00 0.30773646E+04</pdfrwt>
<pdfrwt beam="2">  1       -1 0.13924273E+00 0.30773646E+04</pdfrwt>
<totfact> 0.40408879E-01</totfact>
</mgrwt>
</event>
<event>
12    1  0.2083715E-007  0.1505290E+04  0.7818608E-02  0.8880943E-01
          1   -1    0    0  501    0  0.00000000000E+00  0.00000000000E+00  0.11294115423E+04  0.11294115423E+04  0.00000000000E+00 0. -1.
         -1   -1    0    0    0  501 -0.00000000000E+00 -0.00000000000E+00 -0.50156630121E+03  0.50156630121E+03  0.00000000000E+00 0.  1.
         23    2    1    2    0    0 -0.75878761711E+02  0.37756961205E+03  0.50873952354E+03  0.64463409835E+03  0.91765023440E+02 0.  0.
        254    2    1    2    0    0  0.75878761711E+02 -0.37756961205E+03  0.11910571756E+03  0.98634374517E+03  0.90020631705E+03 0.  0.
        -24    2    4    4    0    0 -0.11322500948E+03  0.18526186263E+03  0.28293000209E+03  0.36532529544E+03  0.79191697133E+02 0.  0.
         24    2    4    4    0    0  0.18910377119E+03 -0.56283147468E+03 -0.16382428453E+03  0.62101844972E+03  0.79284383905E+02 0.  0.
         13    1    3    3    0    0 -0.10060512395E+02  0.52324513949E+02  0.13335168047E+03  0.14360271360E+03  0.00000000000E+00 0. -1.
        -13    1    3    3    0    0 -0.65818249316E+02  0.32524509810E+03  0.37538784307E+03  0.50103138475E+03  0.00000000000E+00 0.  1.
          4    1    6    6  502    0  0.13034645467E+03 -0.45335567588E+03 -0.10368823684E+03  0.48298324770E+03  0.00000000000E+00 0. -1.
          1    1    5    5  503    0 -0.29912059012E+02  0.11392172403E+03  0.17864357669E+03  0.21397761091E+03  0.00000000000E+00 0. -1.
         -2    1    5    5    0  503 -0.83312950463E+02  0.71340138605E+02  0.10428642540E+03  0.15134768453E+03  0.00000000000E+00 0.  1.
         -3    1    6    6    0  502  0.58757316515E+02 -0.10947579879E+03 -0.60136047690E+02  0.13803520202E+03  0.00000000000E+00 0.  1.
<mgrwt>
<rscale>  0 0.15052904E+04</rscale>
<asrwt>0</asrwt>
<pdfrwt beam="1">  1        1 0.17375562E+00 0.15052904E+04</pdfrwt>
<pdfrwt beam="2">  1       -1 0.77164047E-01 0.15052904E+04</pdfrwt>
<totfact> 0.19625273E+01</totfact>
</mgrwt>
</event>
<event>
12    1  0.2083715E-007  0.1507631E+04  0.7818608E-02  0.8879394E-01
         -2   -1    0    0    0  501 -0.00000000000E+00  0.00000000000E+00  0.51052405864E+03  0.51052405864E+03  0.00000000000E+00 0.  1.
          2   -1    0    0  501    0  0.00000000000E+00 -0.00000000000E+00 -0.11130482595E+04  0.11130482595E+04  0.00000000000E+00 0. -1.
         23    2    1    2    0    0 -0.11454150436E+03  0.41177058346E+03  0.39251053033E+02  0.43915277488E+03  0.92950228067E+02 0.  0.
        254    2    1    2    0    0  0.11454150436E+03 -0.41177058346E+03 -0.64177525387E+03  0.11844195432E+04  0.89905473042E+03 0.  0.
        -24    2    4    4    0    0 -0.16460157363E+03 -0.51155855055E+03 -0.68677186496E+03  0.87566621910E+03  0.79686285433E+02 0.  0.
         24    2    4    4    0    0  0.27914307799E+03  0.99787967091E+02  0.44996611089E+02  0.30875332414E+03  0.73657476128E+02 0.  0.
         13    1    3    3    0    0 -0.12437555599E+03  0.37835353510E+03  0.52839983593E+02  0.40176204440E+03  0.00000000000E+00 0.  1.
        -13    1    3    3    0    0  0.98340516285E+01  0.33417048359E+02 -0.13588930561E+02  0.37390730485E+02  0.00000000000E+00 0. -1.
          2    1    6    6  502    0  0.12412276663E+03  0.72100173708E+01  0.27587231444E+02  0.12735580428E+03  0.00000000000E+00 0. -1.
          3    1    5    5  503    0 -0.58299960626E+02 -0.91835616847E+02 -0.16522144927E+03  0.19781504803E+03  0.00000000000E+00 0. -1.
         -4    1    5    5    0  503 -0.10630161301E+03 -0.41972293370E+03 -0.52155041570E+03  0.67785117107E+03  0.00000000000E+00 0.  1.
         -1    1    6    6    0  502  0.15502031136E+03  0.92577949720E+02  0.17409379645E+02  0.18139751986E+03  0.00000000000E+00 0.  1.
<mgrwt>
<rscale>  0 0.15076311E+04</rscale>
<asrwt>0</asrwt>
<pdfrwt beam="1">  1        2 0.17123819E+00 0.15076311E+04</pdfrwt>
<pdfrwt beam="2">  1       -2 0.78542163E-01 0.15076311E+04</pdfrwt>
<totfact> 0.29756047E+01</totfact>
</mgrwt>
</event>
<event>
12    1  0.2083715E-007  0.1408361E+04  0.7818608E-02  0.8947789E-01
          2   -1    0    0  501    0  0.00000000000E+00  0.00000000000E+00  0.53919447115E+03  0.53919447115E+03  0.00000000000E+00 0. -1.
         -2   -1    0    0    0  501 -0.00000000000E+00 -0.00000000000E+00 -0.91965009998E+03  0.91965009998E+03  0.00000000000E+00 0.  1.
         23    2    1    2    0    0 -0.39465472042E+03 -0.79199682631E+02 -0.49313335017E+02  0.41584032880E+03  0.92013237991E+02 0.  0.
        254    2    1    2    0    0  0.39465472042E+03  0.79199682631E+02 -0.33114229381E+03  0.10430042423E+04  0.90342553246E+03 0.  0.
        -24    2    4    4    0    0  0.22363438001E+03  0.16758982745E+03  0.27624566317E+03  0.40071059816E+03  0.78476944842E+02 0.  0.
         24    2    4    4    0    0  0.17102034041E+03 -0.88390144818E+02 -0.60738795698E+03  0.64229364418E+03  0.80995188350E+02 0.  0.
         11    1    3    3    0    0 -0.17486911734E+03 -0.81913396846E+02 -0.23131949708E+02  0.19448418928E+03  0.00000000000E+00 0. -1.
        -11    1    3    3    0    0 -0.21978560308E+03  0.27137142154E+01 -0.26181385309E+02  0.22135613952E+03  0.00000000000E+00 0.  1.
          4    1    6    6  502    0  0.39598048284E+02  0.24791416424E+01 -0.58971445646E+02  0.71075895864E+02  0.00000000000E+00 0. -1.
          3    1    5    5  503    0  0.24075824919E+02 -0.70409326332E+01  0.24745008979E+02  0.35235430284E+02  0.00000000000E+00 0. -1.
         -4    1    5    5    0  503  0.19955855509E+03  0.17463076008E+03  0.25150065419E+03  0.36547516787E+03  0.00000000000E+00 0.  1.
         -3    1    6    6    0  502  0.13142229213E+03 -0.90869286460E+02 -0.54841651133E+03  0.57121774831E+03  0.00000000000E+00 0.  1.
<mgrwt>
<rscale>  0 0.14083611E+04</rscale>
<asrwt>0</asrwt>
<pdfrwt beam="1">  1        2 0.82952997E-01 0.14083611E+04</pdfrwt>
<pdfrwt beam="2">  1       -2 0.14148463E+00 0.14083611E+04</pdfrwt>
<totfact> 0.19143272E+01</totfact>
</mgrwt>
</event>
<event>
12    1  0.2083715E-007  0.2973539E+04  0.7818608E-02  0.8251328E-01
         -2   -1    0    0    0  501 -0.00000000000E+00  0.00000000000E+00  0.11709523943E+04  0.11709523943E+04  0.00000000000E+00 0.  1.
          2   -1    0    0  501    0  0.00000000000E+00 -0.00000000000E+00 -0.18877648877E+04  0.18877648877E+04  0.00000000000E+00 0. -1.
         23    2    1    2    0    0 -0.11855086330E+04  0.36731059777E+03  0.21783327066E+03  0.12633072065E+04  0.90255028362E+02 0.  0.
        254    2    1    2    0    0  0.11855086330E+04 -0.36731059777E+03 -0.93464576410E+03  0.17954100754E+04  0.89977043764E+03 0.  0.
        -24    2    4    4    0    0  0.15448998768E+03  0.22344624531E+03 -0.40108338490E+03  0.49078720470E+03  0.78796052005E+02 0.  0.
         24    2    4    4    0    0  0.10310186453E+04 -0.59075684308E+03 -0.53356237919E+03  0.13046228707E+04  0.73204697281E+02 0.  0.
         11    1    3    3    0    0 -0.79964808589E+03  0.25440206702E+03  0.10466858815E+03  0.84564353384E+03  0.00000000000E+00 0. -1.
        -11    1    3    3    0    0 -0.38586054710E+03  0.11290853075E+03  0.11316468251E+03  0.41766367269E+03  0.00000000000E+00 0.  1.
          4    1    6    6  502    0  0.22663274048E+03 -0.10649629438E+03 -0.13666439215E+03  0.28527358072E+03  0.00000000000E+00 0. -1.
          3    1    5    5  503    0  0.35409237152E+02  0.65446382403E+02 -0.56450599889E+02  0.93400820516E+02  0.00000000000E+00 0. -1.
         -4    1    5    5    0  503  0.11908075053E+03  0.15799986291E+03 -0.34463278501E+03  0.39738638418E+03  0.00000000000E+00 0.  1.
         -3    1    6    6    0  502  0.80438590483E+03 -0.48426054870E+03 -0.39689798704E+03  0.10193492900E+04  0.00000000000E+00 0.  1.
<mgrwt>
<rscale>  0 0.29735385E+04</rscale>
<asrwt>0</asrwt>
<pdfrwt beam="1">  1        2 0.29042537E+00 0.29735385E+04</pdfrwt>
<pdfrwt beam="2">  1       -2 0.18014652E+00 0.29735385E+04</pdfrwt>
<totfact> 0.11971760E+00</totfact>
</mgrwt>
</event>
<event>
12    1  0.2083715E-007  0.2260760E+04  0.7818608E-02  0.8493556E-01
          2   -1    0    0  501    0  0.00000000000E+00  0.00000000000E+00  0.19953232937E+04  0.19953232937E+04  0.00000000000E+00 0. -1.
         -2   -1    0    0    0  501 -0.00000000000E+00 -0.00000000000E+00 -0.64037671326E+03  0.64037671326E+03  0.00000000000E+00 0.  1.
         23    2    1    2    0    0 -0.34237083237E+03  0.27569959947E+03  0.15522753091E+04  0.16157853832E+04  0.89306849295E+02 0.  0.
        254    2    1    2    0    0  0.34237083237E+03 -0.27569959947E+03 -0.19732872866E+03  0.10199146238E+04  0.89892110700E+03 0.  0.
        -24    2    4    4    0    0  0.56413750854E+03 -0.17911981408E+02 -0.31454809696E+03  0.65100178917E+03  0.79314920321E+02 0.  0.
         24    2    4    4    0    0 -0.22176667617E+03 -0.25778761806E+03  0.11721936831E+03  0.36891283459E+03  0.81984050457E+02 0.  0.
         11    1    3    3    0    0 -0.15943939162E+03  0.94800140490E+02  0.78128991905E+03  0.80300804719E+03  0.00000000000E+00 0. -1.
        -11    1    3    3    0    0 -0.18293144075E+03  0.18089945898E+03  0.77098539004E+03  0.81277733601E+03  0.00000000000E+00 0.  1.
          4    1    6    6  502    0 -0.10303423070E+03 -0.13669292483E+03  0.10050380856E+03  0.19849943056E+03  0.00000000000E+00 0. -1.
          1    1    5    5  503    0  0.44334974649E+03  0.47415680556E+01 -0.27574704198E+03  0.52212825181E+03  0.00000000000E+00 0. -1.
         -4    1    5    5    0  503  0.12078776205E+03 -0.22653549464E+02 -0.38801054984E+02  0.12887353736E+03  0.00000000000E+00 0.  1.
         -3    1    6    6    0  502 -0.11873244547E+03 -0.12109469323E+03  0.16715559747E+02  0.17041340403E+03  0.00000000000E+00 0.  1.
<mgrwt>
<rscale>  0 0.22607597E+04</rscale>
<asrwt>0</asrwt>
<pdfrwt beam="1">  1        2 0.30697281E+00 0.22607597E+04</pdfrwt>
<pdfrwt beam="2">  1       -2 0.98519495E-01 0.22607597E+04</pdfrwt>
<totfact> 0.52304933E+00</totfact>
</mgrwt>
</event>
<event>
12    1  0.2083715E-007  0.1321920E+04  0.7818608E-02  0.9012361E-01
         -1   -1    0    0    0  501 -0.00000000000E+00  0.00000000000E+00  0.97647820261E+03  0.97647820261E+03  0.00000000000E+00 0.  1.
          1   -1    0    0  501    0  0.00000000000E+00 -0.00000000000E+00 -0.44739152633E+03  0.44739152633E+03  0.00000000000E+00 0. -1.
         23    2    1    2    0    0 -0.11227075402E+03 -0.10129364247E+03 -0.19343083754E+03  0.26151363500E+03  0.90048698838E+02 0.  0.
        254    2    1    2    0    0  0.11227075402E+03  0.10129364247E+03  0.72251751383E+03  0.11623560939E+04  0.89787248935E+03 0.  0.
        -24    2    4    4    0    0  0.45173036248E+03  0.25657076600E+03  0.46170475527E+03  0.69962326126E+03  0.80078388507E+02 0.  0.
         24    2    4    4    0    0 -0.33945960846E+03 -0.15527712353E+03  0.26081275855E+03  0.46273283268E+03  0.82186182241E+02 0.  0.
         11    1    3    3    0    0 -0.56889431146E+02 -0.45683342826E+02 -0.16068351084E+03  0.17647256400E+03  0.00000000000E+00 0. -1.
        -11    1    3    3    0    0 -0.55381322879E+02 -0.55610299647E+02 -0.32747326701E+02  0.85041071000E+02  0.00000000000E+00 0.  1.
          2    1    6    6  502    0 -0.92530892800E+01  0.86519883258E+01  0.34549251527E+01  0.13130615790E+02  0.00000000000E+00 0. -1.
          3    1    5    5  503    0  0.42697424917E+02  0.53207216890E+02  0.48917598355E+02  0.83946467779E+02  0.00000000000E+00 0. -1.
         -4    1    5    5    0  503  0.40903293757E+03  0.20336354911E+03  0.41278715692E+03  0.61567679349E+03  0.00000000000E+00 0.  1.
         -1    1    6    6    0  502 -0.33020651918E+03 -0.16392911185E+03  0.25735783340E+03  0.44960221689E+03  0.00000000000E+00 0.  1.
<mgrwt>
<rscale>  0 0.13219199E+04</rscale>
<asrwt>0</asrwt>
<pdfrwt beam="1">  1        1 0.68829466E-01 0.13219199E+04</pdfrwt>
<pdfrwt beam="2">  1       -1 0.15022742E+00 0.13219199E+04</pdfrwt>
<totfact> 0.17591968E+01</totfact>
</mgrwt>
</event>
<event>
12    1  0.2083715E-007  0.2702863E+04  0.7818608E-02  0.8334077E-01
          1   -1    0    0  501    0  0.00000000000E+00  0.00000000000E+00  0.16259661772E+04  0.16259661772E+04  0.00000000000E+00 0. -1.
         -1   -1    0    0    0  501 -0.00000000000E+00 -0.00000000000E+00 -0.11232504683E+04  0.11232504683E+04  0.00000000000E+00 0.  1.
         23    2    1    2    0    0  0.82916054518E+03  0.86609167858E+03  0.19645967288E+03  0.12184906239E+04  0.92200824493E+02 0.  0.
        254    2    1    2    0    0 -0.82916054518E+03 -0.86609167858E+03  0.30625603604E+03  0.15307260216E+04  0.90094804970E+03 0.  0.
        -24    2    4    4    0    0 -0.12852590317E+03  0.17152007878E+03 -0.33320502010E+02  0.23106625673E+03  0.79644924096E+02 0.  0.
         24    2    4    4    0    0 -0.70063464201E+03 -0.10376117574E+04  0.33957653805E+03  0.12996597649E+04  0.79222589317E+02 0.  0.
         13    1    3    3    0    0  0.58019868661E+03  0.54447102259E+03  0.12044815150E+03  0.80472788418E+03  0.00000000000E+00 0.  1.
        -13    1    3    3    0    0  0.24896185858E+03  0.32162065599E+03  0.76011521378E+02  0.41376273970E+03  0.00000000000E+00 0. -1.
          4    1    6    6  502    0 -0.60644725903E+03 -0.87602328968E+03  0.26214826047E+03  0.10972314216E+04  0.00000000000E+00 0. -1.
          3    1    5    5  503    0 -0.70161882223E+02  0.13104723322E+03 -0.52249750834E+02  0.15756301442E+03  0.00000000000E+00 0. -1.
         -4    1    5    5    0  503 -0.58364020948E+02  0.40472845568E+02  0.18929248823E+02  0.73503242314E+02  0.00000000000E+00 0.  1.
         -3    1    6    6    0  502 -0.94187382980E+02 -0.16158846769E+03  0.77428277584E+02  0.20242834330E+03  0.00000000000E+00 0.  1.
<mgrwt>
<rscale>  0 0.27028631E+04</rscale>
<asrwt>0</asrwt>
<pdfrwt beam="1">  1        1 0.25014864E+00 0.27028631E+04</pdfrwt>
<pdfrwt beam="2">  1       -1 0.17280776E+00 0.27028631E+04</pdfrwt>
<totfact> 0.10971880E+00</totfact>
</mgrwt>
</event>
<event>
12    1  0.2083715E-007  0.1246582E+04  0.7818608E-02  0.9073033E-01
          2   -1    0    0  501    0  0.00000000000E+00  0.00000000000E+00  0.65797548353E+03  0.65797548353E+03  0.00000000000E+00 0. -1.
         -2   -1    0    0    0  501 -0.00000000000E+00 -0.00000000000E+00 -0.59043482985E+03  0.59043482985E+03  0.00000000000E+00 0.  1.
         23    2    1    2    0    0  0.24153017610E+03 -0.79473411328E+02  0.15229018205E+03  0.30986198903E+03  0.90384200071E+02 0.  0.
        254    2    1    2    0    0 -0.24153017610E+03  0.79473411328E+02 -0.84749528368E+02  0.93854832434E+03  0.89946518859E+03 0.  0.
        -24    2    4    4    0    0 -0.10212597565E+03 -0.36335768494E+03 -0.22558364350E+03  0.44682555003E+03  0.79413914644E+02 0.  0.
         24    2    4    4    0    0 -0.13940420046E+03  0.44283109627E+03  0.14083411513E+03  0.49172277431E+03  0.80150657255E+02 0.  0.
         11    1    3    3    0    0  0.43673342857E+02 -0.47194122642E+02  0.12608717385E+02  0.65525764721E+02  0.00000000000E+00 0.  1.
        -11    1    3    3    0    0  0.19785683325E+03 -0.32279288686E+02  0.13968146466E+03  0.24433622431E+03  0.00000000000E+00 0. -1.
          4    1    6    6  502    0  0.27094843223E+01  0.92845120468E+01  0.16020988096E+02  0.18714046297E+02  0.00000000000E+00 0. -1.
          1    1    5    5  503    0 -0.35936119725E+02 -0.20893347236E+03 -0.16344262669E+03  0.26769029267E+03  0.00000000000E+00 0. -1.
         -2    1    5    5    0  503 -0.66189855923E+02 -0.15442421258E+03 -0.62141016815E+02  0.17913525736E+03  0.00000000000E+00 0.  1.
         -3    1    6    6    0  502 -0.14211368478E+03  0.43354658422E+03  0.12481312704E+03  0.47300872801E+03  0.00000000000E+00 0.  1.
<mgrwt>
<rscale>  0 0.12465820E+04</rscale>
<asrwt>0</asrwt>
<pdfrwt beam="1">  1        2 0.10122700E+00 0.12465820E+04</pdfrwt>
<pdfrwt beam="2">  1       -2 0.90836128E-01 0.12465820E+04</pdfrwt>
<totfact> 0.45085119E+01</totfact>
</mgrwt>
</event>
<event>
12    1  0.2083715E-007  0.1667896E+04  0.7818608E-02  0.8779889E-01
         -1   -1    0    0    0  501 -0.00000000000E+00  0.00000000000E+00  0.12734655605E+04  0.12734655605E+04  0.00000000000E+00 0.  1.
          1   -1    0    0  501    0  0.00000000000E+00 -0.00000000000E+00 -0.54612322069E+03  0.54612322069E+03  0.00000000000E+00 0. -1.
         23    2    1    2    0    0 -0.50567912635E+03 -0.15668255905E+03  0.53779467453E+03  0.76022988981E+03  0.92008533763E+02 0.  0.
        254    2    1    2    0    0  0.50567912635E+03  0.15668255905E+03  0.18954766530E+03  0.10593588914E+04  0.89780406560E+03 0.  0.
        -24    2    4    4    0    0  0.53882798029E+03 -0.27868156032E+02 -0.22986424446E+03  0.59303083398E+03  0.87953241568E+02 0.  0.
         24    2    4    4    0    0 -0.33148853943E+02  0.18455071508E+03  0.41941190976E+03  0.46632805741E+03  0.79985587007E+02 0.  0.
         13    1    3    3    0    0 -0.49159819526E+03 -0.15949801071E+03  0.53778621982E+03  0.74587024289E+03  0.00000000000E+00 0.  1.
        -13    1    3    3    0    0 -0.14080931084E+02  0.28154516578E+01  0.84547067709E-02  0.14359646922E+02  0.00000000000E+00 0. -1.
          4    1    6    6  502    0  0.17710183165E+02  0.12814560471E+02  0.25363664088E+02  0.33484011166E+02  0.00000000000E+00 0. -1.
          1    1    5    5  503    0  0.66301272370E+02 -0.22472414849E+02 -0.63926107580E+01  0.70297465241E+02  0.00000000000E+00 0. -1.
         -2    1    5    5    0  503  0.47252670792E+03 -0.53957411832E+01 -0.22347163370E+03  0.52273336874E+03  0.00000000000E+00 0.  1.
         -3    1    6    6    0  502 -0.50859037108E+02  0.17173615461E+03  0.39404824567E+03  0.43284404625E+03  0.00000000000E+00 0.  1.
<mgrwt>
<rscale>  0 0.16678958E+04</rscale>
<asrwt>0</asrwt>
<pdfrwt beam="1">  1        1 0.84018957E-01 0.16678958E+04</pdfrwt>
<pdfrwt beam="2">  1       -1 0.19591778E+00 0.16678958E+04</pdfrwt>
<totfact> 0.60042836E+00</totfact>
</mgrwt>
</event>
<event>
12    1  0.2083715E-007  0.2131510E+04  0.7818608E-02  0.8547489E-01
          2   -1    0    0  501    0  0.00000000000E+00  0.00000000000E+00  0.26007820699E+04  0.26007820699E+04  0.00000000000E+00 0.  1.
         -2   -1    0    0    0  501 -0.00000000000E+00 -0.00000000000E+00 -0.43672757651E+03  0.43672757651E+03  0.00000000000E+00 0. -1.
         23    2    1    2    0    0  0.85989510010E+03 -0.99507139031E+02  0.73087506089E+03  0.11366972669E+04  0.92634054289E+02 0.  0.
        254    2    1    2    0    0 -0.85989510010E+03  0.99507139031E+02  0.14331794325E+04  0.19008123796E+04  0.89986841403E+03 0.  0.
        -24    2    4    4    0    0 -0.64762998626E+03  0.14021168836E+03  0.15155793382E+04  0.16561640547E+04  0.82551372077E+02 0.  0.
         24    2    4    4    0    0 -0.21226511384E+03 -0.40704549326E+02 -0.82399905701E+02  0.24464832483E+03  0.79685127190E+02 0.  0.
         11    1    3    3    0    0  0.51741410805E+03 -0.33239967638E+02  0.48459472502E+03  0.70968605888E+03  0.00000000000E+00 0.  1.
        -11    1    3    3    0    0  0.34248099205E+03 -0.66267171393E+02  0.24628033587E+03  0.42701120800E+03  0.00000000000E+00 0. -1.
          4    1    6    6  502    0 -0.52502798488E+02  0.54167990397E+01 -0.54803556064E+02  0.76087550349E+02  0.00000000000E+00 0. -1.
          3    1    5    5  503    0 -0.34870572826E+03  0.80917562132E+02  0.71653731221E+03  0.80098006004E+03  0.00000000000E+00 0. -1.
         -4    1    5    5    0  503 -0.29892425800E+03  0.59294126225E+02  0.79904202603E+03  0.85518399470E+03  0.00000000000E+00 0.  1.
         -3    1    6    6    0  502 -0.15976231535E+03 -0.46121348366E+02 -0.27596349637E+02  0.16856077448E+03  0.00000000000E+00 0.  1.
<mgrwt>
<rscale>  0 0.21315096E+04</rscale>
<asrwt>0</asrwt>
<pdfrwt beam="1">  1        2 0.40012031E+00 0.21315096E+04</pdfrwt>
<pdfrwt beam="2">  1       -2 0.67188859E-01 0.21315096E+04</pdfrwt>
<totfact> 0.56816664E+00</totfact>
</mgrwt>
</event>
<event>
12    1  0.2083715E-007  0.1620445E+04  0.7818608E-02  0.8808085E-01
         -1   -1    0    0    0  501 -0.00000000000E+00  0.00000000000E+00  0.35635542372E+03  0.35635542372E+03  0.00000000000E+00 0.  1.
          1   -1    0    0  501    0  0.00000000000E+00 -0.00000000000E+00 -0.18421520322E+04  0.18421520322E+04  0.00000000000E+00 0. -1.
         23    2    1    2    0    0 -0.41719015767E+03  0.30265573756E+03 -0.79371578734E+03  0.95049798182E+03  0.88394226258E+02 0.  0.
        254    2    1    2    0    0  0.41719015767E+03 -0.30265573756E+03 -0.69208082110E+03  0.12480094741E+04  0.90161170205E+03 0.  0.
        -24    2    4    4    0    0 -0.18595780407E+03  0.17218737065E+03 -0.15534960776E+03  0.30781409345E+03  0.79920085003E+02 0.  0.
         24    2    4    4    0    0  0.60314796174E+03 -0.47484310822E+03 -0.53673121334E+03  0.94019538062E+03  0.81384993641E+02 0.  0.
         13    1    3    3    0    0 -0.14673787988E+03  0.68304486235E+02 -0.20022268876E+03  0.25746190655E+03  0.00000000000E+00 0.  1.
        -13    1    3    3    0    0 -0.27045227779E+03  0.23435125133E+03 -0.59349309858E+03  0.69303607526E+03  0.00000000000E+00 0. -1.
          4    1    6    6  502    0  0.10970928797E+03 -0.12166092043E+03 -0.13699397192E+03  0.21355293434E+03  0.00000000000E+00 0. -1.
          3    1    5    5  503    0 -0.14946659788E+03  0.16545411648E+03 -0.10826284383E+03  0.24786321207E+03  0.00000000000E+00 0. -1.
         -4    1    5    5    0  503 -0.36491206193E+02  0.67332541714E+01 -0.47086763926E+02  0.59950881380E+02  0.00000000000E+00 0.  1.
         -3    1    6    6    0  502  0.49343867377E+03 -0.35318218779E+03 -0.39973724143E+03  0.72664244627E+03  0.00000000000E+00 0.  1.
<mgrwt>
<rscale>  0 0.16204455E+04</rscale>
<asrwt>0</asrwt>
<pdfrwt beam="1">  1        1 0.28340801E+00 0.16204455E+04</pdfrwt>
<pdfrwt beam="2">  1       -1 0.54823911E-01 0.16204455E+04</pdfrwt>
<totfact> 0.12284539E+01</totfact>
</mgrwt>
</event>
<event>
12    1  0.2083715E-007  0.1337844E+04  0.7818608E-02  0.9000082E-01
         -1   -1    0    0    0  501 -0.00000000000E+00  0.00000000000E+00  0.22295953486E+03  0.22295953486E+03  0.00000000000E+00 0.  1.
          1   -1    0    0  501    0  0.00000000000E+00 -0.00000000000E+00 -0.20068951788E+04  0.20068951788E+04  0.00000000000E+00 0. -1.
         23    2    1    2    0    0  0.13336215448E+03 -0.19923540604E+03 -0.93443432658E+03  0.96902512549E+03  0.91443818098E+02 0.  0.
        254    2    1    2    0    0 -0.13336215448E+03  0.19923540604E+03 -0.84950131736E+03  0.12608295882E+04  0.90031025261E+03 0.  0.
        -24    2    4    4    0    0 -0.18478956645E+01  0.40544263690E+03 -0.90790468581E+03  0.99717629677E+03  0.75382370526E+02 0.  0.
         24    2    4    4    0    0 -0.13151425881E+03 -0.20620723087E+03  0.58403368445E+02  0.26365329141E+03  0.79275988118E+02 0.  0.
         13    1    3    3    0    0  0.12325335967E+02 -0.67335581621E+02 -0.15749768006E+03  0.17173093398E+03  0.00000000000E+00 0.  1.
        -13    1    3    3    0    0  0.12103681851E+03 -0.13189982441E+03 -0.77693664652E+03  0.79729419152E+03  0.00000000000E+00 0. -1.
          2    1    6    6  502    0 -0.13386758562E+03 -0.16553128648E+03  0.64526471502E+02  0.22245179884E+03  0.00000000000E+00 0. -1.
          3    1    5    5  503    0  0.17534664072E+02  0.29131210736E+03 -0.71404312510E+03  0.77138044624E+03  0.00000000000E+00 0. -1.
         -4    1    5    5    0  503 -0.19382559736E+02  0.11413052954E+03 -0.19386156071E+03  0.22579585053E+03  0.00000000000E+00 0.  1.
         -1    1    6    6    0  502  0.23533268061E+01 -0.40675944383E+02 -0.61231030569E+01  0.41201492565E+02  0.00000000000E+00 0.  1.
<mgrwt>
<rscale>  0 0.13378437E+04</rscale>
<asrwt>0</asrwt>
<pdfrwt beam="1">  1        1 0.30875310E+00 0.13378437E+04</pdfrwt>
<pdfrwt beam="2">  1       -1 0.34301468E-01 0.13378437E+04</pdfrwt>
<totfact> 0.23264624E+01</totfact>
</mgrwt>
</event>
<event>
12    1  0.2083715E-007  0.1415495E+04  0.7818608E-02  0.8942678E-01
          4   -1    0    0  501    0  0.00000000000E+00  0.00000000000E+00  0.46148024008E+03  0.46148024008E+03  0.00000000000E+00 0. -1.
         -4   -1    0    0    0  501 -0.00000000000E+00 -0.00000000000E+00 -0.10854345601E+04  0.10854345601E+04  0.00000000000E+00 0.  1.
         23    2    1    2    0    0  0.49415457361E+02  0.34686270155E+03 -0.43018733074E+03  0.56239472405E+03  0.92038388501E+02 0.  0.
        254    2    1    2    0    0 -0.49415457361E+02 -0.34686270155E+03 -0.19376698930E+03  0.98452007616E+03  0.89943232823E+03 0.  0.
        -24    2    4    4    0    0  0.77597146125E+02 -0.24667186865E+03  0.33222708802E+03  0.42839197978E+03  0.79224506694E+02 0.  0.
         24    2    4    4    0    0 -0.12701260349E+03 -0.10019083290E+03 -0.52599407732E+03  0.55612809638E+03  0.80238929244E+02 0.  0.
         13    1    3    3    0    0  0.69688554119E+02  0.20430418362E+03 -0.28913673703E+03  0.36082786301E+03  0.00000000000E+00 0.  1.
        -13    1    3    3    0    0 -0.20273096758E+02  0.14255851792E+03 -0.14105059371E+03  0.20156686104E+03  0.00000000000E+00 0. -1.
          4    1    6    6  502    0 -0.11589553911E+03 -0.61532982644E+02 -0.31338493606E+03  0.33974726208E+03  0.00000000000E+00 0. -1.
          3    1    5    5  503    0  0.81567669546E+02 -0.17990396301E+03  0.20516534404E+03  0.28480087609E+03  0.00000000000E+00 0. -1.
         -4    1    5    5    0  503 -0.39705234208E+01 -0.66767905633E+02  0.12706174398E+03  0.14359110370E+03  0.00000000000E+00 0.  1.
         -3    1    6    6    0  502 -0.11117064374E+02 -0.38657850255E+02 -0.21260914126E+03  0.21638083430E+03  0.00000000000E+00 0.  1.
<mgrwt>
<rscale>  0 0.14154951E+04</rscale>
<asrwt>0</asrwt>
<pdfrwt beam="1">  1        4 0.70996961E-01 0.14154951E+04</pdfrwt>
<pdfrwt beam="2">  1       -4 0.16698993E+00 0.14154951E+04</pdfrwt>
<totfact> 0.78378237E-01</totfact>
</mgrwt>
</event>
<event>
12    1  0.2083715E-007  0.2172502E+04  0.7818608E-02  0.8529961E-01
         -1   -1    0    0    0  501 -0.00000000000E+00  0.00000000000E+00  0.13326549680E+04  0.13326549680E+04  0.00000000000E+00 0.  1.
          1   -1    0    0  501    0  0.00000000000E+00 -0.00000000000E+00 -0.88540623175E+03  0.88540623175E+03  0.00000000000E+00 0. -1.
         23    2    1    2    0    0 -0.89462766878E+03  0.46123199102E+02  0.23584133269E+03  0.93079063795E+03  0.90906887797E+02 0.  0.
        254    2    1    2    0    0  0.89462766878E+03 -0.46123199102E+02  0.21140740355E+03  0.12872705618E+04  0.89993688319E+03 0.  0.
        -24    2    4    4    0    0  0.26577895159E+03  0.26447040810E+03  0.40268496050E+03  0.55591952069E+03  0.79424732920E+02 0.  0.
         24    2    4    4    0    0  0.62884871719E+03 -0.31059360720E+03 -0.19127755695E+03  0.73135104110E+03  0.79800648982E+02 0.  0.
         13    1    3    3    0    0 -0.65319152972E+03  0.20413937018E+02  0.21096559250E+03  0.68671856284E+03  0.00000000000E+00 0.  1.
        -13    1    3    3    0    0 -0.24143613906E+03  0.25709262084E+02  0.24875740187E+02  0.24407207512E+03  0.00000000000E+00 0. -1.
          4    1    6    6  502    0  0.60489225299E+03 -0.30234052574E+03 -0.16766930197E+03  0.69671904385E+03  0.00000000000E+00 0. -1.
          3    1    5    5  503    0  0.78475659824E+02  0.12604763717E+03  0.18404352140E+03  0.23647083074E+03  0.00000000000E+00 0. -1.
         -4    1    5    5    0  503  0.18730329177E+03  0.13842277093E+03  0.21864143911E+03  0.31944868995E+03  0.00000000000E+00 0.  1.
         -3    1    6    6    0  502  0.23956464196E+02 -0.82530814564E+01 -0.23608254979E+02  0.34631997249E+02  0.00000000000E+00 0.  1.
<mgrwt>
<rscale>  0 0.21725018E+04</rscale>
<asrwt>0</asrwt>
<pdfrwt beam="1">  1        1 0.13621634E+00 0.21725018E+04</pdfrwt>
<pdfrwt beam="2">  1       -1 0.20502384E+00 0.21725018E+04</pdfrwt>
<totfact> 0.23763695E+00</totfact>
</mgrwt>
</event>
<event>
12    1  0.2083715E-007  0.2250098E+04  0.7818608E-02  0.8497861E-01
          1   -1    0    0  501    0  0.00000000000E+00  0.00000000000E+00  0.12313594952E+04  0.12313594952E+04  0.00000000000E+00 0. -1.
         -1   -1    0    0    0  501 -0.00000000000E+00 -0.00000000000E+00 -0.10279173602E+04  0.10279173602E+04  0.00000000000E+00 0.  1.
         23    2    1    2    0    0 -0.83745682359E+03  0.70367455611E+02  0.51491000496E+03  0.98977534415E+03  0.90760170256E+02 0.  0.
        254    2    1    2    0    0  0.83745682359E+03 -0.70367455611E+02 -0.31146787001E+03  0.12695015113E+04  0.89907527099E+03 0.  0.
        -24    2    4    4    0    0  0.31415669456E+03  0.30742444435E+03 -0.41676786841E+03  0.61101412960E+03  0.80240841882E+02 0.  0.
         24    2    4    4    0    0  0.52330012902E+03 -0.37779189996E+03  0.10529999840E+03  0.65848738168E+03  0.77121964882E+02 0.  0.
         11    1    3    3    0    0 -0.77821999682E+03  0.64615775006E+02  0.50358256760E+03  0.92919156487E+03  0.00000000000E+00 0.  1.
        -11    1    3    3    0    0 -0.59236826767E+02  0.57516806043E+01  0.11327437354E+02  0.60583779283E+02  0.00000000000E+00 0. -1.
          2    1    6    6  502    0  0.32915151023E+03 -0.19727286658E+03  0.42852839971E+02  0.38612649024E+03  0.00000000000E+00 0. -1.
          1    1    5    5  503    0  0.52561226281E+02  0.99686973386E+02 -0.10994928959E+03  0.15744529670E+03  0.00000000000E+00 0. -1.
         -2    1    5    5    0  503  0.26159546828E+03  0.20773747096E+03 -0.30681857882E+03  0.45356883290E+03  0.00000000000E+00 0.  1.
         -1    1    6    6    0  502  0.19414861880E+03 -0.18051903338E+03  0.62447158425E+02  0.27236089144E+03  0.00000000000E+00 0.  1.
<mgrwt>
<rscale>  0 0.22500985E+04</rscale>
<asrwt>0</asrwt>
<pdfrwt beam="1">  1        1 0.18943992E+00 0.22500985E+04</pdfrwt>
<pdfrwt beam="2">  1       -1 0.15814113E+00 0.22500985E+04</pdfrwt>
<totfact> 0.27785640E+00</totfact>
</mgrwt>
</event>
<event>
12    1  0.2083715E-007  0.1449237E+04  0.7818608E-02  0.8918929E-01
         -2   -1    0    0    0  501 -0.00000000000E+00  0.00000000000E+00  0.23277494386E+03  0.23277494386E+03  0.00000000000E+00 0.  1.
          2   -1    0    0  501    0  0.00000000000E+00 -0.00000000000E+00 -0.22557080522E+04  0.22557080522E+04  0.00000000000E+00 0. -1.
         23    2    1    2    0    0 -0.15062547991E+03  0.40929632010E+03 -0.53557883397E+03  0.69617021206E+03  0.87159416727E+02 0.  0.
        254    2    1    2    0    0  0.15062547991E+03 -0.40929632010E+03 -0.14873542743E+04  0.17923127840E+04  0.89997270257E+03 0.  0.
        -24    2    4    4    0    0 -0.32944032091E+03 -0.15675323278E+03 -0.97009061501E+03  0.10388406678E+04  0.70792871314E+02 0.  0.
         24    2    4    4    0    0  0.48006580082E+03 -0.25254308732E+03 -0.51726365934E+03  0.75347211623E+03  0.76924330258E+02 0.  0.
         11    1    3    3    0    0 -0.13323913840E+03  0.35819110277E+03 -0.50755788647E+03  0.63534914985E+03  0.00000000000E+00 0. -1.
        -11    1    3    3    0    0 -0.17386341505E+02  0.51105217332E+02 -0.28020947502E+02  0.60821062211E+02  0.00000000000E+00 0.  1.
          2    1    6    6  502    0  0.15587000413E+03 -0.12371845364E+03 -0.19029718939E+03  0.27534475526E+03  0.00000000000E+00 0. -1.
          3    1    5    5  503    0 -0.26824912824E+03 -0.99543506964E+02 -0.70574619351E+03  0.76154067143E+03  0.00000000000E+00 0. -1.
         -4    1    5    5    0  503 -0.61191192671E+02 -0.57209725814E+02 -0.26434442149E+03  0.27729999633E+03  0.00000000000E+00 0.  1.
         -1    1    6    6    0  502  0.32419579669E+03 -0.12882463368E+03 -0.32696646995E+03  0.47812736097E+03  0.00000000000E+00 0.  1.
<mgrwt>
<rscale>  0 0.14492375E+04</rscale>
<asrwt>0</asrwt>
<pdfrwt beam="1">  1        2 0.34703201E+00 0.14492375E+04</pdfrwt>
<pdfrwt beam="2">  1       -2 0.35811529E-01 0.14492375E+04</pdfrwt>
<totfact> 0.34205741E+01</totfact>
</mgrwt>
</event>
<event>
12    1  0.2083715E-007  0.2325498E+04  0.7818608E-02  0.8467935E-01
         -2   -1    0    0    0  501 -0.00000000000E+00  0.00000000000E+00  0.15594236963E+04  0.15594236963E+04  0.00000000000E+00 0.  1.
          2   -1    0    0  501    0  0.00000000000E+00 -0.00000000000E+00 -0.86697755225E+03  0.86697755225E+03  0.00000000000E+00 0. -1.
         23    2    1    2    0    0  0.23553967059E+03 -0.86302534457E+03 -0.13273642672E+03  0.91127470249E+03  0.11185232511E+03 0.  0.
        254    2    1    2    0    0 -0.23553967059E+03  0.86302534457E+03  0.82518257080E+03  0.15151265461E+04  0.90243586682E+03 0.  0.
        -24    2    4    4    0    0 -0.90510872988E+02  0.86875831865E+03  0.24315483539E+03  0.91043211884E+03  0.82638578702E+02 0.  0.
         24    2    4    4    0    0 -0.14502879760E+03 -0.57329740751E+01  0.58202773541E+03  0.60469442725E+03  0.76373074051E+02 0.  0.
         11    1    3    3    0    0  0.95542646621E+02 -0.55558726341E+03 -0.83504174211E+02  0.56989345644E+03  0.00000000000E+00 0.  1.
        -11    1    3    3    0    0  0.13999702396E+03 -0.30743808116E+03 -0.49232252512E+02  0.34138124605E+03  0.00000000000E+00 0. -1.
          2    1    6    6  502    0 -0.37730704902E+02 -0.17991555412E+02  0.29637690979E+03  0.29931016491E+03  0.00000000000E+00 0. -1.
          1    1    5    5  503    0 -0.88241941134E+02  0.46608829638E+03  0.14369688720E+03  0.49565485530E+03  0.00000000000E+00 0. -1.
         -2    1    5    5    0  503 -0.22689318537E+01  0.40267002227E+03  0.99457948189E+02  0.41477726353E+03  0.00000000000E+00 0.  1.
         -1    1    6    6    0  502 -0.10729809270E+03  0.12258581337E+02  0.28565082561E+03  0.30538426234E+03  0.00000000000E+00 0.  1.
<mgrwt>
<rscale>  0 0.23254981E+04</rscale>
<asrwt>0</asrwt>
<pdfrwt beam="1">  1        2 0.13338116E+00 0.23254981E+04</pdfrwt>
<pdfrwt beam="2">  1       -2 0.23991134E+00 0.23254981E+04</pdfrwt>
<totfact> 0.20722020E+00</totfact>
</mgrwt>
</event>
<event>
12    1  0.2083715E-007  0.1939968E+04  0.7818608E-02  0.8635213E-01
         -2   -1    0    0    0  501 -0.00000000000E+00  0.00000000000E+00  0.40216832769E+03  0.40216832769E+03  0.00000000000E+00 0. -1.
          2   -1    0    0  501    0  0.00000000000E+00 -0.00000000000E+00 -0.23394915059E+04  0.23394915059E+04  0.00000000000E+00 0.  1.
         23    2    1    2    0    0  0.15357930306E+03 -0.29892619956E+03  0.19895423445E+03  0.40075526820E+03  0.89880601184E+02 0.  0.
        254    2    1    2    0    0 -0.15357930306E+03  0.29892619956E+03 -0.21362774126E+04  0.23409045654E+04  0.89621957426E+03 0.  0.
        -24    2    4    4    0    0 -0.27956801686E+03  0.50780727306E+03 -0.87090163134E+03  0.10493153478E+04  0.81034220910E+02 0.  0.
         24    2    4    4    0    0  0.12598871380E+03 -0.20888107350E+03 -0.12653757813E+04  0.12915892176E+04  0.86731656619E+02 0.  0.
         11    1    3    3    0    0 -0.98467059064E+01 -0.18678415959E+02  0.19468774064E+01  0.21204508284E+02  0.00000000000E+00 0.  1.
        -11    1    3    3    0    0  0.16342600897E+03 -0.28024778360E+03  0.19700735705E+03  0.37955075991E+03  0.00000000000E+00 0. -1.
          4    1    6    6  502    0  0.77562371235E+02 -0.50963635525E+02 -0.40445071292E+03  0.41496215823E+03  0.00000000000E+00 0. -1.
          3    1    5    5  503    0 -0.15906685720E+03  0.25503216324E+03 -0.38419912822E+03  0.48780389448E+03  0.00000000000E+00 0. -1.
         -4    1    5    5    0  503 -0.12050115966E+03  0.25277510982E+03 -0.48670250312E+03  0.56151145328E+03  0.00000000000E+00 0.  1.
         -3    1    6    6    0  502  0.48426342567E+02 -0.15791743797E+03 -0.86092506836E+03  0.87662705936E+03  0.00000000000E+00 0.  1.
<mgrwt>
<rscale>  0 0.19399684E+04</rscale>
<asrwt>0</asrwt>
<pdfrwt beam="1">  1        2 0.35992177E+00 0.19399684E+04</pdfrwt>
<pdfrwt beam="2">  1       -2 0.61872051E-01 0.19399684E+04</pdfrwt>
<totfact> 0.97547827E+00</totfact>
</mgrwt>
</event>
<event>
12    1  0.2083715E-007  0.2382591E+04  0.7818608E-02  0.8446050E-01
         -2   -1    0    0    0  501 -0.00000000000E+00  0.00000000000E+00  0.18158983301E+04  0.18158983301E+04  0.00000000000E+00 0. -1.
          2   -1    0    0  501    0  0.00000000000E+00 -0.00000000000E+00 -0.78153345421E+03  0.78153345421E+03  0.00000000000E+00 0.  1.
         23    2    1    2    0    0  0.21723427880E+03  0.78107683951E+03 -0.22791725279E+03  0.84681061376E+03  0.88714036905E+02 0.  0.
        254    2    1    2    0    0 -0.21723427880E+03 -0.78107683951E+03  0.12622821287E+04  0.17506211706E+04  0.90224528224E+03 0.  0.
        -24    2    4    4    0    0  0.13927015899E+03 -0.81731576646E+03  0.98742495926E+03  0.12918319247E+04  0.80127599842E+02 0.  0.
         24    2    4    4    0    0 -0.35650443779E+03  0.36238926948E+02  0.27485716941E+03  0.45878924584E+03  0.80823477587E+02 0.  0.
         11    1    3    3    0    0  0.31543853609E+02  0.50744985487E+02 -0.33774707443E+02  0.68635261458E+02  0.00000000000E+00 0.  1.
        -11    1    3    3    0    0  0.18569042519E+03  0.73033185403E+03 -0.19414254534E+03  0.77817535230E+03  0.00000000000E+00 0. -1.
          4    1    6    6  502    0 -0.32334573238E+03  0.46243237555E+02  0.27006733937E+03  0.42382457157E+03  0.00000000000E+00 0. -1.
          1    1    5    5  503    0  0.12990245139E+03 -0.79110417880E+03  0.92886090366E+03  0.12269894241E+04  0.00000000000E+00 0. -1.
         -2    1    5    5    0  503  0.93677076006E+01 -0.26211587664E+02  0.58564055600E+02  0.64842500583E+02  0.00000000000E+00 0.  1.
         -3    1    6    6    0  502 -0.33158705406E+02 -0.10004310607E+02  0.47898300408E+01  0.34964674269E+02  0.00000000000E+00 0.  1.
<mgrwt>
<rscale>  0 0.23825913E+04</rscale>
<asrwt>0</asrwt>
<pdfrwt beam="1">  1        2 0.12023592E+00 0.23825913E+04</pdfrwt>
<pdfrwt beam="2">  1       -2 0.27936897E+00 0.23825913E+04</pdfrwt>
<totfact> 0.13595054E+00</totfact>
</mgrwt>
</event>
<event>
12    1  0.2083715E-007  0.1483398E+04  0.7818608E-02  0.8895569E-01
          1   -1    0    0  501    0  0.00000000000E+00  0.00000000000E+00  0.48408079272E+03  0.48408079272E+03  0.00000000000E+00 0. -1.
         -1   -1    0    0    0  501 -0.00000000000E+00 -0.00000000000E+00 -0.11364161290E+04  0.11364161290E+04  0.00000000000E+00 0.  1.
         23    2    1    2    0    0 -0.19144069513E+03  0.35816201963E+03 -0.43662467011E+03  0.60315853811E+03  0.90716853406E+02 0.  0.
        254    2    1    2    0    0  0.19144069513E+03 -0.35816201963E+03 -0.21571066613E+03  0.10173383836E+04  0.90747822185E+03 0.  0.
        -24    2    4    4    0    0  0.85833030944E+02  0.28732694110E+03  0.37495396150E+02  0.31155156587E+03  0.75725776189E+02 0.  0.
         24    2    4    4    0    0  0.10560766419E+03 -0.64548896072E+03 -0.25320606228E+03  0.70578681770E+03  0.78820967478E+02 0.  0.
         13    1    3    3    0    0 -0.13619392549E+03  0.18287375428E+03 -0.28436669268E+03  0.36449418548E+03  0.00000000000E+00 0.  1.
        -13    1    3    3    0    0 -0.55246769638E+02  0.17528826535E+03 -0.15225797743E+03  0.23866435262E+03  0.00000000000E+00 0. -1.
          4    1    6    6  502    0  0.59700323138E+02 -0.21135911584E+03 -0.11479419403E+03  0.24781951379E+03  0.00000000000E+00 0. -1.
          3    1    5    5  503    0  0.96908498744E+01  0.82168878728E+02  0.41756236431E+02  0.92678047474E+02  0.00000000000E+00 0. -1.
         -4    1    5    5    0  503  0.76142181070E+02  0.20515806237E+03 -0.42608402812E+01  0.21887351839E+03  0.00000000000E+00 0.  1.
         -3    1    6    6    0  502  0.45907341047E+02 -0.43412984488E+03 -0.13841186825E+03  0.45796730391E+03  0.00000000000E+00 0.  1.
<mgrwt>
<rscale>  0 0.14833977E+04</rscale>
<asrwt>0</asrwt>
<pdfrwt beam="1">  1        1 0.74473970E-01 0.14833977E+04</pdfrwt>
<pdfrwt beam="2">  1       -1 0.17483325E+00 0.14833977E+04</pdfrwt>
<totfact> 0.10181204E+01</totfact>
</mgrwt>
</event>
<event>
12    1  0.2083715E-007  0.1167862E+04  0.7818608E-02  0.9141462E-01
          2   -1    0    0  501    0  0.00000000000E+00  0.00000000000E+00  0.10593170076E+04  0.10593170076E+04  0.00000000000E+00 0. -1.
         -2   -1    0    0    0  501 -0.00000000000E+00 -0.00000000000E+00 -0.32188211739E+03  0.32188211739E+03  0.00000000000E+00 0.  1.
         23    2    1    2    0    0 -0.59254570120E+02  0.59700013065E+02  0.39620248593E+03  0.41518605826E+03  0.91257095477E+02 0.  0.
        254    2    1    2    0    0  0.59254570120E+02 -0.59700013065E+02  0.34123240427E+03  0.96601306672E+03  0.89981470077E+03 0.  0.
        -24    2    4    4    0    0 -0.31323393567E+01 -0.46568926900E+03  0.26359130142E+03  0.54045304197E+03  0.75715319328E+02 0.  0.
         24    2    4    4    0    0  0.62386909477E+02  0.40598925593E+03  0.77641102855E+02  0.42556002476E+03  0.79710673131E+02 0.  0.
         13    1    3    3    0    0 -0.57608830380E+00  0.45815941374E+02  0.71425463967E+02  0.84858878526E+02  0.00000000000E+00 0.  1.
        -13    1    3    3    0    0 -0.58678481817E+02  0.13884071690E+02  0.32477702196E+03  0.33032717973E+03  0.00000000000E+00 0. -1.
          2    1    6    6  502    0  0.26024612327E+02  0.35405063045E+03  0.66902137559E+02  0.36125479288E+03  0.00000000000E+00 0. -1.
          1    1    5    5  503    0  0.29333710468E+02 -0.34388573862E+03  0.20521660599E+03  0.40153670214E+03  0.00000000000E+00 0. -1.
         -2    1    5    5    0  503 -0.32466049824E+02 -0.12180353038E+03  0.58374695431E+02  0.13891633983E+03  0.00000000000E+00 0.  1.
         -1    1    6    6    0  502  0.36362297150E+02  0.51938625484E+02  0.10738965296E+02  0.64305231877E+02  0.00000000000E+00 0.  1.
<mgrwt>
<rscale>  0 0.11678616E+04</rscale>
<asrwt>0</asrwt>
<pdfrwt beam="1">  1        2 0.16297185E+00 0.11678616E+04</pdfrwt>
<pdfrwt beam="2">  1       -2 0.49520326E-01 0.11678616E+04</pdfrwt>
<totfact> 0.88110407E+01</totfact>
</mgrwt>
</event>
<event>
12    1  0.2083715E-007  0.1217541E+04  0.7818608E-02  0.9097640E-01
          1   -1    0    0  501    0  0.00000000000E+00  0.00000000000E+00  0.18489173332E+04  0.18489173332E+04  0.00000000000E+00 0. -1.
         -1   -1    0    0    0  501 -0.00000000000E+00 -0.00000000000E+00 -0.20044250897E+03  0.20044250897E+03  0.00000000000E+00 0.  1.
         23    2    1    2    0    0  0.89542244107E+02 -0.22855886020E+03  0.21076697745E+03  0.33638365598E+03  0.92055848113E+02 0.  0.
        254    2    1    2    0    0 -0.89542244107E+02  0.22855886020E+03  0.14377078468E+04  0.17129761862E+04  0.89834658999E+03 0.  0.
        -24    2    4    4    0    0 -0.17550333091E+03  0.98208414054E+02 -0.44053552108E+02  0.22093049588E+03  0.80145223224E+02 0.  0.
         24    2    4    4    0    0  0.85961086801E+02  0.13035044614E+03  0.14817613989E+04  0.14920456903E+04  0.78758818653E+02 0.  0.
         13    1    3    3    0    0 -0.70012221774E+01 -0.84146208388E+02  0.97628426630E+02  0.12907715206E+03  0.00000000000E+00 0. -1.
        -13    1    3    3    0    0  0.96543466285E+02 -0.14441265181E+03  0.11313855082E+03  0.20730650392E+03  0.00000000000E+00 0.  1.
          4    1    6    6  502    0  0.69026339491E+02  0.42497987844E+02  0.54094232919E+03  0.54698200887E+03  0.00000000000E+00 0. -1.
          3    1    5    5  503    0 -0.12354759769E+03  0.35780463102E+02 -0.19319282522E+00  0.12862460013E+03  0.00000000000E+00 0. -1.
         -4    1    5    5    0  503 -0.51955733221E+02  0.62427950952E+02 -0.43860359283E+02  0.92305895754E+02  0.00000000000E+00 0.  1.
         -3    1    6    6    0  502  0.16934747310E+02  0.87852458297E+02  0.94081906968E+03  0.94506368144E+03  0.00000000000E+00 0.  1.
<mgrwt>
<rscale>  0 0.12175412E+04</rscale>
<asrwt>0</asrwt>
<pdfrwt beam="1">  1        1 0.28444881E+00 0.12175412E+04</pdfrwt>
<pdfrwt beam="2">  1       -1 0.30837310E-01 0.12175412E+04</pdfrwt>
<totfact> 0.36296000E+01</totfact>
</mgrwt>
</event>
<event>
12    1  0.2083715E-007  0.2638961E+04  0.7818608E-02  0.8355086E-01
          2   -1    0    0  501    0  0.00000000000E+00  0.00000000000E+00  0.16696769291E+04  0.16696769291E+04  0.00000000000E+00 0. -1.
         -2   -1    0    0    0  501 -0.00000000000E+00 -0.00000000000E+00 -0.10427340953E+04  0.10427340953E+04  0.00000000000E+00 0.  1.
         23    2    1    2    0    0 -0.77040769521E+03 -0.87268933945E+03  0.29573224881E+03  0.12041113064E+04  0.85508918194E+02 0.  0.
        254    2    1    2    0    0  0.77040769521E+03  0.87268933945E+03  0.33121058504E+03  0.15082997180E+04  0.90008493360E+03 0.  0.
        -24    2    4    4    0    0 -0.19529526200E+03  0.13545225112E+03  0.92396888333E+02  0.26738850736E+03  0.80447978243E+02 0.  0.
         24    2    4    4    0    0  0.96570295721E+03  0.73723708832E+03  0.23881369670E+03  0.12409112107E+04  0.82023929553E+02 0.  0.
         11    1    3    3    0    0 -0.49198157086E+03 -0.61771613655E+03  0.20009977193E+03  0.81465269295E+03  0.00000000000E+00 0. -1.
        -11    1    3    3    0    0 -0.27842612436E+03 -0.25497320290E+03  0.95632476884E+02  0.38945861341E+03  0.00000000000E+00 0.  1.
          2    1    6    6  502    0  0.46407136936E+03  0.40221006772E+03  0.13594698179E+03  0.62898072808E+03  0.00000000000E+00 0. -1.
          1    1    5    5  503    0 -0.18982057922E+03  0.10817144987E+03  0.97247290352E+02  0.23914420408E+03  0.00000000000E+00 0. -1.
         -2    1    5    5    0  503 -0.54746827764E+01  0.27280801249E+02 -0.48504020186E+01  0.28244303285E+02  0.00000000000E+00 0.  1.
         -1    1    6    6    0  502  0.50163158785E+03  0.33502702060E+03  0.10286671491E+03  0.61193048257E+03  0.00000000000E+00 0.  1.
<mgrwt>
<rscale>  0 0.26389612E+04</rscale>
<asrwt>0</asrwt>
<pdfrwt beam="1">  1        2 0.25687337E+00 0.26389612E+04</pdfrwt>
<pdfrwt beam="2">  1       -2 0.16042063E+00 0.26389612E+04</pdfrwt>
<totfact> 0.22487048E+00</totfact>
</mgrwt>
</event>
<event>
12    1  0.2083715E-007  0.1290690E+04  0.7818608E-02  0.9036981E-01
          2   -1    0    0  501    0  0.00000000000E+00  0.00000000000E+00  0.15549341862E+04  0.15549341862E+04  0.00000000000E+00 0. -1.
         -2   -1    0    0    0  501 -0.00000000000E+00 -0.00000000000E+00 -0.26783778671E+03  0.26783778671E+03  0.00000000000E+00 0.  1.
         23    2    1    2    0    0 -0.25331865064E+03 -0.19698984763E+03  0.37559745208E+03  0.50267243805E+03  0.92902072846E+02 0.  0.
        254    2    1    2    0    0  0.25331865064E+03  0.19698984763E+03  0.91149894744E+03  0.13200995349E+04  0.89936483809E+03 0.  0.
        -24    2    4    4    0    0  0.51350717580E+02 -0.35061278130E+03  0.30158381077E+03  0.47218861207E+03  0.80268747603E+02 0.  0.
         24    2    4    4    0    0  0.20196793306E+03  0.54760262893E+03  0.60991513667E+03  0.84791092282E+03  0.79352214270E+02 0.  0.
         13    1    3    3    0    0 -0.88742303058E+02 -0.19091052045E+02  0.11973719373E+03  0.15025531665E+03  0.00000000000E+00 0. -1.
        -13    1    3    3    0    0 -0.16457634758E+03 -0.17789879558E+03  0.25586025835E+03  0.35241712140E+03  0.00000000000E+00 0.  1.
          4    1    6    6  502    0  0.10476686782E+03  0.30142326833E+03  0.38909806912E+03  0.50321902853E+03  0.00000000000E+00 0. -1.
          3    1    5    5  503    0  0.11463733891E+02 -0.80625267832E+02  0.28959981583E+02  0.86432236700E+02  0.00000000000E+00 0. -1.
         -4    1    5    5    0  503  0.39886983689E+02 -0.26998751347E+03  0.27262382919E+03  0.38575637537E+03  0.00000000000E+00 0.  1.
         -3    1    6    6    0  502  0.97201065237E+02  0.24617936060E+03  0.22081706755E+03  0.34469189429E+03  0.00000000000E+00 0.  1.
<mgrwt>
<rscale>  0 0.12906899E+04</rscale>
<asrwt>0</asrwt>
<pdfrwt beam="1">  1        2 0.23922064E+00 0.12906899E+04</pdfrwt>
<pdfrwt beam="2">  1       -2 0.41205814E-01 0.12906899E+04</pdfrwt>
<totfact> 0.64654335E+01</totfact>
</mgrwt>
</event>
<event>
12    1  0.2083715E-007  0.1806619E+04  0.7818608E-02  0.8702788E-01
          1   -1    0    0  501    0  0.00000000000E+00  0.00000000000E+00  0.78440224219E+03  0.78440224219E+03  0.00000000000E+00 0. -1.
         -1   -1    0    0    0  501 -0.00000000000E+00 -0.00000000000E+00 -0.10402415277E+04  0.10402415277E+04  0.00000000000E+00 0.  1.
         23    2    1    2    0    0 -0.64876745167E+03  0.19034773177E+02 -0.28450866593E+03  0.71456493647E+03  0.91631536608E+02 0.  0.
        254    2    1    2    0    0  0.64876745167E+03 -0.19034773177E+02  0.28669380372E+02  0.11100788335E+04  0.90010641271E+03 0.  0.
        -24    2    4    4    0    0  0.49263153918E+03 -0.42453130552E+03  0.99965917892E+02  0.66271459604E+03  0.79276656711E+02 0.  0.
         24    2    4    4    0    0  0.15613591249E+03  0.40549653234E+03 -0.71296537520E+02  0.44736423743E+03  0.79029765031E+02 0.  0.
         11    1    3    3    0    0 -0.44809929789E+03  0.55387263116E+02 -0.19959856479E+03  0.49366012271E+03  0.00000000000E+00 0. -1.
        -11    1    3    3    0    0 -0.20066815378E+03 -0.36352489939E+02 -0.84910101141E+02  0.22090481376E+03  0.00000000000E+00 0.  1.
          4    1    6    6  502    0  0.15965655442E+02  0.98724531430E+02  0.97606705242E+01  0.10048236636E+03  0.00000000000E+00 0. -1.
          3    1    5    5  503    0  0.43700787802E+03 -0.34291005033E+03  0.72511030006E+02  0.56019732019E+03  0.00000000000E+00 0. -1.
         -4    1    5    5    0  503  0.55623661158E+02 -0.81621255183E+02  0.27454887886E+02  0.10251727585E+03  0.00000000000E+00 0.  1.
         -1    1    6    6    0  502  0.14017025705E+03  0.30677200091E+03 -0.81057208045E+02  0.34688187107E+03  0.00000000000E+00 0.  1.
<mgrwt>
<rscale>  0 0.18066187E+04</rscale>
<asrwt>0</asrwt>
<pdfrwt beam="1">  1        1 0.12067727E+00 0.18066187E+04</pdfrwt>
<pdfrwt beam="2">  1       -1 0.16003716E+00 0.18066187E+04</pdfrwt>
<totfact> 0.62848208E+00</totfact>
</mgrwt>
</event>
<event>
12    1  0.2083715E-007  0.1089966E+04  0.7818608E-02  0.9215027E-01
         -2   -1    0    0    0  501 -0.00000000000E+00  0.00000000000E+00  0.32301794575E+03  0.32301794575E+03  0.00000000000E+00 0.  1.
          2   -1    0    0  501    0  0.00000000000E+00 -0.00000000000E+00 -0.91947418658E+03  0.91947418658E+03  0.00000000000E+00 0. -1.
         23    2    1    2    0    0 -0.97975898365E+02 -0.61806622858E+02  0.10025115809E+02  0.14992481858E+03  0.94644666990E+02 0.  0.
        254    2    1    2    0    0  0.97975898365E+02  0.61806622858E+02 -0.60648135664E+03  0.10925673137E+04  0.90136805126E+03 0.  0.
        -24    2    4    4    0    0  0.46099062557E+03 -0.59474598978E+02 -0.49988241563E+03  0.68762293963E+03  0.83025856570E+02 0.  0.
         24    2    4    4    0    0 -0.36301472721E+03  0.12128122184E+03 -0.10659894101E+03  0.40494437412E+03  0.78280169670E+02 0.  0.
         13    1    3    3    0    0  0.13017484934E+02  0.99236250179E+01 -0.44965849517E+01  0.16975055927E+02  0.00000000000E+00 0. -1.
        -13    1    3    3    0    0 -0.11099338330E+03 -0.71730247876E+02  0.14521700761E+02  0.13294976265E+03  0.00000000000E+00 0.  1.
          4    1    6    6  502    0 -0.27247473304E+01 -0.34199583071E+01 -0.11064486302E+02  0.11897193785E+02  0.00000000000E+00 0. -1.
          3    1    5    5  503    0  0.11011918673E+03  0.17292932008E+02 -0.95714077541E+02  0.14692333178E+03  0.00000000000E+00 0. -1.
         -4    1    5    5    0  503  0.35087143885E+03 -0.76767530986E+02 -0.40416833809E+03  0.54069960784E+03  0.00000000000E+00 0.  1.
         -3    1    6    6    0  502 -0.36028997988E+03  0.12470118014E+03 -0.95534454711E+02  0.39304718033E+03  0.00000000000E+00 0.  1.
<mgrwt>
<rscale>  0 0.10899664E+04</rscale>
<asrwt>0</asrwt>
<pdfrwt beam="1">  1        2 0.14145757E+00 0.10899664E+04</pdfrwt>
<pdfrwt beam="2">  1       -2 0.49695069E-01 0.10899664E+04</pdfrwt>
<totfact> 0.10827981E+02</totfact>
</mgrwt>
</event>
<event>
12    1  0.2083715E-007  0.1081380E+04  0.7818608E-02  0.9223532E-01
          1   -1    0    0  501    0  0.00000000000E+00  0.00000000000E+00  0.39728686864E+03  0.39728686864E+03  0.00000000000E+00 0. -1.
         -1   -1    0    0    0  501 -0.00000000000E+00 -0.00000000000E+00 -0.73585587339E+03  0.73585587339E+03  0.00000000000E+00 0.  1.
         23    2    1    2    0    0  0.92130356499E+02 -0.75925563246E+01  0.65168296132E+02  0.14286205269E+03  0.87275482120E+02 0.  0.
        254    2    1    2    0    0 -0.92130356499E+02  0.75925563246E+01 -0.40373730088E+03  0.99028068933E+03  0.89950341080E+03 0.  0.
        -24    2    4    4    0    0 -0.31393202334E+03  0.26584572195E+03 -0.47504958962E+03  0.63381001167E+03  0.82557586798E+02 0.  0.
         24    2    4    4    0    0  0.22180166684E+03 -0.25825316563E+03  0.71312288742E+02  0.35647067766E+03  0.78071918971E+02 0.  0.
         13    1    3    3    0    0  0.87615727719E+02 -0.37823225058E+02  0.57252635164E+02  0.11128780855E+03  0.00000000000E+00 0.  1.
        -13    1    3    3    0    0  0.45146287792E+01  0.30230668733E+02  0.79156609673E+01  0.31574244149E+02  0.00000000000E+00 0. -1.
          4    1    6    6  502    0  0.21325673545E+03 -0.23129027200E+03  0.83772405887E+02  0.32556326747E+03  0.00000000000E+00 0. -1.
          3    1    5    5  503    0 -0.30487360032E+03  0.27105984760E+03 -0.45433277000E+03  0.61060594416E+03  0.00000000000E+00 0. -1.
         -4    1    5    5    0  503 -0.90584230218E+01 -0.52141256410E+01 -0.20716819624E+02  0.23204067514E+02  0.00000000000E+00 0.  1.
         -3    1    6    6    0  502  0.85449313952E+01 -0.26962893628E+02 -0.12460117145E+02  0.30907410189E+02  0.00000000000E+00 0.  1.
<mgrwt>
<rscale>  0 0.10813804E+04</rscale>
<asrwt>0</asrwt>
<pdfrwt beam="1">  1        1 0.61121057E-01 0.10813804E+04</pdfrwt>
<pdfrwt beam="2">  1       -1 0.11320860E+00 0.10813804E+04</pdfrwt>
<totfact> 0.43070694E+01</totfact>
</mgrwt>
</event>
<event>
12    1  0.2083715E-007  0.3599047E+04  0.7818608E-02  0.8090710E-01
          2   -1    0    0  501    0  0.00000000000E+00  0.00000000000E+00  0.15421379947E+04  0.15421379947E+04  0.00000000000E+00 0. -1.
         -2   -1    0    0    0  501 -0.00000000000E+00 -0.00000000000E+00 -0.20998667436E+04  0.20998667436E+04  0.00000000000E+00 0.  1.
         23    2    1    2    0    0 -0.11202475621E+04 -0.12501527888E+04 -0.42784677427E+03  0.17349055985E+04  0.94910366485E+02 0.  0.
        254    2    1    2    0    0  0.11202475621E+04  0.12501527888E+04 -0.12988197468E+03  0.19070991398E+04  0.89572384476E+03 0.  0.
        -24    2    4    4    0    0 -0.31262037900E+02  0.48594092182E+03  0.10149449024E+03  0.50364554469E+03  0.79005117721E+02 0.  0.
         24    2    4    4    0    0  0.11515096000E+04  0.76421186699E+03 -0.23137646492E+03  0.14034535951E+04  0.78439713654E+02 0.  0.
         13    1    3    3    0    0 -0.72965574215E+03 -0.85469424681E+03 -0.32284144830E+03  0.11692417878E+04  0.00000000000E+00 0.  1.
        -13    1    3    3    0    0 -0.39059181994E+03 -0.39545854199E+03 -0.10500532597E+03  0.56566381069E+03  0.00000000000E+00 0. -1.
          2    1    6    6  502    0  0.11310529390E+04  0.73943205493E+03 -0.21861846641E+03  0.13688807649E+04  0.00000000000E+00 0. -1.
          1    1    5    5  503    0 -0.44898705773E+02  0.33136077697E+03  0.40192733796E+02  0.33679565636E+03  0.00000000000E+00 0. -1.
         -2    1    5    5    0  503  0.13636667873E+02  0.15458014485E+03  0.61301756446E+02  0.16684988833E+03  0.00000000000E+00 0.  1.
         -1    1    6    6    0  502  0.20456661008E+02  0.24779812057E+02 -0.12757998517E+02  0.34572830248E+02  0.00000000000E+00 0.  1.
<mgrwt>
<rscale>  0 0.35990467E+04</rscale>
<asrwt>0</asrwt>
<pdfrwt beam="1">  1        2 0.23725200E+00 0.35990467E+04</pdfrwt>
<pdfrwt beam="2">  1       -2 0.32305642E+00 0.35990467E+04</pdfrwt>
<totfact> 0.22450911E-01</totfact>
</mgrwt>
</event>
<event>
12    1  0.2083715E-007  0.3135473E+04  0.7818608E-02  0.8206070E-01
          2   -1    0    0  501    0  0.00000000000E+00  0.00000000000E+00  0.20248269539E+04  0.20248269539E+04  0.00000000000E+00 0. -1.
         -2   -1    0    0    0  501 -0.00000000000E+00 -0.00000000000E+00 -0.12138307071E+04  0.12138307071E+04  0.00000000000E+00 0.  1.
         23    2    1    2    0    0 -0.10936739413E+04 -0.82232178087E+03 -0.80355096264E+02  0.13737950053E+04  0.92303704147E+02 0.  0.
        254    2    1    2    0    0  0.10936739413E+04  0.82232178087E+03  0.89135134310E+03  0.18648626557E+04  0.90048304073E+03 0.  0.
        -24    2    4    4    0    0  0.51692937069E+03  0.49154508321E+03 -0.38616790057E+02  0.71866808777E+03  0.78485800009E+02 0.  0.
         24    2    4    4    0    0  0.57674457065E+03  0.33077669766E+03  0.92996813316E+03  0.11461945680E+04  0.82907993811E+02 0.  0.
         11    1    3    3    0    0 -0.25745778372E+03 -0.16703437108E+03  0.14108923868E+02  0.30721987770E+03  0.00000000000E+00 0. -1.
        -11    1    3    3    0    0 -0.83621615762E+03 -0.65528740979E+03 -0.94464020132E+02  0.10665751276E+04  0.00000000000E+00 0.  1.
          2    1    6    6  502    0  0.51170074790E+03  0.31297685816E+03  0.86445338949E+03  0.10521748104E+04  0.00000000000E+00 0. -1.
          1    1    5    5  503    0  0.48808058964E+03  0.43367566352E+03 -0.32614324743E+02  0.65372848897E+03  0.00000000000E+00 0. -1.
         -2    1    5    5    0  503  0.28848781050E+02  0.57869419685E+02 -0.60024653149E+01  0.64939598802E+02  0.00000000000E+00 0.  1.
         -1    1    6    6    0  502  0.65043822749E+02  0.17799839507E+02  0.65514743670E+02  0.94019757511E+02  0.00000000000E+00 0.  1.
<mgrwt>
<rscale>  0 0.31354726E+04</rscale>
<asrwt>0</asrwt>
<pdfrwt beam="1">  1        2 0.31151184E+00 0.31354726E+04</pdfrwt>
<pdfrwt beam="2">  1       -2 0.18674319E+00 0.31354726E+04</pdfrwt>
<totfact> 0.89334062E-01</totfact>
</mgrwt>
</event>
<event>
12    1  0.2083715E-007  0.1618313E+04  0.7818608E-02  0.8809376E-01
          4   -1    0    0  501    0  0.00000000000E+00  0.00000000000E+00  0.47522823873E+03  0.47522823873E+03  0.00000000000E+00 0. -1.
         -4   -1    0    0    0  501 -0.00000000000E+00 -0.00000000000E+00 -0.13777256149E+04  0.13777256149E+04  0.00000000000E+00 0.  1.
         23    2    1    2    0    0 -0.34806642373E+03  0.32500424695E+03 -0.63287412242E+03  0.79767537164E+03  0.94754144112E+02 0.  0.
        254    2    1    2    0    0  0.34806642373E+03 -0.32500424695E+03 -0.26962325379E+03  0.10552784820E+04  0.90229594912E+03 0.  0.
        -24    2    4    4    0    0 -0.60696980798E+02  0.62994575804E+02 -0.44434764585E+03  0.45985666674E+03  0.79817814532E+02 0.  0.
         24    2    4    4    0    0  0.40876340453E+03 -0.38799882276E+03  0.17472439206E+03  0.59542181529E+03  0.79799233130E+02 0.  0.
         11    1    3    3    0    0 -0.20801377886E+03  0.15465642329E+03 -0.40266763838E+03  0.47888366902E+03  0.00000000000E+00 0. -1.
        -11    1    3    3    0    0 -0.14005264487E+03  0.17034782367E+03 -0.23020648404E+03  0.31879170262E+03  0.00000000000E+00 0.  1.
          4    1    6    6  502    0  0.33125904909E+03 -0.35310149359E+03  0.14587116446E+03  0.50565958807E+03  0.00000000000E+00 0. -1.
          1    1    5    5  503    0 -0.68178579561E+02  0.54383317483E+02 -0.43840285242E+03  0.44699320458E+03  0.00000000000E+00 0. -1.
         -2    1    5    5    0  503  0.74815987627E+01  0.86112583215E+01 -0.59447934340E+01  0.12863462166E+02  0.00000000000E+00 0.  1.
         -3    1    6    6    0  502  0.77504355435E+02 -0.34897329163E+02  0.28853227594E+02  0.89762227226E+02  0.00000000000E+00 0.  1.
<mgrwt>
<rscale>  0 0.16183128E+04</rscale>
<asrwt>0</asrwt>
<pdfrwt beam="1">  1        4 0.73112037E-01 0.16183128E+04</pdfrwt>
<pdfrwt beam="2">  1       -4 0.21195778E+00 0.16183128E+04</pdfrwt>
<totfact> 0.35792164E-01</totfact>
</mgrwt>
</event>
<event>
12    1  0.2083715E-007  0.1841280E+04  0.7818608E-02  0.8684650E-01
         -2   -1    0    0    0  501 -0.00000000000E+00  0.00000000000E+00  0.49003114398E+03  0.49003114398E+03  0.00000000000E+00 0. -1.
          2   -1    0    0  501    0  0.00000000000E+00 -0.00000000000E+00 -0.17296416116E+04  0.17296416116E+04  0.00000000000E+00 0.  1.
         23    2    1    2    0    0  0.56988277710E+03  0.23109972330E+03 -0.86811470117E+03  0.10676613105E+04  0.90022651788E+02 0.  0.
        254    2    1    2    0    0 -0.56988277710E+03 -0.23109972330E+03 -0.37149576650E+03  0.11520114451E+04  0.90052640350E+03 0.  0.
        -24    2    4    4    0    0 -0.10805647630E+03  0.10320717449E+03  0.25188158810E+03  0.30271526349E+03  0.76578543920E+02 0.  0.
         24    2    4    4    0    0 -0.46182630080E+03 -0.33430689779E+03 -0.62337735460E+03  0.84929618163E+03  0.87521676624E+02 0.  0.
         11    1    3    3    0    0  0.36015804884E+03  0.11280953317E+03 -0.58269205801E+03  0.69424048095E+03  0.00000000000E+00 0.  1.
        -11    1    3    3    0    0  0.20972472827E+03  0.11829019013E+03 -0.28542264316E+03  0.37342082957E+03  0.00000000000E+00 0. -1.
          2    1    6    6  502    0 -0.12630504678E+03 -0.75229890834E+02 -0.21668582467E+03  0.26184966666E+03  0.00000000000E+00 0. -1.
          1    1    5    5  503    0 -0.79424982406E+02  0.24984580100E+02  0.14503685859E+03  0.16723709942E+03  0.00000000000E+00 0. -1.
         -2    1    5    5    0  503 -0.28631493898E+02  0.78222594385E+02  0.10684472951E+03  0.13547816407E+03  0.00000000000E+00 0.  1.
         -1    1    6    6    0  502 -0.33552125402E+03 -0.25907700695E+03 -0.40669152993E+03  0.58744651497E+03  0.00000000000E+00 0.  1.
<mgrwt>
<rscale>  0 0.18412803E+04</rscale>
<asrwt>0</asrwt>
<pdfrwt beam="1">  1        2 0.26609871E+00 0.18412803E+04</pdfrwt>
<pdfrwt beam="2">  1       -2 0.75389407E-01 0.18412803E+04</pdfrwt>
<totfact> 0.14022534E+01</totfact>
</mgrwt>
</event>
<event>
12    1  0.2083715E-007  0.1937737E+04  0.7818608E-02  0.8636297E-01
         -3   -1    0    0    0  501 -0.00000000000E+00  0.00000000000E+00  0.18431101836E+04  0.18431101836E+04  0.00000000000E+00 0.  1.
          3   -1    0    0  501    0  0.00000000000E+00 -0.00000000000E+00 -0.50930557288E+03  0.50930557288E+03  0.00000000000E+00 0. -1.
         23    2    1    2    0    0 -0.40925480804E+03  0.17402606601E+03 -0.21886441824E+03  0.50391729376E+03  0.90864931778E+02 0.  0.
        254    2    1    2    0    0  0.40925480804E+03 -0.17402606601E+03  0.15526690290E+04  0.18484984627E+04  0.89910560203E+03 0.  0.
        -24    2    4    4    0    0  0.23307929882E+03  0.31730984464E+03  0.34092320344E+03  0.52673800792E+03  0.78821325136E+02 0.  0.
         24    2    4    4    0    0  0.17617550922E+03 -0.49133591065E+03  0.12117458255E+04  0.13217604548E+04  0.79208377378E+02 0.  0.
         13    1    3    3    0    0 -0.42517469529E+02  0.37734376100E+02 -0.26602680188E+01  0.56909536817E+02  0.00000000000E+00 0.  1.
        -13    1    3    3    0    0 -0.36673733851E+03  0.13629168991E+03 -0.21620415023E+03  0.44700775695E+03  0.00000000000E+00 0. -1.
          4    1    6    6  502    0  0.72793373083E+02 -0.22637088256E+03  0.45616531107E+03  0.51442146404E+03  0.00000000000E+00 0. -1.
          3    1    5    5  503    0  0.12157273155E+03  0.17470185826E+03  0.23474997083E+03  0.31687255662E+03  0.00000000000E+00 0. -1.
         -4    1    5    5    0  503  0.11150656727E+03  0.14260798638E+03  0.10617323261E+03  0.20986545130E+03  0.00000000000E+00 0.  1.
         -3    1    6    6    0  502  0.10338213614E+03 -0.26496502809E+03  0.75558051444E+03  0.80733899075E+03  0.00000000000E+00 0.  1.
<mgrwt>
<rscale>  0 0.19377371E+04</rscale>
<asrwt>0</asrwt>
<pdfrwt beam="1">  1        3 0.78354705E-01 0.19377371E+04</pdfrwt>
<pdfrwt beam="2">  1       -3 0.28355541E+00 0.19377371E+04</pdfrwt>
<totfact> 0.17505642E-01</totfact>
</mgrwt>
</event>
<event>
12    1  0.2083715E-007  0.2009423E+04  0.7818608E-02  0.8602228E-01
         -2   -1    0    0    0  501 -0.00000000000E+00  0.00000000000E+00  0.93449525189E+03  0.93449525189E+03  0.00000000000E+00 0.  1.
          2   -1    0    0  501    0  0.00000000000E+00 -0.00000000000E+00 -0.10802041621E+04  0.10802041621E+04  0.00000000000E+00 0. -1.
         23    2    1    2    0    0 -0.38149609019E+03 -0.69688036959E+03  0.33478609859E+02  0.80098081953E+03  0.96270138612E+02 0.  0.
        254    2    1    2    0    0  0.38149609019E+03  0.69688036959E+03 -0.17918752007E+03  0.12137185945E+04  0.89990174065E+03 0.  0.
        -24    2    4    4    0    0  0.35319506378E+03  0.57212613055E+03 -0.51113073879E+03  0.84796283473E+03  0.75572975447E+02 0.  0.
         24    2    4    4    0    0  0.28301026412E+02  0.12475423904E+03  0.33194321871E+03  0.36575575972E+03  0.85008276463E+02 0.  0.
         13    1    3    3    0    0 -0.16092425320E+03 -0.28759720080E+03  0.61312348452E+02  0.33521331902E+03  0.00000000000E+00 0.  1.
        -13    1    3    3    0    0 -0.22057183699E+03 -0.40928316879E+03 -0.27833738593E+02  0.46576750051E+03  0.00000000000E+00 0. -1.
          4    1    6    6  502    0 -0.29101441815E+02  0.26351661022E+02  0.73803037104E+02  0.83595408009E+02  0.00000000000E+00 0. -1.
          1    1    5    5  503    0  0.14791597222E+03  0.17533800097E+03 -0.15873881967E+03  0.27896337088E+03  0.00000000000E+00 0. -1.
         -2    1    5    5    0  503  0.20527909156E+03  0.39678812958E+03 -0.35239191912E+03  0.56899946385E+03  0.00000000000E+00 0.  1.
         -3    1    6    6    0  502  0.57402468227E+02  0.98402578016E+02  0.25814018161E+03  0.28216035172E+03  0.00000000000E+00 0.  1.
<mgrwt>
<rscale>  0 0.20094235E+04</rscale>
<asrwt>0</asrwt>
<pdfrwt beam="1">  1        2 0.16618526E+00 0.20094235E+04</pdfrwt>
<pdfrwt beam="2">  1       -2 0.14376850E+00 0.20094235E+04</pdfrwt>
<totfact> 0.69717598E+00</totfact>
</mgrwt>
</event>
<event>
12    1  0.2083715E-007  0.2448579E+04  0.7818608E-02  0.8421537E-01
          2   -1    0    0  501    0  0.00000000000E+00  0.00000000000E+00  0.16461329218E+04  0.16461329218E+04  0.00000000000E+00 0. -1.
         -2   -1    0    0    0  501 -0.00000000000E+00 -0.00000000000E+00 -0.91054901596E+03  0.91054901596E+03  0.00000000000E+00 0.  1.
         23    2    1    2    0    0 -0.88760381162E+03  0.52232515662E+03  0.70637847222E+02  0.10364207550E+04  0.92272315508E+02 0.  0.
        254    2    1    2    0    0  0.88760381162E+03 -0.52232515662E+03  0.66494605862E+03  0.15202611828E+04  0.89909771849E+03 0.  0.
        -24    2    4    4    0    0  0.14040042933E+02  0.82951993292E+02  0.40772115021E+03  0.42393497690E+03  0.80038567675E+02 0.  0.
         24    2    4    4    0    0  0.87356376869E+03 -0.60527714991E+03  0.25722490841E+03  0.10963262059E+04  0.79324712788E+02 0.  0.
         13    1    3    3    0    0 -0.56480462611E+03  0.28844076194E+03  0.67581082718E+02  0.63778487091E+03  0.00000000000E+00 0.  1.
        -13    1    3    3    0    0 -0.32279918551E+03  0.23388439468E+03  0.30567645044E+01  0.39863588405E+03  0.00000000000E+00 0. -1.
          2    1    6    6  502    0  0.84659317855E+03 -0.56933811489E+03  0.23907754676E+03  0.10478663905E+04  0.00000000000E+00 0. -1.
          1    1    5    5  503    0  0.37130567129E+02  0.48530780900E+02  0.33233067798E+03  0.33790175383E+03  0.00000000000E+00 0. -1.
         -2    1    5    5    0  503 -0.23090524196E+02  0.34421212392E+02  0.75390472224E+02  0.86033223073E+02  0.00000000000E+00 0.  1.
         -3    1    6    6    0  502  0.26970590140E+02 -0.35939035019E+02  0.18147361655E+02  0.48459815370E+02  0.00000000000E+00 0.  1.
<mgrwt>
<rscale>  0 0.24485789E+04</rscale>
<asrwt>0</asrwt>
<pdfrwt beam="1">  1        2 0.25325122E+00 0.24485789E+04</pdfrwt>
<pdfrwt beam="2">  1       -2 0.14008446E+00 0.24485789E+04</pdfrwt>
<totfact> 0.33758034E+00</totfact>
</mgrwt>
</event>
<event>
12    1  0.2083715E-007  0.1266081E+04  0.7818608E-02  0.9056904E-01
         -1   -1    0    0    0  501 -0.00000000000E+00  0.00000000000E+00  0.43075580833E+03  0.43075580833E+03  0.00000000000E+00 0.  1.
          1   -1    0    0  501    0  0.00000000000E+00 -0.00000000000E+00 -0.93031915662E+03  0.93031915662E+03  0.00000000000E+00 0. -1.
         23    2    1    2    0    0  0.21794020990E+02 -0.21874438013E+03  0.99982361933E+02  0.25773971866E+03  0.90051133729E+02 0.  0.
        254    2    1    2    0    0 -0.21794020990E+02  0.21874438013E+03 -0.59954571022E+03  0.11033352463E+04  0.89976081482E+03 0.  0.
        -24    2    4    4    0    0 -0.36015995089E+00  0.45387733404E+03 -0.69925981133E+01  0.46074938383E+03  0.78970464086E+02 0.  0.
         24    2    4    4    0    0 -0.21433861039E+02 -0.23513295391E+03 -0.59255311211E+03  0.64258586247E+03  0.77784854301E+02 0.  0.
         13    1    3    3    0    0  0.98675303420E+01 -0.48267355160E+02  0.67853149083E+02  0.83851986081E+02  0.00000000000E+00 0.  1.
        -13    1    3    3    0    0  0.11926490648E+02 -0.17047702497E+03  0.32129212850E+02  0.17388773257E+03  0.00000000000E+00 0. -1.
          4    1    6    6  502    0 -0.43680209957E+02 -0.74089732006E+02 -0.20214473568E+03  0.21968100349E+03  0.00000000000E+00 0. -1.
          1    1    5    5  503    0  0.38640528722E+02  0.22044146729E+03 -0.10554429834E+02  0.22405117038E+03  0.00000000000E+00 0. -1.
         -2    1    5    5    0  503 -0.39000688673E+02  0.23343586675E+03  0.35618317203E+01  0.23669821345E+03  0.00000000000E+00 0.  1.
         -3    1    6    6    0  502  0.22246348918E+02 -0.16104322191E+03 -0.39040837643E+03  0.42290485898E+03  0.00000000000E+00 0.  1.
<mgrwt>
<rscale>  0 0.12660812E+04</rscale>
<asrwt>0</asrwt>
<pdfrwt beam="1">  1        1 0.14312602E+00 0.12660812E+04</pdfrwt>
<pdfrwt beam="2">  1       -1 0.66270125E-01 0.12660812E+04</pdfrwt>
<totfact> 0.39077253E+01</totfact>
</mgrwt>
</event>
<event>
12    1  0.2083715E-007  0.1593247E+04  0.7818608E-02  0.8824707E-01
          2   -1    0    0  501    0  0.00000000000E+00  0.00000000000E+00  0.21932815666E+04  0.21932815666E+04  0.00000000000E+00 0. -1.
         -2   -1    0    0    0  501 -0.00000000000E+00 -0.00000000000E+00 -0.28934238688E+03  0.28934238688E+03  0.00000000000E+00 0.  1.
         23    2    1    2    0    0 -0.35163661624E+03  0.32085046620E+03  0.10413999381E+04  0.11485160214E+04  0.89341415988E+02 0.  0.
        254    2    1    2    0    0  0.35163661624E+03 -0.32085046620E+03  0.86253924154E+03  0.13341079321E+04  0.89959807674E+03 0.  0.
        -24    2    4    4    0    0  0.22963159055E+03  0.66344431609E+02  0.88409847020E+03  0.91939510410E+03  0.80777481083E+02 0.  0.
         24    2    4    4    0    0  0.12200502569E+03 -0.38719489781E+03 -0.21559228661E+02  0.41471282797E+03  0.81956172185E+02 0.  0.
         13    1    3    3    0    0 -0.15543443389E+03  0.19309826120E+03  0.59150039393E+03  0.64134196629E+03  0.00000000000E+00 0. -1.
        -13    1    3    3    0    0 -0.19620218236E+03  0.12775220500E+03  0.44989954422E+03  0.50717405507E+03  0.00000000000E+00 0.  1.
          4    1    6    6  502    0  0.35268666832E+02 -0.23189838211E+03  0.63980854930E+01  0.23465224053E+03  0.00000000000E+00 0. -1.
          3    1    5    5  503    0  0.21270532883E+03  0.35545214177E+02  0.79145681058E+03  0.82031146657E+03  0.00000000000E+00 0. -1.
         -4    1    5    5    0  503  0.16926261720E+02  0.30799217432E+02  0.92641659614E+02  0.99083637530E+02  0.00000000000E+00 0.  1.
         -3    1    6    6    0  502  0.86736358859E+02 -0.15529651570E+03 -0.27957314154E+02  0.18006058745E+03  0.00000000000E+00 0.  1.
<mgrwt>
<rscale>  0 0.15932474E+04</rscale>
<asrwt>0</asrwt>
<pdfrwt beam="1">  1        2 0.33742792E+00 0.15932474E+04</pdfrwt>
<pdfrwt beam="2">  1       -2 0.44514215E-01 0.15932474E+04</pdfrwt>
<totfact> 0.23936945E+01</totfact>
</mgrwt>
</event>
<event>
12    1  0.2083715E-007  0.1599092E+04  0.7818608E-02  0.8821106E-01
         -2   -1    0    0    0  501 -0.00000000000E+00  0.00000000000E+00  0.31815522839E+03  0.31815522839E+03  0.00000000000E+00 0.  1.
          2   -1    0    0  501    0  0.00000000000E+00 -0.00000000000E+00 -0.20093143866E+04  0.20093143866E+04  0.00000000000E+00 0. -1.
         23    2    1    2    0    0  0.39833496230E+03  0.32059180946E+03 -0.86364135590E+03  0.10073495948E+04  0.86179835372E+02 0.  0.
        254    2    1    2    0    0 -0.39833496230E+03 -0.32059180946E+03 -0.82751780235E+03  0.13201200202E+04  0.89245801253E+03 0.  0.
        -24    2    4    4    0    0  0.20387911752E+03  0.12409602541E+03 -0.91724718059E+02  0.26738494801E+03  0.78196984837E+02 0.  0.
         24    2    4    4    0    0 -0.60221407982E+03 -0.44468783487E+03 -0.73579308429E+03  0.10527350722E+04  0.80315633462E+02 0.  0.
         13    1    3    3    0    0  0.30605763762E+03  0.21449298117E+03 -0.56735287535E+03  0.67938781391E+03  0.00000000000E+00 0.  1.
        -13    1    3    3    0    0  0.92277324671E+02  0.10609882829E+03 -0.29628848055E+03  0.32796178088E+03  0.00000000000E+00 0. -1.
          4    1    6    6  502    0 -0.26202823380E+03 -0.14478304112E+03 -0.28833747193E+03  0.41564338324E+03  0.00000000000E+00 0. -1.
          1    1    5    5  503    0  0.18921637216E+03  0.88124504066E+02 -0.93015443319E+02  0.22851835026E+03  0.00000000000E+00 0. -1.
         -2    1    5    5    0  503  0.14662745363E+02  0.35971521341E+02  0.12907252601E+01  0.38866597753E+02  0.00000000000E+00 0.  1.
         -3    1    6    6    0  502 -0.34018584601E+03 -0.29990479375E+03 -0.44745561235E+03  0.63709168898E+03  0.00000000000E+00 0.  1.
<mgrwt>
<rscale>  0 0.15990921E+04</rscale>
<asrwt>0</asrwt>
<pdfrwt beam="1">  1        2 0.30912528E+00 0.15990921E+04</pdfrwt>
<pdfrwt beam="2">  1       -2 0.48946959E-01 0.15990921E+04</pdfrwt>
<totfact> 0.25027903E+01</totfact>
</mgrwt>
</event>
<event>
12    1  0.2083715E-007  0.1570524E+04  0.7818608E-02  0.8838863E-01
         -2   -1    0    0    0  501 -0.00000000000E+00  0.00000000000E+00  0.24123524310E+03  0.24123524310E+03  0.00000000000E+00 0.  1.
          2   -1    0    0  501    0  0.00000000000E+00 -0.00000000000E+00 -0.25561632529E+04  0.25561632529E+04  0.00000000000E+00 0. -1.
         23    2    1    2    0    0  0.51176397166E+03 -0.99482843030E+02 -0.74653817108E+03  0.91517290956E+03  0.91776983898E+02 0.  0.
        254    2    1    2    0    0 -0.51176397166E+03  0.99482843030E+02 -0.15683898387E+04  0.18822255864E+04  0.90062604521E+03 0.  0.
        -24    2    4    4    0    0 -0.53824321602E+03 -0.98086318159E+02 -0.15726706362E+04  0.16670185747E+04  0.79569546953E+02 0.  0.
         24    2    4    4    0    0  0.26479244363E+02  0.19756916119E+03  0.42807975309E+01  0.21520701177E+03  0.81000054632E+02 0.  0.
         11    1    3    3    0    0  0.53392132611E+02 -0.40250696773E+02 -0.84221459182E+02  0.10753647103E+03  0.00000000000E+00 0. -1.
        -11    1    3    3    0    0  0.45837183905E+03 -0.59232146257E+02 -0.66231671190E+03  0.80763643853E+03  0.00000000000E+00 0.  1.
          2    1    6    6  502    0  0.18471725210E+02  0.15959499392E+02 -0.20322651090E+02  0.31763507369E+02  0.00000000000E+00 0. -1.
          3    1    5    5  503    0 -0.37426028825E+03 -0.74071773274E+02 -0.98107422675E+03  0.10526462033E+04  0.00000000000E+00 0. -1.
         -4    1    5    5    0  503 -0.16398292777E+03 -0.24014544885E+02 -0.59159640947E+03  0.61437237134E+03  0.00000000000E+00 0.  1.
         -1    1    6    6    0  502  0.80075191534E+01  0.18160966180E+03  0.24603448621E+02  0.18344350440E+03  0.00000000000E+00 0.  1.
<mgrwt>
<rscale>  0 0.15705243E+04</rscale>
<asrwt>0</asrwt>
<pdfrwt beam="1">  1        2 0.39325585E+00 0.15705243E+04</pdfrwt>
<pdfrwt beam="2">  1       -2 0.37113117E-01 0.15705243E+04</pdfrwt>
<totfact> 0.21291356E+01</totfact>
</mgrwt>
</event>
<event>
12    1  0.2083715E-007  0.1756885E+04  0.7818608E-02  0.8729570E-01
          1   -1    0    0  501    0  0.00000000000E+00  0.00000000000E+00  0.40539336377E+03  0.40539336377E+03  0.00000000000E+00 0. -1.
         -1   -1    0    0    0  501 -0.00000000000E+00 -0.00000000000E+00 -0.19034878118E+04  0.19034878118E+04  0.00000000000E+00 0.  1.
         23    2    1    2    0    0  0.52133314900E+03 -0.11781852478E+03 -0.10290543792E+04  0.11627909096E+04  0.86373184226E+02 0.  0.
        254    2    1    2    0    0 -0.52133314900E+03  0.11781852478E+03 -0.46904006883E+03  0.11460902660E+04  0.89880746251E+03 0.  0.
        -24    2    4    4    0    0  0.61643466355E+02  0.21302152323E+03 -0.49681677864E+03  0.54964735860E+03  0.78148710673E+02 0.  0.
         24    2    4    4    0    0 -0.58297661535E+03 -0.95202998454E+02  0.27776709809E+02  0.59644290741E+03  0.77764074201E+02 0.  0.
         13    1    3    3    0    0  0.17062409872E+03 -0.78479000753E+02 -0.38595261409E+03  0.42922133794E+03  0.00000000000E+00 0. -1.
        -13    1    3    3    0    0  0.35070905028E+03 -0.39339524024E+02 -0.64310176512E+03  0.73356957162E+03  0.00000000000E+00 0.  1.
          2    1    6    6  502    0 -0.30305167835E+03 -0.24698230150E+02  0.44479658035E+02  0.30729263301E+03  0.00000000000E+00 0. -1.
          1    1    5    5  503    0 -0.99926054106E+01  0.38717519574E+02 -0.45542954993E+02  0.60605768986E+02  0.00000000000E+00 0. -1.
         -2    1    5    5    0  503  0.71636071765E+02  0.17430400366E+03 -0.45127382364E+03  0.48904158962E+03  0.00000000000E+00 0.  1.
         -1    1    6    6    0  502 -0.27992493700E+03 -0.70504768304E+02 -0.16702948226E+02  0.28915027440E+03  0.00000000000E+00 0.  1.
<mgrwt>
<rscale>  0 0.17568851E+04</rscale>
<asrwt>0</asrwt>
<pdfrwt beam="1">  1        1 0.62368210E-01 0.17568851E+04</pdfrwt>
<pdfrwt beam="2">  1       -1 0.29284428E+00 0.17568851E+04</pdfrwt>
<totfact> 0.20532599E+00</totfact>
</mgrwt>
</event>
<event>
12    1  0.2083715E-007  0.2873836E+04  0.7818608E-02  0.8280705E-01
          2   -1    0    0  501    0  0.00000000000E+00  0.00000000000E+00  0.25987972945E+04  0.25987972945E+04  0.00000000000E+00 0. -1.
         -2   -1    0    0    0  501 -0.00000000000E+00 -0.00000000000E+00 -0.79449598163E+03  0.79449598163E+03  0.00000000000E+00 0.  1.
         23    2    1    2    0    0  0.28342129671E+03 -0.11610025600E+04  0.14018408807E+04  0.18443442440E+04  0.90516628714E+02 0.  0.
        254    2    1    2    0    0 -0.28342129671E+03  0.11610025600E+04  0.40246043224E+03  0.15489490321E+04  0.89945212710E+03 0.  0.
        -24    2    4    4    0    0 -0.46021049950E+03  0.45587798801E+03 -0.10189130911E+03  0.66057610754E+03  0.79752813053E+02 0.  0.
         24    2    4    4    0    0  0.17678920278E+03  0.70512457197E+03  0.50435174135E+03  0.88837292460E+03  0.79879220970E+02 0.  0.
         11    1    3    3    0    0  0.11735362473E+03 -0.41788504643E+03  0.44698637731E+03  0.62305425668E+03  0.00000000000E+00 0.  1.
        -11    1    3    3    0    0  0.16606767199E+03 -0.74311751354E+03  0.95485450336E+03  0.12212899873E+04  0.00000000000E+00 0. -1.
          4    1    6    6  502    0  0.14455322473E+03  0.64387624233E+03  0.43490806745E+03  0.79032732292E+03  0.00000000000E+00 0. -1.
          3    1    5    5  503    0 -0.40366805125E+03  0.42355052016E+03 -0.74141790562E+02  0.58977957224E+03  0.00000000000E+00 0. -1.
         -4    1    5    5    0  503 -0.56542448246E+02  0.32327467849E+02 -0.27749518546E+02  0.70796535301E+02  0.00000000000E+00 0.  1.
         -3    1    6    6    0  502  0.32235978051E+02  0.61248329637E+02  0.69443673892E+02  0.98045601675E+02  0.00000000000E+00 0.  1.
<mgrwt>
<rscale>  0 0.28738365E+04</rscale>
<asrwt>0</asrwt>
<pdfrwt beam="1">  1        2 0.39981497E+00 0.28738365E+04</pdfrwt>
<pdfrwt beam="2">  1       -2 0.12223015E+00 0.28738365E+04</pdfrwt>
<totfact> 0.13367363E+00</totfact>
</mgrwt>
</event>
<event>
12    1  0.2083715E-007  0.2185328E+04  0.7818608E-02  0.8524560E-01
          2   -1    0    0  501    0  0.00000000000E+00  0.00000000000E+00  0.24365903658E+04  0.24365903658E+04  0.00000000000E+00 0.  1.
         -2   -1    0    0    0  501 -0.00000000000E+00 -0.00000000000E+00 -0.48999389388E+03  0.48999389388E+03  0.00000000000E+00 0. -1.
         23    2    1    2    0    0 -0.38435147835E+03 -0.75453300044E+03  0.12359333250E+04  0.15009571173E+04  0.91076761554E+02 0.  0.
        254    2    1    2    0    0  0.38435147835E+03  0.75453300044E+03  0.71066314689E+03  0.14256271423E+04  0.90018027804E+03 0.  0.
        -24    2    4    4    0    0  0.12423657547E+03  0.36576093932E+02  0.63621348909E+03  0.65436332169E+03  0.81554985977E+02 0.  0.
         24    2    4    4    0    0  0.26011490288E+03  0.71795690651E+03  0.74449657796E+02  0.77126382065E+03  0.78633626416E+02 0.  0.
         11    1    3    3    0    0 -0.34777709781E+03 -0.72690569809E+03  0.11672802774E+04  0.14184089853E+04  0.00000000000E+00 0.  1.
        -11    1    3    3    0    0 -0.36574380546E+02 -0.27627302342E+02  0.68653047650E+02  0.82548132013E+02  0.00000000000E+00 0. -1.
          4    1    6    6  502    0  0.25886648147E+03  0.66095864270E+03  0.78145197480E+02  0.71413223878E+03  0.00000000000E+00 0. -1.
          1    1    5    5  503    0  0.76111016679E+02  0.25126180965E+02  0.54255283294E+03  0.54844123511E+03  0.00000000000E+00 0. -1.
         -2    1    5    5    0  503  0.48125558791E+02  0.11449912967E+02  0.93660656147E+02  0.10592208658E+03  0.00000000000E+00 0.  1.
         -3    1    6    6    0  502  0.12484214142E+01  0.56998263811E+02 -0.36955396844E+01  0.57131581870E+02  0.00000000000E+00 0.  1.
<mgrwt>
<rscale>  0 0.21853278E+04</rscale>
<asrwt>0</asrwt>
<pdfrwt beam="1">  1        2 0.37486005E+00 0.21853278E+04</pdfrwt>
<pdfrwt beam="2">  1       -2 0.75383678E-01 0.21853278E+04</pdfrwt>
<totfact> 0.54727593E+00</totfact>
</mgrwt>
</event>
<event>
12    1  0.2083715E-007  0.3039826E+04  0.7818608E-02  0.8232449E-01
         -2   -1    0    0    0  501 -0.00000000000E+00  0.00000000000E+00  0.13563989488E+04  0.13563989488E+04  0.00000000000E+00 0.  1.
          2   -1    0    0  501    0  0.00000000000E+00 -0.00000000000E+00 -0.17031388126E+04  0.17031388126E+04  0.00000000000E+00 0. -1.
         23    2    1    2    0    0  0.12922199669E+04  0.49361657511E+03 -0.10397069939E+03  0.13902009115E+04  0.91427031472E+02 0.  0.
        254    2    1    2    0    0 -0.12922199669E+04 -0.49361657511E+03 -0.24276916436E+03  0.16693368499E+04  0.90236294539E+03 0.  0.
        -24    2    4    4    0    0 -0.95627529940E+03 -0.52812062413E+03 -0.53213073271E+03  0.12177113571E+04  0.79271625834E+02 0.  0.
         24    2    4    4    0    0 -0.33594466748E+03  0.34504049024E+02  0.28936156835E+03  0.45162549278E+03  0.78651887999E+02 0.  0.
         13    1    3    3    0    0  0.50340123555E+03  0.15574578477E+03 -0.68019002586E+02  0.53131547892E+03  0.00000000000E+00 0.  1.
        -13    1    3    3    0    0  0.78881873133E+03  0.33787079033E+03 -0.35951696807E+02  0.85888543261E+03  0.00000000000E+00 0. -1.
          4    1    6    6  502    0 -0.64969746380E+02  0.38233735101E+02  0.71691300809E+02  0.10403138496E+03  0.00000000000E+00 0. -1.
          3    1    5    5  503    0 -0.62529018466E+03 -0.31304155256E+03 -0.31160434234E+03  0.76555868151E+03  0.00000000000E+00 0. -1.
         -4    1    5    5    0  503 -0.33098511474E+03 -0.21507907157E+03 -0.22052639037E+03  0.45215267560E+03  0.00000000000E+00 0.  1.
         -3    1    6    6    0  502 -0.27097492110E+03 -0.37296860765E+01  0.21767026754E+03  0.34759410782E+03  0.00000000000E+00 0.  1.
<mgrwt>
<rscale>  0 0.30398261E+04</rscale>
<asrwt>0</asrwt>
<pdfrwt beam="1">  1        2 0.26202136E+00 0.30398261E+04</pdfrwt>
<pdfrwt beam="2">  1       -2 0.20867676E+00 0.30398261E+04</pdfrwt>
<totfact> 0.97332811E-01</totfact>
</mgrwt>
</event>
<event>
12    1  0.2083715E-007  0.2517239E+04  0.7818608E-02  0.8396870E-01
          2   -1    0    0  501    0  0.00000000000E+00  0.00000000000E+00  0.56796801543E+04  0.56796801543E+04  0.00000000000E+00 0. -1.
         -2   -1    0    0    0  501 -0.00000000000E+00 -0.00000000000E+00 -0.27891065162E+03  0.27891065162E+03  0.00000000000E+00 0.  1.
         23    2    1    2    0    0  0.10812095099E+04  0.17282412212E+01  0.19640201100E+04  0.22439376840E+04  0.94150655705E+02 0.  0.
        254    2    1    2    0    0 -0.10812095099E+04 -0.17282412212E+01  0.34367493927E+04  0.37146531220E+04  0.90464602880E+03 0.  0.
        -24    2    4    4    0    0 -0.86193644950E+03  0.28332188745E+03  0.15983525540E+04  0.18396605933E+04  0.80090427187E+02 0.  0.
         24    2    4    4    0    0 -0.21927306036E+03 -0.28505012867E+03  0.18383968387E+04  0.18749925287E+04  0.80992564456E+02 0.  0.
         11    1    3    3    0    0  0.83185505516E+03 -0.37908313223E+02  0.15197791761E+04  0.17329594966E+04  0.00000000000E+00 0. -1.
        -11    1    3    3    0    0  0.24935445471E+03  0.39636554444E+02  0.44424093395E+03  0.51097818733E+03  0.00000000000E+00 0.  1.
          4    1    6    6  502    0 -0.53272461526E+01 -0.21331779616E+01  0.50377998142E+01  0.76360609449E+01  0.00000000000E+00 0. -1.
          3    1    5    5  503    0 -0.14116536199E+03  0.24578809562E+02  0.29549739038E+03  0.32840597593E+03  0.00000000000E+00 0. -1.
         -4    1    5    5    0  503 -0.72077108752E+03  0.25874307789E+03  0.13028551637E+04  0.15112546173E+04  0.00000000000E+00 0.  1.
         -3    1    6    6    0  502 -0.21394581421E+03 -0.28291695071E+03  0.18333590388E+04  0.18673564678E+04  0.00000000000E+00 0.  1.
<mgrwt>
<rscale>  0 0.25172392E+04</rscale>
<asrwt>0</asrwt>
<pdfrwt beam="1">  1        2 0.87379686E+00 0.25172392E+04</pdfrwt>
<pdfrwt beam="2">  1       -2 0.42909335E-01 0.25172392E+04</pdfrwt>
<totfact> 0.12116727E-02</totfact>
</mgrwt>
</event>
<event>
12    1  0.2083715E-007  0.3306143E+04  0.7818608E-02  0.8161334E-01
          2   -1    0    0  501    0  0.00000000000E+00  0.00000000000E+00  0.21645797409E+04  0.21645797409E+04  0.00000000000E+00 0.  1.
         -2   -1    0    0    0  501 -0.00000000000E+00 -0.00000000000E+00 -0.12624367210E+04  0.12624367210E+04  0.00000000000E+00 0. -1.
         23    2    1    2    0    0  0.12987886122E+03 -0.11289460111E+04  0.14787776842E+04  0.18672068736E+04  0.91051935342E+02 0.  0.
        254    2    1    2    0    0 -0.12987886122E+03  0.11289460111E+04 -0.57663466437E+03  0.15598095883E+04  0.89950586491E+03 0.  0.
        -24    2    4    4    0    0  0.31292236844E+03  0.12385462791E+03 -0.17661257409E+03  0.38813569966E+03  0.78720661179E+02 0.  0.
         24    2    4    4    0    0 -0.44280122966E+03  0.10050913832E+04 -0.40002209028E+03  0.11716738887E+04  0.80749062288E+02 0.  0.
         13    1    3    3    0    0  0.61832995076E+02 -0.28440725738E+03  0.33459502025E+03  0.44346886577E+03  0.00000000000E+00 0. -1.
        -13    1    3    3    0    0  0.68045866141E+02 -0.84453875374E+03  0.11441826640E+04  0.14237380078E+04  0.00000000000E+00 0.  1.
          4    1    6    6  502    0 -0.29079259857E+02  0.73586614641E+02 -0.51847930889E+02  0.94598103287E+02  0.00000000000E+00 0. -1.
          1    1    5    5  503    0  0.17970457912E+02 -0.91232901098E+01 -0.21034486093E+02  0.29131106831E+02  0.00000000000E+00 0. -1.
         -2    1    5    5    0  503  0.29495191053E+03  0.13297791802E+03 -0.15557808800E+03  0.35900459283E+03  0.00000000000E+00 0.  1.
         -3    1    6    6    0  502 -0.41372196980E+03  0.93150476857E+03 -0.34817415939E+03  0.10770757854E+04  0.00000000000E+00 0.  1.
<mgrwt>
<rscale>  0 0.33061427E+04</rscale>
<asrwt>0</asrwt>
<pdfrwt beam="1">  1        2 0.33301227E+00 0.33061427E+04</pdfrwt>
<pdfrwt beam="2">  1       -2 0.19422103E+00 0.33061427E+04</pdfrwt>
<totfact> 0.65549304E-01</totfact>
</mgrwt>
</event>
<event>
12    1  0.2083715E-007  0.2009369E+04  0.7818608E-02  0.8602253E-01
         -2   -1    0    0    0  501 -0.00000000000E+00  0.00000000000E+00  0.44619111645E+03  0.44619111645E+03  0.00000000000E+00 0.  1.
          2   -1    0    0  501    0  0.00000000000E+00 -0.00000000000E+00 -0.22622383628E+04  0.22622383628E+04  0.00000000000E+00 0. -1.
         23    2    1    2    0    0  0.31014135360E+03  0.47401963387E+03 -0.14878029933E+04  0.15945921415E+04  0.91016912777E+02 0.  0.
        254    2    1    2    0    0 -0.31014135360E+03 -0.47401963387E+03 -0.32824425303E+03  0.11138373377E+04  0.90111433944E+03 0.  0.
        -24    2    4    4    0    0  0.13000932083E+01 -0.57863737404E+03  0.72657782272E+02  0.58899164682E+03  0.82517306219E+02 0.  0.
         24    2    4    4    0    0 -0.31144144681E+03  0.10461774017E+03 -0.40090203530E+03  0.52484569090E+03  0.82461572846E+02 0.  0.
         13    1    3    3    0    0  0.25745676649E+03  0.37137525662E+03 -0.12719821422E+04  0.13498674520E+04  0.00000000000E+00 0. -1.
        -13    1    3    3    0    0  0.52684587106E+02  0.10264437726E+03 -0.21582085113E+03  0.24472468957E+03  0.00000000000E+00 0.  1.
          4    1    6    6  502    0 -0.12516995237E+03  0.67383153275E+02 -0.12159645749E+03  0.18706604395E+03  0.00000000000E+00 0. -1.
          3    1    5    5  503    0  0.14928864655E+02 -0.10013182413E+03 -0.14965183184E+02  0.10233870192E+03  0.00000000000E+00 0. -1.
         -4    1    5    5    0  503 -0.13628771446E+02 -0.47850554991E+03  0.87622965456E+02  0.48665294490E+03  0.00000000000E+00 0.  1.
         -3    1    6    6    0  502 -0.18627149444E+03  0.37234586891E+02 -0.27930557781E+03  0.33777964695E+03  0.00000000000E+00 0.  1.
<mgrwt>
<rscale>  0 0.20093687E+04</rscale>
<asrwt>0</asrwt>
<pdfrwt beam="1">  1        2 0.34803667E+00 0.20093687E+04</pdfrwt>
<pdfrwt beam="2">  1       -2 0.68644787E-01 0.20093687E+04</pdfrwt>
<totfact> 0.85780129E+00</totfact>
</mgrwt>
</event>
<event>
12    1  0.2083715E-007  0.3880234E+04  0.7818608E-02  0.8029153E-01
          1   -1    0    0  501    0  0.00000000000E+00  0.00000000000E+00  0.24720592472E+04  0.24720592472E+04  0.00000000000E+00 0. -1.
         -1   -1    0    0    0  501 -0.00000000000E+00 -0.00000000000E+00 -0.15226389691E+04  0.15226389691E+04  0.00000000000E+00 0.  1.
         23    2    1    2    0    0 -0.13885165363E+04 -0.11047473237E+04  0.92756800595E+03  0.20042273279E+04  0.89999753848E+02 0.  0.
        254    2    1    2    0    0  0.13885165363E+04  0.11047473237E+04  0.21852272147E+02  0.19904708883E+04  0.90169396956E+03 0.  0.
        -24    2    4    4    0    0  0.43044483998E+03  0.90397436637E+03  0.64976083965E+02  0.10065574199E+04  0.80520386724E+02 0.  0.
         24    2    4    4    0    0  0.95807169630E+03  0.20077295730E+03 -0.43123811817E+02  0.98391346844E+03  0.89525943746E+02 0.  0.
         11    1    3    3    0    0 -0.83486047770E+03 -0.67465474341E+03  0.60962756665E+03  0.12344216500E+04  0.00000000000E+00 0. -1.
        -11    1    3    3    0    0 -0.55365605858E+03 -0.43009258026E+03  0.31794043930E+03  0.76980567791E+03  0.00000000000E+00 0.  1.
          2    1    6    6  502    0  0.16845688836E+03  0.41368346259E+02 -0.41545146629E+02  0.17836777320E+03  0.00000000000E+00 0. -1.
          3    1    5    5  503    0  0.38568424339E+02  0.40005907793E+02 -0.99391148068E+00  0.55578627856E+02  0.00000000000E+00 0. -1.
         -4    1    5    5    0  503  0.39187641564E+03  0.86396845858E+03  0.65969995445E+02  0.95097879201E+03  0.00000000000E+00 0.  1.
         -1    1    6    6    0  502  0.78961480794E+03  0.15940461104E+03 -0.15786651880E+01  0.80554569525E+03  0.00000000000E+00 0.  1.
<mgrwt>
<rscale>  0 0.38802339E+04</rscale>
<asrwt>0</asrwt>
<pdfrwt beam="1">  1        1 0.38031681E+00 0.38802339E+04</pdfrwt>
<pdfrwt beam="2">  1       -1 0.23425215E+00 0.38802339E+04</pdfrwt>
<totfact> 0.99046971E-02</totfact>
</mgrwt>
</event>
<event>
12    1  0.2083715E-007  0.2272395E+04  0.7818608E-02  0.8488886E-01
          1   -1    0    0  501    0  0.00000000000E+00  0.00000000000E+00  0.98848119718E+03  0.98848119718E+03  0.00000000000E+00 0. -1.
         -1   -1    0    0    0  501 -0.00000000000E+00 -0.00000000000E+00 -0.13059878119E+04  0.13059878119E+04  0.00000000000E+00 0.  1.
         23    2    1    2    0    0 -0.49616382520E+03  0.37740556345E+03 -0.86759524775E+03  0.10716528168E+04  0.84289649728E+02 0.  0.
        254    2    1    2    0    0  0.49616382520E+03 -0.37740556345E+03  0.55008863303E+03  0.12228161923E+04  0.89669863120E+03 0.  0.
        -24    2    4    4    0    0  0.11020006728E+03  0.28492747410E+03  0.10456239239E+03  0.33265816206E+03  0.80002740924E+02 0.  0.
         24    2    4    4    0    0  0.38596375792E+03 -0.66233303755E+03  0.44552624064E+03  0.89015803024E+03  0.78959563361E+02 0.  0.
         13    1    3    3    0    0 -0.63069040701E+02  0.86306464771E+02 -0.13469877577E+03  0.17196008243E+03  0.00000000000E+00 0. -1.
        -13    1    3    3    0    0 -0.43309478450E+03  0.29109909868E+03 -0.73289647198E+03  0.89969273436E+03  0.00000000000E+00 0.  1.
          4    1    6    6  502    0  0.80185201020E+02 -0.20457833207E+03  0.14045854145E+03  0.26078834767E+03  0.00000000000E+00 0. -1.
          1    1    5    5  503    0  0.48531540572E+01  0.66557206396E+02  0.51928637407E+02  0.84557662045E+02  0.00000000000E+00 0. -1.
         -2    1    5    5    0  503  0.10534691323E+03  0.21837026771E+03  0.52633754988E+02  0.24810050002E+03  0.00000000000E+00 0.  1.
         -3    1    6    6    0  502  0.30577855690E+03 -0.45775470548E+03  0.30506769919E+03  0.62936968257E+03  0.00000000000E+00 0.  1.
<mgrwt>
<rscale>  0 0.22723947E+04</rscale>
<asrwt>0</asrwt>
<pdfrwt beam="1">  1        1 0.15207403E+00 0.22723947E+04</pdfrwt>
<pdfrwt beam="2">  1       -1 0.20092120E+00 0.22723947E+04</pdfrwt>
<totfact> 0.20760331E+00</totfact>
</mgrwt>
</event>
<event>
12    1  0.2083715E-007  0.1175452E+04  0.7818608E-02  0.9134618E-01
         -2   -1    0    0    0  501 -0.00000000000E+00  0.00000000000E+00  0.36862198312E+03  0.36862198312E+03  0.00000000000E+00 0.  1.
          2   -1    0    0  501    0  0.00000000000E+00 -0.00000000000E+00 -0.93706331854E+03  0.93706331854E+03  0.00000000000E+00 0. -1.
         23    2    1    2    0    0  0.15458324691E+03  0.10312382755E+03 -0.26590073260E+03  0.33680915701E+03  0.90590863869E+02 0.  0.
        254    2    1    2    0    0 -0.15458324691E+03 -0.10312382755E+03 -0.30254060283E+03  0.96887614465E+03  0.90147637977E+03 0.  0.
        -24    2    4    4    0    0  0.13655515579E+03 -0.27154775618E+03 -0.48499217456E+03  0.57770872046E+03  0.78386617807E+02 0.  0.
         24    2    4    4    0    0 -0.29113840269E+03  0.16842392863E+03  0.18245157173E+03  0.39116742419E+03  0.81210765695E+02 0.  0.
         13    1    3    3    0    0  0.80023417311E+02  0.72038331298E+00 -0.10008079148E+03  0.12814222994E+03  0.00000000000E+00 0.  1.
        -13    1    3    3    0    0  0.74559829597E+02  0.10240344424E+03 -0.16581994112E+03  0.20866692707E+03  0.00000000000E+00 0. -1.
          4    1    6    6  502    0 -0.77883252936E+02  0.87610773802E+02  0.74120684135E+02  0.13869147267E+03  0.00000000000E+00 0. -1.
          1    1    5    5  503    0  0.20807154975E+02 -0.65947787872E+02 -0.59721321388E+02  0.91371136863E+02  0.00000000000E+00 0. -1.
         -2    1    5    5    0  503  0.11574800081E+03 -0.20559996831E+03 -0.42527085317E+03  0.48633758359E+03  0.00000000000E+00 0.  1.
         -3    1    6    6    0  502 -0.21325514976E+03  0.80813154829E+02  0.10833088759E+03  0.25247595153E+03  0.00000000000E+00 0.  1.
<mgrwt>
<rscale>  0 0.11754525E+04</rscale>
<asrwt>0</asrwt>
<pdfrwt beam="1">  1        2 0.14416359E+00 0.11754525E+04</pdfrwt>
<pdfrwt beam="2">  1       -2 0.56711075E-01 0.11754525E+04</pdfrwt>
<totfact> 0.79816623E+01</totfact>
</mgrwt>
</event>
<event>
12    1  0.2083715E-007  0.3281531E+04  0.7818608E-02  0.8167611E-01
          2   -1    0    0  501    0  0.00000000000E+00  0.00000000000E+00  0.31867170513E+04  0.31867170513E+04  0.00000000000E+00 0. -1.
         -2   -1    0    0    0  501 -0.00000000000E+00 -0.00000000000E+00 -0.84479141539E+03  0.84479141539E+03  0.00000000000E+00 0.  1.
         23    2    1    2    0    0 -0.66169287737E+03  0.13093187323E+04  0.61192990906E+03  0.15918792278E+04  0.86419068714E+02 0.  0.
        254    2    1    2    0    0  0.66169287737E+03 -0.13093187323E+04  0.17299957269E+04  0.24396292389E+04  0.89819407794E+03 0.  0.
        -24    2    4    4    0    0  0.76576613422E+03 -0.10507739977E+04  0.17093434750E+04  0.21490772644E+04  0.78448747928E+02 0.  0.
         24    2    4    4    0    0 -0.10407325685E+03 -0.25854473464E+03  0.20652251868E+02  0.29055197458E+03  0.79481518768E+02 0.  0.
         13    1    3    3    0    0 -0.54843938041E+03  0.10255236857E+04  0.46000287053E+03  0.12506347288E+04  0.00000000000E+00 0. -1.
        -13    1    3    3    0    0 -0.11325349696E+03  0.28379504659E+03  0.15192703853E+03  0.34124449897E+03  0.00000000000E+00 0.  1.
          2    1    6    6  502    0 -0.70679522222E+01 -0.53300629916E+02  0.33200806851E+02  0.63191824421E+02  0.00000000000E+00 0. -1.
          1    1    5    5  503    0  0.15952116918E+03 -0.17527671773E+03  0.28534720249E+03  0.37093389864E+03  0.00000000000E+00 0. -1.
         -2    1    5    5    0  503  0.60624496504E+03 -0.87549727997E+03  0.14239962725E+04  0.17781433657E+04  0.00000000000E+00 0.  1.
         -1    1    6    6    0  502 -0.97005304629E+02 -0.20524410472E+03 -0.12548554983E+02  0.22736015016E+03  0.00000000000E+00 0.  1.
<mgrwt>
<rscale>  0 0.32815309E+04</rscale>
<asrwt>0</asrwt>
<pdfrwt beam="1">  1        2 0.49026415E+00 0.32815309E+04</pdfrwt>
<pdfrwt beam="2">  1       -2 0.12996791E+00 0.32815309E+04</pdfrwt>
<totfact> 0.48040714E-01</totfact>
</mgrwt>
</event>
<event>
12    1  0.2241637E-007  0.2875571E+04  0.7818608E-02  0.8280183E-01
          2   -1    0    0  501    0  0.00000000000E+00  0.00000000000E+00  0.29410856087E+04  0.29410856087E+04  0.00000000000E+00 0. -1.
         -2   -1    0    0    0  501 -0.00000000000E+00 -0.00000000000E+00 -0.70287877019E+03  0.70287877019E+03  0.00000000000E+00 0.  1.
         23    2    1    2    0    0  0.10575869666E+04 -0.30799881114E+03  0.18778277688E+04  0.21788890822E+04  0.89258297875E+02 0.  0.
        254    2    1    2    0    0 -0.10575869666E+04  0.30799881114E+03  0.36037906971E+03  0.14650752967E+04  0.89622491130E+03 0.  0.
        -24    2    4    4    0    0 -0.63639888605E+03  0.56514343400E+03  0.10895088572E+02  0.85494535942E+03  0.80138763861E+02 0.  0.
         24    2    4    4    0    0 -0.42118808050E+03 -0.25714462286E+03  0.34948398114E+03  0.61012993729E+03  0.81220262705E+02 0.  0.
         11    1    3    3    0    0  0.23118621505E+03 -0.30264020258E+02  0.38162342276E+03  0.44721294005E+03  0.00000000000E+00 0.  1.
        -11    1    3    3    0    0  0.82640075150E+03 -0.27773479088E+03  0.14962043461E+04  0.17316761422E+04  0.00000000000E+00 0. -1.
          2    1    6    6  502    0 -0.22226633313E+03 -0.13692939211E+03  0.13516878453E+03  0.29397717867E+03  0.00000000000E+00 0. -1.
          1    1    5    5  503    0 -0.11981179355E+03  0.11323112683E+03  0.33474895308E+02  0.16821629699E+03  0.00000000000E+00 0. -1.
         -2    1    5    5    0  503 -0.51658709250E+03  0.45191230717E+03 -0.22579806737E+02  0.68672906243E+03  0.00000000000E+00 0.  1.
         -1    1    6    6    0  502 -0.19892174737E+03 -0.12021523075E+03  0.21431519661E+03  0.31615275861E+03  0.00000000000E+00 0.  1.
<mgrwt>
<rscale>  0 0.28755706E+04</rscale>
<asrwt>0</asrwt>
<pdfrwt beam="1">  1        2 0.45247470E+00 0.28755706E+04</pdfrwt>
<pdfrwt beam="2">  1       -2 0.10813520E+00 0.28755706E+04</pdfrwt>
<totfact> 0.11216162E+00</totfact>
</mgrwt>
</event>
<event>
12    1  0.2083715E-007  0.2129315E+04  0.7818608E-02  0.8548439E-01
         -2   -1    0    0    0  501 -0.00000000000E+00  0.00000000000E+00  0.26394636711E+03  0.26394636711E+03  0.00000000000E+00 0.  1.
          2   -1    0    0  501    0  0.00000000000E+00 -0.00000000000E+00 -0.42944164637E+04  0.42944164637E+04  0.00000000000E+00 0. -1.
         23    2    1    2    0    0 -0.78061427144E+03 -0.71871396916E+02 -0.84383519752E+03  0.11553646764E+04  0.91025031427E+02 0.  0.
        254    2    1    2    0    0  0.78061427144E+03  0.71871396916E+02 -0.31866348991E+04  0.34029981545E+04  0.90068325217E+03 0.  0.
        -24    2    4    4    0    0  0.57941372284E+03  0.44555686431E+03 -0.23361643487E+04  0.24491979207E+04  0.81641955257E+02 0.  0.
         24    2    4    4    0    0  0.20120054861E+03 -0.37368546740E+03 -0.85047055034E+03  0.95380023377E+03  0.79449604361E+02 0.  0.
         13    1    3    3    0    0 -0.39166758512E+03  0.50375364269E+01 -0.44851545383E+03  0.59547878747E+03  0.00000000000E+00 0. -1.
        -13    1    3    3    0    0 -0.38894668633E+03 -0.76908933343E+02 -0.39531974369E+03  0.55988588889E+03  0.00000000000E+00 0.  1.
          2    1    6    6  502    0  0.20695535031E+03 -0.36660585402E+03 -0.81670680959E+03  0.91882554496E+03  0.00000000000E+00 0. -1.
          1    1    5    5  503    0  0.56909736374E+03  0.42065815150E+03 -0.22699531105E+04  0.23777115497E+04  0.00000000000E+00 0. -1.
         -2    1    5    5    0  503  0.10316359099E+02  0.24898712810E+02 -0.66211238246E+02  0.71486370972E+02  0.00000000000E+00 0.  1.
         -1    1    6    6    0  502 -0.57548017045E+01 -0.70796133728E+01 -0.33763740745E+02  0.34974688809E+02  0.00000000000E+00 0.  1.
<mgrwt>
<rscale>  0 0.21293150E+04</rscale>
<asrwt>0</asrwt>
<pdfrwt beam="1">  1        2 0.66067940E+00 0.21293150E+04</pdfrwt>
<pdfrwt beam="2">  1       -2 0.40607137E-01 0.21293150E+04</pdfrwt>
<totfact> 0.10242709E+00</totfact>
</mgrwt>
</event>
<event>
12    1  0.2083715E-007  0.1958308E+04  0.7818608E-02  0.8626365E-01
         -2   -1    0    0    0  501 -0.00000000000E+00  0.00000000000E+00  0.13504371401E+04  0.13504371401E+04  0.00000000000E+00 0.  1.
          2   -1    0    0  501    0  0.00000000000E+00 -0.00000000000E+00 -0.70994954379E+03  0.70994954379E+03  0.00000000000E+00 0. -1.
         23    2    1    2    0    0 -0.31157663053E+03 -0.47995370351E+02 -0.48551839750E+03  0.58660206148E+03  0.94817255599E+02 0.  0.
        254    2    1    2    0    0  0.31157663053E+03  0.47995370351E+02  0.11260059938E+04  0.14737846224E+04  0.89708865941E+03 0.  0.
        -24    2    4    4    0    0 -0.14505532912E+02  0.15022825028E+03 -0.10030471084E+03  0.19787728329E+03  0.79469783952E+02 0.  0.
         24    2    4    4    0    0  0.32608216345E+03 -0.10223287993E+03  0.12263107046E+04  0.12759073391E+04  0.85559655321E+02 0.  0.
         13    1    3    3    0    0 -0.16118481543E+03 -0.14956579258E+02 -0.16570444908E+03  0.23165104885E+03  0.00000000000E+00 0.  1.
        -13    1    3    3    0    0 -0.15039181510E+03 -0.33038791093E+02 -0.31981394842E+03  0.35495101264E+03  0.00000000000E+00 0. -1.
          4    1    6    6  502    0  0.19210649103E+03 -0.79503138221E+02  0.87170114193E+03  0.89615207064E+03  0.00000000000E+00 0. -1.
          3    1    5    5  503    0 -0.88148340285E+01  0.14015745861E+03 -0.11332850706E+03  0.18045820850E+03  0.00000000000E+00 0. -1.
         -4    1    5    5    0  503 -0.56906988839E+01  0.10070791662E+02  0.13023796222E+02  0.17419074790E+02  0.00000000000E+00 0.  1.
         -3    1    6    6    0  502  0.13397567242E+03 -0.22729741704E+02  0.35460956267E+03  0.37975526842E+03  0.00000000000E+00 0.  1.
<mgrwt>
<rscale>  0 0.19583077E+04</rscale>
<asrwt>0</asrwt>
<pdfrwt beam="1">  1        2 0.10922301E+00 0.19583077E+04</pdfrwt>
<pdfrwt beam="2">  1       -2 0.20775956E+00 0.19583077E+04</pdfrwt>
<totfact> 0.44384256E+00</totfact>
</mgrwt>
</event>
<event>
12    1  0.2083715E-007  0.1393694E+04  0.7818608E-02  0.8958396E-01
          2   -1    0    0  501    0  0.00000000000E+00  0.00000000000E+00  0.18524475715E+04  0.18524475715E+04  0.00000000000E+00 0.  1.
         -2   -1    0    0    0  501 -0.00000000000E+00 -0.00000000000E+00 -0.26213735697E+03  0.26213735697E+03  0.00000000000E+00 0. -1.
         23    2    1    2    0    0 -0.15789005599E+03 -0.20568010653E+03  0.92758792928E+03  0.96740077252E+03  0.90616290691E+02 0.  0.
        254    2    1    2    0    0  0.15789005599E+03  0.20568010653E+03  0.66272228522E+03  0.11471841559E+04  0.89977613008E+03 0.  0.
        -24    2    4    4    0    0  0.37698229825E+03  0.44302890541E+03  0.52319389166E+03  0.78642475237E+03  0.79635285135E+02 0.  0.
         24    2    4    4    0    0 -0.21909224226E+03 -0.23734879888E+03  0.13952839356E+03  0.36075940355E+03  0.79644910029E+02 0.  0.
         13    1    3    3    0    0 -0.46185948167E+01 -0.43771400416E+01  0.47166442956E+00  0.63806927804E+01  0.00000000000E+00 0. -1.
        -13    1    3    3    0    0 -0.15327146117E+03 -0.20130296648E+03  0.92711626485E+03  0.96102007974E+03  0.00000000000E+00 0.  1.
          4    1    6    6  502    0 -0.15937714007E+03 -0.13454980586E+03  0.11893433769E+03  0.24010435172E+03  0.00000000000E+00 0. -1.
          1    1    5    5  503    0  0.34437973634E+03  0.37791686324E+03  0.42941749809E+03  0.66769599818E+03  0.00000000000E+00 0. -1.
         -2    1    5    5    0  503  0.32602561914E+02  0.65112042167E+02  0.93776393577E+02  0.11872875419E+03  0.00000000000E+00 0.  1.
         -3    1    6    6    0  502 -0.59715102195E+02 -0.10279899302E+03  0.20594055871E+02  0.12065505183E+03  0.00000000000E+00 0.  1.
<mgrwt>
<rscale>  0 0.13936940E+04</rscale>
<asrwt>0</asrwt>
<pdfrwt beam="1">  1        2 0.28499193E+00 0.13936940E+04</pdfrwt>
<pdfrwt beam="2">  1       -2 0.40328825E-01 0.13936940E+04</pdfrwt>
<totfact> 0.45737935E+01</totfact>
</mgrwt>
</event>
<event>
12    1  0.2269087E-007  0.2611230E+04  0.7818608E-02  0.8364397E-01
          2   -1    0    0  501    0  0.00000000000E+00  0.00000000000E+00  0.26565799176E+04  0.26565799176E+04  0.00000000000E+00 0. -1.
         -2   -1    0    0    0  501 -0.00000000000E+00 -0.00000000000E+00 -0.64166364979E+03  0.64166364979E+03  0.00000000000E+00 0.  1.
         23    2    1    2    0    0  0.93789255939E+03  0.14335790303E+03  0.17081911825E+04  0.19555171768E+04  0.77047851156E+02 0.  0.
        254    2    1    2    0    0 -0.93789255939E+03 -0.14335790303E+03  0.30672508533E+03  0.13427263906E+04  0.89924409413E+03 0.  0.
        -24    2    4    4    0    0 -0.36152794491E+03  0.26695473672E+03 -0.16886221310E+03  0.48638567052E+03  0.78033884096E+02 0.  0.
         24    2    4    4    0    0 -0.57636461448E+03 -0.41031263975E+03  0.47558729843E+03  0.85634072012E+03  0.81138889224E+02 0.  0.
         11    1    3    3    0    0  0.60384282995E+03  0.88009492383E+02  0.11723632382E+04  0.13216684139E+04  0.00000000000E+00 0. -1.
        -11    1    3    3    0    0  0.33404972944E+03  0.55348410648E+02  0.53582794434E+03  0.63384876290E+03  0.00000000000E+00 0.  1.
          2    1    6    6  502    0 -0.30889758238E+03 -0.17015914268E+03  0.23327270371E+03  0.42283330585E+03  0.00000000000E+00 0. -1.
          1    1    5    5  503    0 -0.11767036863E+03  0.95976505951E+02 -0.96428246398E+02  0.17987832569E+03  0.00000000000E+00 0. -1.
         -2    1    5    5    0  503 -0.24385757628E+03  0.17097823077E+03 -0.72433966701E+02  0.30650734483E+03  0.00000000000E+00 0.  1.
         -1    1    6    6    0  502 -0.26746703210E+03 -0.24015349707E+03  0.24231459472E+03  0.43350741427E+03  0.00000000000E+00 0.  1.
<mgrwt>
<rscale>  0 0.26112302E+04</rscale>
<asrwt>0</asrwt>
<pdfrwt beam="1">  1        2 0.40870460E+00 0.26112302E+04</pdfrwt>
<pdfrwt beam="2">  1       -2 0.98717486E-01 0.26112302E+04</pdfrwt>
<totfact> 0.21204102E+00</totfact>
</mgrwt>
</event>
<event>
12    1  0.2083715E-007  0.1168252E+04  0.7818608E-02  0.9141108E-01
          1   -1    0    0  501    0  0.00000000000E+00  0.00000000000E+00  0.12859810277E+04  0.12859810277E+04  0.00000000000E+00 0. -1.
         -1   -1    0    0    0  501 -0.00000000000E+00 -0.00000000000E+00 -0.26532521537E+03  0.26532521537E+03  0.00000000000E+00 0.  1.
         23    2    1    2    0    0  0.10377860391E+03  0.10506742541E+03 -0.12044948920E+02  0.17327650869E+03  0.89835990326E+02 0.  0.
        254    2    1    2    0    0 -0.10377860391E+03 -0.10506742541E+03  0.10327007613E+04  0.13780297344E+04  0.90038098828E+03 0.  0.
        -24    2    4    4    0    0  0.33140643293E+03 -0.27105524270E+03  0.42959496814E+03  0.61176322373E+03  0.80007730078E+02 0.  0.
         24    2    4    4    0    0 -0.43518503684E+03  0.16598781729E+03  0.60310579316E+03  0.76626651069E+03  0.80559269407E+02 0.  0.
         13    1    3    3    0    0  0.81772447148E+02  0.64632167043E+02 -0.48107902566E+02  0.11479730144E+03  0.00000000000E+00 0.  1.
        -13    1    3    3    0    0  0.22006156761E+02  0.40435258368E+02  0.36062953646E+02  0.58479207248E+02  0.00000000000E+00 0. -1.
          2    1    6    6  502    0 -0.14865810292E+02  0.25464141698E+02  0.38718352981E+02  0.48667501329E+02  0.00000000000E+00 0. -1.
          3    1    5    5  503    0  0.17989141298E+01 -0.22678658953E+02  0.19819947308E+02  0.30172636200E+02  0.00000000000E+00 0. -1.
         -4    1    5    5    0  503  0.32960751880E+03 -0.24837658375E+03  0.40977502083E+03  0.58159058753E+03  0.00000000000E+00 0.  1.
         -1    1    6    6    0  502 -0.42031922655E+03  0.14052367560E+03  0.56438744018E+03  0.71759900936E+03  0.00000000000E+00 0.  1.
<mgrwt>
<rscale>  0 0.11682520E+04</rscale>
<asrwt>0</asrwt>
<pdfrwt beam="1">  1        1 0.19784323E+00 0.11682520E+04</pdfrwt>
<pdfrwt beam="2">  1       -1 0.40819265E-01 0.11682520E+04</pdfrwt>
<totfact> 0.53859274E+01</totfact>
</mgrwt>
</event>
<event>
12    1  0.2083715E-007  0.2020465E+04  0.7818608E-02  0.8597112E-01
          1   -1    0    0  501    0  0.00000000000E+00  0.00000000000E+00  0.11314215413E+04  0.11314215413E+04  0.00000000000E+00 0. -1.
         -1   -1    0    0    0  501 -0.00000000000E+00 -0.00000000000E+00 -0.90202445599E+03  0.90202445599E+03  0.00000000000E+00 0.  1.
         23    2    1    2    0    0  0.47543100478E+03  0.56222539537E+03 -0.24009752395E+03  0.77982755820E+03  0.91390174586E+02 0.  0.
        254    2    1    2    0    0 -0.47543100478E+03 -0.56222539537E+03  0.46949460922E+03  0.12536184391E+04  0.89944536641E+03 0.  0.
        -24    2    4    4    0    0 -0.10033373116E+03 -0.53484494845E+03 -0.10754841672E+03  0.56022920764E+03  0.78511952341E+02 0.  0.
         24    2    4    4    0    0 -0.37509727362E+03 -0.27380446918E+02  0.57704302594E+03  0.69338923142E+03  0.79764145534E+02 0.  0.
         11    1    3    3    0    0  0.28300929886E+03  0.27282386986E+03 -0.10426034053E+03  0.40669072502E+03  0.00000000000E+00 0.  1.
        -11    1    3    3    0    0  0.19242170592E+03  0.28940152551E+03 -0.13583718342E+03  0.37313683318E+03  0.00000000000E+00 0. -1.
          4    1    6    6  502    0 -0.31006256812E+02 -0.46266765059E+00  0.16542826582E+02  0.35146367297E+02  0.00000000000E+00 0. -1.
          3    1    5    5  503    0 -0.18784461036E+01 -0.21800897140E+03 -0.40889368839E+02  0.22181835058E+03  0.00000000000E+00 0. -1.
         -4    1    5    5    0  503 -0.98455285061E+02 -0.31683597705E+03 -0.66659047882E+02  0.33841085706E+03  0.00000000000E+00 0.  1.
         -3    1    6    6    0  502 -0.34409101680E+03 -0.26917779268E+02  0.56050019936E+03  0.65824286412E+03  0.00000000000E+00 0.  1.
<mgrwt>
<rscale>  0 0.20204652E+04</rscale>
<asrwt>0</asrwt>
<pdfrwt beam="1">  1        1 0.17406485E+00 0.20204652E+04</pdfrwt>
<pdfrwt beam="2">  1       -1 0.13877299E+00 0.20204652E+04</pdfrwt>
<totfact> 0.47701916E+00</totfact>
</mgrwt>
</event>
<event>
12    1  0.2083715E-007  0.2679180E+04  0.7818608E-02  0.8341792E-01
         -2   -1    0    0    0  501 -0.00000000000E+00  0.00000000000E+00  0.60423097129E+03  0.60423097129E+03  0.00000000000E+00 0.  1.
          2   -1    0    0  501    0  0.00000000000E+00 -0.00000000000E+00 -0.29698920879E+04  0.29698920879E+04  0.00000000000E+00 0. -1.
         23    2    1    2    0    0 -0.10271018570E+04 -0.58205295864E+03 -0.89911182635E+03  0.14867593640E+04  0.91254911517E+02 0.  0.
        254    2    1    2    0    0  0.10271018570E+04  0.58205295864E+03 -0.14665492902E+04  0.20873636951E+04  0.90144134791E+03 0.  0.
        -24    2    4    4    0    0  0.90510634304E+02  0.39719689214E+03 -0.85663384917E+03  0.95185202301E+03  0.79013771710E+02 0.  0.
         24    2    4    4    0    0  0.93659122273E+03  0.18485606650E+03 -0.60991544107E+03  0.11355116721E+04  0.77556614701E+02 0.  0.
         11    1    3    3    0    0 -0.15533018660E+03 -0.56183199230E+02 -0.10693978750E+03  0.19677432987E+03  0.00000000000E+00 0.  1.
        -11    1    3    3    0    0 -0.87177167043E+03 -0.52586975941E+03 -0.79217203884E+03  0.12899850342E+04  0.00000000000E+00 0. -1.
          2    1    6    6  502    0  0.24250698930E+03  0.68893763943E+02 -0.12915611483E+03  0.28326187984E+03  0.00000000000E+00 0. -1.
          1    1    5    5  503    0  0.84890993565E+02  0.25021841138E+03 -0.60864996853E+03  0.66352883764E+03  0.00000000000E+00 0. -1.
         -2    1    5    5    0  503  0.56196407396E+01  0.14697848076E+03 -0.24798388064E+03  0.28832318537E+03  0.00000000000E+00 0.  1.
         -1    1    6    6    0  502  0.69408423343E+03  0.11596230255E+03 -0.48075932624E+03  0.85224979230E+03  0.00000000000E+00 0.  1.
<mgrwt>
<rscale>  0 0.26791796E+04</rscale>
<asrwt>0</asrwt>
<pdfrwt beam="1">  1        2 0.45690648E+00 0.26791796E+04</pdfrwt>
<pdfrwt beam="2">  1       -2 0.92958610E-01 0.26791796E+04</pdfrwt>
<totfact> 0.15662921E+00</totfact>
</mgrwt>
</event>
<event>
12    1  0.2083715E-007  0.1128769E+04  0.7818608E-02  0.9177597E-01
          2   -1    0    0  501    0  0.00000000000E+00  0.00000000000E+00  0.17618766940E+04  0.17618766940E+04  0.00000000000E+00 0. -1.
         -2   -1    0    0    0  501 -0.00000000000E+00 -0.00000000000E+00 -0.18078997750E+03  0.18078997750E+03  0.00000000000E+00 0.  1.
         23    2    1    2    0    0 -0.13086434848E+03 -0.19921557091E+02  0.65584709253E+02  0.17438356930E+03  0.92660288231E+02 0.  0.
        254    2    1    2    0    0  0.13086434848E+03  0.19921557091E+02  0.15155020072E+04  0.17682831022E+04  0.90141913081E+03 0.  0.
        -24    2    4    4    0    0  0.28389499394E+03  0.30534643797E+03  0.13080171177E+04  0.13751641116E+04  0.79591073838E+02 0.  0.
         24    2    4    4    0    0 -0.15303064546E+03 -0.28542488088E+03  0.20748488956E+03  0.39311899055E+03  0.81282349011E+02 0.  0.
         11    1    3    3    0    0 -0.89399597094E+02 -0.43600000957E+02  0.83038288369E+01  0.99810829159E+02  0.00000000000E+00 0.  1.
        -11    1    3    3    0    0 -0.41464751387E+02  0.23678443866E+02  0.57280880417E+02  0.74572740145E+02  0.00000000000E+00 0. -1.
          4    1    6    6  502    0 -0.14501924654E+03 -0.20858712248E+03  0.17903077719E+03  0.31079123010E+03  0.00000000000E+00 0. -1.
          1    1    5    5  503    0  0.18149713182E+03  0.14156049973E+03  0.66104256729E+03  0.69996989915E+03  0.00000000000E+00 0. -1.
         -2    1    5    5    0  503  0.10239786212E+03  0.16378593824E+03  0.64697455038E+03  0.67519421248E+03  0.00000000000E+00 0.  1.
         -3    1    6    6    0  502 -0.80113989217E+01 -0.76837758404E+02  0.28454112373E+02  0.82327760447E+02  0.00000000000E+00 0.  1.
<mgrwt>
<rscale>  0 0.11287686E+04</rscale>
<asrwt>0</asrwt>
<pdfrwt beam="1">  1        2 0.27105794E+00 0.11287686E+04</pdfrwt>
<pdfrwt beam="2">  1       -2 0.27813844E-01 0.11287686E+04</pdfrwt>
<totfact> 0.10599927E+02</totfact>
</mgrwt>
</event>
<event>
12    1  0.2083715E-007  0.1822397E+04  0.7818608E-02  0.8694479E-01
         -2   -1    0    0    0  501 -0.00000000000E+00  0.00000000000E+00  0.16944909617E+04  0.16944909617E+04  0.00000000000E+00 0.  1.
          2   -1    0    0  501    0  0.00000000000E+00 -0.00000000000E+00 -0.48998930250E+03  0.48998930250E+03  0.00000000000E+00 0. -1.
         23    2    1    2    0    0 -0.57256169445E+03 -0.22913682570E+03  0.80933130311E+03  0.10216860793E+04  0.92166738125E+02 0.  0.
        254    2    1    2    0    0  0.57256169445E+03  0.22913682570E+03  0.39517035606E+03  0.11627941849E+04  0.90310582280E+03 0.  0.
        -24    2    4    4    0    0  0.45129157109E+03  0.19385539294E+03  0.67931446377E+03  0.84191775048E+03  0.78187993844E+02 0.  0.
         24    2    4    4    0    0  0.12127012336E+03  0.35281432762E+02 -0.28414410771E+03  0.32087643438E+03  0.79199683552E+02 0.  0.
         13    1    3    3    0    0 -0.28105598310E+03 -0.88495695851E+02  0.45201872911E+03  0.53957843293E+03  0.00000000000E+00 0.  1.
        -13    1    3    3    0    0 -0.29150571135E+03 -0.14064112985E+03  0.35731257400E+03  0.48210764638E+03  0.00000000000E+00 0. -1.
          4    1    6    6  502    0  0.88738577340E+02 -0.31985034565E+01 -0.23177465490E+03  0.24820204710E+03  0.00000000000E+00 0. -1.
          3    1    5    5  503    0  0.32568135479E+03  0.17469220627E+03  0.48538476658E+03  0.61006891694E+03  0.00000000000E+00 0. -1.
         -2    1    5    5    0  503  0.12561021630E+03  0.19163186669E+02  0.19392969719E+03  0.23184883354E+03  0.00000000000E+00 0.  1.
         -3    1    6    6    0  502  0.32531546021E+02  0.38479936219E+02 -0.52369452809E+02  0.72674387272E+02  0.00000000000E+00 0.  1.
<mgrwt>
<rscale>  0 0.18223967E+04</rscale>
<asrwt>0</asrwt>
<pdfrwt beam="1">  1        2 0.75382971E-01 0.18223967E+04</pdfrwt>
<pdfrwt beam="2">  1       -2 0.26069091E+00 0.18223967E+04</pdfrwt>
<totfact> 0.32833680E+00</totfact>
</mgrwt>
</event>
<event>
12    1  0.2083715E-007  0.2557436E+04  0.7818608E-02  0.8382804E-01
         -2   -1    0    0    0  501 -0.00000000000E+00  0.00000000000E+00  0.56350991334E+03  0.56350991334E+03  0.00000000000E+00 0.  1.
          2   -1    0    0  501    0  0.00000000000E+00 -0.00000000000E+00 -0.29016709311E+04  0.29016709311E+04  0.00000000000E+00 0. -1.
         23    2    1    2    0    0 -0.81695720651E+03 -0.68009353038E+03 -0.14995663043E+04  0.18401785618E+04  0.87245349270E+02 0.  0.
        254    2    1    2    0    0  0.81695720651E+03  0.68009353038E+03 -0.83859471342E+03  0.16250022826E+04  0.89857945544E+03 0.  0.
        -24    2    4    4    0    0  0.58440086714E+03  0.88897449158E+03 -0.61300547821E+03  0.12306460168E+04  0.83149758132E+02 0.  0.
         24    2    4    4    0    0  0.23255633937E+03 -0.20888096120E+03 -0.22558923521E+03  0.39435626575E+03  0.83142374014E+02 0.  0.
         13    1    3    3    0    0 -0.40335760346E+03 -0.39245484593E+03 -0.79176159987E+03  0.97139311990E+03  0.00000000000E+00 0.  1.
        -13    1    3    3    0    0 -0.41359960305E+03 -0.28763868445E+03 -0.70780470445E+03  0.86878544191E+03  0.00000000000E+00 0. -1.
          4    1    6    6  502    0  0.12933693922E+03 -0.16412948567E+03 -0.16707787252E+03  0.26754728068E+03  0.00000000000E+00 0. -1.
          1    1    5    5  503    0  0.55967193210E+03  0.84050755384E+03 -0.60036245666E+03  0.11747853842E+04  0.00000000000E+00 0. -1.
         -2    1    5    5    0  503  0.24728935035E+02  0.48466937744E+02 -0.12643021547E+02  0.55860632614E+02  0.00000000000E+00 0.  1.
         -3    1    6    6    0  502  0.10321940015E+03 -0.44751475532E+02 -0.58511362690E+02  0.12680898507E+03  0.00000000000E+00 0.  1.
<mgrwt>
<rscale>  0 0.25574365E+04</rscale>
<asrwt>0</asrwt>
<pdfrwt beam="1">  1        2 0.44641091E+00 0.25574365E+04</pdfrwt>
<pdfrwt beam="2">  1       -2 0.86693833E-01 0.25574365E+04</pdfrwt>
<totfact> 0.20490916E+00</totfact>
</mgrwt>
</event>
<event>
12    1  0.2083715E-007  0.1580677E+04  0.7818608E-02  0.8832507E-01
          2   -1    0    0  501    0  0.00000000000E+00  0.00000000000E+00  0.11220532320E+04  0.11220532320E+04  0.00000000000E+00 0. -1.
         -2   -1    0    0    0  501 -0.00000000000E+00 -0.00000000000E+00 -0.55668943697E+03  0.55668943697E+03  0.00000000000E+00 0.  1.
         23    2    1    2    0    0  0.25505247412E+03  0.42944421768E+03  0.37386357598E+03  0.63042008424E+03  0.90451138869E+02 0.  0.
        254    2    1    2    0    0 -0.25505247412E+03 -0.42944421768E+03  0.19150021902E+03  0.10483225847E+04  0.90157296269E+03 0.  0.
        -24    2    4    4    0    0  0.23436375503E+03  0.10040237036E+03 -0.73123035362E+02  0.27578082805E+03  0.75505504263E+02 0.  0.
         24    2    4    4    0    0 -0.48941622915E+03 -0.52984658804E+03  0.26462325438E+03  0.77254175664E+03  0.80806229877E+02 0.  0.
         13    1    3    3    0    0  0.19420319069E+03  0.32767415008E+03  0.23390774990E+03  0.44698776646E+03  0.00000000000E+00 0.  1.
        -13    1    3    3    0    0  0.60849283423E+02  0.10177006760E+03  0.13995582608E+03  0.18343231778E+03  0.00000000000E+00 0. -1.
          4    1    6    6  502    0 -0.17715905962E+03 -0.14575367280E+03  0.10621271297E+03  0.25280547054E+03  0.00000000000E+00 0. -1.
          1    1    5    5  503    0  0.59157017979E+01  0.63281942198E+01  0.11706823559E+02  0.14563354273E+02  0.00000000000E+00 0. -1.
         -2    1    5    5    0  503  0.22844805324E+03  0.94074176143E+02 -0.84829858921E+02  0.26121747378E+03  0.00000000000E+00 0.  1.
         -3    1    6    6    0  502 -0.31225716953E+03 -0.38409291524E+03  0.15841054141E+03  0.51973628610E+03  0.00000000000E+00 0.  1.
<mgrwt>
<rscale>  0 0.15806773E+04</rscale>
<asrwt>0</asrwt>
<pdfrwt beam="1">  1        2 0.17262357E+00 0.15806773E+04</pdfrwt>
<pdfrwt beam="2">  1       -2 0.85644529E-01 0.15806773E+04</pdfrwt>
<totfact> 0.24020463E+01</totfact>
</mgrwt>
</event>
<event>
12    1  0.2083715E-007  0.1887976E+04  0.7818608E-02  0.8660865E-01
         -2   -1    0    0    0  501 -0.00000000000E+00  0.00000000000E+00  0.24546384927E+03  0.24546384927E+03  0.00000000000E+00 0.  1.
          2   -1    0    0  501    0  0.00000000000E+00 -0.00000000000E+00 -0.36303227505E+04  0.36303227505E+04  0.00000000000E+00 0. -1.
         23    2    1    2    0    0  0.55737081091E+03 -0.40078790674E+03 -0.81340496976E+03  0.10670570214E+04  0.75431260083E+02 0.  0.
        254    2    1    2    0    0 -0.55737081091E+03  0.40078790674E+03 -0.25714539314E+04  0.28087295784E+04  0.89738138814E+03 0.  0.
        -24    2    4    4    0    0 -0.58784489305E+03  0.24939963003E+03 -0.79045934531E+03  0.10192771547E+04  0.79612485526E+02 0.  0.
         24    2    4    4    0    0  0.30474082139E+02  0.15138827671E+03 -0.17809945861E+04  0.17894524236E+04  0.79694294353E+02 0.  0.
         13    1    3    3    0    0  0.22897495292E+03 -0.14247314984E+03 -0.36951625470E+03  0.45746080704E+03  0.00000000000E+00 0. -1.
        -13    1    3    3    0    0  0.32839585799E+03 -0.25831475689E+03 -0.44388871505E+03  0.60959621433E+03  0.00000000000E+00 0.  1.
          2    1    6    6  502    0 -0.15356380659E+02  0.88095538395E+02 -0.70970486177E+03  0.71531645663E+03  0.00000000000E+00 0. -1.
          1    1    5    5  503    0 -0.25985187318E+03  0.74873117089E+02 -0.29840629524E+03  0.40270994114E+03  0.00000000000E+00 0. -1.
         -2    1    5    5    0  503 -0.32799301987E+03  0.17452651294E+03 -0.49205305007E+03  0.61656721360E+03  0.00000000000E+00 0.  1.
         -1    1    6    6    0  502  0.45830462797E+02  0.63292738316E+02 -0.10712897243E+04  0.10741359670E+04  0.00000000000E+00 0.  1.
<mgrwt>
<rscale>  0 0.18879756E+04</rscale>
<asrwt>0</asrwt>
<pdfrwt beam="1">  1        2 0.55851118E+00 0.18879756E+04</pdfrwt>
<pdfrwt beam="2">  1       -2 0.37763670E-01 0.18879756E+04</pdfrwt>
<totfact> 0.41057501E+00</totfact>
</mgrwt>
</event>
<event>
12    1  0.2083715E-007  0.2547379E+04  0.7818608E-02  0.8386298E-01
         -1   -1    0    0    0  501 -0.00000000000E+00  0.00000000000E+00  0.65137272473E+03  0.65137272473E+03  0.00000000000E+00 0.  1.
          1   -1    0    0  501    0  0.00000000000E+00 -0.00000000000E+00 -0.24905634795E+04  0.24905634795E+04  0.00000000000E+00 0. -1.
         23    2    1    2    0    0 -0.51389525646E+03  0.45116520893E+03  0.27637259400E+03  0.74326498321E+03  0.91774964950E+02 0.  0.
        254    2    1    2    0    0  0.51389525646E+03 -0.45116520893E+03 -0.21155633488E+04  0.23986712211E+04  0.90020939981E+03 0.  0.
        -24    2    4    4    0    0  0.28995640433E+03  0.16022205181E+03 -0.13407134355E+04  0.13833768435E+04  0.80455904829E+02 0.  0.
         24    2    4    4    0    0  0.22393885213E+03 -0.61138726074E+03 -0.77484991328E+03  0.10152943776E+04  0.80543732790E+02 0.  0.
         13    1    3    3    0    0 -0.21013460316E+03  0.13456853354E+03  0.75391283991E+02  0.26067045741E+03  0.00000000000E+00 0. -1.
        -13    1    3    3    0    0 -0.30376065331E+03  0.31659667538E+03  0.20098131001E+03  0.48259452580E+03  0.00000000000E+00 0.  1.
          2    1    6    6  502    0  0.18020632972E+03 -0.49513484017E+03 -0.57426125249E+03  0.77936436751E+03  0.00000000000E+00 0. -1.
          1    1    5    5  503    0  0.20620537965E+03  0.10044459916E+03 -0.10564774739E+04  0.10810894639E+04  0.00000000000E+00 0. -1.
         -2    1    5    5    0  503  0.83751024682E+02  0.59777452654E+02 -0.28423596159E+03  0.30228737956E+03  0.00000000000E+00 0.  1.
         -1    1    6    6    0  502  0.43732522419E+02 -0.11625242056E+03 -0.20058866079E+03  0.23593001004E+03  0.00000000000E+00 0.  1.
<mgrwt>
<rscale>  0 0.25473791E+04</rscale>
<asrwt>0</asrwt>
<pdfrwt beam="1">  1        1 0.38316362E+00 0.25473791E+04</pdfrwt>
<pdfrwt beam="2">  1       -1 0.10021119E+00 0.25473791E+04</pdfrwt>
<totfact> 0.11537982E+00</totfact>
</mgrwt>
</event>
<event>
12    1  0.2083715E-007  0.2096005E+04  0.7818608E-02  0.8563005E-01
         -1   -1    0    0    0  501 -0.00000000000E+00  0.00000000000E+00  0.81049034735E+03  0.81049034735E+03  0.00000000000E+00 0.  1.
          1   -1    0    0  501    0  0.00000000000E+00 -0.00000000000E+00 -0.13551175558E+04  0.13551175558E+04  0.00000000000E+00 0. -1.
         23    2    1    2    0    0  0.79648551044E+03 -0.22334564682E+02 -0.53212833362E+03  0.96286671720E+03  0.95203731624E+02 0.  0.
        254    2    1    2    0    0 -0.79648551044E+03  0.22334564682E+02 -0.12498874830E+02  0.12027411860E+04  0.90085633561E+03 0.  0.
        -24    2    4    4    0    0 -0.76110938815E+03  0.19377842367E+02  0.34171200910E+03  0.83827939343E+03  0.79260600344E+02 0.  0.
         24    2    4    4    0    0 -0.35376122286E+02  0.29567223151E+01 -0.35421088393E+03  0.36446179253E+03  0.78146245514E+02 0.  0.
         11    1    3    3    0    0  0.48074544529E+03  0.24040305059E+01 -0.37267691235E+03  0.60828450870E+03  0.00000000000E+00 0. -1.
        -11    1    3    3    0    0  0.31574006515E+03 -0.24738595188E+02 -0.15945142128E+03  0.35458220849E+03  0.00000000000E+00 0.  1.
          4    1    6    6  502    0 -0.15490068990E+02  0.17620147705E+02 -0.24848506892E+02  0.34173968708E+02  0.00000000000E+00 0. -1.
          3    1    5    5  503    0 -0.27029671038E+03  0.41198579838E+02  0.10443480415E+03  0.29268457927E+03  0.00000000000E+00 0. -1.
         -2    1    5    5    0  503 -0.49081267777E+03 -0.21820737471E+02  0.23727720495E+03  0.54559481415E+03  0.00000000000E+00 0.  1.
         -3    1    6    6    0  502 -0.19886053296E+02 -0.14663425390E+02 -0.32936237704E+03  0.33028782383E+03  0.00000000000E+00 0.  1.
<mgrwt>
<rscale>  0 0.20960054E+04</rscale>
<asrwt>0</asrwt>
<pdfrwt beam="1">  1        1 0.20847962E+00 0.20960054E+04</pdfrwt>
<pdfrwt beam="2">  1       -1 0.12469082E+00 0.20960054E+04</pdfrwt>
<totfact> 0.42813865E+00</totfact>
</mgrwt>
</event>
<event>
12    1  0.2083715E-007  0.1210563E+04  0.7818608E-02  0.9103661E-01
         -2   -1    0    0    0  501 -0.00000000000E+00  0.00000000000E+00  0.15175176384E+03  0.15175176384E+03  0.00000000000E+00 0.  1.
          2   -1    0    0  501    0  0.00000000000E+00 -0.00000000000E+00 -0.24142429508E+04  0.24142429508E+04  0.00000000000E+00 0. -1.
         23    2    1    2    0    0  0.94634092058E+02  0.20164622792E+03 -0.23477707479E+03  0.33606597955E+03  0.90571823146E+02 0.  0.
        254    2    1    2    0    0 -0.94634092058E+02 -0.20164622792E+03 -0.20277141122E+04  0.22299287351E+04  0.90074459771E+03 0.  0.
        -24    2    4    4    0    0  0.34525482385E+03 -0.22940066784E+03 -0.13667868150E+04  0.14305481294E+04  0.80846726021E+02 0.  0.
         24    2    4    4    0    0 -0.43988891590E+03  0.27754439924E+02 -0.66092729719E+03  0.79938060570E+03  0.88948824217E+02 0.  0.
         11    1    3    3    0    0  0.53591086232E+02  0.72944682759E+02 -0.39834224237E+02  0.98892348980E+02  0.00000000000E+00 0.  1.
        -11    1    3    3    0    0  0.41043005826E+02  0.12870154516E+03 -0.19494285056E+03  0.23717363057E+03  0.00000000000E+00 0. -1.
          2    1    6    6  502    0 -0.26844538791E+03  0.51224988901E+02 -0.35635186049E+03  0.44908081039E+03  0.00000000000E+00 0. -1.
          1    1    5    5  503    0  0.27068476280E+03 -0.19822747837E+03 -0.11854854901E+04  0.12320471668E+04  0.00000000000E+00 0. -1.
         -2    1    5    5    0  503  0.74570061051E+02 -0.31173189471E+02 -0.18130132497E+03  0.19850096267E+03  0.00000000000E+00 0.  1.
         -1    1    6    6    0  502 -0.17144352799E+03 -0.23470548977E+02 -0.30457543669E+03  0.35029979531E+03  0.00000000000E+00 0.  1.
<mgrwt>
<rscale>  0 0.12105629E+04</rscale>
<asrwt>0</asrwt>
<pdfrwt beam="1">  1        2 0.37142198E+00 0.12105629E+04</pdfrwt>
<pdfrwt beam="2">  1       -2 0.23346426E-01 0.12105629E+04</pdfrwt>
<totfact> 0.62774516E+01</totfact>
</mgrwt>
</event>
<event>
12    1  0.2083715E-007  0.2384027E+04  0.7818608E-02  0.8445508E-01
         -1   -1    0    0    0  501 -0.00000000000E+00  0.00000000000E+00  0.17861632129E+04  0.17861632129E+04  0.00000000000E+00 0.  1.
          1   -1    0    0  501    0  0.00000000000E+00 -0.00000000000E+00 -0.79550160283E+03  0.79550160283E+03  0.00000000000E+00 0. -1.
         23    2    1    2    0    0 -0.68785798319E+03  0.94107554469E+02 -0.38492751434E+03  0.79817337517E+03  0.83106610439E+02 0.  0.
        254    2    1    2    0    0  0.68785798319E+03 -0.94107554469E+02  0.13755891244E+04  0.17834914406E+04  0.89810436059E+03 0.  0.
        -24    2    4    4    0    0  0.48929377218E+03 -0.16850003890E+03  0.16093239685E+03  0.54788753712E+03  0.80503778611E+02 0.  0.
         24    2    4    4    0    0  0.19856421101E+03  0.74392484436E+02  0.12146567276E+04  0.12356039035E+04  0.79775013347E+02 0.  0.
         13    1    3    3    0    0 -0.55207375432E+03  0.41755048446E+02 -0.30114045318E+03  0.63024954329E+03  0.00000000000E+00 0. -1.
        -13    1    3    3    0    0 -0.13578422887E+03  0.52352506023E+02 -0.83787061156E+02  0.16792383188E+03  0.00000000000E+00 0.  1.
          2    1    6    6  502    0  0.13038946088E+03  0.83039019711E+02  0.73779015576E+03  0.75381111973E+03  0.00000000000E+00 0. -1.
          3    1    5    5  503    0  0.10360036560E+03 -0.70174672459E+02  0.49388192798E+02  0.13452402758E+03  0.00000000000E+00 0. -1.
         -2    1    5    5    0  503  0.38569340658E+03 -0.98325366446E+02  0.11154420405E+03  0.41336350954E+03  0.00000000000E+00 0.  1.
         -1    1    6    6    0  502  0.68174750130E+02 -0.86465352745E+01  0.47686657182E+03  0.48179278372E+03  0.00000000000E+00 0.  1.
<mgrwt>
<rscale>  0 0.23840266E+04</rscale>
<asrwt>0</asrwt>
<pdfrwt beam="1">  1        1 0.12238486E+00 0.23840266E+04</pdfrwt>
<pdfrwt beam="2">  1       -1 0.27479434E+00 0.23840266E+04</pdfrwt>
<totfact> 0.96302722E-01</totfact>
</mgrwt>
</event>
<event>
12    1  0.2083715E-007  0.3352498E+04  0.7818608E-02  0.8149664E-01
         -1   -1    0    0    0  501 -0.00000000000E+00  0.00000000000E+00  0.21626823860E+04  0.21626823860E+04  0.00000000000E+00 0.  1.
          1   -1    0    0  501    0  0.00000000000E+00 -0.00000000000E+00 -0.12992250178E+04  0.12992250178E+04  0.00000000000E+00 0. -1.
         23    2    1    2    0    0 -0.74318311065E+03  0.12230950358E+04 -0.22980109808E+03  0.14524503969E+04  0.92309307020E+02 0.  0.
        254    2    1    2    0    0  0.74318311065E+03 -0.12230950358E+04  0.10932584663E+04  0.20094570069E+04  0.89130285867E+03 0.  0.
        -24    2    4    4    0    0  0.92765938136E+03 -0.11254140680E+04  0.93514908156E+03  0.17342936952E+04  0.78498816089E+02 0.  0.
         24    2    4    4    0    0 -0.18447627070E+03 -0.97680967730E+02  0.15810938472E+03  0.27516331166E+03  0.84517481255E+02 0.  0.
         11    1    3    3    0    0 -0.18877602156E+03  0.38067562683E+03 -0.89780405971E+02  0.43429349578E+03  0.00000000000E+00 0. -1.
        -11    1    3    3    0    0 -0.55440708909E+03  0.84241940895E+03 -0.14002069211E+03  0.10181569011E+04  0.00000000000E+00 0.  1.
          2    1    6    6  502    0 -0.38275114204E+02 -0.12060469306E+02 -0.44334418797E+01  0.40374431193E+02  0.00000000000E+00 0. -1.
          3    1    5    5  503    0  0.51041800160E+03 -0.56726250684E+03  0.51381276797E+03  0.91995480788E+03  0.00000000000E+00 0. -1.
         -4    1    5    5    0  503  0.41724137976E+03 -0.55815156121E+03  0.42133631360E+03  0.81433888733E+03  0.00000000000E+00 0.  1.
         -1    1    6    6    0  502 -0.14620115650E+03 -0.85620498424E+02  0.16254282660E+03  0.23478888047E+03  0.00000000000E+00 0.  1.
<mgrwt>
<rscale>  0 0.33524982E+04</rscale>
<asrwt>0</asrwt>
<pdfrwt beam="1">  1        1 0.19988077E+00 0.33524982E+04</pdfrwt>
<pdfrwt beam="2">  1       -1 0.33272037E+00 0.33524982E+04</pdfrwt>
<totfact> 0.15109426E-01</totfact>
</mgrwt>
</event>
<event>
12    1  0.2083715E-007  0.3236973E+04  0.7818608E-02  0.8179120E-01
          2   -1    0    0  501    0  0.00000000000E+00  0.00000000000E+00  0.28056351909E+04  0.28056351909E+04  0.00000000000E+00 0. -1.
         -2   -1    0    0    0  501 -0.00000000000E+00 -0.00000000000E+00 -0.93365603310E+03  0.93365603310E+03  0.00000000000E+00 0.  1.
         23    2    1    2    0    0 -0.28216397945E+03 -0.14290299297E+04  0.12368480372E+04  0.19131498482E+04  0.92769733386E+02 0.  0.
        254    2    1    2    0    0  0.28216397945E+03  0.14290299297E+04  0.63513112058E+03  0.18261413757E+04  0.89980983133E+03 0.  0.
        -24    2    4    4    0    0  0.17619531732E+03  0.19141994597E+03  0.50615221883E+03  0.57490522291E+03  0.81483502305E+02 0.  0.
         24    2    4    4    0    0  0.10596866213E+03  0.12376099837E+04  0.12897890175E+03  0.12512361528E+04  0.77772256307E+02 0.  0.
         11    1    3    3    0    0 -0.85177560783E+02 -0.36779846954E+03  0.37240708439E+03  0.53029988455E+03  0.00000000000E+00 0. -1.
        -11    1    3    3    0    0 -0.19698641867E+03 -0.10612314602E+04  0.86444095279E+03  0.13828499637E+04  0.00000000000E+00 0.  1.
          4    1    6    6  502    0 -0.56299159965E+01  0.33031369279E+03  0.40314941170E+02  0.33281244880E+03  0.00000000000E+00 0. -1.
          1    1    5    5  503    0  0.90458270831E+02  0.12733169538E+03  0.22355165222E+03  0.27271120369E+03  0.00000000000E+00 0. -1.
         -2    1    5    5    0  503  0.85737046487E+02  0.64088250590E+02  0.28260056661E+03  0.30219401922E+03  0.00000000000E+00 0.  1.
         -3    1    6    6    0  502  0.11159857813E+03  0.90729629094E+03  0.88663960583E+02  0.91842370402E+03  0.00000000000E+00 0.  1.
<mgrwt>
<rscale>  0 0.32369728E+04</rscale>
<asrwt>0</asrwt>
<pdfrwt beam="1">  1        2 0.43163618E+00 0.32369728E+04</pdfrwt>
<pdfrwt beam="2">  1       -2 0.14363939E+00 0.32369728E+04</pdfrwt>
<totfact> 0.64661711E-01</totfact>
</mgrwt>
</event>
<event>
12    1  0.2083715E-007  0.2341011E+04  0.7818608E-02  0.8461924E-01
          2   -1    0    0  501    0  0.00000000000E+00  0.00000000000E+00  0.10730912210E+04  0.10730912210E+04  0.00000000000E+00 0. -1.
         -2   -1    0    0    0  501 -0.00000000000E+00 -0.00000000000E+00 -0.12767634673E+04  0.12767634673E+04  0.00000000000E+00 0.  1.
         23    2    1    2    0    0  0.90439592990E+03 -0.33338458257E+03 -0.33693828901E+03  0.10251144557E+04  0.90856803697E+02 0.  0.
        254    2    1    2    0    0 -0.90439592990E+03  0.33338458257E+03  0.13326604271E+03  0.13247402326E+04  0.89894358426E+03 0.  0.
        -24    2    4    4    0    0 -0.10279685596E+04  0.23194398766E+03  0.27991177599E+03  0.10932814812E+04  0.79977633008E+02 0.  0.
         24    2    4    4    0    0  0.12357262973E+03  0.10144059491E+03 -0.14664573327E+03  0.23145875136E+03  0.80670895515E+02 0.  0.
         11    1    3    3    0    0  0.38570365803E+03 -0.19013353197E+03 -0.15353728182E+03  0.45660898886E+03  0.00000000000E+00 0.  1.
        -11    1    3    3    0    0  0.51869227187E+03 -0.14325105059E+03 -0.18340100720E+03  0.56850546684E+03  0.00000000000E+00 0. -1.
          2    1    6    6  502    0  0.57275297199E+01  0.68573351556E+01  0.10271517525E+02  0.13613659111E+02  0.00000000000E+00 0. -1.
          3    1    5    5  503    0 -0.29804717626E+03  0.10038503927E+03  0.65746379047E+02  0.32129715489E+03  0.00000000000E+00 0. -1.
         -4    1    5    5    0  503 -0.72992138337E+03  0.13155894839E+03  0.21416539694E+03  0.77198432630E+03  0.00000000000E+00 0.  1.
         -1    1    6    6    0  502  0.11784510001E+03  0.94583259755E+02 -0.15691725080E+03  0.21784509225E+03  0.00000000000E+00 0.  1.
<mgrwt>
<rscale>  0 0.23410115E+04</rscale>
<asrwt>0</asrwt>
<pdfrwt beam="1">  1        2 0.16509096E+00 0.23410115E+04</pdfrwt>
<pdfrwt beam="2">  1       -2 0.19642515E+00 0.23410115E+04</pdfrwt>
<totfact> 0.28723843E+00</totfact>
</mgrwt>
</event>
<event>
12    1  0.2083715E-007  0.2556771E+04  0.7818608E-02  0.8383035E-01
         -2   -1    0    0    0  501 -0.00000000000E+00  0.00000000000E+00  0.13846014116E+04  0.13846014116E+04  0.00000000000E+00 0.  1.
          2   -1    0    0  501    0  0.00000000000E+00 -0.00000000000E+00 -0.11803172613E+04  0.11803172613E+04  0.00000000000E+00 0. -1.
         23    2    1    2    0    0  0.41185175837E+03 -0.10341959785E+04  0.18777615670E+03  0.11326660716E+04  0.92137679394E+02 0.  0.
        254    2    1    2    0    0 -0.41185175837E+03  0.10341959785E+04  0.16507993624E+02  0.14322526013E+04  0.90105039120E+03 0.  0.
        -24    2    4    4    0    0 -0.35606497131E+02  0.66323671640E+03  0.39451196936E+03  0.77681390708E+03  0.81543777490E+02 0.  0.
         24    2    4    4    0    0 -0.37624526124E+03  0.37095926205E+03 -0.37800397574E+03  0.65543869426E+03  0.86842417953E+02 0.  0.
         11    1    3    3    0    0  0.25409953218E+03 -0.56691707375E+03  0.14258954345E+03  0.63741142025E+03  0.00000000000E+00 0. -1.
        -11    1    3    3    0    0  0.15775222619E+03 -0.46727890471E+03  0.45186613258E+02  0.49525465133E+03  0.00000000000E+00 0.  1.
          4    1    6    6  502    0 -0.25730658929E+03  0.25536878182E+03 -0.30691567313E+03  0.47499171154E+03  0.00000000000E+00 0. -1.
          3    1    5    5  503    0 -0.41216013950E+02  0.17915777162E+03  0.12993897963E+03  0.22512308936E+03  0.00000000000E+00 0. -1.
         -4    1    5    5    0  503  0.56095168190E+01  0.48407894478E+03  0.26457298973E+03  0.55169081772E+03  0.00000000000E+00 0.  1.
         -3    1    6    6    0  502 -0.11893867195E+03  0.11559048023E+03 -0.71088302604E+02  0.18044698272E+03  0.00000000000E+00 0.  1.
<mgrwt>
<rscale>  0 0.25567706E+04</rscale>
<asrwt>0</asrwt>
<pdfrwt beam="1">  1        2 0.18158727E+00 0.25567706E+04</pdfrwt>
<pdfrwt beam="2">  1       -2 0.21301560E+00 0.25567706E+04</pdfrwt>
<totfact> 0.18919824E+00</totfact>
</mgrwt>
</event>
<event>
12    1  0.2083715E-007  0.2377913E+04  0.7818608E-02  0.8447819E-01
         -1   -1    0    0    0  501 -0.00000000000E+00  0.00000000000E+00  0.26093944881E+04  0.26093944881E+04  0.00000000000E+00 0.  1.
          1   -1    0    0  501    0  0.00000000000E+00 -0.00000000000E+00 -0.54174164578E+03  0.54174164578E+03  0.00000000000E+00 0. -1.
         23    2    1    2    0    0 -0.94715457624E+03  0.14492565131E+03  0.13344156676E+04  0.16453499194E+04  0.91683955429E+02 0.  0.
        254    2    1    2    0    0  0.94715457624E+03 -0.14492565131E+03  0.73323717469E+03  0.15057862144E+04  0.90091627441E+03 0.  0.
        -24    2    4    4    0    0 -0.12852871023E+03 -0.10502640763E+03  0.28030209646E+03  0.33566713328E+03  0.80950499907E+02 0.  0.
         24    2    4    4    0    0  0.10756832865E+04 -0.39899243687E+02  0.45293507824E+03  0.11701190811E+04  0.73088962933E+02 0.  0.
         11    1    3    3    0    0 -0.73917678143E+03  0.87242765952E+02  0.10813184472E+04  0.13127235805E+04  0.00000000000E+00 0.  1.
        -11    1    3    3    0    0 -0.20797779482E+03  0.57682885362E+02  0.25309722037E+03  0.33262633895E+03  0.00000000000E+00 0. -1.
          2    1    6    6  502    0  0.33755637741E+03 -0.46400323418E+02  0.14013691147E+03  0.36842319675E+03  0.00000000000E+00 0. -1.
          1    1    5    5  503    0 -0.10165052450E+03 -0.37261384286E+02  0.19842114467E+03  0.22603581694E+03  0.00000000000E+00 0. -1.
         -2    1    5    5    0  503 -0.26878185738E+02 -0.67765023340E+02  0.81880951789E+02  0.10963131634E+03  0.00000000000E+00 0.  1.
         -3    1    6    6    0  502  0.73812690907E+03  0.65010797309E+01  0.31279816677E+03  0.80169588440E+03  0.00000000000E+00 0.  1.
<mgrwt>
<rscale>  0 0.23779131E+04</rscale>
<asrwt>0</asrwt>
<pdfrwt beam="1">  1        1 0.83344870E-01 0.23779131E+04</pdfrwt>
<pdfrwt beam="2">  1       -1 0.40144530E+00 0.23779131E+04</pdfrwt>
<totfact> 0.24888835E-01</totfact>
</mgrwt>
</event>
<event>
12    1  0.2083715E-007  0.2357302E+04  0.7818608E-02  0.8455664E-01
         -1   -1    0    0    0  501 -0.00000000000E+00  0.00000000000E+00  0.18659506085E+04  0.18659506085E+04  0.00000000000E+00 0.  1.
          1   -1    0    0  501    0  0.00000000000E+00 -0.00000000000E+00 -0.74450945681E+03  0.74450945681E+03  0.00000000000E+00 0. -1.
         23    2    1    2    0    0 -0.24390791408E+03 -0.84408896478E+03 -0.59659271899E+02  0.88539797777E+03  0.91613859774E+02 0.  0.
        254    2    1    2    0    0  0.24390791408E+03  0.84408896478E+03  0.11811004236E+04  0.17250620875E+04  0.89936852526E+03 0.  0.
        -24    2    4    4    0    0 -0.13362904510E+03  0.68181846205E+03  0.32309876776E+03  0.77042533851E+03  0.80182614134E+02 0.  0.
         24    2    4    4    0    0  0.37753695918E+03  0.16227050273E+03  0.85800165585E+03  0.95463674903E+03  0.79363779861E+02 0.  0.
         13    1    3    3    0    0 -0.15601002558E+03 -0.39072018867E+03 -0.89403674415E+01  0.42081031841E+03  0.00000000000E+00 0.  1.
        -13    1    3    3    0    0 -0.87897888499E+02 -0.45336877612E+03 -0.50718904457E+02  0.46458765936E+03  0.00000000000E+00 0. -1.
          2    1    6    6  502    0  0.24373823951E+02  0.21587076746E+02  0.33494115948E+02  0.46711251103E+02  0.00000000000E+00 0. -1.
          3    1    5    5  503    0 -0.63367290267E+02  0.14974114060E+03  0.69433713125E+02  0.17680176239E+03  0.00000000000E+00 0. -1.
         -4    1    5    5    0  503 -0.70261754833E+02  0.53207732145E+03  0.25366505463E+03  0.59362357613E+03  0.00000000000E+00 0.  1.
         -1    1    6    6    0  502  0.35316313523E+03  0.14068342598E+03  0.82450753990E+03  0.90792549792E+03  0.00000000000E+00 0.  1.
<mgrwt>
<rscale>  0 0.23573017E+04</rscale>
<asrwt>0</asrwt>
<pdfrwt beam="1">  1        1 0.11453992E+00 0.23573017E+04</pdfrwt>
<pdfrwt beam="2">  1       -1 0.28706932E+00 0.23573017E+04</pdfrwt>
<totfact> 0.89265079E-01</totfact>
</mgrwt>
</event>
<event>
12    1  0.2083715E-007  0.1415799E+04  0.7818608E-02  0.8942461E-01
          2   -1    0    0  501    0  0.00000000000E+00  0.00000000000E+00  0.85934372079E+03  0.85934372079E+03  0.00000000000E+00 0.  1.
         -2   -1    0    0    0  501 -0.00000000000E+00 -0.00000000000E+00 -0.58314450399E+03  0.58314450399E+03  0.00000000000E+00 0. -1.
         23    2    1    2    0    0  0.13723895652E+03 -0.15584856591E+03  0.44470440397E+03  0.49953061264E+03  0.92981285067E+02 0.  0.
        254    2    1    2    0    0 -0.13723895652E+03  0.15584856591E+03 -0.16850518716E+03  0.94295761215E+03  0.90424098200E+03 0.  0.
        -24    2    4    4    0    0 -0.75982678175E+02  0.19449288483E+03  0.34840742198E+03  0.41414307080E+03  0.80783053695E+02 0.  0.
         24    2    4    4    0    0 -0.61256278345E+02 -0.38644318924E+02 -0.51691260915E+03  0.52881454135E+03  0.84855516169E+02 0.  0.
         11    1    3    3    0    0  0.75112383969E+02 -0.14648475790E+03  0.32770301931E+03  0.36672731475E+03  0.00000000000E+00 0.  1.
        -11    1    3    3    0    0  0.62126572550E+02 -0.93638080118E+01  0.11700138466E+03  0.13280329788E+03  0.00000000000E+00 0. -1.
          4    1    6    6  502    0 -0.61488296608E+02 -0.15409048724E+02 -0.48613483714E+03  0.49025027209E+03  0.00000000000E+00 0. -1.
          3    1    5    5  503    0 -0.58185035688E+02  0.14851915185E+03  0.31921503436E+03  0.35684965322E+03  0.00000000000E+00 0. -1.
         -4    1    5    5    0  503 -0.17797642486E+02  0.45973732984E+02  0.29192387628E+02  0.57293417580E+02  0.00000000000E+00 0.  1.
         -3    1    6    6    0  502  0.23201826269E+00 -0.23235270200E+02 -0.30777772006E+02  0.38564269258E+02  0.00000000000E+00 0.  1.
<mgrwt>
<rscale>  0 0.14157988E+04</rscale>
<asrwt>0</asrwt>
<pdfrwt beam="1">  1        2 0.13220673E+00 0.14157988E+04</pdfrwt>
<pdfrwt beam="2">  1       -2 0.89714539E-01 0.14157988E+04</pdfrwt>
<totfact> 0.32370506E+01</totfact>
</mgrwt>
</event>
<event>
12    1  0.2083715E-007  0.2429483E+04  0.7818608E-02  0.8428548E-01
          2   -1    0    0  501    0  0.00000000000E+00  0.00000000000E+00  0.39106248980E+04  0.39106248980E+04  0.00000000000E+00 0. -1.
         -2   -1    0    0    0  501 -0.00000000000E+00 -0.00000000000E+00 -0.37733007456E+03  0.37733007456E+03  0.00000000000E+00 0.  1.
         23    2    1    2    0    0 -0.91915444045E+03 -0.41373239216E+03  0.20161624784E+04  0.22559116491E+04  0.90591675625E+02 0.  0.
        254    2    1    2    0    0  0.91915444045E+03  0.41373239216E+03  0.15171323451E+04  0.20320433234E+04  0.90082747416E+03 0.  0.
        -24    2    4    4    0    0  0.55701325577E+03 -0.18600363569E+03  0.41740108850E+03  0.72558862494E+03  0.85988745586E+02 0.  0.
         24    2    4    4    0    0  0.36214118467E+03  0.59973602785E+03  0.10997312566E+04  0.13064546985E+04  0.81151104970E+02 0.  0.
         13    1    3    3    0    0 -0.51402828394E+03 -0.25823110595E+03  0.10646753284E+04  0.12101412875E+04  0.00000000000E+00 0.  1.
        -13    1    3    3    0    0 -0.40512615651E+03 -0.15550128621E+03  0.95148714999E+03  0.10457703616E+04  0.00000000000E+00 0. -1.
          4    1    6    6  502    0 -0.42453605530E+01  0.66237593986E+01  0.89311613458E+01  0.11902223228E+02  0.00000000000E+00 0. -1.
          1    1    5    5  503    0  0.42163124283E+03 -0.15071795462E+03  0.27245923862E+03  0.52414009910E+03  0.00000000000E+00 0. -1.
         -2    1    5    5    0  503  0.13538201294E+03 -0.35285681071E+02  0.14494184988E+03  0.20144852584E+03  0.00000000000E+00 0.  1.
         -3    1    6    6    0  502  0.36638654522E+03  0.59311226845E+03  0.10908000952E+04  0.12945524753E+04  0.00000000000E+00 0.  1.
<mgrwt>
<rscale>  0 0.24294826E+04</rscale>
<asrwt>0</asrwt>
<pdfrwt beam="1">  1        2 0.60163457E+00 0.24294826E+04</pdfrwt>
<pdfrwt beam="2">  1       -2 0.58050784E-01 0.24294826E+04</pdfrwt>
<totfact> 0.10082339E+00</totfact>
</mgrwt>
</event>
<event>
12    1  0.2083715E-007  0.2503591E+04  0.7818608E-02  0.8401707E-01
          1   -1    0    0  501    0  0.00000000000E+00  0.00000000000E+00  0.13160354111E+04  0.13160354111E+04  0.00000000000E+00 0. -1.
         -1   -1    0    0    0  501 -0.00000000000E+00 -0.00000000000E+00 -0.11906916101E+04  0.11906916101E+04  0.00000000000E+00 0.  1.
         23    2    1    2    0    0 -0.28072366717E+03 -0.23614188367E+03 -0.97003941917E+03  0.10417983525E+04  0.98987705790E+02 0.  0.
        254    2    1    2    0    0  0.28072366717E+03  0.23614188367E+03  0.10953832201E+04  0.14649286687E+04  0.90087892586E+03 0.  0.
        -24    2    4    4    0    0 -0.27625462384E+03 -0.55317392422E+02  0.15427797306E+03  0.33049328677E+03  0.77765599929E+02 0.  0.
         24    2    4    4    0    0  0.55697829101E+03  0.29145927609E+03  0.94110524706E+03  0.11344353820E+04  0.78046291119E+02 0.  0.
         13    1    3    3    0    0 -0.93533619492E+02 -0.12216766091E+03 -0.30558112247E+03  0.34213052737E+03  0.00000000000E+00 0. -1.
        -13    1    3    3    0    0 -0.18719004767E+03 -0.11397422276E+03 -0.66445829670E+03  0.69966782509E+03  0.00000000000E+00 0.  1.
          4    1    6    6  502    0  0.33192234373E+03  0.14516628002E+03  0.59219328518E+03  0.69421796155E+03  0.00000000000E+00 0. -1.
          3    1    5    5  503    0 -0.26063461859E+03 -0.30537126422E+02  0.14473797770E+03  0.29968650735E+03  0.00000000000E+00 0. -1.
         -4    1    5    5    0  503 -0.15620005251E+02 -0.24780266000E+02  0.95399953623E+01  0.30806779426E+02  0.00000000000E+00 0.  1.
         -3    1    6    6    0  502  0.22505594727E+03  0.14629299608E+03  0.34891196188E+03  0.44021742043E+03  0.00000000000E+00 0.  1.
<mgrwt>
<rscale>  0 0.25035913E+04</rscale>
<asrwt>0</asrwt>
<pdfrwt beam="1">  1        1 0.20246699E+00 0.25035913E+04</pdfrwt>
<pdfrwt beam="2">  1       -1 0.18318332E+00 0.25035913E+04</pdfrwt>
<totfact> 0.15451587E+00</totfact>
</mgrwt>
</event>
<event>
12    1  0.2083715E-007  0.3451823E+04  0.7818608E-02  0.8125303E-01
          2   -1    0    0  501    0  0.00000000000E+00  0.00000000000E+00  0.16313171671E+04  0.16313171671E+04  0.00000000000E+00 0. -1.
         -2   -1    0    0    0  501 -0.00000000000E+00 -0.00000000000E+00 -0.18259914302E+04  0.18259914302E+04  0.00000000000E+00 0.  1.
         23    2    1    2    0    0  0.83422950387E+03  0.13534353684E+04  0.14171603411E+03  0.15995178869E+04  0.10318853925E+03 0.  0.
        254    2    1    2    0    0 -0.83422950387E+03 -0.13534353684E+04 -0.33639029727E+03  0.18577907104E+04  0.90027869564E+03 0.  0.
        -24    2    4    4    0    0 -0.79439839789E+02 -0.43001547442E+03  0.26759960348E+03  0.51858219668E+03  0.78063759522E+02 0.  0.
         24    2    4    4    0    0 -0.75478966408E+03 -0.92341989401E+03 -0.60398990074E+03  0.13392085137E+04  0.79144837441E+02 0.  0.
         11    1    3    3    0    0  0.66337837383E+03  0.11297981298E+04  0.88880216316E+02  0.13131695906E+04  0.00000000000E+00 0.  1.
        -11    1    3    3    0    0  0.17085113003E+03  0.22363723864E+03  0.52835817794E+02  0.28634829628E+03  0.00000000000E+00 0. -1.
          4    1    6    6  502    0 -0.47722233739E+03 -0.63148026993E+03 -0.37530161051E+03  0.87599074737E+03  0.00000000000E+00 0. -1.
          3    1    5    5  503    0 -0.88966767520E+01 -0.21248791490E+03  0.15831888398E+03  0.26513229501E+03  0.00000000000E+00 0. -1.
         -4    1    5    5    0  503 -0.70543163037E+02 -0.21752755952E+03  0.10928071950E+03  0.25344990167E+03  0.00000000000E+00 0.  1.
         -3    1    6    6    0  502 -0.27756732668E+03 -0.29193962408E+03 -0.22868829023E+03  0.46321776632E+03  0.00000000000E+00 0.  1.
<mgrwt>
<rscale>  0 0.34518234E+04</rscale>
<asrwt>0</asrwt>
<pdfrwt beam="1">  1        2 0.25097187E+00 0.34518234E+04</pdfrwt>
<pdfrwt beam="2">  1       -2 0.28092176E+00 0.34518234E+04</pdfrwt>
<totfact> 0.36731231E-01</totfact>
</mgrwt>
</event>
<event>
12    1  0.2083715E-007  0.1765378E+04  0.7818608E-02  0.8724931E-01
          1   -1    0    0  501    0  0.00000000000E+00  0.00000000000E+00  0.28950498299E+04  0.28950498299E+04  0.00000000000E+00 0.  1.
         -1   -1    0    0    0  501 -0.00000000000E+00 -0.00000000000E+00 -0.26912834024E+03  0.26912834024E+03  0.00000000000E+00 0. -1.
         23    2    1    2    0    0 -0.26932573932E+03 -0.55410908066E+03  0.13312193477E+04  0.14695484849E+04  0.88626015882E+02 0.  0.
        254    2    1    2    0    0  0.26932573932E+03  0.55410908066E+03  0.12947021420E+04  0.16946296853E+04  0.90329558094E+03 0.  0.
        -24    2    4    4    0    0 -0.22725150441E+03  0.19020757134E+03  0.59854659831E+02  0.31247912562E+03  0.78983904656E+02 0.  0.
         24    2    4    4    0    0  0.49657724372E+03  0.36390150932E+03  0.12348474822E+04  0.13821505597E+04  0.80489737392E+02 0.  0.
         13    1    3    3    0    0 -0.55407230811E+02 -0.14739271194E+03  0.26071034295E+03  0.30457257868E+03  0.00000000000E+00 0. -1.
        -13    1    3    3    0    0 -0.21391850851E+03 -0.40671636871E+03  0.10705090047E+04  0.11649759062E+04  0.00000000000E+00 0.  1.
          2    1    6    6  502    0  0.40505520274E+03  0.30518991509E+03  0.94341713993E+03  0.10710959348E+04  0.00000000000E+00 0. -1.
          3    1    5    5  503    0 -0.21373302255E+03  0.16765515955E+03  0.30944263570E+02  0.27340008211E+03  0.00000000000E+00 0. -1.
         -4    1    5    5    0  503 -0.13518481852E+02  0.22552411793E+02  0.28910396261E+02  0.39079043505E+02  0.00000000000E+00 0.  1.
         -1    1    6    6    0  502  0.91522040982E+02  0.58711594229E+02  0.29143034227E+03  0.31105462491E+03  0.00000000000E+00 0.  1.
<mgrwt>
<rscale>  0 0.17653781E+04</rscale>
<asrwt>0</asrwt>
<pdfrwt beam="1">  1        1 0.44539226E+00 0.17653781E+04</pdfrwt>
<pdfrwt beam="2">  1       -1 0.41404362E-01 0.17653781E+04</pdfrwt>
<totfact> 0.38647099E+00</totfact>
</mgrwt>
</event>
<event>
12    1  0.2083715E-007  0.2024823E+04  0.7818608E-02  0.8595102E-01
         -1   -1    0    0    0  501 -0.00000000000E+00  0.00000000000E+00  0.20567516299E+04  0.20567516299E+04  0.00000000000E+00 0. -1.
          1   -1    0    0  501    0  0.00000000000E+00 -0.00000000000E+00 -0.49834755257E+03  0.49834755257E+03  0.00000000000E+00 0.  1.
         23    2    1    2    0    0  0.10982332557E+03  0.77753884234E+03  0.86542157348E+03  0.11720111091E+04  0.89597577209E+02 0.  0.
        254    2    1    2    0    0 -0.10982332557E+03 -0.77753884234E+03  0.69298250384E+03  0.13830880734E+04  0.90337149270E+03 0.  0.
        -24    2    4    4    0    0 -0.21410396768E+02 -0.43763216098E+03 -0.14700345140E+03  0.46894432710E+03  0.79488702278E+02 0.  0.
         24    2    4    4    0    0 -0.88412928800E+02 -0.33990668136E+03  0.83998595525E+03  0.91414374625E+03  0.82030395445E+02 0.  0.
         11    1    3    3    0    0  0.11123173122E+03  0.47789526126E+03  0.54266515768E+03  0.73160224994E+03  0.00000000000E+00 0.  1.
        -11    1    3    3    0    0 -0.14084056536E+01  0.29964358108E+03  0.32275641581E+03  0.44040885916E+03  0.00000000000E+00 0. -1.
          2    1    6    6  502    0 -0.40326225293E+02 -0.55085451373E+02  0.11505163117E+03  0.13378149810E+03  0.00000000000E+00 0. -1.
          3    1    5    5  503    0  0.35280142723E+01 -0.12603526280E+03 -0.65724615736E+01  0.12625581810E+03  0.00000000000E+00 0. -1.
         -4    1    5    5    0  503 -0.24938411040E+02 -0.31159689818E+03 -0.14043098983E+03  0.34268850901E+03  0.00000000000E+00 0.  1.
         -1    1    6    6    0  502 -0.48086703507E+02 -0.28482122999E+03  0.72493432407E+03  0.78036224814E+03  0.00000000000E+00 0.  1.
<mgrwt>
<rscale>  0 0.20248231E+04</rscale>
<asrwt>0</asrwt>
<pdfrwt beam="1">  1        1 0.76668855E-01 0.20248231E+04</pdfrwt>
<pdfrwt beam="2">  1       -1 0.31642332E+00 0.20248231E+04</pdfrwt>
<totfact> 0.10654292E+00</totfact>
</mgrwt>
</event>
<event>
12    1  0.2083715E-007  0.1169241E+04  0.7818608E-02  0.9140214E-01
          3   -1    0    0  501    0  0.00000000000E+00  0.00000000000E+00  0.23571010834E+03  0.23571010834E+03  0.00000000000E+00 0. -1.
         -3   -1    0    0    0  501 -0.00000000000E+00 -0.00000000000E+00 -0.14500062034E+04  0.14500062034E+04  0.00000000000E+00 0.  1.
         23    2    1    2    0    0  0.21619837649E+03 -0.50000514173E+02 -0.23601425089E+03  0.33724492242E+03  0.93752982144E+02 0.  0.
        254    2    1    2    0    0 -0.21619837649E+03  0.50000514173E+02 -0.97828184412E+03  0.13484713893E+04  0.90116476393E+03 0.  0.
        -24    2    4    4    0    0 -0.52188984884E+03  0.20254562993E+03 -0.69377586048E+03  0.89548757778E+03  0.84730813984E+02 0.  0.
         24    2    4    4    0    0  0.30569147236E+03 -0.15254511576E+03 -0.28450598364E+03  0.45298381150E+03  0.86795104366E+02 0.  0.
         13    1    3    3    0    0  0.21247140580E+03 -0.23379855884E+02 -0.21442049734E+03  0.30276536398E+03  0.00000000000E+00 0.  1.
        -13    1    3    3    0    0  0.37269706933E+01 -0.26620658289E+02 -0.21593753541E+02  0.34479558441E+02  0.00000000000E+00 0. -1.
          2    1    6    6  502    0  0.45190272021E+02  0.87977915623E+01 -0.35040862681E+02  0.57856925939E+02  0.00000000000E+00 0. -1.
          1    1    5    5  503    0 -0.19472150703E+03  0.32376967584E+02 -0.24546158588E+03  0.31498590996E+03  0.00000000000E+00 0. -1.
         -2    1    5    5    0  503 -0.32716834182E+03  0.17016866235E+03 -0.44831427460E+03  0.58050166782E+03  0.00000000000E+00 0.  1.
         -1    1    6    6    0  502  0.26050120033E+03 -0.16134290732E+03 -0.24946512096E+03  0.39512688556E+03  0.00000000000E+00 0.  1.
<mgrwt>
<rscale>  0 0.11692410E+04</rscale>
<asrwt>0</asrwt>
<pdfrwt beam="1">  1        3 0.36263094E-01 0.11692410E+04</pdfrwt>
<pdfrwt beam="2">  1       -3 0.22307787E+00 0.11692410E+04</pdfrwt>
<totfact> 0.20649560E+00</totfact>
</mgrwt>
</event>
<event>
12    1  0.2083715E-007  0.1842275E+04  0.7818608E-02  0.8684136E-01
          1   -1    0    0  501    0  0.00000000000E+00  0.00000000000E+00  0.18630804640E+04  0.18630804640E+04  0.00000000000E+00 0. -1.
         -1   -1    0    0    0  501 -0.00000000000E+00 -0.00000000000E+00 -0.45542532051E+03  0.45542532051E+03  0.00000000000E+00 0.  1.
         23    2    1    2    0    0 -0.25356988437E+03 -0.64820851873E+03  0.53130777848E+03  0.88040585071E+03  0.91403153616E+02 0.  0.
        254    2    1    2    0    0  0.25356988437E+03  0.64820851873E+03  0.87634736496E+03  0.14380999338E+04  0.90314713384E+03 0.  0.
        -24    2    4    4    0    0 -0.10765760285E+03  0.21868913147E+03  0.83092715003E+03  0.86947805792E+03  0.78339446509E+02 0.  0.
         24    2    4    4    0    0  0.36122748722E+03  0.42951938725E+03  0.45420214937E+02  0.56862187583E+03  0.79345070404E+02 0.  0.
         13    1    3    3    0    0 -0.14158839457E+03 -0.41089428940E+03  0.38121100755E+03  0.57810312472E+03  0.00000000000E+00 0. -1.
        -13    1    3    3    0    0 -0.11198148979E+03 -0.23731422933E+03  0.15009677093E+03  0.30230272599E+03  0.00000000000E+00 0.  1.
          2    1    6    6  502    0  0.36536021530E+03  0.42207968222E+03  0.43835467872E+02  0.55996508222E+03  0.00000000000E+00 0. -1.
          1    1    5    5  503    0 -0.90903463224E+02  0.20710597451E+03  0.80679615377E+03  0.83789996899E+03  0.00000000000E+00 0. -1.
         -2    1    5    5    0  503 -0.16754139629E+02  0.11583156965E+02  0.24130996260E+02  0.31578088930E+02  0.00000000000E+00 0.  1.
         -1    1    6    6    0  502 -0.41327280747E+01  0.74397050354E+01  0.15847470650E+01  0.86567936104E+01  0.00000000000E+00 0.  1.
<mgrwt>
<rscale>  0 0.18422747E+04</rscale>
<asrwt>0</asrwt>
<pdfrwt beam="1">  1        1 0.28662776E+00 0.18422747E+04</pdfrwt>
<pdfrwt beam="2">  1       -1 0.70065435E-01 0.18422747E+04</pdfrwt>
<totfact> 0.71462214E+00</totfact>
</mgrwt>
</event>
<event>
12    1  0.2574862E-007  0.1784306E+04  0.7818608E-02  0.8714690E-01
         -2   -1    0    0    0  501 -0.00000000000E+00  0.00000000000E+00  0.45540113557E+03  0.45540113557E+03  0.00000000000E+00 0. -1.
          2   -1    0    0  501    0  0.00000000000E+00 -0.00000000000E+00 -0.17477716804E+04  0.17477716804E+04  0.00000000000E+00 0.  1.
         23    2    1    2    0    0  0.59611069314E+03  0.12539198060E+03 -0.16076985594E+03  0.63633558400E+03  0.89470227538E+02 0.  0.
        254    2    1    2    0    0 -0.59611069314E+03 -0.12539198060E+03 -0.11316006889E+04  0.15668372319E+04  0.89631896392E+03 0.  0.
        -24    2    4    4    0    0 -0.64346816371E+03  0.17895335479E+03 -0.43463979941E+03  0.80085457753E+03  0.79879397972E+02 0.  0.
         24    2    4    4    0    0  0.47357470567E+02 -0.30434533539E+03 -0.69696088945E+03  0.76598265441E+03  0.78141744525E+02 0.  0.
         11    1    3    3    0    0  0.18588151359E+03  0.28927173242E+01 -0.27386791246E+02  0.18791046071E+03  0.00000000000E+00 0. -1.
        -11    1    3    3    0    0  0.41022917955E+03  0.12249926327E+03 -0.13338306469E+03  0.44842512329E+03  0.00000000000E+00 0.  1.
          2    1    6    6  502    0 -0.17579794210E+02 -0.56510867288E+02 -0.17076823509E+03  0.18073272366E+03  0.00000000000E+00 0. -1.
          1    1    5    5  503    0 -0.66279831560E+02  0.31221492231E+02 -0.23388137766E+02  0.76907754075E+02  0.00000000000E+00 0. -1.
         -2    1    5    5    0  503 -0.57718833215E+03  0.14773186256E+03 -0.41125166164E+03  0.72394682345E+03  0.00000000000E+00 0.  1.
         -1    1    6    6    0  502  0.64937264777E+02 -0.24783446810E+03 -0.52619265436E+03  0.58524993075E+03  0.00000000000E+00 0.  1.
<mgrwt>
<rscale>  0 0.17843063E+04</rscale>
<asrwt>0</asrwt>
<pdfrwt beam="1">  1        2 0.26888794E+00 0.17843063E+04</pdfrwt>
<pdfrwt beam="2">  1       -2 0.70061715E-01 0.17843063E+04</pdfrwt>
<totfact> 0.16176488E+01</totfact>
</mgrwt>
</event>
<event>
12    1  0.2083715E-007  0.2128141E+04  0.7818608E-02  0.8548947E-01
         -2   -1    0    0    0  501 -0.00000000000E+00  0.00000000000E+00  0.82736514867E+03  0.82736514867E+03  0.00000000000E+00 0. -1.
          2   -1    0    0  501    0  0.00000000000E+00 -0.00000000000E+00 -0.13684958399E+04  0.13684958399E+04  0.00000000000E+00 0.  1.
         23    2    1    2    0    0 -0.79753327476E+03  0.10106680085E+03 -0.57996624675E+03  0.99546661614E+03  0.91209176610E+02 0.  0.
        254    2    1    2    0    0  0.79753327476E+03 -0.10106680085E+03  0.38835555550E+02  0.12003943724E+04  0.89059790384E+03 0.  0.
        -24    2    4    4    0    0  0.35719633523E+03 -0.11715687568E+03  0.45047537213E+03  0.59212510454E+03  0.79806786130E+02 0.  0.
         24    2    4    4    0    0  0.44033693953E+03  0.16090074835E+02 -0.41163981658E+03  0.60826926786E+03  0.79929048545E+02 0.  0.
         13    1    3    3    0    0 -0.82616025839E+02 -0.88604344737E+01 -0.85926714999E+02  0.11952955858E+03  0.00000000000E+00 0. -1.
        -13    1    3    3    0    0 -0.71491724892E+03  0.10992723532E+03 -0.49403953176E+03  0.87593705756E+03  0.00000000000E+00 0.  1.
          2    1    6    6  502    0  0.11455034461E+03  0.34825611001E+02 -0.87278476877E+02  0.14816253628E+03  0.00000000000E+00 0. -1.
          3    1    5    5  503    0  0.26081100630E+03 -0.10764628417E+03  0.28945582525E+03  0.40422119969E+03  0.00000000000E+00 0. -1.
         -2    1    5    5    0  503  0.96385328924E+02 -0.95105915165E+01  0.16101954688E+03  0.18790390485E+03  0.00000000000E+00 0.  1.
         -1    1    6    6    0  502  0.32578659492E+03 -0.18735536166E+02 -0.32436133970E+03  0.46010673158E+03  0.00000000000E+00 0.  1.
<mgrwt>
<rscale>  0 0.21281408E+04</rscale>
<asrwt>0</asrwt>
<pdfrwt beam="1">  1        2 0.21053782E+00 0.21281408E+04</pdfrwt>
<pdfrwt beam="2">  1       -2 0.12728695E+00 0.21281408E+04</pdfrwt>
<totfact> 0.63553519E+00</totfact>
</mgrwt>
</event>
<event>
12    1  0.2083715E-007  0.2489480E+04  0.7818608E-02  0.8406743E-01
          2   -1    0    0  501    0  0.00000000000E+00  0.00000000000E+00  0.10719357765E+04  0.10719357765E+04  0.00000000000E+00 0. -1.
         -2   -1    0    0    0  501 -0.00000000000E+00 -0.00000000000E+00 -0.14454017882E+04  0.14454017882E+04  0.00000000000E+00 0.  1.
         23    2    1    2    0    0  0.13141105280E+03 -0.10692611177E+04 -0.26742907724E+03  0.11137867079E+04  0.91729583653E+02 0.  0.
        254    2    1    2    0    0 -0.13141105280E+03  0.10692611177E+04 -0.10603693442E+03  0.14035508568E+04  0.89337728507E+03 0.  0.
        -24    2    4    4    0    0 -0.62803992276E+01  0.51312397122E+03 -0.48786614818E+03  0.71278006841E+03  0.81892576775E+02 0.  0.
         24    2    4    4    0    0 -0.12513065357E+03  0.55613714653E+03  0.38182921375E+03  0.69077078841E+03  0.80153149814E+02 0.  0.
         11    1    3    3    0    0  0.93000140962E+02 -0.40145966799E+03 -0.11257333338E+03  0.42719041028E+03  0.00000000000E+00 0. -1.
        -11    1    3    3    0    0  0.38410911837E+02 -0.66780144975E+03 -0.15485574386E+03  0.68659629758E+03  0.00000000000E+00 0.  1.
          4    1    6    6  502    0 -0.67051276450E+02  0.44000628404E+03  0.30976163880E+03  0.54226716344E+03  0.00000000000E+00 0. -1.
          1    1    5    5  503    0 -0.18493408429E+02  0.60553554750E+02 -0.34651117816E+02  0.72176444316E+02  0.00000000000E+00 0. -1.
         -2    1    5    5    0  503  0.12213009202E+02  0.45257041647E+03 -0.45321503036E+03  0.64060362409E+03  0.00000000000E+00 0.  1.
         -3    1    6    6    0  502 -0.58079377121E+02  0.11613086249E+03  0.72067574950E+02  0.14850362496E+03  0.00000000000E+00 0.  1.
<mgrwt>
<rscale>  0 0.24894802E+04</rscale>
<asrwt>0</asrwt>
<pdfrwt beam="1">  1        2 0.16491320E+00 0.24894802E+04</pdfrwt>
<pdfrwt beam="2">  1       -2 0.22236950E+00 0.24894802E+04</pdfrwt>
<totfact> 0.19326650E+00</totfact>
</mgrwt>
</event>
<event>
12    1  0.2083715E-007  0.1564385E+04  0.7818608E-02  0.8842732E-01
         -1   -1    0    0    0  501 -0.00000000000E+00  0.00000000000E+00  0.23072829029E+03  0.23072829029E+03  0.00000000000E+00 0.  1.
          1   -1    0    0  501    0  0.00000000000E+00 -0.00000000000E+00 -0.26517115016E+04  0.26517115016E+04  0.00000000000E+00 0. -1.
         23    2    1    2    0    0  0.44022481912E+03 -0.26887102793E+03 -0.87362471001E+03  0.10186650732E+04  0.91481562628E+02 0.  0.
        254    2    1    2    0    0 -0.44022481912E+03  0.26887102793E+03 -0.15473585013E+04  0.18637747187E+04  0.90180283301E+03 0.  0.
        -24    2    4    4    0    0 -0.24032528775E+03 -0.20518598873E+03 -0.12184027017E+03  0.34623493188E+03  0.71944719830E+02 0.  0.
         24    2    4    4    0    0 -0.19989953137E+03  0.47405701666E+03 -0.14255182311E+04  0.15175397868E+04  0.78325600794E+02 0.  0.
         13    1    3    3    0    0  0.22795881351E+03 -0.18140140159E+03 -0.43414550011E+03  0.52283267345E+03  0.00000000000E+00 0. -1.
        -13    1    3    3    0    0  0.21226600561E+03 -0.87469626337E+02 -0.43947920990E+03  0.49583239971E+03  0.00000000000E+00 0.  1.
          2    1    6    6  502    0 -0.33358260581E+02  0.16386720170E+03 -0.50642892611E+03  0.53332493899E+03  0.00000000000E+00 0. -1.
          3    1    5    5  503    0 -0.82373391973E+02 -0.49631885743E+02 -0.66351389294E+01  0.96398780367E+02  0.00000000000E+00 0. -1.
         -4    1    5    5    0  503 -0.15795189578E+03 -0.15555410299E+03 -0.11520513124E+03  0.24983615151E+03  0.00000000000E+00 0.  1.
         -1    1    6    6    0  502 -0.16654127078E+03  0.31018981497E+03 -0.91908930500E+03  0.98421484786E+03  0.00000000000E+00 0.  1.
<mgrwt>
<rscale>  0 0.15643847E+04</rscale>
<asrwt>0</asrwt>
<pdfrwt beam="1">  1        1 0.40795561E+00 0.15643847E+04</pdfrwt>
<pdfrwt beam="2">  1       -1 0.35496660E-01 0.15643847E+04</pdfrwt>
<totfact> 0.77509468E+00</totfact>
</mgrwt>
</event>
<event>
12    1  0.2083715E-007  0.2029951E+04  0.7818608E-02  0.8592744E-01
         -2   -1    0    0    0  501 -0.00000000000E+00  0.00000000000E+00  0.73923438620E+03  0.73923438620E+03  0.00000000000E+00 0.  1.
          2   -1    0    0  501    0  0.00000000000E+00 -0.00000000000E+00 -0.13935708078E+04  0.13935708078E+04  0.00000000000E+00 0. -1.
         23    2    1    2    0    0 -0.71917627411E+03  0.14589589394E+03  0.10127262661E+03  0.74680121384E+03  0.94634998674E+02 0.  0.
        254    2    1    2    0    0  0.71917627411E+03 -0.14589589394E+03 -0.75560904822E+03  0.13860039802E+04  0.90086729000E+03 0.  0.
        -24    2    4    4    0    0 -0.16571547084E+03 -0.90766322120E+02 -0.35341654064E+03  0.40849996874E+03  0.79175948113E+02 0.  0.
         24    2    4    4    0    0  0.88489174496E+03 -0.55129571819E+02 -0.40219250758E+03  0.97750401143E+03  0.87650494713E+02 0.  0.
         11    1    3    3    0    0 -0.68753480853E+03  0.15495521220E+03  0.84400985131E+02  0.70981600222E+03  0.00000000000E+00 0. -1.
        -11    1    3    3    0    0 -0.31641465586E+02 -0.90593182638E+01  0.16871641477E+02  0.36985211612E+02  0.00000000000E+00 0.  1.
          4    1    6    6  502    0  0.50903521739E+03 -0.33098962445E+02 -0.27862347301E+03  0.58124300733E+03  0.00000000000E+00 0. -1.
          1    1    5    5  503    0 -0.99145817074E+02 -0.24384683053E+02 -0.24240411519E+03  0.26302901146E+03  0.00000000000E+00 0. -1.
         -2    1    5    5    0  503 -0.66569653770E+02 -0.66381639067E+02 -0.11101242545E+03  0.14547095728E+03  0.00000000000E+00 0.  1.
         -1    1    6    6    0  502  0.37585652757E+03 -0.22030609373E+02 -0.12356903457E+03  0.39626100410E+03  0.00000000000E+00 0.  1.
<mgrwt>
<rscale>  0 0.20299512E+04</rscale>
<asrwt>0</asrwt>
<pdfrwt beam="1">  1        2 0.21439551E+00 0.20299512E+04</pdfrwt>
<pdfrwt beam="2">  1       -2 0.11372837E+00 0.20299512E+04</pdfrwt>
<totfact> 0.81963873E+00</totfact>
</mgrwt>
</event>
<event>
12    1  0.2083715E-007  0.1727957E+04  0.7818608E-02  0.8745578E-01
         -1   -1    0    0    0  501 -0.00000000000E+00  0.00000000000E+00  0.65764135231E+03  0.65764135231E+03  0.00000000000E+00 0.  1.
          1   -1    0    0  501    0  0.00000000000E+00 -0.00000000000E+00 -0.11350547740E+04  0.11350547740E+04  0.00000000000E+00 0. -1.
         23    2    1    2    0    0  0.71288261298E+01  0.15134150389E+03  0.45443231093E+03  0.48751866716E+03  0.90612662768E+02 0.  0.
        254    2    1    2    0    0 -0.71288261298E+01 -0.15134150389E+03 -0.93184573264E+03  0.13051774592E+04  0.90121954014E+03 0.  0.
        -24    2    4    4    0    0 -0.40095742059E+03 -0.25563263132E+03 -0.62477869234E+03  0.78922061358E+03  0.80036661424E+02 0.  0.
         24    2    4    4    0    0  0.39382859446E+03  0.10429112743E+03 -0.30706704030E+03  0.51595684559E+03  0.77095383730E+02 0.  0.
         13    1    3    3    0    0 -0.19485269036E+02 -0.31379389306E+01  0.47379024239E+02  0.51325376842E+02  0.00000000000E+00 0. -1.
        -13    1    3    3    0    0  0.26614095166E+02  0.15447944282E+03  0.40705328669E+03  0.43619329032E+03  0.00000000000E+00 0.  1.
          4    1    6    6  502    0  0.23969195207E+03  0.73624395697E+02 -0.14252182753E+03  0.28841854111E+03  0.00000000000E+00 0. -1.
          3    1    5    5  503    0 -0.30020325994E+03 -0.15814249388E+03 -0.47860753314E+03  0.58668238122E+03  0.00000000000E+00 0. -1.
         -4    1    5    5    0  503 -0.10075416065E+03 -0.97490137445E+02 -0.14617115920E+03  0.20253823236E+03  0.00000000000E+00 0.  1.
         -3    1    6    6    0  502  0.15413664239E+03  0.30666731737E+02 -0.16454521276E+03  0.22753830448E+03  0.00000000000E+00 0.  1.
<mgrwt>
<rscale>  0 0.17279571E+04</rscale>
<asrwt>0</asrwt>
<pdfrwt beam="1">  1        1 0.17462381E+00 0.17279571E+04</pdfrwt>
<pdfrwt beam="2">  1       -1 0.10117559E+00 0.17279571E+04</pdfrwt>
<totfact> 0.10514035E+01</totfact>
</mgrwt>
</event>
<event>
12    1  0.2083715E-007  0.1048392E+04  0.7818608E-02  0.9257006E-01
         -1   -1    0    0    0  501 -0.00000000000E+00  0.00000000000E+00  0.27781397452E+04  0.27781397452E+04  0.00000000000E+00 0.  1.
          1   -1    0    0  501    0  0.00000000000E+00 -0.00000000000E+00 -0.98908405262E+02  0.98908405262E+02  0.00000000000E+00 0. -1.
         23    2    1    2    0    0 -0.94257939650E+02  0.28070064888E+02  0.47438193029E+03  0.49364842951E+03  0.94752669852E+02 0.  0.
        254    2    1    2    0    0  0.94257939650E+02 -0.28070064888E+02  0.22048494097E+04  0.23833997210E+04  0.89975597963E+03 0.  0.
        -24    2    4    4    0    0 -0.19214162929E+03 -0.15753405711E+03  0.19589396632E+04  0.19762997523E+04  0.81121649660E+02 0.  0.
         24    2    4    4    0    0  0.28639956894E+03  0.12946399222E+03  0.24590974651E+03  0.40709996871E+03  0.80455843320E+02 0.  0.
         13    1    3    3    0    0 -0.76100915782E+02  0.40015260149E+02  0.45909468022E+03  0.46707654173E+03  0.00000000000E+00 0.  1.
        -13    1    3    3    0    0 -0.18157023868E+02 -0.11945195261E+02  0.15287250067E+02  0.26571887779E+02  0.00000000000E+00 0. -1.
          2    1    6    6  502    0  0.25859346024E+03  0.10689554809E+03  0.24396335559E+03  0.37123490508E+03  0.00000000000E+00 0. -1.
          1    1    5    5  503    0 -0.15890025794E+03 -0.16227720612E+03  0.16551316815E+04  0.16706418128E+04  0.00000000000E+00 0. -1.
         -2    1    5    5    0  503 -0.33241371344E+02  0.47431490157E+01  0.30380798166E+03  0.30565793945E+03  0.00000000000E+00 0.  1.
         -1    1    6    6    0  502  0.27806108696E+02  0.22568444129E+02  0.19463909198E+01  0.35865063625E+02  0.00000000000E+00 0.  1.
<mgrwt>
<rscale>  0 0.10483919E+04</rscale>
<asrwt>0</asrwt>
<pdfrwt beam="1">  1        1 0.15216680E-01 0.10483919E+04</pdfrwt>
<pdfrwt beam="2">  1       -1 0.42740605E+00 0.10483919E+04</pdfrwt>
<totfact> 0.17964712E+00</totfact>
</mgrwt>
</event>
<event>
12    1  0.2083715E-007  0.1855218E+04  0.7818608E-02  0.8677474E-01
         -2   -1    0    0    0  501 -0.00000000000E+00  0.00000000000E+00  0.49608407952E+03  0.49608407952E+03  0.00000000000E+00 0.  1.
          2   -1    0    0  501    0  0.00000000000E+00 -0.00000000000E+00 -0.17345012042E+04  0.17345012042E+04  0.00000000000E+00 0. -1.
         23    2    1    2    0    0  0.57872473689E+03 -0.40260510487E+03 -0.50701003373E+03  0.87340027744E+03  0.93571784040E+02 0.  0.
        254    2    1    2    0    0 -0.57872473689E+03  0.40260510487E+03 -0.73140709098E+03  0.13571850063E+04  0.89998978719E+03 0.  0.
        -24    2    4    4    0    0 -0.27451470639E+03 -0.46260297962E+02 -0.75397810349E+03  0.80845493591E+03  0.87281519581E+02 0.  0.
         24    2    4    4    0    0 -0.30421003050E+03  0.44886540283E+03  0.22571012507E+02  0.54873007040E+03  0.81063845444E+02 0.  0.
         13    1    3    3    0    0  0.37106027243E+03 -0.20290032900E+03 -0.29262081113E+03  0.51427736523E+03  0.00000000000E+00 0.  1.
        -13    1    3    3    0    0  0.20766446447E+03 -0.19970477586E+03 -0.21438922260E+03  0.35912291220E+03  0.00000000000E+00 0. -1.
          4    1    6    6  502    0 -0.12131169409E+03  0.16706712765E+03 -0.30195976508E+02  0.20866180595E+03  0.00000000000E+00 0. -1.
          3    1    5    5  503    0 -0.56880776689E+02  0.18770076197E+01 -0.77153888168E+02  0.95873189024E+02  0.00000000000E+00 0. -1.
         -4    1    5    5    0  503 -0.21763392970E+03 -0.48137305582E+02 -0.67682421532E+03  0.71258174688E+03  0.00000000000E+00 0.  1.
         -3    1    6    6    0  502 -0.18289833641E+03  0.28179827517E+03  0.52766989014E+02  0.34006826444E+03  0.00000000000E+00 0.  1.
<mgrwt>
<rscale>  0 0.18552180E+04</rscale>
<asrwt>0</asrwt>
<pdfrwt beam="1">  1        2 0.26684633E+00 0.18552180E+04</pdfrwt>
<pdfrwt beam="2">  1       -2 0.76320629E-01 0.18552180E+04</pdfrwt>
<totfact> 0.13545102E+01</totfact>
</mgrwt>
</event>
<event>
12    1  0.2083715E-007  0.2369561E+04  0.7818608E-02  0.8450988E-01
          1   -1    0    0  501    0  0.00000000000E+00  0.00000000000E+00  0.38287155079E+04  0.38287155079E+04  0.00000000000E+00 0. -1.
         -1   -1    0    0    0  501 -0.00000000000E+00 -0.00000000000E+00 -0.36662552875E+03  0.36662552875E+03  0.00000000000E+00 0.  1.
         23    2    1    2    0    0 -0.90988087434E+03  0.39993979323E+03  0.18190583234E+04  0.20748862039E+04  0.91348407326E+02 0.  0.
        254    2    1    2    0    0  0.90988087434E+03 -0.39993979323E+03  0.16430316557E+04  0.21204548327E+04  0.89941126979E+03 0.  0.
        -24    2    4    4    0    0  0.76511254842E+03 -0.36319995964E+03  0.54704668018E+03  0.10114024791E+04  0.79771436555E+02 0.  0.
         24    2    4    4    0    0  0.14476832593E+03 -0.36739833595E+02  0.10959849756E+04  0.11090523536E+04  0.80662090356E+02 0.  0.
         11    1    3    3    0    0 -0.55330776219E+03  0.19446503494E+03  0.10574852634E+04  0.12092316618E+04  0.00000000000E+00 0.  1.
        -11    1    3    3    0    0 -0.35657311215E+03  0.20547475829E+03  0.76157306002E+03  0.86565454216E+03  0.00000000000E+00 0. -1.
          2    1    6    6  502    0  0.77351380714E+02 -0.47448190605E+02  0.80838779832E+03  0.81346505725E+03  0.00000000000E+00 0. -1.
          1    1    5    5  503    0  0.27155795451E+03 -0.88237459325E+02  0.17390327625E+03  0.33432307933E+03  0.00000000000E+00 0. -1.
         -2    1    5    5    0  503  0.49355459391E+03 -0.27496250031E+03  0.37314340393E+03  0.67707939981E+03  0.00000000000E+00 0.  1.
         -1    1    6    6    0  502  0.67416945214E+02  0.10708357009E+02  0.28759717723E+03  0.29558729635E+03  0.00000000000E+00 0.  1.
<mgrwt>
<rscale>  0 0.23695610E+04</rscale>
<asrwt>0</asrwt>
<pdfrwt beam="1">  1        1 0.58903313E+00 0.23695610E+04</pdfrwt>
<pdfrwt beam="2">  1       -1 0.56403930E-01 0.23695610E+04</pdfrwt>
<totfact> 0.38642695E-01</totfact>
</mgrwt>
</event>
<event>
12    1  0.2083715E-007  0.3813321E+04  0.7818608E-02  0.8043302E-01
          2   -1    0    0  501    0  0.00000000000E+00  0.00000000000E+00  0.22795405452E+04  0.22795405452E+04  0.00000000000E+00 0. -1.
         -2   -1    0    0    0  501 -0.00000000000E+00 -0.00000000000E+00 -0.15947753264E+04  0.15947753264E+04  0.00000000000E+00 0.  1.
         23    2    1    2    0    0  0.46662271721E+03 -0.13805325567E+04  0.13862243787E+04  0.20133342757E+04  0.91049312932E+02 0.  0.
        254    2    1    2    0    0 -0.46662271721E+03  0.13805325567E+04 -0.70145915983E+03  0.18609815959E+04  0.92065229444E+03 0.  0.
        -24    2    4    4    0    0 -0.35744622263E+03  0.96051255077E+03 -0.91069887032E+03  0.13732705943E+04  0.78406189160E+02 0.  0.
         24    2    4    4    0    0 -0.10917649459E+03  0.42002000592E+03  0.20923971049E+03  0.48771100165E+03  0.75792165447E+02 0.  0.
         11    1    3    3    0    0  0.12479061130E+03 -0.37305482052E+03  0.31969889013E+03  0.50690233392E+03  0.00000000000E+00 0.  1.
        -11    1    3    3    0    0  0.34183210591E+03 -0.10074777362E+04  0.10665254885E+04  0.15064319418E+04  0.00000000000E+00 0. -1.
          2    1    6    6  502    0 -0.36255508018E+02  0.27883121536E+03  0.12292781193E+03  0.30687547225E+03  0.00000000000E+00 0. -1.
          3    1    5    5  503    0 -0.13796953763E+03  0.32863426619E+03 -0.27138077600E+03  0.44797723135E+03  0.00000000000E+00 0. -1.
         -4    1    5    5    0  503 -0.21947668499E+03  0.63187828458E+03 -0.63931809433E+03  0.92529336295E+03  0.00000000000E+00 0.  1.
         -1    1    6    6    0  502 -0.72920986568E+02  0.14118879055E+03  0.86311898565E+02  0.18083552940E+03  0.00000000000E+00 0.  1.
<mgrwt>
<rscale>  0 0.38133214E+04</rscale>
<asrwt>0</asrwt>
<pdfrwt beam="1">  1        2 0.35069855E+00 0.38133214E+04</pdfrwt>
<pdfrwt beam="2">  1       -2 0.24535005E+00 0.38133214E+04</pdfrwt>
<totfact> 0.25602403E-01</totfact>
</mgrwt>
</event>
<event>
12    1  0.2083715E-007  0.4324929E+04  0.7818608E-02  0.7942024E-01
         -2   -1    0    0    0  501 -0.00000000000E+00  0.00000000000E+00  0.16902376694E+04  0.16902376694E+04  0.00000000000E+00 0.  1.
          2   -1    0    0  501    0  0.00000000000E+00 -0.00000000000E+00 -0.27666245781E+04  0.27666245781E+04  0.00000000000E+00 0. -1.
         23    2    1    2    0    0 -0.16111625982E+04 -0.44571359403E+03  0.73893507655E+03  0.18300660931E+04  0.92797263313E+02 0.  0.
        254    2    1    2    0    0  0.16111625982E+04  0.44571359403E+03 -0.18153219853E+04  0.26267961544E+04  0.90008810723E+03 0.  0.
        -24    2    4    4    0    0  0.17066581717E+04  0.35696063857E+03 -0.16588129307E+04  0.24078711385E+04  0.77974791793E+02 0.  0.
         24    2    4    4    0    0 -0.95495573503E+02  0.88752955459E+02 -0.15650905460E+03  0.21892501589E+03  0.80228341315E+02 0.  0.
         13    1    3    3    0    0 -0.29142580548E+03 -0.43992063390E+02  0.13018467896E+03  0.32219924329E+03  0.00000000000E+00 0.  1.
        -13    1    3    3    0    0 -0.13197367927E+04 -0.40172153064E+03  0.60875039759E+03  0.15078668498E+04  0.00000000000E+00 0. -1.
          4    1    6    6  502    0  0.54963060727E+01  0.28913669658E+02 -0.97737372006E+01  0.31011862447E+02  0.00000000000E+00 0. -1.
          3    1    5    5  503    0  0.33300410082E+02  0.40254473489E+01 -0.47778525039E+02  0.58377298609E+02  0.00000000000E+00 0. -1.
         -4    1    5    5    0  503  0.16733577616E+04  0.35293519123E+03 -0.16110344056E+04  0.23494938399E+04  0.00000000000E+00 0.  1.
         -3    1    6    6    0  502 -0.10099187958E+03  0.59839285801E+02 -0.14673531740E+03  0.18791315345E+03  0.00000000000E+00 0.  1.
<mgrwt>
<rscale>  0 0.43249292E+04</rscale>
<asrwt>0</asrwt>
<pdfrwt beam="1">  1        2 0.42563455E+00 0.43249292E+04</pdfrwt>
<pdfrwt beam="2">  1       -2 0.26003657E+00 0.43249292E+04</pdfrwt>
<totfact> 0.10378369E-01</totfact>
</mgrwt>
</event>
<event>
12    1  0.2083715E-007  0.1254580E+04  0.7818608E-02  0.9066380E-01
         -1   -1    0    0    0  501 -0.00000000000E+00  0.00000000000E+00  0.35922069921E+03  0.35922069921E+03  0.00000000000E+00 0.  1.
          1   -1    0    0  501    0  0.00000000000E+00 -0.00000000000E+00 -0.10954061040E+04  0.10954061040E+04  0.00000000000E+00 0. -1.
         23    2    1    2    0    0  0.20233830883E+03  0.19076119695E+03 -0.28413138836E+03  0.40806088831E+03  0.91937028661E+02 0.  0.
        254    2    1    2    0    0 -0.20233830883E+03 -0.19076119695E+03 -0.45205401639E+03  0.10465659148E+04  0.90200707032E+03 0.  0.
        -24    2    4    4    0    0 -0.52300548968E+03  0.44309503167E+02 -0.19159609210E+03  0.56448442454E+03  0.80221747244E+02 0.  0.
         24    2    4    4    0    0  0.32066718085E+03 -0.23507070012E+03 -0.26045792428E+03  0.48208149030E+03  0.80489490252E+02 0.  0.
         13    1    3    3    0    0  0.11974722821E+03  0.77594747436E+02 -0.90167593322E+02  0.16879140493E+03  0.00000000000E+00 0.  1.
        -13    1    3    3    0    0  0.82591080625E+02  0.11316644952E+03 -0.19396379503E+03  0.23926948338E+03  0.00000000000E+00 0. -1.
          4    1    6    6  502    0  0.18939842942E+03 -0.14302611776E+03 -0.10767968185E+03  0.26062070008E+03  0.00000000000E+00 0. -1.
          1    1    5    5  503    0 -0.52299794092E+03  0.41243483614E+02 -0.19519375342E+03  0.55975751225E+03  0.00000000000E+00 0. -1.
         -2    1    5    5    0  503 -0.75487648070E-02  0.30660195533E+01  0.35976613149E+01  0.47269122926E+01  0.00000000000E+00 0.  1.
         -3    1    6    6    0  502  0.13126875143E+03 -0.92044582364E+02 -0.15277824243E+03  0.22146079022E+03  0.00000000000E+00 0.  1.
<mgrwt>
<rscale>  0 0.12545797E+04</rscale>
<asrwt>0</asrwt>
<pdfrwt beam="1">  1        1 0.16852402E+00 0.12545797E+04</pdfrwt>
<pdfrwt beam="2">  1       -1 0.55264723E-01 0.12545797E+04</pdfrwt>
<totfact> 0.41698373E+01</totfact>
</mgrwt>
</event>
<event>
12    1  0.2083715E-007  0.2193535E+04  0.7818608E-02  0.8521124E-01
          2   -1    0    0  501    0  0.00000000000E+00  0.00000000000E+00  0.48805556518E+03  0.48805556518E+03  0.00000000000E+00 0. -1.
         -2   -1    0    0    0  501 -0.00000000000E+00 -0.00000000000E+00 -0.24646768817E+04  0.24646768817E+04  0.00000000000E+00 0.  1.
         23    2    1    2    0    0  0.17393176082E+03 -0.80461589469E+03 -0.30231980198E+03  0.88166399459E+03  0.90967803546E+02 0.  0.
        254    2    1    2    0    0 -0.17393176082E+03  0.80461589469E+03 -0.16743015146E+04  0.20710684523E+04  0.89909953682E+03 0.  0.
        -24    2    4    4    0    0 -0.53067807847E+03  0.51814248124E+03 -0.11473713904E+04  0.13685811492E+04  0.80389058136E+02 0.  0.
         24    2    4    4    0    0  0.35674631765E+03  0.28647341345E+03 -0.52693012417E+03  0.70248730310E+03  0.80610814967E+02 0.  0.
         13    1    3    3    0    0  0.15505575745E+03 -0.64115777168E+03 -0.27588726066E+03  0.71501003958E+03  0.00000000000E+00 0.  1.
        -13    1    3    3    0    0  0.18876003372E+02 -0.16345812301E+03 -0.26432541321E+02  0.16665395502E+03  0.00000000000E+00 0. -1.
          4    1    6    6  502    0  0.17114243019E+03  0.11455281819E+03 -0.18280605091E+03  0.27537271437E+03  0.00000000000E+00 0. -1.
          3    1    5    5  503    0 -0.31296777033E+03  0.35746402454E+03 -0.71127009641E+03  0.85535636091E+03  0.00000000000E+00 0. -1.
         -4    1    5    5    0  503 -0.21771030814E+03  0.16067845670E+03 -0.43610129399E+03  0.51322478831E+03  0.00000000000E+00 0.  1.
         -3    1    6    6    0  502  0.18560388745E+03  0.17192059526E+03 -0.34412407325E+03  0.42711458873E+03  0.00000000000E+00 0.  1.
<mgrwt>
<rscale>  0 0.21935353E+04</rscale>
<asrwt>0</asrwt>
<pdfrwt beam="1">  1        2 0.75085471E-01 0.21935353E+04</pdfrwt>
<pdfrwt beam="2">  1       -2 0.37918106E+00 0.21935353E+04</pdfrwt>
<totfact> 0.58801357E-01</totfact>
</mgrwt>
</event>
<event>
12    1  0.2083715E-007  0.1201014E+04  0.7818608E-02  0.9111970E-01
         -1   -1    0    0    0  501 -0.00000000000E+00  0.00000000000E+00  0.17791281706E+03  0.17791281706E+03  0.00000000000E+00 0.  1.
          1   -1    0    0  501    0  0.00000000000E+00 -0.00000000000E+00 -0.20268827756E+04  0.20268827756E+04  0.00000000000E+00 0. -1.
         23    2    1    2    0    0 -0.11806333848E+03 -0.21677054130E+03 -0.33149284697E+03  0.42354787888E+03  0.92611439046E+02 0.  0.
        254    2    1    2    0    0  0.11806333848E+03  0.21677054130E+03 -0.15174771115E+04  0.17812477137E+04  0.89954333648E+03 0.  0.
        -24    2    4    4    0    0  0.39445839912E+03  0.36123425438E+03 -0.59771514101E+03  0.80676751478E+03  0.86734179811E+02 0.  0.
         24    2    4    4    0    0 -0.27639506064E+03 -0.14446371308E+03 -0.91976197052E+03  0.97448019896E+03  0.79909835381E+02 0.  0.
         11    1    3    3    0    0 -0.32687686402E+02 -0.10010638128E+03 -0.20913263095E+03  0.23415001546E+03  0.00000000000E+00 0.  1.
        -11    1    3    3    0    0 -0.85375652076E+02 -0.11666416002E+03 -0.12236021603E+03  0.18939786342E+03  0.00000000000E+00 0. -1.
          2    1    6    6  502    0 -0.65504617403E+02 -0.63551146351E+02 -0.34660705265E+03  0.35842161214E+03  0.00000000000E+00 0. -1.
          3    1    5    5  503    0  0.58377249904E+02  0.95768503297E+02 -0.10124782410E+03  0.15109808541E+03  0.00000000000E+00 0. -1.
         -4    1    5    5    0  503  0.33608114922E+03  0.26546575108E+03 -0.49646731690E+03  0.65566942937E+03  0.00000000000E+00 0.  1.
         -1    1    6    6    0  502 -0.21089044324E+03 -0.80912566728E+02 -0.57315491788E+03  0.61605858682E+03  0.00000000000E+00 0.  1.
<mgrwt>
<rscale>  0 0.12010136E+04</rscale>
<asrwt>0</asrwt>
<pdfrwt beam="1">  1        1 0.31182812E+00 0.12010136E+04</pdfrwt>
<pdfrwt beam="2">  1       -1 0.27371203E-01 0.12010136E+04</pdfrwt>
<totfact> 0.33940336E+01</totfact>
</mgrwt>
</event>
<event>
12    1  0.2083715E-007  0.1936247E+04  0.7818608E-02  0.8637021E-01
          1   -1    0    0  501    0  0.00000000000E+00  0.00000000000E+00  0.87732059872E+03  0.87732059872E+03  0.00000000000E+00 0. -1.
         -1   -1    0    0    0  501 -0.00000000000E+00 -0.00000000000E+00 -0.10683242237E+04  0.10683242237E+04  0.00000000000E+00 0.  1.
         23    2    1    2    0    0 -0.64577581659E+03 -0.38310542722E+03  0.12056852143E+02  0.75651423031E+03  0.91499941629E+02 0.  0.
        254    2    1    2    0    0  0.64577581659E+03  0.38310542722E+03 -0.20306047712E+03  0.11891305921E+04  0.89944529243E+03 0.  0.
        -24    2    4    4    0    0  0.24094135768E+03  0.50720220379E+03 -0.42000840933E+03  0.70608078462E+03  0.82681298530E+02 0.  0.
         24    2    4    4    0    0  0.40483445891E+03 -0.12409677657E+03  0.21694793221E+03  0.48304980750E+03  0.83544970876E+02 0.  0.
         13    1    3    3    0    0 -0.42576950777E+03 -0.29846086084E+03 -0.71097846537E+01  0.52000875785E+03  0.00000000000E+00 0.  1.
        -13    1    3    3    0    0 -0.22000630882E+03 -0.84644566383E+02  0.19166636796E+02  0.23650547246E+03  0.00000000000E+00 0. -1.
          2    1    6    6  502    0  0.87944263690E+02 -0.16006391118E+02  0.84437544958E+02  0.12296380391E+03  0.00000000000E+00 0. -1.
          1    1    5    5  503    0  0.20733318622E+03  0.35589583808E+03 -0.32054421258E+03  0.52191712933E+03  0.00000000000E+00 0. -1.
         -2    1    5    5    0  503  0.33608171467E+02  0.15130636571E+03 -0.99464196747E+02  0.18416365529E+03  0.00000000000E+00 0.  1.
         -3    1    6    6    0  502  0.31689019522E+03 -0.10809038545E+03  0.13251038725E+03  0.36008600359E+03  0.00000000000E+00 0.  1.
<mgrwt>
<rscale>  0 0.19362467E+04</rscale>
<asrwt>0</asrwt>
<pdfrwt beam="1">  1        1 0.13497240E+00 0.19362467E+04</pdfrwt>
<pdfrwt beam="2">  1       -1 0.16435757E+00 0.19362467E+04</pdfrwt>
<totfact> 0.48018945E+00</totfact>
</mgrwt>
</event>
<event>
12    1  0.2083715E-007  0.3162586E+04  0.7818608E-02  0.8198769E-01
          2   -1    0    0  501    0  0.00000000000E+00  0.00000000000E+00  0.15101872853E+04  0.15101872853E+04  0.00000000000E+00 0. -1.
         -2   -1    0    0    0  501 -0.00000000000E+00 -0.00000000000E+00 -0.16557463421E+04  0.16557463421E+04  0.00000000000E+00 0.  1.
         23    2    1    2    0    0  0.14086027513E+04 -0.34920443143E+03 -0.93104578625E+02  0.14572606604E+04  0.93993211289E+02 0.  0.
        254    2    1    2    0    0 -0.14086027513E+04  0.34920443143E+03 -0.52454478125E+02  0.17086729670E+04  0.90039235333E+03 0.  0.
        -24    2    4    4    0    0 -0.12704917384E+04  0.19628463328E+03  0.27162867614E+03  0.13164203192E+04  0.80643689309E+02 0.  0.
         24    2    4    4    0    0 -0.13811101297E+03  0.15291979815E+03 -0.32408315426E+03  0.39225264780E+03  0.79831900034E+02 0.  0.
         13    1    3    3    0    0  0.47325022180E+03 -0.12020047449E+03  0.13036725405E+02  0.48845049156E+03  0.00000000000E+00 0.  1.
        -13    1    3    3    0    0  0.93535252952E+03 -0.22900395694E+03 -0.10614130403E+03  0.96881016881E+03  0.00000000000E+00 0. -1.
          2    1    6    6  502    0 -0.22884749058E+02  0.48894307440E+02 -0.35637398603E+02  0.64686855069E+02  0.00000000000E+00 0. -1.
          3    1    5    5  503    0 -0.12393456162E+03  0.23371114092E+02  0.28369259673E+01  0.12615083308E+03  0.00000000000E+00 0. -1.
         -4    1    5    5    0  503 -0.11465571767E+04  0.17291351919E+03  0.26879175017E+03  0.11902694861E+04  0.00000000000E+00 0.  1.
         -1    1    6    6    0  502 -0.11522626391E+03  0.10402549071E+03 -0.28844575566E+03  0.32756579273E+03  0.00000000000E+00 0.  1.
<mgrwt>
<rscale>  0 0.31625857E+04</rscale>
<asrwt>0</asrwt>
<pdfrwt beam="1">  1        2 0.23233651E+00 0.31625857E+04</pdfrwt>
<pdfrwt beam="2">  1       -2 0.25473021E+00 0.31625857E+04</pdfrwt>
<totfact> 0.63592172E-01</totfact>
</mgrwt>
</event>
<event>
12    1  0.2543661E-007  0.3215430E+04  0.7818608E-02  0.8184754E-01
          1   -1    0    0  501    0  0.00000000000E+00  0.00000000000E+00  0.14991325242E+04  0.14991325242E+04  0.00000000000E+00 0. -1.
         -1   -1    0    0    0  501 -0.00000000000E+00 -0.00000000000E+00 -0.17241618412E+04  0.17241618412E+04  0.00000000000E+00 0.  1.
         23    2    1    2    0    0  0.13414280956E+04 -0.60786339505E+03 -0.25036003942E+03  0.14966060554E+04  0.90676860422E+02 0.  0.
        254    2    1    2    0    0 -0.13414280956E+04  0.60786339505E+03  0.25330722363E+02  0.17266883100E+04  0.90104585432E+03 0.  0.
        -24    2    4    4    0    0 -0.94055786819E+03  0.41419540619E+03 -0.39994108672E+03  0.11058716536E+04  0.82415431933E+02 0.  0.
         24    2    4    4    0    0 -0.40087022741E+03  0.19366798886E+03  0.42527180908E+03  0.62081665639E+03  0.79705584001E+02 0.  0.
         11    1    3    3    0    0  0.47968513973E+03 -0.20461636618E+03 -0.46386444830E+02  0.52356221487E+03  0.00000000000E+00 0. -1.
        -11    1    3    3    0    0  0.86174295587E+03 -0.40324702888E+03 -0.20397359459E+03  0.97304384052E+03  0.00000000000E+00 0.  1.
          4    1    6    6  502    0 -0.15225926890E+03  0.78593239335E+02  0.11222962338E+03  0.20482985768E+03  0.00000000000E+00 0. -1.
          3    1    5    5  503    0 -0.26755247388E+03  0.13296212971E+03 -0.15398228637E+03  0.33611575198E+03  0.00000000000E+00 0. -1.
         -4    1    5    5    0  503 -0.67300539431E+03  0.28123327648E+03 -0.24595880035E+03  0.76975590159E+03  0.00000000000E+00 0.  1.
         -3    1    6    6    0  502 -0.24861095851E+03  0.11507474953E+03  0.31304218570E+03  0.41598679871E+03  0.00000000000E+00 0.  1.
<mgrwt>
<rscale>  0 0.32154297E+04</rscale>
<asrwt>0</asrwt>
<pdfrwt beam="1">  1        1 0.23063577E+00 0.32154297E+04</pdfrwt>
<pdfrwt beam="2">  1       -1 0.26525567E+00 0.32154297E+04</pdfrwt>
<totfact> 0.30358335E-01</totfact>
</mgrwt>
</event>
<event>
12    1  0.2083715E-007  0.1523645E+04  0.7818608E-02  0.8868880E-01
          1   -1    0    0  501    0  0.00000000000E+00  0.00000000000E+00  0.29513042930E+04  0.29513042930E+04  0.00000000000E+00 0. -1.
         -1   -1    0    0    0  501 -0.00000000000E+00 -0.00000000000E+00 -0.19664972160E+03  0.19664972160E+03  0.00000000000E+00 0.  1.
         23    2    1    2    0    0  0.37625209072E+03 -0.17617497395E+03  0.14542343182E+04  0.15151674147E+04  0.91277517145E+02 0.  0.
        254    2    1    2    0    0 -0.37625209072E+03  0.17617497395E+03  0.13004202532E+04  0.16327865999E+04  0.89570976806E+03 0.  0.
        -24    2    4    4    0    0  0.11909000422E+03 -0.20579332006E+03  0.87714611253E+02  0.26590804328E+03  0.80497917776E+02 0.  0.
         24    2    4    4    0    0 -0.49534209494E+03  0.38196829401E+03  0.12127056419E+04  0.13668785566E+04  0.80239926786E+02 0.  0.
         13    1    3    3    0    0  0.31142615009E+03 -0.18126392816E+03  0.12335235719E+04  0.12850771421E+04  0.00000000000E+00 0. -1.
        -13    1    3    3    0    0  0.64825940623E+02  0.50889542135E+01  0.22071074628E+03  0.23009027262E+03  0.00000000000E+00 0.  1.
          4    1    6    6  502    0 -0.43539229262E+03  0.36064626319E+03  0.11174118705E+04  0.12522944798E+04  0.00000000000E+00 0. -1.
          1    1    5    5  503    0  0.11181301230E+03 -0.20331440959E+03  0.63589770938E+02  0.24058794200E+03  0.00000000000E+00 0. -1.
         -2    1    5    5    0  503  0.72769919218E+01 -0.24789104665E+01  0.24124840315E+02  0.25320101279E+02  0.00000000000E+00 0.  1.
         -3    1    6    6    0  502 -0.59949802317E+02  0.21322030822E+02  0.95293771388E+02  0.11458407682E+03  0.00000000000E+00 0.  1.
<mgrwt>
<rscale>  0 0.15236445E+04</rscale>
<asrwt>0</asrwt>
<pdfrwt beam="1">  1        1 0.45404678E+00 0.15236445E+04</pdfrwt>
<pdfrwt beam="2">  1       -1 0.30253805E-01 0.15236445E+04</pdfrwt>
<totfact> 0.63304143E+00</totfact>
</mgrwt>
</event>
<event>
12    1  0.2083715E-007  0.2419106E+04  0.7818608E-02  0.8432385E-01
         -3   -1    0    0    0  501 -0.00000000000E+00  0.00000000000E+00  0.13615121567E+04  0.13615121567E+04  0.00000000000E+00 0.  1.
          3   -1    0    0  501    0  0.00000000000E+00 -0.00000000000E+00 -0.10745543378E+04  0.10745543378E+04  0.00000000000E+00 0. -1.
         23    2    1    2    0    0 -0.67732101713E+03  0.54679080643E+03 -0.44929020337E+03  0.98393895255E+03  0.92359240245E+02 0.  0.
        254    2    1    2    0    0  0.67732101713E+03 -0.54679080643E+03  0.73624802226E+03  0.14521275419E+04  0.89937161479E+03 0.  0.
        -24    2    4    4    0    0  0.60875751079E+03 -0.29337225231E+03  0.90309916251E+03  0.11310932708E+04  0.84444683573E+02 0.  0.
         24    2    4    4    0    0  0.68563506345E+02 -0.25341855412E+03 -0.16685114025E+03  0.32103427112E+03  0.79383765699E+02 0.  0.
         13    1    3    3    0    0 -0.31256571146E+03  0.29229016951E+03 -0.25870454280E+03  0.50005890417E+03  0.00000000000E+00 0. -1.
        -13    1    3    3    0    0 -0.36475530567E+03  0.25450063692E+03 -0.19058566057E+03  0.48388004838E+03  0.00000000000E+00 0.  1.
          2    1    6    6  502    0  0.33848195314E+02 -0.15420217725E+03 -0.14352621442E+03  0.21336303808E+03  0.00000000000E+00 0. -1.
          1    1    5    5  503    0  0.38747440293E+03 -0.22864802537E+03  0.57525908032E+03  0.73030085713E+03  0.00000000000E+00 0. -1.
         -2    1    5    5    0  503  0.22128310786E+03 -0.64724226942E+02  0.32784008219E+03  0.40079241368E+03  0.00000000000E+00 0.  1.
         -1    1    6    6    0  502  0.34715311031E+02 -0.99216376862E+02 -0.23324925832E+02  0.10767123303E+03  0.00000000000E+00 0.  1.
<mgrwt>
<rscale>  0 0.24191063E+04</rscale>
<asrwt>0</asrwt>
<pdfrwt beam="1">  1        3 0.16531605E+00 0.24191063E+04</pdfrwt>
<pdfrwt beam="2">  1       -3 0.20946341E+00 0.24191063E+04</pdfrwt>
<totfact> 0.74830320E-02</totfact>
</mgrwt>
</event>
<event>
12    1  0.2083715E-007  0.2262972E+04  0.7818608E-02  0.8492665E-01
          2   -1    0    0  501    0  0.00000000000E+00  0.00000000000E+00  0.30275504402E+04  0.30275504402E+04  0.00000000000E+00 0. -1.
         -2   -1    0    0    0  501 -0.00000000000E+00 -0.00000000000E+00 -0.42287026881E+03  0.42287026881E+03  0.00000000000E+00 0.  1.
         23    2    1    2    0    0 -0.65032701964E+03 -0.65077284967E+03  0.14504675100E+04  0.17205892139E+04  0.10070109903E+03 0.  0.
        254    2    1    2    0    0  0.65032701964E+03  0.65077284967E+03  0.11542126615E+04  0.17298314951E+04  0.90204190545E+03 0.  0.
        -24    2    4    4    0    0 -0.79292519999E+02  0.50231247884E+03  0.30641491724E+03  0.59881270353E+03  0.77983474308E+02 0.  0.
         24    2    4    4    0    0  0.72961953964E+03  0.14846037082E+03  0.84779774423E+03  0.11310187916E+04  0.77828898476E+02 0.  0.
         13    1    3    3    0    0 -0.27784949914E+03 -0.24633229352E+03  0.66786166082E+03  0.76414602073E+03  0.00000000000E+00 0. -1.
        -13    1    3    3    0    0 -0.37247752050E+03 -0.40444055615E+03  0.78260584914E+03  0.95644319321E+03  0.00000000000E+00 0.  1.
          2    1    6    6  502    0  0.14270260547E+03  0.60690903672E+02  0.16780488248E+03  0.22848610019E+03  0.00000000000E+00 0. -1.
          1    1    5    5  503    0 -0.59226311832E+02  0.40578852692E+03  0.20923992749E+03  0.46038400477E+03  0.00000000000E+00 0. -1.
         -2    1    5    5    0  503 -0.20066208167E+02  0.96523951923E+02  0.97174989756E+02  0.13842869876E+03  0.00000000000E+00 0.  1.
         -1    1    6    6    0  502  0.58691693417E+03  0.87769467148E+02  0.67999286175E+03  0.90253269138E+03  0.00000000000E+00 0.  1.
<mgrwt>
<rscale>  0 0.22629724E+04</rscale>
<asrwt>0</asrwt>
<pdfrwt beam="1">  1        2 0.46577698E+00 0.22629724E+04</pdfrwt>
<pdfrwt beam="2">  1       -2 0.65056966E-01 0.22629724E+04</pdfrwt>
<totfact> 0.33185964E+00</totfact>
</mgrwt>
</event>
<event>
12    1  0.2083715E-007  0.1363556E+04  0.7818608E-02  0.8980629E-01
          2   -1    0    0  501    0  0.00000000000E+00  0.00000000000E+00  0.17788946364E+04  0.17788946364E+04  0.00000000000E+00 0. -1.
         -2   -1    0    0    0  501 -0.00000000000E+00 -0.00000000000E+00 -0.26129779055E+03  0.26129779055E+03  0.00000000000E+00 0.  1.
         23    2    1    2    0    0 -0.40429246481E+02 -0.29573595163E+03  0.82408933674E+02  0.32045618664E+03  0.82502473597E+02 0.  0.
        254    2    1    2    0    0  0.40429246481E+02  0.29573595163E+03  0.14351879121E+04  0.17197362403E+04  0.89924085534E+03 0.  0.
        -24    2    4    4    0    0 -0.27299135935E+02 -0.29058557340E+03  0.24734235815E+03  0.39088896678E+03  0.80191794602E+02 0.  0.
         24    2    4    4    0    0  0.67728382416E+02  0.58632152503E+03  0.11878455540E+04  0.13288472735E+04  0.80609873183E+02 0.  0.
         13    1    3    3    0    0 -0.16617552803E+02 -0.12732202671E+02  0.21472536883E+02  0.29988695974E+02  0.00000000000E+00 0. -1.
        -13    1    3    3    0    0 -0.23811693678E+02 -0.28300374896E+03  0.60936396791E+02  0.29046749067E+03  0.00000000000E+00 0.  1.
          4    1    6    6  502    0  0.44136831524E+02  0.39418004200E+03  0.71004847101E+03  0.81332330386E+03  0.00000000000E+00 0. -1.
          1    1    5    5  503    0 -0.47293504789E+02 -0.23210801618E+03  0.22010136716E+03  0.32335030322E+03  0.00000000000E+00 0. -1.
         -2    1    5    5    0  503  0.19994368854E+02 -0.58477557218E+02  0.27240990992E+02  0.67538663551E+02  0.00000000000E+00 0.  1.
         -3    1    6    6    0  502  0.23591550892E+02  0.19214148303E+03  0.47779708298E+03  0.51552396964E+03  0.00000000000E+00 0.  1.
<mgrwt>
<rscale>  0 0.13635560E+04</rscale>
<asrwt>0</asrwt>
<pdfrwt beam="1">  1        2 0.27367609E+00 0.13635560E+04</pdfrwt>
<pdfrwt beam="2">  1       -2 0.40199661E-01 0.13635560E+04</pdfrwt>
<totfact> 0.50665499E+01</totfact>
</mgrwt>
</event>
<event>
12    1  0.2083715E-007  0.2794830E+04  0.7818608E-02  0.8304875E-01
          2   -1    0    0  501    0  0.00000000000E+00  0.00000000000E+00  0.74924499311E+03  0.74924499311E+03  0.00000000000E+00 0. -1.
         -2   -1    0    0    0  501 -0.00000000000E+00 -0.00000000000E+00 -0.26063149023E+04  0.26063149023E+04  0.00000000000E+00 0.  1.
         23    2    1    2    0    0 -0.19855476266E+03  0.66287758633E+03  0.41936831439E+03  0.81166683076E+03  0.64051329443E+02 0.  0.
        254    2    1    2    0    0  0.19855476266E+03 -0.66287758633E+03 -0.22764382236E+04  0.25438930646E+04  0.90021677964E+03 0.  0.
        -24    2    4    4    0    0  0.29873556481E+03 -0.73097669235E+03 -0.22623814905E+04  0.23974878651E+04  0.77512530768E+02 0.  0.
         24    2    4    4    0    0 -0.10018080216E+03  0.68099106015E+02 -0.14056733089E+02  0.14640519953E+03  0.81013636778E+02 0.  0.
         13    1    3    3    0    0 -0.11504372707E+03  0.43127189130E+03  0.23773363068E+03  0.50571511993E+03  0.00000000000E+00 0.  1.
        -13    1    3    3    0    0 -0.83511035588E+02  0.23160569503E+03  0.18163468370E+03  0.30595171083E+03  0.00000000000E+00 0. -1.
          4    1    6    6  502    0 -0.77311423686E+02  0.30088159001E+02  0.25686382538E+02  0.86845516824E+02  0.00000000000E+00 0. -1.
          3    1    5    5  503    0  0.25223216457E+03 -0.62009978109E+03 -0.19948712968E+04  0.21041996802E+04  0.00000000000E+00 0. -1.
         -4    1    5    5    0  503  0.46503400244E+02 -0.11087691125E+03 -0.26751019370E+03  0.29328818492E+03  0.00000000000E+00 0.  1.
         -3    1    6    6    0  502 -0.22869378469E+02  0.38010947014E+02 -0.39743115627E+02  0.59559682707E+02  0.00000000000E+00 0.  1.
<mgrwt>
<rscale>  0 0.27948298E+04</rscale>
<asrwt>0</asrwt>
<pdfrwt beam="1">  1        2 0.11526846E+00 0.27948298E+04</pdfrwt>
<pdfrwt beam="2">  1       -2 0.40097153E+00 0.27948298E+04</pdfrwt>
<totfact> 0.23898818E-01</totfact>
</mgrwt>
</event>
<event>
12    1  0.2083715E-007  0.2352558E+04  0.7818608E-02  0.8457482E-01
         -1   -1    0    0    0  501 -0.00000000000E+00  0.00000000000E+00  0.38286395305E+03  0.38286395305E+03  0.00000000000E+00 0.  1.
          1   -1    0    0  501    0  0.00000000000E+00 -0.00000000000E+00 -0.36139004678E+04  0.36139004678E+04  0.00000000000E+00 0. -1.
         23    2    1    2    0    0 -0.73726628005E+03  0.67098619069E+03 -0.12168775849E+04  0.15756539921E+04  0.90057815897E+02 0.  0.
        254    2    1    2    0    0  0.73726628005E+03 -0.67098619069E+03 -0.20141589298E+04  0.24211104288E+04  0.90064170346E+03 0.  0.
        -24    2    4    4    0    0  0.58248361290E+03  0.34675118246E+02 -0.66667995116E+03  0.88953868828E+03  0.79544940411E+02 0.  0.
         24    2    4    4    0    0  0.15478266714E+03 -0.70566130894E+03 -0.13474789786E+04  0.15315717405E+04  0.89982450528E+02 0.  0.
         11    1    3    3    0    0 -0.45452078919E+03  0.36573319329E+03 -0.75206532533E+03  0.95181519742E+03  0.00000000000E+00 0. -1.
        -11    1    3    3    0    0 -0.28274549085E+03  0.30525299741E+03 -0.46481225958E+03  0.62383879463E+03  0.00000000000E+00 0.  1.
          2    1    6    6  502    0  0.12189943118E+03 -0.59278744322E+03 -0.10535021571E+04  0.12149581141E+04  0.00000000000E+00 0. -1.
          3    1    5    5  503    0  0.37659844067E+03  0.24013294510E+02 -0.48678910405E+03  0.61592747597E+03  0.00000000000E+00 0. -1.
         -4    1    5    5    0  503  0.20588517223E+03  0.10661823736E+02 -0.17989084711E+03  0.27361121232E+03  0.00000000000E+00 0.  1.
         -1    1    6    6    0  502  0.32883235964E+02 -0.11287386572E+03 -0.29397682156E+03  0.31661362635E+03  0.00000000000E+00 0.  1.
<mgrwt>
<rscale>  0 0.23525579E+04</rscale>
<asrwt>0</asrwt>
<pdfrwt beam="1">  1        1 0.55598468E+00 0.23525579E+04</pdfrwt>
<pdfrwt beam="2">  1       -1 0.58902147E-01 0.23525579E+04</pdfrwt>
<totfact> 0.53404528E-01</totfact>
</mgrwt>
</event>
<event>
12    1  0.2083715E-007  0.1964552E+04  0.7818608E-02  0.8623375E-01
         -2   -1    0    0    0  501 -0.00000000000E+00  0.00000000000E+00  0.94222400844E+03  0.94222400844E+03  0.00000000000E+00 0.  1.
          2   -1    0    0  501    0  0.00000000000E+00 -0.00000000000E+00 -0.10240306335E+04  0.10240306335E+04  0.00000000000E+00 0. -1.
         23    2    1    2    0    0 -0.53955117823E+03  0.53733898924E+03  0.10389836057E+03  0.77261756132E+03  0.79337024446E+02 0.  0.
        254    2    1    2    0    0  0.53955117823E+03 -0.53733898924E+03 -0.18570498568E+03  0.11936370807E+04  0.90024134283E+03 0.  0.
        -24    2    4    4    0    0 -0.18911504097E+03 -0.26903728071E+03 -0.23449321244E+03  0.41170132596E+03  0.79783193645E+02 0.  0.
         24    2    4    4    0    0  0.72866621921E+03 -0.26830170853E+03  0.48788226762E+02  0.78193575470E+03  0.78121492549E+02 0.  0.
         11    1    3    3    0    0 -0.18253540651E+03  0.13559140121E+03  0.15238170753E+02  0.22789560013E+03  0.00000000000E+00 0. -1.
        -11    1    3    3    0    0 -0.35701577172E+03  0.40174758803E+03  0.88660189815E+02  0.54472196119E+03  0.00000000000E+00 0.  1.
          2    1    6    6  502    0  0.10069272127E+03 -0.52075130660E+02  0.31070325629E+02  0.11754236889E+03  0.00000000000E+00 0. -1.
          3    1    5    5  503    0 -0.61674677924E+01 -0.10733876683E+02 -0.36035670808E+02  0.38102799611E+02  0.00000000000E+00 0. -1.
         -4    1    5    5    0  503 -0.18294757318E+03 -0.25830340402E+03 -0.19845754163E+03  0.37359852635E+03  0.00000000000E+00 0.  1.
         -1    1    6    6    0  502  0.62797349793E+03 -0.21622657787E+03  0.17717901132E+02  0.66439338581E+03  0.00000000000E+00 0.  1.
<mgrwt>
<rscale>  0 0.19645521E+04</rscale>
<asrwt>0</asrwt>
<pdfrwt beam="1">  1        2 0.15754317E+00 0.19645521E+04</pdfrwt>
<pdfrwt beam="2">  1       -2 0.14495754E+00 0.19645521E+04</pdfrwt>
<totfact> 0.74278126E+00</totfact>
</mgrwt>
</event>
<event>
12    1  0.2083715E-007  0.1939363E+04  0.7818608E-02  0.8635507E-01
         -1   -1    0    0    0  501 -0.00000000000E+00  0.00000000000E+00  0.11207846990E+04  0.11207846990E+04  0.00000000000E+00 0.  1.
          1   -1    0    0  501    0  0.00000000000E+00 -0.00000000000E+00 -0.83894976034E+03  0.83894976034E+03  0.00000000000E+00 0. -1.
         23    2    1    2    0    0  0.67948589565E+03  0.15578013346E+03 -0.18417090154E+03  0.72658111231E+03  0.89625104894E+02 0.  0.
        254    2    1    2    0    0 -0.67948589565E+03 -0.15578013346E+03  0.46600584017E+03  0.12331533470E+04  0.90417763840E+03 0.  0.
        -24    2    4    4    0    0 -0.88585911976E+03 -0.21105821540E+03  0.36002483619E+03  0.98238593242E+03  0.78563905240E+02 0.  0.
         24    2    4    4    0    0  0.20637322411E+03  0.55278081942E+02  0.10598100399E+03  0.25076741458E+03  0.77503219525E+02 0.  0.
         11    1    3    3    0    0  0.39054010445E+03  0.48687083896E+02 -0.82768764776E+02  0.40217244280E+03  0.00000000000E+00 0.  1.
        -11    1    3    3    0    0  0.28894579120E+03  0.10709304956E+03 -0.10140213676E+03  0.32440866951E+03  0.00000000000E+00 0. -1.
          2    1    6    6  502    0  0.38944937054E+02 -0.18894419663E+02  0.29114581165E+02  0.52166714032E+02  0.00000000000E+00 0. -1.
          1    1    5    5  503    0 -0.67797033461E+02 -0.21798731579E+02  0.71229567422E+01  0.71570657097E+02  0.00000000000E+00 0. -1.
         -2    1    5    5    0  503 -0.81806208630E+03 -0.18925948382E+03  0.35290187944E+03  0.91081527533E+03  0.00000000000E+00 0.  1.
         -1    1    6    6    0  502  0.16742828706E+03  0.74172501605E+02  0.76866422823E+02  0.19860070055E+03  0.00000000000E+00 0.  1.
<mgrwt>
<rscale>  0 0.19393628E+04</rscale>
<asrwt>0</asrwt>
<pdfrwt beam="1">  1        1 0.12906919E+00 0.19393628E+04</pdfrwt>
<pdfrwt beam="2">  1       -1 0.17242842E+00 0.19393628E+04</pdfrwt>
<totfact> 0.45068271E+00</totfact>
</mgrwt>
</event>
<event>
12    1  0.2083715E-007  0.3225965E+04  0.7818608E-02  0.8181993E-01
         -3   -1    0    0    0  501 -0.00000000000E+00  0.00000000000E+00  0.23880286283E+04  0.23880286283E+04  0.00000000000E+00 0.  1.
          3   -1    0    0  501    0  0.00000000000E+00 -0.00000000000E+00 -0.10894815293E+04  0.10894815293E+04  0.00000000000E+00 0. -1.
         23    2    1    2    0    0 -0.12118489127E+04  0.70687599758E+03  0.11257919432E+04  0.18013381747E+04  0.95709232978E+02 0.  0.
        254    2    1    2    0    0  0.12118489127E+04 -0.70687599758E+03  0.17275515575E+03  0.16761719828E+04  0.90080891924E+03 0.  0.
        -24    2    4    4    0    0  0.12418179592E+04 -0.33993702276E+03  0.11876381095E+03  0.12953623394E+04  0.78674801943E+02 0.  0.
         24    2    4    4    0    0 -0.29969046497E+02 -0.36693897482E+03  0.53991344797E+02  0.38080964337E+03  0.80984962706E+02 0.  0.
         13    1    3    3    0    0 -0.88320481651E+03  0.49898424797E+03  0.76088328685E+03  0.12680612776E+04  0.00000000000E+00 0. -1.
        -13    1    3    3    0    0 -0.32864409616E+03  0.20789174961E+03  0.36490865637E+03  0.53327689711E+03  0.00000000000E+00 0.  1.
          4    1    6    6  502    0 -0.16894987891E+02 -0.10860857483E+03 -0.20119400835E+02  0.11174101052E+03  0.00000000000E+00 0. -1.
          1    1    5    5  503    0  0.36365239494E+03 -0.10715957059E+03  0.70315233946E+02  0.38557809850E+03  0.00000000000E+00 0. -1.
         -2    1    5    5    0  503  0.87816556422E+03 -0.23277745217E+03  0.48448577005E+02  0.90978424093E+03  0.00000000000E+00 0.  1.
         -3    1    6    6    0  502 -0.13074058606E+02 -0.25833039999E+03  0.74110745632E+02  0.26906863285E+03  0.00000000000E+00 0.  1.
<mgrwt>
<rscale>  0 0.32259653E+04</rscale>
<asrwt>0</asrwt>
<pdfrwt beam="1">  1        3 0.16761254E+00 0.32259653E+04</pdfrwt>
<pdfrwt beam="2">  1       -3 0.36738902E+00 0.32259653E+04</pdfrwt>
<totfact> 0.84124070E-03</totfact>
</mgrwt>
</event>
<event>
12    1  0.2083715E-007  0.1461854E+04  0.7818608E-02  0.8910223E-01
          1   -1    0    0  501    0  0.00000000000E+00  0.00000000000E+00  0.74341322214E+03  0.74341322214E+03  0.00000000000E+00 0. -1.
         -1   -1    0    0    0  501 -0.00000000000E+00 -0.00000000000E+00 -0.71865070921E+03  0.71865070921E+03  0.00000000000E+00 0.  1.
         23    2    1    2    0    0 -0.38105080430E+03 -0.22850612083E+03  0.55702664124E+02  0.45706617990E+03  0.91607550451E+02 0.  0.
        254    2    1    2    0    0  0.38105080430E+03  0.22850612083E+03 -0.30940151188E+02  0.10049977514E+04  0.90091532606E+03 0.  0.
        -24    2    4    4    0    0  0.24169261427E+03  0.26525969997E+03  0.40025995923E+03  0.54341086831E+03  0.79431156437E+02 0.  0.
         24    2    4    4    0    0  0.13935819004E+03 -0.36753579139E+02 -0.43120011042E+03  0.46158688314E+03  0.79733209841E+02 0.  0.
         11    1    3    3    0    0 -0.18217363336E+03 -0.16084300842E+03  0.18460200004E+02  0.24371804412E+03  0.00000000000E+00 0. -1.
        -11    1    3    3    0    0 -0.19887717095E+03 -0.67663112415E+02  0.37242464121E+02  0.21334813578E+03  0.00000000000E+00 0.  1.
          4    1    6    6  502    0 -0.25683625495E+01  0.13444396357E+02 -0.27196264771E+02  0.30446429956E+02  0.00000000000E+00 0. -1.
          3    1    5    5  503    0  0.78144437759E+02  0.11876207571E+03  0.11160893507E+03  0.18074163374E+03  0.00000000000E+00 0. -1.
         -4    1    5    5    0  503  0.16354817651E+03  0.14649762426E+03  0.28865102416E+03  0.36266923457E+03  0.00000000000E+00 0.  1.
         -3    1    6    6    0  502  0.14192655259E+03 -0.50197975496E+02 -0.40400384565E+03  0.43114045318E+03  0.00000000000E+00 0.  1.
<mgrwt>
<rscale>  0 0.14618542E+04</rscale>
<asrwt>0</asrwt>
<pdfrwt beam="1">  1        1 0.11437127E+00 0.14618542E+04</pdfrwt>
<pdfrwt beam="2">  1       -1 0.11056165E+00 0.14618542E+04</pdfrwt>
<totfact> 0.18175125E+01</totfact>
</mgrwt>
</event>
<event>
12    1  0.2083715E-007  0.2472628E+04  0.7818608E-02  0.8412802E-01
         -1   -1    0    0    0  501 -0.00000000000E+00  0.00000000000E+00  0.14644296807E+04  0.14644296807E+04  0.00000000000E+00 0.  1.
          1   -1    0    0  501    0  0.00000000000E+00 -0.00000000000E+00 -0.10437319918E+04  0.10437319918E+04  0.00000000000E+00 0. -1.
         23    2    1    2    0    0 -0.20262693256E+03 -0.25098709631E+03  0.12195573439E+04  0.12648488743E+04  0.92034577071E+02 0.  0.
        254    2    1    2    0    0  0.20262693256E+03  0.25098709631E+03 -0.79885965508E+03  0.12433127982E+04  0.89643614908E+03 0.  0.
        -24    2    4    4    0    0  0.13243101615E+03  0.42024664829E+03 -0.90948093202E+03  0.10138133771E+04  0.80726565896E+02 0.  0.
         24    2    4    4    0    0  0.70195916412E+02 -0.16925955198E+03  0.11062127693E+03  0.22949942112E+03  0.82804919934E+02 0.  0.
         13    1    3    3    0    0 -0.88627264385E+02 -0.43722991054E+02  0.37139126318E+03  0.38431492595E+03  0.00000000000E+00 0. -1.
        -13    1    3    3    0    0 -0.11399966818E+03 -0.20726410525E+03  0.84816608077E+03  0.88053394837E+03  0.00000000000E+00 0.  1.
          2    1    6    6  502    0  0.30992695378E+02 -0.35896974257E+02  0.70232939761E+02  0.84745535311E+02  0.00000000000E+00 0. -1.
          1    1    5    5  503    0  0.11797054832E+03  0.40487987406E+03 -0.89100867542E+03  0.98576935556E+03  0.00000000000E+00 0. -1.
         -2    1    5    5    0  503  0.14460467835E+02  0.15366774227E+02 -0.18472256601E+02  0.28044021540E+02  0.00000000000E+00 0.  1.
         -1    1    6    6    0  502  0.39203221035E+02 -0.13336257773E+03  0.40388337173E+02  0.14475388581E+03  0.00000000000E+00 0.  1.
<mgrwt>
<rscale>  0 0.24726278E+04</rscale>
<asrwt>0</asrwt>
<pdfrwt beam="1">  1        1 0.16057415E+00 0.24726278E+04</pdfrwt>
<pdfrwt beam="2">  1       -1 0.22529688E+00 0.24726278E+04</pdfrwt>
<totfact> 0.12640031E+00</totfact>
</mgrwt>
</event>
<event>
12    1  0.2083715E-007  0.1167873E+04  0.7818608E-02  0.9141452E-01
          1   -1    0    0  501    0  0.00000000000E+00  0.00000000000E+00  0.73775679452E+03  0.73775679452E+03  0.00000000000E+00 0. -1.
         -1   -1    0    0    0  501 -0.00000000000E+00 -0.00000000000E+00 -0.46218709865E+03  0.46218709865E+03  0.00000000000E+00 0.  1.
         23    2    1    2    0    0  0.84521290950E+02 -0.18775953513E+03 -0.32431456360E+02  0.22713342978E+03  0.90223632737E+02 0.  0.
        254    2    1    2    0    0 -0.84521290950E+02  0.18775953513E+03  0.30800115223E+03  0.97281046339E+03  0.89949874722E+03 0.  0.
        -24    2    4    4    0    0  0.39165888707E+03  0.49749469235E+02  0.23209467112E+03  0.46487597835E+03  0.79812563983E+02 0.  0.
         24    2    4    4    0    0 -0.47618017802E+03  0.13801006589E+03  0.75906481112E+02  0.50793448505E+03  0.80257753475E+02 0.  0.
         13    1    3    3    0    0  0.59124696374E+02 -0.76055191948E+02 -0.54191851784E+02  0.11052999024E+03  0.00000000000E+00 0.  1.
        -13    1    3    3    0    0  0.25396594576E+02 -0.11170434318E+03  0.21760395424E+02  0.11660343953E+03  0.00000000000E+00 0. -1.
          4    1    6    6  502    0 -0.29631398322E+03  0.55862528522E+02  0.72686968061E+02  0.31017091107E+03  0.00000000000E+00 0. -1.
          1    1    5    5  503    0  0.24469420724E+03  0.68753905046E+02  0.15695736456E+03  0.29872724818E+03  0.00000000000E+00 0. -1.
         -2    1    5    5    0  503  0.14696467983E+03 -0.19004435811E+02  0.75137306560E+02  0.16614873017E+03  0.00000000000E+00 0.  1.
         -3    1    6    6    0  502 -0.17986619480E+03  0.82147537372E+02  0.32195130512E+01  0.19776357398E+03  0.00000000000E+00 0.  1.
<mgrwt>
<rscale>  0 0.11678727E+04</rscale>
<asrwt>0</asrwt>
<pdfrwt beam="1">  1        1 0.11350105E+00 0.11678727E+04</pdfrwt>
<pdfrwt beam="2">  1       -1 0.71105707E-01 0.11678727E+04</pdfrwt>
<totfact> 0.49812752E+01</totfact>
</mgrwt>
</event>
<event>
12    1  0.2083715E-007  0.1287890E+04  0.7818608E-02  0.9039224E-01
         -1   -1    0    0    0  501 -0.00000000000E+00  0.00000000000E+00  0.87687456745E+03  0.87687456745E+03  0.00000000000E+00 0.  1.
          1   -1    0    0  501    0  0.00000000000E+00 -0.00000000000E+00 -0.47289011320E+03  0.47289011320E+03  0.00000000000E+00 0. -1.
         23    2    1    2    0    0 -0.25476908676E+03 -0.20253644892E+01 -0.97229021020E+02  0.28747265271E+03  0.90970620859E+02 0.  0.
        254    2    1    2    0    0  0.25476908676E+03  0.20253644892E+01  0.50121347528E+03  0.10622920279E+04  0.90129796136E+03 0.  0.
        -24    2    4    4    0    0  0.47648021097E+03  0.29118038630E+03  0.28986842074E+03  0.63359193731E+03  0.74803962854E+02 0.  0.
         24    2    4    4    0    0 -0.22171112421E+03 -0.28915502181E+03  0.21134505453E+03  0.42870009063E+03  0.79690566528E+02 0.  0.
         11    1    3    3    0    0 -0.22383538903E+03 -0.64120376308E+01 -0.11478731017E+03  0.25163370638E+03  0.00000000000E+00 0. -1.
        -11    1    3    3    0    0 -0.30933697730E+02  0.43866731416E+01  0.17558289152E+02  0.35838946335E+02  0.00000000000E+00 0.  1.
          2    1    6    6  502    0 -0.22531414438E+03 -0.27617065324E+03  0.21285095417E+03  0.41514120737E+03  0.00000000000E+00 0. -1.
          3    1    5    5  503    0  0.37228224244E+03  0.23293731673E+03  0.19225443897E+03  0.47939089569E+03  0.00000000000E+00 0. -1.
         -4    1    5    5    0  503  0.10419796853E+03  0.58243069568E+02  0.97613981770E+02  0.15420104162E+03  0.00000000000E+00 0.  1.
         -1    1    6    6    0  502  0.36030201668E+01 -0.12984368573E+02 -0.15058996340E+01  0.13558883261E+02  0.00000000000E+00 0.  1.
<mgrwt>
<rscale>  0 0.12878902E+04</rscale>
<asrwt>0</asrwt>
<pdfrwt beam="1">  1        1 0.72752325E-01 0.12878902E+04</pdfrwt>
<pdfrwt beam="2">  1       -1 0.13490378E+00 0.12878902E+04</pdfrwt>
<totfact> 0.21723435E+01</totfact>
</mgrwt>
</event>
<event>
12    1  0.2083715E-007  0.1752363E+04  0.7818608E-02  0.8732050E-01
          2   -1    0    0  501    0  0.00000000000E+00  0.00000000000E+00  0.38042140457E+03  0.38042140457E+03  0.00000000000E+00 0. -1.
         -2   -1    0    0    0  501 -0.00000000000E+00 -0.00000000000E+00 -0.20180106222E+04  0.20180106222E+04  0.00000000000E+00 0.  1.
         23    2    1    2    0    0  0.39283211308E+03  0.25210675266E+02 -0.12954456969E+04  0.13569371088E+04  0.90255839684E+02 0.  0.
        254    2    1    2    0    0 -0.39283211308E+03 -0.25210675266E+02 -0.34214352080E+03  0.10414949180E+04  0.90149699284E+03 0.  0.
        -24    2    4    4    0    0  0.24282715362E+03  0.50064176714E+02  0.77257073779E+02  0.27206804626E+03  0.81122857590E+02 0.  0.
         24    2    4    4    0    0 -0.63565926670E+03 -0.75274851980E+02 -0.41940059458E+03  0.76942687170E+03  0.79949018004E+02 0.  0.
         13    1    3    3    0    0  0.35837956511E+03  0.16443078187E+02 -0.12417759423E+04  0.12925609380E+04  0.00000000000E+00 0.  1.
        -13    1    3    3    0    0  0.34452547965E+02  0.87675970788E+01 -0.53669754597E+02  0.64376170889E+02  0.00000000000E+00 0. -1.
          4    1    6    6  502    0 -0.20745411189E+02 -0.70992374018E+01 -0.34211682695E+02  0.40635089392E+02  0.00000000000E+00 0. -1.
          3    1    5    5  503    0  0.11689648449E+03 -0.61008392559E+00  0.69730161249E+02  0.13611559674E+03  0.00000000000E+00 0. -1.
         -4    1    5    5    0  503  0.12593066913E+03  0.50674260640E+02  0.75269125301E+01  0.13595244952E+03  0.00000000000E+00 0.  1.
         -3    1    6    6    0  502 -0.61491385551E+03 -0.68175614578E+02 -0.38518891188E+03  0.72879178230E+03  0.00000000000E+00 0.  1.
<mgrwt>
<rscale>  0 0.17523635E+04</rscale>
<asrwt>0</asrwt>
<pdfrwt beam="1">  1        2 0.58526371E-01 0.17523635E+04</pdfrwt>
<pdfrwt beam="2">  1       -2 0.31046317E+00 0.17523635E+04</pdfrwt>
<totfact> 0.21914834E+00</totfact>
</mgrwt>
</event>
<event>
12    1  0.2083715E-007  0.1544234E+04  0.7818608E-02  0.8855559E-01
         -1   -1    0    0    0  501 -0.00000000000E+00  0.00000000000E+00  0.66273871001E+03  0.66273871001E+03  0.00000000000E+00 0.  1.
          1   -1    0    0  501    0  0.00000000000E+00 -0.00000000000E+00 -0.89954688924E+03  0.89954688924E+03  0.00000000000E+00 0. -1.
         23    2    1    2    0    0 -0.67663911180E+01  0.49578873774E+03 -0.16053358201E+03  0.52985972720E+03  0.95540792503E+02 0.  0.
        254    2    1    2    0    0  0.67663911180E+01 -0.49578873774E+03 -0.76274597218E+02  0.10324258721E+04  0.90234866355E+03 0.  0.
        -24    2    4    4    0    0 -0.37458461585E+03 -0.31803213697E+03 -0.26516501269E+03  0.56424143962E+03  0.81227111543E+02 0.  0.
         24    2    4    4    0    0  0.38135100697E+03 -0.17775660077E+03  0.18889041547E+03  0.46818443244E+03  0.80567202354E+02 0.  0.
         13    1    3    3    0    0 -0.60816890760E+01  0.36983148082E+03 -0.74463764441E+02  0.37730248258E+03  0.00000000000E+00 0.  1.
        -13    1    3    3    0    0 -0.68470204202E+00  0.12595725692E+03 -0.86069817570E+02  0.15255724461E+03  0.00000000000E+00 0. -1.
          2    1    6    6  502    0  0.71913484957E+02 -0.60762431719E+02  0.67313593892E+02  0.11573565721E+03  0.00000000000E+00 0. -1.
          1    1    5    5  503    0 -0.79585408739E+02 -0.80403977777E+02 -0.10001750010E+03  0.15100376569E+03  0.00000000000E+00 0. -1.
         -2    1    5    5    0  503 -0.29499920711E+03 -0.23762815920E+03 -0.16514751259E+03  0.41323767393E+03  0.00000000000E+00 0.  1.
         -1    1    6    6    0  502  0.30943752201E+03 -0.11699416905E+03  0.12157682158E+03  0.35244877524E+03  0.00000000000E+00 0.  1.
<mgrwt>
<rscale>  0 0.15442338E+04</rscale>
<asrwt>0</asrwt>
<pdfrwt beam="1">  1        1 0.13839183E+00 0.15442338E+04</pdfrwt>
<pdfrwt beam="2">  1       -1 0.10195980E+00 0.15442338E+04</pdfrwt>
<totfact> 0.16005324E+01</totfact>
</mgrwt>
</event>
<event>
12    1  0.2083715E-007  0.1581573E+04  0.7818608E-02  0.8831949E-01
         -2   -1    0    0    0  501 -0.00000000000E+00  0.00000000000E+00  0.19237799026E+03  0.19237799026E+03  0.00000000000E+00 0.  1.
          2   -1    0    0  501    0  0.00000000000E+00 -0.00000000000E+00 -0.32505978463E+04  0.32505978463E+04  0.00000000000E+00 0. -1.
         23    2    1    2    0    0 -0.35796237555E+03 -0.35496325099E+03 -0.13964576634E+04  0.14875264039E+04  0.92221607022E+02 0.  0.
        254    2    1    2    0    0  0.35796237555E+03  0.35496325099E+03 -0.16617621926E+04  0.19554494326E+04  0.89899550992E+03 0.  0.
        -24    2    4    4    0    0  0.57785575513E+03 -0.18242671481E+02 -0.10669171963E+04  0.12160923821E+04  0.79487793726E+02 0.  0.
         24    2    4    4    0    0 -0.21989337958E+03  0.37320592247E+03 -0.59484499633E+03  0.73935705048E+03  0.71920230108E+02 0.  0.
         11    1    3    3    0    0 -0.12272909436E+03 -0.18175964080E+03 -0.64634128925E+03  0.68253648973E+03  0.00000000000E+00 0. -1.
        -11    1    3    3    0    0 -0.23523328119E+03 -0.17320361019E+03 -0.75011637413E+03  0.80498991416E+03  0.00000000000E+00 0.  1.
          4    1    6    6  502    0 -0.38886947682E+01  0.14025023643E+02 -0.49264506634E+02  0.51369396036E+02  0.00000000000E+00 0. -1.
          3    1    5    5  503    0  0.79548494384E+02 -0.42582084083E+00 -0.96456664687E+02  0.12502812661E+03  0.00000000000E+00 0. -1.
         -4    1    5    5    0  503  0.49830726075E+03 -0.17816850640E+02 -0.97046053161E+03  0.10910642555E+04  0.00000000000E+00 0.  1.
         -3    1    6    6    0  502 -0.21600468481E+03  0.35918089882E+03 -0.54558048969E+03  0.68798765445E+03  0.00000000000E+00 0.  1.
<mgrwt>
<rscale>  0 0.15815732E+04</rscale>
<asrwt>0</asrwt>
<pdfrwt beam="1">  1        2 0.50009196E+00 0.15815732E+04</pdfrwt>
<pdfrwt beam="2">  1       -2 0.29596615E-01 0.15815732E+04</pdfrwt>
<totfact> 0.12240697E+01</totfact>
</mgrwt>
</event>
<event>
12    1  0.2083715E-007  0.2843752E+04  0.7818608E-02  0.8289812E-01
         -2   -1    0    0    0  501 -0.00000000000E+00  0.00000000000E+00  0.63495837713E+03  0.63495837713E+03  0.00000000000E+00 0.  1.
          2   -1    0    0  501    0  0.00000000000E+00 -0.00000000000E+00 -0.31840369525E+04  0.31840369525E+04  0.00000000000E+00 0. -1.
         23    2    1    2    0    0 -0.83435872709E+03 -0.94829768378E+03 -0.13954195816E+04  0.18844954821E+04  0.93297540434E+02 0.  0.
        254    2    1    2    0    0  0.83435872709E+03  0.94829768378E+03 -0.11536589938E+04  0.19344998474E+04  0.90329264547E+03 0.  0.
        -24    2    4    4    0    0  0.82505814853E+03  0.10942012350E+04 -0.11029145779E+04  0.17608911996E+04  0.79498172102E+02 0.  0.
         24    2    4    4    0    0  0.93005785636E+01 -0.14590355127E+03 -0.50744415857E+02  0.17360864787E+03  0.78680492118E+02 0.  0.
         13    1    3    3    0    0 -0.48650072545E+02 -0.26805033353E+02 -0.62727051822E+02  0.83785573950E+02  0.00000000000E+00 0.  1.
        -13    1    3    3    0    0 -0.78570865455E+03 -0.92149265043E+03 -0.13326925298E+04  0.18007099082E+04  0.00000000000E+00 0. -1.
          4    1    6    6  502    0  0.25496876283E+02 -0.68455271011E+02  0.10168931227E+02  0.73753793066E+02  0.00000000000E+00 0. -1.
          3    1    5    5  503    0  0.51496839403E+03  0.71158786254E+03 -0.74992370354E+03  0.11549611656E+04  0.00000000000E+00 0. -1.
         -4    1    5    5    0  503  0.31008975450E+03  0.38261337251E+03 -0.35299087436E+03  0.60593003396E+03  0.00000000000E+00 0.  1.
         -3    1    6    6    0  502 -0.16196297719E+02 -0.77448280258E+02 -0.60913347084E+02  0.99854854803E+02  0.00000000000E+00 0.  1.
<mgrwt>
<rscale>  0 0.28437517E+04</rscale>
<asrwt>0</asrwt>
<pdfrwt beam="1">  1        2 0.48985185E+00 0.28437517E+04</pdfrwt>
<pdfrwt beam="2">  1       -2 0.97685903E-01 0.28437517E+04</pdfrwt>
<totfact> 0.10048769E+00</totfact>
</mgrwt>
</event>
<event>
12    1  0.2083715E-007  0.1387301E+04  0.7818608E-02  0.8963062E-01
         -2   -1    0    0    0  501 -0.00000000000E+00  0.00000000000E+00  0.49921408964E+03  0.49921408964E+03  0.00000000000E+00 0.  1.
          2   -1    0    0  501    0  0.00000000000E+00 -0.00000000000E+00 -0.96381737973E+03  0.96381737973E+03  0.00000000000E+00 0. -1.
         23    2    1    2    0    0 -0.25028926169E+03 -0.29004177056E+03 -0.22286041288E+03  0.45866708586E+03  0.11806688289E+03 0.  0.
        254    2    1    2    0    0  0.25028926169E+03  0.29004177056E+03 -0.24174287720E+03  0.10043643835E+04  0.89640351015E+03 0.  0.
        -24    2    4    4    0    0  0.44054381592E+00  0.47748156309E+03  0.14044263706E+03  0.50439105527E+03  0.81837431298E+02 0.  0.
         24    2    4    4    0    0  0.24984871787E+03 -0.18743979253E+03 -0.38218551426E+03  0.49997332824E+03  0.79683774992E+02 0.  0.
         11    1    3    3    0    0 -0.16958236465E+03 -0.20492528176E+03 -0.88544565952E+02  0.28034387752E+03  0.00000000000E+00 0.  1.
        -11    1    3    3    0    0 -0.80706897035E+02 -0.85116488798E+02 -0.13431584693E+03  0.17832320834E+03  0.00000000000E+00 0. -1.
          4    1    6    6  502    0  0.60510409619E+02 -0.87036478588E+01 -0.59125300961E+02  0.85047424253E+02  0.00000000000E+00 0. -1.
          1    1    5    5  503    0 -0.21714379482E+02  0.85460165354E+02  0.24764728664E+01  0.88210470221E+02  0.00000000000E+00 0. -1.
         -2    1    5    5    0  503  0.22154923298E+02  0.39202139773E+03  0.13796616419E+03  0.41618058505E+03  0.00000000000E+00 0.  1.
         -3    1    6    6    0  502  0.18933830825E+03 -0.17873614467E+03 -0.32306021330E+03  0.41492590399E+03  0.00000000000E+00 0.  1.
<mgrwt>
<rscale>  0 0.13873013E+04</rscale>
<asrwt>0</asrwt>
<pdfrwt beam="1">  1        2 0.14827960E+00 0.13873013E+04</pdfrwt>
<pdfrwt beam="2">  1       -2 0.76802168E-01 0.13873013E+04</pdfrwt>
<totfact> 0.39243157E+01</totfact>
</mgrwt>
</event>
<event>
12    1  0.2083715E-007  0.1218653E+04  0.7818608E-02  0.9096684E-01
         -1   -1    0    0    0  501 -0.00000000000E+00  0.00000000000E+00  0.14652681060E+04  0.14652681060E+04  0.00000000000E+00 0.  1.
          1   -1    0    0  501    0  0.00000000000E+00 -0.00000000000E+00 -0.25338636656E+03  0.25338636656E+03  0.00000000000E+00 0. -1.
         23    2    1    2    0    0  0.14582132698E+03  0.69691589589E+02 -0.16642010337E+02  0.18677510317E+03  0.92126031036E+02 0.  0.
        254    2    1    2    0    0 -0.14582132698E+03 -0.69691589589E+02  0.12285237498E+04  0.15318793694E+04  0.90070140531E+03 0.  0.
        -24    2    4    4    0    0  0.15029725015E+03 -0.41066697296E+03  0.73290457023E+03  0.85661411591E+03  0.73498356739E+02 0.  0.
         24    2    4    4    0    0 -0.29611857713E+03  0.34097538337E+03  0.49561917953E+03  0.67526525346E+03  0.79964789912E+02 0.  0.
         11    1    3    3    0    0  0.62186023635E+02  0.45893160710E+02 -0.51736274004E+02  0.93004977196E+02  0.00000000000E+00 0. -1.
        -11    1    3    3    0    0  0.83635303348E+02  0.23798428879E+02  0.35094263667E+02  0.93770125976E+02  0.00000000000E+00 0.  1.
          4    1    6    6  502    0 -0.40770395404E+02  0.54452702905E+02  0.37672415956E+02  0.77759455496E+02  0.00000000000E+00 0. -1.
          1    1    5    5  503    0  0.15988350229E+02 -0.52333781210E+02  0.14655027531E+03  0.15643348488E+03  0.00000000000E+00 0. -1.
         -2    1    5    5    0  503  0.13430889992E+03 -0.35833319175E+03  0.58635429492E+03  0.70018063103E+03  0.00000000000E+00 0.  1.
         -1    1    6    6    0  502 -0.25534818173E+03  0.28652268046E+03  0.45794676358E+03  0.59750579796E+03  0.00000000000E+00 0.  1.
<mgrwt>
<rscale>  0 0.12186533E+04</rscale>
<asrwt>0</asrwt>
<pdfrwt beam="1">  1        1 0.38982519E-01 0.12186533E+04</pdfrwt>
<pdfrwt beam="2">  1       -1 0.22542586E+00 0.12186533E+04</pdfrwt>
<totfact> 0.10945721E+01</totfact>
</mgrwt>
</event>
<event>
12    1  0.2083715E-007  0.1356275E+04  0.7818608E-02  0.8986092E-01
          1   -1    0    0  501    0  0.00000000000E+00  0.00000000000E+00  0.30804673143E+04  0.30804673143E+04  0.00000000000E+00 0. -1.
         -1   -1    0    0    0  501 -0.00000000000E+00 -0.00000000000E+00 -0.14928593718E+03  0.14928593718E+03  0.00000000000E+00 0.  1.
         23    2    1    2    0    0 -0.26029800647E+03  0.13335470694E+03  0.13680509132E+04  0.14029880949E+04  0.10617797980E+03 0.  0.
        254    2    1    2    0    0  0.26029800647E+03 -0.13335470694E+03  0.15631304639E+04  0.18267651565E+04  0.89897472706E+03 0.  0.
        -24    2    4    4    0    0  0.14104793138E+03 -0.43542231821E+03  0.38893475720E+03  0.60583411730E+03  0.79231421662E+02 0.  0.
         24    2    4    4    0    0  0.11925007508E+03  0.30206761127E+03  0.11741957067E+04  0.12209310392E+04  0.80446396720E+02 0.  0.
         11    1    3    3    0    0 -0.21088089699E+03  0.69691536223E+02  0.84199336013E+03  0.87079301871E+03  0.00000000000E+00 0.  1.
        -11    1    3    3    0    0 -0.49417109476E+02  0.63663170721E+02  0.52605755308E+03  0.53219507623E+03  0.00000000000E+00 0. -1.
          4    1    6    6  502    0  0.69464985994E+02  0.17172568186E+03  0.51967444257E+03  0.55170338077E+03  0.00000000000E+00 0. -1.
          3    1    5    5  503    0  0.93506794861E+01 -0.64561548139E+01  0.27135618997E+02  0.29418683862E+02  0.00000000000E+00 0. -1.
         -4    1    5    5    0  503  0.13169725190E+03 -0.42896616340E+03  0.36179913821E+03  0.57641543344E+03  0.00000000000E+00 0.  1.
         -3    1    6    6    0  502  0.49785089089E+02  0.13034192941E+03  0.65452126410E+03  0.66922765844E+03  0.00000000000E+00 0.  1.
<mgrwt>
<rscale>  0 0.13562750E+04</rscale>
<asrwt>0</asrwt>
<pdfrwt beam="1">  1        1 0.47391800E+00 0.13562750E+04</pdfrwt>
<pdfrwt beam="2">  1       -1 0.22967070E-01 0.13562750E+04</pdfrwt>
<totfact> 0.83466990E+00</totfact>
</mgrwt>
</event>
<event>
12    1  0.2083715E-007  0.4592295E+04  0.7818608E-02  0.7894675E-01
          1   -1    0    0  501    0  0.00000000000E+00  0.00000000000E+00  0.27810899347E+04  0.27810899347E+04  0.00000000000E+00 0. -1.
         -1   -1    0    0    0  501 -0.00000000000E+00 -0.00000000000E+00 -0.18957647556E+04  0.18957647556E+04  0.00000000000E+00 0.  1.
         23    2    1    2    0    0 -0.16158737858E+04  0.51863713310E+03  0.18629240716E+04  0.25216717144E+04  0.91156849918E+02 0.  0.
        254    2    1    2    0    0  0.16158737858E+04 -0.51863713310E+03 -0.97759889247E+03  0.21551829759E+04  0.89948957610E+03 0.  0.
        -24    2    4    4    0    0  0.11923523342E+04 -0.75371916743E+03 -0.84644308464E+03  0.16470725252E+04  0.81150081109E+02 0.  0.
         24    2    4    4    0    0  0.42352145162E+03  0.23508203433E+03 -0.13115580783E+03  0.50811045065E+03  0.79626636769E+02 0.  0.
         11    1    3    3    0    0 -0.49299697085E+03  0.19154852959E+03  0.62188001521E+03  0.81637712227E+03  0.00000000000E+00 0.  1.
        -11    1    3    3    0    0 -0.11228768149E+04  0.32708860352E+03  0.12410440564E+04  0.17052945921E+04  0.00000000000E+00 0. -1.
          2    1    6    6  502    0  0.34706548228E+03  0.22154510532E+03 -0.12460446235E+03  0.43018944050E+03  0.00000000000E+00 0. -1.
          3    1    5    5  503    0  0.10212708217E+04 -0.66036489843E+03 -0.69948137915E+03  0.14029790056E+04  0.00000000000E+00 0. -1.
         -4    1    5    5    0  503  0.17108151244E+03 -0.93354269006E+02 -0.14696170549E+03  0.24409351963E+03  0.00000000000E+00 0.  1.
         -3    1    6    6    0  502  0.76455969345E+02  0.13536929013E+02 -0.65513454828E+01  0.77921010153E+02  0.00000000000E+00 0.  1.
<mgrwt>
<rscale>  0 0.45922945E+04</rscale>
<asrwt>0</asrwt>
<pdfrwt beam="1">  1        1 0.42785999E+00 0.45922945E+04</pdfrwt>
<pdfrwt beam="2">  1       -1 0.29165612E+00 0.45922945E+04</pdfrwt>
<totfact> 0.23982384E-02</totfact>
</mgrwt>
</event>
<event>
12    1  0.2083715E-007  0.2040112E+04  0.7818608E-02  0.8588093E-01
          1   -1    0    0  501    0  0.00000000000E+00  0.00000000000E+00  0.15009873787E+04  0.15009873787E+04  0.00000000000E+00 0. -1.
         -1   -1    0    0    0  501 -0.00000000000E+00 -0.00000000000E+00 -0.69322005416E+03  0.69322005416E+03  0.00000000000E+00 0.  1.
         23    2    1    2    0    0 -0.71927038360E+03  0.17251487171E+03  0.70301806898E+03  0.10239624535E+04  0.84577982364E+02 0.  0.
        254    2    1    2    0    0  0.71927038360E+03 -0.17251487171E+03  0.10474925558E+03  0.11702449794E+04  0.90077169116E+03 0.  0.
        -24    2    4    4    0    0  0.59786176036E+03 -0.43613914370E+03  0.30937090828E+03  0.80600970744E+03  0.79279583873E+02 0.  0.
         24    2    4    4    0    0  0.12140862324E+03  0.26362427199E+03 -0.20462165271E+03  0.36423527197E+03  0.80990752647E+02 0.  0.
         13    1    3    3    0    0 -0.10973098229E+03  0.28870546815E+02  0.15299077423E+03  0.19047460184E+03  0.00000000000E+00 0. -1.
        -13    1    3    3    0    0 -0.60953940132E+03  0.14364432489E+03  0.55002729475E+03  0.83348785162E+03  0.00000000000E+00 0.  1.
          2    1    6    6  502    0  0.47586357986E+02  0.13470364406E+03 -0.14673777791E+03  0.20479626133E+03  0.00000000000E+00 0. -1.
          3    1    5    5  503    0  0.39914476751E+03 -0.32036544878E+03  0.24347985878E+03  0.56677421239E+03  0.00000000000E+00 0. -1.
         -4    1    5    5    0  503  0.19871699285E+03 -0.11577369491E+03  0.65891049506E+02  0.23923549504E+03  0.00000000000E+00 0.  1.
         -1    1    6    6    0  502  0.73822265251E+02  0.12892062793E+03 -0.57883874795E+02  0.15943901064E+03  0.00000000000E+00 0.  1.
<mgrwt>
<rscale>  0 0.20401123E+04</rscale>
<asrwt>0</asrwt>
<pdfrwt beam="1">  1        1 0.23092113E+00 0.20401123E+04</pdfrwt>
<pdfrwt beam="2">  1       -1 0.10664924E+00 0.20401123E+04</pdfrwt>
<totfact> 0.49563073E+00</totfact>
</mgrwt>
</event>
<event>
12    1  0.2083715E-007  0.1051101E+04  0.7818608E-02  0.9254208E-01
          1   -1    0    0  501    0  0.00000000000E+00  0.00000000000E+00  0.14611106032E+04  0.14611106032E+04  0.00000000000E+00 0. -1.
         -1   -1    0    0    0  501 -0.00000000000E+00 -0.00000000000E+00 -0.18903671346E+03  0.18903671346E+03  0.00000000000E+00 0.  1.
         23    2    1    2    0    0 -0.19406040440E+01 -0.52726790365E+02  0.32759832747E+03  0.34414679491E+03  0.91282374632E+02 0.  0.
        254    2    1    2    0    0  0.19406040440E+01  0.52726790365E+02  0.94447556223E+03  0.13060005217E+04  0.90045510422E+03 0.  0.
        -24    2    4    4    0    0 -0.21618164149E+03 -0.15265032299E+03  0.95507339364E+03  0.99448155005E+03  0.82412031436E+02 0.  0.
         24    2    4    4    0    0  0.21812224553E+03  0.20537711335E+03 -0.10597831412E+02  0.31151897167E+03  0.84703500472E+02 0.  0.
         13    1    3    3    0    0  0.35427934695E+02 -0.57727801782E+02  0.21085743714E+03  0.22146895144E+03  0.00000000000E+00 0.  1.
        -13    1    3    3    0    0 -0.37368538739E+02  0.50010114173E+01  0.11674089033E+03  0.12267784347E+03  0.00000000000E+00 0. -1.
          2    1    6    6  502    0 -0.31152062424E+01 -0.50682367507E+01  0.54905869129E+00  0.59743618187E+01  0.00000000000E+00 0. -1.
          3    1    5    5  503    0 -0.73549376375E+02 -0.15880125744E+02  0.34850925230E+03  0.35653946219E+03  0.00000000000E+00 0. -1.
         -4    1    5    5    0  503 -0.14263226511E+03 -0.13677019724E+03  0.60656414134E+03  0.63794208786E+03  0.00000000000E+00 0.  1.
         -1    1    6    6    0  502  0.22123745178E+03  0.21044535010E+03 -0.11146890103E+02  0.30554460985E+03  0.00000000000E+00 0.  1.
<mgrwt>
<rscale>  0 0.10511014E+04</rscale>
<asrwt>0</asrwt>
<pdfrwt beam="1">  1        1 0.22478624E+00 0.10511014E+04</pdfrwt>
<pdfrwt beam="2">  1       -1 0.29082572E-01 0.10511014E+04</pdfrwt>
<totfact> 0.74958930E+01</totfact>
</mgrwt>
</event>
<event>
12    1  0.2083715E-007  0.1722265E+04  0.7818608E-02  0.8748767E-01
          1   -1    0    0  501    0  0.00000000000E+00  0.00000000000E+00  0.42775058266E+03  0.42775058266E+03  0.00000000000E+00 0. -1.
         -1   -1    0    0    0  501 -0.00000000000E+00 -0.00000000000E+00 -0.17336017797E+04  0.17336017797E+04  0.00000000000E+00 0.  1.
         23    2    1    2    0    0  0.57599636621E+03  0.22627627930E+03 -0.51256483813E+03  0.80868321935E+03  0.90956404491E+02 0.  0.
        254    2    1    2    0    0 -0.57599636621E+03 -0.22627627930E+03 -0.79328635894E+03  0.13526691430E+04  0.90412266579E+03 0.  0.
        -24    2    4    4    0    0 -0.22160967560E+03 -0.13419433454E+03 -0.91895093914E+03  0.95755558106E+03  0.72958169802E+02 0.  0.
         24    2    4    4    0    0 -0.35438669061E+03 -0.92081944757E+02  0.12566458019E+03  0.39511356198E+03  0.79083051973E+02 0.  0.
         11    1    3    3    0    0  0.41617060466E+03  0.19890709926E+03 -0.34947074783E+03  0.57869837559E+03  0.00000000000E+00 0. -1.
        -11    1    3    3    0    0  0.15982576155E+03  0.27369180034E+02 -0.16309409030E+03  0.22998484377E+03  0.00000000000E+00 0.  1.
          4    1    6    6  502    0 -0.31733004641E+02 -0.20677280623E+02 -0.78854043927E+01  0.38687376752E+02  0.00000000000E+00 0. -1.
          1    1    5    5  503    0 -0.36069272927E+02 -0.47915692844E+02 -0.14274830430E+03  0.15483534626E+03  0.00000000000E+00 0. -1.
         -2    1    5    5    0  503 -0.18554040267E+03 -0.86278641695E+02 -0.77620263484E+03  0.80272023481E+03  0.00000000000E+00 0.  1.
         -3    1    6    6    0  502 -0.32265368597E+03 -0.71404664134E+02  0.13354998459E+03  0.35642618523E+03  0.00000000000E+00 0.  1.
<mgrwt>
<rscale>  0 0.17222650E+04</rscale>
<asrwt>0</asrwt>
<pdfrwt beam="1">  1        1 0.65807783E-01 0.17222650E+04</pdfrwt>
<pdfrwt beam="2">  1       -1 0.26670796E+00 0.17222650E+04</pdfrwt>
<totfact> 0.28284461E+00</totfact>
</mgrwt>
</event>
<event>
12    1  0.2083715E-007  0.2120920E+04  0.7818608E-02  0.8552084E-01
         -2   -1    0    0    0  501 -0.00000000000E+00  0.00000000000E+00  0.77571255032E+03  0.77571255032E+03  0.00000000000E+00 0.  1.
          2   -1    0    0  501    0  0.00000000000E+00 -0.00000000000E+00 -0.14497314956E+04  0.14497314956E+04  0.00000000000E+00 0. -1.
         23    2    1    2    0    0 -0.29486087566E+03  0.67012720666E+03  0.20939195272E+03  0.76699816419E+03  0.91802967849E+02 0.  0.
        254    2    1    2    0    0  0.29486087566E+03 -0.67012720666E+03 -0.88341089805E+03  0.14584458818E+04  0.90035335628E+03 0.  0.
        -24    2    4    4    0    0 -0.23960022033E+03 -0.52330470040E+03 -0.31790636757E+03  0.66256351500E+03  0.81669319950E+02 0.  0.
         24    2    4    4    0    0  0.53446109599E+03 -0.14682250626E+03 -0.56550453047E+03  0.79588236678E+03  0.80173912750E+02 0.  0.
         11    1    3    3    0    0 -0.15885668440E+02  0.86158686684E+02  0.48400583662E+02  0.10009140948E+03  0.00000000000E+00 0.  1.
        -11    1    3    3    0    0 -0.27897520722E+03  0.58396851998E+03  0.16099136906E+03  0.66690675471E+03  0.00000000000E+00 0. -1.
          4    1    6    6  502    0  0.35686508333E+03 -0.13493820965E+03 -0.40126799227E+03  0.55369396759E+03  0.00000000000E+00 0. -1.
          1    1    5    5  503    0 -0.88247489352E+02 -0.18575630358E+03 -0.69955519265E+02  0.21722522499E+03  0.00000000000E+00 0. -1.
         -2    1    5    5    0  503 -0.15135273098E+03 -0.33754839682E+03 -0.24795084831E+03  0.44533829001E+03  0.00000000000E+00 0.  1.
         -3    1    6    6    0  502  0.17759601266E+03 -0.11884296605E+02 -0.16423653820E+03  0.24218839919E+03  0.00000000000E+00 0.  1.
<mgrwt>
<rscale>  0 0.21209195E+04</rscale>
<asrwt>0</asrwt>
<pdfrwt beam="1">  1        2 0.22303561E+00 0.21209195E+04</pdfrwt>
<pdfrwt beam="2">  1       -2 0.11934039E+00 0.21209195E+04</pdfrwt>
<totfact> 0.67142235E+00</totfact>
</mgrwt>
</event>
<event>
12    1  0.2083715E-007  0.1634653E+04  0.7818608E-02  0.8799537E-01
          2   -1    0    0  501    0  0.00000000000E+00  0.00000000000E+00  0.16174452459E+04  0.16174452459E+04  0.00000000000E+00 0. -1.
         -2   -1    0    0    0  501 -0.00000000000E+00 -0.00000000000E+00 -0.41301120250E+03  0.41301120250E+03  0.00000000000E+00 0.  1.
         23    2    1    2    0    0  0.55617832488E+03 -0.56020867047E+02  0.31907627271E+03  0.65017476311E+03  0.91896072650E+02 0.  0.
        254    2    1    2    0    0 -0.55617832488E+03  0.56020867047E+02  0.88535777071E+03  0.13802816853E+04  0.89935892836E+03 0.  0.
        -24    2    4    4    0    0 -0.89414691992E+02  0.39556402815E+03  0.14376534828E+03  0.43638721212E+03  0.72797225406E+02 0.  0.
         24    2    4    4    0    0 -0.46676363289E+03 -0.33954316110E+03  0.74159242243E+03  0.94389447318E+03  0.88428548906E+02 0.  0.
         11    1    3    3    0    0  0.52862176683E+03 -0.31707402328E+02  0.30226707193E+03  0.60976365462E+03  0.00000000000E+00 0. -1.
        -11    1    3    3    0    0  0.27556558054E+02 -0.24313464719E+02  0.16809200777E+02  0.40411108487E+02  0.00000000000E+00 0.  1.
          4    1    6    6  502    0 -0.12278582626E+03 -0.14003046247E+03  0.24191684077E+03  0.30530091287E+03  0.00000000000E+00 0. -1.
          1    1    5    5  503    0 -0.52711041843E+02  0.10656972311E+03  0.23343501237E+02  0.12116302599E+03  0.00000000000E+00 0. -1.
         -2    1    5    5    0  503 -0.36703650149E+02  0.28899430504E+03  0.12042184705E+03  0.31522418614E+03  0.00000000000E+00 0.  1.
         -3    1    6    6    0  502 -0.34397780663E+03 -0.19951269863E+03  0.49967558165E+03  0.63859356031E+03  0.00000000000E+00 0.  1.
<mgrwt>
<rscale>  0 0.16346535E+04</rscale>
<asrwt>0</asrwt>
<pdfrwt beam="1">  1        2 0.24883773E+00 0.16346535E+04</pdfrwt>
<pdfrwt beam="2">  1       -2 0.63540186E-01 0.16346535E+04</pdfrwt>
<totfact> 0.23902160E+01</totfact>
</mgrwt>
</event>
<event>
12    1  0.2083715E-007  0.1349783E+04  0.7818608E-02  0.8990992E-01
          1   -1    0    0  501    0  0.00000000000E+00  0.00000000000E+00  0.33163058305E+04  0.33163058305E+04  0.00000000000E+00 0. -1.
         -1   -1    0    0    0  501 -0.00000000000E+00 -0.00000000000E+00 -0.13734524039E+03  0.13734524039E+03  0.00000000000E+00 0.  1.
         23    2    1    2    0    0 -0.17678915723E+03  0.14024857929E+03  0.16276922674E+04  0.16457858464E+04  0.91131031338E+02 0.  0.
        254    2    1    2    0    0  0.17678915723E+03 -0.14024857929E+03  0.15512683228E+04  0.18078652245E+04  0.90056603905E+03 0.  0.
        -24    2    4    4    0    0 -0.55162090318E+02 -0.41439786137E+03  0.12857940139E+04  0.13543963577E+04  0.79717023064E+02 0.  0.
         24    2    4    4    0    0  0.23195124755E+03  0.27414928208E+03  0.26547430887E+03  0.45346886686E+03  0.78728612518E+02 0.  0.
         13    1    3    3    0    0 -0.12255576299E+02  0.55826791554E+02  0.46072501104E+03  0.46425678843E+03  0.00000000000E+00 0. -1.
        -13    1    3    3    0    0 -0.16453358094E+03  0.84421787734E+02  0.11669672563E+04  0.11815290580E+04  0.00000000000E+00 0.  1.
          2    1    6    6  502    0  0.92678382462E+02  0.12123948669E+03  0.16070525094E+03  0.22161785440E+03  0.00000000000E+00 0. -1.
          1    1    5    5  503    0 -0.51676551309E+01 -0.65109832009E+02  0.12327715479E+03  0.13951075864E+03  0.00000000000E+00 0. -1.
         -2    1    5    5    0  503 -0.49994435187E+02 -0.34928802936E+03  0.11625168591E+04  0.12148855990E+04  0.00000000000E+00 0.  1.
         -1    1    6    6    0  502  0.13927286509E+03  0.15290979539E+03  0.10476905793E+03  0.23185101246E+03  0.00000000000E+00 0.  1.
<mgrwt>
<rscale>  0 0.13497834E+04</rscale>
<asrwt>0</asrwt>
<pdfrwt beam="1">  1        1 0.51020084E+00 0.13497834E+04</pdfrwt>
<pdfrwt beam="2">  1       -1 0.21130040E-01 0.13497834E+04</pdfrwt>
<totfact> 0.64190880E+00</totfact>
</mgrwt>
</event>
<event>
12    1  0.2122729E-007  0.2695609E+04  0.7818608E-02  0.8336431E-01
          1   -1    0    0  501    0  0.00000000000E+00  0.00000000000E+00  0.18546332648E+04  0.18546332648E+04  0.00000000000E+00 0. -1.
         -1   -1    0    0    0  501 -0.00000000000E+00 -0.00000000000E+00 -0.97948065121E+03  0.97948065121E+03  0.00000000000E+00 0.  1.
         23    2    1    2    0    0  0.70387910224E+02 -0.71420481501E+03 -0.61581354467E+03  0.95011493417E+03  0.91918935168E+02 0.  0.
        254    2    1    2    0    0 -0.70387910224E+02  0.71420481501E+03  0.14909661582E+04  0.18839989818E+04  0.90079359609E+03 0.  0.
        -24    2    4    4    0    0  0.22158149072E+03 -0.77473785467E+02  0.12832134038E+03  0.27930400273E+03  0.80273377172E+02 0.  0.
         24    2    4    4    0    0 -0.29196940094E+03  0.79167860048E+03  0.13626448178E+04  0.16046949791E+04  0.79018597158E+02 0.  0.
         13    1    3    3    0    0  0.12988909074E+02 -0.44947734483E+03 -0.34191499046E+03  0.56489331380E+03  0.00000000000E+00 0. -1.
        -13    1    3    3    0    0  0.57399001150E+02 -0.26472747018E+03 -0.27389855422E+03  0.38522162037E+03  0.00000000000E+00 0.  1.
          2    1    6    6  502    0 -0.36702186331E+01  0.27354910840E+02  0.73626566597E+02  0.78629720594E+02  0.00000000000E+00 0. -1.
          3    1    5    5  503    0  0.13713293567E+01 -0.28339695351E+01 -0.88144665890E+01  0.93598476900E+01  0.00000000000E+00 0. -1.
         -4    1    5    5    0  503  0.22021016136E+03 -0.74639815932E+02  0.13713580697E+03  0.26994415504E+03  0.00000000000E+00 0.  1.
         -1    1    6    6    0  502 -0.28829918231E+03  0.76432368964E+03  0.12890182512E+04  0.15260652585E+04  0.00000000000E+00 0.  1.
<mgrwt>
<rscale>  0 0.26956093E+04</rscale>
<asrwt>0</asrwt>
<pdfrwt beam="1">  1        1 0.28532819E+00 0.26956093E+04</pdfrwt>
<pdfrwt beam="2">  1       -1 0.15068933E+00 0.26956093E+04</pdfrwt>
<totfact> 0.11257634E+00</totfact>
</mgrwt>
</event>
<event>
12    1  0.2083715E-007  0.1887958E+04  0.7818608E-02  0.8660874E-01
         -2   -1    0    0    0  501 -0.00000000000E+00  0.00000000000E+00  0.55779720785E+03  0.55779720785E+03  0.00000000000E+00 0.  1.
          2   -1    0    0  501    0  0.00000000000E+00 -0.00000000000E+00 -0.15975273168E+04  0.15975273168E+04  0.00000000000E+00 0. -1.
         23    2    1    2    0    0 -0.18350501551E+03 -0.29969705737E+03  0.32134043986E+03  0.48502309618E+03  0.92169998530E+02 0.  0.
        254    2    1    2    0    0  0.18350501551E+03  0.29969705737E+03 -0.13610705488E+04  0.16703014285E+04  0.90216484423E+03 0.  0.
        -24    2    4    4    0    0 -0.31154137456E+03  0.17245737778E+03 -0.24278736986E+03  0.43818232565E+03  0.79110481823E+02 0.  0.
         24    2    4    4    0    0  0.49504639008E+03  0.12723967959E+03 -0.11182831790E+04  0.12321191028E+04  0.79368449557E+02 0.  0.
         11    1    3    3    0    0 -0.15820881737E+03 -0.21394010988E+03  0.19342946890E+03  0.32896103105E+03  0.00000000000E+00 0. -1.
        -11    1    3    3    0    0 -0.25296198149E+02 -0.85756947486E+02  0.12791097096E+03  0.15606206514E+03  0.00000000000E+00 0.  1.
          2    1    6    6  502    0  0.48147549410E+03  0.12671864776E+03 -0.10444161449E+04  0.11570139804E+04  0.00000000000E+00 0. -1.
          3    1    5    5  503    0 -0.31217595468E+03  0.15727965322E+03 -0.23169281095E+03  0.41937128496E+03  0.00000000000E+00 0. -1.
         -4    1    5    5    0  503  0.63458011982E+00  0.15177724555E+02 -0.11094558903E+02  0.18811040690E+02  0.00000000000E+00 0.  1.
         -1    1    6    6    0  502  0.13570895976E+02  0.52103183450E+00 -0.73867034109E+02  0.75105122461E+02  0.00000000000E+00 0.  1.
<mgrwt>
<rscale>  0 0.18879579E+04</rscale>
<asrwt>0</asrwt>
<pdfrwt beam="1">  1        2 0.24577343E+00 0.18879579E+04</pdfrwt>
<pdfrwt beam="2">  1       -2 0.85814955E-01 0.18879579E+04</pdfrwt>
<totfact> 0.12364714E+01</totfact>
</mgrwt>
</event>
<event>
12    1  0.2083715E-007  0.1418850E+04  0.7818608E-02  0.8940286E-01
          1   -1    0    0  501    0  0.00000000000E+00  0.00000000000E+00  0.10233497384E+04  0.10233497384E+04  0.00000000000E+00 0. -1.
         -1   -1    0    0    0  501 -0.00000000000E+00 -0.00000000000E+00 -0.49180061035E+03  0.49180061035E+03  0.00000000000E+00 0.  1.
         23    2    1    2    0    0 -0.32457497687E+03 -0.87002813023E+02 -0.10470005104E+03  0.36325978399E+03  0.89873048761E+02 0.  0.
        254    2    1    2    0    0  0.32457497687E+03  0.87002813023E+02  0.63624917904E+03  0.11518905647E+04  0.89951122848E+03 0.  0.
        -24    2    4    4    0    0  0.23295892791E+03  0.48392664114E+03  0.41400272120E+03  0.68267225626E+03  0.78665749905E+02 0.  0.
         24    2    4    4    0    0  0.91616048959E+02 -0.39692382812E+03  0.22224645784E+03  0.46921830845E+03  0.69500411591E+02 0.  0.
         13    1    3    3    0    0 -0.24408978042E+03 -0.27064762976E+02 -0.91345530432E+02  0.26202352610E+03  0.00000000000E+00 0.  1.
        -13    1    3    3    0    0 -0.80485196445E+02 -0.59938050047E+02 -0.13354520611E+02  0.10123625789E+03  0.00000000000E+00 0. -1.
          2    1    6    6  502    0  0.40964282417E+02 -0.30357618255E+03  0.17690579732E+03  0.35374034570E+03  0.00000000000E+00 0. -1.
          1    1    5    5  503    0  0.19860411117E+03  0.33866593767E+03  0.28170741478E+03  0.48321556044E+03  0.00000000000E+00 0. -1.
         -2    1    5    5    0  503  0.34354816741E+02  0.14526070348E+03  0.13229530642E+03  0.19945669582E+03  0.00000000000E+00 0.  1.
         -1    1    6    6    0  502  0.50651766542E+02 -0.93347645564E+02  0.45340660517E+02  0.11547796276E+03  0.00000000000E+00 0.  1.
<mgrwt>
<rscale>  0 0.14188503E+04</rscale>
<asrwt>0</asrwt>
<pdfrwt beam="1">  1        1 0.15743842E+00 0.14188503E+04</pdfrwt>
<pdfrwt beam="2">  1       -1 0.75661632E-01 0.14188503E+04</pdfrwt>
<totfact> 0.24802353E+01</totfact>
</mgrwt>
</event>
<event>
12    1  0.2083715E-007  0.1896158E+04  0.7818608E-02  0.8656771E-01
         -1   -1    0    0    0  501 -0.00000000000E+00  0.00000000000E+00  0.31589359897E+03  0.31589359897E+03  0.00000000000E+00 0.  1.
          1   -1    0    0  501    0  0.00000000000E+00 -0.00000000000E+00 -0.28454306461E+04  0.28454306461E+04  0.00000000000E+00 0. -1.
         23    2    1    2    0    0  0.28740025228E+03  0.33963847644E+03 -0.15640577891E+02  0.45442993625E+03  0.91152287960E+02 0.  0.
        254    2    1    2    0    0 -0.28740025228E+03 -0.33963847644E+03 -0.25138964692E+04  0.27068943088E+04  0.89980450175E+03 0.  0.
        -24    2    4    4    0    0 -0.21803932238E+03 -0.34270642692E+03 -0.35489403100E+03  0.54529693030E+03  0.80063273703E+02 0.  0.
         24    2    4    4    0    0 -0.69360929895E+02  0.30679504832E+01 -0.21590024382E+04  0.21615973785E+04  0.79945904158E+02 0.  0.
         11    1    3    3    0    0  0.77929016857E+02  0.13254649837E+03 -0.39967618279E+02  0.15886760654E+03  0.00000000000E+00 0. -1.
        -11    1    3    3    0    0  0.20947123542E+03  0.20709197807E+03  0.24327040388E+02  0.29556232971E+03  0.00000000000E+00 0.  1.
          4    1    6    6  502    0 -0.64823538898E+02  0.34556804172E+02 -0.16083003059E+04  0.16099770613E+04  0.00000000000E+00 0. -1.
          3    1    5    5  503    0 -0.10630531997E+03 -0.22083210820E+03 -0.17624809901E+03  0.30187917032E+03  0.00000000000E+00 0. -1.
         -4    1    5    5    0  503 -0.11173400241E+03 -0.12187431872E+03 -0.17864593199E+03  0.24341775998E+03  0.00000000000E+00 0.  1.
         -3    1    6    6    0  502 -0.45373909977E+01 -0.31488853688E+02 -0.55070213230E+03  0.55162031720E+03  0.00000000000E+00 0.  1.
<mgrwt>
<rscale>  0 0.18961575E+04</rscale>
<asrwt>0</asrwt>
<pdfrwt beam="1">  1        1 0.43775859E+00 0.18961575E+04</pdfrwt>
<pdfrwt beam="2">  1       -1 0.48599012E-01 0.18961575E+04</pdfrwt>
<totfact> 0.30720493E+00</totfact>
</mgrwt>
</event>
<event>
12    1  0.2083715E-007  0.2768849E+04  0.7818608E-02  0.8313005E-01
         -1   -1    0    0    0  501 -0.00000000000E+00  0.00000000000E+00  0.28056711041E+04  0.28056711041E+04  0.00000000000E+00 0.  1.
          1   -1    0    0  501    0  0.00000000000E+00 -0.00000000000E+00 -0.68312763413E+03  0.68312763413E+03  0.00000000000E+00 0. -1.
         23    2    1    2    0    0 -0.11762307351E+04  0.30812883183E+03  0.66834522748E+03  0.13904093570E+04  0.89948417964E+02 0.  0.
        254    2    1    2    0    0  0.11762307351E+04 -0.30812883183E+03  0.14541982425E+04  0.20983893812E+04  0.90004630295E+03 0.  0.
        -24    2    4    4    0    0  0.20040625440E+03 -0.77076845888E+02  0.94286572764E+03  0.97008369955E+03  0.77221090403E+02 0.  0.
         24    2    4    4    0    0  0.97582448069E+03 -0.23105198594E+03  0.51133251484E+03  0.11283056816E+04  0.77423078918E+02 0.  0.
         13    1    3    3    0    0 -0.53394766561E+03  0.16165544820E+03  0.35169084167E+03  0.65948392070E+03  0.00000000000E+00 0.  1.
        -13    1    3    3    0    0 -0.64228306947E+03  0.14647338363E+03  0.31665438581E+03  0.73092543634E+03  0.00000000000E+00 0. -1.
          2    1    6    6  502    0  0.39236690451E+03 -0.12971170682E+03  0.22473426900E+03  0.47040663930E+03  0.00000000000E+00 0. -1.
          1    1    5    5  503    0 -0.49768215085E+01 -0.90618359390E+01  0.24782581093E+02  0.26852596681E+02  0.00000000000E+00 0. -1.
         -2    1    5    5    0  503  0.20538307590E+03 -0.68015009949E+02  0.91808314655E+03  0.94323110287E+03  0.00000000000E+00 0.  1.
         -1    1    6    6    0  502  0.58345757618E+03 -0.10134027913E+03  0.28659824583E+03  0.65789904232E+03  0.00000000000E+00 0.  1.
<mgrwt>
<rscale>  0 0.27688492E+04</rscale>
<asrwt>0</asrwt>
<pdfrwt beam="1">  1        1 0.10509656E+00 0.27688492E+04</pdfrwt>
<pdfrwt beam="2">  1       -1 0.43164170E+00 0.27688492E+04</pdfrwt>
<totfact> 0.10624846E-01</totfact>
</mgrwt>
</event>
<event>
12    1  0.2083715E-007  0.2491978E+04  0.7818608E-02  0.8405849E-01
          2   -1    0    0  501    0  0.00000000000E+00  0.00000000000E+00  0.18973449989E+04  0.18973449989E+04  0.00000000000E+00 0. -1.
         -2   -1    0    0    0  501 -0.00000000000E+00 -0.00000000000E+00 -0.81824238679E+03  0.81824238679E+03  0.00000000000E+00 0.  1.
         23    2    1    2    0    0  0.77675189419E+03  0.68372032884E+03  0.12020551639E+03  0.10456728088E+04  0.90361849001E+02 0.  0.
        254    2    1    2    0    0 -0.77675189419E+03 -0.68372032884E+03  0.95889709570E+03  0.16699145768E+04  0.89348422514E+03 0.  0.
        -24    2    4    4    0    0 -0.61301794538E+03 -0.64707266583E+03  0.11130465180E+04  0.14280279233E+04  0.76792982645E+02 0.  0.
         24    2    4    4    0    0 -0.16373394881E+03 -0.36647663012E+02 -0.15414942229E+03  0.24188665357E+03  0.81211154312E+02 0.  0.
         11    1    3    3    0    0  0.14569839118E+03  0.93274936544E+02  0.41381200647E+02  0.17787815703E+03  0.00000000000E+00 0. -1.
        -11    1    3    3    0    0  0.63105350301E+03  0.59044539230E+03  0.78824315745E+02  0.86779465181E+03  0.00000000000E+00 0.  1.
          2    1    6    6  502    0 -0.41879783407E+01 -0.58891609858E+01  0.90580923242E+01  0.11587511219E+02  0.00000000000E+00 0. -1.
          3    1    5    5  503    0 -0.17806358437E+03 -0.14343245767E+03  0.30655675685E+03  0.38243503391E+03  0.00000000000E+00 0. -1.
         -4    1    5    5    0  503 -0.43495436101E+03 -0.50364020816E+03  0.80648976114E+03  0.10455928894E+04  0.00000000000E+00 0.  1.
         -1    1    6    6    0  502 -0.15954597047E+03 -0.30758502026E+02 -0.16320751462E+03  0.23029914235E+03  0.00000000000E+00 0.  1.
<mgrwt>
<rscale>  0 0.24919776E+04</rscale>
<asrwt>0</asrwt>
<pdfrwt beam="1">  1        2 0.29189923E+00 0.24919776E+04</pdfrwt>
<pdfrwt beam="2">  1       -2 0.12588344E+00 0.24919776E+04</pdfrwt>
<totfact> 0.32034221E+00</totfact>
</mgrwt>
</event>
<event>
12    1  0.2083715E-007  0.4065484E+04  0.7818608E-02  0.7991465E-01
          1   -1    0    0  501    0  0.00000000000E+00  0.00000000000E+00  0.25197554366E+04  0.25197554366E+04  0.00000000000E+00 0. -1.
         -1   -1    0    0    0  501 -0.00000000000E+00 -0.00000000000E+00 -0.16398576329E+04  0.16398576329E+04  0.00000000000E+00 0.  1.
         23    2    1    2    0    0  0.18116477087E+04 -0.59180456825E+02 -0.26591460353E+03  0.18342657650E+04  0.90832666705E+02 0.  0.
        254    2    1    2    0    0 -0.18116477087E+04  0.59180456825E+02  0.11458124073E+04  0.23253473044E+04  0.89932433895E+03 0.  0.
        -24    2    4    4    0    0 -0.13013122737E+04  0.27487542575E+03  0.11584888053E+04  0.17654597633E+04  0.76037690534E+02 0.  0.
         24    2    4    4    0    0 -0.51033543498E+03 -0.21569496892E+03 -0.12676398074E+02  0.55988754111E+03  0.79666754685E+02 0.  0.
         11    1    3    3    0    0  0.10763131460E+04 -0.43068517529E+02 -0.11359002303E+03  0.10831470716E+04  0.00000000000E+00 0.  1.
        -11    1    3    3    0    0  0.73533456272E+03 -0.16111939296E+02 -0.15232458050E+03  0.75111869338E+03  0.00000000000E+00 0. -1.
          2    1    6    6  502    0 -0.44824073069E+03 -0.21235826742E+03  0.19613630986E+01  0.49600366262E+03  0.00000000000E+00 0. -1.
          3    1    5    5  503    0 -0.78234821715E+03  0.19808009596E+03  0.67723890844E+03  0.10535449665E+04  0.00000000000E+00 0. -1.
         -4    1    5    5    0  503 -0.51896405660E+03  0.76795329789E+02  0.48124989690E+03  0.71191479686E+03  0.00000000000E+00 0.  1.
         -1    1    6    6    0  502 -0.62094704296E+02 -0.33367015057E+01 -0.14637761172E+02  0.63883878488E+02  0.00000000000E+00 0.  1.
<mgrwt>
<rscale>  0 0.40654841E+04</rscale>
<asrwt>0</asrwt>
<pdfrwt beam="1">  1        1 0.38765468E+00 0.40654841E+04</pdfrwt>
<pdfrwt beam="2">  1       -1 0.25228579E+00 0.40654841E+04</pdfrwt>
<totfact> 0.68833196E-02</totfact>
</mgrwt>
</event>
<event>
12    1  0.2083715E-007  0.2333699E+04  0.7818608E-02  0.8464751E-01
          2   -1    0    0  501    0  0.00000000000E+00  0.00000000000E+00  0.28098242720E+04  0.28098242720E+04  0.00000000000E+00 0. -1.
         -2   -1    0    0    0  501 -0.00000000000E+00 -0.00000000000E+00 -0.48456345016E+03  0.48456345016E+03  0.00000000000E+00 0.  1.
         23    2    1    2    0    0  0.13367228923E+03 -0.53395145362E+03  0.21549928346E+04  0.22260438029E+04  0.91128805728E+02 0.  0.
        254    2    1    2    0    0 -0.13367228923E+03  0.53395145362E+03  0.17026798722E+03  0.10683439193E+04  0.89966388540E+03 0.  0.
        -24    2    4    4    0    0 -0.49905483925E+03  0.38815423033E+03  0.19217446006E+03  0.66555923981E+03  0.79489870387E+02 0.  0.
         24    2    4    4    0    0  0.36538255002E+03  0.14579722329E+03 -0.21906472848E+02  0.40278467948E+03  0.83632328033E+02 0.  0.
         11    1    3    3    0    0  0.57924970851E+02 -0.27859602916E+03  0.93635938019E+03  0.97864188475E+03  0.00000000000E+00 0.  1.
        -11    1    3    3    0    0  0.75747318377E+02 -0.25535542446E+03  0.12186334544E+04  0.12474019181E+04  0.00000000000E+00 0. -1.
          2    1    6    6  502    0  0.68088450548E+02  0.54700809726E+02 -0.28211513976E+02  0.91782924357E+02  0.00000000000E+00 0. -1.
          1    1    5    5  503    0 -0.11987180890E+03  0.59058999013E+02  0.22032792691E+02  0.13543507628E+03  0.00000000000E+00 0. -1.
         -2    1    5    5    0  503 -0.37918303035E+03  0.32909523132E+03  0.17014166737E+03  0.53012416353E+03  0.00000000000E+00 0.  1.
         -1    1    6    6    0  502  0.29729409948E+03  0.91096413560E+02  0.63050411277E+01  0.31100175512E+03  0.00000000000E+00 0.  1.
<mgrwt>
<rscale>  0 0.23336993E+04</rscale>
<asrwt>0</asrwt>
<pdfrwt beam="1">  1        2 0.43228065E+00 0.23336993E+04</pdfrwt>
<pdfrwt beam="2">  1       -2 0.74548225E-01 0.23336993E+04</pdfrwt>
<totfact> 0.33384216E+00</totfact>
</mgrwt>
</event>
<event>
12    1  0.2083715E-007  0.1632049E+04  0.7818608E-02  0.8801098E-01
          1   -1    0    0  501    0  0.00000000000E+00  0.00000000000E+00  0.37080780083E+04  0.37080780083E+04  0.00000000000E+00 0. -1.
         -1   -1    0    0    0  501 -0.00000000000E+00 -0.00000000000E+00 -0.17957976750E+03  0.17957976750E+03  0.00000000000E+00 0.  1.
         23    2    1    2    0    0 -0.44748250032E+03  0.11293162950E+03  0.20000641802E+04  0.20545702976E+04  0.89488780396E+02 0.  0.
        254    2    1    2    0    0  0.44748250032E+03 -0.11293162950E+03  0.15284340606E+04  0.18330874782E+04  0.90061361533E+03 0.  0.
        -24    2    4    4    0    0  0.63440037613E+03  0.14287316655E+02  0.14457565855E+04  0.15808532010E+04  0.78846521943E+02 0.  0.
         24    2    4    4    0    0 -0.18691787582E+03 -0.12721894616E+03  0.82677475152E+02  0.25223427722E+03  0.75256980727E+02 0.  0.
         13    1    3    3    0    0 -0.30562289751E+03  0.11513526411E+03  0.14704639511E+04  0.15062953614E+04  0.00000000000E+00 0. -1.
        -13    1    3    3    0    0 -0.14185960281E+03 -0.22036346106E+01  0.52960022912E+03  0.54827493614E+03  0.00000000000E+00 0.  1.
          4    1    6    6  502    0 -0.50398817027E+02 -0.45031368711E+02  0.61693146590E+02  0.91509066556E+02  0.00000000000E+00 0. -1.
          1    1    5    5  503    0  0.32199157054E+03  0.45060622005E+02  0.70791109195E+03  0.77900394432E+03  0.00000000000E+00 0. -1.
         -2    1    5    5    0  503  0.31240880559E+03 -0.30773305349E+02  0.73784549354E+03  0.80184925670E+03  0.00000000000E+00 0.  1.
         -3    1    6    6    0  502 -0.13651905879E+03 -0.82187577448E+02  0.20984328562E+02  0.16072521067E+03  0.00000000000E+00 0.  1.
<mgrwt>
<rscale>  0 0.16320488E+04</rscale>
<asrwt>0</asrwt>
<pdfrwt beam="1">  1        1 0.57047348E+00 0.16320488E+04</pdfrwt>
<pdfrwt beam="2">  1       -1 0.27627660E-01 0.16320488E+04</pdfrwt>
<totfact> 0.19385518E+00</totfact>
</mgrwt>
</event>
<event>
12    1  0.2083715E-007  0.1190983E+04  0.7818608E-02  0.9120786E-01
         -1   -1    0    0    0  501 -0.00000000000E+00  0.00000000000E+00  0.41162382058E+03  0.41162382058E+03  0.00000000000E+00 0.  1.
          1   -1    0    0  501    0  0.00000000000E+00 -0.00000000000E+00 -0.86149053210E+03  0.86149053210E+03  0.00000000000E+00 0. -1.
         23    2    1    2    0    0 -0.23326071429E+03 -0.22083782509E+02 -0.15927443549E+03  0.29767096759E+03  0.91331291792E+02 0.  0.
        254    2    1    2    0    0  0.23326071429E+03  0.22083782509E+02 -0.29059227602E+03  0.97544338509E+03  0.90119236146E+03 0.  0.
        -24    2    4    4    0    0 -0.26957626919E+03 -0.81504776251E+02 -0.34555161383E+03  0.45254634467E+03  0.77960777230E+02 0.  0.
         24    2    4    4    0    0  0.50283698349E+03  0.10358855876E+03  0.54959337807E+02  0.52289704043E+03  0.82614554443E+02 0.  0.
         11    1    3    3    0    0 -0.13664664462E+03 -0.11605039657E+02 -0.38083314944E+02  0.14232821684E+03  0.00000000000E+00 0.  1.
        -11    1    3    3    0    0 -0.96614069676E+02 -0.10478742852E+02 -0.12119112055E+03  0.15534275075E+03  0.00000000000E+00 0. -1.
          2    1    6    6  502    0  0.24157883988E+03  0.22812059822E+02 -0.59865189062E+01  0.24272734572E+03  0.00000000000E+00 0. -1.
          3    1    5    5  503    0 -0.18383975700E+03 -0.91344473582E+02 -0.22932383200E+03  0.30778286020E+03  0.00000000000E+00 0. -1.
         -4    1    5    5    0  503 -0.85736512197E+02  0.98396973310E+01 -0.11622778183E+03  0.14476348447E+03  0.00000000000E+00 0.  1.
         -1    1    6    6    0  502  0.26125814360E+03  0.80776498938E+02  0.60945856713E+02  0.28016969470E+03  0.00000000000E+00 0.  1.
<mgrwt>
<rscale>  0 0.11909828E+04</rscale>
<asrwt>0</asrwt>
<pdfrwt beam="1">  1        1 0.13253700E+00 0.11909828E+04</pdfrwt>
<pdfrwt beam="2">  1       -1 0.63326743E-01 0.11909828E+04</pdfrwt>
<totfact> 0.49064594E+01</totfact>
</mgrwt>
</event>
<event>
12    1  0.2083715E-007  0.1448824E+04  0.7818608E-02  0.8919216E-01
         -1   -1    0    0    0  501 -0.00000000000E+00  0.00000000000E+00  0.20302714976E+03  0.20302714976E+03  0.00000000000E+00 0.  1.
          1   -1    0    0  501    0  0.00000000000E+00 -0.00000000000E+00 -0.25847417740E+04  0.25847417740E+04  0.00000000000E+00 0. -1.
         23    2    1    2    0    0  0.14058258778E+03  0.38215889524E+03 -0.42601780489E+03  0.59647117528E+03  0.92075011056E+02 0.  0.
        254    2    1    2    0    0 -0.14058258778E+03 -0.38215889524E+03 -0.19556968194E+04  0.21912977485E+04  0.90068134660E+03 0.  0.
        -24    2    4    4    0    0  0.15805620795E+03  0.19847275078E+03 -0.97653686395E+03  0.10121153670E+04  0.79875351805E+02 0.  0.
         24    2    4    4    0    0 -0.29863879572E+03 -0.58063164602E+03 -0.97915995544E+03  0.11791823815E+04  0.73475382560E+02 0.  0.
         11    1    3    3    0    0  0.39649857385E+02  0.17166506593E+03 -0.24136353905E+03  0.29882664546E+03  0.00000000000E+00 0. -1.
        -11    1    3    3    0    0  0.10093273039E+03  0.21049382931E+03 -0.18465426584E+03  0.29764452983E+03  0.00000000000E+00 0.  1.
          4    1    6    6  502    0 -0.12129069267E+02 -0.57313669063E+02 -0.64412145443E+02  0.87068337893E+02  0.00000000000E+00 0. -1.
          3    1    5    5  503    0  0.35466769654E+02  0.60099477367E+02 -0.15420704989E+03  0.16926208425E+03  0.00000000000E+00 0. -1.
         -4    1    5    5    0  503  0.12258943829E+03  0.13837327341E+03 -0.82232981406E+03  0.84285328276E+03  0.00000000000E+00 0.  1.
         -3    1    6    6    0  502 -0.28650972646E+03 -0.52331797696E+03 -0.91474781000E+03  0.10921140436E+04  0.00000000000E+00 0.  1.
<mgrwt>
<rscale>  0 0.14488240E+04</rscale>
<asrwt>0</asrwt>
<pdfrwt beam="1">  1        1 0.39765256E+00 0.14488240E+04</pdfrwt>
<pdfrwt beam="2">  1       -1 0.31234948E-01 0.14488240E+04</pdfrwt>
<totfact> 0.10955698E+01</totfact>
</mgrwt>
</event>
<event>
12    1  0.2083715E-007  0.1629524E+04  0.7818608E-02  0.8802613E-01
          1   -1    0    0  501    0  0.00000000000E+00  0.00000000000E+00  0.42203110200E+03  0.42203110200E+03  0.00000000000E+00 0. -1.
         -1   -1    0    0    0  501 -0.00000000000E+00 -0.00000000000E+00 -0.15729572739E+04  0.15729572739E+04  0.00000000000E+00 0.  1.
         23    2    1    2    0    0 -0.13811118026E+03  0.53435837549E+03 -0.52180071806E+03  0.76514951627E+03  0.92543078107E+02 0.  0.
        254    2    1    2    0    0  0.13811118026E+03 -0.53435837549E+03 -0.62912545382E+03  0.12298388596E+04  0.90116103578E+03 0.  0.
        -24    2    4    4    0    0  0.21208023481E+03 -0.22018660843E+03 -0.79690198872E+03  0.85724077580E+03  0.79679354530E+02 0.  0.
         24    2    4    4    0    0 -0.73969054553E+02 -0.31417176706E+03  0.16777653490E+03  0.37259808381E+03  0.80653866287E+02 0.  0.
         11    1    3    3    0    0 -0.12454954253E+03  0.34167118632E+03 -0.37636272155E+03  0.52335521997E+03  0.00000000000E+00 0.  1.
        -11    1    3    3    0    0 -0.13561637724E+02  0.19268718917E+03 -0.14543799652E+03  0.24179429629E+03  0.00000000000E+00 0. -1.
          2    1    6    6  502    0 -0.61968784712E+02 -0.11402726967E+03  0.44335982880E+02  0.13714236357E+03  0.00000000000E+00 0. -1.
          1    1    5    5  503    0  0.36521261323E+02 -0.35921632139E+02 -0.23299961956E+03  0.23856443343E+03  0.00000000000E+00 0. -1.
         -2    1    5    5    0  503  0.17555897349E+03 -0.18426497629E+03 -0.56390236916E+03  0.61867634237E+03  0.00000000000E+00 0.  1.
         -1    1    6    6    0  502 -0.12000269841E+02 -0.20014449739E+03  0.12344055202E+03  0.23545572024E+03  0.00000000000E+00 0.  1.
<mgrwt>
<rscale>  0 0.16295237E+04</rscale>
<asrwt>0</asrwt>
<pdfrwt beam="1">  1        1 0.64927863E-01 0.16295237E+04</pdfrwt>
<pdfrwt beam="2">  1       -1 0.24199342E+00 0.16295237E+04</pdfrwt>
<totfact> 0.42054207E+00</totfact>
</mgrwt>
</event>
<event>
12    1  0.2083715E-007  0.2097853E+04  0.7818608E-02  0.8562190E-01
         -2   -1    0    0    0  501 -0.00000000000E+00  0.00000000000E+00  0.53955618070E+03  0.53955618070E+03  0.00000000000E+00 0.  1.
          2   -1    0    0  501    0  0.00000000000E+00 -0.00000000000E+00 -0.20391706281E+04  0.20391706281E+04  0.00000000000E+00 0. -1.
         23    2    1    2    0    0 -0.60387472291E+03  0.60142595140E+03 -0.65786497445E+03  0.10803366438E+04  0.89236110027E+02 0.  0.
        254    2    1    2    0    0  0.60387472291E+03 -0.60142595140E+03 -0.84174947293E+03  0.14983901650E+04  0.90014057531E+03 0.  0.
        -24    2    4    4    0    0  0.52921167805E+03 -0.81076861444E+03 -0.79827366955E+03  0.12577815107E+04  0.85806356273E+02 0.  0.
         24    2    4    4    0    0  0.74663044858E+02  0.20934266303E+03 -0.43475803379E+02  0.24060865429E+03  0.81261665050E+02 0.  0.
         13    1    3    3    0    0 -0.15582805242E+03  0.14626931399E+03 -0.11848800718E+03  0.24436960118E+03  0.00000000000E+00 0.  1.
        -13    1    3    3    0    0 -0.44804667049E+03  0.45515663742E+03 -0.53937696727E+03  0.83596704262E+03  0.00000000000E+00 0. -1.
          2    1    6    6  502    0  0.11961728841E+02  0.14026863715E+03 -0.86890651333E+01  0.14104564289E+03  0.00000000000E+00 0. -1.
          3    1    5    5  503    0  0.33046222312E+03 -0.43206252830E+03 -0.46366133465E+03  0.71474830712E+03  0.00000000000E+00 0. -1.
         -4    1    5    5    0  503  0.19874945493E+03 -0.37870608614E+03 -0.33461233490E+03  0.54303320357E+03  0.00000000000E+00 0.  1.
         -1    1    6    6    0  502  0.62701316017E+02  0.69074025887E+02 -0.34786738246E+02  0.99563011406E+02  0.00000000000E+00 0.  1.
<mgrwt>
<rscale>  0 0.20978533E+04</rscale>
<asrwt>0</asrwt>
<pdfrwt beam="1">  1        2 0.31371856E+00 0.20978533E+04</pdfrwt>
<pdfrwt beam="2">  1       -2 0.83008643E-01 0.20978533E+04</pdfrwt>
<totfact> 0.74464698E+00</totfact>
</mgrwt>
</event>
<event>
12    1  0.2083715E-007  0.3065372E+04  0.7818608E-02  0.8225306E-01
         -2   -1    0    0    0  501 -0.00000000000E+00  0.00000000000E+00  0.78121440213E+03  0.78121440213E+03  0.00000000000E+00 0.  1.
          2   -1    0    0  501    0  0.00000000000E+00 -0.00000000000E+00 -0.30070189187E+04  0.30070189187E+04  0.00000000000E+00 0. -1.
         23    2    1    2    0    0  0.11562163558E+04 -0.58200836044E+02 -0.19866769883E+04  0.23014321051E+04  0.97368781887E+02 0.  0.
        254    2    1    2    0    0 -0.11562163558E+04  0.58200836044E+02 -0.23912752823E+03  0.14868012157E+04  0.90176065640E+03 0.  0.
        -24    2    4    4    0    0 -0.10215151410E+04 -0.29517830551E+02 -0.52220793501E+03  0.11504404486E+04  0.80297028774E+02 0.  0.
         24    2    4    4    0    0 -0.13470121484E+03  0.87718666595E+02  0.28308040677E+03  0.33636076709E+03  0.84646719880E+02 0.  0.
         13    1    3    3    0    0  0.86760831837E+03 -0.32101144827E+02 -0.14058512038E+04  0.16523293512E+04  0.00000000000E+00 0.  1.
        -13    1    3    3    0    0  0.28860803747E+03 -0.26099691217E+02 -0.58082578453E+03  0.64910275392E+03  0.00000000000E+00 0. -1.
          4    1    6    6  502    0 -0.45123510865E+02  0.79880495346E+02  0.14161249974E+03  0.16873388768E+03  0.00000000000E+00 0. -1.
          1    1    5    5  503    0 -0.33803956045E+03 -0.43454043431E+02 -0.15450491023E+03  0.37420684869E+03  0.00000000000E+00 0. -1.
         -4    1    5    5    0  503 -0.68347558054E+03  0.13936212880E+02 -0.36770302477E+03  0.77623359993E+03  0.00000000000E+00 0.  1.
         -3    1    6    6    0  502 -0.89577703979E+02  0.78381712487E+01  0.14146790704E+03  0.16762687941E+03  0.00000000000E+00 0.  1.
<mgrwt>
<rscale>  0 0.30653721E+04</rscale>
<asrwt>0</asrwt>
<pdfrwt beam="1">  1        2 0.46261829E+00 0.30653721E+04</pdfrwt>
<pdfrwt beam="2">  1       -2 0.12018683E+00 0.30653721E+04</pdfrwt>
<totfact> 0.77574203E-01</totfact>
</mgrwt>
</event>
<event>
12    1  0.2083715E-007  0.1864267E+04  0.7818608E-02  0.8672850E-01
          1   -1    0    0  501    0  0.00000000000E+00  0.00000000000E+00  0.10679394821E+04  0.10679394821E+04  0.00000000000E+00 0. -1.
         -1   -1    0    0    0  501 -0.00000000000E+00 -0.00000000000E+00 -0.81359782848E+03  0.81359782848E+03  0.00000000000E+00 0.  1.
         23    2    1    2    0    0  0.44250686892E+03  0.50488242572E+03  0.33475558889E+03  0.75584082518E+03  0.92279227761E+02 0.  0.
        254    2    1    2    0    0 -0.44250686892E+03 -0.50488242572E+03 -0.80413935248E+02  0.11256964854E+04  0.90000421302E+03 0.  0.
        -24    2    4    4    0    0  0.85604555918E+02  0.17365724553E+03 -0.15272778509E+03  0.25829696978E+03  0.76854208379E+02 0.  0.
         24    2    4    4    0    0 -0.52811142484E+03 -0.67853967124E+03  0.72313849838E+02  0.86739951563E+03  0.88514769068E+02 0.  0.
         11    1    3    3    0    0  0.61157493143E+02  0.94547270992E+02  0.91635857420E+02  0.14517766972E+03  0.00000000000E+00 0.  1.
        -11    1    3    3    0    0  0.38134937578E+03  0.41033515472E+03  0.24311973147E+03  0.61066315546E+03  0.00000000000E+00 0. -1.
          4    1    6    6  502    0 -0.48303143508E+03 -0.65148726956E+03  0.76716919144E+02  0.81464134155E+03  0.00000000000E+00 0. -1.
          3    1    5    5  503    0  0.52724684053E+02  0.11340784909E+03 -0.14132888673E+03  0.18871959826E+03  0.00000000000E+00 0. -1.
         -4    1    5    5    0  503  0.32879871865E+02  0.60249396435E+02 -0.11398898359E+02  0.69577371526E+02  0.00000000000E+00 0.  1.
         -3    1    6    6    0  502 -0.45079989754E+02 -0.27052401680E+02 -0.44030693064E+01  0.52758174079E+02  0.00000000000E+00 0.  1.
<mgrwt>
<rscale>  0 0.18642674E+04</rscale>
<asrwt>0</asrwt>
<pdfrwt beam="1">  1        1 0.16429838E+00 0.18642674E+04</pdfrwt>
<pdfrwt beam="2">  1       -1 0.12516890E+00 0.18642674E+04</pdfrwt>
<totfact> 0.70194226E+00</totfact>
</mgrwt>
</event>
<event>
12    1  0.2083715E-007  0.2481388E+04  0.7818608E-02  0.8409646E-01
          1   -1    0    0  501    0  0.00000000000E+00  0.00000000000E+00  0.18025090429E+04  0.18025090429E+04  0.00000000000E+00 0. -1.
         -1   -1    0    0    0  501 -0.00000000000E+00 -0.00000000000E+00 -0.85398829018E+03  0.85398829018E+03  0.00000000000E+00 0.  1.
         23    2    1    2    0    0  0.19212382303E+03  0.10490151772E+04  0.55784932497E+03  0.12070797008E+04  0.92201568392E+02 0.  0.
        254    2    1    2    0    0 -0.19212382303E+03 -0.10490151772E+04  0.39067142778E+03  0.14494176323E+04  0.90046815772E+03 0.  0.
        -24    2    4    4    0    0 -0.19662014376E+03 -0.10358692437E+04  0.76166912206E+01  0.10575309198E+04  0.81419047494E+02 0.  0.
         24    2    4    4    0    0  0.44963207257E+01 -0.13145933477E+02  0.38305473655E+03  0.39188671255E+03  0.81555084490E+02 0.  0.
         13    1    3    3    0    0  0.45529566544E+01  0.15808996515E+03  0.58137973458E+02  0.16850279064E+03  0.00000000000E+00 0.  1.
        -13    1    3    3    0    0  0.18757086638E+03  0.89092521206E+03  0.49971135151E+03  0.10385769101E+04  0.00000000000E+00 0. -1.
          4    1    6    6  502    0 -0.11424203326E+02 -0.36096842224E+02  0.91878673538E+02  0.99373965863E+02  0.00000000000E+00 0. -1.
          3    1    5    5  503    0 -0.12228237489E+03 -0.59483729969E+03 -0.34790265526E+02  0.60827194156E+03  0.00000000000E+00 0. -1.
         -4    1    5    5    0  503 -0.74337768868E+02 -0.44103194404E+03  0.42406956746E+02  0.44925897823E+03  0.00000000000E+00 0.  1.
         -3    1    6    6    0  502  0.15920524052E+02  0.22950908747E+02  0.29117606302E+03  0.29251274668E+03  0.00000000000E+00 0.  1.
<mgrwt>
<rscale>  0 0.24813880E+04</rscale>
<asrwt>0</asrwt>
<pdfrwt beam="1">  1        1 0.27730908E+00 0.24813880E+04</pdfrwt>
<pdfrwt beam="2">  1       -1 0.13138281E+00 0.24813880E+04</pdfrwt>
<totfact> 0.17826930E+00</totfact>
</mgrwt>
</event>
<event>
12    1  0.2083715E-007  0.2518131E+04  0.7818608E-02  0.8396555E-01
          1   -1    0    0  501    0  0.00000000000E+00  0.00000000000E+00  0.11215189246E+04  0.11215189246E+04  0.00000000000E+00 0. -1.
         -1   -1    0    0    0  501 -0.00000000000E+00 -0.00000000000E+00 -0.14134812149E+04  0.14134812149E+04  0.00000000000E+00 0.  1.
         23    2    1    2    0    0 -0.75967113847E+03  0.43217935577E+03 -0.79255003776E+03  0.11834093421E+04  0.91885115213E+02 0.  0.
        254    2    1    2    0    0  0.75967113847E+03 -0.43217935577E+03  0.50058774739E+03  0.13515907974E+04  0.90129371271E+03 0.  0.
        -24    2    4    4    0    0  0.64764555621E+01 -0.30144858405E+02 -0.21610202415E+03  0.23403765790E+03  0.84397177156E+02 0.  0.
         24    2    4    4    0    0  0.75319468290E+03 -0.40203449736E+03  0.71668977154E+03  0.11175531395E+04  0.79666953755E+02 0.  0.
         11    1    3    3    0    0 -0.38984281593E+03  0.19368747869E+03 -0.34173949230E+03  0.55342401568E+03  0.00000000000E+00 0.  1.
        -11    1    3    3    0    0 -0.36982832254E+03  0.23849187707E+03 -0.45081054546E+03  0.62998532640E+03  0.00000000000E+00 0. -1.
          2    1    6    6  502    0  0.40956125541E+03 -0.20997550450E+03  0.33525957941E+03  0.56941120467E+03  0.00000000000E+00 0. -1.
          1    1    5    5  503    0  0.32022568136E+02 -0.23681035699E+02 -0.19824456576E+03  0.20220569768E+03  0.00000000000E+00 0. -1.
         -2    1    5    5    0  503 -0.25546112573E+02 -0.64638227066E+01 -0.17857458389E+02  0.31831960224E+02  0.00000000000E+00 0.  1.
         -1    1    6    6    0  502  0.34363342750E+03 -0.19205899286E+03  0.38143019213E+03  0.54814193481E+03  0.00000000000E+00 0.  1.
<mgrwt>
<rscale>  0 0.25181310E+04</rscale>
<asrwt>0</asrwt>
<pdfrwt beam="1">  1        1 0.17254137E+00 0.25181310E+04</pdfrwt>
<pdfrwt beam="2">  1       -1 0.21745865E+00 0.25181310E+04</pdfrwt>
<totfact> 0.12401908E+00</totfact>
</mgrwt>
</event>
<event>
12    1  0.2083715E-007  0.3295643E+04  0.7818608E-02  0.8164005E-01
          1   -1    0    0  501    0  0.00000000000E+00  0.00000000000E+00  0.14870237701E+04  0.14870237701E+04  0.00000000000E+00 0. -1.
         -1   -1    0    0    0  501 -0.00000000000E+00 -0.00000000000E+00 -0.18260064316E+04  0.18260064316E+04  0.00000000000E+00 0.  1.
         23    2    1    2    0    0 -0.11314428418E+04 -0.58213923358E+03  0.68450074878E+03  0.14477362894E+04  0.91378864612E+02 0.  0.
        254    2    1    2    0    0  0.11314428418E+04  0.58213923358E+03 -0.10234834102E+04  0.18652939123E+04  0.90152875539E+03 0.  0.
        -24    2    4    4    0    0  0.91413369638E+03  0.79908727588E+03 -0.93830583612E+03  0.15365313534E+04  0.79560470164E+02 0.  0.
         24    2    4    4    0    0  0.21730914541E+03 -0.21694804229E+03 -0.85177574128E+02  0.32876255898E+03  0.80869545058E+02 0.  0.
         11    1    3    3    0    0 -0.81576340988E+03 -0.46412071437E+03  0.49466537982E+03  0.10609296944E+04  0.00000000000E+00 0. -1.
        -11    1    3    3    0    0 -0.31567943192E+03 -0.11801851921E+03  0.18983536895E+03  0.38680659498E+03  0.00000000000E+00 0.  1.
          2    1    6    6  502    0  0.16297616576E+03 -0.20438978468E+03 -0.64185251696E+02  0.26917682148E+03  0.00000000000E+00 0. -1.
          1    1    5    5  503    0  0.76755565344E+03  0.67976932676E+03 -0.82646225542E+03  0.13169160483E+04  0.00000000000E+00 0. -1.
         -2    1    5    5    0  503  0.14657804295E+03  0.11931794912E+03 -0.11184358071E+03  0.21961530502E+03  0.00000000000E+00 0.  1.
         -1    1    6    6    0  502  0.54332979658E+02 -0.12558257616E+02 -0.20992322432E+02  0.59585737504E+02  0.00000000000E+00 0.  1.
<mgrwt>
<rscale>  0 0.32956426E+04</rscale>
<asrwt>0</asrwt>
<pdfrwt beam="1">  1        1 0.22877289E+00 0.32956426E+04</pdfrwt>
<pdfrwt beam="2">  1       -1 0.28092407E+00 0.32956426E+04</pdfrwt>
<totfact> 0.24330471E-01</totfact>
</mgrwt>
</event>
<event>
12    1  0.2147000E-007  0.2368550E+04  0.7818608E-02  0.8451373E-01
         -2   -1    0    0    0  501 -0.00000000000E+00  0.00000000000E+00  0.67667994063E+03  0.67667994063E+03  0.00000000000E+00 0.  1.
          2   -1    0    0  501    0  0.00000000000E+00 -0.00000000000E+00 -0.20726297943E+04  0.20726297943E+04  0.00000000000E+00 0. -1.
         23    2    1    2    0    0 -0.12580487676E+03 -0.87019195822E+03 -0.11767494083E+04  0.14717796950E+04  0.91298354664E+02 0.  0.
        254    2    1    2    0    0  0.12580487676E+03  0.87019195822E+03 -0.21920044533E+03  0.12775300399E+04  0.90054053567E+03 0.  0.
        -24    2    4    4    0    0  0.49674489793E+03  0.39958755414E+03 -0.25312752945E+02  0.64270481543E+03  0.77479269900E+02 0.  0.
         24    2    4    4    0    0 -0.37094002118E+03  0.47060440409E+03 -0.19388769239E+03  0.63482522445E+03  0.79659424358E+02 0.  0.
         13    1    3    3    0    0 -0.24292205165E+02 -0.25755104906E+03 -0.28243386293E+03  0.38300331726E+03  0.00000000000E+00 0.  1.
        -13    1    3    3    0    0 -0.10151267159E+03 -0.61264090917E+03 -0.89431554536E+03  0.10887763778E+04  0.00000000000E+00 0. -1.
          2    1    6    6  502    0 -0.21147033758E+03  0.31502384861E+03 -0.95362502268E+02  0.39122082729E+03  0.00000000000E+00 0. -1.
          3    1    5    5  503    0  0.19905873080E+03  0.12648404746E+03 -0.36022030894E+02  0.23857950306E+03  0.00000000000E+00 0. -1.
         -4    1    5    5    0  503  0.29768616714E+03  0.27310350667E+03  0.10709277949E+02  0.40412531237E+03  0.00000000000E+00 0.  1.
         -1    1    6    6    0  502 -0.15946968359E+03  0.15558055548E+03 -0.98525190119E+02  0.24360439716E+03  0.00000000000E+00 0.  1.
<mgrwt>
<rscale>  0 0.23685498E+04</rscale>
<asrwt>0</asrwt>
<pdfrwt beam="1">  1        2 0.31886612E+00 0.23685498E+04</pdfrwt>
<pdfrwt beam="2">  1       -2 0.10410461E+00 0.23685498E+04</pdfrwt>
<totfact> 0.41170557E+00</totfact>
</mgrwt>
</event>
<event>
12    1  0.2083715E-007  0.1520505E+04  0.7818608E-02  0.8870930E-01
         -2   -1    0    0    0  501 -0.00000000000E+00  0.00000000000E+00  0.32992482157E+03  0.32992482157E+03  0.00000000000E+00 0. -1.
          2   -1    0    0  501    0  0.00000000000E+00 -0.00000000000E+00 -0.17518663131E+04  0.17518663131E+04  0.00000000000E+00 0.  1.
         23    2    1    2    0    0 -0.12703314058E+03 -0.22526529533E+03 -0.10266763254E+04  0.10627290143E+04  0.91906521319E+02 0.  0.
        254    2    1    2    0    0  0.12703314058E+03  0.22526529533E+03 -0.39526516606E+03  0.10190621203E+04  0.90297905924E+03 0.  0.
        -24    2    4    4    0    0  0.83840863213E+02  0.38348971060E+03  0.16247955008E+03  0.43241264429E+03  0.80544660087E+02 0.  0.
         24    2    4    4    0    0  0.43192277364E+02 -0.15822441528E+03 -0.55774471614E+03  0.58664947599E+03  0.78599623964E+02 0.  0.
         11    1    3    3    0    0 -0.18095551593E+02  0.50319755248E+01 -0.95585714928E+02  0.97413544559E+02  0.00000000000E+00 0.  1.
        -11    1    3    3    0    0 -0.10893758898E+03 -0.23029727085E+03 -0.93109061050E+03  0.96531546979E+03  0.00000000000E+00 0. -1.
          2    1    6    6  502    0  0.29868844775E+01 -0.66942842943E+01 -0.41759920020E-01  0.73305296525E+01  0.00000000000E+00 0. -1.
          3    1    5    5  503    0  0.11321764727E+02  0.21856709407E+03  0.69232159128E+02  0.22954922963E+03  0.00000000000E+00 0. -1.
         -4    1    5    5    0  503  0.72519098487E+02  0.16492261653E+03  0.93247390948E+02  0.20286341466E+03  0.00000000000E+00 0.  1.
         -1    1    6    6    0  502  0.40205392886E+02 -0.15153013098E+03 -0.55770295622E+03  0.57931894634E+03  0.00000000000E+00 0.  1.
<mgrwt>
<rscale>  0 0.15205054E+04</rscale>
<asrwt>0</asrwt>
<pdfrwt beam="1">  1        2 0.26951790E+00 0.15205054E+04</pdfrwt>
<pdfrwt beam="2">  1       -2 0.50757664E-01 0.15205054E+04</pdfrwt>
<totfact> 0.32483107E+01</totfact>
</mgrwt>
</event>
<event>
12    1  0.2083715E-007  0.2804689E+04  0.7818608E-02  0.8301814E-01
         -1   -1    0    0    0  501 -0.00000000000E+00  0.00000000000E+00  0.70447302945E+03  0.70447302945E+03  0.00000000000E+00 0.  1.
          1   -1    0    0  501    0  0.00000000000E+00 -0.00000000000E+00 -0.27915474990E+04  0.27915474990E+04  0.00000000000E+00 0. -1.
         23    2    1    2    0    0  0.80493083385E+02 -0.38355014928E+03  0.55029325809E+03  0.68201419919E+03  0.93438988164E+02 0.  0.
        254    2    1    2    0    0 -0.80493083385E+02  0.38355014928E+03 -0.26373677276E+04  0.28140063292E+04  0.89962949976E+03 0.  0.
        -24    2    4    4    0    0 -0.10782235509E+03 -0.53789081037E+02 -0.21457338661E+04  0.21506129931E+04  0.80271393161E+02 0.  0.
         24    2    4    4    0    0  0.27329271703E+02  0.43733923032E+03 -0.49163386152E+03  0.66339333613E+03  0.79839671550E+02 0.  0.
         13    1    3    3    0    0 -0.98924695682E+01 -0.15828558346E+03  0.24737387339E+03  0.29384693315E+03  0.00000000000E+00 0. -1.
        -13    1    3    3    0    0  0.90385552953E+02 -0.22526456583E+03  0.30291938470E+03  0.38816726604E+03  0.00000000000E+00 0.  1.
          4    1    6    6  502    0  0.19618825254E+02  0.16052032807E+03 -0.12756560816E+03  0.20597247004E+03  0.00000000000E+00 0. -1.
          1    1    5    5  503    0  0.91772733048E+01  0.35719700592E+01 -0.59129577855E+02  0.59944043013E+02  0.00000000000E+00 0. -1.
         -2    1    5    5    0  503 -0.11699962839E+03 -0.57361051096E+02 -0.20866042882E+04  0.20906689501E+04  0.00000000000E+00 0.  1.
         -3    1    6    6    0  502  0.77104464484E+01  0.27681890224E+03 -0.36406825336E+03  0.45742086609E+03  0.00000000000E+00 0.  1.
<mgrwt>
<rscale>  0 0.28046889E+04</rscale>
<asrwt>0</asrwt>
<pdfrwt beam="1">  1        1 0.42946884E+00 0.28046889E+04</pdfrwt>
<pdfrwt beam="2">  1       -1 0.10838047E+00 0.28046889E+04</pdfrwt>
<totfact> 0.57767124E-01</totfact>
</mgrwt>
</event>
<event>
12    1  0.2083715E-007  0.1971569E+04  0.7818608E-02  0.8620029E-01
          1   -1    0    0  501    0  0.00000000000E+00  0.00000000000E+00  0.90694864736E+03  0.90694864736E+03  0.00000000000E+00 0. -1.
         -1   -1    0    0    0  501 -0.00000000000E+00 -0.00000000000E+00 -0.10714734200E+04  0.10714734200E+04  0.00000000000E+00 0.  1.
         23    2    1    2    0    0 -0.59930745837E+03  0.45295133943E+03 -0.26705650705E+03  0.80266443313E+03  0.92826013065E+02 0.  0.
        254    2    1    2    0    0  0.59930745837E+03 -0.45295133943E+03  0.10253173441E+03  0.11757576342E+04  0.89864281689E+03 0.  0.
        -24    2    4    4    0    0  0.15520237756E+03  0.19161967401E+03 -0.20525456093E+03  0.33084189896E+03  0.80753017672E+02 0.  0.
         24    2    4    4    0    0  0.44410508082E+03 -0.64457101343E+03  0.30778629533E+03  0.84491573527E+03  0.80306176283E+02 0.  0.
         13    1    3    3    0    0 -0.10975309817E+03  0.42183918434E+02 -0.33411548995E+02  0.12223566230E+03  0.00000000000E+00 0. -1.
        -13    1    3    3    0    0 -0.48955436020E+03  0.41076742099E+03 -0.23364495805E+03  0.68042877082E+03  0.00000000000E+00 0.  1.
          2    1    6    6  502    0  0.20221928098E+03 -0.22482373451E+03  0.11547774488E+03  0.32368728545E+03  0.00000000000E+00 0. -1.
          3    1    5    5  503    0  0.16986996599E+02  0.48971770897E+02 -0.10942586986E+02  0.52976717605E+02  0.00000000000E+00 0. -1.
         -4    1    5    5    0  503  0.13821538096E+03  0.14264790311E+03 -0.19431197394E+03  0.27786518136E+03  0.00000000000E+00 0.  1.
         -1    1    6    6    0  502  0.24188579983E+03 -0.41974727892E+03  0.19230855046E+03  0.52122844982E+03  0.00000000000E+00 0.  1.
<mgrwt>
<rscale>  0 0.19715693E+04</rscale>
<asrwt>0</asrwt>
<pdfrwt beam="1">  1        1 0.13953056E+00 0.19715693E+04</pdfrwt>
<pdfrwt beam="2">  1       -1 0.16484206E+00 0.19715693E+04</pdfrwt>
<totfact> 0.44878589E+00</totfact>
</mgrwt>
</event>
<event>
12    1  0.2083715E-007  0.2390219E+04  0.7818608E-02  0.8443174E-01
          2   -1    0    0  501    0  0.00000000000E+00  0.00000000000E+00  0.22139521874E+04  0.22139521874E+04  0.00000000000E+00 0. -1.
         -2   -1    0    0    0  501 -0.00000000000E+00 -0.00000000000E+00 -0.64513000219E+03  0.64513000219E+03  0.00000000000E+00 0.  1.
         23    2    1    2    0    0  0.59211712002E+03  0.37543959349E+03  0.15634141556E+04  0.17158786180E+04  0.91749862903E+02 0.  0.
        254    2    1    2    0    0 -0.59211712002E+03 -0.37543959349E+03  0.54080296027E+01  0.11432035717E+04  0.90295491987E+03 0.  0.
        -24    2    4    4    0    0 -0.24948032109E+03 -0.19192765881E+03 -0.43988789823E+03  0.54695047555E+03  0.81097489899E+02 0.  0.
         24    2    4    4    0    0 -0.34263679893E+03 -0.18351193468E+03  0.44529592783E+03  0.59625309612E+03  0.78439053630E+02 0.  0.
         11    1    3    3    0    0  0.25120625389E+03  0.20260656237E+03  0.64965510196E+03  0.72540040847E+03  0.00000000000E+00 0. -1.
        -11    1    3    3    0    0  0.34091086613E+03  0.17283303112E+03  0.91375905368E+03  0.99047820949E+03  0.00000000000E+00 0.  1.
          2    1    6    6  502    0 -0.19367212570E+03 -0.14167180224E+03  0.29825813930E+03  0.38280244185E+03  0.00000000000E+00 0. -1.
          1    1    5    5  503    0 -0.17476127656E+03 -0.94626455851E+02 -0.31044881443E+03  0.36861109087E+03  0.00000000000E+00 0. -1.
         -2    1    5    5    0  503 -0.74719044525E+02 -0.97301202962E+02 -0.12943908380E+03  0.17833938468E+03  0.00000000000E+00 0.  1.
         -1    1    6    6    0  502 -0.14896467323E+03 -0.41840132441E+02  0.14703778853E+03  0.21345065427E+03  0.00000000000E+00 0.  1.
<mgrwt>
<rscale>  0 0.23902192E+04</rscale>
<asrwt>0</asrwt>
<pdfrwt beam="1">  1        2 0.34060803E+00 0.23902192E+04</pdfrwt>
<pdfrwt beam="2">  1       -2 0.99250770E-01 0.23902192E+04</pdfrwt>
<totfact> 0.38370051E+00</totfact>
</mgrwt>
</event>
<event>
12    1  0.2083715E-007  0.1284704E+04  0.7818608E-02  0.9041783E-01
         -2   -1    0    0    0  501 -0.00000000000E+00  0.00000000000E+00  0.23053589009E+03  0.23053589009E+03  0.00000000000E+00 0.  1.
          2   -1    0    0  501    0  0.00000000000E+00 -0.00000000000E+00 -0.17898141166E+04  0.17898141166E+04  0.00000000000E+00 0. -1.
         23    2    1    2    0    0  0.26449412415E+02  0.28950980989E+03 -0.60275478894E+03  0.67515375518E+03  0.89463713940E+02 0.  0.
        254    2    1    2    0    0 -0.26449412415E+02 -0.28950980989E+03 -0.95652343753E+03  0.13451962515E+04  0.90005575769E+03 0.  0.
        -24    2    4    4    0    0 -0.13547238891E+03  0.28184780029E+03 -0.17304859600E+03  0.36619023708E+03  0.79740344057E+02 0.  0.
         24    2    4    4    0    0  0.10902297649E+03 -0.57135761018E+03 -0.78347484153E+03  0.97900601438E+03  0.79274338537E+02 0.  0.
         13    1    3    3    0    0  0.27150251875E+02  0.37368767069E+02 -0.14966754038E+03  0.15663311774E+03  0.00000000000E+00 0. -1.
        -13    1    3    3    0    0 -0.70083946065E+00  0.25214104282E+03 -0.45308724856E+03  0.51852063744E+03  0.00000000000E+00 0.  1.
          4    1    6    6  502    0  0.86007515128E+02 -0.33532700197E+03 -0.51803902051E+03  0.62306172863E+03  0.00000000000E+00 0. -1.
          3    1    5    5  503    0 -0.53461227174E+02  0.88053229220E+02 -0.17452708479E+02  0.10448000297E+03  0.00000000000E+00 0. -1.
         -4    1    5    5    0  503 -0.82011161733E+02  0.19379457107E+03 -0.15559588752E+03  0.26171023411E+03  0.00000000000E+00 0.  1.
         -3    1    6    6    0  502  0.23015461365E+02 -0.23603060821E+03 -0.26543582103E+03  0.35594428575E+03  0.00000000000E+00 0.  1.
<mgrwt>
<rscale>  0 0.12847045E+04</rscale>
<asrwt>0</asrwt>
<pdfrwt beam="1">  1        2 0.27535601E+00 0.12847045E+04</pdfrwt>
<pdfrwt beam="2">  1       -2 0.35467062E-01 0.12847045E+04</pdfrwt>
<totfact> 0.64065892E+01</totfact>
</mgrwt>
</event>
<event>
12    1  0.2083715E-007  0.2460392E+04  0.7818608E-02  0.8417233E-01
         -2   -1    0    0    0  501 -0.00000000000E+00  0.00000000000E+00  0.56308497899E+03  0.56308497899E+03  0.00000000000E+00 0.  1.
          2   -1    0    0  501    0  0.00000000000E+00 -0.00000000000E+00 -0.26876631388E+04  0.26876631388E+04  0.00000000000E+00 0. -1.
         23    2    1    2    0    0  0.92062299804E+03 -0.43624253768E+03 -0.13325465868E+04  0.16797479725E+04  0.89546573402E+02 0.  0.
        254    2    1    2    0    0 -0.92062299804E+03  0.43624253768E+03 -0.79203157300E+03  0.15710001453E+04  0.89603191224E+03 0.  0.
        -24    2    4    4    0    0  0.44736510810E+02  0.19534591926E+03 -0.47879074576E+03  0.52546926230E+03  0.81951106292E+02 0.  0.
         24    2    4    4    0    0 -0.96535950885E+03  0.24089661842E+03 -0.31324082724E+03  0.10455308830E+04  0.71167755341E+02 0.  0.
         13    1    3    3    0    0  0.41678713000E+03 -0.16884035654E+03 -0.52847143330E+03  0.69390246689E+03  0.00000000000E+00 0. -1.
        -13    1    3    3    0    0  0.50383586804E+03 -0.26740218114E+03 -0.80407515354E+03  0.98584550561E+03  0.00000000000E+00 0.  1.
          4    1    6    6  502    0 -0.13396386515E+03  0.84730988302E+01 -0.41859158355E+02  0.14060689780E+03  0.00000000000E+00 0. -1.
          3    1    5    5  503    0 -0.20938823914E+02  0.20321020402E+02 -0.54446492105E+02  0.61772151651E+02  0.00000000000E+00 0. -1.
         -4    1    5    5    0  503  0.65675334723E+02  0.17502489886E+03 -0.42434425366E+03  0.46369711065E+03  0.00000000000E+00 0.  1.
         -3    1    6    6    0  502 -0.83139564370E+03  0.23242351959E+03 -0.27138166888E+03  0.90492398523E+03  0.00000000000E+00 0.  1.
<mgrwt>
<rscale>  0 0.24603924E+04</rscale>
<asrwt>0</asrwt>
<pdfrwt beam="1">  1        2 0.41348665E+00 0.24603924E+04</pdfrwt>
<pdfrwt beam="2">  1       -2 0.86628456E-01 0.24603924E+04</pdfrwt>
<totfact> 0.27881205E+00</totfact>
</mgrwt>
</event>
<event>
12    1  0.2083715E-007  0.3489696E+04  0.7818608E-02  0.8116236E-01
         -2   -1    0    0    0  501 -0.00000000000E+00  0.00000000000E+00  0.69422803158E+03  0.69422803158E+03  0.00000000000E+00 0.  1.
          2   -1    0    0  501    0  0.00000000000E+00 -0.00000000000E+00 -0.43854383066E+04  0.43854383066E+04  0.00000000000E+00 0. -1.
         23    2    1    2    0    0 -0.15667539083E+04  0.21273715239E+03 -0.22855324061E+04  0.27806464414E+04  0.91440403394E+02 0.  0.
        254    2    1    2    0    0  0.15667539083E+04 -0.21273715239E+03 -0.14056778689E+04  0.22990198967E+04  0.89977069820E+03 0.  0.
        -24    2    4    4    0    0  0.14747234344E+04 -0.19091966013E+00 -0.88079559075E+03  0.17196580200E+04  0.81323972503E+02 0.  0.
         24    2    4    4    0    0  0.92030473908E+02 -0.21254623273E+03 -0.52488227810E+03  0.57936187676E+03  0.80704827653E+02 0.  0.
         11    1    3    3    0    0 -0.15013099715E+04  0.18493056037E+03 -0.21849015114E+04  0.26574283730E+04  0.00000000000E+00 0.  1.
        -11    1    3    3    0    0 -0.65443936798E+02  0.27806592017E+02 -0.10063089470E+03  0.12321806845E+03  0.00000000000E+00 0. -1.
          2    1    6    6  502    0  0.71281491812E+02 -0.76196360770E+02 -0.27179133412E+03  0.29113135485E+03  0.00000000000E+00 0. -1.
          3    1    5    5  503    0  0.79907534376E+03  0.24439471028E+02 -0.43960424313E+03  0.91234345689E+03  0.00000000000E+00 0. -1.
         -4    1    5    5    0  503  0.67564809066E+03 -0.24630390688E+02 -0.44119134762E+03  0.80731456309E+03  0.00000000000E+00 0.  1.
         -1    1    6    6    0  502  0.20748982096E+02 -0.13634987196E+03 -0.25309094398E+03  0.28823052192E+03  0.00000000000E+00 0.  1.
<mgrwt>
<rscale>  0 0.34896958E+04</rscale>
<asrwt>0</asrwt>
<pdfrwt beam="1">  1        2 0.67468279E+00 0.34896958E+04</pdfrwt>
<pdfrwt beam="2">  1       -2 0.10680432E+00 0.34896958E+04</pdfrwt>
<totfact> 0.91510502E-02</totfact>
</mgrwt>
</event>
<event>
12    1  0.2083715E-007  0.3716779E+04  0.7818608E-02  0.8064253E-01
          2   -1    0    0  501    0  0.00000000000E+00  0.00000000000E+00  0.35452554403E+04  0.35452554403E+04  0.00000000000E+00 0. -1.
         -2   -1    0    0    0  501 -0.00000000000E+00 -0.00000000000E+00 -0.97415038612E+03  0.97415038612E+03  0.00000000000E+00 0.  1.
         23    2    1    2    0    0  0.84361810990E+03 -0.10099395135E+04 -0.18854936825E+03  0.13324719597E+04  0.90891819707E+02 0.  0.
        254    2    1    2    0    0 -0.84361810990E+03  0.10099395135E+04  0.27596544224E+04  0.31869338667E+04  0.89954744372E+03 0.  0.
        -24    2    4    4    0    0 -0.41790630246E+03  0.11781663059E+02  0.37815691588E+03  0.56864845654E+03  0.74658749570E+02 0.  0.
         24    2    4    4    0    0 -0.42571180745E+03  0.99815785039E+03  0.23814975066E+04  0.26182854102E+04  0.79614560110E+02 0.  0.
         11    1    3    3    0    0  0.16499936499E+03 -0.16416251613E+03 -0.61076005391E+02  0.24063333224E+03  0.00000000000E+00 0.  1.
        -11    1    3    3    0    0  0.67861874491E+03 -0.84577699732E+03 -0.12747336286E+03  0.10918386274E+04  0.00000000000E+00 0. -1.
          2    1    6    6  502    0 -0.17722821763E+03  0.49301044708E+03  0.10862816573E+04  0.12060169904E+04  0.00000000000E+00 0. -1.
          3    1    5    5  503    0 -0.16232438413E+03  0.19500618471E+02  0.19306501227E+03  0.25298928587E+03  0.00000000000E+00 0. -1.
         -4    1    5    5    0  503 -0.25558191833E+03 -0.77189554124E+01  0.18509190361E+03  0.31565917067E+03  0.00000000000E+00 0.  1.
         -1    1    6    6    0  502 -0.24848358982E+03  0.50514740332E+03  0.12952158493E+04  0.14122684198E+04  0.00000000000E+00 0.  1.
<mgrwt>
<rscale>  0 0.37167792E+04</rscale>
<asrwt>0</asrwt>
<pdfrwt beam="1">  1        2 0.54542391E+00 0.37167792E+04</pdfrwt>
<pdfrwt beam="2">  1       -2 0.14986929E+00 0.37167792E+04</pdfrwt>
<totfact> 0.18280244E-01</totfact>
</mgrwt>
</event>
<event>
12    1  0.2083715E-007  0.2934326E+04  0.7818608E-02  0.8262737E-01
          2   -1    0    0  501    0  0.00000000000E+00  0.00000000000E+00  0.30217260360E+04  0.30217260360E+04  0.00000000000E+00 0. -1.
         -2   -1    0    0    0  501 -0.00000000000E+00 -0.00000000000E+00 -0.71236371071E+03  0.71236371071E+03  0.00000000000E+00 0.  1.
         23    2    1    2    0    0 -0.31844669518E+03  0.12867644568E+04  0.11560231361E+04  0.17599521185E+04  0.62216584749E+02 0.  0.
        254    2    1    2    0    0  0.31844669518E+03 -0.12867644568E+04  0.11533391892E+04  0.19741376282E+04  0.89992056588E+03 0.  0.
        -24    2    4    4    0    0  0.24585750299E+03 -0.14052613921E+04  0.95291377375E+03  0.17174443366E+04  0.79780304960E+02 0.  0.
         24    2    4    4    0    0  0.72589192194E+02  0.11849693536E+03  0.20042541547E+03  0.25669329164E+03  0.80064875544E+02 0.  0.
         11    1    3    3    0    0 -0.12536694377E+03  0.60240537710E+03  0.50873380095E+03  0.79838536383E+03  0.00000000000E+00 0.  1.
        -11    1    3    3    0    0 -0.19307975142E+03  0.68435907966E+03  0.64728933514E+03  0.96156675468E+03  0.00000000000E+00 0. -1.
          4    1    6    6  502    0 -0.11703548005E+02  0.87614601232E+01  0.19580659931E+01  0.14750262433E+02  0.00000000000E+00 0. -1.
          1    1    5    5  503    0  0.17137783939E+03 -0.76619439393E+03  0.50573902360E+03  0.93391443565E+03  0.00000000000E+00 0. -1.
         -2    1    5    5    0  503  0.74479663595E+02 -0.63906699819E+03  0.44717475015E+03  0.78352990092E+03  0.00000000000E+00 0.  1.
         -3    1    6    6    0  502  0.84292740199E+02  0.10973547524E+03  0.19846734948E+03  0.24194302921E+03  0.00000000000E+00 0.  1.
<mgrwt>
<rscale>  0 0.29343265E+04</rscale>
<asrwt>0</asrwt>
<pdfrwt beam="1">  1        2 0.46488092E+00 0.29343265E+04</pdfrwt>
<pdfrwt beam="2">  1       -2 0.10959442E+00 0.29343265E+04</pdfrwt>
<totfact> 0.96209874E-01</totfact>
</mgrwt>
</event>
<event>
12    1  0.2083715E-007  0.2356954E+04  0.7818608E-02  0.8455797E-01
          1   -1    0    0  501    0  0.00000000000E+00  0.00000000000E+00  0.79179984516E+03  0.79179984516E+03  0.00000000000E+00 0. -1.
         -1   -1    0    0    0  501 -0.00000000000E+00 -0.00000000000E+00 -0.17539887832E+04  0.17539887832E+04  0.00000000000E+00 0.  1.
         23    2    1    2    0    0  0.98814046144E+03 -0.93450978620E+02 -0.61922921896E+03  0.11734767727E+04  0.91914381007E+02 0.  0.
        254    2    1    2    0    0 -0.98814046144E+03  0.93450978620E+02 -0.34295971908E+03  0.13723118557E+04  0.88343862461E+03 0.  0.
        -24    2    4    4    0    0 -0.62745273823E+03  0.14815395833E+02 -0.63376407120E+03  0.89554194829E+03  0.80137684820E+02 0.  0.
         24    2    4    4    0    0 -0.36068772321E+03  0.78635582787E+02  0.29080435212E+03  0.47676990741E+03  0.80393935391E+02 0.  0.
         13    1    3    3    0    0  0.28663587538E+03  0.57525041809E+01 -0.14853311575E+03  0.32288589755E+03  0.00000000000E+00 0. -1.
        -13    1    3    3    0    0  0.70150458606E+03 -0.99203482801E+02 -0.47069610322E+03  0.85059087512E+03  0.00000000000E+00 0.  1.
          4    1    6    6  502    0 -0.28367666555E+03  0.26748622435E+02  0.21732945148E+03  0.35835740520E+03  0.00000000000E+00 0. -1.
          3    1    5    5  503    0 -0.59277029850E+03  0.77135982831E+01 -0.56883987295E+03  0.82159292076E+03  0.00000000000E+00 0. -1.
         -4    1    5    5    0  503 -0.34682439735E+02  0.71017975499E+01 -0.64924198246E+02  0.73949027528E+02  0.00000000000E+00 0.  1.
         -3    1    6    6    0  502 -0.77011057655E+02  0.51886960353E+02  0.73474900640E+02  0.11841250221E+03  0.00000000000E+00 0.  1.
<mgrwt>
<rscale>  0 0.23569540E+04</rscale>
<asrwt>0</asrwt>
<pdfrwt beam="1">  1        1 0.12181536E+00 0.23569540E+04</pdfrwt>
<pdfrwt beam="2">  1       -1 0.26984443E+00 0.23569540E+04</pdfrwt>
<totfact> 0.10471010E+00</totfact>
</mgrwt>
</event>
<event>
12    1  0.2083715E-007  0.1430774E+04  0.7818608E-02  0.8931839E-01
         -2   -1    0    0    0  501 -0.00000000000E+00  0.00000000000E+00  0.32273899553E+03  0.32273899553E+03  0.00000000000E+00 0.  1.
          2   -1    0    0  501    0  0.00000000000E+00 -0.00000000000E+00 -0.15857340225E+04  0.15857340225E+04  0.00000000000E+00 0. -1.
         23    2    1    2    0    0 -0.12883481382E+03 -0.10437861699E+02 -0.92418470231E+03  0.93732313020E+03  0.88033676567E+02 0.  0.
        254    2    1    2    0    0  0.12883481382E+03  0.10437861699E+02 -0.33881032469E+03  0.97114988787E+03  0.90090638270E+03 0.  0.
        -24    2    4    4    0    0 -0.83882656833E+02  0.13942912615E+03  0.26044308468E+03  0.31749748362E+03  0.80605647498E+02 0.  0.
         24    2    4    4    0    0  0.21271747065E+03 -0.12899126445E+03 -0.59925340937E+03  0.65365240425E+03  0.79179216471E+02 0.  0.
         11    1    3    3    0    0 -0.99758618247E+02  0.26076023187E+02 -0.74745417253E+03  0.75453262417E+03  0.00000000000E+00 0. -1.
        -11    1    3    3    0    0 -0.29076195574E+02 -0.36513884886E+02 -0.17673052978E+03  0.18279050603E+03  0.00000000000E+00 0.  1.
          2    1    6    6  502    0 -0.38866265437E+01  0.34939450034E+01 -0.42449509205E+01  0.67329878876E+01  0.00000000000E+00 0. -1.
          3    1    5    5  503    0 -0.60227722017E+02  0.37167151258E+02  0.14575742919E+03  0.16203087297E+03  0.00000000000E+00 0. -1.
         -4    1    5    5    0  503 -0.23654934816E+02  0.10226197489E+03  0.11468565549E+03  0.15546661065E+03  0.00000000000E+00 0.  1.
         -1    1    6    6    0  502  0.21660409720E+03 -0.13248520946E+03 -0.59500845845E+03  0.64691941637E+03  0.00000000000E+00 0.  1.
<mgrwt>
<rscale>  0 0.14307735E+04</rscale>
<asrwt>0</asrwt>
<pdfrwt beam="1">  1        2 0.24395907E+00 0.14307735E+04</pdfrwt>
<pdfrwt beam="2">  1       -2 0.49652155E-01 0.14307735E+04</pdfrwt>
<totfact> 0.42336028E+01</totfact>
</mgrwt>
</event>
<event>
12    1  0.2083715E-007  0.2357413E+04  0.7818608E-02  0.8455622E-01
         -2   -1    0    0    0  501 -0.00000000000E+00  0.00000000000E+00  0.98506861016E+03  0.98506861016E+03  0.00000000000E+00 0. -1.
          2   -1    0    0  501    0  0.00000000000E+00 -0.00000000000E+00 -0.14104087633E+04  0.14104087633E+04  0.00000000000E+00 0.  1.
         23    2    1    2    0    0  0.33605300490E+03 -0.61975901463E+03  0.54460462413E+03  0.89568355165E+03  0.92854562325E+02 0.  0.
        254    2    1    2    0    0 -0.33605300490E+03  0.61975901463E+03 -0.96994477727E+03  0.14997938218E+04  0.90086390685E+03 0.  0.
        -24    2    4    4    0    0  0.17743251257E+03  0.55033301026E+03 -0.32318769416E+03  0.66717449516E+03  0.79516052704E+02 0.  0.
         24    2    4    4    0    0 -0.51348551747E+03  0.69426004373E+02 -0.64675708311E+03  0.83261932665E+03  0.80454159792E+02 0.  0.
         11    1    3    3    0    0  0.48519324913E+02 -0.16678161485E+03  0.11449949357E+03  0.20803933755E+03  0.00000000000E+00 0.  1.
        -11    1    3    3    0    0  0.28753367999E+03 -0.45297739979E+03  0.43010513056E+03  0.68764421410E+03  0.00000000000E+00 0. -1.
          2    1    6    6  502    0 -0.54921942506E+02 -0.11385343371E+02 -0.98179982539E+02  0.11307234314E+03  0.00000000000E+00 0. -1.
          1    1    5    5  503    0  0.12897301998E+02  0.15139727781E+03 -0.76719561819E+02  0.17021564937E+03  0.00000000000E+00 0. -1.
         -2    1    5    5    0  503  0.16453521057E+03  0.39893573245E+03 -0.24646813234E+03  0.49695884579E+03  0.00000000000E+00 0.  1.
         -1    1    6    6    0  502 -0.45856357496E+03  0.80811347744E+02 -0.54857710057E+03  0.71954698351E+03  0.00000000000E+00 0.  1.
<mgrwt>
<rscale>  0 0.23574133E+04</rscale>
<asrwt>0</asrwt>
<pdfrwt beam="1">  1        2 0.21698596E+00 0.23574133E+04</pdfrwt>
<pdfrwt beam="2">  1       -2 0.15154902E+00 0.23574133E+04</pdfrwt>
<totfact> 0.37556904E+00</totfact>
</mgrwt>
</event>
<event>
12    1  0.2083715E-007  0.2449390E+04  0.7818608E-02  0.8421241E-01
         -1   -1    0    0    0  501 -0.00000000000E+00  0.00000000000E+00  0.48860528382E+03  0.48860528382E+03  0.00000000000E+00 0. -1.
          1   -1    0    0  501    0  0.00000000000E+00 -0.00000000000E+00 -0.30697127225E+04  0.30697127225E+04  0.00000000000E+00 0.  1.
         23    2    1    2    0    0  0.83193774500E+02 -0.10543885239E+04 -0.11000025533E+04  0.15287354067E+04  0.91487502315E+02 0.  0.
        254    2    1    2    0    0 -0.83193774500E+02  0.10543885239E+04 -0.14811048854E+04  0.20295825996E+04  0.89826359371E+03 0.  0.
        -24    2    4    4    0    0 -0.24230341303E+03  0.17680820185E+03 -0.92463203330E+03  0.97540912945E+03  0.80662808146E+02 0.  0.
         24    2    4    4    0    0  0.15910963853E+03  0.87758032202E+03 -0.55647285206E+03  0.10541734701E+04  0.78463822307E+02 0.  0.
         13    1    3    3    0    0  0.42975826328E+02 -0.15036366815E+03 -0.14918890215E+03  0.21613302125E+03  0.00000000000E+00 0. -1.
        -13    1    3    3    0    0  0.40217948172E+02 -0.90402485573E+03 -0.95081365117E+03  0.13126023855E+04  0.00000000000E+00 0.  1.
          4    1    6    6  502    0  0.13534957659E+03  0.53860637892E+03 -0.35529482743E+03  0.65928048181E+03  0.00000000000E+00 0. -1.
          3    1    5    5  503    0 -0.23283054295E+03  0.15921025378E+03 -0.90268319031E+03  0.94572454166E+03  0.00000000000E+00 0. -1.
         -4    1    5    5    0  503 -0.94728700788E+01  0.17597948069E+02 -0.21948842987E+02  0.29684587790E+02  0.00000000000E+00 0.  1.
         -3    1    6    6    0  502  0.23760061941E+02  0.33897394310E+03 -0.20117802464E+03  0.39489298834E+03  0.00000000000E+00 0.  1.
<mgrwt>
<rscale>  0 0.24493900E+04</rscale>
<asrwt>0</asrwt>
<pdfrwt beam="1">  1        1 0.47226349E+00 0.24493900E+04</pdfrwt>
<pdfrwt beam="2">  1       -1 0.75170044E-01 0.24493900E+04</pdfrwt>
<totfact> 0.84383694E-01</totfact>
</mgrwt>
</event>
<event>
12    1  0.2083715E-007  0.1602341E+04  0.7818608E-02  0.8819111E-01
         -2   -1    0    0    0  501 -0.00000000000E+00  0.00000000000E+00  0.43507169073E+03  0.43507169073E+03  0.00000000000E+00 0. -1.
          2   -1    0    0  501    0  0.00000000000E+00 -0.00000000000E+00 -0.14753289575E+04  0.14753289575E+04  0.00000000000E+00 0.  1.
         23    2    1    2    0    0  0.82875161958E+01  0.49693793840E+03 -0.60254368089E+03  0.78480834637E+03  0.76480426266E+02 0.  0.
        254    2    1    2    0    0 -0.82875161958E+01 -0.49693793840E+03 -0.43771358587E+03  0.11255923019E+04  0.91013672006E+03 0.  0.
        -24    2    4    4    0    0  0.41434939914E+03 -0.24879092593E+03 -0.43926193052E+02  0.49186781229E+03  0.80137912016E+02 0.  0.
         24    2    4    4    0    0 -0.42263691533E+03 -0.24814701246E+03 -0.39378739282E+03  0.63372448956E+03  0.79619821189E+02 0.  0.
         11    1    3    3    0    0 -0.20128952606E+02  0.30901234242E+03 -0.33003838683E+03  0.45256948558E+03  0.00000000000E+00 0.  1.
        -11    1    3    3    0    0  0.28416468801E+02  0.18792559598E+03 -0.27250529406E+03  0.33223886079E+03  0.00000000000E+00 0. -1.
          2    1    6    6  502    0 -0.66496285780E+02 -0.90324377840E+01 -0.44265069227E+02  0.80391151929E+02  0.00000000000E+00 0. -1.
          1    1    5    5  503    0  0.23452193476E+03 -0.17742321498E+03 -0.28704801092E+01  0.29408803913E+03  0.00000000000E+00 0. -1.
         -2    1    5    5    0  503  0.17982746437E+03 -0.71367710949E+02 -0.41055712943E+02  0.19777977317E+03  0.00000000000E+00 0.  1.
         -1    1    6    6    0  502 -0.35614062955E+03 -0.23911457468E+03 -0.34952232359E+03  0.55333333763E+03  0.00000000000E+00 0.  1.
<mgrwt>
<rscale>  0 0.16023406E+04</rscale>
<asrwt>0</asrwt>
<pdfrwt beam="1">  1        2 0.22697368E+00 0.16023406E+04</pdfrwt>
<pdfrwt beam="2">  1       -2 0.66934107E-01 0.16023406E+04</pdfrwt>
<totfact> 0.25752764E+01</totfact>
</mgrwt>
</event>
<event>
12    1  0.2083715E-007  0.1934436E+04  0.7818608E-02  0.8637903E-01
         -1   -1    0    0    0  501 -0.00000000000E+00  0.00000000000E+00  0.13914317648E+04  0.13914317648E+04  0.00000000000E+00 0.  1.
          1   -1    0    0  501    0  0.00000000000E+00 -0.00000000000E+00 -0.67233692002E+03  0.67233692002E+03  0.00000000000E+00 0. -1.
         23    2    1    2    0    0 -0.72815150967E+03  0.13621119586E+03  0.13556181877E+03  0.75860758610E+03  0.91380260851E+02 0.  0.
        254    2    1    2    0    0  0.72815150967E+03 -0.13621119586E+03  0.58353302603E+03  0.13051610987E+04  0.90231734454E+03 0.  0.
        -24    2    4    4    0    0  0.82113720949E+03 -0.16167134224E+03  0.72927145363E+03  0.11128687797E+04  0.78969159113E+02 0.  0.
         24    2    4    4    0    0 -0.92985699823E+02  0.25460146377E+02 -0.14573842760E+03  0.19229231901E+03  0.80262614255E+02 0.  0.
         13    1    3    3    0    0 -0.51196705709E+03  0.55652109550E+02  0.10883920516E+03  0.52635862054E+03  0.00000000000E+00 0.  1.
        -13    1    3    3    0    0 -0.21618445258E+03  0.80559086313E+02  0.26722613611E+02  0.23224896556E+03  0.00000000000E+00 0. -1.
          2    1    6    6  502    0 -0.75361643059E+02 -0.18794530132E+02 -0.94721163137E+02  0.12249371557E+03  0.00000000000E+00 0. -1.
          1    1    5    5  503    0  0.25835707729E+03 -0.41609445957E+02  0.18212342887E+03  0.31882388355E+03  0.00000000000E+00 0. -1.
         -2    1    5    5    0  503  0.56278013220E+03 -0.12006189628E+03  0.54714802476E+03  0.79404489618E+03  0.00000000000E+00 0.  1.
         -1    1    6    6    0  502 -0.17624056764E+02  0.44254676508E+02 -0.51017264458E+02  0.69798603442E+02  0.00000000000E+00 0.  1.
<mgrwt>
<rscale>  0 0.19344363E+04</rscale>
<asrwt>0</asrwt>
<pdfrwt beam="1">  1        1 0.10343645E+00 0.19344363E+04</pdfrwt>
<pdfrwt beam="2">  1       -1 0.21406642E+00 0.19344363E+04</pdfrwt>
<totfact> 0.32587756E+00</totfact>
</mgrwt>
</event>
<event>
12    1  0.2083715E-007  0.1553593E+04  0.7818608E-02  0.8849576E-01
          1   -1    0    0  501    0  0.00000000000E+00  0.00000000000E+00  0.35174267446E+04  0.35174267446E+04  0.00000000000E+00 0. -1.
         -1   -1    0    0    0  501 -0.00000000000E+00 -0.00000000000E+00 -0.17154954923E+03  0.17154954923E+03  0.00000000000E+00 0.  1.
         23    2    1    2    0    0 -0.33498359150E+03 -0.32668092831E+03  0.62833119646E+03  0.78863309301E+03  0.90595957141E+02 0.  0.
        254    2    1    2    0    0  0.33498359150E+03  0.32668092831E+03  0.27175459989E+04  0.29003432008E+04  0.89888819706E+03 0.  0.
        -24    2    4    4    0    0  0.14262658063E+03  0.14345371761E+03  0.55702601430E+02  0.22411354466E+03  0.78757796426E+02 0.  0.
         24    2    4    4    0    0  0.19235701088E+03  0.18322721070E+03  0.26618433975E+04  0.26762296562E+04  0.78876291609E+02 0.  0.
         11    1    3    3    0    0 -0.69375900102E+02 -0.11213833118E+03  0.13538314419E+03  0.18898840325E+03  0.00000000000E+00 0.  1.
        -11    1    3    3    0    0 -0.26560769140E+03 -0.21454259713E+03  0.49294805227E+03  0.59964468976E+03  0.00000000000E+00 0. -1.
          2    1    6    6  502    0  0.49882135974E+02  0.49431986681E+02  0.10938441804E+04  0.10960961819E+04  0.00000000000E+00 0. -1.
          3    1    5    5  503    0  0.12433870409E+03  0.87835840818E+02  0.63696995936E+02  0.16502289405E+03  0.00000000000E+00 0. -1.
         -4    1    5    5    0  503  0.18287876532E+02  0.55617876789E+02 -0.79943945056E+01  0.59090650615E+02  0.00000000000E+00 0.  1.
         -1    1    6    6    0  502  0.14247487490E+03  0.13379522402E+03  0.15679992171E+04  0.15801334743E+04  0.00000000000E+00 0.  1.
<mgrwt>
<rscale>  0 0.15535932E+04</rscale>
<asrwt>0</asrwt>
<pdfrwt beam="1">  1        1 0.54114252E+00 0.15535932E+04</pdfrwt>
<pdfrwt beam="2">  1       -1 0.26392241E-01 0.15535932E+04</pdfrwt>
<totfact> 0.30070985E+00</totfact>
</mgrwt>
</event>
<event>
12    1  0.2083715E-007  0.2775013E+04  0.7818608E-02  0.8311068E-01
         -2   -1    0    0    0  501 -0.00000000000E+00  0.00000000000E+00  0.18239054934E+04  0.18239054934E+04  0.00000000000E+00 0.  1.
          2   -1    0    0  501    0  0.00000000000E+00 -0.00000000000E+00 -0.10555233882E+04  0.10555233882E+04  0.00000000000E+00 0. -1.
         23    2    1    2    0    0 -0.11246690162E+04  0.50723813099E+03  0.46455856840E+03  0.13217417920E+04  0.94951480787E+02 0.  0.
        254    2    1    2    0    0  0.11246690162E+04 -0.50723813099E+03  0.30382353682E+03  0.15576870895E+04  0.90106015880E+03 0.  0.
        -24    2    4    4    0    0 -0.89539251660E+02 -0.25901743685E+03  0.49750030535E+02  0.29003999359E+03  0.80875349530E+02 0.  0.
         24    2    4    4    0    0  0.12142082679E+04 -0.24822069414E+03  0.25407350629E+03  0.12676470959E+04  0.80377748434E+02 0.  0.
         11    1    3    3    0    0 -0.10452412118E+04  0.48616042480E+03  0.41194484603E+03  0.12241649013E+04  0.00000000000E+00 0. -1.
        -11    1    3    3    0    0 -0.79427804462E+02  0.21077706191E+02  0.52613722373E+02  0.97576890717E+02  0.00000000000E+00 0.  1.
          4    1    6    6  502    0  0.89574529505E+03 -0.15623912787E+03  0.21047981404E+03  0.93331240793E+03  0.00000000000E+00 0. -1.
          3    1    5    5  503    0  0.40597481919E+01 -0.10789206459E+03  0.17619914646E+02  0.10939671178E+03  0.00000000000E+00 0. -1.
         -4    1    5    5    0  503 -0.93598999852E+02 -0.15112537227E+03  0.32130115889E+02  0.18064328181E+03  0.00000000000E+00 0.  1.
         -3    1    6    6    0  502  0.31846297284E+03 -0.91981566269E+02  0.43593692250E+02  0.33433468801E+03  0.00000000000E+00 0.  1.
<mgrwt>
<rscale>  0 0.27750134E+04</rscale>
<asrwt>0</asrwt>
<pdfrwt beam="1">  1        2 0.16238821E+00 0.27750134E+04</pdfrwt>
<pdfrwt beam="2">  1       -2 0.28060084E+00 0.27750134E+04</pdfrwt>
<totfact> 0.84550219E-01</totfact>
</mgrwt>
</event>
<event>
12    1  0.2083715E-007  0.2446395E+04  0.7818608E-02  0.8422335E-01
          1   -1    0    0  501    0  0.00000000000E+00  0.00000000000E+00  0.20199279963E+04  0.20199279963E+04  0.00000000000E+00 0. -1.
         -1   -1    0    0    0  501 -0.00000000000E+00 -0.00000000000E+00 -0.74072545121E+03  0.74072545121E+03  0.00000000000E+00 0.  1.
         23    2    1    2    0    0 -0.41352921566E+01 -0.31412736649E+03 -0.57782223808E+03  0.66418651899E+03  0.92585582999E+02 0.  0.
        254    2    1    2    0    0  0.41352921566E+01  0.31412736649E+03  0.18570247832E+04  0.20964669286E+04  0.92083626888E+03 0.  0.
        -24    2    4    4    0    0 -0.18079571601E+03  0.55080293270E+03  0.15605634003E+04  0.16666519119E+04  0.79369435159E+02 0.  0.
         24    2    4    4    0    0  0.18493100816E+03 -0.23667556621E+03  0.29646138287E+03  0.42981501670E+03  0.81466530729E+02 0.  0.
         13    1    3    3    0    0 -0.29561336628E+02 -0.74303052977E+02 -0.92708185979E+02  0.12243212018E+03  0.00000000000E+00 0. -1.
        -13    1    3    3    0    0  0.25426044471E+02 -0.23982431351E+03 -0.48511405210E+03  0.54175439881E+03  0.00000000000E+00 0.  1.
          2    1    6    6  502    0  0.11124014481E+02 -0.58690707878E+02  0.36524914139E+02  0.70017228182E+02  0.00000000000E+00 0. -1.
          1    1    5    5  503    0 -0.74425676020E+02  0.31157603830E+03  0.94142178367E+03  0.99443138711E+03  0.00000000000E+00 0. -1.
         -2    1    5    5    0  503 -0.10637003999E+03  0.23922689440E+03  0.61914161667E+03  0.67222052475E+03  0.00000000000E+00 0.  1.
         -1    1    6    6    0  502  0.17380699368E+03 -0.17798485833E+03  0.25993646873E+03  0.35979778852E+03  0.00000000000E+00 0.  1.
<mgrwt>
<rscale>  0 0.24463950E+04</rscale>
<asrwt>0</asrwt>
<pdfrwt beam="1">  1        1 0.31075815E+00 0.24463950E+04</pdfrwt>
<pdfrwt beam="2">  1       -1 0.11395776E+00 0.24463950E+04</pdfrwt>
<totfact> 0.18083904E+00</totfact>
</mgrwt>
</event>
<event>
12    1  0.2971108E-007  0.2046261E+04  0.7818608E-02  0.8585293E-01
         -2   -1    0    0    0  501 -0.00000000000E+00  0.00000000000E+00  0.48049045725E+03  0.48049045725E+03  0.00000000000E+00 0.  1.
          2   -1    0    0  501    0  0.00000000000E+00 -0.00000000000E+00 -0.21785986079E+04  0.21785986079E+04  0.00000000000E+00 0. -1.
         23    2    1    2    0    0 -0.69035048306E+02 -0.78941578199E+03 -0.97420806726E+03  0.12590906694E+04  0.91021099767E+02 0.  0.
        254    2    1    2    0    0  0.69035048306E+02  0.78941578199E+03 -0.72390008344E+03  0.13999983958E+04  0.89889991814E+03 0.  0.
        -24    2    4    4    0    0 -0.10584190682E+03  0.82857815267E+03 -0.82739007876E+03  0.11786160182E+04  0.82565802032E+02 0.  0.
         24    2    4    4    0    0  0.17487695512E+03 -0.39162370679E+02  0.10348999532E+03  0.22138237762E+03  0.78640557474E+02 0.  0.
         11    1    3    3    0    0 -0.27571975318E+02 -0.56914146597E+03 -0.75171123666E+03  0.94326666719E+03  0.00000000000E+00 0. -1.
        -11    1    3    3    0    0 -0.41463072988E+02 -0.22027431601E+03 -0.22249683060E+03  0.31582400216E+03  0.00000000000E+00 0.  1.
          2    1    6    6  502    0  0.12048649409E+03 -0.68806662536E+01  0.10216380465E+03  0.15811951747E+03  0.00000000000E+00 0. -1.
          1    1    5    5  503    0 -0.69589841332E+02  0.68343516970E+03 -0.71467090869E+03  0.99130262025E+03  0.00000000000E+00 0. -1.
         -2    1    5    5    0  503 -0.36252065487E+02  0.14514298297E+03 -0.11271917008E+03  0.18731339797E+03  0.00000000000E+00 0.  1.
         -1    1    6    6    0  502  0.54390461038E+02 -0.32281704426E+02  0.13261906697E+01  0.63262860149E+02  0.00000000000E+00 0.  1.
<mgrwt>
<rscale>  0 0.20462608E+04</rscale>
<asrwt>0</asrwt>
<pdfrwt beam="1">  1        2 0.33516902E+00 0.20462608E+04</pdfrwt>
<pdfrwt beam="2">  1       -2 0.73921608E-01 0.20462608E+04</pdfrwt>
<totfact> 0.81022260E+00</totfact>
</mgrwt>
</event>
<event>
12    1  0.2083715E-007  0.1292987E+04  0.7818608E-02  0.9035145E-01
          3   -1    0    0  501    0  0.00000000000E+00  0.00000000000E+00  0.40929218589E+03  0.40929218589E+03  0.00000000000E+00 0. -1.
         -3   -1    0    0    0  501 -0.00000000000E+00 -0.00000000000E+00 -0.10211624144E+04  0.10211624144E+04  0.00000000000E+00 0.  1.
         23    2    1    2    0    0  0.12150660743E+03 -0.29703056423E+03 -0.20704174010E+03  0.39270562624E+03  0.91435305018E+02 0.  0.
        254    2    1    2    0    0 -0.12150660743E+03  0.29703056423E+03 -0.40482848842E+03  0.10377489741E+04  0.90002545318E+03 0.  0.
        -24    2    4    4    0    0  0.14530496189E+02 -0.29542975886E+03 -0.83461877884E+01  0.30683039101E+03  0.81150183343E+02 0.  0.
         24    2    4    4    0    0 -0.13603710362E+03  0.59246032309E+03 -0.39648230063E+03  0.73091858305E+03  0.86766539291E+02 0.  0.
         11    1    3    3    0    0  0.33059095288E+02 -0.10667417881E+03 -0.12425705938E+03  0.16706915039E+03  0.00000000000E+00 0.  1.
        -11    1    3    3    0    0  0.88447512139E+02 -0.19035638542E+03 -0.82784680721E+02  0.22563647585E+03  0.00000000000E+00 0. -1.
          2    1    6    6  502    0 -0.55455647974E+02  0.42026171662E+03 -0.27598451095E+03  0.50582871571E+03  0.00000000000E+00 0. -1.
          3    1    5    5  503    0 -0.27761869148E+02 -0.16392206963E+03 -0.23305528711E+02  0.16788184523E+03  0.00000000000E+00 0. -1.
         -4    1    5    5    0  503  0.42292365337E+02 -0.13150768923E+03  0.14959340923E+02  0.13894854577E+03  0.00000000000E+00 0.  1.
         -1    1    6    6    0  502 -0.80581455641E+02  0.17219860646E+03 -0.12049778968E+03  0.22508986734E+03  0.00000000000E+00 0.  1.
<mgrwt>
<rscale>  0 0.12929869E+04</rscale>
<asrwt>0</asrwt>
<pdfrwt beam="1">  1        3 0.62968029E-01 0.12929869E+04</pdfrwt>
<pdfrwt beam="2">  1       -3 0.15710191E+00 0.12929869E+04</pdfrwt>
<totfact> 0.17999927E+00</totfact>
</mgrwt>
</event>
<event>
12    1  0.2083715E-007  0.1435819E+04  0.7818608E-02  0.8928291E-01
          1   -1    0    0  501    0  0.00000000000E+00  0.00000000000E+00  0.46540910503E+03  0.46540910503E+03  0.00000000000E+00 0. -1.
         -1   -1    0    0    0  501 -0.00000000000E+00 -0.00000000000E+00 -0.11074000346E+04  0.11074000346E+04  0.00000000000E+00 0.  1.
         23    2    1    2    0    0  0.25689141120E+03 -0.35322972325E+03 -0.15862656326E+03  0.47374790958E+03  0.92251074392E+02 0.  0.
        254    2    1    2    0    0 -0.25689141120E+03  0.35322972325E+03 -0.48336436631E+03  0.10990612300E+04  0.88517232347E+03 0.  0.
        -24    2    4    4    0    0 -0.75213792012E+02  0.30750237593E+03 -0.71765543868E+03  0.78843361866E+03  0.79896286864E+02 0.  0.
         24    2    4    4    0    0 -0.18167761918E+03  0.45727347327E+02  0.23429107237E+03  0.31062761139E+03  0.80619220761E+02 0.  0.
         13    1    3    3    0    0  0.86704299956E+02 -0.16697814753E+03 -0.29894407434E+02  0.19050725177E+03  0.00000000000E+00 0. -1.
        -13    1    3    3    0    0  0.17018711124E+03 -0.18625157573E+03 -0.12873215583E+03  0.28324065781E+03  0.00000000000E+00 0.  1.
          4    1    6    6  502    0 -0.51316161360E+01 -0.10157092268E+02  0.42624786771E+02  0.44117711350E+02  0.00000000000E+00 0. -1.
          3    1    5    5  503    0 -0.33654422120E+02  0.19671034285E+03 -0.35872804389E+03  0.41050382286E+03  0.00000000000E+00 0. -1.
         -4    1    5    5    0  503 -0.41559369892E+02  0.11079203308E+03 -0.35892739479E+03  0.37792979580E+03  0.00000000000E+00 0.  1.
         -3    1    6    6    0  502 -0.17654600305E+03  0.55884439594E+02  0.19166628560E+03  0.26650990004E+03  0.00000000000E+00 0.  1.
<mgrwt>
<rscale>  0 0.14358190E+04</rscale>
<asrwt>0</asrwt>
<pdfrwt beam="1">  1        1 0.71601402E-01 0.14358190E+04</pdfrwt>
<pdfrwt beam="2">  1       -1 0.17036923E+00 0.14358190E+04</pdfrwt>
<totfact> 0.11628002E+01</totfact>
</mgrwt>
</event>
<event>
12    1  0.2083715E-007  0.1465652E+04  0.7818608E-02  0.8907621E-01
          1   -1    0    0  501    0  0.00000000000E+00  0.00000000000E+00  0.28965674625E+04  0.28965674625E+04  0.00000000000E+00 0. -1.
         -1   -1    0    0    0  501 -0.00000000000E+00 -0.00000000000E+00 -0.18540361377E+03  0.18540361377E+03  0.00000000000E+00 0.  1.
         23    2    1    2    0    0 -0.25119472435E+03 -0.37244810956E+03  0.89753925132E+03  0.10078191981E+04  0.91139697864E+02 0.  0.
        254    2    1    2    0    0  0.25119472435E+03  0.37244810956E+03  0.18136245975E+04  0.20741518782E+04  0.90058616999E+03 0.  0.
        -24    2    4    4    0    0 -0.10301434063E+03  0.29834681386E+01  0.14117415004E+04  0.14178019512E+04  0.80792657415E+02 0.  0.
         24    2    4    4    0    0  0.35420906498E+03  0.36946464143E+03  0.40188309704E+03  0.65634992698E+03  0.85539581374E+02 0.  0.
         13    1    3    3    0    0 -0.19504526076E+03 -0.21142872667E+03  0.57809671337E+03  0.64570935429E+03  0.00000000000E+00 0.  1.
        -13    1    3    3    0    0 -0.56149463595E+02 -0.16101938289E+03  0.31944253795E+03  0.36210984380E+03  0.00000000000E+00 0. -1.
          4    1    6    6  502    0  0.32255848679E+02  0.66098555089E+02  0.83807912643E+02  0.11150437202E+03  0.00000000000E+00 0. -1.
          1    1    5    5  503    0 -0.37646746693E+02 -0.36744815173E+02  0.69572308078E+03  0.69770915438E+03  0.00000000000E+00 0. -1.
         -2    1    5    5    0  503 -0.65367593933E+02  0.39728283311E+02  0.71601841964E+03  0.72009279686E+03  0.00000000000E+00 0.  1.
         -3    1    6    6    0  502  0.32195321630E+03  0.30336608634E+03  0.31807518439E+03  0.54484555495E+03  0.00000000000E+00 0.  1.
<mgrwt>
<rscale>  0 0.14656522E+04</rscale>
<asrwt>0</asrwt>
<pdfrwt beam="1">  1        1 0.44562573E+00 0.14656522E+04</pdfrwt>
<pdfrwt beam="2">  1       -1 0.28523635E-01 0.14656522E+04</pdfrwt>
<totfact> 0.77278814E+00</totfact>
</mgrwt>
</event>
<event>
12    1  0.2083715E-007  0.1371739E+04  0.7818608E-02  0.8974533E-01
          1   -1    0    0  501    0  0.00000000000E+00  0.00000000000E+00  0.62363134645E+03  0.62363134645E+03  0.00000000000E+00 0. -1.
         -1   -1    0    0    0  501 -0.00000000000E+00 -0.00000000000E+00 -0.75431952988E+03  0.75431952988E+03  0.00000000000E+00 0.  1.
         23    2    1    2    0    0  0.12220044081E+03  0.14908966839E+03 -0.36931724031E+03  0.42653908942E+03  0.91540667806E+02 0.  0.
        254    2    1    2    0    0 -0.12220044081E+03 -0.14908966839E+03  0.23862905688E+03  0.95141178691E+03  0.90059973602E+03 0.  0.
        -24    2    4    4    0    0  0.14396468493E+03 -0.21671235522E+03 -0.25995870110E+03  0.37620931635E+03  0.79150792886E+02 0.  0.
         24    2    4    4    0    0 -0.26616512574E+03  0.67622686836E+02  0.49858775798E+03  0.57520247056E+03  0.82773351961E+02 0.  0.
         13    1    3    3    0    0  0.20816020497E+02 -0.11209664721E+02 -0.37171913221E+02  0.44053540437E+02  0.00000000000E+00 0. -1.
        -13    1    3    3    0    0  0.10138442031E+03  0.16029933311E+03 -0.33214532709E+03  0.38248554899E+03  0.00000000000E+00 0.  1.
          2    1    6    6  502    0 -0.10588365295E+03  0.51596493874E+02  0.27921225811E+03  0.30303965288E+03  0.00000000000E+00 0. -1.
          3    1    5    5  503    0  0.98155795857E+02 -0.19865532135E+03 -0.19878699357E+03  0.29768232358E+03  0.00000000000E+00 0. -1.
         -4    1    5    5    0  503  0.45808889078E+02 -0.18057033876E+02 -0.61171707526E+02  0.78526992764E+02  0.00000000000E+00 0.  1.
         -1    1    6    6    0  502 -0.16028147279E+03  0.16026192962E+02  0.21937549987E+03  0.27216281768E+03  0.00000000000E+00 0.  1.
<mgrwt>
<rscale>  0 0.13717395E+04</rscale>
<asrwt>0</asrwt>
<pdfrwt beam="1">  1        1 0.95943285E-01 0.13717395E+04</pdfrwt>
<pdfrwt beam="2">  1       -1 0.11604916E+00 0.13717395E+04</pdfrwt>
<totfact> 0.21254247E+01</totfact>
</mgrwt>
</event>
<event>
12    1  0.2083715E-007  0.1678873E+04  0.7818608E-02  0.8773506E-01
          1   -1    0    0  501    0  0.00000000000E+00  0.00000000000E+00  0.92098530931E+03  0.92098530931E+03  0.00000000000E+00 0. -1.
         -1   -1    0    0    0  501 -0.00000000000E+00 -0.00000000000E+00 -0.76510874524E+03  0.76510874524E+03  0.00000000000E+00 0.  1.
         23    2    1    2    0    0 -0.53687718461E+02 -0.57487329657E+03  0.19141938254E+03  0.61492183330E+03  0.90143235149E+02 0.  0.
        254    2    1    2    0    0  0.53687718461E+02  0.57487329657E+03 -0.35542818462E+02  0.10711722213E+04  0.90154587095E+03 0.  0.
        -24    2    4    4    0    0  0.31113335598E+03  0.50069083388E+03 -0.31733211833E+03  0.67400730710E+03  0.78044220596E+02 0.  0.
         24    2    4    4    0    0 -0.25744563752E+03  0.74182462685E+02  0.28178929987E+03  0.39716491415E+03  0.80953477158E+02 0.  0.
         13    1    3    3    0    0 -0.66598187646E+02 -0.23555858124E+03  0.82501524960E+02  0.25832085749E+03  0.00000000000E+00 0.  1.
        -13    1    3    3    0    0  0.12910469185E+02 -0.33931471533E+03  0.10891785758E+03  0.35660097581E+03  0.00000000000E+00 0. -1.
          2    1    6    6  502    0 -0.58080615642E+02  0.49256747013E+02  0.53587810226E+02  0.93119484774E+02  0.00000000000E+00 0. -1.
          3    1    5    5  503    0  0.15829129803E+03  0.18435123086E+03 -0.14061494452E+03  0.28073844406E+03  0.00000000000E+00 0. -1.
         -4    1    5    5    0  503  0.15284205795E+03  0.31633960302E+03 -0.17671717381E+03  0.39326886304E+03  0.00000000000E+00 0.  1.
         -1    1    6    6    0  502 -0.19936502188E+03  0.24925715671E+02  0.22820148964E+03  0.30404542938E+03  0.00000000000E+00 0.  1.
<mgrwt>
<rscale>  0 0.16788733E+04</rscale>
<asrwt>0</asrwt>
<pdfrwt beam="1">  1        1 0.14169005E+00 0.16788733E+04</pdfrwt>
<pdfrwt beam="2">  1       -1 0.11770904E+00 0.16788733E+04</pdfrwt>
<totfact> 0.10823190E+01</totfact>
</mgrwt>
</event>
<event>
12    1  0.2083715E-007  0.2224809E+04  0.7818608E-02  0.8508172E-01
         -2   -1    0    0    0  501 -0.00000000000E+00  0.00000000000E+00  0.10213052321E+04  0.10213052321E+04  0.00000000000E+00 0.  1.
          2   -1    0    0  501    0  0.00000000000E+00 -0.00000000000E+00 -0.12116296442E+04  0.12116296442E+04  0.00000000000E+00 0. -1.
         23    2    1    2    0    0 -0.89214107787E+03 -0.13814086689E+03  0.13215555663E+03  0.91697045937E+03  0.91493881072E+02 0.  0.
        254    2    1    2    0    0  0.89214107787E+03  0.13814086689E+03 -0.32247996870E+03  0.13159644169E+04  0.90153780528E+03 0.  0.
        -24    2    4    4    0    0  0.40521898543E+03 -0.28743605444E+03  0.13465759657E+03  0.52001632949E+03  0.73908071815E+02 0.  0.
         24    2    4    4    0    0  0.48692209244E+03  0.42557692133E+03 -0.45713756527E+03  0.79594808739E+03  0.79685407461E+02 0.  0.
         13    1    3    3    0    0 -0.46642740547E+03 -0.27207698912E+02  0.78758357014E+02  0.47381184267E+03  0.00000000000E+00 0.  1.
        -13    1    3    3    0    0 -0.42571367240E+03 -0.11093316798E+03  0.53397199614E+02  0.44315861670E+03  0.00000000000E+00 0. -1.
          4    1    6    6  502    0  0.41136123474E+03  0.32392190033E+03 -0.34734547106E+03  0.62832502674E+03  0.00000000000E+00 0. -1.
          1    1    5    5  503    0  0.38915506425E+03 -0.28448721336E+03  0.14137582384E+03  0.50235621044E+03  0.00000000000E+00 0. -1.
         -2    1    5    5    0  503  0.16063921177E+02 -0.29488410741E+01 -0.67182272688E+01  0.17660119051E+02  0.00000000000E+00 0.  1.
         -3    1    6    6    0  502  0.75560857701E+02  0.10165502100E+03 -0.10979209421E+03  0.16762306065E+03  0.00000000000E+00 0.  1.
<mgrwt>
<rscale>  0 0.22248089E+04</rscale>
<asrwt>0</asrwt>
<pdfrwt beam="1">  1        2 0.18640456E+00 0.22248089E+04</pdfrwt>
<pdfrwt beam="2">  1       -2 0.15712388E+00 0.22248089E+04</pdfrwt>
<totfact> 0.44996562E+00</totfact>
</mgrwt>
</event>
<event>
12    1  0.2083715E-007  0.1555454E+04  0.7818608E-02  0.8848391E-01
          1   -1    0    0  501    0  0.00000000000E+00  0.00000000000E+00  0.10083868730E+04  0.10083868730E+04  0.00000000000E+00 0. -1.
         -1   -1    0    0    0  501 -0.00000000000E+00 -0.00000000000E+00 -0.59982865403E+03  0.59982865403E+03  0.00000000000E+00 0.  1.
         23    2    1    2    0    0  0.35968733631E+03  0.29636546620E+03  0.35783144490E+03  0.59445896171E+03  0.90170087847E+02 0.  0.
        254    2    1    2    0    0 -0.35968733631E+03 -0.29636546620E+03  0.50726774087E+02  0.10137565653E+04  0.89884464658E+03 0.  0.
        -24    2    4    4    0    0 -0.14859373688E+03  0.31241580108E+03 -0.44107228606E+02  0.35745484743E+03  0.78388704076E+02 0.  0.
         24    2    4    4    0    0 -0.21109359943E+03 -0.60878126728E+03  0.94834002693E+02  0.65630171790E+03  0.81014305825E+02 0.  0.
         13    1    3    3    0    0  0.33925738281E+03  0.24461879212E+03  0.30413044476E+03  0.51713562310E+03  0.00000000000E+00 0. -1.
        -13    1    3    3    0    0  0.20429953502E+02  0.51746674073E+02  0.53701000138E+02  0.77323338608E+02  0.00000000000E+00 0.  1.
          2    1    6    6  502    0 -0.10966094471E+03 -0.22824826283E+03  0.98468383432E+01  0.25341616465E+03  0.00000000000E+00 0. -1.
          1    1    5    5  503    0 -0.96300474393E+02  0.18466983674E+03  0.11621553005E+02  0.20859479971E+03  0.00000000000E+00 0. -1.
         -2    1    5    5    0  503 -0.52293262487E+02  0.12774596434E+03 -0.55728781611E+02  0.14886004772E+03  0.00000000000E+00 0.  1.
         -1    1    6    6    0  502 -0.10143265472E+03 -0.38053300445E+03  0.84987164350E+02  0.40288555325E+03  0.00000000000E+00 0.  1.
<mgrwt>
<rscale>  0 0.15554541E+04</rscale>
<asrwt>0</asrwt>
<pdfrwt beam="1">  1        1 0.15513644E+00 0.15554541E+04</pdfrwt>
<pdfrwt beam="2">  1       -1 0.92281332E-01 0.15554541E+04</pdfrwt>
<totfact> 0.16404896E+01</totfact>
</mgrwt>
</event>
<event>
12    1  0.2083715E-007  0.1325676E+04  0.7818608E-02  0.9009448E-01
         -1   -1    0    0    0  501 -0.00000000000E+00  0.00000000000E+00  0.57102587294E+03  0.57102587294E+03  0.00000000000E+00 0.  1.
          1   -1    0    0  501    0  0.00000000000E+00 -0.00000000000E+00 -0.76941226759E+03  0.76941226759E+03  0.00000000000E+00 0. -1.
         23    2    1    2    0    0 -0.17693649107E+03 -0.34133439111E+02 -0.34860922114E+03  0.40439861031E+03  0.97663879818E+02 0.  0.
        254    2    1    2    0    0  0.17693649107E+03  0.34133439111E+02  0.15022282649E+03  0.93603953021E+03  0.90616305982E+03 0.  0.
        -24    2    4    4    0    0 -0.26482214583E+03 -0.16073963626E+03 -0.15868084923E+03  0.35735030033E+03  0.80942112942E+02 0.  0.
         24    2    4    4    0    0  0.44175863690E+03  0.19487307537E+03  0.30890367572E+03  0.57868922989E+03  0.79583510459E+02 0.  0.
         11    1    3    3    0    0 -0.11431474519E+03 -0.42690155574E+02 -0.30243623372E+03  0.32612572087E+03  0.00000000000E+00 0. -1.
        -11    1    3    3    0    0 -0.62621745877E+02  0.85567164635E+01 -0.46172987425E+02  0.78272889438E+02  0.00000000000E+00 0.  1.
          2    1    6    6  502    0  0.31278250119E+03  0.17606770547E+03  0.22215479443E+03  0.42212022297E+03  0.00000000000E+00 0. -1.
          3    1    5    5  503    0 -0.26544372369E+03 -0.14125323330E+03 -0.14940257040E+03  0.33575880392E+03  0.00000000000E+00 0. -1.
         -4    1    5    5    0  503  0.62157786311E+00 -0.19486402959E+02 -0.92782788257E+01  0.21591496412E+02  0.00000000000E+00 0.  1.
         -1    1    6    6    0  502  0.12897613571E+03  0.18805369900E+02  0.86748881294E+02  0.15656900691E+03  0.00000000000E+00 0.  1.
<mgrwt>
<rscale>  0 0.13256761E+04</rscale>
<asrwt>0</asrwt>
<pdfrwt beam="1">  1        1 0.11837112E+00 0.13256761E+04</pdfrwt>
<pdfrwt beam="2">  1       -1 0.87850135E-01 0.13256761E+04</pdfrwt>
<totfact> 0.29407656E+01</totfact>
</mgrwt>
</event>
<event>
12    1  0.2083715E-007  0.1240600E+04  0.7818608E-02  0.9078044E-01
         -1   -1    0    0    0  501 -0.00000000000E+00  0.00000000000E+00  0.17383320668E+03  0.17383320668E+03  0.00000000000E+00 0.  1.
          1   -1    0    0  501    0  0.00000000000E+00 -0.00000000000E+00 -0.22134539635E+04  0.22134539635E+04  0.00000000000E+00 0. -1.
         23    2    1    2    0    0 -0.92850370668E+02 -0.26406347909E+03 -0.43254399284E+03  0.52424654567E+03  0.96899032900E+02 0.  0.
        254    2    1    2    0    0  0.92850370668E+02  0.26406347909E+03 -0.16070767640E+04  0.18630406245E+04  0.89992995892E+03 0.  0.
        -24    2    4    4    0    0 -0.28588769194E+03 -0.13531579120E+02 -0.11993834648E+04  0.12362616700E+04  0.88923254296E+02 0.  0.
         24    2    4    4    0    0  0.37873806261E+03  0.27759505821E+03 -0.40769329919E+03  0.62677895448E+03  0.78335784681E+02 0.  0.
         13    1    3    3    0    0 -0.58174456659E+02 -0.51858798418E+02 -0.15164566831E+03  0.17049929940E+03  0.00000000000E+00 0. -1.
        -13    1    3    3    0    0 -0.34675914009E+02 -0.21220468067E+03 -0.28089832454E+03  0.35374724627E+03  0.00000000000E+00 0.  1.
          2    1    6    6  502    0  0.29825847850E+03  0.17982487305E+03 -0.27919180433E+03  0.44636663022E+03  0.00000000000E+00 0. -1.
          3    1    5    5  503    0 -0.17359197031E+03  0.34934744242E+02 -0.73735905732E+03  0.75832248280E+03  0.00000000000E+00 0. -1.
         -4    1    5    5    0  503 -0.11229572164E+03 -0.48466323362E+02 -0.46202440747E+03  0.47793918723E+03  0.00000000000E+00 0.  1.
         -1    1    6    6    0  502  0.80479584108E+02  0.97770185166E+02 -0.12850149486E+03  0.18041232426E+03  0.00000000000E+00 0.  1.
<mgrwt>
<rscale>  0 0.12405995E+04</rscale>
<asrwt>0</asrwt>
<pdfrwt beam="1">  1        1 0.34053134E+00 0.12405995E+04</pdfrwt>
<pdfrwt beam="2">  1       -1 0.26743573E-01 0.12405995E+04</pdfrwt>
<totfact> 0.26326339E+01</totfact>
</mgrwt>
</event>
<event>
12    1  0.2083715E-007  0.3369884E+04  0.7818608E-02  0.8145337E-01
          1   -1    0    0  501    0  0.00000000000E+00  0.00000000000E+00  0.17066204394E+04  0.17066204394E+04  0.00000000000E+00 0. -1.
         -1   -1    0    0    0  501 -0.00000000000E+00 -0.00000000000E+00 -0.16635392965E+04  0.16635392965E+04  0.00000000000E+00 0.  1.
         23    2    1    2    0    0  0.14057200945E+04 -0.68190541734E+03 -0.35582238856E+02  0.15653753624E+04  0.89944134649E+02 0.  0.
        254    2    1    2    0    0 -0.14057200945E+04  0.68190541734E+03  0.78663381678E+02  0.18047843734E+04  0.90000818040E+03 0.  0.
        -24    2    4    4    0    0  0.35746146892E+02 -0.11805621398E+03 -0.28666729079E+02  0.15075053930E+03  0.81785616510E+02 0.  0.
         24    2    4    4    0    0 -0.14414662414E+04  0.79996163131E+03  0.10733011076E+03  0.16540338341E+04  0.80898919730E+02 0.  0.
         13    1    3    3    0    0  0.78551192137E+03 -0.42320711202E+03 -0.43611282927E+02  0.89332814927E+03  0.00000000000E+00 0. -1.
        -13    1    3    3    0    0  0.62020817312E+03 -0.25869830532E+03  0.80290440710E+01  0.67204721317E+03  0.00000000000E+00 0.  1.
          2    1    6    6  502    0 -0.16741500731E+03  0.69241432247E+02  0.26362753905E+02  0.18307691117E+03  0.00000000000E+00 0. -1.
          3    1    5    5  503    0  0.72747426885E+01 -0.14780384734E+02  0.25769211802E+02  0.30584864409E+02  0.00000000000E+00 0. -1.
         -4    1    5    5    0  503  0.28471404203E+02 -0.10327582924E+03 -0.54435940881E+02  0.12016567489E+03  0.00000000000E+00 0.  1.
         -1    1    6    6    0  502 -0.12740512341E+04  0.73072019907E+03  0.80967356852E+02  0.14709569230E+04  0.00000000000E+00 0.  1.
<mgrwt>
<rscale>  0 0.33698844E+04</rscale>
<asrwt>0</asrwt>
<pdfrwt beam="1">  1        1 0.26255699E+00 0.33698844E+04</pdfrwt>
<pdfrwt beam="2">  1       -1 0.25592912E+00 0.33698844E+04</pdfrwt>
<totfact> 0.24810504E-01</totfact>
</mgrwt>
</event>
<event>
12    1  0.2083715E-007  0.2291713E+04  0.7818608E-02  0.8481196E-01
          1   -1    0    0  501    0  0.00000000000E+00  0.00000000000E+00  0.10414260979E+04  0.10414260979E+04  0.00000000000E+00 0. -1.
         -1   -1    0    0    0  501 -0.00000000000E+00 -0.00000000000E+00 -0.12607591611E+04  0.12607591611E+04  0.00000000000E+00 0.  1.
         23    2    1    2    0    0  0.72265456610E+03 -0.50728747183E+03  0.30097722749E+03  0.93772813613E+03  0.95794388398E+02 0.  0.
        254    2    1    2    0    0 -0.72265456610E+03  0.50728747183E+03 -0.52031029073E+03  0.13644571229E+04  0.90080532887E+03 0.  0.
        -24    2    4    4    0    0 -0.56034258897E+03 -0.13603824874E+03 -0.15569294396E+03  0.60292723908E+03  0.82405950620E+02 0.  0.
         24    2    4    4    0    0 -0.16231197714E+03  0.64332572057E+03 -0.36461734677E+03  0.76152988379E+03  0.82272678732E+02 0.  0.
         13    1    3    3    0    0  0.50140365405E+03 -0.40240499784E+03  0.20613105412E+03  0.67514844150E+03  0.00000000000E+00 0.  1.
        -13    1    3    3    0    0  0.22125091205E+03 -0.10488247399E+03  0.94846173362E+02  0.26257969464E+03  0.00000000000E+00 0. -1.
          2    1    6    6  502    0 -0.17228422729E+02  0.58544823199E+02 -0.84200826426E+01  0.61605297376E+02  0.00000000000E+00 0. -1.
          3    1    5    5  503    0 -0.24225374101E+03 -0.10073928957E+03 -0.74857531720E+02  0.27283498594E+03  0.00000000000E+00 0. -1.
         -4    1    5    5    0  503 -0.31808884796E+03 -0.35298959165E+02 -0.80835412238E+02  0.33009225314E+03  0.00000000000E+00 0.  1.
         -1    1    6    6    0  502 -0.14508355441E+03  0.58478089737E+03 -0.35619726413E+03  0.69992458641E+03  0.00000000000E+00 0.  1.
<mgrwt>
<rscale>  0 0.22917133E+04</rscale>
<asrwt>0</asrwt>
<pdfrwt beam="1">  1        1 0.16021940E+00 0.22917133E+04</pdfrwt>
<pdfrwt beam="2">  1       -1 0.19396295E+00 0.22917133E+04</pdfrwt>
<totfact> 0.21066753E+00</totfact>
</mgrwt>
</event>
<event>
12    1  0.2083715E-007  0.1358969E+04  0.7818608E-02  0.8984066E-01
          2   -1    0    0  501    0  0.00000000000E+00  0.00000000000E+00  0.56376095285E+03  0.56376095285E+03  0.00000000000E+00 0. -1.
         -2   -1    0    0    0  501 -0.00000000000E+00 -0.00000000000E+00 -0.81896311140E+03  0.81896311140E+03  0.00000000000E+00 0.  1.
         23    2    1    2    0    0 -0.33414008906E+02  0.36360761010E+03  0.13215696630E+02  0.37377141030E+03  0.78761808046E+02 0.  0.
        254    2    1    2    0    0  0.33414008906E+02 -0.36360761010E+03 -0.26841785518E+03  0.10089526540E+04  0.90144901289E+03 0.  0.
        -24    2    4    4    0    0 -0.17224871940E+03  0.20751151797E+03 -0.27962106392E+03  0.39671059277E+03  0.80378502153E+02 0.  0.
         24    2    4    4    0    0  0.20566272831E+03 -0.57111912806E+03  0.11203208736E+02  0.61224206118E+03  0.78997552750E+02 0.  0.
         13    1    3    3    0    0 -0.27212380514E+02  0.26981329075E+03 -0.24933420088E+02  0.27232590945E+03  0.00000000000E+00 0.  1.
        -13    1    3    3    0    0 -0.62016283922E+01  0.93794319348E+02  0.38149116718E+02  0.10144550085E+03  0.00000000000E+00 0. -1.
          2    1    6    6  502    0  0.16768882193E+03 -0.40610736113E+03 -0.21060772961E+02  0.43987076047E+03  0.00000000000E+00 0. -1.
          3    1    5    5  503    0 -0.15367426525E+03  0.15388914407E+03 -0.18108106937E+03  0.28299823701E+03  0.00000000000E+00 0. -1.
         -2    1    5    5    0  503 -0.18574454149E+02  0.53622373895E+02 -0.98539994545E+02  0.11371235577E+03  0.00000000000E+00 0.  1.
         -1    1    6    6    0  502  0.37973906374E+02 -0.16501176694E+03  0.32263981697E+02  0.17237130071E+03  0.00000000000E+00 0.  1.
<mgrwt>
<rscale>  0 0.13589694E+04</rscale>
<asrwt>0</asrwt>
<pdfrwt beam="1">  1        2 0.86732454E-01 0.13589694E+04</pdfrwt>
<pdfrwt beam="2">  1       -2 0.12599433E+00 0.13589694E+04</pdfrwt>
<totfact> 0.24517353E+01</totfact>
</mgrwt>
</event>
<event>
12    1  0.2083715E-007  0.1234977E+04  0.7818608E-02  0.9082780E-01
          1   -1    0    0  501    0  0.00000000000E+00  0.00000000000E+00  0.12692300525E+04  0.12692300525E+04  0.00000000000E+00 0. -1.
         -1   -1    0    0    0  501 -0.00000000000E+00 -0.00000000000E+00 -0.30041202386E+03  0.30041202386E+03  0.00000000000E+00 0.  1.
         23    2    1    2    0    0  0.24446537955E+02 -0.21402253890E+03  0.70287661060E+01  0.23427934158E+03  0.91837497588E+02 0.  0.
        254    2    1    2    0    0 -0.24446537955E+02  0.21402253890E+03  0.96178926256E+03  0.13353627348E+04  0.90097267857E+03 0.  0.
        -24    2    4    4    0    0 -0.22709368879E+03 -0.14635377773E+03 -0.35411009730E+01  0.28181542063E+03  0.80102560280E+02 0.  0.
         24    2    4    4    0    0  0.20264715084E+03  0.36037631662E+03  0.96533036353E+03  0.10535473142E+04  0.84630225740E+02 0.  0.
         13    1    3    3    0    0 -0.13543946890E+02  0.25472916280E+01 -0.32610886809E+01  0.14161987550E+02  0.00000000000E+00 0. -1.
        -13    1    3    3    0    0  0.37990484845E+02 -0.21656983053E+03  0.10289854787E+02  0.22011735403E+03  0.00000000000E+00 0.  1.
          4    1    6    6  502    0  0.13195098869E+03  0.17795309939E+03  0.43254942761E+03  0.48598083946E+03  0.00000000000E+00 0. -1.
          3    1    5    5  503    0 -0.22323091795E+01 -0.65222386389E+01  0.14862405299E+02  0.16383341918E+02  0.00000000000E+00 0. -1.
         -4    1    5    5    0  503 -0.22486137961E+03 -0.13983153909E+03 -0.18403506272E+02  0.26543207871E+03  0.00000000000E+00 0.  1.
         -3    1    6    6    0  502  0.70696162149E+02  0.18242321723E+03  0.53278093592E+03  0.56756647470E+03  0.00000000000E+00 0.  1.
<mgrwt>
<rscale>  0 0.12349769E+04</rscale>
<asrwt>0</asrwt>
<pdfrwt beam="1">  1        1 0.19526616E+00 0.12349769E+04</pdfrwt>
<pdfrwt beam="2">  1       -1 0.46217235E-01 0.12349769E+04</pdfrwt>
<totfact> 0.43756993E+01</totfact>
</mgrwt>
</event>
<event>
12    1  0.2083715E-007  0.1192440E+04  0.7818608E-02  0.9119499E-01
          2   -1    0    0  501    0  0.00000000000E+00  0.00000000000E+00  0.50606471990E+03  0.50606471990E+03  0.00000000000E+00 0. -1.
         -2   -1    0    0    0  501 -0.00000000000E+00 -0.00000000000E+00 -0.70243669471E+03  0.70243669471E+03  0.00000000000E+00 0.  1.
         23    2    1    2    0    0 -0.16001717870E+03  0.87815889286E+02  0.12645267354E+03  0.23925027906E+03  0.89069015353E+02 0.  0.
        254    2    1    2    0    0  0.16001717870E+03 -0.87815889286E+02 -0.32282464835E+03  0.96925113555E+03  0.89549700295E+03 0.  0.
        -24    2    4    4    0    0  0.17815263482E+03 -0.36858222415E+03  0.12382943835E+03  0.43502784087E+03  0.79525312141E+02 0.  0.
         24    2    4    4    0    0 -0.18135456123E+02  0.28076633487E+03 -0.44665408671E+03  0.53422329468E+03  0.82073295570E+02 0.  0.
         11    1    3    3    0    0 -0.81614027017E+02  0.66718061689E+00  0.76365909878E+02  0.11177229857E+03  0.00000000000E+00 0. -1.
        -11    1    3    3    0    0 -0.78403151680E+02  0.87148708669E+02  0.50086763662E+02  0.12747798049E+03  0.00000000000E+00 0.  1.
          4    1    6    6  502    0 -0.12559873868E+02  0.16783749140E+03 -0.19034520337E+03  0.25408358939E+03  0.00000000000E+00 0. -1.
          1    1    5    5  503    0  0.15036630288E+02 -0.60009277777E+02 -0.70462389329E+01  0.62264461395E+02  0.00000000000E+00 0. -1.
         -2    1    5    5    0  503  0.16311600453E+03 -0.30857294638E+03  0.13087567729E+03  0.37276337947E+03  0.00000000000E+00 0.  1.
         -3    1    6    6    0  502 -0.55755822547E+01  0.11292884347E+03 -0.25630888334E+03  0.28013970530E+03  0.00000000000E+00 0.  1.
<mgrwt>
<rscale>  0 0.11924402E+04</rscale>
<asrwt>0</asrwt>
<pdfrwt beam="1">  1        2 0.77856111E-01 0.11924402E+04</pdfrwt>
<pdfrwt beam="2">  1       -2 0.10806718E+00 0.11924402E+04</pdfrwt>
<totfact> 0.41112149E+01</totfact>
</mgrwt>
</event>
<event>
12    1  0.2083715E-007  0.3839809E+04  0.7818608E-02  0.8037666E-01
         -2   -1    0    0    0  501 -0.00000000000E+00  0.00000000000E+00  0.22173335969E+04  0.22173335969E+04  0.00000000000E+00 0.  1.
          2   -1    0    0  501    0  0.00000000000E+00 -0.00000000000E+00 -0.16623715866E+04  0.16623715866E+04  0.00000000000E+00 0. -1.
         23    2    1    2    0    0 -0.34968979485E+02 -0.11014261780E+04  0.17166591837E+04  0.20418292239E+04  0.88234751051E+02 0.  0.
        254    2    1    2    0    0  0.34968979485E+02  0.11014261780E+04 -0.11616971734E+04  0.18378759596E+04  0.90215589840E+03 0.  0.
        -24    2    4    4    0    0 -0.26494102981E+02  0.64236271435E+03 -0.12028481626E+04  0.13662918556E+04  0.81104489147E+02 0.  0.
         24    2    4    4    0    0  0.61463082466E+02  0.45906346370E+03  0.41150989106E+02  0.47158410407E+03  0.78620538664E+02 0.  0.
         11    1    3    3    0    0 -0.56409458659E+02 -0.10109617536E+04  0.15736508718E+04  0.18712570002E+04  0.00000000000E+00 0. -1.
        -11    1    3    3    0    0  0.21440479174E+02 -0.90464424422E+02  0.14300831192E+03  0.17057222374E+03  0.00000000000E+00 0.  1.
          2    1    6    6  502    0 -0.14361056220E+02  0.17548667696E+03  0.92374632491E+01  0.17631546856E+03  0.00000000000E+00 0. -1.
          1    1    5    5  503    0  0.46302813019E+01  0.12209753484E+03 -0.16955022656E+03  0.20898929840E+03  0.00000000000E+00 0. -1.
         -2    1    5    5    0  503 -0.31124384283E+02  0.52026517951E+03 -0.10332979360E+04  0.11573025572E+04  0.00000000000E+00 0.  1.
         -1    1    6    6    0  502  0.75824138686E+02  0.28357678674E+03  0.31913525857E+02  0.29526863551E+03  0.00000000000E+00 0.  1.
<mgrwt>
<rscale>  0 0.38398085E+04</rscale>
<asrwt>0</asrwt>
<pdfrwt beam="1">  1        2 0.25574947E+00 0.38398085E+04</pdfrwt>
<pdfrwt beam="2">  1       -2 0.34112825E+00 0.38398085E+04</pdfrwt>
<totfact> 0.14547345E-01</totfact>
</mgrwt>
</event>
<event>
12    1  0.2083715E-007  0.2100492E+04  0.7818608E-02  0.8561027E-01
         -1   -1    0    0    0  501 -0.00000000000E+00  0.00000000000E+00  0.36181454308E+03  0.36181454308E+03  0.00000000000E+00 0.  1.
          1   -1    0    0  501    0  0.00000000000E+00 -0.00000000000E+00 -0.30485687415E+04  0.30485687415E+04  0.00000000000E+00 0. -1.
         23    2    1    2    0    0  0.79877663331E+03  0.15567410342E+03 -0.15213565357E+04  0.17277282486E+04  0.90778058314E+02 0.  0.
        254    2    1    2    0    0 -0.79877663331E+03 -0.15567410342E+03 -0.11653976626E+04  0.16826550359E+04  0.90049859601E+03 0.  0.
        -24    2    4    4    0    0 -0.92713935920E+03  0.63540831251E+02 -0.79264853436E+03  0.12244968135E+04  0.86463394871E+02 0.  0.
         24    2    4    4    0    0  0.12836272589E+03 -0.21921493467E+03 -0.37274912829E+03  0.45815822242E+03  0.80217623689E+02 0.  0.
         11    1    3    3    0    0  0.63591223642E+03  0.10457060025E+03 -0.12657458897E+04  0.14203633479E+04  0.00000000000E+00 0. -1.
        -11    1    3    3    0    0  0.16286439689E+03  0.51103503169E+02 -0.25561064608E+03  0.30736490073E+03  0.00000000000E+00 0.  1.
          2    1    6    6  502    0  0.44486088600E+02 -0.14456493632E+03 -0.24644357377E+03  0.28915820573E+03  0.00000000000E+00 0. -1.
          3    1    5    5  503    0 -0.31377279925E+03  0.62390838878E+02 -0.27739865625E+03  0.42343358489E+03  0.00000000000E+00 0. -1.
         -4    1    5    5    0  503 -0.61336655995E+03  0.11499923725E+01 -0.51524987811E+03  0.80106322861E+03  0.00000000000E+00 0.  1.
         -1    1    6    6    0  502  0.83876637290E+02 -0.74649998347E+02 -0.12630555453E+03  0.16900001669E+03  0.00000000000E+00 0.  1.
<mgrwt>
<rscale>  0 0.21004919E+04</rscale>
<asrwt>0</asrwt>
<pdfrwt beam="1">  1        1 0.46901058E+00 0.21004919E+04</pdfrwt>
<pdfrwt beam="2">  1       -1 0.55663776E-01 0.21004919E+04</pdfrwt>
<totfact> 0.16556451E+00</totfact>
</mgrwt>
</event>
<event>
12    1  0.2083715E-007  0.1448562E+04  0.7818608E-02  0.8919398E-01
          1   -1    0    0  501    0  0.00000000000E+00  0.00000000000E+00  0.18042637400E+04  0.18042637400E+04  0.00000000000E+00 0. -1.
         -1   -1    0    0    0  501 -0.00000000000E+00 -0.00000000000E+00 -0.29074638670E+03  0.29074638670E+03  0.00000000000E+00 0.  1.
         23    2    1    2    0    0  0.42259299450E+03  0.39944776155E+02  0.29849400204E+03  0.52580373635E+03  0.84796673052E+02 0.  0.
        254    2    1    2    0    0 -0.42259299450E+03 -0.39944776155E+02  0.12150233513E+04  0.15692063904E+04  0.89774524634E+03 0.  0.
        -24    2    4    4    0    0 -0.33726231593E+03 -0.42436944088E+03  0.46567976407E+03  0.71906700029E+03  0.79777290905E+02 0.  0.
         24    2    4    4    0    0 -0.85330678568E+02  0.38442466472E+03  0.74934358721E+03  0.85013939010E+03  0.78469888193E+02 0.  0.
         13    1    3    3    0    0  0.13934999470E+03 -0.18215297018E+02  0.12823590242E+03  0.19024895463E+03  0.00000000000E+00 0. -1.
        -13    1    3    3    0    0  0.28324299980E+03  0.58160073173E+02  0.17025809962E+03  0.33555478172E+03  0.00000000000E+00 0.  1.
          4    1    6    6  502    0 -0.53517491305E+02  0.31243730273E+03  0.53569024345E+03  0.62245098357E+03  0.00000000000E+00 0. -1.
          1    1    5    5  503    0 -0.27171637156E+03 -0.32385941412E+03  0.40133237178E+03  0.58290855143E+03  0.00000000000E+00 0. -1.
         -2    1    5    5    0  503 -0.65545944365E+02 -0.10051002675E+03  0.64347392286E+02  0.13615844886E+03  0.00000000000E+00 0.  1.
         -1    1    6    6    0  502 -0.31813187263E+02  0.71987361991E+02  0.21365334376E+03  0.22768840653E+03  0.00000000000E+00 0.  1.
<mgrwt>
<rscale>  0 0.14485623E+04</rscale>
<asrwt>0</asrwt>
<pdfrwt beam="1">  1        1 0.27757903E+00 0.14485623E+04</pdfrwt>
<pdfrwt beam="2">  1       -1 0.44730214E-01 0.14485623E+04</pdfrwt>
<totfact> 0.19474559E+01</totfact>
</mgrwt>
</event>
<event>
12    1  0.2083715E-007  0.3798576E+04  0.7818608E-02  0.8046460E-01
         -2   -1    0    0    0  501 -0.00000000000E+00  0.00000000000E+00  0.15465138769E+04  0.15465138769E+04  0.00000000000E+00 0.  1.
          2   -1    0    0  501    0  0.00000000000E+00 -0.00000000000E+00 -0.23325335532E+04  0.23325335532E+04  0.00000000000E+00 0. -1.
         23    2    1    2    0    0  0.28613652200E+03  0.16610043383E+04  0.24974844664E+03  0.17063281340E+04  0.91498050098E+02 0.  0.
        254    2    1    2    0    0 -0.28613652200E+03 -0.16610043383E+04 -0.10357681229E+04  0.21727192961E+04  0.89837854722E+03 0.  0.
        -24    2    4    4    0    0 -0.34842099822E+03 -0.33547925235E+03 -0.59853030764E+03  0.77370356410E+03  0.80219419011E+02 0.  0.
         24    2    4    4    0    0  0.62284476215E+02 -0.13255250860E+04 -0.43723781523E+03  0.13990157320E+04  0.71916630674E+02 0.  0.
         11    1    3    3    0    0  0.20074271475E+03  0.89969218096E+03  0.12985132233E+03  0.93091622820E+03  0.00000000000E+00 0.  1.
        -11    1    3    3    0    0  0.85393807253E+02  0.76131215737E+03  0.11989712431E+03  0.77541190582E+03  0.00000000000E+00 0. -1.
          2    1    6    6  502    0  0.12165413856E+02 -0.49130038042E+02 -0.27078921804E+02  0.57402316490E+02  0.00000000000E+00 0. -1.
          1    1    5    5  503    0 -0.73946761450E+02 -0.12117950688E+03 -0.16631217499E+03  0.21866032097E+03  0.00000000000E+00 0. -1.
         -2    1    5    5    0  503 -0.27447423677E+03 -0.21429974547E+03 -0.43221813265E+03  0.55504324313E+03  0.00000000000E+00 0.  1.
         -1    1    6    6    0  502  0.50119062359E+02 -0.12763950479E+04 -0.41015889343E+03  0.13416134155E+04  0.00000000000E+00 0.  1.
<mgrwt>
<rscale>  0 0.37985763E+04</rscale>
<asrwt>0</asrwt>
<pdfrwt beam="1">  1        2 0.35885132E+00 0.37985763E+04</pdfrwt>
<pdfrwt beam="2">  1       -2 0.23792521E+00 0.37985763E+04</pdfrwt>
<totfact> 0.26584540E-01</totfact>
</mgrwt>
</event>
<event>
12    1  0.2083715E-007  0.1578390E+04  0.7818608E-02  0.8833935E-01
          3   -1    0    0  501    0  0.00000000000E+00  0.00000000000E+00  0.59583859567E+03  0.59583859567E+03  0.00000000000E+00 0. -1.
         -3   -1    0    0    0  501 -0.00000000000E+00 -0.00000000000E+00 -0.10452981573E+04  0.10452981573E+04  0.00000000000E+00 0.  1.
         23    2    1    2    0    0  0.17971444819E+03  0.24674238473E+03  0.29522478968E+03  0.43446874166E+03  0.91795009265E+02 0.  0.
        254    2    1    2    0    0 -0.17971444819E+03 -0.24674238473E+03 -0.74468435135E+03  0.12066680113E+04  0.89906274484E+03 0.  0.
        -24    2    4    4    0    0 -0.49683493845E+03 -0.32076076057E+03 -0.36484648972E+03  0.70004001968E+03  0.84915525693E+02 0.  0.
         24    2    4    4    0    0  0.31712049026E+03  0.74018375840E+02 -0.37983786162E+03  0.50662799167E+03  0.79693133424E+02 0.  0.
         11    1    3    3    0    0  0.10413891992E+03  0.11166772373E+03  0.89389692241E+02  0.17693250759E+03  0.00000000000E+00 0.  1.
        -11    1    3    3    0    0  0.75575528273E+02  0.13507466100E+03  0.20583509744E+03  0.25753623407E+03  0.00000000000E+00 0. -1.
          2    1    6    6  502    0  0.93919887944E+02  0.26197271728E+02 -0.17302311540E+03  0.19860574227E+03  0.00000000000E+00 0. -1.
          3    1    5    5  503    0 -0.98148437432E+02 -0.99528821713E+02 -0.63704308045E+02  0.15361426036E+03  0.00000000000E+00 0. -1.
         -4    1    5    5    0  503 -0.39868650102E+03 -0.22123193886E+03 -0.30114218168E+03  0.54642575932E+03  0.00000000000E+00 0.  1.
         -1    1    6    6    0  502  0.22320060231E+03  0.47821104111E+02 -0.20681474622E+03  0.30802224940E+03  0.00000000000E+00 0.  1.
<mgrwt>
<rscale>  0 0.15783903E+04</rscale>
<asrwt>0</asrwt>
<pdfrwt beam="1">  1        3 0.91667477E-01 0.15783903E+04</pdfrwt>
<pdfrwt beam="2">  1       -3 0.16081510E+00 0.15783903E+04</pdfrwt>
<totfact> 0.72256826E-01</totfact>
</mgrwt>
</event>
<event>
12    1  0.2083715E-007  0.1228715E+04  0.7818608E-02  0.9088087E-01
         -2   -1    0    0    0  501 -0.00000000000E+00  0.00000000000E+00  0.15118693148E+03  0.15118693148E+03  0.00000000000E+00 0.  1.
          2   -1    0    0  501    0  0.00000000000E+00 -0.00000000000E+00 -0.24964784252E+04  0.24964784252E+04  0.00000000000E+00 0. -1.
         23    2    1    2    0    0 -0.24645304517E+03 -0.71685596589E+02 -0.35495452460E+03  0.44840179216E+03  0.95882868371E+02 0.  0.
        254    2    1    2    0    0  0.24645304517E+03  0.71685596589E+02 -0.19903369691E+04  0.21992635645E+04  0.89968941716E+03 0.  0.
        -24    2    4    4    0    0  0.29822949027E+03 -0.20094940959E+03 -0.27445237151E+03  0.45933374411E+03  0.79635985405E+02 0.  0.
         24    2    4    4    0    0 -0.51776445100E+02  0.27263500618E+03 -0.17158845976E+04  0.17399298204E+04  0.78007568548E+02 0.  0.
         13    1    3    3    0    0 -0.97876256694E+02  0.18581766869E+02 -0.14276492250E+03  0.17408867505E+03  0.00000000000E+00 0.  1.
        -13    1    3    3    0    0 -0.14857678848E+03 -0.90267363458E+02 -0.21218960210E+03  0.27431311711E+03  0.00000000000E+00 0. -1.
          2    1    6    6  502    0  0.17945615599E+02  0.68808430151E+02 -0.34858913021E+03  0.35576822073E+03  0.00000000000E+00 0. -1.
          3    1    5    5  503    0  0.32547134110E+02 -0.20541049355E+02 -0.25997208521E+01  0.38574722240E+02  0.00000000000E+00 0. -1.
         -4    1    5    5    0  503  0.26568235616E+03 -0.18040836024E+03 -0.27185265065E+03  0.42075902187E+03  0.00000000000E+00 0.  1.
         -1    1    6    6    0  502 -0.69722060700E+02  0.20382657603E+03 -0.13672954674E+04  0.13841615997E+04  0.00000000000E+00 0.  1.
<mgrwt>
<rscale>  0 0.12287146E+04</rscale>
<asrwt>0</asrwt>
<pdfrwt beam="1">  1        2 0.38407359E+00 0.12287146E+04</pdfrwt>
<pdfrwt beam="2">  1       -2 0.23259529E-01 0.12287146E+04</pdfrwt>
<totfact> 0.56626451E+01</totfact>
</mgrwt>
</event>
<event>
12    1  0.2083715E-007  0.2310157E+04  0.7818608E-02  0.8473927E-01
          1   -1    0    0  501    0  0.00000000000E+00  0.00000000000E+00  0.18262158534E+04  0.18262158534E+04  0.00000000000E+00 0. -1.
         -1   -1    0    0    0  501 -0.00000000000E+00 -0.00000000000E+00 -0.73058536124E+03  0.73058536124E+03  0.00000000000E+00 0.  1.
         23    2    1    2    0    0  0.94743423539E+03  0.44102969578E+02  0.20471590879E+03  0.97465282428E+03  0.91993598962E+02 0.  0.
        254    2    1    2    0    0 -0.94743423539E+03 -0.44102969578E+02  0.89091458337E+03  0.15821483904E+04  0.89993779336E+03 0.  0.
        -24    2    4    4    0    0 -0.34288347606E+03  0.26615413748E+03 -0.21385922217E+02  0.44187345344E+03  0.79923013763E+02 0.  0.
         24    2    4    4    0    0 -0.60455075933E+03 -0.31025710706E+03  0.91230050559E+03  0.11402749369E+04  0.78699594524E+02 0.  0.
         13    1    3    3    0    0  0.41922455243E+03  0.38439630841E+02  0.13344196298E+03  0.44162607267E+03  0.00000000000E+00 0. -1.
        -13    1    3    3    0    0  0.52820968297E+03  0.56633387370E+01  0.71273945813E+02  0.53302675161E+03  0.00000000000E+00 0.  1.
          4    1    6    6  502    0 -0.31397544992E+03 -0.14509719408E+03  0.52499277367E+03  0.62869005980E+03  0.00000000000E+00 0. -1.
          3    1    5    5  503    0 -0.21734198674E+03  0.17785074926E+03 -0.51344795717E+02  0.28549030852E+03  0.00000000000E+00 0. -1.
         -4    1    5    5    0  503 -0.12554148931E+03  0.88303388225E+02  0.29958873500E+02  0.15638314491E+03  0.00000000000E+00 0.  1.
         -3    1    6    6    0  502 -0.29057530941E+03 -0.16515991298E+03  0.38730773192E+03  0.51158487712E+03  0.00000000000E+00 0.  1.
<mgrwt>
<rscale>  0 0.23101572E+04</rscale>
<asrwt>0</asrwt>
<pdfrwt beam="1">  1        1 0.28095628E+00 0.23101572E+04</pdfrwt>
<pdfrwt beam="2">  1       -1 0.11239775E+00 0.23101572E+04</pdfrwt>
<totfact> 0.25600690E+00</totfact>
</mgrwt>
</event>
<event>
12    1  0.2083715E-007  0.1397866E+04  0.7818608E-02  0.8955364E-01
          1   -1    0    0  501    0  0.00000000000E+00  0.00000000000E+00  0.10478508979E+04  0.10478508979E+04  0.00000000000E+00 0. -1.
         -1   -1    0    0    0  501 -0.00000000000E+00 -0.00000000000E+00 -0.46619947792E+03  0.46619947792E+03  0.00000000000E+00 0.  1.
         23    2    1    2    0    0  0.21028938145E+03 -0.22233794850E+03 -0.10972677307E+03  0.33812499385E+03  0.92912644151E+02 0.  0.
        254    2    1    2    0    0 -0.21028938145E+03  0.22233794850E+03  0.69137819302E+03  0.11759253819E+04  0.90063361631E+03 0.  0.
        -24    2    4    4    0    0 -0.43856597549E+03 -0.18083693765E+03  0.34052306538E+03  0.58947671698E+03  0.80527814638E+02 0.  0.
         24    2    4    4    0    0  0.22827659404E+03  0.40317488614E+03  0.35085512764E+03  0.58644866497E+03  0.78501744232E+02 0.  0.
         11    1    3    3    0    0 -0.14238678411E+01 -0.16951058467E+02 -0.26762776368E+02  0.31711385679E+02  0.00000000000E+00 0.  1.
        -11    1    3    3    0    0  0.21171324929E+03 -0.20538689003E+03 -0.82963996705E+02  0.30641360817E+03  0.00000000000E+00 0. -1.
          4    1    6    6  502    0  0.19342637493E+03  0.38266885941E+03  0.32922931968E+03  0.54059334386E+03  0.00000000000E+00 0. -1.
          1    1    5    5  503    0 -0.38320951964E+03 -0.15599903674E+03  0.26000965375E+03  0.48866169837E+03  0.00000000000E+00 0. -1.
         -2    1    5    5    0  503 -0.55356455846E+02 -0.24837900906E+02  0.80513411627E+02  0.10081501861E+03  0.00000000000E+00 0.  1.
         -3    1    6    6    0  502  0.34850219112E+02  0.20506026731E+02  0.21625807954E+02  0.45855321110E+02  0.00000000000E+00 0.  1.
<mgrwt>
<rscale>  0 0.13978663E+04</rscale>
<asrwt>0</asrwt>
<pdfrwt beam="1">  1        1 0.16120783E+00 0.13978663E+04</pdfrwt>
<pdfrwt beam="2">  1       -1 0.71722997E-01 0.13978663E+04</pdfrwt>
<totfact> 0.26587945E+01</totfact>
</mgrwt>
</event>
<event>
12    1  0.2083715E-007  0.1514230E+04  0.7818608E-02  0.8875045E-01
         -2   -1    0    0    0  501 -0.00000000000E+00  0.00000000000E+00  0.71491199099E+03  0.71491199099E+03  0.00000000000E+00 0. -1.
          2   -1    0    0  501    0  0.00000000000E+00 -0.00000000000E+00 -0.80180925808E+03  0.80180925808E+03  0.00000000000E+00 0.  1.
         23    2    1    2    0    0  0.23283636719E+03 -0.67959228782E+02  0.39305667096E+03  0.46784453084E+03  0.74523337192E+02 0.  0.
        254    2    1    2    0    0 -0.23283636719E+03  0.67959228782E+02 -0.47995393806E+03  0.10488767182E+04  0.90053059733E+03 0.  0.
        -24    2    4    4    0    0 -0.35457876889E+02  0.30957824318E+03  0.13947946689E+03  0.35085198480E+03  0.80911333374E+02 0.  0.
         24    2    4    4    0    0 -0.19737849030E+03 -0.24161901440E+03 -0.61943340495E+03  0.69802473343E+03  0.78757658458E+02 0.  0.
         11    1    3    3    0    0  0.14338474827E+03 -0.53126646665E+02  0.17927867180E+03  0.23563206230E+03  0.00000000000E+00 0.  1.
        -11    1    3    3    0    0  0.89451618927E+02 -0.14832582118E+02  0.21377799916E+03  0.23221246854E+03  0.00000000000E+00 0. -1.
          2    1    6    6  502    0 -0.82267913610E+02 -0.15213663855E+03 -0.38316298135E+03  0.42038962485E+03  0.00000000000E+00 0. -1.
          3    1    5    5  503    0 -0.31740411942E+02  0.30412732366E+03  0.14829439925E+03  0.33984130355E+03  0.00000000000E+00 0. -1.
         -4    1    5    5    0  503 -0.37174649470E+01  0.54509195182E+01 -0.88149323543E+01  0.11010681252E+02  0.00000000000E+00 0.  1.
         -1    1    6    6    0  502 -0.11511057669E+03 -0.89482375844E+02 -0.23627042360E+03  0.27763510859E+03  0.00000000000E+00 0.  1.
<mgrwt>
<rscale>  0 0.15142299E+04</rscale>
<asrwt>0</asrwt>
<pdfrwt beam="1">  1        2 0.12335527E+00 0.15142299E+04</pdfrwt>
<pdfrwt beam="2">  1       -2 0.10998646E+00 0.15142299E+04</pdfrwt>
<totfact> 0.21786184E+01</totfact>
</mgrwt>
</event>
<event>
12    1  0.2083715E-007  0.1517931E+04  0.7818608E-02  0.8872616E-01
          2   -1    0    0  501    0  0.00000000000E+00  0.00000000000E+00  0.54613444436E+03  0.54613444436E+03  0.00000000000E+00 0. -1.
         -2   -1    0    0    0  501 -0.00000000000E+00 -0.00000000000E+00 -0.10547373660E+04  0.10547373660E+04  0.00000000000E+00 0.  1.
         23    2    1    2    0    0 -0.10221777675E+03  0.47135928773E+03 -0.23494714584E+03  0.54428578719E+03  0.91754045027E+02 0.  0.
        254    2    1    2    0    0  0.10221777675E+03 -0.47135928773E+03 -0.27365577582E+03  0.10565860232E+04  0.89936560349E+03 0.  0.
        -24    2    4    4    0    0 -0.13555355067E+03 -0.63984623686E+03 -0.34849664410E+03  0.74541072483E+03  0.80057890358E+02 0.  0.
         24    2    4    4    0    0  0.23777132742E+03  0.16848694913E+03  0.74840868278E+02  0.31117529837E+03  0.79409411130E+02 0.  0.
         13    1    3    3    0    0 -0.44113320471E+02  0.31664943815E+03 -0.11372530378E+03  0.33933213293E+03  0.00000000000E+00 0. -1.
        -13    1    3    3    0    0 -0.58104456280E+02  0.15470984959E+03 -0.12122184206E+03  0.20495365425E+03  0.00000000000E+00 0.  1.
          4    1    6    6  502    0  0.15722219594E+03  0.11002287516E+03  0.95333077009E+01  0.19213207934E+03  0.00000000000E+00 0. -1.
          3    1    5    5  503    0 -0.53794221751E+02 -0.38279427663E+03 -0.17226350396E+03  0.42320206912E+03  0.00000000000E+00 0. -1.
         -4    1    5    5    0  503 -0.81759328922E+02 -0.25705196024E+03 -0.17623314014E+03  0.32220865571E+03  0.00000000000E+00 0.  1.
         -3    1    6    6    0  502  0.80549131484E+02  0.58464073968E+02  0.65307560578E+02  0.11904321903E+03  0.00000000000E+00 0.  1.
<mgrwt>
<rscale>  0 0.15179307E+04</rscale>
<asrwt>0</asrwt>
<pdfrwt beam="1">  1        2 0.84020684E-01 0.15179307E+04</pdfrwt>
<pdfrwt beam="2">  1       -2 0.16226729E+00 0.15179307E+04</pdfrwt>
<totfact> 0.12971499E+01</totfact>
</mgrwt>
</event>
<event>
12    1  0.2083715E-007  0.1696565E+04  0.7818608E-02  0.8763326E-01
         -1   -1    0    0    0  501 -0.00000000000E+00  0.00000000000E+00  0.24146515434E+03  0.24146515434E+03  0.00000000000E+00 0.  1.
          1   -1    0    0  501    0  0.00000000000E+00 -0.00000000000E+00 -0.29800690563E+04  0.29800690563E+04  0.00000000000E+00 0. -1.
         23    2    1    2    0    0  0.26641641667E+03 -0.39081362474E+03 -0.17034801820E+04  0.17704305964E+04  0.94163528587E+02 0.  0.
        254    2    1    2    0    0 -0.26641641667E+03  0.39081362474E+03 -0.10351237200E+04  0.14511036142E+04  0.90028194863E+03 0.  0.
        -24    2    4    4    0    0  0.14164722630E+03 -0.17938596918E+03 -0.53108951666E+03  0.58384975658E+03  0.81124601067E+02 0.  0.
         24    2    4    4    0    0 -0.40806364297E+03  0.57019959392E+03 -0.50403420331E+03  0.86725385758E+03  0.80220083264E+02 0.  0.
         11    1    3    3    0    0  0.12795703587E+03 -0.12524135094E+03 -0.53442345905E+03  0.56361940402E+03  0.00000000000E+00 0.  1.
        -11    1    3    3    0    0  0.13845938080E+03 -0.26557227381E+03 -0.11690567229E+04  0.12068111924E+04  0.00000000000E+00 0. -1.
          4    1    6    6  502    0 -0.30217533010E+03  0.43692558937E+03 -0.33912825257E+03  0.63025540256E+03  0.00000000000E+00 0. -1.
          1    1    5    5  503    0  0.61459338642E+02 -0.95944535731E+02 -0.35752280274E+03  0.37524013474E+03  0.00000000000E+00 0. -1.
         -2    1    5    5    0  503  0.80187887658E+02 -0.83441433447E+02 -0.17356671392E+03  0.20860962184E+03  0.00000000000E+00 0.  1.
         -3    1    6    6    0  502 -0.10588831288E+03  0.13327400455E+03 -0.16490595074E+03  0.23699845502E+03  0.00000000000E+00 0.  1.
<mgrwt>
<rscale>  0 0.16965646E+04</rscale>
<asrwt>0</asrwt>
<pdfrwt beam="1">  1        1 0.45847213E+00 0.16965646E+04</pdfrwt>
<pdfrwt beam="2">  1       -1 0.37148488E-01 0.16965646E+04</pdfrwt>
<totfact> 0.41165654E+00</totfact>
</mgrwt>
</event>
<event>
12    1  0.2083715E-007  0.1288212E+04  0.7818608E-02  0.9038965E-01
         -2   -1    0    0    0  501 -0.00000000000E+00  0.00000000000E+00  0.19186684050E+03  0.19186684050E+03  0.00000000000E+00 0.  1.
          2   -1    0    0  501    0  0.00000000000E+00 -0.00000000000E+00 -0.21622955447E+04  0.21622955447E+04  0.00000000000E+00 0. -1.
         23    2    1    2    0    0 -0.30790172684E+03 -0.30025464271E+02 -0.66392681525E+03  0.73812005993E+03  0.91199807932E+02 0.  0.
        254    2    1    2    0    0  0.30790172684E+03  0.30025464271E+02 -0.13065018889E+04  0.16160423252E+04  0.89941125704E+03 0.  0.
        -24    2    4    4    0    0  0.38165809315E+03 -0.15506299802E+03 -0.15918294846E+03  0.44863947567E+03  0.78935002545E+02 0.  0.
         24    2    4    4    0    0 -0.73756366305E+02  0.18508846229E+03 -0.11473189405E+04  0.11674028496E+04  0.82407048234E+02 0.  0.
         13    1    3    3    0    0 -0.27756974668E+03 -0.51743669139E+02 -0.55000855149E+03  0.61824896141E+03  0.00000000000E+00 0.  1.
        -13    1    3    3    0    0 -0.30331980162E+02  0.21718204869E+02 -0.11391826376E+03  0.11987109853E+03  0.00000000000E+00 0. -1.
          2    1    6    6  502    0 -0.48520599865E+02  0.18385270867E+03 -0.99579180279E+03  0.10137836957E+04  0.00000000000E+00 0. -1.
          3    1    5    5  503    0  0.11646673084E+03 -0.87572086507E+02 -0.50939053692E+02  0.15436371633E+03  0.00000000000E+00 0. -1.
         -4    1    5    5    0  503  0.26519136231E+03 -0.67490911509E+02 -0.10824389477E+03  0.29427575934E+03  0.00000000000E+00 0.  1.
         -1    1    6    6    0  502 -0.25235766440E+02  0.12357536184E+01 -0.15152713767E+03  0.15361915390E+03  0.00000000000E+00 0.  1.
<mgrwt>
<rscale>  0 0.12882124E+04</rscale>
<asrwt>0</asrwt>
<pdfrwt beam="1">  1        2 0.33266086E+00 0.12882124E+04</pdfrwt>
<pdfrwt beam="2">  1       -2 0.29517975E-01 0.12882124E+04</pdfrwt>
<totfact> 0.56324087E+01</totfact>
</mgrwt>
</event>
<event>
12    1  0.2083715E-007  0.2210832E+04  0.7818608E-02  0.8513933E-01
         -2   -1    0    0    0  501 -0.00000000000E+00  0.00000000000E+00  0.15931953148E+04  0.15931953148E+04  0.00000000000E+00 0.  1.
          2   -1    0    0  501    0  0.00000000000E+00 -0.00000000000E+00 -0.76697698789E+03  0.76697698789E+03  0.00000000000E+00 0. -1.
         23    2    1    2    0    0  0.17848666632E+03  0.51060204969E+03 -0.44876129667E+03  0.70926861052E+03  0.95411305786E+02 0.  0.
        254    2    1    2    0    0 -0.17848666632E+03 -0.51060204969E+03  0.12749796236E+04  0.16509036922E+04  0.89851990355E+03 0.  0.
        -24    2    4    4    0    0 -0.42416034155E+03 -0.62680526216E+03  0.85990097929E+03  0.11484432604E+04  0.81825400948E+02 0.  0.
         24    2    4    4    0    0  0.24567367523E+03  0.11620321246E+03  0.41507864429E+03  0.50246043174E+03  0.79482471208E+02 0.  0.
         11    1    3    3    0    0  0.49040766388E+02  0.22875981454E+03 -0.24150614452E+03  0.33624584362E+03  0.00000000000E+00 0. -1.
        -11    1    3    3    0    0  0.12944589993E+03  0.28184223516E+03 -0.20725515216E+03  0.37302276690E+03  0.00000000000E+00 0.  1.
          2    1    6    6  502    0  0.23566515607E+03  0.92098944865E+02  0.39676355254E+03  0.47057581542E+03  0.00000000000E+00 0. -1.
          1    1    5    5  503    0 -0.39047516204E+03 -0.54610244742E+03  0.72912112947E+03  0.99111873996E+03  0.00000000000E+00 0. -1.
         -2    1    5    5    0  503 -0.33685179506E+02 -0.80702814732E+02  0.13077984982E+03  0.15732452047E+03  0.00000000000E+00 0.  1.
         -1    1    6    6    0  502  0.10008519156E+02  0.24104267598E+02  0.18315091755E+02  0.31884616324E+02  0.00000000000E+00 0.  1.
<mgrwt>
<rscale>  0 0.22108316E+04</rscale>
<asrwt>0</asrwt>
<pdfrwt beam="1">  1        2 0.11799646E+00 0.22108316E+04</pdfrwt>
<pdfrwt beam="2">  1       -2 0.24510697E+00 0.22108316E+04</pdfrwt>
<totfact> 0.22904674E+00</totfact>
</mgrwt>
</event>
<event>
12    1  0.2083715E-007  0.2806338E+04  0.7818608E-02  0.8301303E-01
          2   -1    0    0  501    0  0.00000000000E+00  0.00000000000E+00  0.18562652729E+04  0.18562652729E+04  0.00000000000E+00 0. -1.
         -2   -1    0    0    0  501 -0.00000000000E+00 -0.00000000000E+00 -0.10606691403E+04  0.10606691403E+04  0.00000000000E+00 0.  1.
         23    2    1    2    0    0 -0.67871705023E+03  0.85760912897E+03  0.10018529668E+04  0.14864671998E+04  0.98616006206E+02 0.  0.
        254    2    1    2    0    0  0.67871705023E+03 -0.85760912897E+03 -0.20625683429E+03  0.14304672133E+04  0.89863469462E+03 0.  0.
        -24    2    4    4    0    0 -0.64031104713E+01 -0.36729166452E+03  0.26703546698E+03  0.46080542992E+03  0.78035485347E+02 0.  0.
         24    2    4    4    0    0  0.68512016070E+03 -0.49031746446E+03 -0.47329230127E+03  0.96966178341E+03  0.80234164962E+02 0.  0.
         13    1    3    3    0    0 -0.25413904073E+03  0.24756801004E+03  0.31507435164E+03  0.47449807026E+03  0.00000000000E+00 0. -1.
        -13    1    3    3    0    0 -0.42457800950E+03  0.61004111893E+03  0.68677861519E+03  0.10119691296E+04  0.00000000000E+00 0.  1.
          4    1    6    6  502    0  0.42713729876E+03 -0.26651325414E+03 -0.25534804957E+03  0.56451591035E+03  0.00000000000E+00 0. -1.
          1    1    5    5  503    0 -0.16792518846E+02 -0.33898406175E+03  0.26496696199E+03  0.43058062399E+03  0.00000000000E+00 0. -1.
         -2    1    5    5    0  503  0.10389408374E+02 -0.28307602770E+02  0.20685049923E+01  0.30224805936E+02  0.00000000000E+00 0.  1.
         -3    1    6    6    0  502  0.25798286194E+03 -0.22380421032E+03 -0.21794425169E+03  0.40514587306E+03  0.00000000000E+00 0.  1.
<mgrwt>
<rscale>  0 0.28063380E+04</rscale>
<asrwt>0</asrwt>
<pdfrwt beam="1">  1        2 0.28557927E+00 0.28063380E+04</pdfrwt>
<pdfrwt beam="2">  1       -2 0.16317987E+00 0.28063380E+04</pdfrwt>
<totfact> 0.16671746E+00</totfact>
</mgrwt>
</event>
<event>
12    1  0.2083715E-007  0.2247743E+04  0.7818608E-02  0.8498815E-01
         -2   -1    0    0    0  501 -0.00000000000E+00  0.00000000000E+00  0.89180715140E+03  0.89180715140E+03  0.00000000000E+00 0. -1.
          2   -1    0    0  501    0  0.00000000000E+00 -0.00000000000E+00 -0.14163237270E+04  0.14163237270E+04  0.00000000000E+00 0.  1.
         23    2    1    2    0    0  0.35663899077E+03  0.86032184086E+03 -0.83461845832E+02  0.93940904533E+03  0.90434700989E+02 0.  0.
        254    2    1    2    0    0 -0.35663899077E+03 -0.86032184086E+03 -0.44105472981E+03  0.13687218331E+04  0.90084690271E+03 0.  0.
        -24    2    4    4    0    0 -0.60093830741E+03 -0.41833442837E+03 -0.76381097074E+02  0.74053033382E+03  0.80128397256E+02 0.  0.
         24    2    4    4    0    0  0.24429931664E+03 -0.44198741249E+03 -0.36467363274E+03  0.62819149928E+03  0.81256830143E+02 0.  0.
         13    1    3    3    0    0  0.26487773574E+03  0.57358700006E+03 -0.22220305157E+02  0.63218352042E+03  0.00000000000E+00 0. -1.
        -13    1    3    3    0    0  0.91761255028E+02  0.28673484080E+03 -0.61241540675E+02  0.30722552491E+03  0.00000000000E+00 0.  1.
          4    1    6    6  502    0  0.22049224188E+03 -0.40642616224E+03 -0.30189182966E+03  0.55221167219E+03  0.00000000000E+00 0. -1.
          3    1    5    5  503    0 -0.35728526548E+03 -0.23619932762E+03 -0.62539258375E+01  0.42834798340E+03  0.00000000000E+00 0. -1.
         -4    1    5    5    0  503 -0.24365304193E+03 -0.18213510075E+03 -0.70127171236E+02  0.31218235042E+03  0.00000000000E+00 0.  1.
         -3    1    6    6    0  502  0.23807074760E+02 -0.35561250253E+02 -0.62781803077E+02  0.75979827098E+02  0.00000000000E+00 0.  1.
<mgrwt>
<rscale>  0 0.22477434E+04</rscale>
<asrwt>0</asrwt>
<pdfrwt beam="1">  1        2 0.21789596E+00 0.22477434E+04</pdfrwt>
<pdfrwt beam="2">  1       -2 0.13720110E+00 0.22477434E+04</pdfrwt>
<totfact> 0.48812172E+00</totfact>
</mgrwt>
</event>
<event>
12    1  0.2083715E-007  0.1966514E+04  0.7818608E-02  0.8622439E-01
          1   -1    0    0  501    0  0.00000000000E+00  0.00000000000E+00  0.17720416618E+04  0.17720416618E+04  0.00000000000E+00 0. -1.
         -1   -1    0    0    0  501 -0.00000000000E+00 -0.00000000000E+00 -0.54558205186E+03  0.54558205186E+03  0.00000000000E+00 0.  1.
         23    2    1    2    0    0  0.40343774080E+03  0.38006317407E+03 -0.15064945311E+03  0.58215264707E+03  0.94849458471E+02 0.  0.
        254    2    1    2    0    0 -0.40343774080E+03 -0.38006317407E+03  0.13771090630E+04  0.17354710666E+04  0.89901080330E+03 0.  0.
        -24    2    4    4    0    0 -0.31056226685E+03  0.18817136962E+03  0.19947818628E+03  0.42171662013E+03  0.78714515514E+02 0.  0.
         24    2    4    4    0    0 -0.92875473956E+02 -0.56823454370E+03  0.11776308768E+04  0.13137544465E+04  0.87292115260E+02 0.  0.
         11    1    3    3    0    0  0.34955790308E+03  0.34744477794E+03 -0.10383711391E+03  0.50367722556E+03  0.00000000000E+00 0. -1.
        -11    1    3    3    0    0  0.53879837719E+02  0.32618396138E+02 -0.46812339197E+02  0.78475421505E+02  0.00000000000E+00 0.  1.
          2    1    6    6  502    0  0.17102543688E+02 -0.72450091017E+02  0.14354687156E+03  0.16170101120E+03  0.00000000000E+00 0. -1.
          3    1    5    5  503    0 -0.14391912035E+01  0.12443513442E+02  0.19514531281E+02  0.23188989396E+02  0.00000000000E+00 0. -1.
         -4    1    5    5    0  503 -0.30912307564E+03  0.17572785618E+03  0.17996365500E+03  0.39852763073E+03  0.00000000000E+00 0.  1.
         -1    1    6    6    0  502 -0.10997801764E+03 -0.49578445268E+03  0.10340840052E+04  0.11520534353E+04  0.00000000000E+00 0.  1.
<mgrwt>
<rscale>  0 0.19665138E+04</rscale>
<asrwt>0</asrwt>
<pdfrwt beam="1">  1        1 0.27262179E+00 0.19665138E+04</pdfrwt>
<pdfrwt beam="2">  1       -1 0.83935701E-01 0.19665138E+04</pdfrwt>
<totfact> 0.55709096E+00</totfact>
</mgrwt>
</event>
<event>
12    1  0.2083715E-007  0.1546679E+04  0.7818608E-02  0.8853992E-01
          2   -1    0    0  501    0  0.00000000000E+00  0.00000000000E+00  0.24956832138E+04  0.24956832138E+04  0.00000000000E+00 0.  1.
         -2   -1    0    0    0  501 -0.00000000000E+00 -0.00000000000E+00 -0.23963540961E+03  0.23963540961E+03  0.00000000000E+00 0. -1.
         23    2    1    2    0    0  0.39557884728E+03 -0.12684576181E+03  0.12632721304E+04  0.13328312595E+04  0.89499827631E+02 0.  0.
        254    2    1    2    0    0 -0.39557884728E+03  0.12684576181E+03  0.99277567383E+03  0.14024873640E+04  0.89933019286E+03 0.  0.
        -24    2    4    4    0    0 -0.57666567103E+00 -0.17089772966E+03  0.86471347881E+03  0.88525255238E+03  0.82075054158E+02 0.  0.
         24    2    4    4    0    0 -0.39500218161E+03  0.29774349148E+03  0.12806219502E+03  0.51723481157E+03  0.80336880128E+02 0.  0.
         13    1    3    3    0    0  0.30193661878E+03 -0.58312077505E+02  0.86718445248E+03  0.92009504659E+03  0.00000000000E+00 0. -1.
        -13    1    3    3    0    0  0.93642228504E+02 -0.68533684310E+02  0.39608767791E+03  0.41273621289E+03  0.00000000000E+00 0.  1.
          4    1    6    6  502    0 -0.32278291076E+03  0.26594853257E+03  0.13101239404E+03  0.43827123662E+03  0.00000000000E+00 0. -1.
          1    1    5    5  503    0  0.70895087708E+01 -0.39688036660E+02  0.79748170273E+02  0.89359789897E+02  0.00000000000E+00 0. -1.
         -2    1    5    5    0  503 -0.76661744419E+01 -0.13120969300E+03  0.78496530854E+03  0.79589276249E+03  0.00000000000E+00 0.  1.
         -3    1    6    6    0  502 -0.72219270853E+02  0.31794958905E+02 -0.29501990223E+01  0.78963574948E+02  0.00000000000E+00 0.  1.
<mgrwt>
<rscale>  0 0.15466791E+04</rscale>
<asrwt>0</asrwt>
<pdfrwt beam="1">  1        2 0.38395125E+00 0.15466791E+04</pdfrwt>
<pdfrwt beam="2">  1       -2 0.36866988E-01 0.15466791E+04</pdfrwt>
<totfact> 0.23424538E+01</totfact>
</mgrwt>
</event>
<event>
12    1  0.2083715E-007  0.2751499E+04  0.7818608E-02  0.8318486E-01
         -1   -1    0    0    0  501 -0.00000000000E+00  0.00000000000E+00  0.62533563646E+03  0.62533563646E+03  0.00000000000E+00 0.  1.
          1   -1    0    0  501    0  0.00000000000E+00 -0.00000000000E+00 -0.30266733916E+04  0.30266733916E+04  0.00000000000E+00 0. -1.
         23    2    1    2    0    0 -0.43470661392E+03  0.89964749228E+03 -0.20169037367E+04  0.22527477447E+04  0.92931519544E+02 0.  0.
        254    2    1    2    0    0  0.43470661392E+03 -0.89964749228E+03 -0.38443401839E+03  0.13992612834E+04  0.90100342623E+03 0.  0.
        -24    2    4    4    0    0  0.37024376293E+03 -0.64010472041E+03  0.18412560636E+03  0.76622448598E+03  0.79895099497E+02 0.  0.
         24    2    4    4    0    0  0.64462850989E+02 -0.25954277187E+03 -0.56855962474E+03  0.63303679738E+03  0.77185687543E+02 0.  0.
         11    1    3    3    0    0 -0.27264950222E+03  0.53489784004E+03 -0.13079810466E+04  0.14391900043E+04  0.00000000000E+00 0. -1.
        -11    1    3    3    0    0 -0.16205711170E+03  0.36474965224E+03 -0.70892269015E+03  0.81355774035E+03  0.00000000000E+00 0.  1.
          2    1    6    6  502    0  0.56137403324E+02 -0.76572199917E+02 -0.18183518581E+03  0.20513104263E+03  0.00000000000E+00 0. -1.
          1    1    5    5  503    0  0.18236646004E+03 -0.38020650088E+03  0.12779650323E+03  0.44062053436E+03  0.00000000000E+00 0. -1.
         -2    1    5    5    0  503  0.18787730288E+03 -0.25989821953E+03  0.56329103130E+02  0.32560395162E+03  0.00000000000E+00 0.  1.
         -1    1    6    6    0  502  0.83254476652E+01 -0.18297057195E+03 -0.38672443894E+03  0.42790575475E+03  0.00000000000E+00 0.  1.
<mgrwt>
<rscale>  0 0.27514990E+04</rscale>
<asrwt>0</asrwt>
<pdfrwt beam="1">  1        1 0.46564205E+00 0.27514990E+04</pdfrwt>
<pdfrwt beam="2">  1       -1 0.96205484E-01 0.27514990E+04</pdfrwt>
<totfact> 0.51677621E-01</totfact>
</mgrwt>
</event>
<event>
12    1  0.2083715E-007  0.2377334E+04  0.7818608E-02  0.8448038E-01
         -2   -1    0    0    0  501 -0.00000000000E+00  0.00000000000E+00  0.49709629232E+03  0.49709629232E+03  0.00000000000E+00 0.  1.
          2   -1    0    0  501    0  0.00000000000E+00 -0.00000000000E+00 -0.28423648026E+04  0.28423648026E+04  0.00000000000E+00 0. -1.
         23    2    1    2    0    0  0.75034995165E+03 -0.62109378098E+03 -0.14007464448E+04  0.17085631117E+04  0.91185356149E+02 0.  0.
        254    2    1    2    0    0 -0.75034995165E+03  0.62109378098E+03 -0.94452206546E+03  0.16308979832E+04  0.90494406728E+03 0.  0.
        -24    2    4    4    0    0 -0.74900563498E+03  0.83564854241E+02 -0.70792184479E+03  0.10377592460E+04  0.88308482989E+02 0.  0.
         24    2    4    4    0    0 -0.13443166694E+01  0.53752892674E+03 -0.23660022066E+03  0.59313873727E+03  0.83034588968E+02 0.  0.
         11    1    3    3    0    0  0.38115494897E+03 -0.25684192012E+03 -0.66760371543E+03  0.81051933223E+03  0.00000000000E+00 0. -1.
        -11    1    3    3    0    0  0.36919500268E+03 -0.36425186086E+03 -0.73314272941E+03  0.89804377946E+03  0.00000000000E+00 0.  1.
          4    1    6    6  502    0  0.22303706531E+02  0.82856693224E+02 -0.60460338678E+02  0.10496732582E+03  0.00000000000E+00 0. -1.
          1    1    5    5  503    0 -0.58747803337E+03  0.97887158692E+02 -0.57846374550E+03  0.83026058583E+03  0.00000000000E+00 0. -1.
         -2    1    5    5    0  503 -0.16152760161E+03 -0.14322304451E+02 -0.12945809929E+03  0.20749866014E+03  0.00000000000E+00 0.  1.
         -3    1    6    6    0  502 -0.23648023201E+02  0.45467223352E+03 -0.17613988199E+03  0.48817141145E+03  0.00000000000E+00 0.  1.
<mgrwt>
<rscale>  0 0.23773338E+04</rscale>
<asrwt>0</asrwt>
<pdfrwt beam="1">  1        2 0.43728688E+00 0.23773338E+04</pdfrwt>
<pdfrwt beam="2">  1       -2 0.76476355E-01 0.23773338E+04</pdfrwt>
<totfact> 0.30028053E+00</totfact>
</mgrwt>
</event>
<event>
12    1  0.2083715E-007  0.3147179E+04  0.7818608E-02  0.8202908E-01
         -1   -1    0    0    0  501 -0.00000000000E+00  0.00000000000E+00  0.68294899546E+03  0.68294899546E+03  0.00000000000E+00 0.  1.
          1   -1    0    0  501    0  0.00000000000E+00 -0.00000000000E+00 -0.36257225682E+04  0.36257225682E+04  0.00000000000E+00 0. -1.
         23    2    1    2    0    0  0.87943802370E+03 -0.48716639447E+03 -0.27695392810E+04  0.29480237250E+04  0.98760927605E+02 0.  0.
        254    2    1    2    0    0 -0.87943802370E+03  0.48716639447E+03 -0.17323429173E+03  0.13606478386E+04  0.90033887371E+03 0.  0.
        -24    2    4    4    0    0 -0.48639447843E+03 -0.21341927719E+03 -0.12917713903E+03  0.55216083040E+03  0.77893984759E+02 0.  0.
         24    2    4    4    0    0 -0.39304354528E+03  0.70058567166E+03 -0.44057152703E+02  0.80848700823E+03  0.80041851282E+02 0.  0.
         11    1    3    3    0    0  0.10677315586E+03 -0.24345902777E+02 -0.30398971462E+03  0.32311449424E+03  0.00000000000E+00 0. -1.
        -11    1    3    3    0    0  0.77266486785E+03 -0.46282049169E+03 -0.24655495663E+04  0.26249092307E+04  0.00000000000E+00 0.  1.
          4    1    6    6  502    0 -0.14512758363E+02  0.71930891397E+02 -0.63619156332E+00  0.73383090915E+02  0.00000000000E+00 0. -1.
          1    1    5    5  503    0 -0.12116522007E+01  0.20818461493E+01  0.41387813687E+01  0.47887050090E+01  0.00000000000E+00 0. -1.
         -2    1    5    5    0  503 -0.48518282622E+03 -0.21550112334E+03 -0.13331592040E+03  0.54737212539E+03  0.00000000000E+00 0.  1.
         -3    1    6    6    0  502 -0.37853078692E+03  0.62865478026E+03 -0.43420961139E+02  0.73510391732E+03  0.00000000000E+00 0.  1.
<mgrwt>
<rscale>  0 0.31471788E+04</rscale>
<asrwt>0</asrwt>
<pdfrwt beam="1">  1        1 0.55780347E+00 0.31471788E+04</pdfrwt>
<pdfrwt beam="2">  1       -1 0.10506908E+00 0.31471788E+04</pdfrwt>
<totfact> 0.14150507E-01</totfact>
</mgrwt>
</event>
<event>
12    1  0.2083715E-007  0.1241819E+04  0.7818608E-02  0.9077020E-01
         -2   -1    0    0    0  501 -0.00000000000E+00  0.00000000000E+00  0.39521364337E+03  0.39521364337E+03  0.00000000000E+00 0.  1.
          2   -1    0    0  501    0  0.00000000000E+00 -0.00000000000E+00 -0.97549363482E+03  0.97549363482E+03  0.00000000000E+00 0. -1.
         23    2    1    2    0    0 -0.24989684269E+03  0.13426796447E+03 -0.10484928799E+03  0.31484898843E+03  0.87522534559E+02 0.  0.
        254    2    1    2    0    0  0.24989684269E+03 -0.13426796447E+03 -0.47543070346E+03  0.10558582898E+04  0.89906955015E+03 0.  0.
        -24    2    4    4    0    0  0.29686030541E+03  0.21713320546E+03  0.89344190439E+02  0.38532974232E+03  0.72275556803E+02 0.  0.
         24    2    4    4    0    0 -0.46963462718E+02 -0.35140116992E+03 -0.56477489390E+03  0.67052854744E+03  0.70352705049E+02 0.  0.
         11    1    3    3    0    0  0.40704964221E+01  0.15133685004E+02 -0.93556344083E+00  0.15699447184E+02  0.00000000000E+00 0. -1.
        -11    1    3    3    0    0 -0.25396733911E+03  0.11913427946E+03 -0.10391372455E+03  0.29914954125E+03  0.00000000000E+00 0.  1.
          4    1    6    6  502    0  0.11230065228E+02 -0.90686291453E+02 -0.10896678174E+03  0.14221067944E+03  0.00000000000E+00 0. -1.
          1    1    5    5  503    0  0.18508482013E+03  0.17682565781E+03  0.63348601658E+02  0.26369821621E+03  0.00000000000E+00 0. -1.
         -2    1    5    5    0  503  0.11177548528E+03  0.40307547650E+02  0.25995588781E+02  0.12163152611E+03  0.00000000000E+00 0.  1.
         -3    1    6    6    0  502 -0.58193527946E+02 -0.26071487847E+03 -0.45580811215E+03  0.52831786801E+03  0.00000000000E+00 0.  1.
<mgrwt>
<rscale>  0 0.12418187E+04</rscale>
<asrwt>0</asrwt>
<pdfrwt beam="1">  1        2 0.15007594E+00 0.12418187E+04</pdfrwt>
<pdfrwt beam="2">  1       -2 0.60802100E-01 0.12418187E+04</pdfrwt>
<totfact> 0.64745282E+01</totfact>
</mgrwt>
</event>
<event>
12    1  0.2636741E-007  0.2856752E+04  0.7818608E-02  0.8285862E-01
          2   -1    0    0  501    0  0.00000000000E+00  0.00000000000E+00  0.22986179328E+04  0.22986179328E+04  0.00000000000E+00 0. -1.
         -2   -1    0    0    0  501 -0.00000000000E+00 -0.00000000000E+00 -0.88760220292E+03  0.88760220292E+03  0.00000000000E+00 0.  1.
         23    2    1    2    0    0  0.99205566217E+03 -0.81437171344E+03  0.69347446665E+03  0.14618095517E+04  0.92761010145E+02 0.  0.
        254    2    1    2    0    0 -0.99205566217E+03  0.81437171344E+03  0.71754126328E+03  0.17244105841E+04  0.90075006162E+03 0.  0.
        -24    2    4    4    0    0 -0.34999207755E+03 -0.24030506537E+02  0.54279862583E+03  0.65115586805E+03  0.79383226881E+02 0.  0.
         24    2    4    4    0    0 -0.64206358462E+03  0.83840221997E+03  0.17474263745E+03  0.10732547160E+04  0.78592410473E+02 0.  0.
         13    1    3    3    0    0  0.19295384611E+03 -0.20171192384E+03  0.12982846240E+03  0.30785437563E+03  0.00000000000E+00 0. -1.
        -13    1    3    3    0    0  0.79910181606E+03 -0.61265978960E+03  0.56364600426E+03  0.11539551760E+04  0.00000000000E+00 0.  1.
          2    1    6    6  502    0 -0.55583129747E+02  0.41334944892E+02  0.81362484266E+01  0.69744250803E+02  0.00000000000E+00 0. -1.
          1    1    5    5  503    0 -0.28861438479E+02 -0.24061188676E+00  0.14120806079E+02  0.32131568425E+02  0.00000000000E+00 0. -1.
         -2    1    5    5    0  503 -0.32113063907E+03 -0.23789894650E+02  0.52867781975E+03  0.61902429963E+03  0.00000000000E+00 0.  1.
         -1    1    6    6    0  502 -0.58648045487E+03  0.79706727508E+03  0.16660638902E+03  0.10035104652E+04  0.00000000000E+00 0.  1.
<mgrwt>
<rscale>  0 0.28567522E+04</rscale>
<asrwt>0</asrwt>
<pdfrwt beam="1">  1        2 0.35363353E+00 0.28567522E+04</pdfrwt>
<pdfrwt beam="2">  1       -2 0.13655419E+00 0.28567522E+04</pdfrwt>
<totfact> 0.15069369E+00</totfact>
</mgrwt>
</event>
<event>
12    1  0.2083715E-007  0.1452708E+04  0.7818608E-02  0.8916525E-01
          1   -1    0    0  501    0  0.00000000000E+00  0.00000000000E+00  0.32907344287E+03  0.32907344287E+03  0.00000000000E+00 0. -1.
         -1   -1    0    0    0  501 -0.00000000000E+00 -0.00000000000E+00 -0.16032598763E+04  0.16032598763E+04  0.00000000000E+00 0.  1.
         23    2    1    2    0    0 -0.36330363137E+03  0.24997489386E+03 -0.32540624401E+03  0.55571620794E+03  0.91947289274E+02 0.  0.
        254    2    1    2    0    0  0.36330363137E+03 -0.24997489386E+03 -0.94878018941E+03  0.13766171112E+04  0.89465850856E+03 0.  0.
        -24    2    4    4    0    0  0.62402787622E+03 -0.10388505135E+03 -0.41870963185E+03  0.76256601938E+03  0.77371079302E+02 0.  0.
         24    2    4    4    0    0 -0.26072424486E+03 -0.14608984251E+03 -0.53007055756E+03  0.61405109183E+03  0.82247026968E+02 0.  0.
         13    1    3    3    0    0 -0.15315394815E+03  0.76279003236E+02 -0.17322813283E+03  0.24348019257E+03  0.00000000000E+00 0. -1.
        -13    1    3    3    0    0 -0.21014968321E+03  0.17369589063E+03 -0.15217811118E+03  0.31223601538E+03  0.00000000000E+00 0.  1.
          2    1    6    6  502    0 -0.14055437070E+03 -0.59202448662E+02 -0.34265630800E+03  0.37506506964E+03  0.00000000000E+00 0. -1.
          3    1    5    5  503    0  0.56042532286E+03 -0.88704259526E+02 -0.34510161931E+03  0.66410851207E+03  0.00000000000E+00 0. -1.
         -4    1    5    5    0  503  0.63602553366E+02 -0.15180791824E+02 -0.73608012541E+02  0.98457507308E+02  0.00000000000E+00 0.  1.
         -1    1    6    6    0  502 -0.12016987416E+03 -0.86887393853E+02 -0.18741424956E+03  0.23898602220E+03  0.00000000000E+00 0.  1.
<mgrwt>
<rscale>  0 0.14527082E+04</rscale>
<asrwt>0</asrwt>
<pdfrwt beam="1">  1        1 0.50626684E-01 0.14527082E+04</pdfrwt>
<pdfrwt beam="2">  1       -1 0.24665537E+00 0.14527082E+04</pdfrwt>
<totfact> 0.55338183E+00</totfact>
</mgrwt>
</event>
<event>
12    1  0.2083715E-007  0.1379762E+04  0.7818608E-02  0.8968600E-01
          2   -1    0    0  501    0  0.00000000000E+00  0.00000000000E+00  0.99718877994E+03  0.99718877994E+03  0.00000000000E+00 0. -1.
         -2   -1    0    0    0  501 -0.00000000000E+00 -0.00000000000E+00 -0.47727732559E+03  0.47727732559E+03  0.00000000000E+00 0.  1.
         23    2    1    2    0    0  0.12552351321E+03  0.24051803988E+03 -0.14610244666E+03  0.32186168516E+03  0.92972789441E+02 0.  0.
        254    2    1    2    0    0 -0.12552351321E+03 -0.24051803988E+03  0.66601390102E+03  0.11526044204E+04  0.90073156580E+03 0.  0.
        -24    2    4    4    0    0 -0.31796938272E+03  0.22836819036E+03  0.15234082415E+03  0.42666060868E+03  0.74665852851E+02 0.  0.
         24    2    4    4    0    0  0.19244586952E+03 -0.46888623024E+03  0.51367307687E+03  0.72594381169E+03  0.79023276467E+02 0.  0.
         13    1    3    3    0    0  0.74020137913E+02  0.67305198254E+02 -0.84461029606E+02  0.13092988983E+03  0.00000000000E+00 0.  1.
        -13    1    3    3    0    0  0.51503375293E+02  0.17321284162E+03 -0.61641417057E+02  0.19093179533E+03  0.00000000000E+00 0. -1.
          4    1    6    6  502    0  0.69787423171E+02 -0.20632041699E+03  0.27297771349E+03  0.34922089136E+03  0.00000000000E+00 0. -1.
          1    1    5    5  503    0 -0.78545564802E+02  0.56830101434E+02  0.43679716336E+01  0.97047129557E+02  0.00000000000E+00 0. -1.
         -2    1    5    5    0  503 -0.23942381792E+03  0.17153808893E+03  0.14797285251E+03  0.32961347912E+03  0.00000000000E+00 0.  1.
         -3    1    6    6    0  502  0.12265844634E+03 -0.26256581325E+03  0.24069536338E+03  0.37672292033E+03  0.00000000000E+00 0.  1.
<mgrwt>
<rscale>  0 0.13797617E+04</rscale>
<asrwt>0</asrwt>
<pdfrwt beam="1">  1        2 0.15341366E+00 0.13797617E+04</pdfrwt>
<pdfrwt beam="2">  1       -2 0.73427281E-01 0.13797617E+04</pdfrwt>
<totfact> 0.41270059E+01</totfact>
</mgrwt>
</event>
<event>
12    1  0.2083715E-007  0.2703108E+04  0.7818608E-02  0.8333997E-01
          2   -1    0    0  501    0  0.00000000000E+00  0.00000000000E+00  0.26776108307E+04  0.26776108307E+04  0.00000000000E+00 0. -1.
         -2   -1    0    0    0  501 -0.00000000000E+00 -0.00000000000E+00 -0.68221175512E+03  0.68221175512E+03  0.00000000000E+00 0.  1.
         23    2    1    2    0    0  0.48816566482E+03 -0.10947991673E+04  0.83575089852E+03  0.14640175885E+04  0.89314064334E+02 0.  0.
        254    2    1    2    0    0 -0.48816566482E+03  0.10947991673E+04  0.11596481771E+04  0.18958049973E+04  0.90133332366E+03 0.  0.
        -24    2    4    4    0    0 -0.72024827446E+03  0.60165228737E+03  0.81861275195E+03  0.12479506135E+04  0.80689802971E+02 0.  0.
         24    2    4    4    0    0  0.23208260964E+03  0.49314687990E+03  0.34103542514E+03  0.64785438385E+03  0.79711721924E+02 0.  0.
         11    1    3    3    0    0  0.12923897550E+03 -0.25885266276E+03  0.24669262637E+03  0.38021660368E+03  0.00000000000E+00 0. -1.
        -11    1    3    3    0    0  0.35892668932E+03 -0.83594650451E+03  0.58905827215E+03  0.10838009848E+04  0.00000000000E+00 0.  1.
          4    1    6    6  502    0  0.10260645028E+03  0.30902350174E+03  0.20839063797E+03  0.38658797998E+03  0.00000000000E+00 0. -1.
          3    1    5    5  503    0 -0.31584276214E+03  0.21902510161E+03  0.36064170362E+03  0.52705889986E+03  0.00000000000E+00 0. -1.
         -4    1    5    5    0  503 -0.40440551233E+03  0.38262718576E+03  0.45797104834E+03  0.72089171364E+03  0.00000000000E+00 0.  1.
         -3    1    6    6    0  502  0.12947615936E+03  0.18412337816E+03  0.13264478717E+03  0.26126640387E+03  0.00000000000E+00 0.  1.
<mgrwt>
<rscale>  0 0.27031075E+04</rscale>
<asrwt>0</asrwt>
<pdfrwt beam="1">  1        2 0.41194012E+00 0.27031075E+04</pdfrwt>
<pdfrwt beam="2">  1       -2 0.10495566E+00 0.27031075E+04</pdfrwt>
<totfact> 0.17666725E+00</totfact>
</mgrwt>
</event>
<event>
12    1  0.2083715E-007  0.3452681E+04  0.7818608E-02  0.8125096E-01
         -2   -1    0    0    0  501 -0.00000000000E+00  0.00000000000E+00  0.16276749216E+04  0.16276749216E+04  0.00000000000E+00 0.  1.
          2   -1    0    0  501    0  0.00000000000E+00 -0.00000000000E+00 -0.18309872365E+04  0.18309872365E+04  0.00000000000E+00 0. -1.
         23    2    1    2    0    0  0.15425605839E+04  0.44397267655E+03 -0.18589883686E+03  0.16184835424E+04  0.91245310686E+02 0.  0.
        254    2    1    2    0    0 -0.15425605839E+04 -0.44397267655E+03 -0.17413478101E+02  0.18401786158E+04  0.89963838078E+03 0.  0.
        -24    2    4    4    0    0 -0.71161512949E+03 -0.66424547802E+03 -0.13588299039E+02  0.97682714072E+03  0.79927926179E+02 0.  0.
         24    2    4    4    0    0 -0.83094545443E+03  0.22027280147E+03 -0.38251790622E+01  0.86335147507E+03  0.79816553393E+02 0.  0.
         11    1    3    3    0    0  0.87379103197E+03  0.20441538028E+03 -0.10635454611E+03  0.90366349087E+03  0.00000000000E+00 0. -1.
        -11    1    3    3    0    0  0.66876955196E+03  0.23955729627E+03 -0.79544290743E+02  0.71482005149E+03  0.00000000000E+00 0.  1.
          2    1    6    6  502    0 -0.35371320785E+03  0.11371588847E+03 -0.36167752810E+02  0.37329940134E+03  0.00000000000E+00 0. -1.
          3    1    5    5  503    0 -0.16951130454E+03 -0.11434578141E+03  0.21534464892E+01  0.20448392951E+03  0.00000000000E+00 0. -1.
         -4    1    5    5    0  503 -0.54210382495E+03 -0.54989969661E+03 -0.15741745528E+02  0.77234321121E+03  0.00000000000E+00 0.  1.
         -1    1    6    6    0  502 -0.47723224659E+03  0.10655691300E+03  0.32342573748E+02  0.49005207373E+03  0.00000000000E+00 0.  1.
<mgrwt>
<rscale>  0 0.34526813E+04</rscale>
<asrwt>0</asrwt>
<pdfrwt beam="1">  1        2 0.28169034E+00 0.34526813E+04</pdfrwt>
<pdfrwt beam="2">  1       -2 0.25041153E+00 0.34526813E+04</pdfrwt>
<totfact> 0.43710472E-01</totfact>
</mgrwt>
</event>
<event>
12    1  0.2083715E-007  0.2275746E+04  0.7818608E-02  0.8487546E-01
          1   -1    0    0  501    0  0.00000000000E+00  0.00000000000E+00  0.28673553783E+04  0.28673553783E+04  0.00000000000E+00 0. -1.
         -1   -1    0    0    0  501 -0.00000000000E+00 -0.00000000000E+00 -0.45155015287E+03  0.45155015287E+03  0.00000000000E+00 0.  1.
         23    2    1    2    0    0  0.50747625063E+03  0.77371191104E+03  0.13783135992E+04  0.16630586749E+04  0.99264857645E+02 0.  0.
        254    2    1    2    0    0 -0.50747625063E+03 -0.77371191104E+03  0.10374916262E+04  0.16558468563E+04  0.89959861654E+03 0.  0.
        -24    2    4    4    0    0 -0.61245839954E+03 -0.84317717815E+03  0.62539837216E+03  0.12181024038E+04  0.81223748466E+02 0.  0.
         24    2    4    4    0    0  0.10498214892E+03  0.69465267110E+02  0.41209325402E+03  0.43774445250E+03  0.77153617939E+02 0.  0.
         11    1    3    3    0    0  0.35952680587E+03  0.50011563603E+03  0.98337707407E+03  0.11603472081E+04  0.00000000000E+00 0. -1.
        -11    1    3    3    0    0  0.14794944475E+03  0.27359627502E+03  0.39493652516E+03  0.50271146676E+03  0.00000000000E+00 0.  1.
          4    1    6    6  502    0  0.10494624634E+03  0.48336795757E+02  0.39167589690E+03  0.40836279049E+03  0.00000000000E+00 0. -1.
          1    1    5    5  503    0 -0.42425933763E+03 -0.56428436777E+03  0.38080046419E+03  0.80213579076E+03  0.00000000000E+00 0. -1.
         -2    1    5    5    0  503 -0.18819906191E+03 -0.27889281038E+03  0.24459790797E+03  0.41596661305E+03  0.00000000000E+00 0.  1.
         -3    1    6    6    0  502  0.35902577078E-01  0.21128471353E+02  0.20417357117E+02  0.29381662008E+02  0.00000000000E+00 0.  1.
<mgrwt>
<rscale>  0 0.22757458E+04</rscale>
<asrwt>0</asrwt>
<pdfrwt beam="1">  1        1 0.44113159E+00 0.22757458E+04</pdfrwt>
<pdfrwt beam="2">  1       -1 0.69469256E-01 0.22757458E+04</pdfrwt>
<totfact> 0.14162405E+00</totfact>
</mgrwt>
</event>
<event>
12    1  0.2083715E-007  0.2284776E+04  0.7818608E-02  0.8483948E-01
         -1   -1    0    0    0  501 -0.00000000000E+00  0.00000000000E+00  0.41522396705E+03  0.41522396705E+03  0.00000000000E+00 0.  1.
          1   -1    0    0  501    0  0.00000000000E+00 -0.00000000000E+00 -0.31430034749E+04  0.31430034749E+04  0.00000000000E+00 0. -1.
         23    2    1    2    0    0 -0.63771869241E+03  0.58055488946E+03 -0.18206477834E+04  0.20165957572E+04  0.90393509217E+02 0.  0.
        254    2    1    2    0    0  0.63771869241E+03 -0.58055488946E+03 -0.90713172453E+03  0.15416316848E+04  0.90000620866E+03 0.  0.
        -24    2    4    4    0    0 -0.10575632409E+03 -0.88335407014E+02 -0.55835527779E+03  0.58075502313E+03  0.80797502713E+02 0.  0.
         24    2    4    4    0    0  0.74347501650E+03 -0.49221948244E+03 -0.34877644675E+03  0.96087666168E+03  0.81263953222E+02 0.  0.
         13    1    3    3    0    0 -0.16897735343E+03  0.14963665753E+03 -0.57344497757E+03  0.61626586596E+03  0.00000000000E+00 0. -1.
        -13    1    3    3    0    0 -0.46874133898E+03  0.43091823192E+03 -0.12472028058E+04  0.14003298912E+04  0.00000000000E+00 0.  1.
          2    1    6    6  502    0  0.26164522778E+03 -0.19674635829E+03 -0.16459081955E+03  0.36641164365E+03  0.00000000000E+00 0. -1.
          1    1    5    5  503    0 -0.69306789746E+02 -0.91146637277E+01 -0.30159912844E+03  0.30959415769E+03  0.00000000000E+00 0. -1.
         -2    1    5    5    0  503 -0.36449534345E+02 -0.79220743286E+02 -0.25675614935E+03  0.27116086544E+03  0.00000000000E+00 0.  1.
         -1    1    6    6    0  502  0.48182978872E+03 -0.29547312415E+03 -0.18418562720E+03  0.59446501803E+03  0.00000000000E+00 0.  1.
<mgrwt>
<rscale>  0 0.22847760E+04</rscale>
<asrwt>0</asrwt>
<pdfrwt beam="1">  1        1 0.48353900E+00 0.22847760E+04</pdfrwt>
<pdfrwt beam="2">  1       -1 0.63880610E-01 0.22847760E+04</pdfrwt>
<totfact> 0.10556942E+00</totfact>
</mgrwt>
</event>
<event>
12    1  0.2083715E-007  0.1531325E+04  0.7818608E-02  0.8863885E-01
         -2   -1    0    0    0  501 -0.00000000000E+00  0.00000000000E+00  0.10088661805E+04  0.10088661805E+04  0.00000000000E+00 0.  1.
          2   -1    0    0  501    0  0.00000000000E+00 -0.00000000000E+00 -0.58108722215E+03  0.58108722215E+03  0.00000000000E+00 0. -1.
         23    2    1    2    0    0 -0.46915871295E+03 -0.14541732513E+03  0.75068764301E+02  0.50531371595E+03  0.91926795715E+02 0.  0.
        254    2    1    2    0    0  0.46915871295E+03  0.14541732513E+03  0.35271019406E+03  0.10846396867E+04  0.90043471314E+03 0.  0.
        -24    2    4    4    0    0  0.13703169168E+03  0.35982387815E+03 -0.16667790979E+03  0.42707884688E+03  0.79774106266E+02 0.  0.
         24    2    4    4    0    0  0.33212702127E+03 -0.21440655302E+03  0.51938810385E+03  0.65756083984E+03  0.79647519922E+02 0.  0.
         11    1    3    3    0    0 -0.21749533896E+03 -0.42509131585E+02 -0.56871969263E+01  0.22168354235E+03  0.00000000000E+00 0. -1.
        -11    1    3    3    0    0 -0.25166337399E+03 -0.10290819354E+03  0.80755961228E+02  0.28363017360E+03  0.00000000000E+00 0.  1.
          2    1    6    6  502    0  0.12661742514E+03 -0.12677007791E+03  0.21231848744E+03  0.27781606345E+03  0.00000000000E+00 0. -1.
          3    1    5    5  503    0  0.99714881981E+02  0.32536798875E+03 -0.12940361944E+03  0.36407785228E+03  0.00000000000E+00 0. -1.
         -4    1    5    5    0  503  0.37316809700E+02  0.34455889396E+02 -0.37274290348E+02  0.63000994605E+02  0.00000000000E+00 0.  1.
         -1    1    6    6    0  502  0.20550959613E+03 -0.87636475117E+02  0.30706961641E+03  0.37974477639E+03  0.00000000000E+00 0.  1.
<mgrwt>
<rscale>  0 0.15313252E+04</rscale>
<asrwt>0</asrwt>
<pdfrwt beam="1">  1        2 0.89398034E-01 0.15313252E+04</pdfrwt>
<pdfrwt beam="2">  1       -2 0.15521018E+00 0.15313252E+04</pdfrwt>
<totfact> 0.13580867E+01</totfact>
</mgrwt>
</event>
<event>
12    1  0.2083715E-007  0.2694450E+04  0.7818608E-02  0.8336808E-01
          2   -1    0    0  501    0  0.00000000000E+00  0.00000000000E+00  0.24124384823E+04  0.24124384823E+04  0.00000000000E+00 0. -1.
         -2   -1    0    0    0  501 -0.00000000000E+00 -0.00000000000E+00 -0.75235700666E+03  0.75235700666E+03  0.00000000000E+00 0.  1.
         23    2    1    2    0    0  0.11836444711E+04 -0.15402553890E+03  0.66919591888E+03  0.13714835634E+04  0.91683620038E+02 0.  0.
        254    2    1    2    0    0 -0.11836444711E+04  0.15402553890E+03  0.99088555676E+03  0.17933119255E+04  0.89965291921E+03 0.  0.
        -24    2    4    4    0    0 -0.91890318899E+03 -0.24490668192E+03  0.41605606895E+03  0.10409669851E+04  0.78404450931E+02 0.  0.
         24    2    4    4    0    0 -0.26474128214E+03  0.39893222082E+03  0.57482948781E+03  0.75234494047E+03  0.79744003609E+02 0.  0.
         13    1    3    3    0    0  0.13969886690E+03 -0.33818205377E+02  0.52342430854E+02  0.15296788714E+03  0.00000000000E+00 0.  1.
        -13    1    3    3    0    0  0.10439456042E+04 -0.12020733352E+03  0.61685348802E+03  0.12185156763E+04  0.00000000000E+00 0. -1.
          2    1    6    6  502    0 -0.15953328264E+03  0.25505520769E+03  0.30060768119E+03  0.42528696810E+03  0.00000000000E+00 0. -1.
          3    1    5    5  503    0 -0.84933552272E+03 -0.23693119351E+03  0.40401817607E+03  0.96991644342E+03  0.00000000000E+00 0. -1.
         -4    1    5    5    0  503 -0.69567666270E+02 -0.79754884121E+01  0.12037892882E+02  0.71050541664E+02  0.00000000000E+00 0.  1.
         -1    1    6    6    0  502 -0.10520799949E+03  0.14387701313E+03  0.27422180662E+03  0.32705797237E+03  0.00000000000E+00 0.  1.
<mgrwt>
<rscale>  0 0.26944498E+04</rscale>
<asrwt>0</asrwt>
<pdfrwt beam="1">  1        2 0.37114438E+00 0.26944498E+04</pdfrwt>
<pdfrwt beam="2">  1       -2 0.11574723E+00 0.26944498E+04</pdfrwt>
<totfact> 0.19917104E+00</totfact>
</mgrwt>
</event>
<event>
12    1  0.2083715E-007  0.1477854E+04  0.7818608E-02  0.8899315E-01
          1   -1    0    0  501    0  0.00000000000E+00  0.00000000000E+00  0.30353297800E+04  0.30353297800E+04  0.00000000000E+00 0. -1.
         -1   -1    0    0    0  501 -0.00000000000E+00 -0.00000000000E+00 -0.17988597669E+03  0.17988597669E+03  0.00000000000E+00 0.  1.
         23    2    1    2    0    0  0.43482053101E+03  0.14576233297E+03  0.73384504039E+03  0.86982268752E+03  0.88019387192E+02 0.  0.
        254    2    1    2    0    0 -0.43482053101E+03 -0.14576233297E+03  0.21215987629E+04  0.23453930692E+04  0.88846597354E+03 0.  0.
        -24    2    4    4    0    0  0.21124632462E+03 -0.22024259083E+03  0.97578330583E+03  0.10256156826E+04  0.81256753836E+02 0.  0.
         24    2    4    4    0    0 -0.64606685563E+03  0.74480257860E+02  0.11458154571E+04  0.13197773865E+04  0.77263170593E+02 0.  0.
         13    1    3    3    0    0  0.15503301666E+03  0.94125428948E+02  0.31503430560E+03  0.36351264948E+03  0.00000000000E+00 0. -1.
        -13    1    3    3    0    0  0.27978751435E+03  0.51636904024E+02  0.41881073479E+03  0.50631003804E+03  0.00000000000E+00 0.  1.
          4    1    6    6  502    0 -0.13951968711E+03 -0.56239556768E+01  0.29446000844E+03  0.32588965700E+03  0.00000000000E+00 0. -1.
          1    1    5    5  503    0  0.33753561131E+02 -0.12263598393E+02  0.60399857094E+02  0.70269776373E+02  0.00000000000E+00 0. -1.
         -2    1    5    5    0  503  0.17749276349E+03 -0.20797899244E+03  0.91538344874E+03  0.95534590626E+03  0.00000000000E+00 0.  1.
         -3    1    6    6    0  502 -0.50654716852E+03  0.80104213537E+02  0.85135544864E+03  0.99388772952E+03  0.00000000000E+00 0.  1.
<mgrwt>
<rscale>  0 0.14778542E+04</rscale>
<asrwt>0</asrwt>
<pdfrwt beam="1">  1        1 0.46697377E+00 0.14778542E+04</pdfrwt>
<pdfrwt beam="2">  1       -1 0.27674768E-01 0.14778542E+04</pdfrwt>
<totfact> 0.64573838E+00</totfact>
</mgrwt>
</event>
<event>
12    1  0.2083715E-007  0.2339893E+04  0.7818608E-02  0.8462356E-01
         -2   -1    0    0    0  501 -0.00000000000E+00  0.00000000000E+00  0.11371852238E+04  0.11371852238E+04  0.00000000000E+00 0.  1.
          2   -1    0    0  501    0  0.00000000000E+00 -0.00000000000E+00 -0.12036520918E+04  0.12036520918E+04  0.00000000000E+00 0. -1.
         23    2    1    2    0    0 -0.14662101024E+03  0.82738985578E+03 -0.56037033386E+03  0.10140433426E+04  0.90538917251E+02 0.  0.
        254    2    1    2    0    0  0.14662101024E+03 -0.82738985578E+03  0.49390346584E+03  0.13267939729E+04  0.90020548706E+03 0.  0.
        -24    2    4    4    0    0  0.29332794754E+03 -0.78141202465E+03  0.67538428669E+03  0.10772131707E+04  0.87167903398E+02 0.  0.
         24    2    4    4    0    0 -0.14670693731E+03 -0.45977831122E+02 -0.18148082086E+03  0.24958080220E+03  0.75620116895E+02 0.  0.
         13    1    3    3    0    0 -0.78389631623E+02  0.39107888241E+03 -0.21291504587E+03  0.45212879069E+03  0.00000000000E+00 0.  1.
        -13    1    3    3    0    0 -0.68231378612E+02  0.43631097337E+03 -0.34745528799E+03  0.56191455192E+03  0.00000000000E+00 0. -1.
          2    1    6    6  502    0 -0.33451707993E+02  0.17963779496E+02 -0.63480111902E+02  0.73969174313E+02  0.00000000000E+00 0. -1.
          3    1    5    5  503    0  0.76474905681E+02 -0.29443500508E+03  0.28074810004E+03  0.41395637341E+03  0.00000000000E+00 0. -1.
         -4    1    5    5    0  503  0.21685304186E+03 -0.48697701958E+03  0.39463618666E+03  0.66325679731E+03  0.00000000000E+00 0.  1.
         -1    1    6    6    0  502 -0.11325522932E+03 -0.63941610617E+02 -0.11800070895E+03  0.17561162789E+03  0.00000000000E+00 0.  1.
<mgrwt>
<rscale>  0 0.23398935E+04</rscale>
<asrwt>0</asrwt>
<pdfrwt beam="1">  1        2 0.18517724E+00 0.23398935E+04</pdfrwt>
<pdfrwt beam="2">  1       -2 0.17495157E+00 0.23398935E+04</pdfrwt>
<totfact> 0.33487610E+00</totfact>
</mgrwt>
</event>
<event>
12    1  0.2083715E-007  0.3443988E+04  0.7818608E-02  0.8127194E-01
         -2   -1    0    0    0  501 -0.00000000000E+00  0.00000000000E+00  0.11018447499E+04  0.11018447499E+04  0.00000000000E+00 0.  1.
          2   -1    0    0  501    0  0.00000000000E+00 -0.00000000000E+00 -0.26911807754E+04  0.26911807754E+04  0.00000000000E+00 0. -1.
         23    2    1    2    0    0  0.74655123445E+03  0.12658217188E+04 -0.14451834469E+04  0.20631455370E+04  0.91492854574E+02 0.  0.
        254    2    1    2    0    0 -0.74655123445E+03 -0.12658217188E+04 -0.14415257852E+03  0.17298799883E+04  0.90114451596E+03 0.  0.
        -24    2    4    4    0    0 -0.63790266492E+02 -0.96578044019E+03 -0.12861379294E+03  0.97961108672E+03  0.79343032012E+02 0.  0.
         24    2    4    4    0    0 -0.68276096796E+03 -0.30004127856E+03 -0.15538785583E+02  0.75026890157E+03  0.80465288111E+02 0.  0.
         11    1    3    3    0    0  0.67818749290E+03  0.11915390561E+04 -0.13329069372E+04  0.19121570283E+04  0.00000000000E+00 0.  1.
        -11    1    3    3    0    0  0.68363741553E+02  0.74282662664E+02 -0.11227650975E+03  0.15098850874E+03  0.00000000000E+00 0. -1.
          2    1    6    6  502    0 -0.58301139018E+03 -0.22510781495E+03 -0.21932707922E+02  0.62534538706E+03  0.00000000000E+00 0. -1.
          3    1    5    5  503    0 -0.75646101312E+02 -0.93183752945E+03 -0.11941022488E+03  0.94249791286E+03  0.00000000000E+00 0. -1.
         -4    1    5    5    0  503  0.11855834820E+02 -0.33942910745E+02 -0.92035680608E+01  0.37113173863E+02  0.00000000000E+00 0.  1.
         -1    1    6    6    0  502 -0.99749577778E+02 -0.74933463604E+02  0.63939223390E+01  0.12492351451E+03  0.00000000000E+00 0.  1.
<mgrwt>
<rscale>  0 0.34439880E+04</rscale>
<asrwt>0</asrwt>
<pdfrwt beam="1">  1        2 0.41402781E+00 0.34439880E+04</pdfrwt>
<pdfrwt beam="2">  1       -2 0.16951458E+00 0.34439880E+04</pdfrwt>
<totfact> 0.47651942E-01</totfact>
</mgrwt>
</event>
<event>
12    1  0.2083715E-007  0.1968807E+04  0.7818608E-02  0.8621345E-01
          2   -1    0    0  501    0  0.00000000000E+00  0.00000000000E+00  0.51082591015E+03  0.51082591015E+03  0.00000000000E+00 0. -1.
         -2   -1    0    0    0  501 -0.00000000000E+00 -0.00000000000E+00 -0.18970269333E+04  0.18970269333E+04  0.00000000000E+00 0.  1.
         23    2    1    2    0    0  0.75643698107E+03  0.10574056022E+03 -0.72383651066E+03  0.10561173646E+04  0.89814370446E+02 0.  0.
        254    2    1    2    0    0 -0.75643698107E+03 -0.10574056022E+03 -0.66236451251E+03  0.13517354789E+04  0.89726477984E+03 0.  0.
        -24    2    4    4    0    0 -0.30532438149E+03 -0.30970550433E+03 -0.72205170908E+03  0.84669001195E+03  0.79905121223E+02 0.  0.
         24    2    4    4    0    0 -0.45111259958E+03  0.20396494412E+03  0.59687196574E+02  0.50504546697E+03  0.80025535572E+02 0.  0.
         11    1    3    3    0    0  0.27340155231E+03  0.82007669802E+02 -0.26911669563E+03  0.39229767088E+03  0.00000000000E+00 0.  1.
        -11    1    3    3    0    0  0.48303542876E+03  0.23732890417E+02 -0.45471981503E+03  0.66381969367E+03  0.00000000000E+00 0. -1.
          4    1    6    6  502    0 -0.40819690605E+03  0.18133881004E+03  0.77551302417E+02  0.45334609587E+03  0.00000000000E+00 0. -1.
          1    1    5    5  503    0 -0.29664222473E+03 -0.30013979609E+03 -0.66051209311E+03  0.78380911696E+03  0.00000000000E+00 0. -1.
         -2    1    5    5    0  503 -0.86821567585E+01 -0.95657082475E+01 -0.61539615973E+02  0.62880894987E+02  0.00000000000E+00 0.  1.
         -3    1    6    6    0  502 -0.42915693533E+02  0.22626134073E+02 -0.17864105843E+02  0.51699371099E+02  0.00000000000E+00 0.  1.
<mgrwt>
<rscale>  0 0.19688073E+04</rscale>
<asrwt>0</asrwt>
<pdfrwt beam="1">  1        2 0.78588603E-01 0.19688073E+04</pdfrwt>
<pdfrwt beam="2">  1       -2 0.29185029E+00 0.19688073E+04</pdfrwt>
<totfact> 0.19959541E+00</totfact>
</mgrwt>
</event>
<event>
12    1  0.2083715E-007  0.2764265E+04  0.7818608E-02  0.8314449E-01
         -2   -1    0    0    0  501 -0.00000000000E+00  0.00000000000E+00  0.85951996971E+03  0.85951996971E+03  0.00000000000E+00 0.  1.
          2   -1    0    0  501    0  0.00000000000E+00 -0.00000000000E+00 -0.22225084561E+04  0.22225084561E+04  0.00000000000E+00 0. -1.
         23    2    1    2    0    0  0.97477449056E+02 -0.94603943309E+03 -0.14875925453E+04  0.17680197971E+04  0.92032386262E+02 0.  0.
        254    2    1    2    0    0 -0.97477449056E+02  0.94603943309E+03  0.12460405897E+03  0.13140086286E+04  0.89810914846E+03 0.  0.
        -24    2    4    4    0    0  0.31573105225E+03  0.26774344210E+03 -0.18138352198E+03  0.45882383655E+03  0.79035958892E+02 0.  0.
         24    2    4    4    0    0 -0.41320850130E+03  0.67829599099E+03  0.30598758096E+03  0.85518479208E+03  0.82981395266E+02 0.  0.
         13    1    3    3    0    0  0.89681710305E+02 -0.49608407971E+03 -0.83262406531E+03  0.97334734676E+03  0.00000000000E+00 0. -1.
        -13    1    3    3    0    0  0.77957387509E+01 -0.44995535339E+03 -0.65496848003E+03  0.79467245039E+03  0.00000000000E+00 0.  1.
          2    1    6    6  502    0 -0.18519826136E+03  0.25266634880E+03  0.15326101016E+03  0.34875151191E+03  0.00000000000E+00 0. -1.
          3    1    5    5  503    0  0.14684860908E+02 -0.46749073371E+01 -0.55771914906E+01  0.16389172139E+02  0.00000000000E+00 0. -1.
         -4    1    5    5    0  503  0.30104619134E+03  0.27241834944E+03 -0.17580633049E+03  0.44243466441E+03  0.00000000000E+00 0.  1.
         -1    1    6    6    0  502 -0.22801023994E+03  0.42562964220E+03  0.15272657079E+03  0.50643328016E+03  0.00000000000E+00 0.  1.
<mgrwt>
<rscale>  0 0.27642651E+04</rscale>
<asrwt>0</asrwt>
<pdfrwt beam="1">  1        2 0.34192437E+00 0.27642651E+04</pdfrwt>
<pdfrwt beam="2">  1       -2 0.13223384E+00 0.27642651E+04</pdfrwt>
<totfact> 0.18202181E+00</totfact>
</mgrwt>
</event>
<event>
12    1  0.2083715E-007  0.1328954E+04  0.7818608E-02  0.9006915E-01
         -2   -1    0    0    0  501 -0.00000000000E+00  0.00000000000E+00  0.23180573710E+03  0.23180573710E+03  0.00000000000E+00 0.  1.
          2   -1    0    0  501    0  0.00000000000E+00 -0.00000000000E+00 -0.19047391900E+04  0.19047391900E+04  0.00000000000E+00 0. -1.
         23    2    1    2    0    0 -0.26019761262E+03 -0.21036834029E+03 -0.62373287040E+03  0.71427296433E+03  0.95841211125E+02 0.  0.
        254    2    1    2    0    0  0.26019761262E+03  0.21036834029E+03 -0.10492005825E+04  0.14222719628E+04  0.90004335316E+03 0.  0.
        -24    2    4    4    0    0 -0.32866100562E+03  0.11788114037E+03 -0.41894307667E+03  0.55106861981E+03  0.79052529282E+02 0.  0.
         24    2    4    4    0    0  0.58885861824E+03  0.92487199919E+02 -0.63025750583E+03  0.87120334296E+03  0.80388971240E+02 0.  0.
         11    1    3    3    0    0 -0.10809512876E+03 -0.11174514042E+03 -0.37953421349E+03  0.41014357544E+03  0.00000000000E+00 0. -1.
        -11    1    3    3    0    0 -0.15210248386E+03 -0.98623199874E+02 -0.24419865691E+03  0.30412938888E+03  0.00000000000E+00 0.  1.
          4    1    6    6  502    0  0.31497859825E+03  0.12003868794E+02 -0.30817963520E+03  0.44082910269E+03  0.00000000000E+00 0. -1.
          3    1    5    5  503    0 -0.67396165100E+02  0.33484093738E+02 -0.14418709600E+03  0.16264484700E+03  0.00000000000E+00 0. -1.
         -4    1    5    5    0  503 -0.26126484052E+03  0.84397046632E+02 -0.27475598067E+03  0.38842377281E+03  0.00000000000E+00 0.  1.
         -3    1    6    6    0  502  0.27388001999E+03  0.80483331126E+02 -0.32207787063E+03  0.43037424027E+03  0.00000000000E+00 0.  1.
<mgrwt>
<rscale>  0 0.13289537E+04</rscale>
<asrwt>0</asrwt>
<pdfrwt beam="1">  1        2 0.29303680E+00 0.13289537E+04</pdfrwt>
<pdfrwt beam="2">  1       -2 0.35662421E-01 0.13289537E+04</pdfrwt>
<totfact> 0.54584589E+01</totfact>
</mgrwt>
</event>
<event>
12    1  0.2083715E-007  0.2140539E+04  0.7818608E-02  0.8543593E-01
         -1   -1    0    0    0  501 -0.00000000000E+00  0.00000000000E+00  0.51622988441E+03  0.51622988441E+03  0.00000000000E+00 0.  1.
          1   -1    0    0  501    0  0.00000000000E+00 -0.00000000000E+00 -0.22189269958E+04  0.22189269958E+04  0.00000000000E+00 0. -1.
         23    2    1    2    0    0 -0.80992906874E+03 -0.33002212910E+03 -0.80756665276E+03  0.11938538638E+04  0.90683225358E+02 0.  0.
        254    2    1    2    0    0  0.80992906874E+03  0.33002212910E+03 -0.89513045866E+03  0.15413030164E+04  0.89969814294E+03 0.  0.
        -24    2    4    4    0    0 -0.18863023222E+03  0.37793217220E+02 -0.19462465747E+03  0.28446037541E+03  0.77648284653E+02 0.  0.
         24    2    4    4    0    0  0.99855930096E+03  0.29222891188E+03 -0.70050580119E+03  0.12568426410E+04  0.80166279425E+02 0.  0.
         11    1    3    3    0    0 -0.65834507148E+03 -0.23540414904E+03 -0.66972145335E+03  0.96817362679E+03  0.00000000000E+00 0.  1.
        -11    1    3    3    0    0 -0.15158399726E+03 -0.94617980054E+02 -0.13784519940E+03  0.22568023701E+03  0.00000000000E+00 0. -1.
          2    1    6    6  502    0  0.48388064992E+03  0.10691014373E+03 -0.30622785048E+03  0.58253391198E+03  0.00000000000E+00 0. -1.
          3    1    5    5  503    0 -0.17762469574E+03  0.55517766041E+02 -0.16868957153E+03  0.25117509118E+03  0.00000000000E+00 0. -1.
         -4    1    5    5    0  503 -0.11005536475E+02 -0.17724548821E+02 -0.25935085935E+02  0.33285284233E+02  0.00000000000E+00 0.  1.
         -1    1    6    6    0  502  0.51467865104E+03  0.18531876814E+03 -0.39427795071E+03  0.67430872905E+03  0.00000000000E+00 0.  1.
<mgrwt>
<rscale>  0 0.21405386E+04</rscale>
<asrwt>0</asrwt>
<pdfrwt beam="1">  1        1 0.34137338E+00 0.21405386E+04</pdfrwt>
<pdfrwt beam="2">  1       -1 0.79419983E-01 0.21405386E+04</pdfrwt>
<totfact> 0.30700600E+00</totfact>
</mgrwt>
</event>
<event>
12    1  0.2083715E-007  0.2034779E+04  0.7818608E-02  0.8590531E-01
         -2   -1    0    0    0  501 -0.00000000000E+00  0.00000000000E+00  0.19601363497E+04  0.19601363497E+04  0.00000000000E+00 0.  1.
          2   -1    0    0  501    0  0.00000000000E+00 -0.00000000000E+00 -0.52806591603E+03  0.52806591603E+03  0.00000000000E+00 0. -1.
         23    2    1    2    0    0 -0.57365824242E+03  0.43849645041E+03  0.10419754779E+04  0.12699313707E+04  0.75165640024E+02 0.  0.
        254    2    1    2    0    0  0.57365824242E+03 -0.43849645041E+03  0.39009495575E+03  0.12182708951E+04  0.90035936336E+03 0.  0.
        -24    2    4    4    0    0 -0.17578251292E+03  0.91301145837E+02  0.16421842912E+03  0.26947847806E+03  0.80097232140E+02 0.  0.
         24    2    4    4    0    0  0.74944075534E+03 -0.52979759625E+03  0.22587652664E+03  0.94879241702E+03  0.82703727581E+02 0.  0.
         13    1    3    3    0    0 -0.37702240395E+03  0.29107931761E+03  0.74777139281E+03  0.88658621585E+03  0.00000000000E+00 0.  1.
        -13    1    3    3    0    0 -0.19663583847E+03  0.14741713280E+03  0.29420408513E+03  0.38334515481E+03  0.00000000000E+00 0. -1.
          2    1    6    6  502    0  0.38798032065E+03 -0.24901967296E+03  0.15024819947E+03  0.48488560319E+03  0.00000000000E+00 0. -1.
          1    1    5    5  503    0 -0.90207779362E+02  0.14915586649E+02  0.38256142224E+02  0.99113322012E+02  0.00000000000E+00 0. -1.
         -2    1    5    5    0  503 -0.85574733560E+02  0.76385559188E+02  0.12596228689E+03  0.17036515605E+03  0.00000000000E+00 0.  1.
         -1    1    6    6    0  502  0.36146043469E+03 -0.28077792329E+03  0.75628327163E+02  0.46390681383E+03  0.00000000000E+00 0.  1.
<mgrwt>
<rscale>  0 0.20347788E+04</rscale>
<asrwt>0</asrwt>
<pdfrwt beam="1">  1        2 0.81240911E-01 0.20347788E+04</pdfrwt>
<pdfrwt beam="2">  1       -2 0.30155943E+00 0.20347788E+04</pdfrwt>
<totfact> 0.16655854E+00</totfact>
</mgrwt>
</event>
<event>
12    1  0.2083715E-007  0.1756354E+04  0.7818608E-02  0.8729861E-01
          1   -1    0    0  501    0  0.00000000000E+00  0.00000000000E+00  0.31389761395E+04  0.31389761395E+04  0.00000000000E+00 0. -1.
         -1   -1    0    0    0  501 -0.00000000000E+00 -0.00000000000E+00 -0.24568342854E+03  0.24568342854E+03  0.00000000000E+00 0.  1.
         23    2    1    2    0    0 -0.57650242240E+03  0.26792822296E+03  0.87741136793E+03  0.10873494066E+04  0.91309625908E+02 0.  0.
        254    2    1    2    0    0  0.57650242240E+03 -0.26792822296E+03  0.20158813430E+04  0.22973101614E+04  0.89984210443E+03 0.  0.
        -24    2    4    4    0    0 -0.88092915900E+02  0.26491641174E+02 -0.29899197293E+02  0.12472926159E+03  0.78748065470E+02 0.  0.
         24    2    4    4    0    0  0.66459533830E+03 -0.29441986413E+03  0.20457805403E+04  0.21725808998E+04  0.80744826840E+02 0.  0.
         13    1    3    3    0    0 -0.35712496827E+02  0.43791865758E+02  0.87639062867E+02  0.10427710811E+03  0.00000000000E+00 0.  1.
        -13    1    3    3    0    0 -0.54078992558E+03  0.22413635720E+03  0.78977230507E+03  0.98307229850E+03  0.00000000000E+00 0. -1.
          4    1    6    6  502    0  0.82975168008E+02 -0.34278001992E+02  0.34122803104E+03  0.35284051510E+03  0.00000000000E+00 0. -1.
          1    1    5    5  503    0 -0.20023645171E+02 -0.13476252026E+02  0.19998598661E+02  0.31344850981E+02  0.00000000000E+00 0. -1.
         -2    1    5    5    0  503 -0.68069270729E+02  0.39967893201E+02 -0.49897795955E+02  0.93384410614E+02  0.00000000000E+00 0.  1.
         -3    1    6    6    0  502  0.58162017030E+03 -0.26014186214E+03  0.17045525092E+04  0.18197403847E+04  0.00000000000E+00 0.  1.
<mgrwt>
<rscale>  0 0.17563535E+04</rscale>
<asrwt>0</asrwt>
<pdfrwt beam="1">  1        1 0.48291938E+00 0.17563535E+04</pdfrwt>
<pdfrwt beam="2">  1       -1 0.37797453E-01 0.17563535E+04</pdfrwt>
<totfact> 0.30334271E+00</totfact>
</mgrwt>
</event>
<event>
12    1  0.2083715E-007  0.1859718E+04  0.7818608E-02  0.8675171E-01
         -2   -1    0    0    0  501 -0.00000000000E+00  0.00000000000E+00  0.13724563449E+04  0.13724563449E+04  0.00000000000E+00 0. -1.
          2   -1    0    0  501    0  0.00000000000E+00 -0.00000000000E+00 -0.62999266743E+03  0.62999266743E+03  0.00000000000E+00 0.  1.
         23    2    1    2    0    0 -0.29563099651E+03 -0.36364335846E+03 -0.28583953736E+03  0.55645164365E+03  0.91104403558E+02 0.  0.
        254    2    1    2    0    0  0.29563099651E+03  0.36364335846E+03  0.10283032148E+04  0.14459973687E+04  0.90214561484E+03 0.  0.
        -24    2    4    4    0    0 -0.24637757491E+03 -0.10244354869E+03  0.17367210719E+03  0.32893390497E+03  0.82697780729E+02 0.  0.
         24    2    4    4    0    0  0.54200857142E+03  0.46608690715E+03  0.85463110763E+03  0.11170634637E+04  0.80163304037E+02 0.  0.
         11    1    3    3    0    0 -0.22131946777E+03 -0.27525947275E+03 -0.25876819732E+03  0.43784822038E+03  0.00000000000E+00 0.  1.
        -11    1    3    3    0    0 -0.74311528746E+02 -0.88383885711E+02 -0.27071340044E+02  0.11860342326E+03  0.00000000000E+00 0. -1.
          4    1    6    6  502    0  0.44367429752E+03  0.40270341263E+03  0.75129729453E+03  0.96097062681E+03  0.00000000000E+00 0. -1.
          1    1    5    5  503    0 -0.12025030841E+03 -0.84343508471E+02  0.61726338380E+02  0.15932389948E+03  0.00000000000E+00 0. -1.
         -2    1    5    5    0  503 -0.12612726650E+03 -0.18100040220E+02  0.11194576881E+03  0.16961000549E+03  0.00000000000E+00 0.  1.
         -1    1    6    6    0  502  0.98334273903E+02  0.63383494514E+02  0.10333381310E+03  0.15609283690E+03  0.00000000000E+00 0.  1.
<mgrwt>
<rscale>  0 0.18597176E+04</rscale>
<asrwt>0</asrwt>
<pdfrwt beam="1">  1        2 0.96921950E-01 0.18597176E+04</pdfrwt>
<pdfrwt beam="2">  1       -2 0.21114713E+00 0.18597176E+04</pdfrwt>
<totfact> 0.49394539E+00</totfact>
</mgrwt>
</event>
<event>
12    1  0.2586714E-007  0.3084909E+04  0.7818608E-02  0.8219892E-01
          1   -1    0    0  501    0  0.00000000000E+00  0.00000000000E+00  0.18371696484E+04  0.18371696484E+04  0.00000000000E+00 0. -1.
         -1   -1    0    0    0  501 -0.00000000000E+00 -0.00000000000E+00 -0.12950172814E+04  0.12950172814E+04  0.00000000000E+00 0.  1.
         23    2    1    2    0    0 -0.12636811739E+04  0.42448379656E+03 -0.21729960298E+03  0.13537249134E+04  0.90969341135E+02 0.  0.
        254    2    1    2    0    0  0.12636811739E+04 -0.42448379656E+03  0.75945197006E+03  0.17784620164E+04  0.89949054808E+03 0.  0.
        -24    2    4    4    0    0  0.44984758503E+03 -0.52744596483E+03  0.63830701193E+03  0.94536564776E+03  0.75619249539E+02 0.  0.
         24    2    4    4    0    0  0.81383358883E+03  0.10296216827E+03  0.12114495813E+03  0.83309636861E+03  0.80294085065E+02 0.  0.
         11    1    3    3    0    0 -0.64732872324E+03  0.23538358502E+03 -0.69514223654E+02  0.69229483265E+03  0.00000000000E+00 0. -1.
        -11    1    3    3    0    0 -0.61635245063E+03  0.18910021155E+03 -0.14778537933E+03  0.66143008077E+03  0.00000000000E+00 0.  1.
          2    1    6    6  502    0  0.32346533079E+03  0.52283152567E+02  0.10390453755E+02  0.32782817114E+03  0.00000000000E+00 0. -1.
          1    1    5    5  503    0  0.25922500761E+03 -0.24787129139E+03  0.31457516114E+03  0.47706950612E+03  0.00000000000E+00 0. -1.
         -2    1    5    5    0  503  0.19062257743E+03 -0.27957467344E+03  0.32373185079E+03  0.46829614163E+03  0.00000000000E+00 0.  1.
         -1    1    6    6    0  502  0.49036825804E+03  0.50679015700E+02  0.11075450437E+03  0.50526819746E+03  0.00000000000E+00 0.  1.
<mgrwt>
<rscale>  0 0.30849094E+04</rscale>
<asrwt>0</asrwt>
<pdfrwt beam="1">  1        1 0.28264148E+00 0.30849094E+04</pdfrwt>
<pdfrwt beam="2">  1       -1 0.19923343E+00 0.30849094E+04</pdfrwt>
<totfact> 0.49480876E-01</totfact>
</mgrwt>
</event>
<event>
12    1  0.2083715E-007  0.1569175E+04  0.7818608E-02  0.8839712E-01
          1   -1    0    0  501    0  0.00000000000E+00  0.00000000000E+00  0.16167193720E+04  0.16167193720E+04  0.00000000000E+00 0. -1.
         -1   -1    0    0    0  501 -0.00000000000E+00 -0.00000000000E+00 -0.38075713548E+03  0.38075713548E+03  0.00000000000E+00 0.  1.
         23    2    1    2    0    0  0.43952594824E+03 -0.59791248504E+02  0.65518627143E+02  0.45739423681E+03  0.90325770346E+02 0.  0.
        254    2    1    2    0    0 -0.43952594824E+03  0.59791248504E+02  0.11704436094E+04  0.15400822707E+04  0.89730546925E+03 0.  0.
        -24    2    4    4    0    0 -0.42892512695E+03 -0.10479517292E+03  0.10741307478E+03  0.46130169745E+03  0.79390771781E+02 0.  0.
         24    2    4    4    0    0 -0.10600821294E+02  0.16458642143E+03  0.10630305346E+04  0.10787805733E+04  0.80824130853E+02 0.  0.
         13    1    3    3    0    0  0.39334691696E+03 -0.27066423451E+02  0.43523952584E+02  0.39667205953E+03  0.00000000000E+00 0.  1.
        -13    1    3    3    0    0  0.46179031276E+02 -0.32724825054E+02  0.21994674559E+02  0.60722177278E+02  0.00000000000E+00 0. -1.
          4    1    6    6  502    0 -0.41354874855E+02  0.12864968781E+03  0.83881530913E+03  0.84963056129E+03  0.00000000000E+00 0. -1.
          3    1    5    5  503    0 -0.23757877311E+03 -0.36381725403E+02  0.23660252108E+02  0.24151006378E+03  0.00000000000E+00 0. -1.
         -4    1    5    5    0  503 -0.19134635384E+03 -0.68413447522E+02  0.83752822668E+02  0.21979163368E+03  0.00000000000E+00 0.  1.
         -3    1    6    6    0  502  0.30754053561E+02  0.35936733617E+02  0.22421522551E+03  0.22915001196E+03  0.00000000000E+00 0.  1.
<mgrwt>
<rscale>  0 0.15691749E+04</rscale>
<asrwt>0</asrwt>
<pdfrwt beam="1">  1        1 0.24872605E+00 0.15691749E+04</pdfrwt>
<pdfrwt beam="2">  1       -1 0.58578022E-01 0.15691749E+04</pdfrwt>
<totfact> 0.15438743E+01</totfact>
</mgrwt>
</event>
<event>
12    1  0.2083715E-007  0.9947505E+03  0.7818608E-02  0.9314321E-01
         -2   -1    0    0    0  501 -0.00000000000E+00  0.00000000000E+00  0.10002920025E+03  0.10002920025E+03  0.00000000000E+00 0.  1.
          2   -1    0    0  501    0  0.00000000000E+00 -0.00000000000E+00 -0.24730991287E+04  0.24730991287E+04  0.00000000000E+00 0. -1.
         23    2    1    2    0    0  0.22023491847E+02  0.79218279837E+01 -0.21378523704E+03  0.23416092740E+03  0.92625173647E+02 0.  0.
        254    2    1    2    0    0 -0.22023491847E+02 -0.79218279837E+01 -0.21592846914E+04  0.23389674015E+04  0.89872706501E+03 0.  0.
        -24    2    4    4    0    0 -0.13784524218E+03 -0.27732728525E+03 -0.19321908836E+04  0.19585188753E+04  0.80764102825E+02 0.  0.
         24    2    4    4    0    0  0.11582175034E+03  0.26940545727E+03 -0.22709380776E+03  0.38044852619E+03  0.84708354401E+02 0.  0.
         13    1    3    3    0    0  0.14759166385E+02  0.11997919021E+02  0.11585044729E+01  0.19055843876E+02  0.00000000000E+00 0.  1.
        -13    1    3    3    0    0  0.72643254619E+01 -0.40760910373E+01 -0.21494374152E+03  0.21510508353E+03  0.00000000000E+00 0. -1.
          2    1    6    6  502    0  0.99053775045E+02  0.25025624950E+03 -0.23101662511E+03  0.35469497014E+03  0.00000000000E+00 0. -1.
          1    1    5    5  503    0 -0.10452221394E+03 -0.26022528914E+03 -0.16205239441E+04  0.16446093602E+04  0.00000000000E+00 0. -1.
         -2    1    5    5    0  503 -0.33323028242E+02 -0.17101996112E+02 -0.31166693952E+03  0.31390951511E+03  0.00000000000E+00 0.  1.
         -1    1    6    6    0  502  0.16767975292E+02  0.19149207765E+02  0.39228173537E+01  0.25753556054E+02  0.00000000000E+00 0.  1.
<mgrwt>
<rscale>  0 0.99475048E+03</rscale>
<asrwt>0</asrwt>
<pdfrwt beam="1">  1        2 0.38047679E+00 0.99475048E+03</pdfrwt>
<pdfrwt beam="2">  1       -2 0.15389108E-01 0.99475048E+03</pdfrwt>
<totfact> 0.12261748E+02</totfact>
</mgrwt>
</event>
<event>
12    1  0.2083715E-007  0.1571721E+04  0.7818608E-02  0.8838111E-01
         -1   -1    0    0    0  501 -0.00000000000E+00  0.00000000000E+00  0.21624851611E+03  0.21624851611E+03  0.00000000000E+00 0.  1.
          1   -1    0    0  501    0  0.00000000000E+00 -0.00000000000E+00 -0.28558671401E+04  0.28558671401E+04  0.00000000000E+00 0. -1.
         23    2    1    2    0    0 -0.13289694864E+03 -0.13587058526E+02  0.96866135932E+02  0.18850892405E+03  0.91139228867E+02 0.  0.
        254    2    1    2    0    0  0.13289694864E+03  0.13587058526E+02 -0.27364847600E+04  0.28836067322E+04  0.89944023560E+03 0.  0.
        -24    2    4    4    0    0 -0.13634608477E+03  0.17094772766E+03 -0.24232794387E+04  0.24344108528E+04  0.79117518119E+02 0.  0.
         24    2    4    4    0    0  0.26924303342E+03 -0.15736066913E+03 -0.31320532127E+03  0.44919587944E+03  0.80157180579E+02 0.  0.
         13    1    3    3    0    0 -0.11899464248E+02  0.13502344784E+02 -0.13511217977E+02  0.22504745617E+02  0.00000000000E+00 0. -1.
        -13    1    3    3    0    0 -0.12099748439E+03 -0.27089403310E+02  0.11037735391E+03  0.16600417843E+03  0.00000000000E+00 0.  1.
          4    1    6    6  502    0  0.14455875417E+03 -0.12744588076E+03 -0.17008138129E+03  0.25703572163E+03  0.00000000000E+00 0. -1.
          1    1    5    5  503    0 -0.84108822579E+02  0.13882469033E+03 -0.14173751538E+04  0.14266390277E+04  0.00000000000E+00 0. -1.
         -2    1    5    5    0  503 -0.52237262196E+02  0.32123037331E+02 -0.10059042849E+04  0.10077718251E+04  0.00000000000E+00 0.  1.
         -3    1    6    6    0  502  0.12468427925E+03 -0.29914788370E+02 -0.14312393998E+03  0.19216015781E+03  0.00000000000E+00 0.  1.
<mgrwt>
<rscale>  0 0.15717214E+04</rscale>
<asrwt>0</asrwt>
<pdfrwt beam="1">  1        1 0.43936411E+00 0.15717214E+04</pdfrwt>
<pdfrwt beam="2">  1       -1 0.33269008E-01 0.15717214E+04</pdfrwt>
<totfact> 0.62377313E+00</totfact>
</mgrwt>
</event>
<event>
12    1  0.2083715E-007  0.1833132E+04  0.7818608E-02  0.8688876E-01
         -2   -1    0    0    0  501 -0.00000000000E+00  0.00000000000E+00  0.11901649152E+04  0.11901649152E+04  0.00000000000E+00 0.  1.
          2   -1    0    0  501    0  0.00000000000E+00 -0.00000000000E+00 -0.70586282471E+03  0.70586282471E+03  0.00000000000E+00 0. -1.
         23    2    1    2    0    0  0.17176212497E+03 -0.63081987073E+03 -0.53074567470E+02  0.66208094990E+03  0.89990764128E+02 0.  0.
        254    2    1    2    0    0 -0.17176212497E+03  0.63081987073E+03  0.53737665794E+03  0.12339467900E+04  0.89800616431E+03 0.  0.
        -24    2    4    4    0    0  0.14850525335E+03  0.24495181549E+03  0.64895257208E+03  0.71401170227E+03  0.81351508785E+02 0.  0.
         24    2    4    4    0    0 -0.32026737832E+03  0.38586805524E+03 -0.11157591414E+03  0.51993508772E+03  0.80112178546E+02 0.  0.
         11    1    3    3    0    0  0.95405634612E+02 -0.35965097808E+03  0.14511136754E+02  0.37237297732E+03  0.00000000000E+00 0. -1.
        -11    1    3    3    0    0  0.76356490360E+02 -0.27116889265E+03 -0.67585704224E+02  0.28970797258E+03  0.00000000000E+00 0.  1.
          2    1    6    6  502    0 -0.22083497373E+03  0.24197896442E+03 -0.10817972608E+03  0.34499964925E+03  0.00000000000E+00 0. -1.
          3    1    5    5  503    0  0.33964411522E+02  0.13409903376E+03  0.30795127350E+03  0.33759460741E+03  0.00000000000E+00 0. -1.
         -4    1    5    5    0  503  0.11454084183E+03  0.11085278173E+03  0.34100129858E+03  0.37641709486E+03  0.00000000000E+00 0.  1.
         -1    1    6    6    0  502 -0.99432404594E+02  0.14388909081E+03 -0.33961880542E+01  0.17493543847E+03  0.00000000000E+00 0.  1.
<mgrwt>
<rscale>  0 0.18331319E+04</rscale>
<asrwt>0</asrwt>
<pdfrwt beam="1">  1        2 0.10859428E+00 0.18331319E+04</pdfrwt>
<pdfrwt beam="2">  1       -2 0.18310229E+00 0.18331319E+04</pdfrwt>
<totfact> 0.65850026E+00</totfact>
</mgrwt>
</event>
<event>
12    1  0.2083715E-007  0.2105783E+04  0.7818608E-02  0.8558700E-01
         -2   -1    0    0    0  501 -0.00000000000E+00  0.00000000000E+00  0.32441129455E+03  0.32441129455E+03  0.00000000000E+00 0.  1.
          2   -1    0    0  501    0  0.00000000000E+00 -0.00000000000E+00 -0.34172081192E+04  0.34172081192E+04  0.00000000000E+00 0. -1.
         23    2    1    2    0    0  0.74862841610E+03  0.25014605471E+03 -0.66984290870E+03  0.10391796244E+04  0.90483231938E+02 0.  0.
        254    2    1    2    0    0 -0.74862841610E+03 -0.25014605471E+03 -0.24229539159E+04  0.27024397894E+04  0.89969860643E+03 0.  0.
        -24    2    4    4    0    0 -0.54243182065E+03  0.23567279307E+03 -0.82914964643E+03  0.10215939997E+04  0.79945097840E+02 0.  0.
         24    2    4    4    0    0 -0.20619659545E+03 -0.48581884778E+03 -0.15938042695E+04  0.16808457896E+04  0.80582443864E+02 0.  0.
         13    1    3    3    0    0  0.17349188788E+03  0.29882622799E+02 -0.11536174515E+03  0.21047740627E+03  0.00000000000E+00 0.  1.
        -13    1    3    3    0    0  0.57513652821E+03  0.22026343191E+03 -0.55448116355E+03  0.82870221808E+03  0.00000000000E+00 0. -1.
          2    1    6    6  502    0 -0.18058936677E+03 -0.43882997933E+03 -0.13422934170E+04  0.14237049861E+04  0.00000000000E+00 0. -1.
          1    1    5    5  503    0 -0.80443625568E+02  0.57727993991E+02 -0.17705919531E+03  0.20286364098E+03  0.00000000000E+00 0. -1.
         -2    1    5    5    0  503 -0.46198819508E+03  0.17794479908E+03 -0.65209045112E+03  0.81873035876E+03  0.00000000000E+00 0.  1.
         -3    1    6    6    0  502 -0.25607228674E+02 -0.46988868456E+02 -0.25151085248E+03  0.25714080352E+03  0.00000000000E+00 0.  1.
<mgrwt>
<rscale>  0 0.21057834E+04</rscale>
<asrwt>0</asrwt>
<pdfrwt beam="1">  1        2 0.52572431E+00 0.21057834E+04</pdfrwt>
<pdfrwt beam="2">  1       -2 0.49909431E-01 0.21057834E+04</pdfrwt>
<totfact> 0.32591044E+00</totfact>
</mgrwt>
</event>
<event>
12    1  0.2083715E-007  0.1814198E+04  0.7818608E-02  0.8698786E-01
          1   -1    0    0  501    0  0.00000000000E+00  0.00000000000E+00  0.17412913404E+04  0.17412913404E+04  0.00000000000E+00 0. -1.
         -1   -1    0    0    0  501 -0.00000000000E+00 -0.00000000000E+00 -0.47253911570E+03  0.47253911570E+03  0.00000000000E+00 0.  1.
         23    2    1    2    0    0  0.61436219349E+03 -0.57156873032E+02  0.12808247873E+03  0.63696693723E+03  0.92811340087E+02 0.  0.
        254    2    1    2    0    0 -0.61436219349E+03  0.57156873032E+02  0.11406697460E+04  0.15768635189E+04  0.89703025302E+03 0.  0.
        -24    2    4    4    0    0 -0.54301231475E+03 -0.62316612424E+02  0.12597159894E+04  0.13754691682E+04  0.79280040319E+02 0.  0.
         24    2    4    4    0    0 -0.71349878732E+02  0.11947348546E+03 -0.11904624338E+03  0.20139435063E+03  0.83803087528E+02 0.  0.
         11    1    3    3    0    0  0.56340779132E+03 -0.25684910974E+02  0.11865331866E+03  0.57633901828E+03  0.00000000000E+00 0.  1.
        -11    1    3    3    0    0  0.50954402169E+02 -0.31471962059E+02  0.94291600750E+01  0.60627918948E+02  0.00000000000E+00 0. -1.
          2    1    6    6  502    0 -0.48767745916E+02  0.90585195427E+02 -0.33294072779E+02  0.10813170652E+03  0.00000000000E+00 0. -1.
          1    1    5    5  503    0 -0.14305066983E+03 -0.51308533500E+02  0.36388744172E+03  0.39434772725E+03  0.00000000000E+00 0. -1.
         -2    1    5    5    0  503 -0.39996164492E+03 -0.11008078924E+02  0.89582854764E+03  0.98112144099E+03  0.00000000000E+00 0.  1.
         -1    1    6    6    0  502 -0.22582132815E+02  0.28888290030E+02 -0.85752170601E+02  0.93262644108E+02  0.00000000000E+00 0.  1.
<mgrwt>
<rscale>  0 0.18141976E+04</rscale>
<asrwt>0</asrwt>
<pdfrwt beam="1">  1        1 0.26789097E+00 0.18141976E+04</pdfrwt>
<pdfrwt beam="2">  1       -1 0.72698326E-01 0.18141976E+04</pdfrwt>
<totfact> 0.80317856E+00</totfact>
</mgrwt>
</event>
<event>
12    1  0.2083715E-007  0.2534225E+04  0.7818608E-02  0.8390893E-01
          4   -1    0    0  501    0  0.00000000000E+00  0.00000000000E+00  0.88481542645E+03  0.88481542645E+03  0.00000000000E+00 0. -1.
         -4   -1    0    0    0  501 -0.00000000000E+00 -0.00000000000E+00 -0.18145866906E+04  0.18145866906E+04  0.00000000000E+00 0.  1.
         23    2    1    2    0    0  0.83059994600E+03 -0.17957804086E+03  0.34623512498E+03  0.92211886389E+03  0.90993924632E+02 0.  0.
        254    2    1    2    0    0 -0.83059994600E+03  0.17957804086E+03 -0.12760063891E+04  0.17772832532E+04  0.89911006769E+03 0.  0.
        -24    2    4    4    0    0 -0.47000269571E+03 -0.34994858242E+03 -0.61464383042E+03  0.85301474793E+03  0.80502034740E+02 0.  0.
         24    2    4    4    0    0 -0.36059725029E+03  0.52952662329E+03 -0.66136255872E+03  0.92426850524E+03  0.80268387442E+02 0.  0.
         11    1    3    3    0    0  0.17141913964E+03 -0.47843219099E+02  0.35136285774E+02  0.18140577065E+03  0.00000000000E+00 0.  1.
        -11    1    3    3    0    0  0.65918080636E+03 -0.13173482176E+03  0.31109883920E+03  0.74071309324E+03  0.00000000000E+00 0. -1.
          4    1    6    6  502    0 -0.39028602572E+02  0.55442126343E+02 -0.10977459504E+03  0.12902528012E+03  0.00000000000E+00 0. -1.
          1    1    5    5  503    0 -0.15409553436E+03 -0.84652421446E+02 -0.22516651357E+03  0.28567713419E+03  0.00000000000E+00 0. -1.
         -2    1    5    5    0  503 -0.31590716135E+03 -0.26529616098E+03 -0.38947731685E+03  0.56733761373E+03  0.00000000000E+00 0.  1.
         -3    1    6    6    0  502 -0.32156864772E+03  0.47408449694E+03 -0.55158796367E+03  0.79524322513E+03  0.00000000000E+00 0.  1.
<mgrwt>
<rscale>  0 0.25342252E+04</rscale>
<asrwt>0</asrwt>
<pdfrwt beam="1">  1        4 0.13612545E+00 0.25342252E+04</pdfrwt>
<pdfrwt beam="2">  1       -4 0.27916718E+00 0.25342252E+04</pdfrwt>
<totfact> 0.28389843E-02</totfact>
</mgrwt>
</event>
<event>
12    1  0.2083715E-007  0.2671488E+04  0.7818608E-02  0.8344316E-01
         -2   -1    0    0    0  501 -0.00000000000E+00  0.00000000000E+00  0.16834891975E+04  0.16834891975E+04  0.00000000000E+00 0.  1.
          2   -1    0    0  501    0  0.00000000000E+00 -0.00000000000E+00 -0.10598301671E+04  0.10598301671E+04  0.00000000000E+00 0. -1.
         23    2    1    2    0    0  0.34382633353E+03 -0.11006566588E+04  0.53418935236E+03  0.12742826089E+04  0.93681774289E+02 0.  0.
        254    2    1    2    0    0 -0.34382633353E+03  0.11006566588E+04  0.89469678082E+02  0.14690367558E+04  0.90576075106E+03 0.  0.
        -24    2    4    4    0    0 -0.15355616420E+03  0.39806739947E+03 -0.39888776490E+03  0.58884527418E+03  0.74767358137E+02 0.  0.
         24    2    4    4    0    0 -0.19027016932E+03  0.70258925937E+03  0.48835744298E+03  0.88019148158E+03  0.80060273572E+02 0.  0.
         11    1    3    3    0    0  0.11325035719E+03 -0.40823307737E+03  0.14918875664E+03  0.44915161579E+03  0.00000000000E+00 0. -1.
        -11    1    3    3    0    0  0.23057597634E+03 -0.69242358148E+03  0.38500059572E+03  0.82513099309E+03  0.00000000000E+00 0.  1.
          4    1    6    6  502    0 -0.22828877380E+02  0.34685655928E+02  0.44994986976E+02  0.61227454811E+02  0.00000000000E+00 0. -1.
          3    1    5    5  503    0 -0.15466535681E+02  0.10694262865E+03 -0.13100558774E+03  0.16981873738E+03  0.00000000000E+00 0. -1.
         -4    1    5    5    0  503 -0.13808962852E+03  0.29112477083E+03 -0.26788217716E+03  0.41902653679E+03  0.00000000000E+00 0.  1.
         -3    1    6    6    0  502 -0.16744129194E+03  0.66790360344E+03  0.44336245601E+03  0.81896402677E+03  0.00000000000E+00 0.  1.
<mgrwt>
<rscale>  0 0.26714885E+04</rscale>
<asrwt>0</asrwt>
<pdfrwt beam="1">  1        2 0.16305079E+00 0.26714885E+04</pdfrwt>
<pdfrwt beam="2">  1       -2 0.25899834E+00 0.26714885E+04</pdfrwt>
<totfact> 0.11482622E+00</totfact>
</mgrwt>
</event>
<event>
12    1  0.2083715E-007  0.2634891E+04  0.7818608E-02  0.8356445E-01
          3   -1    0    0  501    0  0.00000000000E+00  0.00000000000E+00  0.66607119314E+03  0.66607119314E+03  0.00000000000E+00 0. -1.
         -3   -1    0    0    0  501 -0.00000000000E+00 -0.00000000000E+00 -0.26058216231E+04  0.26058216231E+04  0.00000000000E+00 0.  1.
         23    2    1    2    0    0  0.41696736491E+02 -0.11575831711E+04 -0.96053470522E+03  0.15084307545E+04  0.10487614324E+03 0.  0.
        254    2    1    2    0    0 -0.41696736491E+02  0.11575831711E+04 -0.97921572478E+03  0.17634620618E+04  0.89955410726E+03 0.  0.
        -24    2    4    4    0    0 -0.63317142496E+02 -0.12653926148E+03 -0.32665620824E+02  0.16610830688E+03  0.80645406572E+02 0.  0.
         24    2    4    4    0    0  0.21620406005E+02  0.12841224326E+04 -0.94655010396E+03  0.15973537549E+04  0.78384023996E+02 0.  0.
         11    1    3    3    0    0  0.16924848043E+02 -0.21127225586E+03 -0.22937800883E+03  0.31230864143E+03  0.00000000000E+00 0.  1.
        -11    1    3    3    0    0  0.24771888447E+02 -0.94631091522E+03 -0.73115669638E+03  0.11961221131E+04  0.00000000000E+00 0. -1.
          4    1    6    6  502    0 -0.16547553595E+02  0.88306710337E+02 -0.55901305958E+02  0.10581518146E+03  0.00000000000E+00 0. -1.
          1    1    5    5  503    0 -0.66162587361E+01 -0.96773960033E+02 -0.31747005049E+02  0.10206295386E+03  0.00000000000E+00 0. -1.
         -2    1    5    5    0  503 -0.56700883760E+02 -0.29765301452E+02 -0.91861577516E+00  0.64045353029E+02  0.00000000000E+00 0.  1.
         -3    1    6    6    0  502  0.38167959600E+02  0.11958157222E+04 -0.89064879800E+03  0.14915385734E+04  0.00000000000E+00 0.  1.
<mgrwt>
<rscale>  0 0.26348911E+04</rscale>
<asrwt>0</asrwt>
<pdfrwt beam="1">  1        3 0.10247249E+00 0.26348911E+04</pdfrwt>
<pdfrwt beam="2">  1       -3 0.40089563E+00 0.26348911E+04</pdfrwt>
<totfact> 0.19835586E-02</totfact>
</mgrwt>
</event>
<event>
12    1  0.2083715E-007  0.1255126E+04  0.7818608E-02  0.9065927E-01
         -2   -1    0    0    0  501 -0.00000000000E+00  0.00000000000E+00  0.57204177160E+03  0.57204177160E+03  0.00000000000E+00 0.  1.
          2   -1    0    0  501    0  0.00000000000E+00 -0.00000000000E+00 -0.68847349872E+03  0.68847349872E+03  0.00000000000E+00 0. -1.
         23    2    1    2    0    0 -0.19495230930E+03  0.15765953457E+03 -0.18114504336E+03  0.32377453253E+03  0.95673870210E+02 0.  0.
        254    2    1    2    0    0  0.19495230930E+03 -0.15765953457E+03  0.64713316246E+02  0.93674073779E+03  0.90024022616E+03 0.  0.
        -24    2    4    4    0    0  0.38538361728E+02 -0.16190893485E+03  0.46456063017E+03  0.49994269759E+03  0.80164912951E+02 0.  0.
         24    2    4    4    0    0  0.15641394757E+03  0.42494002751E+01 -0.39984731392E+03  0.43679804019E+03  0.80195218508E+02 0.  0.
         11    1    3    3    0    0 -0.12067887971E+03  0.63964267942E+02 -0.14423972977E+03  0.19864520942E+03  0.00000000000E+00 0. -1.
        -11    1    3    3    0    0 -0.74273429583E+02  0.93695266631E+02 -0.36905313592E+02  0.12512932311E+03  0.00000000000E+00 0.  1.
          4    1    6    6  502    0  0.16337907244E+03  0.97223405775E+01 -0.35268348929E+03  0.38880957914E+03  0.00000000000E+00 0. -1.
          1    1    5    5  503    0  0.27006452838E+02 -0.15901290906E+03  0.35720862092E+03  0.39193424525E+03  0.00000000000E+00 0. -1.
         -2    1    5    5    0  503  0.11531908890E+02 -0.28960257903E+01  0.10735200924E+03  0.10800845234E+03  0.00000000000E+00 0.  1.
         -3    1    6    6    0  502 -0.69651248712E+01 -0.54729403024E+01 -0.47163824635E+02  0.47988461053E+02  0.00000000000E+00 0.  1.
<mgrwt>
<rscale>  0 0.12551264E+04</rscale>
<asrwt>0</asrwt>
<pdfrwt beam="1">  1        2 0.10591900E+00 0.12551264E+04</pdfrwt>
<pdfrwt beam="2">  1       -2 0.88006426E-01 0.12551264E+04</pdfrwt>
<totfact> 0.45797289E+01</totfact>
</mgrwt>
</event>
<event>
12    1  0.2083715E-007  0.1786372E+04  0.7818608E-02  0.8713581E-01
         -2   -1    0    0    0  501 -0.00000000000E+00  0.00000000000E+00  0.20352878262E+03  0.20352878262E+03  0.00000000000E+00 0.  1.
          2   -1    0    0  501    0  0.00000000000E+00 -0.00000000000E+00 -0.39197446753E+04  0.39197446753E+04  0.00000000000E+00 0. -1.
         23    2    1    2    0    0  0.34474604903E+03 -0.51495609166E+03 -0.19336216197E+04  0.20324405980E+04  0.88840314768E+02 0.  0.
        254    2    1    2    0    0 -0.34474604903E+03  0.51495609166E+03 -0.17825942730E+04  0.20908328600E+04  0.89995004942E+03 0.  0.
        -24    2    4    4    0    0  0.23616466952E+03  0.29673692702E+02 -0.85292422438E+03  0.88951790189E+03  0.84309466190E+02 0.  0.
         24    2    4    4    0    0 -0.58091071854E+03  0.48528239895E+03 -0.92967004865E+03  0.12013149581E+04  0.76908773881E+02 0.  0.
         11    1    3    3    0    0  0.99263871416E+02 -0.85626639389E+02 -0.43500671407E+03  0.45433036309E+03  0.00000000000E+00 0. -1.
        -11    1    3    3    0    0  0.24548217761E+03 -0.42932945227E+03 -0.14986149056E+04  0.15781102349E+04  0.00000000000E+00 0.  1.
          4    1    6    6  502    0 -0.57480091083E+03  0.48155816939E+03 -0.90327723252E+03  0.11739693848E+04  0.00000000000E+00 0. -1.
          1    1    5    5  503    0  0.21488891554E+03 -0.12913908660E+01 -0.71961357059E+03  0.75101438381E+03  0.00000000000E+00 0. -1.
         -2    1    5    5    0  503  0.21275753974E+02  0.30965083568E+02 -0.13331065379E+03  0.13850351808E+03  0.00000000000E+00 0.  1.
         -1    1    6    6    0  502 -0.61098077075E+01  0.37242295667E+01 -0.26392816135E+02  0.27345573310E+02  0.00000000000E+00 0.  1.
<mgrwt>
<rscale>  0 0.17863716E+04</rscale>
<asrwt>0</asrwt>
<pdfrwt beam="1">  1        2 0.60303760E+00 0.17863716E+04</pdfrwt>
<pdfrwt beam="2">  1       -2 0.31312123E-01 0.17863716E+04</pdfrwt>
<totfact> 0.35967267E+00</totfact>
</mgrwt>
</event>
<event>
12    1  0.2083715E-007  0.3049019E+04  0.7818608E-02  0.8229870E-01
          1   -1    0    0  501    0  0.00000000000E+00  0.00000000000E+00  0.28787102537E+04  0.28787102537E+04  0.00000000000E+00 0. -1.
         -1   -1    0    0    0  501 -0.00000000000E+00 -0.00000000000E+00 -0.80735099640E+03  0.80735099640E+03  0.00000000000E+00 0.  1.
         23    2    1    2    0    0 -0.79493020032E+03 -0.79010318291E+03  0.19389159973E+04  0.22417246230E+04  0.98777415956E+02 0.  0.
        254    2    1    2    0    0  0.79493020032E+03  0.79010318291E+03  0.13244325998E+03  0.14443366270E+04  0.90132680649E+03 0.  0.
        -24    2    4    4    0    0  0.97074074890E+03  0.56836710218E+03  0.15947750374E+02  0.11278886252E+04  0.80620442876E+02 0.  0.
         24    2    4    4    0    0 -0.17581054859E+03  0.22173608073E+03  0.11649550961E+03  0.31644800180E+03  0.80572300386E+02 0.  0.
         13    1    3    3    0    0 -0.34643671591E+03 -0.41291959539E+03  0.94545104452E+03  0.10883008169E+04  0.00000000000E+00 0.  1.
        -13    1    3    3    0    0 -0.44849348440E+03 -0.37718358751E+03  0.99346495276E+03  0.11534238062E+04  0.00000000000E+00 0. -1.
          4    1    6    6  502    0 -0.14694473694E+03  0.13472916612E+03  0.57699943795E+02  0.20754273640E+03  0.00000000000E+00 0. -1.
          3    1    5    5  503    0  0.52931277617E+03  0.35567863279E+03  0.15103738253E+02  0.63789295947E+03  0.00000000000E+00 0. -1.
         -4    1    5    5    0  503  0.44142797273E+03  0.21268846939E+03  0.84401212064E+00  0.48999566577E+03  0.00000000000E+00 0.  1.
         -3    1    6    6    0  502 -0.28865811646E+02  0.87006914610E+02  0.58795565811E+02  0.10890526540E+03  0.00000000000E+00 0.  1.
<mgrwt>
<rscale>  0 0.30490192E+04</rscale>
<asrwt>0</asrwt>
<pdfrwt beam="1">  1        1 0.44287849E+00 0.30490192E+04</pdfrwt>
<pdfrwt beam="2">  1       -1 0.12420785E+00 0.30490192E+04</pdfrwt>
<totfact> 0.35241693E-01</totfact>
</mgrwt>
</event>
<event>
12    1  0.2083715E-007  0.2505096E+04  0.7818608E-02  0.8401172E-01
         -3   -1    0    0    0  501 -0.00000000000E+00  0.00000000000E+00  0.16444819954E+04  0.16444819954E+04  0.00000000000E+00 0.  1.
          3   -1    0    0  501    0  0.00000000000E+00 -0.00000000000E+00 -0.95402483198E+03  0.95402483198E+03  0.00000000000E+00 0. -1.
         23    2    1    2    0    0  0.10691671377E+04 -0.18772074421E+03  0.21854903413E+03  0.11113562725E+04  0.94824247396E+02 0.  0.
        254    2    1    2    0    0 -0.10691671377E+04  0.18772074421E+03  0.47190812932E+03  0.14871505549E+04  0.90031219268E+03 0.  0.
        -24    2    4    4    0    0 -0.90923021791E+03  0.49443260246E+03  0.24735843294E+03  0.10671946289E+04  0.80962917429E+02 0.  0.
         24    2    4    4    0    0 -0.15993691981E+03 -0.30671185826E+03  0.22454969638E+03  0.41995592605E+03  0.79299630314E+02 0.  0.
         13    1    3    3    0    0  0.28753222740E+03 -0.33983363214E+02  0.19132829664E+02  0.29016498055E+03  0.00000000000E+00 0.  1.
        -13    1    3    3    0    0  0.78163491032E+03 -0.15373738099E+03  0.19941620446E+03  0.82119129194E+03  0.00000000000E+00 0. -1.
          4    1    6    6  502    0 -0.43296297252E+02 -0.53674524979E+02  0.81475638240E+02  0.10674176134E+03  0.00000000000E+00 0. -1.
          1    1    5    5  503    0 -0.46928301248E+03  0.29089726580E+03  0.10552998692E+03  0.56212484662E+03  0.00000000000E+00 0. -1.
         -2    1    5    5    0  503 -0.43994720543E+03  0.20353533666E+03  0.14182844602E+03  0.50506978225E+03  0.00000000000E+00 0.  1.
         -3    1    6    6    0  502 -0.11664062256E+03 -0.25303733328E+03  0.14307405814E+03  0.31321416471E+03  0.00000000000E+00 0.  1.
<mgrwt>
<rscale>  0 0.25050961E+04</rscale>
<asrwt>0</asrwt>
<pdfrwt beam="1">  1        3 0.14677305E+00 0.25050961E+04</pdfrwt>
<pdfrwt beam="2">  1       -3 0.25299723E+00 0.25050961E+04</pdfrwt>
<totfact> 0.55814197E-02</totfact>
</mgrwt>
</event>
<event>
12    1  0.2083715E-007  0.2441505E+04  0.7818608E-02  0.8424126E-01
          4   -1    0    0  501    0  0.00000000000E+00  0.00000000000E+00  0.25110287935E+04  0.25110287935E+04  0.00000000000E+00 0. -1.
         -4   -1    0    0    0  501 -0.00000000000E+00 -0.00000000000E+00 -0.59347656840E+03  0.59347656840E+03  0.00000000000E+00 0.  1.
         23    2    1    2    0    0  0.19828432191E+02  0.86277330937E+03  0.15952686340E+04  0.18159984871E+04  0.90540269353E+02 0.  0.
        254    2    1    2    0    0 -0.19828432191E+02 -0.86277330937E+03  0.32228359105E+03  0.12885068748E+04  0.90089527871E+03 0.  0.
        -24    2    4    4    0    0 -0.33188689604E+03 -0.77356591399E+02 -0.64190391942E+02  0.35586729294E+03  0.79926026877E+02 0.  0.
         24    2    4    4    0    0  0.31205846385E+03 -0.78541671797E+03  0.38647398300E+03  0.93263958183E+03  0.78705427666E+02 0.  0.
         13    1    3    3    0    0 -0.27581907901E+01  0.38169800217E+03  0.61530957703E+03  0.72409035905E+03  0.00000000000E+00 0.  1.
        -13    1    3    3    0    0  0.22586622981E+02  0.48107530720E+03  0.97995905697E+03  0.10919081280E+04  0.00000000000E+00 0. -1.
          2    1    6    6  502    0  0.61341844484E+02 -0.10865448763E+03  0.82156182406E+02  0.14939296461E+03  0.00000000000E+00 0. -1.
          3    1    5    5  503    0 -0.64055710248E+02 -0.46340053516E+02 -0.15999108792E+01  0.79076509091E+02  0.00000000000E+00 0. -1.
         -4    1    5    5    0  503 -0.26783118579E+03 -0.31016537883E+02 -0.62590481063E+02  0.27679078385E+03  0.00000000000E+00 0.  1.
         -1    1    6    6    0  502  0.25071661936E+03 -0.67676223033E+03  0.30431780059E+03  0.78324661722E+03  0.00000000000E+00 0.  1.
<mgrwt>
<rscale>  0 0.24415051E+04</rscale>
<asrwt>0</asrwt>
<pdfrwt beam="1">  1        4 0.38631212E+00 0.24415051E+04</pdfrwt>
<pdfrwt beam="2">  1       -4 0.91304089E-01 0.24415051E+04</pdfrwt>
<totfact> 0.15530470E-02</totfact>
</mgrwt>
</event>
<event>
12    1  0.2083715E-007  0.3100272E+04  0.7818608E-02  0.8215663E-01
         -2   -1    0    0    0  501 -0.00000000000E+00  0.00000000000E+00  0.13361368399E+04  0.13361368399E+04  0.00000000000E+00 0.  1.
          2   -1    0    0  501    0  0.00000000000E+00 -0.00000000000E+00 -0.17984093935E+04  0.17984093935E+04  0.00000000000E+00 0. -1.
         23    2    1    2    0    0 -0.70710658213E+03  0.12279961728E+04 -0.26338543767E+03  0.14441876978E+04  0.91279235885E+02 0.  0.
        254    2    1    2    0    0  0.70710658213E+03 -0.12279961728E+04 -0.19888711590E+03  0.16903585356E+04  0.89987864469E+03 0.  0.
        -24    2    4    4    0    0  0.28167352457E+03 -0.91855822657E+02  0.24810199344E+03  0.39500016629E+03  0.81811158312E+02 0.  0.
         24    2    4    4    0    0  0.42543305756E+03 -0.11361403501E+04 -0.44698910934E+03  0.12953583693E+04  0.79660902940E+02 0.  0.
         13    1    3    3    0    0 -0.49908434212E+03  0.79317608426E+03 -0.19709233789E+03  0.95763190781E+03  0.00000000000E+00 0. -1.
        -13    1    3    3    0    0 -0.20802224001E+03  0.43482008849E+03 -0.66293099778E+02  0.48655578999E+03  0.00000000000E+00 0.  1.
          4    1    6    6  502    0  0.13271823226E+03 -0.42375837088E+03 -0.19524762679E+03  0.48508444815E+03  0.00000000000E+00 0. -1.
          3    1    5    5  503    0  0.36358276785E+02 -0.35884292727E+02  0.18385813455E+02  0.54292217598E+02  0.00000000000E+00 0. -1.
         -4    1    5    5    0  503  0.24531524778E+03 -0.55971529930E+02  0.22971617998E+03  0.34070794869E+03  0.00000000000E+00 0.  1.
         -3    1    6    6    0  502  0.29271482530E+03 -0.71238197921E+03 -0.25174148255E+03  0.81027392115E+03  0.00000000000E+00 0.  1.
<mgrwt>
<rscale>  0 0.31002716E+04</rscale>
<asrwt>0</asrwt>
<pdfrwt beam="1">  1        2 0.27667837E+00 0.31002716E+04</pdfrwt>
<pdfrwt beam="2">  1       -2 0.20555951E+00 0.31002716E+04</pdfrwt>
<totfact> 0.89809828E-01</totfact>
</mgrwt>
</event>
<event>
12    1  0.2083715E-007  0.2108055E+04  0.7818608E-02  0.8557704E-01
          1   -1    0    0  501    0  0.00000000000E+00  0.00000000000E+00  0.20820451300E+04  0.20820451300E+04  0.00000000000E+00 0. -1.
         -1   -1    0    0    0  501 -0.00000000000E+00 -0.00000000000E+00 -0.53359720305E+03  0.53359720305E+03  0.00000000000E+00 0.  1.
         23    2    1    2    0    0 -0.61823542466E+03  0.51494357678E+03  0.26153320072E+03  0.85115535563E+03  0.93187428186E+02 0.  0.
        254    2    1    2    0    0  0.61823542466E+03 -0.51494357678E+03  0.12869147262E+04  0.17644869774E+04  0.89993491615E+03 0.  0.
        -24    2    4    4    0    0 -0.10838842474E+03 -0.37004596858E+03  0.18665515678E+03  0.43560541457E+03  0.78929463275E+02 0.  0.
         24    2    4    4    0    0  0.72662384940E+03 -0.14489760820E+03  0.11002595694E+04  0.13288815628E+04  0.79859580081E+02 0.  0.
         13    1    3    3    0    0 -0.45796253167E+03  0.39729303054E+03  0.23647838832E+03  0.65076375181E+03  0.00000000000E+00 0. -1.
        -13    1    3    3    0    0 -0.16027289298E+03  0.11765054624E+03  0.25054812400E+02  0.20039160382E+03  0.00000000000E+00 0.  1.
          2    1    6    6  502    0  0.37199326677E+03 -0.11090584496E+03  0.54307953512E+03  0.66754361539E+03  0.00000000000E+00 0. -1.
          3    1    5    5  503    0 -0.69393865525E+02 -0.11326420932E+03  0.78230530306E+02  0.15415675645E+03  0.00000000000E+00 0. -1.
         -4    1    5    5    0  503 -0.38994559214E+02 -0.25678175925E+03  0.10842462648E+03  0.28144865813E+03  0.00000000000E+00 0.  1.
         -1    1    6    6    0  502  0.35463058262E+03 -0.33991763240E+02  0.55718003432E+03  0.66133794745E+03  0.00000000000E+00 0.  1.
<mgrwt>
<rscale>  0 0.21080545E+04</rscale>
<asrwt>0</asrwt>
<pdfrwt beam="1">  1        1 0.32031463E+00 0.21080545E+04</pdfrwt>
<pdfrwt beam="2">  1       -1 0.82091878E-01 0.21080545E+04</pdfrwt>
<totfact> 0.35551948E+00</totfact>
</mgrwt>
</event>
<event>
12    1  0.2083715E-007  0.1534919E+04  0.7818608E-02  0.8861559E-01
         -2   -1    0    0    0  501 -0.00000000000E+00  0.00000000000E+00  0.11498367107E+04  0.11498367107E+04  0.00000000000E+00 0.  1.
          2   -1    0    0  501    0  0.00000000000E+00 -0.00000000000E+00 -0.51224120808E+03  0.51224120808E+03  0.00000000000E+00 0. -1.
         23    2    1    2    0    0 -0.23727893733E+02 -0.24045260242E+03  0.68210676779E+03  0.72939192819E+03  0.91446570653E+02 0.  0.
        254    2    1    2    0    0  0.23727893733E+02  0.24045260242E+03 -0.44511265163E+02  0.93268599060E+03  0.89974520692E+03 0.  0.
        -24    2    4    4    0    0  0.14490982423E+02  0.57102138836E+03 -0.10786499350E+03  0.58650882193E+03  0.77989273904E+02 0.  0.
         24    2    4    4    0    0  0.92369113106E+01 -0.33056878594E+03  0.63353728341E+02  0.34617716867E+03  0.80398348521E+02 0.  0.
         13    1    3    3    0    0  0.20840250839E+02 -0.15054830783E+03  0.48431281214E+03  0.50760024532E+03  0.00000000000E+00 0.  1.
        -13    1    3    3    0    0 -0.44568144572E+02 -0.89904294592E+02  0.19779395565E+03  0.22179168286E+03  0.00000000000E+00 0. -1.
          2    1    6    6  502    0  0.17542797697E+02 -0.33121630393E+03  0.59407853683E+02  0.33695887408E+03  0.00000000000E+00 0. -1.
          1    1    5    5  503    0  0.90008226772E+01  0.56546385662E+03 -0.11358161317E+03  0.57682854541E+03  0.00000000000E+00 0. -1.
         -2    1    5    5    0  503  0.54901597454E+01  0.55575317400E+01  0.57166196669E+01  0.96802765192E+01  0.00000000000E+00 0.  1.
         -1    1    6    6    0  502 -0.83058863867E+01  0.64751799822E+00  0.39458746581E+01  0.92182945844E+01  0.00000000000E+00 0.  1.
<mgrwt>
<rscale>  0 0.15349186E+04</rscale>
<asrwt>0</asrwt>
<pdfrwt beam="1">  1        2 0.78806340E-01 0.15349186E+04</pdfrwt>
<pdfrwt beam="2">  1       -2 0.17689796E+00 0.15349186E+04</pdfrwt>
<totfact> 0.10981389E+01</totfact>
</mgrwt>
</event>
<event>
12    1  0.2083715E-007  0.1500040E+04  0.7818608E-02  0.8884426E-01
          2   -1    0    0  501    0  0.00000000000E+00  0.00000000000E+00  0.47766820466E+03  0.47766820466E+03  0.00000000000E+00 0. -1.
         -2   -1    0    0    0  501 -0.00000000000E+00 -0.00000000000E+00 -0.11776588531E+04  0.11776588531E+04  0.00000000000E+00 0.  1.
         23    2    1    2    0    0  0.29967441217E+03  0.36892279265E+03 -0.20855225697E+03  0.52751912414E+03  0.94199799349E+02 0.  0.
        254    2    1    2    0    0 -0.29967441217E+03 -0.36892279265E+03 -0.49143839151E+03  0.11278079337E+04  0.89695610948E+03 0.  0.
        -24    2    4    4    0    0 -0.21866789843E+03 -0.29159947309E+03 -0.74843197295E+03  0.83623211101E+03  0.79295793297E+02 0.  0.
         24    2    4    4    0    0 -0.81006513741E+02 -0.77323319562E+02  0.25699358144E+03  0.29157582266E+03  0.80186086321E+02 0.  0.
         13    1    3    3    0    0  0.27775743087E+03  0.36524828777E+03 -0.18393722321E+03  0.49435655574E+03  0.00000000000E+00 0. -1.
        -13    1    3    3    0    0  0.21916981303E+02  0.36745048770E+01 -0.24615033762E+02  0.33162568396E+02  0.00000000000E+00 0.  1.
          2    1    6    6  502    0 -0.83743667600E+02 -0.52139223892E+02  0.24382535210E+03  0.26302528939E+03  0.00000000000E+00 0. -1.
          1    1    5    5  503    0 -0.10090267060E+03 -0.19317512389E+03 -0.47655190053E+03  0.52402260574E+03  0.00000000000E+00 0. -1.
         -2    1    5    5    0  503 -0.11776522783E+03 -0.98424349194E+02 -0.27188007242E+03  0.31220950527E+03  0.00000000000E+00 0.  1.
         -1    1    6    6    0  502  0.27371538591E+01 -0.25184095670E+02  0.13168229342E+02  0.28550533270E+02  0.00000000000E+00 0.  1.
<mgrwt>
<rscale>  0 0.15000403E+04</rscale>
<asrwt>0</asrwt>
<pdfrwt beam="1">  1        2 0.73487417E-01 0.15000403E+04</pdfrwt>
<pdfrwt beam="2">  1       -2 0.18117828E+00 0.15000403E+04</pdfrwt>
<totfact> 0.11152572E+01</totfact>
</mgrwt>
</event>
<event>
12    1  0.2083715E-007  0.1329707E+04  0.7818608E-02  0.9006333E-01
          2   -1    0    0  501    0  0.00000000000E+00  0.00000000000E+00  0.32119895640E+03  0.32119895640E+03  0.00000000000E+00 0.  1.
         -2   -1    0    0    0  501 -0.00000000000E+00 -0.00000000000E+00 -0.13761888610E+04  0.13761888610E+04  0.00000000000E+00 0. -1.
         23    2    1    2    0    0  0.48569681505E+02  0.17083467253E+03  0.99310980324E+02  0.22301139024E+03  0.91257383624E+02 0.  0.
        254    2    1    2    0    0 -0.48569681505E+02 -0.17083467253E+03 -0.11543008850E+04  0.14743764272E+04  0.89990656001E+03 0.  0.
        -24    2    4    4    0    0  0.42807229893E+02 -0.10093006979E+03 -0.12794095572E+04  0.12867990322E+04  0.83328244290E+02 0.  0.
         24    2    4    4    0    0 -0.91376911398E+02 -0.69904602736E+02  0.12510867218E+03  0.18757739505E+03  0.79351785468E+02 0.  0.
         13    1    3    3    0    0  0.19457912453E+02  0.11852289896E+03  0.10920452956E+03  0.16233273611E+03  0.00000000000E+00 0.  1.
        -13    1    3    3    0    0  0.29111769052E+02  0.52311773565E+02 -0.98935492398E+01  0.60678654133E+02  0.00000000000E+00 0. -1.
          4    1    6    6  502    0  0.93135069525E+01 -0.17744641236E+02  0.19047741924E+01  0.20130620186E+02  0.00000000000E+00 0. -1.
          3    1    5    5  503    0 -0.22579313361E+01  0.60458071844E+01 -0.36421644652E+03  0.36427361963E+03  0.00000000000E+00 0. -1.
         -4    1    5    5    0  503  0.45065161229E+02 -0.10697587698E+03 -0.91519311064E+03  0.92252541253E+03  0.00000000000E+00 0.  1.
         -3    1    6    6    0  502 -0.10069041835E+03 -0.52159961499E+02  0.12320389799E+03  0.16744677486E+03  0.00000000000E+00 0.  1.
<mgrwt>
<rscale>  0 0.13297074E+04</rscale>
<asrwt>0</asrwt>
<pdfrwt beam="1">  1        2 0.49415224E-01 0.13297074E+04</pdfrwt>
<pdfrwt beam="2">  1       -2 0.21172137E+00 0.13297074E+04</pdfrwt>
<totfact> 0.11101900E+01</totfact>
</mgrwt>
</event>
<event>
12    1  0.2083715E-007  0.1582435E+04  0.7818608E-02  0.8831412E-01
          1   -1    0    0  501    0  0.00000000000E+00  0.00000000000E+00  0.17188618035E+04  0.17188618035E+04  0.00000000000E+00 0.  1.
         -1   -1    0    0    0  501 -0.00000000000E+00 -0.00000000000E+00 -0.36420901672E+03  0.36420901672E+03  0.00000000000E+00 0. -1.
         23    2    1    2    0    0  0.13242924745E+03 -0.50922552755E+03  0.54573736846E+03  0.76363797685E+03  0.92008373830E+02 0.  0.
        254    2    1    2    0    0 -0.13242924745E+03  0.50922552755E+03  0.80891541836E+03  0.13194328434E+04  0.89983928050E+03 0.  0.
        -24    2    4    4    0    0 -0.24978846845E+03  0.37259831577E+03 -0.31325624226E+02  0.45665940581E+03  0.79578478836E+02 0.  0.
         24    2    4    4    0    0  0.11735922100E+03  0.13662721179E+03  0.84024104258E+03  0.86277343760E+03  0.77024757309E+02 0.  0.
         13    1    3    3    0    0  0.44241763994E+02 -0.31255797357E+03  0.28445087006E+03  0.42492601474E+03  0.00000000000E+00 0. -1.
        -13    1    3    3    0    0  0.88187483460E+02 -0.19666755398E+03  0.26128649840E+03  0.33871196211E+03  0.00000000000E+00 0.  1.
          4    1    6    6  502    0  0.26309337607E+02  0.39061837476E+01  0.53609349193E+02  0.59844814627E+02  0.00000000000E+00 0. -1.
          3    1    5    5  503    0 -0.10805860778E+03  0.20937063804E+03  0.13075423693E+02  0.23597392545E+03  0.00000000000E+00 0. -1.
         -4    1    5    5    0  503 -0.14172986068E+03  0.16322767773E+03 -0.44401047920E+02  0.22068548035E+03  0.00000000000E+00 0.  1.
         -3    1    6    6    0  502  0.91049883393E+02  0.13272102804E+03  0.78663169339E+03  0.80292862298E+03  0.00000000000E+00 0.  1.
<mgrwt>
<rscale>  0 0.15824348E+04</rscale>
<asrwt>0</asrwt>
<pdfrwt beam="1">  1        1 0.26444027E+00 0.15824348E+04</pdfrwt>
<pdfrwt beam="2">  1       -1 0.56032157E-01 0.15824348E+04</pdfrwt>
<totfact> 0.14326639E+01</totfact>
</mgrwt>
</event>
<event>
12    1  0.2083715E-007  0.1756185E+04  0.7818608E-02  0.8729953E-01
          2   -1    0    0  501    0  0.00000000000E+00  0.00000000000E+00  0.12212686562E+04  0.12212686562E+04  0.00000000000E+00 0. -1.
         -2   -1    0    0    0  501 -0.00000000000E+00 -0.00000000000E+00 -0.63134879491E+03  0.63134879491E+03  0.00000000000E+00 0.  1.
         23    2    1    2    0    0 -0.82364962848E+02 -0.62531994935E+03  0.82763016849E+02  0.64227821932E+03  0.88671122147E+02 0.  0.
        254    2    1    2    0    0  0.82364962848E+02  0.62531994935E+03  0.50715684444E+03  0.12103392318E+04  0.89994664563E+03 0.  0.
        -24    2    4    4    0    0  0.54848268106E+01  0.52159878627E+02  0.61045665755E+03  0.61757116449E+03  0.77369736963E+02 0.  0.
         24    2    4    4    0    0  0.76880136037E+02  0.57316007072E+03 -0.10329981311E+03  0.59276806730E+03  0.79247133945E+02 0.  0.
         13    1    3    3    0    0 -0.62279762760E+02 -0.29673992011E+03  0.77885650415E+02  0.31304875591E+03  0.00000000000E+00 0. -1.
        -13    1    3    3    0    0 -0.20085200088E+02 -0.32858002924E+03  0.48773664340E+01  0.32922946341E+03  0.00000000000E+00 0.  1.
          2    1    6    6  502    0  0.70194348344E+02  0.54923397984E+03 -0.81403905294E+02  0.55965329173E+03  0.00000000000E+00 0. -1.
          1    1    5    5  503    0 -0.24405468606E+02  0.34262253307E+02  0.49962678369E+03  0.50139450723E+03  0.00000000000E+00 0. -1.
         -2    1    5    5    0  503  0.29890295417E+02  0.17897625320E+02  0.11082987386E+03  0.11617665726E+03  0.00000000000E+00 0.  1.
         -1    1    6    6    0  502  0.66857876932E+01  0.23926090880E+02 -0.21895907815E+02  0.33114775568E+02  0.00000000000E+00 0.  1.
<mgrwt>
<rscale>  0 0.17561851E+04</rscale>
<asrwt>0</asrwt>
<pdfrwt beam="1">  1        2 0.18788749E+00 0.17561851E+04</pdfrwt>
<pdfrwt beam="2">  1       -2 0.97130584E-01 0.17561851E+04</pdfrwt>
<totfact> 0.15421257E+01</totfact>
</mgrwt>
</event>
<event>
12    1  0.2083715E-007  0.2375602E+04  0.7818608E-02  0.8448695E-01
         -2   -1    0    0    0  501 -0.00000000000E+00  0.00000000000E+00  0.61502293232E+03  0.61502293232E+03  0.00000000000E+00 0.  1.
          2   -1    0    0  501    0  0.00000000000E+00 -0.00000000000E+00 -0.22940144924E+04  0.22940144924E+04  0.00000000000E+00 0. -1.
         23    2    1    2    0    0 -0.11886485576E+03  0.85467867167E+03 -0.64592998559E+02  0.86930698206E+03  0.83173841157E+02 0.  0.
        254    2    1    2    0    0  0.11886485576E+03 -0.85467867167E+03 -0.16143985615E+04  0.20397304427E+04  0.89978501739E+03 0.  0.
        -24    2    4    4    0    0  0.34903000612E+03 -0.21765856199E+02 -0.31572020797E+03  0.47786724469E+03  0.79888398169E+02 0.  0.
         24    2    4    4    0    0 -0.23016515035E+03 -0.83291281547E+03 -0.12986783535E+04  0.15618631980E+04  0.78303439052E+02 0.  0.
         13    1    3    3    0    0 -0.77758592039E+02  0.55921366251E+03 -0.81857261354E+02  0.57049709045E+03  0.00000000000E+00 0. -1.
        -13    1    3    3    0    0 -0.41106263723E+02  0.29546500916E+03  0.17264262795E+02  0.29880989162E+03  0.00000000000E+00 0.  1.
          2    1    6    6  502    0 -0.33164529286E+02 -0.56518181463E+02 -0.12091065336E+03  0.13752664082E+03  0.00000000000E+00 0. -1.
          1    1    5    5  503    0  0.44023608243E+02 -0.29921614981E+02 -0.54873723117E+02  0.76449372885E+02  0.00000000000E+00 0. -1.
         -2    1    5    5    0  503  0.30500639787E+03  0.81557587812E+01 -0.26084648485E+03  0.40141787181E+03  0.00000000000E+00 0.  1.
         -1    1    6    6    0  502 -0.19700062107E+03 -0.77639463401E+03 -0.11777677002E+04  0.14243365571E+04  0.00000000000E+00 0.  1.
<mgrwt>
<rscale>  0 0.23756023E+04</rscale>
<asrwt>0</asrwt>
<pdfrwt beam="1">  1        2 0.35292531E+00 0.23756023E+04</pdfrwt>
<pdfrwt beam="2">  1       -2 0.94618910E-01 0.23756023E+04</pdfrwt>
<totfact> 0.38727492E+00</totfact>
</mgrwt>
</event>
<event>
12    1  0.2083715E-007  0.1629517E+04  0.7818608E-02  0.8802617E-01
          2   -1    0    0  501    0  0.00000000000E+00  0.00000000000E+00  0.79773257143E+03  0.79773257143E+03  0.00000000000E+00 0. -1.
         -2   -1    0    0    0  501 -0.00000000000E+00 -0.00000000000E+00 -0.83214793417E+03  0.83214793417E+03  0.00000000000E+00 0.  1.
         23    2    1    2    0    0  0.55834098580E+03  0.59259685345E+02  0.15242541293E+02  0.56953801372E+03  0.94259467807E+02 0.  0.
        254    2    1    2    0    0 -0.55834098580E+03 -0.59259685345E+02 -0.49657904037E+02  0.10603424919E+04  0.89811131044E+03 0.  0.
        -24    2    4    4    0    0 -0.51829360974E+03 -0.10823420537E+03 -0.41666505080E+03  0.67951436153E+03  0.88244511769E+02 0.  0.
         24    2    4    4    0    0 -0.40047376062E+02  0.48974520029E+02  0.36700714676E+03  0.38082813036E+03  0.79583435177E+02 0.  0.
         11    1    3    3    0    0  0.19442051244E+03  0.10665263156E+02  0.49164028509E+02  0.20082376651E+03  0.00000000000E+00 0. -1.
        -11    1    3    3    0    0  0.36392047336E+03  0.48594422189E+02 -0.33921487216E+02  0.36871424721E+03  0.00000000000E+00 0.  1.
          4    1    6    6  502    0  0.16512369576E+02  0.41386027024E+02  0.15562411313E+03  0.16187750360E+03  0.00000000000E+00 0. -1.
          1    1    5    5  503    0 -0.26418226794E+03 -0.94203336531E+02 -0.19058592239E+03  0.33910106623E+03  0.00000000000E+00 0. -1.
         -2    1    5    5    0  503 -0.25411134180E+03 -0.14030868843E+02 -0.22607912842E+03  0.34041329530E+03  0.00000000000E+00 0.  1.
         -3    1    6    6    0  502 -0.56559745638E+02  0.75884930045E+01  0.21138303363E+03  0.21895062676E+03  0.00000000000E+00 0.  1.
<mgrwt>
<rscale>  0 0.16295171E+04</rscale>
<asrwt>0</asrwt>
<pdfrwt beam="1">  1        2 0.12272809E+00 0.16295171E+04</pdfrwt>
<pdfrwt beam="2">  1       -2 0.12802276E+00 0.16295171E+04</pdfrwt>
<totfact> 0.14933091E+01</totfact>
</mgrwt>
</event>
<event>
12    1  0.2083715E-007  0.1627410E+04  0.7818608E-02  0.8803884E-01
         -2   -1    0    0    0  501 -0.00000000000E+00  0.00000000000E+00  0.45806149149E+03  0.45806149149E+03  0.00000000000E+00 0.  1.
          2   -1    0    0  501    0  0.00000000000E+00 -0.00000000000E+00 -0.14454742950E+04  0.14454742950E+04  0.00000000000E+00 0. -1.
         23    2    1    2    0    0 -0.85890304735E+02 -0.54195588287E+03 -0.21622070026E+03  0.59740704605E+03  0.95133926808E+02 0.  0.
        254    2    1    2    0    0  0.85890304735E+02  0.54195588287E+03 -0.77119210326E+03  0.13061287404E+04  0.90007872048E+03 0.  0.
        -24    2    4    4    0    0 -0.34977674016E+03  0.46367888643E+03 -0.31531354854E+03  0.66569509664E+03  0.79909011502E+02 0.  0.
         24    2    4    4    0    0  0.43566704489E+03  0.78276996439E+02 -0.45587855472E+03  0.64043364381E+03  0.79980830770E+02 0.  0.
         13    1    3    3    0    0 -0.66804947540E+02 -0.34895751782E+03 -0.91713599708E+02  0.36694091435E+03  0.00000000000E+00 0.  1.
        -13    1    3    3    0    0 -0.19085357195E+02 -0.19299836505E+03 -0.12450710055E+03  0.23046613170E+03  0.00000000000E+00 0. -1.
          2    1    6    6  502    0  0.13037949635E+02 -0.11569379321E+02 -0.13384122679E+02  0.21976655988E+02  0.00000000000E+00 0. -1.
          1    1    5    5  503    0 -0.49684489464E+02  0.11157441261E+03 -0.46901325130E+02  0.13083245905E+03  0.00000000000E+00 0. -1.
         -2    1    5    5    0  503 -0.30009225069E+03  0.35210447382E+03 -0.26841222341E+03  0.53486263759E+03  0.00000000000E+00 0.  1.
         -1    1    6    6    0  502  0.42262909526E+03  0.89846375759E+02 -0.44249443205E+03  0.61845698782E+03  0.00000000000E+00 0.  1.
<mgrwt>
<rscale>  0 0.16274103E+04</rscale>
<asrwt>0</asrwt>
<pdfrwt beam="1">  1        2 0.22238066E+00 0.16274103E+04</pdfrwt>
<pdfrwt beam="2">  1       -2 0.70471000E-01 0.16274103E+04</pdfrwt>
<totfact> 0.23892544E+01</totfact>
</mgrwt>
</event>
<event>
12    1  0.2083715E-007  0.1782549E+04  0.7818608E-02  0.8715635E-01
          1   -1    0    0  501    0  0.00000000000E+00  0.00000000000E+00  0.39011687259E+04  0.39011687259E+04  0.00000000000E+00 0. -1.
         -1   -1    0    0    0  501 -0.00000000000E+00 -0.00000000000E+00 -0.20362355724E+03  0.20362355724E+03  0.00000000000E+00 0.  1.
         23    2    1    2    0    0  0.52717624466E+03 -0.37069443561E+02  0.47344488210E+03  0.71602009721E+03  0.96155013591E+02 0.  0.
        254    2    1    2    0    0 -0.52717624466E+03  0.37069443561E+02  0.32241002866E+04  0.33887721860E+04  0.89981405511E+03 0.  0.
        -24    2    4    4    0    0  0.10672979748E+03  0.80626728409E+02  0.20110042157E+04  0.20170220785E+04  0.79675532167E+02 0.  0.
         24    2    4    4    0    0 -0.63390604215E+03 -0.43557284848E+02  0.12130960709E+04  0.13717501075E+04  0.79763230136E+02 0.  0.
         13    1    3    3    0    0  0.34375914277E+03 -0.83338289871E+01  0.36294865475E+03  0.49997152611E+03  0.00000000000E+00 0. -1.
        -13    1    3    3    0    0  0.18341710190E+03 -0.28735614574E+02  0.11049622735E+03  0.21604857109E+03  0.00000000000E+00 0.  1.
          4    1    6    6  502    0 -0.43061648097E+03 -0.33300640518E+02  0.74175087101E+03  0.85833201092E+03  0.00000000000E+00 0. -1.
          1    1    5    5  503    0  0.64955947436E+02  0.79558846822E+02  0.17162485747E+04  0.17193190673E+04  0.00000000000E+00 0. -1.
         -2    1    5    5    0  503  0.41773850048E+02  0.10678815866E+01  0.29475564104E+03  0.29770301114E+03  0.00000000000E+00 0.  1.
         -3    1    6    6    0  502 -0.20328956118E+03 -0.10256644330E+02  0.47134519987E+03  0.51341809656E+03  0.00000000000E+00 0.  1.
<mgrwt>
<rscale>  0 0.17825486E+04</rscale>
<asrwt>0</asrwt>
<pdfrwt beam="1">  1        1 0.60017975E+00 0.17825486E+04</pdfrwt>
<pdfrwt beam="2">  1       -1 0.31326704E-01 0.17825486E+04</pdfrwt>
<totfact> 0.10562854E+00</totfact>
</mgrwt>
</event>
<event>
12    1  0.2083715E-007  0.2239597E+04  0.7818608E-02  0.8502126E-01
          2   -1    0    0  501    0  0.00000000000E+00  0.00000000000E+00  0.23152937409E+04  0.23152937409E+04  0.00000000000E+00 0. -1.
         -2   -1    0    0    0  501 -0.00000000000E+00 -0.00000000000E+00 -0.54159364025E+03  0.54159364025E+03  0.00000000000E+00 0.  1.
         23    2    1    2    0    0  0.79745250278E+02  0.78620872688E+03  0.10968875061E+03  0.80309787976E+03  0.91929947807E+02 0.  0.
        254    2    1    2    0    0 -0.79745250278E+02 -0.78620872688E+03  0.16640113501E+04  0.20537895014E+04  0.90809364925E+03 0.  0.
        -24    2    4    4    0    0 -0.13911464121E+03 -0.12482327951E+03 -0.54259139731E+02  0.20994677814E+03  0.78739195463E+02 0.  0.
         24    2    4    4    0    0  0.59369390928E+02 -0.66138544737E+03  0.17182704898E+04  0.18438427233E+04  0.79668547680E+02 0.  0.
         11    1    3    3    0    0  0.18171490056E+02  0.22370115764E+02 -0.94791216823E+00  0.28836152095E+02  0.00000000000E+00 0.  1.
        -11    1    3    3    0    0  0.61573760222E+02  0.76383861112E+03  0.11063666278E+03  0.77426172767E+03  0.00000000000E+00 0. -1.
          2    1    6    6  502    0  0.28787696855E+00 -0.95878074288E+02  0.33005290532E+03  0.34369697163E+03  0.00000000000E+00 0. -1.
          3    1    5    5  503    0 -0.19826202843E+02 -0.58537755085E+02 -0.37906029188E+02  0.72502511256E+02  0.00000000000E+00 0. -1.
         -4    1    5    5    0  503 -0.11928843836E+03 -0.66285524426E+02 -0.16353110543E+02  0.13744426689E+03  0.00000000000E+00 0.  1.
         -1    1    6    6    0  502  0.59081513959E+02 -0.56550737308E+03  0.13882175845E+04  0.15001457516E+04  0.00000000000E+00 0.  1.
<mgrwt>
<rscale>  0 0.22395967E+04</rscale>
<asrwt>0</asrwt>
<pdfrwt beam="1">  1        2 0.35619903E+00 0.22395967E+04</pdfrwt>
<pdfrwt beam="2">  1       -2 0.83322100E-01 0.22395967E+04</pdfrwt>
<totfact> 0.51040853E+00</totfact>
</mgrwt>
</event>
<event>
12    1  0.2083715E-007  0.2998457E+04  0.7818608E-02  0.8244172E-01
         -2   -1    0    0    0  501 -0.00000000000E+00  0.00000000000E+00  0.77689694381E+03  0.77689694381E+03  0.00000000000E+00 0.  1.
          2   -1    0    0  501    0  0.00000000000E+00 -0.00000000000E+00 -0.28931581386E+04  0.28931581386E+04  0.00000000000E+00 0. -1.
         23    2    1    2    0    0  0.24655896979E+03 -0.12348647165E+04 -0.32712885854E+03  0.13042298604E+04  0.91214280218E+02 0.  0.
        254    2    1    2    0    0 -0.24655896979E+03  0.12348647165E+04 -0.17891323362E+04  0.23658252220E+04  0.90025122660E+03 0.  0.
        -24    2    4    4    0    0 -0.13786620588E+03  0.13268512042E+04 -0.17462701646E+04  0.21989557653E+04  0.80036000021E+02 0.  0.
         24    2    4    4    0    0 -0.10869276391E+03 -0.91986487684E+02 -0.42862171642E+02  0.16686945672E+03  0.75714060677E+02 0.  0.
         13    1    3    3    0    0  0.12327535106E+02 -0.17270392728E+03 -0.68661350220E+02  0.18626055845E+03  0.00000000000E+00 0. -1.
        -13    1    3    3    0    0  0.23423143468E+03 -0.10621607892E+04 -0.25846750832E+03  0.11179693019E+04  0.00000000000E+00 0.  1.
          4    1    6    6  502    0 -0.11878887084E+03 -0.76514599478E+02 -0.30249953539E+02  0.14450030954E+03  0.00000000000E+00 0. -1.
          3    1    5    5  503    0 -0.14041948628E+03  0.13247054186E+04 -0.17363280383E+04  0.21884691304E+04  0.00000000000E+00 0. -1.
         -4    1    5    5    0  503  0.25532803964E+01  0.21457855960E+01 -0.99421262476E+01  0.10486634872E+02  0.00000000000E+00 0.  1.
         -3    1    6    6    0  502  0.10096106931E+02 -0.15471888206E+02 -0.12612218103E+02  0.22369147174E+02  0.00000000000E+00 0.  1.
<mgrwt>
<rscale>  0 0.29984567E+04</rscale>
<asrwt>0</asrwt>
<pdfrwt beam="1">  1        2 0.44510125E+00 0.29984567E+04</pdfrwt>
<pdfrwt beam="2">  1       -2 0.11952261E+00 0.29984567E+04</pdfrwt>
<totfact> 0.93093735E-01</totfact>
</mgrwt>
</event>
<event>
12    1  0.2083715E-007  0.1810976E+04  0.7818608E-02  0.8700484E-01
         -2   -1    0    0    0  501 -0.00000000000E+00  0.00000000000E+00  0.52184510033E+03  0.52184510033E+03  0.00000000000E+00 0.  1.
          2   -1    0    0  501    0  0.00000000000E+00 -0.00000000000E+00 -0.15711718222E+04  0.15711718222E+04  0.00000000000E+00 0. -1.
         23    2    1    2    0    0 -0.26652337396E+03 -0.48340454134E+03  0.51677669568E+02  0.56302457572E+03  0.98037910426E+02 0.  0.
        254    2    1    2    0    0  0.26652337396E+03  0.48340454134E+03 -0.11010043914E+04  0.15299923468E+04  0.90771760578E+03 0.  0.
        -24    2    4    4    0    0 -0.18214472896E+03  0.56529689369E+03 -0.61953942585E+03  0.86201707370E+03  0.80666318007E+02 0.  0.
         24    2    4    4    0    0  0.44866810292E+03 -0.81892352353E+02 -0.48146496558E+03  0.66797527309E+03  0.79831249742E+02 0.  0.
         11    1    3    3    0    0 -0.13431715221E+03 -0.27346623751E+03  0.75196897689E+02  0.31381436210E+03  0.00000000000E+00 0.  1.
        -11    1    3    3    0    0 -0.13220622175E+03 -0.20993830383E+03 -0.23519228121E+02  0.24921021362E+03  0.00000000000E+00 0. -1.
          4    1    6    6  502    0  0.37626045341E+03 -0.92160693745E+02 -0.37778484651E+03  0.54109787703E+03  0.00000000000E+00 0. -1.
          1    1    5    5  503    0 -0.81068721418E+02  0.37382169041E+03 -0.38150357606E+03  0.54024047642E+03  0.00000000000E+00 0. -1.
         -2    1    5    5    0  503 -0.10107600754E+03  0.19147520328E+03 -0.23803584979E+03  0.32177659728E+03  0.00000000000E+00 0.  1.
         -3    1    6    6    0  502  0.72407649506E+02  0.10268341392E+02 -0.10368011907E+03  0.12687739607E+03  0.00000000000E+00 0.  1.
<mgrwt>
<rscale>  0 0.18109758E+04</rscale>
<asrwt>0</asrwt>
<pdfrwt beam="1">  1        2 0.24171874E+00 0.18109758E+04</pdfrwt>
<pdfrwt beam="2">  1       -2 0.80283862E-01 0.18109758E+04</pdfrwt>
<totfact> 0.14971202E+01</totfact>
</mgrwt>
</event>
<event>
12    1  0.2083715E-007  0.1620271E+04  0.7818608E-02  0.8808191E-01
          2   -1    0    0  501    0  0.00000000000E+00  0.00000000000E+00  0.72291174263E+03  0.72291174263E+03  0.00000000000E+00 0. -1.
         -2   -1    0    0    0  501 -0.00000000000E+00 -0.00000000000E+00 -0.90788351563E+03  0.90788351563E+03  0.00000000000E+00 0.  1.
         23    2    1    2    0    0 -0.33313616270E+03 -0.30682078629E+03  0.26160527604E+03  0.53094687682E+03  0.91370497188E+02 0.  0.
        254    2    1    2    0    0  0.33313616270E+03  0.30682078629E+03 -0.44657704904E+03  0.10998483814E+04  0.89728295628E+03 0.  0.
        -24    2    4    4    0    0 -0.21719473764E+03 -0.81826992166E+02 -0.32875645771E+03  0.41127345440E+03  0.84828268330E+02 0.  0.
         24    2    4    4    0    0  0.55033090033E+03  0.38864777846E+03 -0.11782059133E+03  0.68857492704E+03  0.79640083180E+02 0.  0.
         13    1    3    3    0    0 -0.20851959516E+03 -0.18055302538E+03  0.20850045971E+03  0.34576329799E+03  0.00000000000E+00 0. -1.
        -13    1    3    3    0    0 -0.12461656754E+03 -0.12626776092E+03  0.53104816337E+02  0.18518357883E+03  0.00000000000E+00 0.  1.
          2    1    6    6  502    0  0.18438780886E+03  0.87106295262E+02 -0.45122347503E+02  0.20885975432E+03  0.00000000000E+00 0. -1.
          1    1    5    5  503    0 -0.66805623765E+02  0.65762972639E+01 -0.55597542469E+02  0.87162639822E+02  0.00000000000E+00 0. -1.
         -2    1    5    5    0  503 -0.15038911387E+03 -0.88403289429E+02 -0.27315891524E+03  0.32411081458E+03  0.00000000000E+00 0.  1.
         -1    1    6    6    0  502  0.36594309147E+03  0.30154148320E+03 -0.72698243829E+02  0.47971517272E+03  0.00000000000E+00 0.  1.
<mgrwt>
<rscale>  0 0.16202712E+04</rscale>
<asrwt>0</asrwt>
<pdfrwt beam="1">  1        2 0.11121719E+00 0.16202712E+04</pdfrwt>
<pdfrwt beam="2">  1       -2 0.13967439E+00 0.16202712E+04</pdfrwt>
<totfact> 0.13599156E+01</totfact>
</mgrwt>
</event>
<event>
12    1  0.2083715E-007  0.2058103E+04  0.7818608E-02  0.8579927E-01
         -2   -1    0    0    0  501 -0.00000000000E+00  0.00000000000E+00  0.49598119864E+03  0.49598119864E+03  0.00000000000E+00 0.  1.
          2   -1    0    0  501    0  0.00000000000E+00 -0.00000000000E+00 -0.21350544525E+04  0.21350544525E+04  0.00000000000E+00 0. -1.
         23    2    1    2    0    0  0.40870151366E+03  0.52480043012E+03 -0.12963630857E+04  0.14599146225E+04  0.91329274082E+02 0.  0.
        254    2    1    2    0    0 -0.40870151366E+03 -0.52480043012E+03 -0.34271016814E+03  0.11711210286E+04  0.90090054146E+03 0.  0.
        -24    2    4    4    0    0  0.23418178805E+03 -0.23123087615E+03  0.74127261406E+02  0.34737126979E+03  0.82843951249E+02 0.  0.
         24    2    4    4    0    0 -0.64288330171E+03 -0.29356955398E+03 -0.41683742955E+03  0.82374975883E+03  0.72994519383E+02 0.  0.
         13    1    3    3    0    0  0.14819716354E+03  0.21622977347E+03 -0.42184784475E+03  0.49666217728E+03  0.00000000000E+00 0.  1.
        -13    1    3    3    0    0  0.26050435012E+03  0.30857065665E+03 -0.87451524098E+03  0.96325244526E+03  0.00000000000E+00 0. -1.
          2    1    6    6  502    0 -0.15403098448E+03 -0.70317358124E+02 -0.64819419131E+02  0.18130535604E+03  0.00000000000E+00 0. -1.
          3    1    5    5  503    0  0.18751804296E+03 -0.18362044174E+03  0.23186563713E+02  0.26347125042E+03  0.00000000000E+00 0. -1.
         -4    1    5    5    0  503  0.46663745090E+02 -0.47610434409E+02  0.50940697693E+02  0.83900019380E+02  0.00000000000E+00 0.  1.
         -1    1    6    6    0  502 -0.48885231723E+03 -0.22325219585E+03 -0.35201801042E+03  0.64244440279E+03  0.00000000000E+00 0.  1.
<mgrwt>
<rscale>  0 0.20581029E+04</rscale>
<asrwt>0</asrwt>
<pdfrwt beam="1">  1        2 0.32846992E+00 0.20581029E+04</pdfrwt>
<pdfrwt beam="2">  1       -2 0.76304800E-01 0.20581029E+04</pdfrwt>
<totfact> 0.79802482E+00</totfact>
</mgrwt>
</event>
<event>
12    1  0.2083715E-007  0.2648677E+04  0.7818608E-02  0.8351852E-01
         -1   -1    0    0    0  501 -0.00000000000E+00  0.00000000000E+00  0.32490567307E+03  0.32490567307E+03  0.00000000000E+00 0.  1.
          1   -1    0    0  501    0  0.00000000000E+00 -0.00000000000E+00 -0.53980963565E+04  0.53980963565E+04  0.00000000000E+00 0. -1.
         23    2    1    2    0    0  0.11254437561E+04  0.22050200790E+03 -0.27532369113E+04  0.29839021736E+04  0.90077234199E+02 0.  0.
        254    2    1    2    0    0 -0.11254437561E+04 -0.22050200790E+03 -0.23199537721E+04  0.27390998560E+04  0.89735039578E+03 0.  0.
        -24    2    4    4    0    0 -0.31091505783E+03  0.32763033647E+03 -0.90872818994E+03  0.10176555959E+04  0.76329405220E+02 0.  0.
         24    2    4    4    0    0 -0.81452869823E+03 -0.54813234436E+03 -0.14112255822E+04  0.17214442601E+04  0.88919231130E+02 0.  0.
         13    1    3    3    0    0  0.43921278820E+03  0.42694305191E+02 -0.10833421865E+04  0.11697696226E+04  0.00000000000E+00 0. -1.
        -13    1    3    3    0    0  0.68623096787E+03  0.17780770270E+03 -0.16698947249E+04  0.18141325510E+04  0.00000000000E+00 0.  1.
          2    1    6    6  502    0 -0.64179224277E+03 -0.47355565341E+03 -0.11339569685E+04  0.13863659856E+04  0.00000000000E+00 0. -1.
          1    1    5    5  503    0 -0.22310245627E+03  0.25661273267E+03 -0.61131714989E+03  0.69952373677E+03  0.00000000000E+00 0. -1.
         -2    1    5    5    0  503 -0.87812601561E+02  0.71017603796E+02 -0.29741104006E+03  0.31813185912E+03  0.00000000000E+00 0.  1.
         -1    1    6    6    0  502 -0.17273645546E+03 -0.74576690950E+02 -0.27726861369E+03  0.33507827446E+03  0.00000000000E+00 0.  1.
<mgrwt>
<rscale>  0 0.26486767E+04</rscale>
<asrwt>0</asrwt>
<pdfrwt beam="1">  1        1 0.83047630E+00 0.26486767E+04</pdfrwt>
<pdfrwt beam="2">  1       -1 0.49985492E-01 0.26486767E+04</pdfrwt>
<totfact> 0.80976153E-03</totfact>
</mgrwt>
</event>
<event>
12    1  0.2588348E-007  0.2670643E+04  0.7818608E-02  0.8344594E-01
          2   -1    0    0  501    0  0.00000000000E+00  0.00000000000E+00  0.14748620253E+04  0.14748620253E+04  0.00000000000E+00 0. -1.
         -2   -1    0    0    0  501 -0.00000000000E+00 -0.00000000000E+00 -0.12089830604E+04  0.12089830604E+04  0.00000000000E+00 0.  1.
         23    2    1    2    0    0  0.88441050489E+03  0.66110240687E+03  0.54129089363E+03  0.12330821831E+04  0.90870815752E+02 0.  0.
        254    2    1    2    0    0 -0.88441050489E+03 -0.66110240687E+03 -0.27541192876E+03  0.14507629026E+04  0.89979049539E+03 0.  0.
        -24    2    4    4    0    0 -0.45518159301E+03 -0.80949966728E+03 -0.32514866339E+03  0.98702778489E+03  0.77602840761E+02 0.  0.
         24    2    4    4    0    0 -0.42922891188E+03  0.14839726041E+03  0.49736734637E+02  0.46373511773E+03  0.79481513286E+02 0.  0.
         13    1    3    3    0    0  0.44890861410E+03  0.29518416346E+03  0.29843806909E+03  0.61458759771E+03  0.00000000000E+00 0. -1.
        -13    1    3    3    0    0  0.43550189079E+03  0.36591824341E+03  0.24285282454E+03  0.61849458537E+03  0.00000000000E+00 0.  1.
          2    1    6    6  502    0 -0.10824642360E+03  0.24680043396E+02 -0.19804638423E+02  0.11277684367E+03  0.00000000000E+00 0. -1.
          3    1    5    5  503    0 -0.12007019518E+03 -0.27667521483E+03 -0.85326671580E+02  0.31344324392E+03  0.00000000000E+00 0. -1.
         -4    1    5    5    0  503 -0.33511139782E+03 -0.53282445245E+03 -0.23982199181E+03  0.67358454097E+03  0.00000000000E+00 0.  1.
         -1    1    6    6    0  502 -0.32098248828E+03  0.12371721701E+03  0.69541373060E+02  0.35095827407E+03  0.00000000000E+00 0.  1.
<mgrwt>
<rscale>  0 0.26706428E+04</rscale>
<asrwt>0</asrwt>
<pdfrwt beam="1">  1        2 0.22690185E+00 0.26706428E+04</pdfrwt>
<pdfrwt beam="2">  1       -2 0.18599739E+00 0.26706428E+04</pdfrwt>
<totfact> 0.19029969E+00</totfact>
</mgrwt>
</event>
<event>
12    1  0.2083715E-007  0.1512484E+04  0.7818608E-02  0.8876193E-01
         -1   -1    0    0    0  501 -0.00000000000E+00  0.00000000000E+00  0.12250460557E+04  0.12250460557E+04  0.00000000000E+00 0.  1.
          1   -1    0    0  501    0  0.00000000000E+00 -0.00000000000E+00 -0.46684122141E+03  0.46684122141E+03  0.00000000000E+00 0. -1.
         23    2    1    2    0    0  0.83590379017E+02  0.25502239224E+03 -0.20305367295E+03  0.34842895948E+03  0.90267234911E+02 0.  0.
        254    2    1    2    0    0 -0.83590379017E+02 -0.25502239224E+03  0.96125850727E+03  0.13434583177E+04  0.89935452492E+03 0.  0.
        -24    2    4    4    0    0 -0.30544072698E+03  0.19644886139E+03  0.18684593779E+03  0.41648468163E+03  0.81620418522E+02 0.  0.
         24    2    4    4    0    0  0.22185034796E+03 -0.45147125363E+03  0.77441256947E+03  0.92697363604E+03  0.80755336725E+02 0.  0.
         11    1    3    3    0    0  0.69243129195E+02  0.20296953636E+03 -0.20172023889E+03  0.29441857688E+03  0.00000000000E+00 0. -1.
        -11    1    3    3    0    0  0.14347249823E+02  0.52052855871E+02 -0.13334340533E+01  0.54010382596E+02  0.00000000000E+00 0.  1.
          4    1    6    6  502    0  0.21540046579E+03 -0.45133028128E+03  0.74795278842E+03  0.89973871606E+03  0.00000000000E+00 0. -1.
          3    1    5    5  503    0 -0.30130603583E+03  0.17148089414E+03  0.17770208207E+03  0.38957547954E+03  0.00000000000E+00 0. -1.
         -4    1    5    5    0  503 -0.41346911474E+01  0.24967967254E+02  0.91438557239E+01  0.26909202091E+02  0.00000000000E+00 0.  1.
         -3    1    6    6    0  502  0.64498821688E+01 -0.14097235041E+00  0.26459781050E+02  0.27234919982E+02  0.00000000000E+00 0.  1.
<mgrwt>
<rscale>  0 0.15124840E+04</rscale>
<asrwt>0</asrwt>
<pdfrwt beam="1">  1        1 0.71821727E-01 0.15124840E+04</pdfrwt>
<pdfrwt beam="2">  1       -1 0.18846862E+00 0.15124840E+04</pdfrwt>
<totfact> 0.85243989E+00</totfact>
</mgrwt>
</event>
<event>
12    1  0.2083715E-007  0.1808032E+04  0.7818608E-02  0.8702040E-01
          1   -1    0    0  501    0  0.00000000000E+00  0.00000000000E+00  0.10833313252E+04  0.10833313252E+04  0.00000000000E+00 0. -1.
         -1   -1    0    0    0  501 -0.00000000000E+00 -0.00000000000E+00 -0.75438122486E+03  0.75438122486E+03  0.00000000000E+00 0.  1.
         23    2    1    2    0    0  0.67872933093E+02 -0.65335411062E+03  0.28974350635E+03  0.72365165044E+03  0.90785917450E+02 0.  0.
        254    2    1    2    0    0 -0.67872933093E+02  0.65335411062E+03  0.39206593975E+02  0.11140608996E+04  0.89895283642E+03 0.  0.
        -24    2    4    4    0    0 -0.37246060602E+03  0.65442061299E+03 -0.11086945580E+03  0.76534214702E+03  0.80394801034E+02 0.  0.
         24    2    4    4    0    0  0.30458767293E+03 -0.10665023694E+01  0.15007604978E+03  0.34871875259E+03  0.79417628781E+02 0.  0.
         11    1    3    3    0    0  0.42239653117E+02 -0.30012023881E+03  0.85902228096E+02  0.31501672785E+03  0.00000000000E+00 0.  1.
        -11    1    3    3    0    0  0.25633279976E+02 -0.35323387181E+03  0.20384127825E+03  0.40863492259E+03  0.00000000000E+00 0. -1.
          4    1    6    6  502    0  0.13710080801E+03  0.15584352168E+02  0.10800679477E+03  0.17522834048E+03  0.00000000000E+00 0. -1.
          1    1    5    5  503    0 -0.19313177828E+03  0.37962177222E+03 -0.97452378726E+02  0.43693196249E+03  0.00000000000E+00 0. -1.
         -2    1    5    5    0  503 -0.17932882774E+03  0.27479884077E+03 -0.13417077078E+02  0.32841018453E+03  0.00000000000E+00 0.  1.
         -3    1    6    6    0  502  0.16748686492E+03 -0.16650854538E+02  0.42069255007E+02  0.17349041211E+03  0.00000000000E+00 0.  1.
<mgrwt>
<rscale>  0 0.18080319E+04</rscale>
<asrwt>0</asrwt>
<pdfrwt beam="1">  1        1 0.16666636E+00 0.18080319E+04</pdfrwt>
<pdfrwt beam="2">  1       -1 0.11605865E+00 0.18080319E+04</pdfrwt>
<totfact> 0.82650389E+00</totfact>
</mgrwt>
</event>
<event>
12    1  0.2083715E-007  0.1275444E+04  0.7818608E-02  0.9049268E-01
          1   -1    0    0  501    0  0.00000000000E+00  0.00000000000E+00  0.27496149233E+03  0.27496149233E+03  0.00000000000E+00 0. -1.
         -1   -1    0    0    0  501 -0.00000000000E+00 -0.00000000000E+00 -0.14790783678E+04  0.14790783678E+04  0.00000000000E+00 0.  1.
         23    2    1    2    0    0 -0.11295164971E+03 -0.27504598361E+03 -0.42665419773E+03  0.52799139132E+03  0.91283824373E+02 0.  0.
        254    2    1    2    0    0  0.11295164971E+03  0.27504598361E+03 -0.77746267772E+03  0.12260484688E+04  0.90018790500E+03 0.  0.
        -24    2    4    4    0    0 -0.14848224828E+03  0.24684047199E+03  0.92561641820E+02  0.31342460366E+03  0.81793202526E+02 0.  0.
         24    2    4    4    0    0  0.26143389799E+03  0.28205511617E+02 -0.87002431954E+03  0.91262386513E+03  0.82442517575E+02 0.  0.
         13    1    3    3    0    0 -0.98304395255E+02 -0.27740562686E+03 -0.39109955947E+03  0.48946552622E+03  0.00000000000E+00 0. -1.
        -13    1    3    3    0    0 -0.14647254457E+02  0.23596432568E+01 -0.35554638263E+02  0.38525865097E+02  0.00000000000E+00 0.  1.
          4    1    6    6  502    0  0.17073966961E+03  0.20188589966E+02 -0.68722468625E+03  0.70840481600E+03  0.00000000000E+00 0. -1.
          3    1    5    5  503    0 -0.68020518829E+01  0.64895968897E+02  0.41207907885E+02  0.77174130129E+02  0.00000000000E+00 0. -1.
         -4    1    5    5    0  503 -0.14168019640E+03  0.18194450309E+03  0.51353733936E+02  0.23625047353E+03  0.00000000000E+00 0.  1.
         -3    1    6    6    0  502  0.90694228385E+02  0.80169216507E+01 -0.18279963329E+03  0.20421904913E+03  0.00000000000E+00 0.  1.
<mgrwt>
<rscale>  0 0.12754444E+04</rscale>
<asrwt>0</asrwt>
<pdfrwt beam="1">  1        1 0.42301768E-01 0.12754444E+04</pdfrwt>
<pdfrwt beam="2">  1       -1 0.22755052E+00 0.12754444E+04</pdfrwt>
<totfact> 0.94832161E+00</totfact>
</mgrwt>
</event>
<event>
12    1  0.2083715E-007  0.1265973E+04  0.7818608E-02  0.9056993E-01
          2   -1    0    0  501    0  0.00000000000E+00  0.00000000000E+00  0.29949235340E+03  0.29949235340E+03  0.00000000000E+00 0. -1.
         -2   -1    0    0    0  501 -0.00000000000E+00 -0.00000000000E+00 -0.13378359517E+04  0.13378359517E+04  0.00000000000E+00 0.  1.
         23    2    1    2    0    0  0.15485801754E+03 -0.25012929084E+03 -0.34882522226E+03  0.46472989436E+03  0.88029377476E+02 0.  0.
        254    2    1    2    0    0 -0.15485801754E+03  0.25012929084E+03 -0.68951837608E+03  0.11725984108E+04  0.90166832831E+03 0.  0.
        -24    2    4    4    0    0 -0.55530737896E+02 -0.31923068834E+03 -0.40162016321E+03  0.52221052270E+03  0.80082328254E+02 0.  0.
         24    2    4    4    0    0 -0.99327279640E+02  0.56935997917E+03 -0.28789821287E+03  0.65038788807E+03  0.77989291645E+02 0.  0.
         13    1    3    3    0    0  0.98899402888E+02 -0.12979556262E+03 -0.12925319078E+03  0.20816908342E+03  0.00000000000E+00 0. -1.
        -13    1    3    3    0    0  0.55958614648E+02 -0.12033372822E+03 -0.21957203148E+03  0.25656081094E+03  0.00000000000E+00 0.  1.
          4    1    6    6  502    0 -0.45078163388E+02  0.17299814772E+03 -0.12648409764E+03  0.21899458186E+03  0.00000000000E+00 0. -1.
          3    1    5    5  503    0 -0.22935440898E+02 -0.14431765349E+02 -0.28639676442E+02  0.39427672604E+02  0.00000000000E+00 0. -1.
         -4    1    5    5    0  503 -0.32595296999E+02 -0.30479892299E+03 -0.37298048677E+03  0.48278285010E+03  0.00000000000E+00 0.  1.
         -3    1    6    6    0  502 -0.54249116252E+02  0.39636183145E+03 -0.16141411523E+03  0.43139330621E+03  0.00000000000E+00 0.  1.
<mgrwt>
<rscale>  0 0.12659726E+04</rscale>
<asrwt>0</asrwt>
<pdfrwt beam="1">  1        2 0.46075745E-01 0.12659726E+04</pdfrwt>
<pdfrwt beam="2">  1       -2 0.20582092E+00 0.12659726E+04</pdfrwt>
<totfact> 0.13161086E+01</totfact>
</mgrwt>
</event>
<event>
12    1  0.2083715E-007  0.4321614E+04  0.7818608E-02  0.7942634E-01
          2   -1    0    0  501    0  0.00000000000E+00  0.00000000000E+00  0.27866464748E+04  0.27866464748E+04  0.00000000000E+00 0. -1.
         -2   -1    0    0    0  501 -0.00000000000E+00 -0.00000000000E+00 -0.16755218687E+04  0.16755218687E+04  0.00000000000E+00 0.  1.
         23    2    1    2    0    0 -0.19799084144E+04  0.17546087585E+03 -0.48953573098E+02  0.19903289349E+04  0.90492918411E+02 0.  0.
        254    2    1    2    0    0  0.19799084144E+04 -0.17546087585E+03  0.11600781792E+04  0.24718394086E+04  0.90187850172E+03 0.  0.
        -24    2    4    4    0    0  0.34482382057E+01 -0.74923287637E+02  0.28673733866E+03  0.30722092905E+03  0.80876501461E+02 0.  0.
         24    2    4    4    0    0  0.19764601762E+04 -0.10053758822E+03  0.87334084052E+03  0.21646184796E+04  0.79663691023E+02 0.  0.
         13    1    3    3    0    0 -0.18256257263E+04  0.15193977725E+03 -0.22747866491E+02  0.18320787248E+04  0.00000000000E+00 0. -1.
        -13    1    3    3    0    0 -0.15428268807E+03  0.23521098605E+02 -0.26205706607E+02  0.15825021004E+03  0.00000000000E+00 0.  1.
          2    1    6    6  502    0  0.10640056496E+04 -0.15117423750E+02  0.47770664137E+03  0.11664219623E+04  0.00000000000E+00 0. -1.
          1    1    5    5  503    0 -0.11685558660E+02 -0.28822047164E+02  0.22053523311E+02  0.38126376360E+02  0.00000000000E+00 0. -1.
         -2    1    5    5    0  503  0.15133796866E+02 -0.46101240473E+02  0.26468381535E+03  0.26909455269E+03  0.00000000000E+00 0.  1.
         -1    1    6    6    0  502  0.91245452657E+03 -0.85420164468E+02  0.39563419915E+03  0.99819651727E+03  0.00000000000E+00 0.  1.
<mgrwt>
<rscale>  0 0.43216141E+04</rscale>
<asrwt>0</asrwt>
<pdfrwt beam="1">  1        2 0.42871484E+00 0.43216141E+04</pdfrwt>
<pdfrwt beam="2">  1       -2 0.25777260E+00 0.43216141E+04</pdfrwt>
<totfact> 0.10423641E-01</totfact>
</mgrwt>
</event>
<event>
12    1  0.2083715E-007  0.2085934E+04  0.7818608E-02  0.8567465E-01
         -1   -1    0    0    0  501 -0.00000000000E+00  0.00000000000E+00  0.19242156750E+04  0.19242156750E+04  0.00000000000E+00 0.  1.
          1   -1    0    0  501    0  0.00000000000E+00 -0.00000000000E+00 -0.56531081507E+03  0.56531081507E+03  0.00000000000E+00 0. -1.
         23    2    1    2    0    0  0.67906225970E+02  0.69320004728E+03 -0.16274056208E+02  0.70253163271E+03  0.90267873495E+02 0.  0.
        254    2    1    2    0    0 -0.67906225970E+02 -0.69320004728E+03  0.13751789161E+04  0.17869948573E+04  0.90393363016E+03 0.  0.
        -24    2    4    4    0    0  0.15877861981E+03 -0.81120816940E+03  0.80286745779E+03  0.11551565325E+04  0.80753424120E+02 0.  0.
         24    2    4    4    0    0 -0.22668484578E+03  0.11800812212E+03  0.57231145832E+03  0.63183832486E+03  0.79795533990E+02 0.  0.
         11    1    3    3    0    0  0.38788711712E+02  0.57228042460E+03 -0.43396451483E+02  0.57523273598E+03  0.00000000000E+00 0. -1.
        -11    1    3    3    0    0  0.29117514258E+02  0.12091962268E+03  0.27122395275E+02  0.12729889674E+03  0.00000000000E+00 0.  1.
          4    1    6    6  502    0 -0.18930745855E+03  0.12861638114E+03  0.49121301571E+03  0.54191301347E+03  0.00000000000E+00 0. -1.
          3    1    5    5  503    0  0.14826464901E+03 -0.78007348917E+03  0.78932953105E+03  0.11196151853E+04  0.00000000000E+00 0. -1.
         -4    1    5    5    0  503  0.10513970802E+02 -0.31134680238E+02  0.13537926739E+02  0.35541347132E+02  0.00000000000E+00 0.  1.
         -3    1    6    6    0  502 -0.37377387234E+02 -0.10608259019E+02  0.81098442604E+02  0.89925311390E+02  0.00000000000E+00 0.  1.
<mgrwt>
<rscale>  0 0.20859338E+04</rscale>
<asrwt>0</asrwt>
<pdfrwt beam="1">  1        1 0.86970896E-01 0.20859338E+04</pdfrwt>
<pdfrwt beam="2">  1       -1 0.29603318E+00 0.20859338E+04</pdfrwt>
<totfact> 0.12042845E+00</totfact>
</mgrwt>
</event>
<event>
12    1  0.2083715E-007  0.1700310E+04  0.7818608E-02  0.8761188E-01
          1   -1    0    0  501    0  0.00000000000E+00  0.00000000000E+00  0.93285479242E+03  0.93285479242E+03  0.00000000000E+00 0. -1.
         -1   -1    0    0    0  501 -0.00000000000E+00 -0.00000000000E+00 -0.77478661522E+03  0.77478661522E+03  0.00000000000E+00 0.  1.
         23    2    1    2    0    0  0.41499034262E+03 -0.32028249366E+03 -0.24854162470E+03  0.58563449885E+03  0.79981040359E+02 0.  0.
        254    2    1    2    0    0 -0.41499034262E+03  0.32028249366E+03  0.40660980190E+03  0.11220069088E+04  0.90485916702E+03 0.  0.
        -24    2    4    4    0    0  0.18539659130E+02  0.45259103218E+03 -0.62918214816E+02  0.46448874186E+03  0.81294084560E+02 0.  0.
         24    2    4    4    0    0 -0.43353000175E+03 -0.13230853852E+03  0.46952801672E+03  0.65751816693E+03  0.80123464581E+02 0.  0.
         11    1    3    3    0    0  0.27379859328E+03 -0.24337071653E+03 -0.20162617785E+03  0.41814840780E+03  0.00000000000E+00 0. -1.
        -11    1    3    3    0    0  0.14119174934E+03 -0.76911777136E+02 -0.46915446848E+02  0.16748609105E+03  0.00000000000E+00 0.  1.
          4    1    6    6  502    0 -0.79057819606E+02  0.71241302114E+01  0.82589286826E+02  0.11455078512E+03  0.00000000000E+00 0. -1.
          3    1    5    5  503    0 -0.11422924985E+02  0.75436897369E+01 -0.55036895948E+01  0.14754018748E+02  0.00000000000E+00 0. -1.
         -4    1    5    5    0  503  0.29962584115E+02  0.44504734245E+03 -0.57414525221E+02  0.44973472311E+03  0.00000000000E+00 0.  1.
         -3    1    6    6    0  502 -0.35447218214E+03 -0.13943266873E+03  0.38693872989E+03  0.54296738181E+03  0.00000000000E+00 0.  1.
<mgrwt>
<rscale>  0 0.17003099E+04</rscale>
<asrwt>0</asrwt>
<pdfrwt beam="1">  1        1 0.14351612E+00 0.17003099E+04</pdfrwt>
<pdfrwt beam="2">  1       -1 0.11919794E+00 0.17003099E+04</pdfrwt>
<totfact> 0.10248523E+01</totfact>
</mgrwt>
</event>
<event>
12    1  0.2083715E-007  0.2620766E+04  0.7818608E-02  0.8361181E-01
          1   -1    0    0  501    0  0.00000000000E+00  0.00000000000E+00  0.30074737569E+04  0.30074737569E+04  0.00000000000E+00 0. -1.
         -1   -1    0    0    0  501 -0.00000000000E+00 -0.00000000000E+00 -0.57094565116E+03  0.57094565116E+03  0.00000000000E+00 0.  1.
         23    2    1    2    0    0 -0.91654887839E+03 -0.65826962279E+02  0.12331632094E+03  0.93161523267E+03  0.91131724919E+02 0.  0.
        254    2    1    2    0    0  0.91654887839E+03  0.65826962279E+02  0.23132117848E+04  0.26468041754E+04  0.90012696106E+03 0.  0.
        -24    2    4    4    0    0  0.64912781842E+03 -0.18895583891E+03  0.64967924353E+03  0.94086481103E+03  0.77924575368E+02 0.  0.
         24    2    4    4    0    0  0.26742105997E+03  0.25478280119E+03  0.16635325412E+04  0.17059393643E+04  0.80375990775E+02 0.  0.
         13    1    3    3    0    0 -0.49679240078E+03 -0.31738342246E+01  0.98578176990E+02  0.50648832136E+03  0.00000000000E+00 0. -1.
        -13    1    3    3    0    0 -0.41975647761E+03 -0.62653128055E+02  0.24738143948E+02  0.42512691131E+03  0.00000000000E+00 0.  1.
          4    1    6    6  502    0  0.29933598368E+02  0.56913166627E+02  0.19869650555E+03  0.20884307545E+03  0.00000000000E+00 0. -1.
          3    1    5    5  503    0  0.26943618024E+03 -0.96728459360E+02  0.32259919464E+03  0.43130324652E+03  0.00000000000E+00 0. -1.
         -4    1    5    5    0  503  0.37969163819E+03 -0.92227379548E+02  0.32708004888E+03  0.50956156451E+03  0.00000000000E+00 0.  1.
         -3    1    6    6    0  502  0.23748746160E+03  0.19786963456E+03  0.14648360357E+04  0.14970962889E+04  0.00000000000E+00 0.  1.
<mgrwt>
<rscale>  0 0.26207663E+04</rscale>
<asrwt>0</asrwt>
<pdfrwt beam="1">  1        1 0.46268826E+00 0.26207663E+04</pdfrwt>
<pdfrwt beam="2">  1       -1 0.87837794E-01 0.26207663E+04</pdfrwt>
<totfact> 0.66113437E-01</totfact>
</mgrwt>
</event>
<event>
12    1  0.2083715E-007  0.1524544E+04  0.7818608E-02  0.8868293E-01
         -2   -1    0    0    0  501 -0.00000000000E+00  0.00000000000E+00  0.22956165663E+03  0.22956165663E+03  0.00000000000E+00 0.  1.
          2   -1    0    0  501    0  0.00000000000E+00 -0.00000000000E+00 -0.25311665283E+04  0.25311665283E+04  0.00000000000E+00 0. -1.
         23    2    1    2    0    0 -0.75440883249E+02  0.47373698101E+03 -0.56073798944E+03  0.74344810494E+03  0.90387708747E+02 0.  0.
        254    2    1    2    0    0  0.75440883249E+02 -0.47373698101E+03 -0.17408668823E+04  0.20172800800E+04  0.89926823889E+03 0.  0.
        -24    2    4    4    0    0 -0.11256197411E+03 -0.68484718889E+03 -0.99357193382E+03  0.12145808781E+04  0.79596807361E+02 0.  0.
         24    2    4    4    0    0  0.18800285736E+03  0.21111020789E+03 -0.74729494845E+03  0.80269920189E+03  0.77224830715E+02 0.  0.
         11    1    3    3    0    0 -0.43885823375E+02  0.21334292982E+03 -0.18833489118E+03  0.28794305415E+03  0.00000000000E+00 0.  1.
        -11    1    3    3    0    0 -0.31555059874E+02  0.26039405119E+03 -0.37240309826E+03  0.45550505079E+03  0.00000000000E+00 0. -1.
          2    1    6    6  502    0  0.10533288966E+03  0.11683347321E+03 -0.30780190579E+03  0.34566904882E+03  0.00000000000E+00 0. -1.
          1    1    5    5  503    0 -0.81653611056E+02 -0.27613487159E+03 -0.43790428464E+03  0.52409726389E+03  0.00000000000E+00 0. -1.
         -2    1    5    5    0  503 -0.30908363052E+02 -0.40871231730E+03 -0.55566764918E+03  0.69048361426E+03  0.00000000000E+00 0.  1.
         -1    1    6    6    0  502  0.82669967696E+02  0.94276734677E+02 -0.43949304267E+03  0.45703015307E+03  0.00000000000E+00 0.  1.
<mgrwt>
<rscale>  0 0.15245442E+04</rscale>
<asrwt>0</asrwt>
<pdfrwt beam="1">  1        2 0.38941020E+00 0.15245442E+04</pdfrwt>
<pdfrwt beam="2">  1       -2 0.35317182E-01 0.15245442E+04</pdfrwt>
<totfact> 0.24313787E+01</totfact>
</mgrwt>
</event>
<event>
12    1  0.2083715E-007  0.2412472E+04  0.7818608E-02  0.8434849E-01
          2   -1    0    0  501    0  0.00000000000E+00  0.00000000000E+00  0.17169881024E+04  0.17169881024E+04  0.00000000000E+00 0. -1.
         -2   -1    0    0    0  501 -0.00000000000E+00 -0.00000000000E+00 -0.84741704723E+03  0.84741704723E+03  0.00000000000E+00 0.  1.
         23    2    1    2    0    0 -0.10217685324E+04 -0.99577707722E+02  0.45454267968E+03  0.11265778265E+04  0.92961807869E+02 0.  0.
        254    2    1    2    0    0  0.10217685324E+04  0.99577707722E+02  0.41502837545E+03  0.14378273231E+04  0.91715440626E+03 0.  0.
        -24    2    4    4    0    0  0.64405741376E+03  0.49514540371E+03  0.17295713635E+03  0.83438663503E+03  0.79422683635E+02 0.  0.
         24    2    4    4    0    0  0.37771111867E+03 -0.39556769598E+03  0.24207123910E+03  0.60344068808E+03  0.80016797972E+02 0.  0.
         11    1    3    3    0    0 -0.71751834556E+03 -0.75956998353E+02  0.36470847715E+03  0.80846417059E+03  0.00000000000E+00 0. -1.
        -11    1    3    3    0    0 -0.30425018687E+03 -0.23620709369E+02  0.89834202526E+02  0.31811365589E+03  0.00000000000E+00 0.  1.
          2    1    6    6  502    0  0.20231627351E+03 -0.24222908461E+03  0.10236918376E+03  0.33179248596E+03  0.00000000000E+00 0. -1.
          3    1    5    5  503    0  0.52172599658E+02  0.21252853915E+02  0.26035049890E+02  0.62060355923E+02  0.00000000000E+00 0. -1.
         -4    1    5    5    0  503  0.59188481410E+03  0.47389254979E+03  0.14692208646E+03  0.77232627911E+03  0.00000000000E+00 0.  1.
         -1    1    6    6    0  502  0.17539484516E+03 -0.15333861138E+03  0.13970205534E+03  0.27164820212E+03  0.00000000000E+00 0.  1.
<mgrwt>
<rscale>  0 0.24124718E+04</rscale>
<asrwt>0</asrwt>
<pdfrwt beam="1">  1        2 0.26415202E+00 0.24124718E+04</pdfrwt>
<pdfrwt beam="2">  1       -2 0.13037185E+00 0.24124718E+04</pdfrwt>
<totfact> 0.37171352E+00</totfact>
</mgrwt>
</event>
<event>
12    1  0.2083715E-007  0.3042968E+04  0.7818608E-02  0.8231566E-01
         -1   -1    0    0    0  501 -0.00000000000E+00  0.00000000000E+00  0.10035597363E+04  0.10035597363E+04  0.00000000000E+00 0.  1.
          1   -1    0    0  501    0  0.00000000000E+00 -0.00000000000E+00 -0.23067028563E+04  0.23067028563E+04  0.00000000000E+00 0. -1.
         23    2    1    2    0    0  0.19887232561E+03 -0.53811819735E+03 -0.19688407321E+04  0.20527676035E+04  0.91649382642E+02 0.  0.
        254    2    1    2    0    0 -0.19887232561E+03  0.53811819735E+03  0.66569761204E+03  0.12574949891E+04  0.89945480192E+03 0.  0.
        -24    2    4    4    0    0 -0.14109578461E+03  0.78235362963E+03  0.54921771276E+03  0.96956047291E+03  0.80138582380E+02 0.  0.
         24    2    4    4    0    0 -0.57776541001E+02 -0.24423543228E+03  0.11647989927E+03  0.28793451618E+03  0.79684650983E+02 0.  0.
         13    1    3    3    0    0  0.13274956593E+03 -0.23123714177E+03 -0.86597114430E+03  0.90608999870E+03  0.00000000000E+00 0.  1.
        -13    1    3    3    0    0  0.66122759681E+02 -0.30688105558E+03 -0.11028695878E+04  0.11466776047E+04  0.00000000000E+00 0. -1.
          2    1    6    6  502    0  0.18325097625E+01  0.25785741928E+01 -0.54223958276E+01  0.62776996909E+01  0.00000000000E+00 0. -1.
          3    1    5    5  503    0  0.66688476225E+01  0.16671983504E+02  0.21305108067E+02  0.27862810201E+02  0.00000000000E+00 0. -1.
         -4    1    5    5    0  503 -0.14776463223E+03  0.76568164613E+03  0.52791260470E+03  0.94169766271E+03  0.00000000000E+00 0.  1.
         -1    1    6    6    0  502 -0.59609050763E+02 -0.24681400647E+03  0.12190229510E+03  0.28165681649E+03  0.00000000000E+00 0.  1.
<mgrwt>
<rscale>  0 0.30429684E+04</rscale>
<asrwt>0</asrwt>
<pdfrwt beam="1">  1        1 0.35487736E+00 0.30429684E+04</pdfrwt>
<pdfrwt beam="2">  1       -1 0.15439381E+00 0.30429684E+04</pdfrwt>
<totfact> 0.50359772E-01</totfact>
</mgrwt>
</event>
<event>
12    1  0.2083715E-007  0.1498103E+04  0.7818608E-02  0.8885715E-01
          1   -1    0    0  501    0  0.00000000000E+00  0.00000000000E+00  0.12629489149E+04  0.12629489149E+04  0.00000000000E+00 0. -1.
         -1   -1    0    0    0  501 -0.00000000000E+00 -0.00000000000E+00 -0.44426047703E+03  0.44426047703E+03  0.00000000000E+00 0.  1.
         23    2    1    2    0    0 -0.38989482723E+03 -0.10080841721E+03 -0.19768321350E+02  0.41371441515E+03  0.92674254745E+02 0.  0.
        254    2    1    2    0    0  0.38989482723E+03  0.10080841721E+03  0.83845675920E+03  0.12934949768E+04  0.89885438453E+03 0.  0.
        -24    2    4    4    0    0 -0.10998719379E+02  0.16851396903E+03  0.85884476740E+03  0.87859541280E+03  0.76142204482E+02 0.  0.
         24    2    4    4    0    0  0.40089354661E+03 -0.67705551814E+02 -0.20388008204E+02  0.41489956397E+03  0.80164205525E+02 0.  0.
         13    1    3    3    0    0 -0.36812443017E+03 -0.95538960932E+02  0.49564600391E+01  0.38035227834E+03  0.00000000000E+00 0. -1.
        -13    1    3    3    0    0 -0.21770397059E+02 -0.52694562810E+01 -0.24724781389E+02  0.33362136807E+02  0.00000000000E+00 0.  1.
          4    1    6    6  502    0  0.39700586297E+01 -0.11050875605E+02 -0.71227741722E+01  0.13733795145E+02  0.00000000000E+00 0. -1.
          1    1    5    5  503    0  0.35027484420E+01  0.78316026563E+02  0.22644294947E+03  0.23962904379E+03  0.00000000000E+00 0. -1.
         -2    1    5    5    0  503 -0.14501467821E+02  0.90197942465E+02  0.63240181793E+03  0.63896636901E+03  0.00000000000E+00 0.  1.
         -3    1    6    6    0  502  0.39692348798E+03 -0.56654676208E+02 -0.13265234032E+02  0.40116576883E+03  0.00000000000E+00 0.  1.
<mgrwt>
<rscale>  0 0.14981032E+04</rscale>
<asrwt>0</asrwt>
<pdfrwt beam="1">  1        1 0.19429983E+00 0.14981032E+04</pdfrwt>
<pdfrwt beam="2">  1       -1 0.68347766E-01 0.14981032E+04</pdfrwt>
<totfact> 0.20162360E+01</totfact>
</mgrwt>
</event>
<event>
12    1  0.2083715E-007  0.1630926E+04  0.7818608E-02  0.8801771E-01
          1   -1    0    0  501    0  0.00000000000E+00  0.00000000000E+00  0.10239399925E+04  0.10239399925E+04  0.00000000000E+00 0. -1.
         -1   -1    0    0    0  501 -0.00000000000E+00 -0.00000000000E+00 -0.64943282701E+03  0.64943282701E+03  0.00000000000E+00 0.  1.
         23    2    1    2    0    0 -0.61450832806E+02 -0.27869312771E+02 -0.44213352245E+03  0.45643519165E+03  0.91094067097E+02 0.  0.
        254    2    1    2    0    0  0.61450832806E+02  0.27869312771E+02  0.81664068789E+03  0.12169376278E+04  0.89971232816E+03 0.  0.
        -24    2    4    4    0    0  0.55616788986E+02  0.42448683309E+03  0.64229864223E+03  0.77605198101E+03  0.80167529170E+02 0.  0.
         24    2    4    4    0    0  0.58340438201E+01 -0.39661752032E+03  0.17434204566E+03  0.44088564681E+03  0.81520004793E+02 0.  0.
         13    1    3    3    0    0 -0.86891646866E+01 -0.14937443668E+02 -0.82233197045E+01  0.19137706060E+02  0.00000000000E+00 0. -1.
        -13    1    3    3    0    0 -0.52761668120E+02 -0.12931869103E+02 -0.43391020274E+03  0.43729748559E+03  0.00000000000E+00 0.  1.
          2    1    6    6  502    0 -0.25936961227E+02 -0.48064635289E+02  0.17492882058E+02  0.57349246253E+02  0.00000000000E+00 0. -1.
          3    1    5    5  503    0  0.27902237471E+02  0.36194516330E+02  0.80402529220E+02  0.92483212386E+02  0.00000000000E+00 0. -1.
         -4    1    5    5    0  503  0.27714551515E+02  0.38829231676E+03  0.56189611301E+03  0.68356876863E+03  0.00000000000E+00 0.  1.
         -1    1    6    6    0  502  0.31771005047E+02 -0.34855288503E+03  0.15684916360E+03  0.38353640055E+03  0.00000000000E+00 0.  1.
<mgrwt>
<rscale>  0 0.16309264E+04</rscale>
<asrwt>0</asrwt>
<pdfrwt beam="1">  1        1 0.15752923E+00 0.16309264E+04</pdfrwt>
<pdfrwt beam="2">  1       -1 0.99912743E-01 0.16309264E+04</pdfrwt>
<totfact> 0.13252068E+01</totfact>
</mgrwt>
</event>
<event>
12    1  0.2083715E-007  0.1708592E+04  0.7818608E-02  0.8756479E-01
         -1   -1    0    0    0  501 -0.00000000000E+00  0.00000000000E+00  0.27788847307E+03  0.27788847307E+03  0.00000000000E+00 0.  1.
          1   -1    0    0  501    0  0.00000000000E+00 -0.00000000000E+00 -0.26263122717E+04  0.26263122717E+04  0.00000000000E+00 0. -1.
         23    2    1    2    0    0  0.31148951874E+03  0.35615550809E+02 -0.17445446602E+04  0.17748692870E+04  0.91818988587E+02 0.  0.
        254    2    1    2    0    0 -0.31148951874E+03 -0.35615550809E+02 -0.60387913849E+03  0.11293314579E+04  0.90134640404E+03 0.  0.
        -24    2    4    4    0    0  0.24696896446E+03 -0.15120330975E+03 -0.75234738130E+01  0.30010634560E+03  0.78428985230E+02 0.  0.
         24    2    4    4    0    0 -0.55845848320E+03  0.11558775894E+03 -0.59635566468E+03  0.82922511226E+03  0.82084106550E+02 0.  0.
         11    1    3    3    0    0  0.74515012649E+02  0.36132893430E+02 -0.30939799044E+03  0.32028922802E+03  0.00000000000E+00 0.  1.
        -11    1    3    3    0    0  0.23697450609E+03 -0.51734262021E+00 -0.14351466697E+04  0.14545800589E+04  0.00000000000E+00 0. -1.
          4    1    6    6  502    0 -0.18950303348E+03 -0.97962075542E-01 -0.19510432162E+03  0.27198732619E+03  0.00000000000E+00 0. -1.
          3    1    5    5  503    0  0.21721826347E+03 -0.10460104930E+03 -0.24338310551E+02  0.24231695537E+03  0.00000000000E+00 0. -1.
         -2    1    5    5    0  503  0.29750700988E+02 -0.46602260445E+02  0.16814836738E+02  0.57789390223E+02  0.00000000000E+00 0.  1.
         -1    1    6    6    0  502 -0.36895544972E+03  0.11568572101E+03 -0.40125134305E+03  0.55723778607E+03  0.00000000000E+00 0.  1.
<mgrwt>
<rscale>  0 0.17085923E+04</rscale>
<asrwt>0</asrwt>
<pdfrwt beam="1">  1        1 0.40404803E+00 0.17085923E+04</pdfrwt>
<pdfrwt beam="2">  1       -1 0.42752074E-01 0.17085923E+04</pdfrwt>
<totfact> 0.56771090E+00</totfact>
</mgrwt>
</event>
<event>
12    1  0.2083715E-007  0.3589093E+04  0.7818608E-02  0.8092995E-01
         -2   -1    0    0    0  501 -0.00000000000E+00  0.00000000000E+00  0.11567726577E+04  0.11567726577E+04  0.00000000000E+00 0.  1.
          2   -1    0    0  501    0  0.00000000000E+00 -0.00000000000E+00 -0.27839500145E+04  0.27839500145E+04  0.00000000000E+00 0. -1.
         23    2    1    2    0    0 -0.54488449827E+03  0.12605486700E+04 -0.18259536470E+04  0.22864901188E+04  0.89712188493E+02 0.  0.
        254    2    1    2    0    0  0.54488449827E+03 -0.12605486700E+04  0.19877629019E+03  0.16542325533E+04  0.90060605206E+03 0.  0.
        -24    2    4    4    0    0 -0.21465014748E+03 -0.29944789412E+03 -0.10053569473E+03  0.39051111061E+03  0.81533885518E+02 0.  0.
         24    2    4    4    0    0  0.75953464574E+03 -0.96110077587E+03  0.29931198492E+03  0.12637214427E+04  0.82441742788E+02 0.  0.
         11    1    3    3    0    0 -0.43386441492E+03  0.10804246834E+04 -0.15628725972E+04  0.19488782882E+04  0.00000000000E+00 0. -1.
        -11    1    3    3    0    0 -0.11102008334E+03  0.18012398656E+03 -0.26308104974E+03  0.33761183062E+03  0.00000000000E+00 0.  1.
          4    1    6    6  502    0  0.71937770378E+03 -0.90965593735E+03  0.26354130603E+03  0.11892990478E+04  0.00000000000E+00 0. -1.
          1    1    5    5  503    0 -0.20903598907E+03 -0.30299416555E+03 -0.10465934070E+03  0.38269450829E+03  0.00000000000E+00 0. -1.
         -2    1    5    5    0  503 -0.56141584073E+01  0.35462714288E+01  0.41236459663E+01  0.78166023133E+01  0.00000000000E+00 0.  1.
         -3    1    6    6    0  502  0.40156941964E+02 -0.51444838519E+02  0.35770678882E+02  0.74422394921E+02  0.00000000000E+00 0.  1.
<mgrwt>
<rscale>  0 0.35890931E+04</rscale>
<asrwt>0</asrwt>
<pdfrwt beam="1">  1        2 0.42830000E+00 0.35890931E+04</pdfrwt>
<pdfrwt beam="2">  1       -2 0.17796502E+00 0.35890931E+04</pdfrwt>
<totfact> 0.36120379E-01</totfact>
</mgrwt>
</event>
<event>
12    1  0.2083715E-007  0.1997124E+04  0.7818608E-02  0.8607967E-01
         -2   -1    0    0    0  501 -0.00000000000E+00  0.00000000000E+00  0.13461367699E+04  0.13461367699E+04  0.00000000000E+00 0.  1.
          2   -1    0    0  501    0  0.00000000000E+00 -0.00000000000E+00 -0.74073142917E+03  0.74073142917E+03  0.00000000000E+00 0. -1.
         23    2    1    2    0    0  0.37160770052E+03 -0.69746388866E+03  0.29279185062E+03  0.84756088482E+03  0.89912327410E+02 0.  0.
        254    2    1    2    0    0 -0.37160770052E+03  0.69746388866E+03  0.31261349014E+03  0.12393073143E+04  0.90200181039E+03 0.  0.
        -24    2    4    4    0    0 -0.13735897380E+03  0.78135442601E+03 -0.42593692774E+02  0.79836229552E+03  0.78650527771E+02 0.  0.
         24    2    4    4    0    0 -0.23424872671E+03 -0.83890537345E+02  0.35520718292E+03  0.44094501877E+03  0.79688635044E+02 0.  0.
         11    1    3    3    0    0  0.91561948617E+02 -0.10674875128E+03  0.35770505394E+02  0.14511517974E+03  0.00000000000E+00 0. -1.
        -11    1    3    3    0    0  0.28004575190E+03 -0.59071513738E+03  0.25702134522E+03  0.70244570508E+03  0.00000000000E+00 0.  1.
          2    1    6    6  502    0 -0.18228867231E+02  0.10369926692E+02  0.10736077219E+02  0.23560355137E+02  0.00000000000E+00 0. -1.
          3    1    5    5  503    0 -0.90716729862E+02  0.65973333501E+03 -0.20594686253E+02  0.66625951363E+03  0.00000000000E+00 0. -1.
         -4    1    5    5    0  503 -0.46642243943E+02  0.12162109100E+03 -0.21999006521E+02  0.13210278189E+03  0.00000000000E+00 0.  1.
         -1    1    6    6    0  502 -0.21601985948E+03 -0.94260464037E+02  0.34447110570E+03  0.41738466363E+03  0.00000000000E+00 0.  1.
<mgrwt>
<rscale>  0 0.19971237E+04</rscale>
<asrwt>0</asrwt>
<pdfrwt beam="1">  1        2 0.11395868E+00 0.19971237E+04</pdfrwt>
<pdfrwt beam="2">  1       -2 0.20709796E+00 0.19971237E+04</pdfrwt>
<totfact> 0.42315334E+00</totfact>
</mgrwt>
</event>
<event>
12    1  0.2083715E-007  0.2785237E+04  0.7818608E-02  0.8307866E-01
         -2   -1    0    0    0  501 -0.00000000000E+00  0.00000000000E+00  0.16513266855E+04  0.16513266855E+04  0.00000000000E+00 0.  1.
          2   -1    0    0  501    0  0.00000000000E+00 -0.00000000000E+00 -0.11744416271E+04  0.11744416271E+04  0.00000000000E+00 0. -1.
         23    2    1    2    0    0  0.95636924955E+03  0.79725888173E+03  0.24962012251E+03  0.12730930589E+04  0.90508922042E+02 0.  0.
        254    2    1    2    0    0 -0.95636924955E+03 -0.79725888173E+03  0.22726493592E+03  0.15526752537E+04  0.89938157998E+03 0.  0.
        -24    2    4    4    0    0 -0.25242076558E+03 -0.52631522886E+03 -0.26774802968E+03  0.64700319741E+03  0.78741139380E+02 0.  0.
         24    2    4    4    0    0 -0.70394848397E+03 -0.27094365287E+03  0.49501296560E+03  0.90567205630E+03  0.79057614086E+02 0.  0.
         11    1    3    3    0    0  0.60206319639E+03  0.45351520051E+03  0.12628603109E+03  0.76426715957E+03  0.00000000000E+00 0.  1.
        -11    1    3    3    0    0  0.35430605315E+03  0.34374368122E+03  0.12333409142E+03  0.50882589929E+03  0.00000000000E+00 0. -1.
          2    1    6    6  502    0 -0.66554807251E+03 -0.26460054113E+03  0.44863987604E+03  0.84513041690E+03  0.00000000000E+00 0. -1.
          3    1    5    5  503    0 -0.18628908672E+03 -0.44407865392E+03 -0.19906149344E+03  0.52109015810E+03  0.00000000000E+00 0. -1.
         -4    1    5    5    0  503 -0.66131678856E+02 -0.82236574938E+02 -0.68686536241E+02  0.12591303930E+03  0.00000000000E+00 0.  1.
         -1    1    6    6    0  502 -0.38400411455E+02 -0.63431117382E+01  0.46373089563E+02  0.60541639407E+02  0.00000000000E+00 0.  1.
<mgrwt>
<rscale>  0 0.27852374E+04</rscale>
<asrwt>0</asrwt>
<pdfrwt beam="1">  1        2 0.18068333E+00 0.27852374E+04</pdfrwt>
<pdfrwt beam="2">  1       -2 0.25405026E+00 0.27852374E+04</pdfrwt>
<totfact> 0.10373274E+00</totfact>
</mgrwt>
</event>
<event>
12    1  0.2083715E-007  0.1999924E+04  0.7818608E-02  0.8606656E-01
         -1   -1    0    0    0  501 -0.00000000000E+00  0.00000000000E+00  0.97074326873E+03  0.97074326873E+03  0.00000000000E+00 0.  1.
          1   -1    0    0  501    0  0.00000000000E+00 -0.00000000000E+00 -0.10300601485E+04  0.10300601485E+04  0.00000000000E+00 0. -1.
         23    2    1    2    0    0 -0.76604891883E+03 -0.16969980421E+03 -0.14713555477E+03  0.80351550884E+03  0.91429381925E+02 0.  0.
        254    2    1    2    0    0  0.76604891883E+03  0.16969980421E+03  0.87818675017E+02  0.11972879084E+04  0.90008735479E+03 0.  0.
        -24    2    4    4    0    0 -0.76555786905E+02 -0.14400901016E+03  0.22018805987E+03  0.28487366361E+03  0.77915588920E+02 0.  0.
         24    2    4    4    0    0  0.84260470574E+03  0.31370881437E+03 -0.13236938485E+03  0.91241424476E+03  0.81130694831E+02 0.  0.
         11    1    3    3    0    0 -0.63748716404E+02  0.10955579769E+02 -0.88743158486E+01  0.65289180214E+02  0.00000000000E+00 0.  1.
        -11    1    3    3    0    0 -0.70230020243E+03 -0.18065538398E+03 -0.13826123893E+03  0.73822632863E+03  0.00000000000E+00 0. -1.
          4    1    6    6  502    0  0.54960388371E+03  0.16371054590E+03 -0.76659505865E+02  0.57856914165E+03  0.00000000000E+00 0. -1.
          3    1    5    5  503    0 -0.50194641990E+02 -0.20633055055E+02  0.74135796250E+02  0.91876772533E+02  0.00000000000E+00 0. -1.
         -4    1    5    5    0  503 -0.26361144915E+02 -0.12337595510E+03  0.14605226362E+03  0.19299689108E+03  0.00000000000E+00 0.  1.
         -3    1    6    6    0  502  0.29300082203E+03  0.14999826847E+03 -0.55709878986E+02  0.33384510311E+03  0.00000000000E+00 0.  1.
<mgrwt>
<rscale>  0 0.19999240E+04</rscale>
<asrwt>0</asrwt>
<pdfrwt beam="1">  1        1 0.15847079E+00 0.19999240E+04</pdfrwt>
<pdfrwt beam="2">  1       -1 0.14934512E+00 0.19999240E+04</pdfrwt>
<totfact> 0.46959798E+00</totfact>
</mgrwt>
</event>
<event>
12    1  0.2083715E-007  0.2427823E+04  0.7818608E-02  0.8429160E-01
         -1   -1    0    0    0  501 -0.00000000000E+00  0.00000000000E+00  0.29451057070E+04  0.29451057070E+04  0.00000000000E+00 0.  1.
          1   -1    0    0  501    0  0.00000000000E+00 -0.00000000000E+00 -0.50034927689E+03  0.50034927689E+03  0.00000000000E+00 0. -1.
         23    2    1    2    0    0  0.46576367968E+03 -0.87881285108E+03  0.60236115047E+03  0.11665375474E+04  0.93397330828E+02 0.  0.
        254    2    1    2    0    0 -0.46576367968E+03  0.87881285108E+03  0.18423952797E+04  0.22789174365E+04  0.89988692809E+03 0.  0.
        -24    2    4    4    0    0  0.21245232477E+03  0.41173708698E+02  0.15931348003E+03  0.27875719557E+03  0.74118314711E+02 0.  0.
         24    2    4    4    0    0 -0.67821600445E+03  0.83763914238E+03  0.16830817996E+04  0.20001602409E+04  0.79122459540E+02 0.  0.
         13    1    3    3    0    0  0.38989512821E+03 -0.72496031834E+03  0.45587598323E+03  0.94096152220E+03  0.00000000000E+00 0. -1.
        -13    1    3    3    0    0  0.75868551465E+02 -0.15385253273E+03  0.14648516723E+03  0.22557602521E+03  0.00000000000E+00 0.  1.
          4    1    6    6  502    0 -0.28144119221E+03  0.32079627442E+03  0.73130388758E+03  0.84671410189E+03  0.00000000000E+00 0. -1.
          1    1    5    5  503    0  0.75050667765E+02  0.51353535118E+02  0.65538804880E+02  0.11209426054E+03  0.00000000000E+00 0. -1.
         -2    1    5    5    0  503  0.13740165701E+03 -0.10179826419E+02  0.93774675149E+02  0.16666293503E+03  0.00000000000E+00 0.  1.
         -3    1    6    6    0  502 -0.39677481224E+03  0.51684286796E+03  0.95177791204E+03  0.11534461390E+04  0.00000000000E+00 0.  1.
<mgrwt>
<rscale>  0 0.24278233E+04</rscale>
<asrwt>0</asrwt>
<pdfrwt beam="1">  1        1 0.76976814E-01 0.24278233E+04</pdfrwt>
<pdfrwt beam="2">  1       -1 0.45309317E+00 0.24278233E+04</pdfrwt>
<totfact> 0.12184975E-01</totfact>
</mgrwt>
</event>
<event>
12    1  0.2083715E-007  0.1238542E+04  0.7818608E-02  0.9079774E-01
         -2   -1    0    0    0  501 -0.00000000000E+00  0.00000000000E+00  0.28678818058E+03  0.28678818058E+03  0.00000000000E+00 0.  1.
          2   -1    0    0  501    0  0.00000000000E+00 -0.00000000000E+00 -0.13372129463E+04  0.13372129463E+04  0.00000000000E+00 0. -1.
         23    2    1    2    0    0  0.22057356216E+03  0.12427641278E+03 -0.90470251356E+02  0.28403850672E+03  0.91627964183E+02 0.  0.
        254    2    1    2    0    0 -0.22057356216E+03 -0.12427641278E+03 -0.95995451438E+03  0.13399626202E+04  0.89993879274E+03 0.  0.
        -24    2    4    4    0    0 -0.52458504789E+03 -0.13778798295E+02 -0.32399576830E+03  0.62195972099E+03  0.80506576832E+02 0.  0.
         24    2    4    4    0    0  0.30401148573E+03 -0.11049761449E+03 -0.63595874608E+03  0.71800289918E+03  0.80323908351E+02 0.  0.
         13    1    3    3    0    0  0.16443523898E+03  0.52080699334E+02 -0.85335867376E+02  0.19244104896E+03  0.00000000000E+00 0. -1.
        -13    1    3    3    0    0  0.56138323173E+02  0.72195713449E+02 -0.51343839801E+01  0.91597457759E+02  0.00000000000E+00 0.  1.
          4    1    6    6  502    0  0.16931151026E+03 -0.19348179659E+02 -0.31181235850E+03  0.35534164754E+03  0.00000000000E+00 0. -1.
          1    1    5    5  503    0 -0.46671455192E+03 -0.32887633177E+02 -0.26797245860E+03  0.53917836377E+03  0.00000000000E+00 0. -1.
         -2    1    5    5    0  503 -0.57870495967E+02  0.19108834882E+02 -0.56023309700E+02  0.82781357223E+02  0.00000000000E+00 0.  1.
         -3    1    6    6    0  502  0.13469997547E+03 -0.91149434829E+02 -0.32414638757E+03  0.36266125164E+03  0.00000000000E+00 0.  1.
<mgrwt>
<rscale>  0 0.12385425E+04</rscale>
<asrwt>0</asrwt>
<pdfrwt beam="1">  1        2 0.20572507E+00 0.12385425E+04</pdfrwt>
<pdfrwt beam="2">  1       -2 0.44121259E-01 0.12385425E+04</pdfrwt>
<totfact> 0.75375631E+01</totfact>
</mgrwt>
</event>
<event>
12    1  0.2083715E-007  0.3554364E+04  0.7818608E-02  0.8101026E-01
         -2   -1    0    0    0  501 -0.00000000000E+00  0.00000000000E+00  0.13326948447E+04  0.13326948447E+04  0.00000000000E+00 0.  1.
          2   -1    0    0  501    0  0.00000000000E+00 -0.00000000000E+00 -0.23699165194E+04  0.23699165194E+04  0.00000000000E+00 0. -1.
         23    2    1    2    0    0  0.53957235348E+03  0.14545236911E+04  0.13573206532E+03  0.15594911851E+04  0.82535266115E+02 0.  0.
        254    2    1    2    0    0 -0.53957235348E+03 -0.14545236911E+04 -0.11729537401E+04  0.21431201790E+04  0.90020338411E+03 0.  0.
        -24    2    4    4    0    0 -0.28967161251E+03 -0.99776509546E+03 -0.23639544369E+03  0.10686017550E+04  0.81129995060E+02 0.  0.
         24    2    4    4    0    0 -0.24990074096E+03 -0.45675859564E+03 -0.93655829641E+03  0.10745184241E+04  0.79809811846E+02 0.  0.
         11    1    3    3    0    0  0.14257089836E+03  0.32043197889E+03  0.42129379977E+01  0.35074330072E+03  0.00000000000E+00 0.  1.
        -11    1    3    3    0    0  0.39700145511E+03  0.11340917122E+04  0.13151912732E+03  0.12087478844E+04  0.00000000000E+00 0. -1.
          2    1    6    6  502    0 -0.11153749300E+03 -0.16103350801E+03 -0.28636043926E+03  0.34695057893E+03  0.00000000000E+00 0. -1.
          1    1    5    5  503    0 -0.10294175314E+03 -0.25835644692E+03 -0.87775079466E+02  0.29163251324E+03  0.00000000000E+00 0. -1.
         -2    1    5    5    0  503 -0.18672985937E+03 -0.73940864855E+03 -0.14862036422E+03  0.77696924172E+03  0.00000000000E+00 0.  1.
         -1    1    6    6    0  502 -0.13836324797E+03 -0.29572508763E+03 -0.65019785715E+03  0.72756784514E+03  0.00000000000E+00 0.  1.
<mgrwt>
<rscale>  0 0.35543638E+04</rscale>
<asrwt>0</asrwt>
<pdfrwt beam="1">  1        2 0.36460254E+00 0.35543638E+04</pdfrwt>
<pdfrwt beam="2">  1       -2 0.20502998E+00 0.35543638E+04</pdfrwt>
<totfact> 0.41723222E-01</totfact>
</mgrwt>
</event>
<event>
12    1  0.2083715E-007  0.2564968E+04  0.7818608E-02  0.8380199E-01
         -2   -1    0    0    0  501 -0.00000000000E+00  0.00000000000E+00  0.51292804778E+03  0.51292804778E+03  0.00000000000E+00 0. -1.
          2   -1    0    0  501    0  0.00000000000E+00 -0.00000000000E+00 -0.32066189486E+04  0.32066189486E+04  0.00000000000E+00 0.  1.
         23    2    1    2    0    0  0.87247351089E+03  0.67910490950E+03 -0.92225839358E+03  0.14426042573E+04  0.90293927025E+02 0.  0.
        254    2    1    2    0    0 -0.87247351089E+03 -0.67910490950E+03 -0.17714325072E+04  0.22769427391E+04  0.90780042089E+03 0.  0.
        -24    2    4    4    0    0 -0.54630364080E+03 -0.82038279535E+03 -0.91759441681E+03  0.13486067616E+04  0.72698588992E+02 0.  0.
         24    2    4    4    0    0 -0.32616987009E+03  0.14127788585E+03 -0.85383809040E+03  0.92833597748E+03  0.80137240251E+02 0.  0.
         11    1    3    3    0    0  0.40796677907E+03  0.31959253588E+03 -0.37392440230E+03  0.63905847968E+03  0.00000000000E+00 0.  1.
        -11    1    3    3    0    0  0.46450673181E+03  0.35951237362E+03 -0.54833399128E+03  0.80354577759E+03  0.00000000000E+00 0. -1.
          4    1    6    6  502    0 -0.83707151537E+02  0.49805761340E+02 -0.32723095555E+03  0.34141997503E+03  0.00000000000E+00 0. -1.
          1    1    5    5  503    0 -0.14440466517E+03 -0.16295196638E+03 -0.20712534088E+03  0.30051116036E+03  0.00000000000E+00 0. -1.
         -2    1    5    5    0  503 -0.40189897563E+03 -0.65743082897E+03 -0.71046907594E+03  0.10480956013E+04  0.00000000000E+00 0.  1.
         -3    1    6    6    0  502 -0.24246271855E+03  0.91472124512E+02 -0.52660713485E+03  0.58691600245E+03  0.00000000000E+00 0.  1.
<mgrwt>
<rscale>  0 0.25649677E+04</rscale>
<asrwt>0</asrwt>
<pdfrwt beam="1">  1        2 0.49332600E+00 0.25649677E+04</pdfrwt>
<pdfrwt beam="2">  1       -2 0.78912006E-01 0.25649677E+04</pdfrwt>
<totfact> 0.16240791E+00</totfact>
</mgrwt>
</event>
<event>
12    1  0.2083715E-007  0.3740185E+04  0.7818608E-02  0.8059114E-01
          2   -1    0    0  501    0  0.00000000000E+00  0.00000000000E+00  0.31217117165E+04  0.31217117165E+04  0.00000000000E+00 0.  1.
         -2   -1    0    0    0  501 -0.00000000000E+00 -0.00000000000E+00 -0.11202976941E+04  0.11202976941E+04  0.00000000000E+00 0. -1.
         23    2    1    2    0    0 -0.16512909159E+04 -0.43824735153E+03  0.46220125337E+03  0.17722569962E+04  0.91882708849E+02 0.  0.
        254    2    1    2    0    0  0.16512909159E+04  0.43824735153E+03  0.15392127690E+04  0.24697524145E+04  0.90093207872E+03 0.  0.
        -24    2    4    4    0    0  0.13521190334E+04  0.45851230256E+03  0.73544194173E+03  0.16080260136E+04  0.80083697795E+02 0.  0.
         24    2    4    4    0    0  0.29917188241E+03 -0.20264951033E+02  0.80377082730E+03  0.86172640083E+03  0.81304142560E+02 0.  0.
         13    1    3    3    0    0 -0.18778907969E+03 -0.36174996597E+02  0.78879412360E+02  0.20687032296E+03  0.00000000000E+00 0. -1.
        -13    1    3    3    0    0 -0.14635018362E+04 -0.40207235493E+03  0.38332184101E+03  0.15653866733E+04  0.00000000000E+00 0.  1.
          4    1    6    6  502    0  0.20292923631E+03 -0.10453420348E+02  0.64036183819E+03  0.67182797855E+03  0.00000000000E+00 0. -1.
          1    1    5    5  503    0  0.11912307849E+04  0.37983502244E+03  0.65815218741E+03  0.14129648718E+04  0.00000000000E+00 0. -1.
         -4    1    5    5    0  503  0.16088824854E+03  0.78677280119E+02  0.77289754324E+02  0.19506114182E+03  0.00000000000E+00 0.  1.
         -3    1    6    6    0  502  0.96242646099E+02 -0.98115306848E+01  0.16340898911E+03  0.18989842228E+03  0.00000000000E+00 0.  1.
<mgrwt>
<rscale>  0 0.37401853E+04</rscale>
<asrwt>0</asrwt>
<pdfrwt beam="1">  1        2 0.48026334E+00 0.37401853E+04</pdfrwt>
<pdfrwt beam="2">  1       -2 0.17235349E+00 0.37401853E+04</pdfrwt>
<totfact> 0.24063084E-01</totfact>
</mgrwt>
</event>
<event>
12    1  0.2083715E-007  0.1602696E+04  0.7818608E-02  0.8818893E-01
          2   -1    0    0  501    0  0.00000000000E+00  0.00000000000E+00  0.14624934901E+04  0.14624934901E+04  0.00000000000E+00 0. -1.
         -2   -1    0    0    0  501 -0.00000000000E+00 -0.00000000000E+00 -0.43908501752E+03  0.43908501752E+03  0.00000000000E+00 0.  1.
         23    2    1    2    0    0 -0.14687392248E+03 -0.37794355366E+03  0.78173543751E+03  0.88502103515E+03  0.87969651225E+02 0.  0.
        254    2    1    2    0    0  0.14687392248E+03  0.37794355366E+03  0.24167303504E+03  0.10165574724E+04  0.90031658880E+03 0.  0.
        -24    2    4    4    0    0  0.15171284273E+03 -0.67067208144E+02  0.47361798786E+03  0.50831551157E+03  0.80968289024E+02 0.  0.
         24    2    4    4    0    0 -0.48389202486E+01  0.44501076181E+03 -0.23194495282E+03  0.50824196087E+03  0.80333283159E+02 0.  0.
         13    1    3    3    0    0 -0.11767422225E+03 -0.24014752699E+03  0.43317973857E+03  0.50908029151E+03  0.00000000000E+00 0.  1.
        -13    1    3    3    0    0 -0.29199700232E+02 -0.13779602667E+03  0.34855569894E+03  0.37594074364E+03  0.00000000000E+00 0. -1.
          4    1    6    6  502    0 -0.11919086478E+02  0.30975010350E+03 -0.20057130590E+03  0.36921002152E+03  0.00000000000E+00 0. -1.
          1    1    5    5  503    0  0.12216150071E+03 -0.63557027259E+02  0.44916038608E+03  0.46979567941E+03  0.00000000000E+00 0. -1.
         -2    1    5    5    0  503  0.29551342020E+02 -0.35101808852E+01  0.24457601771E+02  0.38519832157E+02  0.00000000000E+00 0.  1.
         -3    1    6    6    0  502  0.70801662296E+01  0.13526065831E+03 -0.31373646914E+02  0.13903193935E+03  0.00000000000E+00 0.  1.
<mgrwt>
<rscale>  0 0.16026965E+04</rscale>
<asrwt>0</asrwt>
<pdfrwt beam="1">  1        2 0.22499900E+00 0.16026965E+04</pdfrwt>
<pdfrwt beam="2">  1       -2 0.67551542E-01 0.16026965E+04</pdfrwt>
<totfact> 0.25671635E+01</totfact>
</mgrwt>
</event>
<event>
12    1  0.2083715E-007  0.2659839E+04  0.7818608E-02  0.8348155E-01
         -2   -1    0    0    0  501 -0.00000000000E+00  0.00000000000E+00  0.13766592971E+04  0.13766592971E+04  0.00000000000E+00 0.  1.
          2   -1    0    0  501    0  0.00000000000E+00 -0.00000000000E+00 -0.12847668162E+04  0.12847668162E+04  0.00000000000E+00 0. -1.
         23    2    1    2    0    0 -0.23423056487E+03 -0.11230566088E+04  0.29583032153E+03  0.11883544421E+04  0.92469437354E+02 0.  0.
        254    2    1    2    0    0  0.23423056487E+03  0.11230566088E+04 -0.20393784057E+03  0.14730716712E+04  0.90123770535E+03 0.  0.
        -24    2    4    4    0    0 -0.94320424935E+02 -0.25014996174E+02 -0.24487550227E+03  0.27542408401E+03  0.79826824114E+02 0.  0.
         24    2    4    4    0    0  0.32855098980E+03  0.11480716050E+04  0.40937661701E+02  0.11976475872E+04  0.81668157053E+02 0.  0.
         13    1    3    3    0    0 -0.15772174946E+03 -0.59892724120E+03  0.12528012381E+03  0.63189010115E+03  0.00000000000E+00 0.  1.
        -13    1    3    3    0    0 -0.76508815404E+02 -0.52412936759E+03  0.17055019771E+03  0.55646434095E+03  0.00000000000E+00 0. -1.
          4    1    6    6  502    0  0.19107009162E+02  0.26729001206E+02  0.85071263993E+01  0.33939482969E+02  0.00000000000E+00 0. -1.
          3    1    5    5  503    0  0.78444088005E+01  0.13982457645E+02 -0.41943774454E+02  0.44903497489E+02  0.00000000000E+00 0. -1.
         -4    1    5    5    0  503 -0.10216483374E+03 -0.38997453819E+02 -0.20293172781E+03  0.23052058652E+03  0.00000000000E+00 0.  1.
         -3    1    6    6    0  502  0.30944398064E+03  0.11213426038E+04  0.32430535301E+02  0.11637081042E+04  0.00000000000E+00 0.  1.
<mgrwt>
<rscale>  0 0.26598392E+04</rscale>
<asrwt>0</asrwt>
<pdfrwt beam="1">  1        2 0.19765643E+00 0.26598392E+04</pdfrwt>
<pdfrwt beam="2">  1       -2 0.21179374E+00 0.26598392E+04</pdfrwt>
<totfact> 0.16561720E+00</totfact>
</mgrwt>
</event>
<event>
12    1  0.2083715E-007  0.2579740E+04  0.7818608E-02  0.8375116E-01
          1   -1    0    0  501    0  0.00000000000E+00  0.00000000000E+00  0.26520789273E+04  0.26520789273E+04  0.00000000000E+00 0. -1.
         -1   -1    0    0    0  501 -0.00000000000E+00 -0.00000000000E+00 -0.62734346066E+03  0.62734346066E+03  0.00000000000E+00 0.  1.
         23    2    1    2    0    0  0.37480460840E+03  0.90831122005E+02  0.22424841180E+04  0.22771925216E+04  0.90232885152E+02 0.  0.
        254    2    1    2    0    0 -0.37480460840E+03 -0.90831122005E+02 -0.21774865142E+03  0.10022298663E+04  0.89906698448E+03 0.  0.
        -24    2    4    4    0    0 -0.23056169551E+02 -0.43095476674E+03 -0.25160529502E+03  0.50509964371E+03  0.74611176552E+02 0.  0.
         24    2    4    4    0    0 -0.35174843885E+03  0.34012364474E+03  0.33856643599E+02  0.49713022263E+03  0.81124151715E+02 0.  0.
         13    1    3    3    0    0  0.35843833069E+03  0.76336293146E+02  0.21881165594E+04  0.22185940016E+04  0.00000000000E+00 0. -1.
        -13    1    3    3    0    0  0.16366277706E+02  0.14494828859E+02  0.54367558619E+02  0.58598519945E+02  0.00000000000E+00 0.  1.
          4    1    6    6  502    0 -0.31638292533E+03  0.27665284894E+03  0.91274644316E+01  0.42037871601E+03  0.00000000000E+00 0. -1.
          1    1    5    5  503    0  0.12054703436E+02 -0.32818967418E+03 -0.17431360320E+03  0.37180507039E+03  0.00000000000E+00 0. -1.
         -2    1    5    5    0  503 -0.35110872987E+02 -0.10276509256E+03 -0.77291691822E+02  0.13329457332E+03  0.00000000000E+00 0.  1.
         -3    1    6    6    0  502 -0.35365513518E+02  0.63470795801E+02  0.24729179168E+02  0.76751506619E+02  0.00000000000E+00 0.  1.
<mgrwt>
<rscale>  0 0.25797398E+04</rscale>
<asrwt>0</asrwt>
<pdfrwt beam="1">  1        1 0.40801214E+00 0.25797398E+04</pdfrwt>
<pdfrwt beam="2">  1       -1 0.96514380E-01 0.25797398E+04</pdfrwt>
<totfact> 0.96663155E-01</totfact>
</mgrwt>
</event>
<event>
12    1  0.2083715E-007  0.1049244E+04  0.7818608E-02  0.9256125E-01
          1   -1    0    0  501    0  0.00000000000E+00  0.00000000000E+00  0.40913050533E+03  0.40913050533E+03  0.00000000000E+00 0. -1.
         -1   -1    0    0    0  501 -0.00000000000E+00 -0.00000000000E+00 -0.67271494220E+03  0.67271494220E+03  0.00000000000E+00 0.  1.
         23    2    1    2    0    0 -0.16037650538E+02  0.86862391198E+02  0.27065980141E+02  0.13007268900E+03  0.91564490399E+02 0.  0.
        254    2    1    2    0    0  0.16037650538E+02 -0.86862391198E+02 -0.29065041700E+03  0.95177275853E+03  0.90199303642E+03 0.  0.
        -24    2    4    4    0    0 -0.11432772943E+03  0.16860940420E+03  0.25014492279E+03  0.33448429728E+03  0.88358937454E+02 0.  0.
         24    2    4    4    0    0  0.13036537996E+03 -0.25547179539E+03 -0.54079533979E+03  0.61728846126E+03  0.79526563631E+02 0.  0.
         11    1    3    3    0    0 -0.41798075892E+02  0.56811319018E+02  0.47982369394E+02  0.85304823366E+02  0.00000000000E+00 0. -1.
        -11    1    3    3    0    0  0.25760425354E+02  0.30051072180E+02 -0.20916389253E+02  0.44767865629E+02  0.00000000000E+00 0.  1.
          2    1    6    6  502    0  0.50798733957E+01 -0.47559583520E+02 -0.14802579740E+03  0.15556142130E+03  0.00000000000E+00 0. -1.
          1    1    5    5  503    0  0.81632483711E+01  0.29406523165E+02  0.68142326874E+02  0.74664308344E+02  0.00000000000E+00 0. -1.
         -2    1    5    5    0  503 -0.12249097780E+03  0.13920288103E+03  0.18200259592E+03  0.25981998893E+03  0.00000000000E+00 0.  1.
         -1    1    6    6    0  502  0.12528550657E+03 -0.20791221188E+03 -0.39276954239E+03  0.46172703996E+03  0.00000000000E+00 0.  1.
<mgrwt>
<rscale>  0 0.10492439E+04</rscale>
<asrwt>0</asrwt>
<pdfrwt beam="1">  1        1 0.62943155E-01 0.10492439E+04</pdfrwt>
<pdfrwt beam="2">  1       -1 0.10349461E+00 0.10492439E+04</pdfrwt>
<totfact> 0.51266978E+01</totfact>
</mgrwt>
</event>
<event>
12    1  0.2083715E-007  0.1984355E+04  0.7818608E-02  0.8613971E-01
          2   -1    0    0  501    0  0.00000000000E+00  0.00000000000E+00  0.19796075063E+04  0.19796075063E+04  0.00000000000E+00 0. -1.
         -2   -1    0    0    0  501 -0.00000000000E+00 -0.00000000000E+00 -0.49727824711E+03  0.49727824711E+03  0.00000000000E+00 0.  1.
         23    2    1    2    0    0  0.74461249439E+03  0.24614824557E+03  0.62117682451E+03  0.10052202813E+04  0.97828631375E+02 0.  0.
        254    2    1    2    0    0 -0.74461249439E+03 -0.24614824557E+03  0.86115243469E+03  0.14716654721E+04  0.89954378456E+03 0.  0.
        -24    2    4    4    0    0 -0.93790305656E+03 -0.26700764112E+03  0.75150890889E+03  0.12338433261E+04  0.81538268446E+02 0.  0.
         24    2    4    4    0    0  0.19329056217E+03  0.20859395547E+02  0.10964352580E+03  0.23782214601E+03  0.82105508817E+02 0.  0.
         13    1    3    3    0    0  0.17806798956E+03  0.88147588732E+02  0.19911280549E+03  0.28129009157E+03  0.00000000000E+00 0.  1.
        -13    1    3    3    0    0  0.56654450483E+03  0.15800065684E+03  0.42206401902E+03  0.72393018978E+03  0.00000000000E+00 0. -1.
          2    1    6    6  502    0  0.13879882515E+02 -0.10078224049E+02 -0.10108234457E+02  0.19909749934E+02  0.00000000000E+00 0. -1.
          3    1    5    5  503    0 -0.10159577579E+03 -0.73272006393E+01  0.96130341916E+02  0.14005867401E+03  0.00000000000E+00 0. -1.
         -4    1    5    5    0  503 -0.83630728076E+03 -0.25968044048E+03  0.65537856697E+03  0.10937846521E+04  0.00000000000E+00 0.  1.
         -1    1    6    6    0  502  0.17941067966E+03  0.30937619596E+02  0.11975176025E+03  0.21791239608E+03  0.00000000000E+00 0.  1.
<mgrwt>
<rscale>  0 0.19843546E+04</rscale>
<asrwt>0</asrwt>
<pdfrwt beam="1">  1        2 0.30455500E+00 0.19843546E+04</pdfrwt>
<pdfrwt beam="2">  1       -2 0.76504347E-01 0.19843546E+04</pdfrwt>
<totfact> 0.97460152E+00</totfact>
</mgrwt>
</event>
<event>
12    1  0.2083715E-007  0.1626281E+04  0.7818608E-02  0.8804563E-01
         -1   -1    0    0    0  501 -0.00000000000E+00  0.00000000000E+00  0.90995766279E+03  0.90995766279E+03  0.00000000000E+00 0.  1.
          1   -1    0    0  501    0  0.00000000000E+00 -0.00000000000E+00 -0.72662435205E+03  0.72662435205E+03  0.00000000000E+00 0. -1.
         23    2    1    2    0    0 -0.26409232491E+03  0.48139122789E+03  0.17261609507E+03  0.58223326806E+03  0.87846410250E+02 0.  0.
        254    2    1    2    0    0  0.26409232491E+03 -0.48139122789E+03  0.10717215663E+02  0.10543487468E+04  0.90003008325E+03 0.  0.
        -24    2    4    4    0    0  0.43612612391E+03 -0.61238749857E+03  0.16897256744E+03  0.77494960724E+03  0.82284390104E+02 0.  0.
         24    2    4    4    0    0 -0.17203379900E+03  0.13099627068E+03 -0.15825535177E+03  0.27939913954E+03  0.79142099267E+02 0.  0.
         11    1    3    3    0    0 -0.15652654447E+03  0.20463500385E+03  0.58935978484E+02  0.26429054747E+03  0.00000000000E+00 0.  1.
        -11    1    3    3    0    0 -0.10756578044E+03  0.27675622404E+03  0.11368011659E+03  0.31794272059E+03  0.00000000000E+00 0. -1.
          4    1    6    6  502    0 -0.96092333235E+02  0.11865101971E+03 -0.11490179606E+03  0.19108695330E+03  0.00000000000E+00 0. -1.
          1    1    5    5  503    0  0.33554763313E+03 -0.43439451970E+03  0.15330165228E+03  0.56990543903E+03  0.00000000000E+00 0. -1.
         -2    1    5    5    0  503  0.10057849078E+03 -0.17799297888E+03  0.15670915151E+02  0.20504416821E+03  0.00000000000E+00 0.  1.
         -3    1    6    6    0  502 -0.75941465767E+02  0.12345250976E+02 -0.43353555712E+02  0.88312186234E+02  0.00000000000E+00 0.  1.
<mgrwt>
<rscale>  0 0.16262809E+04</rscale>
<asrwt>0</asrwt>
<pdfrwt beam="1">  1        1 0.11178836E+00 0.16262809E+04</pdfrwt>
<pdfrwt beam="2">  1       -1 0.13999349E+00 0.16262809E+04</pdfrwt>
<totfact> 0.10328158E+01</totfact>
</mgrwt>
</event>
<event>
12    1  0.2083715E-007  0.2418552E+04  0.7818608E-02  0.8432590E-01
          2   -1    0    0  501    0  0.00000000000E+00  0.00000000000E+00  0.20904355121E+04  0.20904355121E+04  0.00000000000E+00 0. -1.
         -2   -1    0    0    0  501 -0.00000000000E+00 -0.00000000000E+00 -0.69954252894E+03  0.69954252894E+03  0.00000000000E+00 0.  1.
         23    2    1    2    0    0  0.52102388592E+03 -0.73484215978E+03  0.34816569923E+01  0.90606509404E+03  0.97380404689E+02 0.  0.
        254    2    1    2    0    0 -0.52102388592E+03  0.73484215978E+03  0.13874113262E+04  0.18839129471E+04  0.90153142733E+03 0.  0.
        -24    2    4    4    0    0 -0.48531374956E+02  0.34605355914E+03 -0.73258732887E+01  0.35876210865E+03  0.80921085228E+02 0.  0.
         24    2    4    4    0    0 -0.47249251097E+03  0.38878860064E+03  0.13947371995E+04  0.15251508384E+04  0.79921682295E+02 0.  0.
         11    1    3    3    0    0  0.13814537374E+03 -0.12683703849E+03  0.40019852566E+00  0.18754183207E+03  0.00000000000E+00 0. -1.
        -11    1    3    3    0    0  0.38287851218E+03 -0.60800512129E+03  0.30814584667E+01  0.71852326197E+03  0.00000000000E+00 0.  1.
          4    1    6    6  502    0  0.13339762282E+01 -0.17146080077E+01  0.15727471697E+01  0.26819595182E+01  0.00000000000E+00 0. -1.
          3    1    5    5  503    0 -0.15677399181E+02  0.50464084388E+02  0.27064315606E+02  0.59370715318E+02  0.00000000000E+00 0. -1.
         -4    1    5    5    0  503 -0.32853975775E+02  0.29558947475E+03 -0.34390188895E+02  0.29939139333E+03  0.00000000000E+00 0.  1.
         -3    1    6    6    0  502 -0.47382648719E+03  0.39050320865E+03  0.13931644523E+04  0.15224688789E+04  0.00000000000E+00 0.  1.
<mgrwt>
<rscale>  0 0.24185521E+04</rscale>
<asrwt>0</asrwt>
<pdfrwt beam="1">  1        2 0.32160546E+00 0.24185521E+04</pdfrwt>
<pdfrwt beam="2">  1       -2 0.10762193E+00 0.24185521E+04</pdfrwt>
<totfact> 0.36994238E+00</totfact>
</mgrwt>
</event>
<event>
12    1  0.2411344E-007  0.3369738E+04  0.7818608E-02  0.8145374E-01
          2   -1    0    0  501    0  0.00000000000E+00  0.00000000000E+00  0.14101043590E+04  0.14101043590E+04  0.00000000000E+00 0. -1.
         -2   -1    0    0    0  501 -0.00000000000E+00 -0.00000000000E+00 -0.20131732072E+04  0.20131732072E+04  0.00000000000E+00 0.  1.
         23    2    1    2    0    0 -0.12842479860E+04 -0.82311316681E+03  0.65304453595E+02  0.15288985991E+04  0.80362179294E+02 0.  0.
        254    2    1    2    0    0  0.12842479860E+04  0.82311316681E+03 -0.66837330185E+03  0.18943789671E+04  0.90285138608E+03 0.  0.
        -24    2    4    4    0    0  0.34310023176E+03 -0.21770269768E+02 -0.50528483947E+03  0.61638070876E+03  0.80129242234E+02 0.  0.
         24    2    4    4    0    0  0.94114775422E+03  0.84488343658E+03 -0.16308846238E+03  0.12779982583E+04  0.84229359353E+02 0.  0.
         11    1    3    3    0    0 -0.46209740167E+03 -0.28236333003E+03 -0.13486775083E+02  0.54170559520E+03  0.00000000000E+00 0. -1.
        -11    1    3    3    0    0 -0.82215058432E+03 -0.54074983677E+03  0.78791228679E+02  0.98719300392E+03  0.00000000000E+00 0.  1.
          2    1    6    6  502    0  0.68169944447E+03  0.56015584001E+03 -0.10990817691E+03  0.88913919328E+03  0.00000000000E+00 0. -1.
          3    1    5    5  503    0  0.24625186383E+03 -0.21388359519E+01 -0.41480074556E+03  0.48239425119E+03  0.00000000000E+00 0. -1.
         -4    1    5    5    0  503  0.96848367926E+02 -0.19631433816E+02 -0.90484093904E+02  0.13398645757E+03  0.00000000000E+00 0.  1.
         -1    1    6    6    0  502  0.25944830976E+03  0.28472759657E+03 -0.53180285468E+02  0.38885906502E+03  0.00000000000E+00 0.  1.
<mgrwt>
<rscale>  0 0.33697385E+04</rscale>
<asrwt>0</asrwt>
<pdfrwt beam="1">  1        2 0.21693913E+00 0.33697385E+04</pdfrwt>
<pdfrwt beam="2">  1       -2 0.30971895E+00 0.33697385E+04</pdfrwt>
<totfact> 0.32849158E-01</totfact>
</mgrwt>
</event>
<event>
12    1  0.2083715E-007  0.1806042E+04  0.7818608E-02  0.8703093E-01
         -2   -1    0    0    0  501 -0.00000000000E+00  0.00000000000E+00  0.11410300522E+04  0.11410300522E+04  0.00000000000E+00 0.  1.
          2   -1    0    0  501    0  0.00000000000E+00 -0.00000000000E+00 -0.71465872938E+03  0.71465872938E+03  0.00000000000E+00 0. -1.
         23    2    1    2    0    0 -0.54471595572E+03  0.20998801776E+02  0.57518994406E+03  0.79709791159E+03  0.85820666627E+02 0.  0.
        254    2    1    2    0    0  0.54471595572E+03 -0.20998801776E+02 -0.14881862121E+03  0.10585908700E+04  0.89515988851E+03 0.  0.
        -24    2    4    4    0    0  0.63646229666E+03 -0.28005040939E+03  0.62148206574E+02  0.70317121382E+03  0.84112243425E+02 0.  0.
         24    2    4    4    0    0 -0.91746340943E+02  0.25905160761E+03 -0.21096682778E+03  0.35541965621E+03  0.79315844009E+02 0.  0.
         13    1    3    3    0    0 -0.32100275988E+03  0.25412267126E+02  0.28022252707E+03  0.42686440452E+03  0.00000000000E+00 0. -1.
        -13    1    3    3    0    0 -0.22371319584E+03 -0.44134653495E+01  0.29496741699E+03  0.37023350707E+03  0.00000000000E+00 0.  1.
          4    1    6    6  502    0 -0.53619159069E+01  0.64946761642E+01  0.68874738410E+01  0.10879717670E+02  0.00000000000E+00 0. -1.
          3    1    5    5  503    0  0.44526326694E+03 -0.15497067804E+03  0.29627760401E+02  0.47239082561E+03  0.00000000000E+00 0. -1.
         -4    1    5    5    0  503  0.19119902972E+03 -0.12507973135E+03  0.32520446173E+02  0.23078038821E+03  0.00000000000E+00 0.  1.
         -3    1    6    6    0  502 -0.86384425036E+02  0.25255693145E+03 -0.21785430162E+03  0.34453993854E+03  0.00000000000E+00 0.  1.
<mgrwt>
<rscale>  0 0.18060422E+04</rscale>
<asrwt>0</asrwt>
<pdfrwt beam="1">  1        2 0.10994750E+00 0.18060422E+04</pdfrwt>
<pdfrwt beam="2">  1       -2 0.17554309E+00 0.18060422E+04</pdfrwt>
<totfact> 0.73289318E+00</totfact>
</mgrwt>
</event>
<event>
12    1  0.2083715E-007  0.3883285E+04  0.7818608E-02  0.8028515E-01
         -2   -1    0    0    0  501 -0.00000000000E+00  0.00000000000E+00  0.25403563018E+04  0.25403563018E+04  0.00000000000E+00 0.  1.
          2   -1    0    0  501    0  0.00000000000E+00 -0.00000000000E+00 -0.14840345248E+04  0.14840345248E+04  0.00000000000E+00 0. -1.
         23    2    1    2    0    0 -0.15260704576E+04 -0.38960376667E+03  0.14847701571E+04  0.21664644603E+04  0.91343866667E+02 0.  0.
        254    2    1    2    0    0  0.15260704576E+04  0.38960376667E+03 -0.42844838002E+03  0.18579263663E+04  0.88749097555E+03 0.  0.
        -24    2    4    4    0    0  0.24414284337E+03 -0.24638608760E+03 -0.19453842567E+03  0.40569958675E+03  0.80219221486E+02 0.  0.
         24    2    4    4    0    0  0.12819276142E+04  0.63598985427E+03 -0.23390995435E+03  0.14522267795E+04  0.80170129383E+02 0.  0.
         11    1    3    3    0    0 -0.30975704968E+03 -0.10849421415E+03  0.27711385526E+03  0.42954919754E+03  0.00000000000E+00 0. -1.
        -11    1    3    3    0    0 -0.12163134079E+04 -0.28110955252E+03  0.12076563018E+04  0.17369152628E+04  0.00000000000E+00 0.  1.
          2    1    6    6  502    0  0.16298960795E+03  0.90968099378E+02 -0.56558717683E+02  0.19503767828E+03  0.00000000000E+00 0. -1.
          1    1    5    5  503    0  0.41012232223E+02 -0.84030652869E+01 -0.34561560491E+02  0.54287348081E+02  0.00000000000E+00 0. -1.
         -2    1    5    5    0  503  0.20313061114E+03 -0.23798302231E+03 -0.15997686518E+03  0.35141223866E+03  0.00000000000E+00 0.  1.
         -1    1    6    6    0  502  0.11189380063E+04  0.54502175489E+03 -0.17735123667E+03  0.12571891012E+04  0.00000000000E+00 0.  1.
<mgrwt>
<rscale>  0 0.38832854E+04</rscale>
<asrwt>0</asrwt>
<pdfrwt beam="1">  1        2 0.22831300E+00 0.38832854E+04</pdfrwt>
<pdfrwt beam="2">  1       -2 0.39082405E+00 0.38832854E+04</pdfrwt>
<totfact> 0.87880096E-02</totfact>
</mgrwt>
</event>
<event>
12    1  0.2322263E-007  0.2134811E+04  0.7818608E-02  0.8546062E-01
          1   -1    0    0  501    0  0.00000000000E+00  0.00000000000E+00  0.10997949549E+04  0.10997949549E+04  0.00000000000E+00 0. -1.
         -1   -1    0    0    0  501 -0.00000000000E+00 -0.00000000000E+00 -0.10359700295E+04  0.10359700295E+04  0.00000000000E+00 0.  1.
         23    2    1    2    0    0  0.44564102718E+02  0.86725638556E+03  0.13756161925E+03  0.88352823572E+03  0.87059443372E+02 0.  0.
        254    2    1    2    0    0 -0.44564102718E+02 -0.86725638556E+03 -0.73736693824E+02  0.12522367487E+04  0.89918862155E+03 0.  0.
        -24    2    4    4    0    0 -0.33282977869E+03 -0.53388485000E+03 -0.35150129863E+03  0.72520592386E+03  0.81004780288E+02 0.  0.
         24    2    4    4    0    0  0.28826567597E+03 -0.33337153556E+03  0.27776460481E+03  0.52703082479E+03  0.79841304689E+02 0.  0.
         13    1    3    3    0    0  0.16632324302E+02  0.44989211788E+03  0.11482947194E+03  0.46461312892E+03  0.00000000000E+00 0. -1.
        -13    1    3    3    0    0  0.27931778415E+02  0.41736426768E+03  0.22732147310E+02  0.41891510680E+03  0.00000000000E+00 0.  1.
          2    1    6    6  502    0  0.54460625122E+02 -0.90356573091E+02  0.33701593182E+02  0.11075227931E+03  0.00000000000E+00 0. -1.
          3    1    5    5  503    0  0.31834176418E+01 -0.11980969679E+02 -0.13882974537E+02  0.18612220832E+02  0.00000000000E+00 0. -1.
         -4    1    5    5    0  503 -0.33601319633E+03 -0.52190388032E+03 -0.33761832410E+03  0.70659370303E+03  0.00000000000E+00 0.  1.
         -1    1    6    6    0  502  0.23380505085E+03 -0.24301496247E+03  0.24406301163E+03  0.41627854548E+03  0.00000000000E+00 0.  1.
<mgrwt>
<rscale>  0 0.21348111E+04</rscale>
<asrwt>0</asrwt>
<pdfrwt beam="1">  1        1 0.16919922E+00 0.21348111E+04</pdfrwt>
<pdfrwt beam="2">  1       -1 0.15938000E+00 0.21348111E+04</pdfrwt>
<totfact> 0.34358342E+00</totfact>
</mgrwt>
</event>
<event>
12    1  0.2083715E-007  0.1563134E+04  0.7818608E-02  0.8843522E-01
         -1   -1    0    0    0  501 -0.00000000000E+00  0.00000000000E+00  0.67952708299E+03  0.67952708299E+03  0.00000000000E+00 0.  1.
          1   -1    0    0  501    0  0.00000000000E+00 -0.00000000000E+00 -0.89892906175E+03  0.89892906175E+03  0.00000000000E+00 0. -1.
         23    2    1    2    0    0 -0.33737711976E+03  0.35542233629E+03  0.94093915870E+02  0.50725528708E+03  0.91136728009E+02 0.  0.
        254    2    1    2    0    0  0.33737711976E+03 -0.35542233629E+03 -0.31349589463E+03  0.10712008577E+04  0.89946831154E+03 0.  0.
        -24    2    4    4    0    0  0.89365732836E+02  0.23910471874E+03  0.11699250736E+03  0.29237060399E+03  0.81461785946E+02 0.  0.
         24    2    4    4    0    0  0.24801138693E+03 -0.59452705503E+03 -0.43048840199E+03  0.77883025368E+03  0.79273151854E+02 0.  0.
         11    1    3    3    0    0 -0.76910951240E+02  0.33012564655E+02  0.22188912415E+02  0.86587941886E+02  0.00000000000E+00 0. -1.
        -11    1    3    3    0    0 -0.26046616852E+03  0.32240977163E+03  0.71905003456E+02  0.42066734519E+03  0.00000000000E+00 0.  1.
          2    1    6    6  502    0  0.13384788632E+03 -0.30368901463E+03 -0.17476751693E+03  0.37508127020E+03  0.00000000000E+00 0. -1.
          3    1    5    5  503    0  0.62671562386E+02  0.22974621848E+03  0.94400257096E+02  0.25616880797E+03  0.00000000000E+00 0. -1.
         -4    1    5    5    0  503  0.26694170450E+02  0.93585002633E+01  0.22592250259E+02  0.36201796018E+02  0.00000000000E+00 0.  1.
         -3    1    6    6    0  502  0.11416350061E+03 -0.29083804040E+03 -0.25572088505E+03  0.40374898349E+03  0.00000000000E+00 0.  1.
<mgrwt>
<rscale>  0 0.15631336E+04</rscale>
<asrwt>0</asrwt>
<pdfrwt beam="1">  1        1 0.13829678E+00 0.15631336E+04</pdfrwt>
<pdfrwt beam="2">  1       -1 0.10454263E+00 0.15631336E+04</pdfrwt>
<totfact> 0.15097242E+01</totfact>
</mgrwt>
</event>
<event>
12    1  0.2083715E-007  0.1521952E+04  0.7818608E-02  0.8869985E-01
         -2   -1    0    0    0  501 -0.00000000000E+00  0.00000000000E+00  0.36237018777E+03  0.36237018777E+03  0.00000000000E+00 0.  1.
          2   -1    0    0  501    0  0.00000000000E+00 -0.00000000000E+00 -0.15980459419E+04  0.15980459419E+04  0.00000000000E+00 0. -1.
         23    2    1    2    0    0  0.14026628799E+03 -0.38792460894E+03 -0.74372689526E+03  0.85541335470E+03  0.91881330498E+02 0.  0.
        254    2    1    2    0    0 -0.14026628799E+03  0.38792460894E+03 -0.49194885890E+03  0.11050027750E+04  0.89936495331E+03 0.  0.
        -24    2    4    4    0    0  0.26862562211E+03 -0.11410436890E+02  0.80692987616E+02  0.29189340980E+03  0.80003009383E+02 0.  0.
         24    2    4    4    0    0 -0.40889191009E+03  0.39933504583E+03 -0.57264184651E+03  0.81310936522E+03  0.81037537346E+02 0.  0.
         13    1    3    3    0    0  0.14527835552E+02 -0.15756756980E+03 -0.24094115745E+03  0.28825550890E+03  0.00000000000E+00 0.  1.
        -13    1    3    3    0    0  0.12573845244E+03 -0.23035703913E+03 -0.50278573781E+03  0.56715784579E+03  0.00000000000E+00 0. -1.
          2    1    6    6  502    0 -0.26236823083E+03  0.23030723302E+03 -0.39724319497E+03  0.52884843394E+03  0.00000000000E+00 0. -1.
          1    1    5    5  503    0  0.17512394495E+03  0.30963234696E+02  0.52949856147E+02  0.18555539675E+03  0.00000000000E+00 0. -1.
         -2    1    5    5    0  503  0.93501677156E+02 -0.42373671585E+02  0.27743131469E+02  0.10633801305E+03  0.00000000000E+00 0.  1.
         -1    1    6    6    0  502 -0.14652367926E+03  0.16902781281E+03 -0.17539865154E+03  0.28426093128E+03  0.00000000000E+00 0.  1.
<mgrwt>
<rscale>  0 0.15219517E+04</rscale>
<asrwt>0</asrwt>
<pdfrwt beam="1">  1        2 0.24585323E+00 0.15219517E+04</pdfrwt>
<pdfrwt beam="2">  1       -2 0.55749259E-01 0.15219517E+04</pdfrwt>
<totfact> 0.32590556E+01</totfact>
</mgrwt>
</event>
<event>
12    1  0.2083715E-007  0.6829600E+04  0.7818608E-02  0.7595269E-01
          2   -1    0    0  501    0  0.00000000000E+00  0.00000000000E+00  0.25112655066E+04  0.25112655066E+04  0.00000000000E+00 0. -1.
         -2   -1    0    0    0  501 -0.00000000000E+00 -0.00000000000E+00 -0.46434200470E+04  0.46434200470E+04  0.00000000000E+00 0.  1.
         23    2    1    2    0    0  0.18391386317E+04 -0.23968649098E+04  0.48319207684E+03  0.30609578313E+04  0.92714397640E+02 0.  0.
        254    2    1    2    0    0 -0.18391386317E+04  0.23968649098E+04 -0.26153466172E+04  0.40937277224E+04  0.88948099164E+03 0.  0.
        -24    2    4    4    0    0 -0.43491871464E+03  0.36519273798E+03 -0.96303051892E+03  0.11211743824E+04  0.84167637353E+02 0.  0.
         24    2    4    4    0    0 -0.14042199170E+04  0.20316721718E+04 -0.16523160983E+04  0.29725533400E+04  0.79996757594E+02 0.  0.
         13    1    3    3    0    0  0.87091982430E+03 -0.10631916251E+04  0.20473694112E+03  0.13895304916E+04  0.00000000000E+00 0. -1.
        -13    1    3    3    0    0  0.96821880737E+03 -0.13336732846E+04  0.27845513572E+03  0.16714273396E+04  0.00000000000E+00 0.  1.
          4    1    6    6  502    0 -0.29412547618E+03  0.46502521963E+03 -0.39786713119E+03  0.67901141721E+03  0.00000000000E+00 0. -1.
          3    1    5    5  503    0 -0.23184490439E+03  0.14018542476E+03 -0.46410504959E+03  0.53739883705E+03  0.00000000000E+00 0. -1.
         -4    1    5    5    0  503 -0.20307381025E+03  0.22500731322E+03 -0.49892546932E+03  0.58377554535E+03  0.00000000000E+00 0.  1.
         -3    1    6    6    0  502 -0.11100944409E+04  0.15666469521E+04 -0.12544489671E+04  0.22935419228E+04  0.00000000000E+00 0.  1.
<mgrwt>
<rscale>  0 0.68296005E+04</rscale>
<asrwt>0</asrwt>
<pdfrwt beam="1">  1        2 0.38634854E+00 0.68296005E+04</pdfrwt>
<pdfrwt beam="2">  1       -2 0.71437231E+00 0.68296005E+04</pdfrwt>
<totfact> 0.44638344E-04</totfact>
</mgrwt>
</event>
<event>
12    1  0.2083715E-007  0.3467004E+04  0.7818608E-02  0.8121654E-01
         -1   -1    0    0    0  501 -0.00000000000E+00  0.00000000000E+00  0.15706117869E+04  0.15706117869E+04  0.00000000000E+00 0.  1.
          1   -1    0    0  501    0  0.00000000000E+00 -0.00000000000E+00 -0.19132857259E+04  0.19132857259E+04  0.00000000000E+00 0. -1.
         23    2    1    2    0    0  0.13752066336E+04  0.47927880754E+03  0.54203219927E+03  0.15566216878E+04  0.91491603666E+02 0.  0.
        254    2    1    2    0    0 -0.13752066336E+04 -0.47927880754E+03 -0.88470613826E+03  0.19272758250E+04  0.90043639103E+03 0.  0.
        -24    2    4    4    0    0 -0.13378144081E+04 -0.67218582469E+03 -0.79175140375E+03  0.16955924301E+04  0.81130945802E+02 0.  0.
         24    2    4    4    0    0 -0.37392225486E+02  0.19290701715E+03 -0.92954734507E+02  0.23168339490E+03  0.80158075153E+02 0.  0.
         11    1    3    3    0    0  0.15090746930E+03  0.72902070738E+02  0.39303516774E+02  0.17214105448E+03  0.00000000000E+00 0. -1.
        -11    1    3    3    0    0  0.12242991643E+04  0.40637673680E+03  0.50272868249E+03  0.13844806333E+04  0.00000000000E+00 0.  1.
          4    1    6    6  502    0 -0.80695546458E+01  0.17359922242E+03 -0.60916423422E+02  0.18415379002E+03  0.00000000000E+00 0. -1.
          1    1    5    5  503    0 -0.10605466557E+04 -0.52481439045E+03 -0.66154940584E+03  0.13556684586E+04  0.00000000000E+00 0. -1.
         -2    1    5    5    0  503 -0.27726775237E+03 -0.14737143423E+03 -0.13020199791E+03  0.33992397149E+03  0.00000000000E+00 0.  1.
         -3    1    6    6    0  502 -0.29322670840E+02  0.19307794730E+02 -0.32038311085E+02  0.47529604877E+02  0.00000000000E+00 0.  1.
<mgrwt>
<rscale>  0 0.34670040E+04</rscale>
<asrwt>0</asrwt>
<pdfrwt beam="1">  1        1 0.29435165E+00 0.34670040E+04</pdfrwt>
<pdfrwt beam="2">  1       -1 0.24163258E+00 0.34670040E+04</pdfrwt>
<totfact> 0.22083153E-01</totfact>
</mgrwt>
</event>
<event>
12    1  0.2083715E-007  0.2847293E+04  0.7818608E-02  0.8288734E-01
          2   -1    0    0  501    0  0.00000000000E+00  0.00000000000E+00  0.21246935171E+04  0.21246935171E+04  0.00000000000E+00 0. -1.
         -2   -1    0    0    0  501 -0.00000000000E+00 -0.00000000000E+00 -0.95391153029E+03  0.95391153029E+03  0.00000000000E+00 0.  1.
         23    2    1    2    0    0 -0.38004973940E+03  0.10615809217E+03  0.18436006821E+04  0.18874992745E+04  0.89903788345E+02 0.  0.
        254    2    1    2    0    0  0.38004973940E+03 -0.10615809217E+03 -0.67281869533E+03  0.11911057729E+04  0.90018921369E+03 0.  0.
        -24    2    4    4    0    0  0.42726439937E+03 -0.11014804492E+03  0.60123930181E+02  0.45236374621E+03  0.79565150238E+02 0.  0.
         24    2    4    4    0    0 -0.47214659968E+02  0.39899527493E+01 -0.73294262551E+03  0.73874202667E+03  0.79307917874E+02 0.  0.
         11    1    3    3    0    0 -0.99164931745E+02  0.32450633158E+02  0.69340714412E+03  0.70121337323E+03  0.00000000000E+00 0. -1.
        -11    1    3    3    0    0 -0.28088480766E+03  0.73707459015E+02  0.11501935380E+04  0.11862859013E+04  0.00000000000E+00 0.  1.
          2    1    6    6  502    0 -0.38510696477E+02  0.53795027298E+01 -0.12895363140E+03  0.13468872204E+03  0.00000000000E+00 0. -1.
          1    1    5    5  503    0  0.27531695946E+03 -0.86653306571E+02  0.39146488321E+01  0.28865818572E+03  0.00000000000E+00 0. -1.
         -2    1    5    5    0  503  0.15194743991E+03 -0.23494738352E+02  0.56209281349E+02  0.16370556049E+03  0.00000000000E+00 0.  1.
         -1    1    6    6    0  502 -0.87039634913E+01 -0.13895499804E+01 -0.60398899411E+03  0.60405330463E+03  0.00000000000E+00 0.  1.
<mgrwt>
<rscale>  0 0.28472932E+04</rscale>
<asrwt>0</asrwt>
<pdfrwt beam="1">  1        2 0.32687592E+00 0.28472932E+04</pdfrwt>
<pdfrwt beam="2">  1       -2 0.14675562E+00 0.28472932E+04</pdfrwt>
<totfact> 0.15662496E+00</totfact>
</mgrwt>
</event>
<event>
12    1  0.2083715E-007  0.2562434E+04  0.7818608E-02  0.8381075E-01
         -2   -1    0    0    0  501 -0.00000000000E+00  0.00000000000E+00  0.17209835416E+04  0.17209835416E+04  0.00000000000E+00 0. -1.
          2   -1    0    0  501    0  0.00000000000E+00 -0.00000000000E+00 -0.95382516387E+03  0.95382516387E+03  0.00000000000E+00 0.  1.
         23    2    1    2    0    0 -0.39590794172E+03 -0.91167987823E+03  0.87860549052E+03  0.13292502726E+04  0.83996313119E+02 0.  0.
        254    2    1    2    0    0  0.39590794172E+03  0.91167987823E+03 -0.11144711277E+03  0.13455584329E+04  0.90011318101E+03 0.  0.
        -24    2    4    4    0    0 -0.47049011875E+02  0.85495770637E+03  0.56952443469E+02  0.86189394296E+03  0.80319978228E+02 0.  0.
         24    2    4    4    0    0  0.44295695359E+03  0.56722171862E+02 -0.16839955624E+03  0.48366448991E+03  0.78387886416E+02 0.  0.
         13    1    3    3    0    0 -0.23880574671E+03 -0.62755287032E+03  0.55936650378E+03  0.87392315181E+03  0.00000000000E+00 0. -1.
        -13    1    3    3    0    0 -0.15710219501E+03 -0.28412700791E+03  0.31923898674E+03  0.45532712082E+03  0.00000000000E+00 0.  1.
          4    1    6    6  502    0  0.84536624318E+02 -0.86439432312E+01 -0.72567178324E+01  0.85286684538E+02  0.00000000000E+00 0. -1.
          3    1    5    5  503    0 -0.16368011779E+02  0.28486413446E+02 -0.52809068227E+00  0.32858278111E+02  0.00000000000E+00 0. -1.
         -4    1    5    5    0  503 -0.30681000096E+02  0.82647129292E+03  0.57480534151E+02  0.82903566485E+03  0.00000000000E+00 0.  1.
         -3    1    6    6    0  502  0.35842032927E+03  0.65366115094E+02 -0.16114283841E+03  0.39837780537E+03  0.00000000000E+00 0.  1.
<mgrwt>
<rscale>  0 0.25624343E+04</rscale>
<asrwt>0</asrwt>
<pdfrwt beam="1">  1        2 0.14674233E+00 0.25624343E+04</pdfrwt>
<pdfrwt beam="2">  1       -2 0.26476670E+00 0.25624343E+04</pdfrwt>
<totfact> 0.12494677E+00</totfact>
</mgrwt>
</event>
<event>
12    1  0.2083715E-007  0.4030462E+04  0.7818608E-02  0.7998429E-01
          1   -1    0    0  501    0  0.00000000000E+00  0.00000000000E+00  0.16664471536E+04  0.16664471536E+04  0.00000000000E+00 0. -1.
         -1   -1    0    0    0  501 -0.00000000000E+00 -0.00000000000E+00 -0.24370150542E+04  0.24370150542E+04  0.00000000000E+00 0.  1.
         23    2    1    2    0    0  0.88803553607E+03  0.14316839136E+04  0.55762745466E+03  0.17770112733E+04  0.92166943956E+02 0.  0.
        254    2    1    2    0    0 -0.88803553607E+03 -0.14316839136E+04 -0.13281953553E+04  0.23264509345E+04  0.89996950346E+03 0.  0.
        -24    2    4    4    0    0 -0.40803606484E+03 -0.11455408566E+04 -0.48450659329E+03  0.13113330626E+04  0.78041513996E+02 0.  0.
         24    2    4    4    0    0 -0.47999947123E+03 -0.28614305701E+03 -0.84368876201E+03  0.10151178719E+04  0.79851269529E+02 0.  0.
         11    1    3    3    0    0  0.43810261730E+03  0.78006427306E+03  0.32168366471E+03  0.95074421036E+03  0.00000000000E+00 0.  1.
        -11    1    3    3    0    0  0.44993291877E+03  0.65161964052E+03  0.23594378995E+03  0.82626706296E+03  0.00000000000E+00 0. -1.
          4    1    6    6  502    0 -0.75986532167E+02 -0.18187968015E+02 -0.14499260677E+03  0.16470461824E+03  0.00000000000E+00 0. -1.
          1    1    5    5  503    0 -0.28837258120E+03 -0.71616456825E+03 -0.32940888709E+03  0.83938111088E+03  0.00000000000E+00 0. -1.
         -2    1    5    5    0  503 -0.11966348364E+03 -0.42937628832E+03 -0.15509770620E+03  0.47195195174E+03  0.00000000000E+00 0.  1.
         -3    1    6    6    0  502 -0.40401293906E+03 -0.26795508900E+03 -0.69869615523E+03  0.85041325365E+03  0.00000000000E+00 0.  1.
<mgrwt>
<rscale>  0 0.40304624E+04</rscale>
<asrwt>0</asrwt>
<pdfrwt beam="1">  1        1 0.25637649E+00 0.40304624E+04</pdfrwt>
<pdfrwt beam="2">  1       -1 0.37492539E+00 0.40304624E+04</pdfrwt>
<totfact> 0.41505953E-02</totfact>
</mgrwt>
</event>
<event>
12    1  0.2083715E-007  0.2014148E+04  0.7818608E-02  0.8600034E-01
          2   -1    0    0  501    0  0.00000000000E+00  0.00000000000E+00  0.88223141975E+03  0.88223141975E+03  0.00000000000E+00 0. -1.
         -2   -1    0    0    0  501 -0.00000000000E+00 -0.00000000000E+00 -0.11495832255E+04  0.11495832255E+04  0.00000000000E+00 0.  1.
         23    2    1    2    0    0 -0.72460606318E+03  0.32298641344E+03 -0.23065736991E+03  0.83138295898E+03  0.92847359282E+02 0.  0.
        254    2    1    2    0    0  0.72460606318E+03 -0.32298641344E+03 -0.36694435832E+02  0.12004316863E+04  0.90017530610E+03 0.  0.
        -24    2    4    4    0    0  0.87113153222E+03 -0.45192578503E+02 -0.47513488585E+02  0.87676935327E+03  0.74528193644E+02 0.  0.
         24    2    4    4    0    0 -0.14652546904E+03 -0.27779383494E+03  0.10819052753E+02  0.32366233300E+03  0.77466935503E+02 0.  0.
         13    1    3    3    0    0 -0.20788349388E+03  0.13191481144E+03 -0.46942009234E+02  0.25064041322E+03  0.00000000000E+00 0. -1.
        -13    1    3    3    0    0 -0.51672256930E+03  0.19107160200E+03 -0.18371536068E+03  0.58074254576E+03  0.00000000000E+00 0.  1.
          2    1    6    6  502    0 -0.67134349238E+02 -0.20507925239E+03  0.49808990841E+01  0.21584561604E+03  0.00000000000E+00 0. -1.
          3    1    5    5  503    0  0.27175468638E+03  0.48915819275E+01 -0.43714304720E+02  0.27529162279E+03  0.00000000000E+00 0. -1.
         -4    1    5    5    0  503  0.59937684584E+03 -0.50084160431E+02 -0.37991838656E+01  0.60147773048E+03  0.00000000000E+00 0.  1.
         -1    1    6    6    0  502 -0.79391119802E+02 -0.72714582549E+02  0.58381536687E+01  0.10781671696E+03  0.00000000000E+00 0.  1.
<mgrwt>
<rscale>  0 0.20141484E+04</rscale>
<asrwt>0</asrwt>
<pdfrwt beam="1">  1        2 0.13572791E+00 0.20141484E+04</pdfrwt>
<pdfrwt beam="2">  1       -2 0.17685896E+00 0.20141484E+04</pdfrwt>
<totfact> 0.53329757E+00</totfact>
</mgrwt>
</event>
<event>
12    1  0.2083715E-007  0.2063593E+04  0.7818608E-02  0.8577453E-01
         -1   -1    0    0    0  501 -0.00000000000E+00  0.00000000000E+00  0.48307208166E+03  0.48307208166E+03  0.00000000000E+00 0.  1.
          1   -1    0    0  501    0  0.00000000000E+00 -0.00000000000E+00 -0.22038193001E+04  0.22038193001E+04  0.00000000000E+00 0. -1.
         23    2    1    2    0    0  0.15792346296E+03  0.44319048400E+03 -0.15931550106E+04  0.16635570926E+04  0.89003860605E+02 0.  0.
        254    2    1    2    0    0 -0.15792346296E+03 -0.44319048400E+03 -0.12759220783E+03  0.10233342892E+04  0.89976423059E+03 0.  0.
        -24    2    4    4    0    0 -0.17935536954E+03 -0.59014107250E+03  0.20165070436E+03  0.65392136496E+03  0.80717476103E+02 0.  0.
         24    2    4    4    0    0  0.21431906575E+02  0.14695058850E+03 -0.32924291220E+03  0.36941292422E+03  0.77532001567E+02 0.  0.
         11    1    3    3    0    0  0.12953250759E+03  0.38225883745E+03 -0.14545947010E+04  0.15095516664E+04  0.00000000000E+00 0. -1.
        -11    1    3    3    0    0  0.28390955373E+02  0.60931646554E+02 -0.13856030962E+03  0.15400542621E+03  0.00000000000E+00 0.  1.
          2    1    6    6  502    0 -0.12474492260E+02 -0.31856734203E+01 -0.17311860686E+02  0.21574568192E+02  0.00000000000E+00 0. -1.
          3    1    5    5  503    0 -0.23387627321E+02 -0.17057106290E+03  0.81333959437E+02  0.19041187349E+03  0.00000000000E+00 0. -1.
         -4    1    5    5    0  503 -0.15596774222E+03 -0.41957000961E+03  0.12031674492E+03  0.46350949147E+03  0.00000000000E+00 0.  1.
         -1    1    6    6    0  502  0.33906398835E+02  0.15013626192E+03 -0.31193105151E+03  0.34783835602E+03  0.00000000000E+00 0.  1.
<mgrwt>
<rscale>  0 0.20635926E+04</rscale>
<asrwt>0</asrwt>
<pdfrwt beam="1">  1        1 0.33904913E+00 0.20635926E+04</pdfrwt>
<pdfrwt beam="2">  1       -1 0.74318781E-01 0.20635926E+04</pdfrwt>
<totfact> 0.36407768E+00</totfact>
</mgrwt>
</event>
<event>
12    1  0.2083715E-007  0.1167255E+04  0.7818608E-02  0.9142011E-01
          2   -1    0    0  501    0  0.00000000000E+00  0.00000000000E+00  0.36931590367E+04  0.36931590367E+04  0.00000000000E+00 0. -1.
         -2   -1    0    0    0  501 -0.00000000000E+00 -0.00000000000E+00 -0.92230293114E+02  0.92230293114E+02  0.00000000000E+00 0.  1.
         23    2    1    2    0    0  0.19959760228E+03  0.96596655645E+02  0.71296062217E+03  0.75228782047E+03  0.91945632546E+02 0.  0.
        254    2    1    2    0    0 -0.19959760228E+03 -0.96596655645E+02  0.28879681215E+04  0.30331015094E+04  0.90009709419E+03 0.  0.
        -24    2    4    4    0    0 -0.38612859976E+03 -0.37373407069E+03  0.21733499253E+04  0.22402293430E+04  0.80032245842E+02 0.  0.
         24    2    4    4    0    0  0.18653099748E+03  0.27713741504E+03  0.71461819616E+03  0.79287216637E+03  0.79800664674E+02 0.  0.
         11    1    3    3    0    0  0.19000959549E+03  0.81704331060E+02  0.70109809441E+03  0.73097043858E+03  0.00000000000E+00 0. -1.
        -11    1    3    3    0    0  0.95880067918E+01  0.14892324584E+02  0.11862527758E+02  0.21317381888E+02  0.00000000000E+00 0.  1.
          2    1    6    6  502    0  0.39597407303E+02  0.10399597724E+03  0.30269784879E+03  0.32250442727E+03  0.00000000000E+00 0. -1.
          1    1    5    5  503    0 -0.28178000931E+02 -0.39750348638E+01  0.10075078984E+03  0.10469251307E+03  0.00000000000E+00 0. -1.
         -2    1    5    5    0  503 -0.35795059883E+03 -0.36975903582E+03  0.20725991355E+04  0.21355368300E+04  0.00000000000E+00 0.  1.
         -1    1    6    6    0  502  0.14693359018E+03  0.17314143780E+03  0.41192034736E+03  0.47036773909E+03  0.00000000000E+00 0.  1.
<mgrwt>
<rscale>  0 0.11672551E+04</rscale>
<asrwt>0</asrwt>
<pdfrwt beam="1">  1        2 0.56817820E+00 0.11672551E+04</pdfrwt>
<pdfrwt beam="2">  1       -2 0.14189279E-01 0.11672551E+04</pdfrwt>
<totfact> 0.23278583E+01</totfact>
</mgrwt>
</event>
<event>
12    1  0.2083715E-007  0.1773522E+04  0.7818608E-02  0.8720508E-01
          1   -1    0    0  501    0  0.00000000000E+00  0.00000000000E+00  0.17022822094E+04  0.17022822094E+04  0.00000000000E+00 0. -1.
         -1   -1    0    0    0  501 -0.00000000000E+00 -0.00000000000E+00 -0.46193592752E+03  0.46193592752E+03  0.00000000000E+00 0.  1.
         23    2    1    2    0    0 -0.55186300274E+03 -0.27364975117E+03  0.72621615491E+03  0.95686339836E+03  0.93598607714E+02 0.  0.
        254    2    1    2    0    0  0.55186300274E+03  0.27364975117E+03  0.51413012699E+03  0.12073547386E+04  0.90218552260E+03 0.  0.
        -24    2    4    4    0    0  0.30898719252E+03  0.59784302660E+03  0.28465878155E+03  0.73502237555E+03  0.79610935463E+02 0.  0.
         24    2    4    4    0    0  0.24287581022E+03 -0.32419327543E+03  0.22947134544E+03  0.47233236304E+03  0.79692055924E+02 0.  0.
         13    1    3    3    0    0 -0.20155324231E+03 -0.14467493562E+03  0.32447857483E+03  0.40846161632E+03  0.00000000000E+00 0. -1.
        -13    1    3    3    0    0 -0.35030976044E+03 -0.12897481555E+03  0.40173758007E+03  0.54840178204E+03  0.00000000000E+00 0.  1.
          4    1    6    6  502    0  0.24076266073E+03 -0.28293254666E+03  0.20500378461E+03  0.42431596301E+03  0.00000000000E+00 0. -1.
          3    1    5    5  503    0  0.14541076397E+03  0.35819567160E+03  0.18156236612E+03  0.42709872655E+03  0.00000000000E+00 0. -1.
         -4    1    5    5    0  503  0.16357642855E+03  0.23964735499E+03  0.10309641544E+03  0.30792364899E+03  0.00000000000E+00 0.  1.
         -3    1    6    6    0  502  0.21131494897E+01 -0.41260728762E+02  0.24467560831E+02  0.48016400029E+02  0.00000000000E+00 0.  1.
<mgrwt>
<rscale>  0 0.17735223E+04</rscale>
<asrwt>0</asrwt>
<pdfrwt beam="1">  1        1 0.26188957E+00 0.17735223E+04</pdfrwt>
<pdfrwt beam="2">  1       -1 0.71067067E-01 0.17735223E+04</pdfrwt>
<totfact> 0.89814015E+00</totfact>
</mgrwt>
</event>
<event>
12    1  0.2083715E-007  0.3011561E+04  0.7818608E-02  0.8240437E-01
         -2   -1    0    0    0  501 -0.00000000000E+00  0.00000000000E+00  0.12295484844E+04  0.12295484844E+04  0.00000000000E+00 0.  1.
          2   -1    0    0  501    0  0.00000000000E+00 -0.00000000000E+00 -0.18440707912E+04  0.18440707912E+04  0.00000000000E+00 0. -1.
         23    2    1    2    0    0  0.11836935774E+04  0.21675005688E+03  0.38779788263E+03  0.12672914898E+04  0.86772403252E+02 0.  0.
        254    2    1    2    0    0 -0.11836935774E+04 -0.21675005688E+03 -0.10023201895E+04  0.18063277858E+04  0.90003513005E+03 0.  0.
        -24    2    4    4    0    0 -0.93246292239E+03  0.56289196080E+02 -0.26054720351E+03  0.97309280357E+03  0.79807166918E+02 0.  0.
         24    2    4    4    0    0 -0.25123065500E+03 -0.27303925296E+03 -0.74177298599E+03  0.83323498227E+03  0.79913060626E+02 0.  0.
         11    1    3    3    0    0  0.10353140312E+04  0.21594369484E+03  0.35221662048E+03  0.11147032656E+04  0.00000000000E+00 0.  1.
        -11    1    3    3    0    0  0.14837954619E+03  0.80636203455E+00  0.35581262147E+02  0.15258822420E+03  0.00000000000E+00 0. -1.
          2    1    6    6  502    0 -0.25137742001E+03 -0.24730076949E+03 -0.67269405141E+03  0.75951666518E+03  0.00000000000E+00 0. -1.
          1    1    5    5  503    0 -0.66188695552E+03  0.65520282524E+02 -0.15834334738E+03  0.68371036628E+03  0.00000000000E+00 0. -1.
         -2    1    5    5    0  503 -0.27057596687E+03 -0.92310864438E+01 -0.10220385613E+03  0.28938243729E+03  0.00000000000E+00 0.  1.
         -1    1    6    6    0  502  0.14676501370E+00 -0.25738483473E+02 -0.69078934586E+02  0.73718317092E+02  0.00000000000E+00 0.  1.
<mgrwt>
<rscale>  0 0.30115607E+04</rscale>
<asrwt>0</asrwt>
<pdfrwt beam="1">  1        2 0.28370320E+00 0.30115607E+04</pdfrwt>
<pdfrwt beam="2">  1       -2 0.18916131E+00 0.30115607E+04</pdfrwt>
<totfact> 0.10954169E+00</totfact>
</mgrwt>
</event>
<event>
12    1  0.2083715E-007  0.1572910E+04  0.7818608E-02  0.8837366E-01
          2   -1    0    0  501    0  0.00000000000E+00  0.00000000000E+00  0.12697089503E+04  0.12697089503E+04  0.00000000000E+00 0. -1.
         -2   -1    0    0    0  501 -0.00000000000E+00 -0.00000000000E+00 -0.48712830644E+03  0.48712830644E+03  0.00000000000E+00 0.  1.
         23    2    1    2    0    0  0.46708005169E+03 -0.63429932617E+02  0.63774580179E+01  0.47936025880E+03  0.86939373779E+02 0.  0.
        254    2    1    2    0    0 -0.46708005169E+03  0.63429932617E+02  0.77620318586E+03  0.12774769980E+04  0.89848147646E+03 0.  0.
        -24    2    4    4    0    0 -0.41041910411E+03  0.35456357408E+03  0.80062604239E+03  0.97030525150E+03  0.79567909702E+02 0.  0.
         24    2    4    4    0    0 -0.56660947571E+02 -0.29113364147E+03 -0.24422856530E+02  0.30717174645E+03  0.76083807248E+02 0.  0.
         13    1    3    3    0    0  0.38328698722E+03 -0.44945536759E+02  0.38295283423E+02  0.38780864428E+03  0.00000000000E+00 0. -1.
        -13    1    3    3    0    0  0.83793064469E+02 -0.18484395858E+02 -0.31917825405E+02  0.91551614523E+02  0.00000000000E+00 0.  1.
          4    1    6    6  502    0 -0.13562292974E+02 -0.15097626797E+03  0.22428845791E+02  0.15323453398E+03  0.00000000000E+00 0. -1.
          1    1    5    5  503    0 -0.81236144144E+02  0.10279715157E+03  0.15303062502E+03  0.20145703681E+03  0.00000000000E+00 0. -1.
         -2    1    5    5    0  503 -0.32918295997E+03  0.25176642252E+03  0.64759541737E+03  0.76884821469E+03  0.00000000000E+00 0.  1.
         -3    1    6    6    0  502 -0.43098654596E+02 -0.14015737349E+03 -0.46851702322E+02  0.15393721247E+03  0.00000000000E+00 0.  1.
<mgrwt>
<rscale>  0 0.15729096E+04</rscale>
<asrwt>0</asrwt>
<pdfrwt beam="1">  1        2 0.19533984E+00 0.15729096E+04</pdfrwt>
<pdfrwt beam="2">  1       -2 0.74942817E-01 0.15729096E+04</pdfrwt>
<totfact> 0.26470258E+01</totfact>
</mgrwt>
</event>
<event>
12    1  0.2083715E-007  0.3375697E+04  0.7818608E-02  0.8143897E-01
          1   -1    0    0  501    0  0.00000000000E+00  0.00000000000E+00  0.14929310666E+04  0.14929310666E+04  0.00000000000E+00 0. -1.
         -1   -1    0    0    0  501 -0.00000000000E+00 -0.00000000000E+00 -0.19082143211E+04  0.19082143211E+04  0.00000000000E+00 0.  1.
         23    2    1    2    0    0  0.12356457831E+04  0.29268399081E+03  0.73128218862E+03  0.14682097118E+04  0.91551616908E+02 0.  0.
        254    2    1    2    0    0 -0.12356457831E+04 -0.29268399081E+03 -0.11465654431E+04  0.19329356759E+04  0.89952409181E+03 0.  0.
        -24    2    4    4    0    0 -0.56666821556E+03  0.89596939268E+02 -0.38022789989E+02  0.58052235504E+03  0.80124865642E+02 0.  0.
         24    2    4    4    0    0 -0.66897756759E+03 -0.38228093008E+03 -0.11085426531E+04  0.13524133208E+04  0.80531242758E+02 0.  0.
         11    1    3    3    0    0  0.63424631748E+03  0.14059354821E+03  0.42569340796E+03  0.77669158269E+03  0.00000000000E+00 0. -1.
        -11    1    3    3    0    0  0.60139946567E+03  0.15209044259E+03  0.30558878067E+03  0.69151812912E+03  0.00000000000E+00 0.  1.
          2    1    6    6  502    0 -0.33928640446E+03 -0.20934346981E+03 -0.63928102395E+03  0.75340572083E+03  0.00000000000E+00 0. -1.
          1    1    5    5  503    0 -0.46147147812E+03  0.10201334255E+03 -0.42356225563E+02  0.47450679344E+03  0.00000000000E+00 0. -1.
         -2    1    5    5    0  503 -0.10519673744E+03 -0.12416403278E+02  0.43334355743E+01  0.10601556160E+03  0.00000000000E+00 0.  1.
         -1    1    6    6    0  502 -0.32969116314E+03 -0.17293746026E+03 -0.46926162920E+03  0.59900759999E+03  0.00000000000E+00 0.  1.
<mgrwt>
<rscale>  0 0.33756969E+04</rscale>
<asrwt>0</asrwt>
<pdfrwt beam="1">  1        1 0.22968170E+00 0.33756969E+04</pdfrwt>
<pdfrwt beam="2">  1       -1 0.29357143E+00 0.33756969E+04</pdfrwt>
<totfact> 0.19823668E-01</totfact>
</mgrwt>
</event>
<event>
12    1  0.2083715E-007  0.1795303E+04  0.7818608E-02  0.8708801E-01
          2   -1    0    0  501    0  0.00000000000E+00  0.00000000000E+00  0.17892993940E+04  0.17892993940E+04  0.00000000000E+00 0.  1.
         -2   -1    0    0    0  501 -0.00000000000E+00 -0.00000000000E+00 -0.45033158468E+03  0.45033158468E+03  0.00000000000E+00 0. -1.
         23    2    1    2    0    0 -0.57799291847E+03  0.93697340818E+02  0.10481824974E+03  0.60199908162E+03  0.92525798085E+02 0.  0.
        254    2    1    2    0    0  0.57799291847E+03 -0.93697340818E+02  0.12341495596E+04  0.16376318971E+04  0.90324863101E+03 0.  0.
        -24    2    4    4    0    0  0.54459742495E+03 -0.26471830825E+03  0.12989263547E+04  0.14353931677E+04  0.80509209842E+02 0.  0.
         24    2    4    4    0    0  0.33395493522E+02  0.17102096743E+03 -0.64776795143E+02  0.20223872939E+03  0.79630648535E+02 0.  0.
         13    1    3    3    0    0 -0.12432302019E+03  0.57486974837E+02  0.11801355726E+02  0.13747813507E+03  0.00000000000E+00 0. -1.
        -13    1    3    3    0    0 -0.45366989828E+03  0.36210365980E+02  0.93016894015E+02  0.46452094654E+03  0.00000000000E+00 0.  1.
          2    1    6    6  502    0  0.73908163436E+01 -0.76167896764E+01 -0.69336102419E+01  0.12677326303E+02  0.00000000000E+00 0. -1.
          1    1    5    5  503    0  0.11590232343E+03 -0.21922605640E+02  0.26648701359E+03  0.29142628163E+03  0.00000000000E+00 0. -1.
         -2    1    5    5    0  503  0.42869510152E+03 -0.24279570261E+03  0.10324393411E+04  0.11439668861E+04  0.00000000000E+00 0.  1.
         -1    1    6    6    0  502  0.26004677179E+02  0.17863775711E+03 -0.57843184901E+02  0.18956140308E+03  0.00000000000E+00 0.  1.
<mgrwt>
<rscale>  0 0.17953028E+04</rscale>
<asrwt>0</asrwt>
<pdfrwt beam="1">  1        2 0.27527683E+00 0.17953028E+04</pdfrwt>
<pdfrwt beam="2">  1       -2 0.69281783E-01 0.17953028E+04</pdfrwt>
<totfact> 0.15705629E+01</totfact>
</mgrwt>
</event>
<event>
12    1  0.2083715E-007  0.2042431E+04  0.7818608E-02  0.8587036E-01
          2   -1    0    0  501    0  0.00000000000E+00  0.00000000000E+00  0.92207305750E+03  0.92207305750E+03  0.00000000000E+00 0.  1.
         -2   -1    0    0    0  501 -0.00000000000E+00 -0.00000000000E+00 -0.11310180584E+04  0.11310180584E+04  0.00000000000E+00 0. -1.
         23    2    1    2    0    0 -0.49220156572E+03  0.64846630277E+03 -0.19009273762E+03  0.84075350186E+03  0.89220372523E+02 0.  0.
        254    2    1    2    0    0  0.49220156572E+03 -0.64846630277E+03 -0.18852263263E+02  0.12123376140E+04  0.89812925320E+03 0.  0.
        -24    2    4    4    0    0  0.15446674944E+03 -0.62408980195E+03 -0.34636417489E+03  0.73465584028E+03  0.80018775553E+02 0.  0.
         24    2    4    4    0    0  0.33773481628E+03 -0.24376500819E+02  0.32751191163E+03  0.47768177375E+03  0.79099967105E+02 0.  0.
         11    1    3    3    0    0 -0.22886863396E+03  0.36927640156E+03 -0.11884207496E+03  0.45041020319E+03  0.00000000000E+00 0. -1.
        -11    1    3    3    0    0 -0.26333293176E+03  0.27918990121E+03 -0.71250662667E+02  0.39034329867E+03  0.00000000000E+00 0.  1.
          4    1    6    6  502    0  0.23188152146E+03 -0.43018195974E+02  0.18819936419E+03  0.30172604439E+03  0.00000000000E+00 0. -1.
          3    1    5    5  503    0  0.68760836612E+02 -0.37841921577E+03 -0.24136426464E+03  0.45407693595E+03  0.00000000000E+00 0. -1.
         -2    1    5    5    0  503  0.85705912824E+02 -0.24567058617E+03 -0.10499991025E+03  0.28057890433E+03  0.00000000000E+00 0.  1.
         -3    1    6    6    0  502  0.10585329482E+03  0.18641695155E+02  0.13931254744E+03  0.17595572936E+03  0.00000000000E+00 0.  1.
<mgrwt>
<rscale>  0 0.20424312E+04</rscale>
<asrwt>0</asrwt>
<pdfrwt beam="1">  1        2 0.14185739E+00 0.20424312E+04</pdfrwt>
<pdfrwt beam="2">  1       -2 0.17400278E+00 0.20424312E+04</pdfrwt>
<totfact> 0.52368801E+00</totfact>
</mgrwt>
</event>
<event>
12    1  0.2083715E-007  0.1942797E+04  0.7818608E-02  0.8633842E-01
         -2   -1    0    0    0  501 -0.00000000000E+00  0.00000000000E+00  0.16030192280E+04  0.16030192280E+04  0.00000000000E+00 0.  1.
          2   -1    0    0  501    0  0.00000000000E+00 -0.00000000000E+00 -0.58864837384E+03  0.58864837384E+03  0.00000000000E+00 0. -1.
         23    2    1    2    0    0  0.65638070044E+03 -0.19824068079E+02  0.83011310223E+03  0.10625869056E+04  0.93672578442E+02 0.  0.
        254    2    1    2    0    0 -0.65638070044E+03  0.19824068079E+02  0.18425775193E+03  0.11290806962E+04  0.89980202369E+03 0.  0.
        -24    2    4    4    0    0 -0.79676778875E+03  0.14540103558E+02  0.37085057470E+03  0.88263630202E+03  0.80413736944E+02 0.  0.
         24    2    4    4    0    0  0.14038708831E+03  0.52839645211E+01 -0.18659282277E+03  0.24644439419E+03  0.78622535413E+02 0.  0.
         13    1    3    3    0    0  0.29600654977E+03 -0.26806034239E+02  0.44482298179E+03  0.53498217363E+03  0.00000000000E+00 0.  1.
        -13    1    3    3    0    0  0.36037415067E+03  0.69819661594E+01  0.38529012044E+03  0.52760473200E+03  0.00000000000E+00 0. -1.
          2    1    6    6  502    0  0.26634826245E+02 -0.31547144142E+02 -0.43530273727E+02  0.59996008228E+02  0.00000000000E+00 0. -1.
          3    1    5    5  503    0 -0.41318280135E+03  0.46875180683E+02  0.20162377816E+03  0.46213575691E+03  0.00000000000E+00 0. -1.
         -4    1    5    5    0  503 -0.38358498740E+03 -0.32335077125E+02  0.16922679654E+03  0.42050054511E+03  0.00000000000E+00 0.  1.
         -1    1    6    6    0  502  0.11375226207E+03  0.36831108663E+02 -0.14306254904E+03  0.18644838596E+03  0.00000000000E+00 0.  1.
<mgrwt>
<rscale>  0 0.19427966E+04</rscale>
<asrwt>0</asrwt>
<pdfrwt beam="1">  1        2 0.90561289E-01 0.19427966E+04</pdfrwt>
<pdfrwt beam="2">  1       -2 0.24661834E+00 0.19427966E+04</pdfrwt>
<totfact> 0.31931189E+00</totfact>
</mgrwt>
</event>
<event>
12    1  0.2083715E-007  0.6380945E+04  0.7818608E-02  0.7644883E-01
          2   -1    0    0  501    0  0.00000000000E+00  0.00000000000E+00  0.29012475758E+04  0.29012475758E+04  0.00000000000E+00 0. -1.
         -2   -1    0    0    0  501 -0.00000000000E+00 -0.00000000000E+00 -0.35085307288E+04  0.35085307288E+04  0.00000000000E+00 0.  1.
         23    2    1    2    0    0  0.30316985261E+04 -0.74491397750E+03 -0.18412292825E+03  0.31288381112E+04  0.98152364708E+02 0.  0.
        254    2    1    2    0    0 -0.30316985261E+04  0.74491397750E+03 -0.42316022472E+03  0.32809401933E+04  0.91619386032E+03 0.  0.
        -24    2    4    4    0    0 -0.23200279814E+04  0.85656408025E+03 -0.57534997813E+03  0.25403884253E+04  0.79460027954E+02 0.  0.
         24    2    4    4    0    0 -0.71167054463E+03 -0.11165010275E+03  0.15218975341E+03  0.74055176801E+03  0.79463768561E+02 0.  0.
         13    1    3    3    0    0  0.24484002257E+04 -0.63983030229E+03 -0.13908339262E+03  0.25344408991E+04  0.00000000000E+00 0. -1.
        -13    1    3    3    0    0  0.58329830040E+03 -0.10508367522E+03 -0.45039535638E+02  0.59439721216E+03  0.00000000000E+00 0.  1.
          4    1    6    6  502    0 -0.58237062927E+03 -0.97956050522E+02  0.93541938649E+02  0.59791390012E+03  0.00000000000E+00 0. -1.
          3    1    5    5  503    0 -0.15379457125E+04  0.56056179343E+03 -0.34276121965E+03  0.16724209376E+04  0.00000000000E+00 0. -1.
         -4    1    5    5    0  503 -0.78208226889E+03  0.29600228682E+03 -0.23258875849E+03  0.86796748769E+03  0.00000000000E+00 0.  1.
         -3    1    6    6    0  502 -0.12929991536E+03 -0.13694052224E+02  0.58647814761E+02  0.14263786789E+03  0.00000000000E+00 0.  1.
<mgrwt>
<rscale>  0 0.63809455E+04</rscale>
<asrwt>0</asrwt>
<pdfrwt beam="1">  1        2 0.44634578E+00 0.63809455E+04</pdfrwt>
<pdfrwt beam="2">  1       -2 0.53977396E+00 0.63809455E+04</pdfrwt>
<totfact> 0.12916793E-03</totfact>
</mgrwt>
</event>
<event>
12    1  0.2083715E-007  0.1555802E+04  0.7818608E-02  0.8848170E-01
         -2   -1    0    0    0  501 -0.00000000000E+00  0.00000000000E+00  0.24779413382E+03  0.24779413382E+03  0.00000000000E+00 0. -1.
          2   -1    0    0  501    0  0.00000000000E+00 -0.00000000000E+00 -0.24420677273E+04  0.24420677273E+04  0.00000000000E+00 0.  1.
         23    2    1    2    0    0 -0.50805694843E+03  0.41433217229E+02 -0.60423702180E+03  0.79444728100E+03  0.78775182859E+02 0.  0.
        254    2    1    2    0    0  0.50805694843E+03 -0.41433217229E+02 -0.15900365717E+04  0.18954145802E+04  0.89696240555E+03 0.  0.
        -24    2    4    4    0    0  0.13198429128E+03 -0.86406326827E+02 -0.14835946288E+04  0.14942447442E+04  0.82634294576E+02 0.  0.
         24    2    4    4    0    0  0.37607265715E+03  0.44973109598E+02 -0.10644194291E+03  0.40116983591E+03  0.78448237688E+02 0.  0.
         11    1    3    3    0    0 -0.48060710419E+03  0.48163035525E+02 -0.54139443731E+03  0.72554173094E+03  0.00000000000E+00 0. -1.
        -11    1    3    3    0    0 -0.27449844238E+02 -0.67298182955E+01 -0.62842584491E+02  0.68905550056E+02  0.00000000000E+00 0.  1.
          2    1    6    6  502    0  0.42904885589E+02 -0.19937632002E+02 -0.10962481758E+02  0.48564538334E+02  0.00000000000E+00 0. -1.
          3    1    5    5  503    0  0.21244350713E+02 -0.46665873249E+02 -0.26007077519E+03  0.26507703460E+03  0.00000000000E+00 0. -1.
         -4    1    5    5    0  503  0.11073994057E+03 -0.39740453578E+02 -0.12235238536E+04  0.12291677096E+04  0.00000000000E+00 0.  1.
         -1    1    6    6    0  502  0.33316777156E+03  0.64910741600E+02 -0.95479461150E+02  0.35260529758E+03  0.00000000000E+00 0.  1.
<mgrwt>
<rscale>  0 0.15558021E+04</rscale>
<asrwt>0</asrwt>
<pdfrwt beam="1">  1        2 0.37570274E+00 0.15558021E+04</pdfrwt>
<pdfrwt beam="2">  1       -2 0.38122173E-01 0.15558021E+04</pdfrwt>
<totfact> 0.23551284E+01</totfact>
</mgrwt>
</event>
<event>
12    1  0.2083715E-007  0.4198042E+04  0.7818608E-02  0.7965745E-01
          1   -1    0    0  501    0  0.00000000000E+00  0.00000000000E+00  0.28043191255E+04  0.28043191255E+04  0.00000000000E+00 0. -1.
         -1   -1    0    0    0  501 -0.00000000000E+00 -0.00000000000E+00 -0.15711086845E+04  0.15711086845E+04  0.00000000000E+00 0.  1.
         23    2    1    2    0    0  0.13010107050E+04  0.11285457471E+04 -0.47311964084E+03  0.17883977497E+04  0.90994278701E+02 0.  0.
        254    2    1    2    0    0 -0.13010107050E+04 -0.11285457471E+04  0.17063300818E+04  0.25870300602E+04  0.90272799151E+03 0.  0.
        -24    2    4    4    0    0 -0.79112617813E+03 -0.88069153384E+03  0.57405489565E+03  0.13182443396E+04  0.82042112552E+02 0.  0.
         24    2    4    4    0    0 -0.50988452683E+03 -0.24785421329E+03  0.11322751862E+04  0.12687857206E+04  0.79725565927E+02 0.  0.
         11    1    3    3    0    0  0.44166796730E+03  0.32900178565E+03 -0.13938305814E+03  0.56810246012E+03  0.00000000000E+00 0. -1.
        -11    1    3    3    0    0  0.85934273766E+03  0.79954396147E+03 -0.33373658271E+03  0.12202952896E+04  0.00000000000E+00 0.  1.
          2    1    6    6  502    0 -0.17180655559E+03 -0.93633428011E+02  0.31215754707E+03  0.36841151661E+03  0.00000000000E+00 0. -1.
          1    1    5    5  503    0 -0.45639726476E+03 -0.56015952466E+03  0.32771224546E+03  0.79339301244E+03  0.00000000000E+00 0. -1.
         -2    1    5    5    0  503 -0.33472891337E+03 -0.32053200917E+03  0.24634265019E+03  0.52485132719E+03  0.00000000000E+00 0.  1.
         -1    1    6    6    0  502 -0.33807797124E+03 -0.15422078528E+03  0.82011763912E+03  0.90037420401E+03  0.00000000000E+00 0.  1.
<mgrwt>
<rscale>  0 0.41980425E+04</rscale>
<asrwt>0</asrwt>
<pdfrwt beam="1">  1        1 0.43143371E+00 0.41980425E+04</pdfrwt>
<pdfrwt beam="2">  1       -1 0.24170903E+00 0.41980425E+04</pdfrwt>
<totfact> 0.50338902E-02</totfact>
</mgrwt>
</event>
<event>
12    1  0.2083715E-007  0.1903597E+04  0.7818608E-02  0.8653068E-01
         -2   -1    0    0    0  501 -0.00000000000E+00  0.00000000000E+00  0.56834965173E+03  0.56834965173E+03  0.00000000000E+00 0.  1.
          2   -1    0    0  501    0  0.00000000000E+00 -0.00000000000E+00 -0.15939482420E+04  0.15939482420E+04  0.00000000000E+00 0. -1.
         23    2    1    2    0    0  0.22592524845E+03 -0.63978200462E+03 -0.72501226505E+03  0.99725567575E+03  0.92265199413E+02 0.  0.
        254    2    1    2    0    0 -0.22592524845E+03  0.63978200462E+03 -0.30058632517E+03  0.11650422179E+04  0.89811357820E+03 0.  0.
        -24    2    4    4    0    0 -0.59491746433E+02  0.79368268368E+03 -0.26020730580E+02  0.80027088963E+03  0.79277664583E+02 0.  0.
         24    2    4    4    0    0 -0.16643350201E+03 -0.15390067906E+03 -0.27456559459E+03  0.36477132830E+03  0.79286358261E+02 0.  0.
         11    1    3    3    0    0  0.99625065297E+02 -0.21246724675E+03 -0.19732896147E+03  0.30660431115E+03  0.00000000000E+00 0.  1.
        -11    1    3    3    0    0  0.12630018315E+03 -0.42731475787E+03 -0.52768330358E+03  0.69065136461E+03  0.00000000000E+00 0. -1.
          4    1    6    6  502    0 -0.80033230459E+02 -0.34239515685E+02 -0.14104486019E+03  0.16574472841E+03  0.00000000000E+00 0. -1.
          3    1    5    5  503    0 -0.38294563982E+02  0.16305742718E+03  0.13611575725E+02  0.16804604483E+03  0.00000000000E+00 0. -1.
         -4    1    5    5    0  503 -0.21197182451E+02  0.63062525650E+03 -0.39632306305E+02  0.63222484480E+03  0.00000000000E+00 0.  1.
         -3    1    6    6    0  502 -0.86400271556E+02 -0.11966116337E+03 -0.13352073440E+03  0.19902659988E+03  0.00000000000E+00 0.  1.
<mgrwt>
<rscale>  0 0.19035965E+04</rscale>
<asrwt>0</asrwt>
<pdfrwt beam="1">  1        2 0.24522280E+00 0.19035965E+04</pdfrwt>
<pdfrwt beam="2">  1       -2 0.87438411E-01 0.19035965E+04</pdfrwt>
<totfact> 0.11885495E+01</totfact>
</mgrwt>
</event>
<event>
12    1  0.2083715E-007  0.4038501E+04  0.7818608E-02  0.7996824E-01
          2   -1    0    0  501    0  0.00000000000E+00  0.00000000000E+00  0.25560909699E+04  0.25560909699E+04  0.00000000000E+00 0. -1.
         -2   -1    0    0    0  501 -0.00000000000E+00 -0.00000000000E+00 -0.15951597618E+04  0.15951597618E+04  0.00000000000E+00 0.  1.
         23    2    1    2    0    0 -0.14108373807E+04 -0.11836869910E+04 -0.88645974035E+02  0.18461248353E+04  0.93497546914E+02 0.  0.
        254    2    1    2    0    0  0.14108373807E+04  0.11836869910E+04  0.10495771822E+04  0.23051258965E+04  0.90576825393E+03 0.  0.
        -24    2    4    4    0    0  0.27819461589E+03  0.33692482762E+03 -0.12896082657E+03  0.46237433310E+03  0.79047740933E+02 0.  0.
         24    2    4    4    0    0  0.11326427648E+04  0.84676216342E+03  0.11785380087E+04  0.18427515634E+04  0.83040305231E+02 0.  0.
         13    1    3    3    0    0 -0.10185185888E+03 -0.70494176498E+02 -0.26531691328E+02  0.12667738836E+03  0.00000000000E+00 0.  1.
        -13    1    3    3    0    0 -0.13089855218E+04 -0.11131928145E+04 -0.62114282707E+02  0.17194474469E+04  0.00000000000E+00 0. -1.
          2    1    6    6  502    0  0.35968518224E+03  0.28295929622E+03  0.33361270556E+03  0.56633632318E+03  0.00000000000E+00 0. -1.
          1    1    5    5  503    0  0.16141994365E+03  0.14122147260E+03 -0.42605054117E+02  0.21866662564E+03  0.00000000000E+00 0. -1.
         -2    1    5    5    0  503  0.11677467224E+03  0.19570335502E+03 -0.86355772448E+02  0.24370770746E+03  0.00000000000E+00 0.  1.
         -1    1    6    6    0  502  0.77295758255E+03  0.56380286720E+03  0.84492530317E+03  0.12764152402E+04  0.00000000000E+00 0.  1.
<mgrwt>
<rscale>  0 0.40385014E+04</rscale>
<asrwt>0</asrwt>
<pdfrwt beam="1">  1        2 0.39324476E+00 0.40385014E+04</pdfrwt>
<pdfrwt beam="2">  1       -2 0.24540919E+00 0.40385014E+04</pdfrwt>
<totfact> 0.17416372E-01</totfact>
</mgrwt>
</event>
<event>
12    1  0.2083715E-007  0.3113158E+04  0.7818608E-02  0.8212136E-01
         -1   -1    0    0    0  501 -0.00000000000E+00  0.00000000000E+00  0.13811649461E+04  0.13811649461E+04  0.00000000000E+00 0.  1.
          1   -1    0    0  501    0  0.00000000000E+00 -0.00000000000E+00 -0.17542711578E+04  0.17542711578E+04  0.00000000000E+00 0. -1.
         23    2    1    2    0    0  0.10065631681E+04  0.10082613024E+04 -0.20033452197E+03  0.14417313909E+04  0.93248150137E+02 0.  0.
        254    2    1    2    0    0 -0.10065631681E+04 -0.10082613024E+04 -0.17277168974E+03  0.16937047129E+04  0.89945835493E+03 0.  0.
        -24    2    4    4    0    0  0.19317058710E+02 -0.13449009777E+03 -0.29890614820E+03  0.33778673741E+03  0.79336368623E+02 0.  0.
         24    2    4    4    0    0 -0.10258802268E+04 -0.87377120467E+03  0.12613445846E+03  0.13559179755E+04  0.81837012878E+02 0.  0.
         11    1    3    3    0    0  0.77007804326E+03  0.78985544433E+03 -0.19200475106E+03  0.11197131955E+04  0.00000000000E+00 0. -1.
        -11    1    3    3    0    0  0.23648512487E+03  0.21840585811E+03 -0.83297709122E+01  0.32201819548E+03  0.00000000000E+00 0.  1.
          2    1    6    6  502    0 -0.38085350678E+03 -0.32973876893E+03  0.76501153574E+01  0.50382097379E+03  0.00000000000E+00 0. -1.
          1    1    5    5  503    0 -0.41609615449E+01  0.78187504563E+01 -0.44196365963E+02  0.45075106478E+02  0.00000000000E+00 0. -1.
         -4    1    5    5    0  503  0.23478020254E+02 -0.14230884822E+03 -0.25470978223E+03  0.29271163093E+03  0.00000000000E+00 0.  1.
         -1    1    6    6    0  502 -0.64502672005E+03 -0.54403243574E+03  0.11848434310E+03  0.85209700169E+03  0.00000000000E+00 0.  1.
<mgrwt>
<rscale>  0 0.31131578E+04</rscale>
<asrwt>0</asrwt>
<pdfrwt beam="1">  1        1 0.26988787E+00 0.31131578E+04</pdfrwt>
<pdfrwt beam="2">  1       -1 0.21248692E+00 0.31131578E+04</pdfrwt>
<totfact> 0.45620855E-01</totfact>
</mgrwt>
</event>
<event>
12    1  0.2083715E-007  0.1297267E+04  0.7818608E-02  0.9031735E-01
         -1   -1    0    0    0  501 -0.00000000000E+00  0.00000000000E+00  0.13764364079E+03  0.13764364079E+03  0.00000000000E+00 0.  1.
          1   -1    0    0  501    0  0.00000000000E+00 -0.00000000000E+00 -0.30566292067E+04  0.30566292067E+04  0.00000000000E+00 0. -1.
         23    2    1    2    0    0  0.62067082001E+02  0.15384509936E+03 -0.15238252963E+04  0.15356327601E+04  0.92756686062E+02 0.  0.
        254    2    1    2    0    0 -0.62067082001E+02 -0.15384509936E+03 -0.13951602696E+04  0.16586400875E+04  0.88152942351E+03 0.  0.
        -24    2    4    4    0    0 -0.20202494510E+03 -0.34800594521E+03 -0.13388419198E+04  0.14001127129E+04  0.76783502982E+02 0.  0.
         24    2    4    4    0    0  0.13995786310E+03  0.19416084585E+03 -0.56318349801E+02  0.25852737451E+03  0.79862440151E+02 0.  0.
         11    1    3    3    0    0  0.69711547460E+02  0.98244715102E+02 -0.12687513779E+04  0.12744574464E+04  0.00000000000E+00 0. -1.
        -11    1    3    3    0    0 -0.76444654588E+01  0.55600384257E+02 -0.25507391844E+03  0.26117531363E+03  0.00000000000E+00 0.  1.
          4    1    6    6  502    0  0.12657727568E+03  0.11190635304E+03 -0.35817834229E+02  0.17270713888E+03  0.00000000000E+00 0. -1.
          1    1    5    5  503    0 -0.18062278553E+03 -0.25339059303E+03 -0.96758604798E+03  0.10163927113E+04  0.00000000000E+00 0. -1.
         -2    1    5    5    0  503 -0.21402159561E+02 -0.94615352175E+02 -0.37125587184E+03  0.38372000166E+03  0.00000000000E+00 0.  1.
         -3    1    6    6    0  502  0.13380587412E+02  0.82254492804E+02 -0.20500515572E+02  0.85820235636E+02  0.00000000000E+00 0.  1.
<mgrwt>
<rscale>  0 0.12972672E+04</rscale>
<asrwt>0</asrwt>
<pdfrwt beam="1">  1        1 0.47025058E+00 0.12972672E+04</pdfrwt>
<pdfrwt beam="2">  1       -1 0.21175948E-01 0.12972672E+04</pdfrwt>
<totfact> 0.10028908E+01</totfact>
</mgrwt>
</event>
<event>
12    1  0.2083715E-007  0.2790268E+04  0.7818608E-02  0.8306296E-01
         -1   -1    0    0    0  501 -0.00000000000E+00  0.00000000000E+00  0.55866202186E+03  0.55866202186E+03  0.00000000000E+00 0.  1.
          1   -1    0    0  501    0  0.00000000000E+00 -0.00000000000E+00 -0.34840360956E+04  0.34840360956E+04  0.00000000000E+00 0. -1.
         23    2    1    2    0    0 -0.10620438070E+04  0.63047605930E+03 -0.10482037262E+04  0.16225633800E+04  0.92432466740E+02 0.  0.
        254    2    1    2    0    0  0.10620438070E+04 -0.63047605930E+03 -0.18771703476E+04  0.24201347375E+04  0.89880282859E+03 0.  0.
        -24    2    4    4    0    0  0.94737823194E+03 -0.15542907134E+03 -0.87088537209E+03  0.12986108578E+04  0.79152499625E+02 0.  0.
         24    2    4    4    0    0  0.11466557509E+03 -0.47504698796E+03 -0.10062849755E+04  0.11215238797E+04  0.79928255364E+02 0.  0.
         11    1    3    3    0    0 -0.79771976659E+03  0.42684235108E+03 -0.77633114389E+03  0.11921582377E+04  0.00000000000E+00 0. -1.
        -11    1    3    3    0    0 -0.26432404044E+03  0.20363370822E+03 -0.27187258234E+03  0.43040514228E+03  0.00000000000E+00 0.  1.
          4    1    6    6  502    0  0.10739322847E+03 -0.44136151580E+03 -0.87611187163E+03  0.98686640675E+03  0.00000000000E+00 0. -1.
          3    1    5    5  503    0  0.82412057661E+03 -0.15241541295E+03 -0.78531393971E+03  0.11485308732E+04  0.00000000000E+00 0. -1.
         -4    1    5    5    0  503  0.12325765533E+03 -0.30136583862E+01 -0.85571432371E+02  0.15007998458E+03  0.00000000000E+00 0.  1.
         -3    1    6    6    0  502  0.72723466182E+01 -0.33685472163E+02 -0.13017310384E+03  0.13465747296E+03  0.00000000000E+00 0.  1.
<mgrwt>
<rscale>  0 0.27902678E+04</rscale>
<asrwt>0</asrwt>
<pdfrwt beam="1">  1        1 0.53600556E+00 0.27902678E+04</pdfrwt>
<pdfrwt beam="2">  1       -1 0.85948003E-01 0.27902678E+04</pdfrwt>
<totfact> 0.29777860E-01</totfact>
</mgrwt>
</event>
<event>
12    1  0.2083715E-007  0.1028973E+04  0.7818608E-02  0.9277327E-01
         -1   -1    0    0    0  501 -0.00000000000E+00  0.00000000000E+00  0.35630958224E+03  0.35630958224E+03  0.00000000000E+00 0.  1.
          1   -1    0    0  501    0  0.00000000000E+00 -0.00000000000E+00 -0.74288276234E+03  0.74288276234E+03  0.00000000000E+00 0. -1.
         23    2    1    2    0    0 -0.66453188615E+02 -0.16785373274E+02  0.13939094790E+01  0.11497695721E+03  0.92303752207E+02 0.  0.
        254    2    1    2    0    0  0.66453188615E+02  0.16785373274E+02 -0.38796708958E+03  0.98421538738E+03  0.90192222011E+03 0.  0.
        -24    2    4    4    0    0  0.40642190633E+03 -0.16514207330E+03 -0.38924634763E+03  0.59193045177E+03  0.80114107829E+02 0.  0.
         24    2    4    4    0    0 -0.33996871772E+03  0.18192744658E+03  0.12792580470E+01  0.39228493561E+03  0.72176930925E+02 0.  0.
         11    1    3    3    0    0 -0.70853902087E+01  0.34576063005E+02  0.80255936765E+01  0.36195538968E+02  0.00000000000E+00 0.  1.
        -11    1    3    3    0    0 -0.59367798406E+02 -0.51361436278E+02 -0.66316841975E+01  0.78781418237E+02  0.00000000000E+00 0. -1.
          4    1    6    6  502    0 -0.83618038332E+02  0.81841950725E+02  0.40590742519E+01  0.11707500723E+03  0.00000000000E+00 0. -1.
          1    1    5    5  503    0  0.81250178301E+02 -0.63524163216E+02 -0.11591092530E+03  0.15515235541E+03  0.00000000000E+00 0. -1.
         -2    1    5    5    0  503  0.32517172803E+03 -0.10161791009E+03 -0.27333542233E+03  0.43677809636E+03  0.00000000000E+00 0.  1.
         -3    1    6    6    0  502 -0.25635067939E+03  0.10008549585E+03 -0.27798162049E+01  0.27520992838E+03  0.00000000000E+00 0.  1.
<mgrwt>
<rscale>  0 0.10289728E+04</rscale>
<asrwt>0</asrwt>
<pdfrwt beam="1">  1        1 0.11428965E+00 0.10289728E+04</pdfrwt>
<pdfrwt beam="2">  1       -1 0.54816859E-01 0.10289728E+04</pdfrwt>
<totfact> 0.83666939E+01</totfact>
</mgrwt>
</event>
<event>
12    1  0.2083715E-007  0.1159064E+04  0.7818608E-02  0.9149462E-01
         -2   -1    0    0    0  501 -0.00000000000E+00  0.00000000000E+00  0.10466226913E+04  0.10466226913E+04  0.00000000000E+00 0.  1.
          2   -1    0    0  501    0  0.00000000000E+00 -0.00000000000E+00 -0.32089641676E+03  0.32089641676E+03  0.00000000000E+00 0. -1.
         23    2    1    2    0    0  0.14863474848E+03  0.65128975736E+02  0.31090685526E+03  0.36234685268E+03  0.91093891466E+02 0.  0.
        254    2    1    2    0    0 -0.14863474848E+03 -0.65128975736E+02  0.41481941927E+03  0.10051722554E+04  0.90108936318E+03 0.  0.
        -24    2    4    4    0    0 -0.50306927990E+03  0.14258679369E+02  0.37125397717E+03  0.63039401982E+03  0.79278586942E+02 0.  0.
         24    2    4    4    0    0  0.35443453142E+03 -0.79387655105E+02  0.43565442101E+02  0.37477823555E+03  0.81452693331E+02 0.  0.
         13    1    3    3    0    0  0.14701894483E+03  0.35630404018E+02  0.28666530211E+03  0.32413128708E+03  0.00000000000E+00 0.  1.
        -13    1    3    3    0    0  0.16158036442E+01  0.29498571718E+02  0.24241553149E+02  0.38215565597E+02  0.00000000000E+00 0. -1.
          2    1    6    6  502    0  0.38927421375E+02  0.14850322458E+02  0.14918081508E+02  0.44254100012E+02  0.00000000000E+00 0. -1.
          3    1    5    5  503    0 -0.21327864546E+03 -0.32535605661E+02  0.14885585285E+03  0.26211526314E+03  0.00000000000E+00 0. -1.
         -4    1    5    5    0  503 -0.28979063444E+03  0.46794285030E+02  0.22239812432E+03  0.36827875668E+03  0.00000000000E+00 0.  1.
         -1    1    6    6    0  502  0.31550711005E+03 -0.94237977564E+02  0.28647360592E+02  0.33052413554E+03  0.00000000000E+00 0.  1.
<mgrwt>
<rscale>  0 0.11590642E+04</rscale>
<asrwt>0</asrwt>
<pdfrwt beam="1">  1        2 0.49368680E-01 0.11590642E+04</pdfrwt>
<pdfrwt beam="2">  1       -2 0.16101887E+00 0.11590642E+04</pdfrwt>
<totfact> 0.24912901E+01</totfact>
</mgrwt>
</event>
<event>
12    1  0.2083715E-007  0.1614562E+04  0.7818608E-02  0.8811651E-01
         -2   -1    0    0    0  501 -0.00000000000E+00  0.00000000000E+00  0.46280829833E+03  0.46280829833E+03  0.00000000000E+00 0.  1.
          2   -1    0    0  501    0  0.00000000000E+00 -0.00000000000E+00 -0.14081488608E+04  0.14081488608E+04  0.00000000000E+00 0. -1.
         23    2    1    2    0    0 -0.35678098256E+03 -0.14097049793E+03 -0.78707325264E+03  0.88032215675E+03  0.91200020998E+02 0.  0.
        254    2    1    2    0    0  0.35678098256E+03  0.14097049793E+03 -0.15826730987E+03  0.99063500242E+03  0.89952421637E+03 0.  0.
        -24    2    4    4    0    0  0.45000888110E+03 -0.17115417418E+03  0.17357386194E+03  0.51832701675E+03  0.82056482608E+02 0.  0.
         24    2    4    4    0    0 -0.93227898538E+02  0.31212467212E+03 -0.33184117181E+03  0.47230798567E+03  0.82722536291E+02 0.  0.
         11    1    3    3    0    0 -0.23681423395E+03 -0.13703874334E+03 -0.57026268787E+03  0.63250306858E+03  0.00000000000E+00 0.  1.
        -11    1    3    3    0    0 -0.11996674861E+03 -0.39317545918E+01 -0.21681056477E+03  0.24781908817E+03  0.00000000000E+00 0. -1.
          4    1    6    6  502    0 -0.58659009768E+02  0.28105795426E+03 -0.30389891069E+03  0.41807774516E+03  0.00000000000E+00 0. -1.
          1    1    5    5  503    0  0.35323481859E+03 -0.16864703763E+03  0.13375128084E+03  0.41364968934E+03  0.00000000000E+00 0. -1.
         -4    1    5    5    0  503  0.96774062513E+02 -0.25071365499E+01  0.39822581094E+02  0.10467732741E+03  0.00000000000E+00 0.  1.
         -3    1    6    6    0  502 -0.34568888770E+02  0.31066717853E+02 -0.27942261114E+02  0.54230240504E+02  0.00000000000E+00 0.  1.
<mgrwt>
<rscale>  0 0.16145625E+04</rscale>
<asrwt>0</asrwt>
<pdfrwt beam="1">  1        2 0.21663829E+00 0.16145625E+04</pdfrwt>
<pdfrwt beam="2">  1       -2 0.71201277E-01 0.16145625E+04</pdfrwt>
<totfact> 0.24557659E+01</totfact>
</mgrwt>
</event>
<event>
12    1  0.2083715E-007  0.1864782E+04  0.7818608E-02  0.8672588E-01
          1   -1    0    0  501    0  0.00000000000E+00  0.00000000000E+00  0.13709781311E+04  0.13709781311E+04  0.00000000000E+00 0. -1.
         -1   -1    0    0    0  501 -0.00000000000E+00 -0.00000000000E+00 -0.63411123286E+03  0.63411123286E+03  0.00000000000E+00 0.  1.
         23    2    1    2    0    0  0.52725478452E+03 -0.43748350315E+03  0.49026562394E+03  0.84742038909E+03  0.91495958947E+02 0.  0.
        254    2    1    2    0    0 -0.52725478452E+03  0.43748350315E+03  0.24660127426E+03  0.11576689748E+04  0.89999769082E+03 0.  0.
        -24    2    4    4    0    0 -0.44401731615E+03  0.34268255594E+03  0.56875486263E+03  0.80257184131E+03  0.77825159834E+02 0.  0.
         24    2    4    4    0    0 -0.83237468369E+02  0.94800947210E+02 -0.32215358837E+03  0.35509713352E+03  0.79970894721E+02 0.  0.
         11    1    3    3    0    0  0.23703566099E+03 -0.18295808695E+03  0.16056208917E+03  0.33976425745E+03  0.00000000000E+00 0. -1.
        -11    1    3    3    0    0  0.29021912353E+03 -0.25452541620E+03  0.32970353477E+03  0.50765613164E+03  0.00000000000E+00 0.  1.
          4    1    6    6  502    0 -0.95171713632E+02  0.62855082388E+02 -0.26566317792E+03  0.28911129442E+03  0.00000000000E+00 0. -1.
          3    1    5    5  503    0 -0.11495788401E+03  0.10836897551E+03  0.11729229281E+03  0.19676542354E+03  0.00000000000E+00 0. -1.
         -4    1    5    5    0  503 -0.32905943214E+03  0.23431358044E+03  0.45146256982E+03  0.60580641777E+03  0.00000000000E+00 0.  1.
         -3    1    6    6    0  502  0.11934245263E+02  0.31945864822E+02 -0.56490410450E+02  0.65985839102E+02  0.00000000000E+00 0.  1.
<mgrwt>
<rscale>  0 0.18647816E+04</rscale>
<asrwt>0</asrwt>
<pdfrwt beam="1">  1        1 0.21091971E+00 0.18647816E+04</pdfrwt>
<pdfrwt beam="2">  1       -1 0.97555575E-01 0.18647816E+04</pdfrwt>
<totfact> 0.76212768E+00</totfact>
</mgrwt>
</event>
<event>
12    1  0.2083715E-007  0.1678981E+04  0.7818608E-02  0.8773444E-01
          1   -1    0    0  501    0  0.00000000000E+00  0.00000000000E+00  0.16559515022E+04  0.16559515022E+04  0.00000000000E+00 0. -1.
         -1   -1    0    0    0  501 -0.00000000000E+00 -0.00000000000E+00 -0.42558273868E+03  0.42558273868E+03  0.00000000000E+00 0.  1.
         23    2    1    2    0    0 -0.58084937213E+03  0.46475804170E+02  0.30410341929E+03  0.66363163405E+03  0.91553605113E+02 0.  0.
        254    2    1    2    0    0  0.58084937213E+03 -0.46475804170E+02  0.92626534424E+03  0.14179026068E+04  0.90162870466E+03 0.  0.
        -24    2    4    4    0    0 -0.13125134145E+03  0.35994637628E+02 -0.82299260422E+02  0.17800790317E+03  0.79944460452E+02 0.  0.
         24    2    4    4    0    0  0.71210071358E+03 -0.82470441798E+02  0.10085646047E+04  0.12398947037E+04  0.79041219380E+02 0.  0.
         13    1    3    3    0    0 -0.21857628296E+03  0.62154804577E+02  0.11683013616E+03  0.25551534576E+03  0.00000000000E+00 0. -1.
        -13    1    3    3    0    0 -0.36227308917E+03 -0.15679000407E+02  0.18727328313E+03  0.40811628829E+03  0.00000000000E+00 0.  1.
          4    1    6    6  502    0  0.25760003278E+03 -0.61637854168E+02  0.33496155011E+03  0.42703189811E+03  0.00000000000E+00 0. -1.
          1    1    5    5  503    0 -0.23588093469E+02  0.37611439188E+02 -0.34124145263E+01  0.44527105051E+02  0.00000000000E+00 0. -1.
         -2    1    5    5    0  503 -0.10766324798E+03 -0.16168015601E+01 -0.78886845896E+02  0.13348079812E+03  0.00000000000E+00 0.  1.
         -3    1    6    6    0  502  0.45450068080E+03 -0.20832587630E+02  0.67360305455E+03  0.81286280556E+03  0.00000000000E+00 0.  1.
<mgrwt>
<rscale>  0 0.16789811E+04</rscale>
<asrwt>0</asrwt>
<pdfrwt beam="1">  1        1 0.25476177E+00 0.16789811E+04</pdfrwt>
<pdfrwt beam="2">  1       -1 0.65474268E-01 0.16789811E+04</pdfrwt>
<totfact> 0.11514569E+01</totfact>
</mgrwt>
</event>
<event>
12    1  0.2083715E-007  0.3150854E+04  0.7818608E-02  0.8201918E-01
         -2   -1    0    0    0  501 -0.00000000000E+00  0.00000000000E+00  0.13311807472E+04  0.13311807472E+04  0.00000000000E+00 0.  1.
          2   -1    0    0  501    0  0.00000000000E+00 -0.00000000000E+00 -0.18644877069E+04  0.18644877069E+04  0.00000000000E+00 0. -1.
         23    2    1    2    0    0  0.43997685585E+03  0.13330194462E+04 -0.59086057310E+03  0.15268245729E+04  0.10750154423E+03 0.  0.
        254    2    1    2    0    0 -0.43997685585E+03 -0.13330194462E+04  0.57553613447E+02  0.16688438812E+04  0.90067030797E+03 0.  0.
        -24    2    4    4    0    0 -0.36935420332E+03 -0.78554840483E+03  0.45585572648E+03  0.98363450059E+03  0.78889565489E+02 0.  0.
         24    2    4    4    0    0 -0.70622652532E+02 -0.54747104135E+03 -0.39830211303E+03  0.68520938056E+03  0.78455221625E+02 0.  0.
         11    1    3    3    0    0  0.19189096481E+03  0.54655342003E+03 -0.18791151997E+03  0.60897744018E+03  0.00000000000E+00 0.  1.
        -11    1    3    3    0    0  0.24808589104E+03  0.78646602615E+03 -0.40294905313E+03  0.91784713272E+03  0.00000000000E+00 0. -1.
          4    1    6    6  502    0 -0.26679091032E+02 -0.19458500670E+03 -0.96687902733E+02  0.21891470774E+03  0.00000000000E+00 0. -1.
          3    1    5    5  503    0 -0.36369380781E+01 -0.24576676974E+01 -0.27878522508E+01  0.51999585832E+01  0.00000000000E+00 0. -1.
         -4    1    5    5    0  503 -0.36571726524E+03 -0.78309073713E+03  0.45864357873E+03  0.97843454201E+03  0.00000000000E+00 0.  1.
         -3    1    6    6    0  502 -0.43943561500E+02 -0.35288603465E+03 -0.30161421030E+03  0.46629467282E+03  0.00000000000E+00 0.  1.
<mgrwt>
<rscale>  0 0.31508539E+04</rscale>
<asrwt>0</asrwt>
<pdfrwt beam="1">  1        2 0.28684426E+00 0.31508539E+04</pdfrwt>
<pdfrwt beam="2">  1       -2 0.20479704E+00 0.31508539E+04</pdfrwt>
<totfact> 0.83135976E-01</totfact>
</mgrwt>
</event>
<event>
12    1  0.2083715E-007  0.1316296E+04  0.7818608E-02  0.9016741E-01
         -2   -1    0    0    0  501 -0.00000000000E+00  0.00000000000E+00  0.19255123197E+03  0.19255123197E+03  0.00000000000E+00 0.  1.
          2   -1    0    0  501    0  0.00000000000E+00 -0.00000000000E+00 -0.22495769349E+04  0.22495769349E+04  0.00000000000E+00 0. -1.
         23    2    1    2    0    0  0.14959651823E+03 -0.17170029782E+03 -0.84353644638E+02  0.25943311742E+03  0.91268255772E+02 0.  0.
        254    2    1    2    0    0 -0.14959651823E+03  0.17170029782E+03 -0.19726720583E+04  0.21826950494E+04  0.90601463499E+03 0.  0.
        -24    2    4    4    0    0  0.12383861012E+03  0.46482013612E+03 -0.75737674481E+03  0.90054228593E+03  0.77221207366E+02 0.  0.
         24    2    4    4    0    0 -0.27343512835E+03 -0.29311983831E+03 -0.12152953135E+04  0.12821527635E+04  0.79290611186E+02 0.  0.
         11    1    3    3    0    0  0.52938421335E+02 -0.51382939607E+02 -0.74403235210E+02  0.10477845363E+03  0.00000000000E+00 0. -1.
        -11    1    3    3    0    0  0.96658096896E+02 -0.12031735821E+03 -0.99504094277E+01  0.15465466378E+03  0.00000000000E+00 0.  1.
          2    1    6    6  502    0 -0.59400841295E+02 -0.62891915406E+02 -0.37852410658E+03  0.38828385523E+03  0.00000000000E+00 0. -1.
          3    1    5    5  503    0  0.49703906187E+02  0.72537484849E+02 -0.14082264596E+03  0.16602163297E+03  0.00000000000E+00 0. -1.
         -4    1    5    5    0  503  0.74134703933E+02  0.39228265127E+03 -0.61655409886E+03  0.73452065297E+03  0.00000000000E+00 0.  1.
         -1    1    6    6    0  502 -0.21403428706E+03 -0.23022792290E+03 -0.83677120689E+03  0.89386890828E+03  0.00000000000E+00 0.  1.
<mgrwt>
<rscale>  0 0.13162960E+04</rscale>
<asrwt>0</asrwt>
<pdfrwt beam="1">  1        2 0.34608876E+00 0.13162960E+04</pdfrwt>
<pdfrwt beam="2">  1       -2 0.29623266E-01 0.13162960E+04</pdfrwt>
<totfact> 0.49889201E+01</totfact>
</mgrwt>
</event>
<event>
12    1  0.2083715E-007  0.1223245E+04  0.7818608E-02  0.9092750E-01
         -2   -1    0    0    0  501 -0.00000000000E+00  0.00000000000E+00  0.33455103341E+03  0.33455103341E+03  0.00000000000E+00 0.  1.
          2   -1    0    0  501    0  0.00000000000E+00 -0.00000000000E+00 -0.11181612696E+04  0.11181612696E+04  0.00000000000E+00 0. -1.
         23    2    1    2    0    0 -0.24852324569E+03  0.71689790582E+02 -0.23388694960E+03  0.36649627397E+03  0.11275275571E+03 0.  0.
        254    2    1    2    0    0  0.24852324569E+03 -0.71689790582E+02 -0.54972328657E+03  0.10862160290E+04  0.90042564390E+03 0.  0.
        -24    2    4    4    0    0  0.45429900643E+03 -0.17874952764E+03 -0.11915433830E+02  0.49538716589E+03  0.83231518609E+02 0.  0.
         24    2    4    4    0    0 -0.20577576074E+03  0.10705973706E+03 -0.53780785274E+03  0.59082886314E+03  0.77691750157E+02 0.  0.
         11    1    3    3    0    0 -0.84105501766E+02  0.24340791712E+02 -0.15514626096E+03  0.17814761255E+03  0.00000000000E+00 0. -1.
        -11    1    3    3    0    0 -0.16441774392E+03  0.47348998870E+02 -0.78740688639E+02  0.18834866142E+03  0.00000000000E+00 0.  1.
          4    1    6    6  502    0 -0.10016486368E+02  0.55596369700E+00 -0.90758243012E+02  0.91310994790E+02  0.00000000000E+00 0. -1.
          1    1    5    5  503    0  0.19012172286E+02 -0.12420430946E+02  0.17211357938E+02  0.28494923092E+02  0.00000000000E+00 0. -1.
         -2    1    5    5    0  503  0.43528683414E+03 -0.16632909669E+03 -0.29126791768E+02  0.46689224280E+03  0.00000000000E+00 0.  1.
         -1    1    6    6    0  502 -0.19575927437E+03  0.10650377336E+03 -0.44704960973E+03  0.49951786835E+03  0.00000000000E+00 0.  1.
<mgrwt>
<rscale>  0 0.12232449E+04</rscale>
<asrwt>0</asrwt>
<pdfrwt beam="1">  1        2 0.17202481E+00 0.12232449E+04</pdfrwt>
<pdfrwt beam="2">  1       -2 0.51469389E-01 0.12232449E+04</pdfrwt>
<totfact> 0.74587147E+01</totfact>
</mgrwt>
</event>
<event>
12    1  0.2083715E-007  0.1916713E+04  0.7818608E-02  0.8646582E-01
          1   -1    0    0  501    0  0.00000000000E+00  0.00000000000E+00  0.62076724288E+03  0.62076724288E+03  0.00000000000E+00 0. -1.
         -1   -1    0    0    0  501 -0.00000000000E+00 -0.00000000000E+00 -0.14795352828E+04  0.14795352828E+04  0.00000000000E+00 0.  1.
         23    2    1    2    0    0 -0.43381697026E+03  0.38411665024E+03 -0.84676605522E+03  0.10300832760E+04  0.91192315774E+02 0.  0.
        254    2    1    2    0    0  0.43381697026E+03 -0.38411665024E+03 -0.12001984667E+02  0.10702192497E+04  0.89971241522E+03 0.  0.
        -24    2    4    4    0    0 -0.26639326453E+03 -0.28592018826E+02 -0.18285715013E+02  0.28021675694E+03  0.80026174281E+02 0.  0.
         24    2    4    4    0    0  0.70021023479E+03 -0.35552463141E+03  0.62837303462E+01  0.79000249275E+03  0.85862196795E+02 0.  0.
         11    1    3    3    0    0 -0.93345869736E+02  0.86099317955E+02 -0.25774779680E+03  0.28733337903E+03  0.00000000000E+00 0.  1.
        -11    1    3    3    0    0 -0.34047110052E+03  0.29801733228E+03 -0.58901825842E+03  0.74274989692E+03  0.00000000000E+00 0. -1.
          2    1    6    6  502    0  0.32503913858E+03 -0.17761637138E+03  0.44333812493E+02  0.37304624904E+03  0.00000000000E+00 0. -1.
          3    1    5    5  503    0 -0.19609893240E+03 -0.52701518893E+02 -0.29059006656E+02  0.20512597897E+03  0.00000000000E+00 0. -1.
         -4    1    5    5    0  503 -0.70294332131E+02  0.24109500067E+02  0.10773291643E+02  0.75090777970E+02  0.00000000000E+00 0.  1.
         -1    1    6    6    0  502  0.37517109621E+03 -0.17790826003E+03 -0.38050082146E+02  0.41695624371E+03  0.00000000000E+00 0.  1.
<mgrwt>
<rscale>  0 0.19167129E+04</rscale>
<asrwt>0</asrwt>
<pdfrwt beam="1">  1        1 0.95502653E-01 0.19167129E+04</pdfrwt>
<pdfrwt beam="2">  1       -1 0.22762081E+00 0.19167129E+04</pdfrwt>
<totfact> 0.29805119E+00</totfact>
</mgrwt>
</event>
<event>
12    1  0.2574575E-007  0.3849941E+04  0.7818608E-02  0.8035522E-01
          2   -1    0    0  501    0  0.00000000000E+00  0.00000000000E+00  0.17636270478E+04  0.17636270478E+04  0.00000000000E+00 0. -1.
         -2   -1    0    0    0  501 -0.00000000000E+00 -0.00000000000E+00 -0.21010742924E+04  0.21010742924E+04  0.00000000000E+00 0.  1.
         23    2    1    2    0    0 -0.12883712447E+04  0.11851797122E+04  0.33520124206E+03  0.17846235115E+04  0.89273684277E+02 0.  0.
        254    2    1    2    0    0  0.12883712447E+04 -0.11851797122E+04 -0.67264848660E+03  0.20800778287E+04  0.89984241542E+03 0.  0.
        -24    2    4    4    0    0  0.36101929198E+03 -0.34867803736E+01  0.10689381027E+03  0.38578927135E+03  0.84023737100E+02 0.  0.
         24    2    4    4    0    0  0.92735195273E+03 -0.11816929318E+04 -0.77954229688E+03  0.16942885573E+04  0.80917820377E+02 0.  0.
         11    1    3    3    0    0 -0.82356682006E+03  0.69925838969E+03  0.21307741090E+03  0.11011932554E+04  0.00000000000E+00 0.  1.
        -11    1    3    3    0    0 -0.46480442465E+03  0.48592132247E+03  0.12212383116E+03  0.68343025609E+03  0.00000000000E+00 0. -1.
          2    1    6    6  502    0  0.80731148735E+03 -0.10570150807E+04 -0.71075475668E+03  0.15080467641E+04  0.00000000000E+00 0. -1.
          1    1    5    5  503    0  0.33852605725E+03  0.15615733216E+02  0.10956709590E+03  0.35615823880E+03  0.00000000000E+00 0. -1.
         -2    1    5    5    0  503  0.22493234727E+02 -0.19102513590E+02 -0.26732856240E+01  0.29631032550E+02  0.00000000000E+00 0.  1.
         -1    1    6    6    0  502  0.12004046538E+03 -0.12467785107E+03 -0.68787540201E+02  0.18624179328E+03  0.00000000000E+00 0.  1.
<mgrwt>
<rscale>  0 0.38499410E+04</rscale>
<asrwt>0</asrwt>
<pdfrwt beam="1">  1        2 0.27132724E+00 0.38499410E+04</pdfrwt>
<pdfrwt beam="2">  1       -2 0.32324220E+00 0.38499410E+04</pdfrwt>
<totfact> 0.16501696E-01</totfact>
</mgrwt>
</event>
<event>
12    1  0.2083715E-007  0.2713323E+04  0.7818608E-02  0.8330695E-01
         -2   -1    0    0    0  501 -0.00000000000E+00  0.00000000000E+00  0.62892950452E+03  0.62892950452E+03  0.00000000000E+00 0.  1.
          2   -1    0    0  501    0  0.00000000000E+00 -0.00000000000E+00 -0.29264489844E+04  0.29264489844E+04  0.00000000000E+00 0. -1.
         23    2    1    2    0    0 -0.10913646754E+04 -0.30693104959E+03 -0.48774887072E+03  0.12373453587E+04  0.88549714358E+02 0.  0.
        254    2    1    2    0    0  0.10913646754E+04  0.30693104959E+03 -0.18097706091E+04  0.23180331302E+04  0.90151229114E+03 0.  0.
        -24    2    4    4    0    0  0.31573779077E+03 -0.24518598118E+03 -0.21990929194E+03  0.46314260085E+03  0.79589284137E+02 0.  0.
         24    2    4    4    0    0  0.77562688462E+03  0.55211703077E+03 -0.15898613172E+04  0.18548905293E+04  0.80805866997E+02 0.  0.
         13    1    3    3    0    0 -0.52356703228E+03 -0.17135570578E+03 -0.19583970967E+03  0.58466948533E+03  0.00000000000E+00 0. -1.
        -13    1    3    3    0    0 -0.56779764311E+03 -0.13557534381E+03 -0.29190916105E+03  0.65267587337E+03  0.00000000000E+00 0.  1.
          4    1    6    6  502    0  0.47079173424E+02  0.13772373362E+02 -0.68352500980E+02  0.84131986952E+02  0.00000000000E+00 0. -1.
          3    1    5    5  503    0  0.20703758457E+02 -0.14353348231E+01  0.18475339398E+01  0.20835526918E+02  0.00000000000E+00 0. -1.
         -4    1    5    5    0  503  0.29503403231E+03 -0.24375064636E+03 -0.22175682588E+03  0.44230707393E+03  0.00000000000E+00 0.  1.
         -3    1    6    6    0  502  0.72854771120E+03  0.53834465741E+03 -0.15215088162E+04  0.17707585424E+04  0.00000000000E+00 0.  1.
<mgrwt>
<rscale>  0 0.27133228E+04</rscale>
<asrwt>0</asrwt>
<pdfrwt beam="1">  1        2 0.45022293E+00 0.27133228E+04</pdfrwt>
<pdfrwt beam="2">  1       -2 0.96758383E-01 0.27133228E+04</pdfrwt>
<totfact> 0.15133743E+00</totfact>
</mgrwt>
</event>
<event>
12    1  0.2083715E-007  0.1411753E+04  0.7818608E-02  0.8945355E-01
          2   -1    0    0  501    0  0.00000000000E+00  0.00000000000E+00  0.23524599317E+04  0.23524599317E+04  0.00000000000E+00 0.  1.
         -2   -1    0    0    0  501 -0.00000000000E+00 -0.00000000000E+00 -0.21180464090E+03  0.21180464090E+03  0.00000000000E+00 0. -1.
         23    2    1    2    0    0 -0.19977709933E+03  0.14937495831E+03  0.12268972990E+04  0.12552606604E+04  0.90435477300E+02 0.  0.
        254    2    1    2    0    0  0.19977709933E+03 -0.14937495831E+03  0.91375799179E+03  0.13090039122E+04  0.90350086171E+03 0.  0.
        -24    2    4    4    0    0  0.18897794241E+03 -0.16014442139E+03 -0.10992232598E+03  0.28204469978E+03  0.78149833682E+02 0.  0.
         24    2    4    4    0    0  0.10799156919E+02  0.10769463082E+02  0.10236803178E+04  0.10269592125E+04  0.80568157111E+02 0.  0.
         13    1    3    3    0    0 -0.11592040327E+03  0.85166387238E+02  0.48493197872E+03  0.50581605094E+03  0.00000000000E+00 0. -1.
        -13    1    3    3    0    0 -0.83856696061E+02  0.64208571069E+02  0.74196532030E+03  0.74944460943E+03  0.00000000000E+00 0.  1.
          2    1    6    6  502    0 -0.34883491706E+02  0.92744451506E+01  0.48727130193E+03  0.48860638045E+03  0.00000000000E+00 0. -1.
          3    1    5    5  503    0  0.12833438352E+03 -0.59947409402E+02 -0.72299306570E+02  0.15903017204E+03  0.00000000000E+00 0. -1.
         -4    1    5    5    0  503  0.60643558891E+02 -0.10019701199E+03 -0.37623019410E+02  0.12301452774E+03  0.00000000000E+00 0.  1.
         -1    1    6    6    0  502  0.45682648625E+02  0.14950179310E+01  0.53640901584E+03  0.53835283201E+03  0.00000000000E+00 0.  1.
<mgrwt>
<rscale>  0 0.14117534E+04</rscale>
<asrwt>0</asrwt>
<pdfrwt beam="1">  1        2 0.36191689E+00 0.14117534E+04</pdfrwt>
<pdfrwt beam="2">  1       -2 0.32585331E-01 0.14117534E+04</pdfrwt>
<totfact> 0.36217802E+01</totfact>
</mgrwt>
</event>
<event>
12    1  0.2083715E-007  0.2073053E+04  0.7818608E-02  0.8573208E-01
         -2   -1    0    0    0  501 -0.00000000000E+00  0.00000000000E+00  0.57854876180E+03  0.57854876180E+03  0.00000000000E+00 0.  1.
          2   -1    0    0  501    0  0.00000000000E+00 -0.00000000000E+00 -0.18570374794E+04  0.18570374794E+04  0.00000000000E+00 0. -1.
         23    2    1    2    0    0  0.69595421707E+03 -0.23838587476E+03 -0.46015382441E+02  0.74282047204E+03  0.92112652347E+02 0.  0.
        254    2    1    2    0    0 -0.69595421707E+03  0.23838587476E+03 -0.12324733352E+04  0.16927657692E+04  0.89737691624E+03 0.  0.
        -24    2    4    4    0    0 -0.36933491766E+03  0.28227279958E+03 -0.63820342054E+02  0.47585922900E+03  0.79263831455E+02 0.  0.
         24    2    4    4    0    0 -0.32661929941E+03 -0.43886924824E+02 -0.11686529931E+04  0.12169065402E+04  0.80656557435E+02 0.  0.
         11    1    3    3    0    0  0.15751803814E+03 -0.65179539800E+02  0.26724682598E+02  0.17255292929E+03  0.00000000000E+00 0.  1.
        -11    1    3    3    0    0  0.53843617893E+03 -0.17320633496E+03 -0.72740065038E+02  0.57026754275E+03  0.00000000000E+00 0. -1.
          4    1    6    6  502    0 -0.22629525582E+03 -0.19492826959E+02 -0.66319714457E+03  0.70101352745E+03  0.00000000000E+00 0. -1.
          3    1    5    5  503    0 -0.18564865673E+03  0.19114387880E+03 -0.32624029206E+02  0.26845061637E+03  0.00000000000E+00 0. -1.
         -4    1    5    5    0  503 -0.18368626093E+03  0.91128920787E+02 -0.31196312848E+02  0.20740861263E+03  0.00000000000E+00 0.  1.
         -3    1    6    6    0  502 -0.10032404360E+03 -0.24394097864E+02 -0.50545584854E+03  0.51589301271E+03  0.00000000000E+00 0.  1.
<mgrwt>
<rscale>  0 0.20730526E+04</rscale>
<asrwt>0</asrwt>
<pdfrwt beam="1">  1        2 0.28569808E+00 0.20730526E+04</pdfrwt>
<pdfrwt beam="2">  1       -2 0.89007501E-01 0.20730526E+04</pdfrwt>
<totfact> 0.80323382E+00</totfact>
</mgrwt>
</event>
<event>
12    1  0.2083715E-007  0.2031804E+04  0.7818608E-02  0.8591894E-01
          2   -1    0    0  501    0  0.00000000000E+00  0.00000000000E+00  0.14322091134E+04  0.14322091134E+04  0.00000000000E+00 0. -1.
         -2   -1    0    0    0  501 -0.00000000000E+00 -0.00000000000E+00 -0.72060464578E+03  0.72060464578E+03  0.00000000000E+00 0.  1.
         23    2    1    2    0    0  0.60528421770E+03  0.13241762199E+03 -0.27141100369E+03  0.68283255493E+03  0.93236014134E+02 0.  0.
        254    2    1    2    0    0 -0.60528421770E+03 -0.13241762199E+03  0.98301547130E+03  0.14699812042E+04  0.90034544105E+03 0.  0.
        -24    2    4    4    0    0 -0.72952333246E+03  0.16027484694E+03  0.78693632454E+03  0.10879980931E+04  0.81109509795E+02 0.  0.
         24    2    4    4    0    0  0.12423911476E+03 -0.29269246893E+03  0.19607914676E+03  0.38198311113E+03  0.79748519680E+02 0.  0.
         11    1    3    3    0    0  0.41752597314E+03  0.84091710507E+02 -0.13886144372E+03  0.44797528344E+03  0.00000000000E+00 0. -1.
        -11    1    3    3    0    0  0.18775824456E+03  0.48325911482E+02 -0.13254955997E+03  0.23485727148E+03  0.00000000000E+00 0.  1.
          2    1    6    6  502    0 -0.22913946224E+01 -0.72266381260E+02  0.58303110051E+02  0.92881284397E+02  0.00000000000E+00 0. -1.
          3    1    5    5  503    0 -0.25037192624E+03  0.94372463239E+02  0.28806931317E+03  0.39316178916E+03  0.00000000000E+00 0. -1.
         -4    1    5    5    0  503 -0.47915140621E+03  0.65902383703E+02  0.49886701137E+03  0.69483630395E+03  0.00000000000E+00 0.  1.
         -3    1    6    6    0  502  0.12653050938E+03 -0.22042608767E+03  0.13777603671E+03  0.28910182674E+03  0.00000000000E+00 0.  1.
<mgrwt>
<rscale>  0 0.20318037E+04</rscale>
<asrwt>0</asrwt>
<pdfrwt beam="1">  1        2 0.22033986E+00 0.20318037E+04</pdfrwt>
<pdfrwt beam="2">  1       -2 0.11086225E+00 0.20318037E+04</pdfrwt>
<totfact> 0.82875049E+00</totfact>
</mgrwt>
</event>
<event>
12    1  0.2083715E-007  0.2193330E+04  0.7818608E-02  0.8521209E-01
         -1   -1    0    0    0  501 -0.00000000000E+00  0.00000000000E+00  0.67145904539E+03  0.67145904539E+03  0.00000000000E+00 0.  1.
          1   -1    0    0  501    0  0.00000000000E+00 -0.00000000000E+00 -0.17911360614E+04  0.17911360614E+04  0.00000000000E+00 0. -1.
         23    2    1    2    0    0 -0.24769723611E+02 -0.85498995256E+03 -0.81333824130E+03  0.11835432647E+04  0.87373946272E+02 0.  0.
        254    2    1    2    0    0  0.24769723611E+02  0.85498995256E+03 -0.30633877475E+03  0.12790518421E+04  0.90028262880E+03 0.  0.
        -24    2    4    4    0    0  0.36041862206E+02 -0.17270612841E+03  0.29138268275E+02  0.19496529989E+03  0.77691742560E+02 0.  0.
         24    2    4    4    0    0 -0.11272138596E+02  0.10276960810E+04 -0.33547704302E+03  0.10840865422E+04  0.80078016147E+02 0.  0.
         11    1    3    3    0    0 -0.51490955896E+02 -0.59664042626E+03 -0.53796006766E+03  0.80500444172E+03  0.00000000000E+00 0.  1.
        -11    1    3    3    0    0  0.26721232285E+02 -0.25834952630E+03 -0.27537817363E+03  0.37853882299E+03  0.00000000000E+00 0. -1.
          2    1    6    6  502    0 -0.25188176557E+02  0.88594443036E+03 -0.26437384578E+03  0.92489216034E+03  0.00000000000E+00 0. -1.
          1    1    5    5  503    0  0.53759645732E+02 -0.14576834358E+03  0.40876043507E+02  0.16065291915E+03  0.00000000000E+00 0. -1.
         -2    1    5    5    0  503 -0.17717783525E+02 -0.26937784831E+02 -0.11737775232E+02  0.34312380740E+02  0.00000000000E+00 0.  1.
         -1    1    6    6    0  502  0.13916037962E+02  0.14175165062E+03 -0.71103197244E+02  0.15919438188E+03  0.00000000000E+00 0.  1.
<mgrwt>
<rscale>  0 0.21933304E+04</rscale>
<asrwt>0</asrwt>
<pdfrwt beam="1">  1        1 0.27555939E+00 0.21933304E+04</pdfrwt>
<pdfrwt beam="2">  1       -1 0.10330139E+00 0.21933304E+04</pdfrwt>
<totfact> 0.33319986E+00</totfact>
</mgrwt>
</event>
<event>
12    1  0.2083715E-007  0.1583386E+04  0.7818608E-02  0.8830820E-01
         -2   -1    0    0    0  501 -0.00000000000E+00  0.00000000000E+00  0.33531887238E+03  0.33531887238E+03  0.00000000000E+00 0.  1.
          2   -1    0    0  501    0  0.00000000000E+00 -0.00000000000E+00 -0.18691997874E+04  0.18691997874E+04  0.00000000000E+00 0. -1.
         23    2    1    2    0    0 -0.25521267128E+03  0.28709193902E+03 -0.45620201837E+01  0.39364167840E+03  0.85893363608E+02 0.  0.
        254    2    1    2    0    0  0.25521267128E+03 -0.28709193902E+03 -0.15293188949E+04  0.18108769814E+04  0.89045149817E+03 0.  0.
        -24    2    4    4    0    0  0.23574020099E+03 -0.29506683060E+02 -0.15198786020E+04  0.15404080599E+04  0.79887042912E+02 0.  0.
         24    2    4    4    0    0  0.19472470289E+02 -0.25758525596E+03 -0.94402928783E+01  0.27046892148E+03  0.79592569804E+02 0.  0.
         11    1    3    3    0    0 -0.13807409954E+03  0.20152417565E+03  0.25111077976E+02  0.24557486959E+03  0.00000000000E+00 0.  1.
        -11    1    3    3    0    0 -0.11713857174E+03  0.85567763373E+02 -0.29673098159E+02  0.14806680881E+03  0.00000000000E+00 0. -1.
          2    1    6    6  502    0  0.86917219721E+01 -0.17662911417E+03 -0.43284994052E+02  0.18206312288E+03  0.00000000000E+00 0. -1.
          3    1    5    5  503    0  0.15859384878E+03  0.18500166099E+02 -0.99119545997E+03  0.10039734583E+04  0.00000000000E+00 0. -1.
         -4    1    5    5    0  503  0.77146352215E+02 -0.48006849160E+02 -0.52868314202E+03  0.53643460168E+03  0.00000000000E+00 0.  1.
         -1    1    6    6    0  502  0.10780748317E+02 -0.80956141797E+02  0.33844701173E+02  0.88405798602E+02  0.00000000000E+00 0.  1.
<mgrwt>
<rscale>  0 0.15833862E+04</rscale>
<asrwt>0</asrwt>
<pdfrwt beam="1">  1        2 0.28756920E+00 0.15833862E+04</pdfrwt>
<pdfrwt beam="2">  1       -2 0.51587519E-01 0.15833862E+04</pdfrwt>
<totfact> 0.26918137E+01</totfact>
</mgrwt>
</event>
<event>
12    1  0.2083715E-007  0.1248840E+04  0.7818608E-02  0.9071149E-01
          1   -1    0    0  501    0  0.00000000000E+00  0.00000000000E+00  0.18988912752E+04  0.18988912752E+04  0.00000000000E+00 0. -1.
         -1   -1    0    0    0  501 -0.00000000000E+00 -0.00000000000E+00 -0.20533050682E+03  0.20533050682E+03  0.00000000000E+00 0.  1.
         23    2    1    2    0    0  0.22255214773E+03 -0.85676997043E+02  0.67605655620E+03  0.72276166584E+03  0.91988869683E+02 0.  0.
        254    2    1    2    0    0 -0.22255214773E+03  0.85676997043E+02  0.10175042122E+04  0.13814601162E+04  0.90346401396E+03 0.  0.
        -24    2    4    4    0    0  0.10147245846E+03  0.93960484321E+01  0.10309342860E+04  0.10390987681E+04  0.80720520022E+02 0.  0.
         24    2    4    4    0    0 -0.32402460619E+03  0.76280948611E+02 -0.13430073785E+02  0.34236134808E+03  0.78868227026E+02 0.  0.
         13    1    3    3    0    0  0.65731076870E+02 -0.72182038491E+02  0.23560845242E+03  0.25503365268E+03  0.00000000000E+00 0. -1.
        -13    1    3    3    0    0  0.15682107086E+03 -0.13494958552E+02  0.44044810378E+03  0.46772801316E+03  0.00000000000E+00 0.  1.
          2    1    6    6  502    0 -0.12945429505E+03  0.58488802849E+02 -0.33501361077E+02  0.14595100466E+03  0.00000000000E+00 0. -1.
          3    1    5    5  503    0 -0.11729279524E+02 -0.91760723668E+01  0.94923034638E+02  0.96084123595E+02  0.00000000000E+00 0. -1.
         -4    1    5    5    0  503  0.11320173799E+03  0.18572120799E+02  0.93601125132E+03  0.94301464450E+03  0.00000000000E+00 0.  1.
         -1    1    6    6    0  502 -0.19457031114E+03  0.17792145762E+02  0.20071287293E+02  0.19641034342E+03  0.00000000000E+00 0.  1.
<mgrwt>
<rscale>  0 0.12488400E+04</rscale>
<asrwt>0</asrwt>
<pdfrwt beam="1">  1        1 0.29213711E+00 0.12488400E+04</pdfrwt>
<pdfrwt beam="2">  1       -1 0.31589310E-01 0.12488400E+04</pdfrwt>
<totfact> 0.32099045E+01</totfact>
</mgrwt>
</event>
<event>
12    1  0.2083715E-007  0.2232573E+04  0.7818608E-02  0.8504991E-01
         -2   -1    0    0    0  501 -0.00000000000E+00  0.00000000000E+00  0.35222967276E+03  0.35222967276E+03  0.00000000000E+00 0.  1.
          2   -1    0    0  501    0  0.00000000000E+00 -0.00000000000E+00 -0.35377367686E+04  0.35377367686E+04  0.00000000000E+00 0. -1.
         23    2    1    2    0    0 -0.79823468821E+03 -0.43874339277E+03 -0.16829065533E+04  0.19157710611E+04  0.91268335959E+02 0.  0.
        254    2    1    2    0    0  0.79823468821E+03  0.43874339277E+03 -0.15026005425E+04  0.19741953802E+04  0.89998034805E+03 0.  0.
        -24    2    4    4    0    0  0.24715720491E+03  0.63337451840E+03 -0.71262604533E+03  0.98789210171E+03  0.76452335802E+02 0.  0.
         24    2    4    4    0    0  0.55107748330E+03 -0.19463112563E+03 -0.78997449715E+03  0.98630327851E+03  0.84656856684E+02 0.  0.
         11    1    3    3    0    0 -0.18879040980E+03 -0.14370657188E+03 -0.39720661407E+03  0.46267320205E+03  0.00000000000E+00 0. -1.
        -11    1    3    3    0    0 -0.60944427841E+03 -0.29503682089E+03 -0.12856999392E+04  0.14530978590E+04  0.00000000000E+00 0.  1.
          4    1    6    6  502    0  0.11216284189E+03 -0.48874791938E+01 -0.15726395134E+03  0.19322613939E+03  0.00000000000E+00 0. -1.
          3    1    5    5  503    0  0.60139795644E+01  0.51451599106E+01 -0.21606775096E+00  0.79175315584E+01  0.00000000000E+00 0. -1.
         -4    1    5    5    0  503  0.24114322534E+03  0.62822935849E+03 -0.71240997758E+03  0.97997457015E+03  0.00000000000E+00 0.  1.
         -3    1    6    6    0  502  0.43891464141E+03 -0.18974364644E+03 -0.63271054581E+03  0.79307713912E+03  0.00000000000E+00 0.  1.
<mgrwt>
<rscale>  0 0.22325733E+04</rscale>
<asrwt>0</asrwt>
<pdfrwt beam="1">  1        2 0.54426721E+00 0.22325733E+04</pdfrwt>
<pdfrwt beam="2">  1       -2 0.54189179E-01 0.22325733E+04</pdfrwt>
<totfact> 0.22430152E+00</totfact>
</mgrwt>
</event>
<event>
12    1  0.2083715E-007  0.3459430E+04  0.7818608E-02  0.8123472E-01
          1   -1    0    0  501    0  0.00000000000E+00  0.00000000000E+00  0.25053935132E+04  0.25053935132E+04  0.00000000000E+00 0. -1.
         -1   -1    0    0    0  501 -0.00000000000E+00 -0.00000000000E+00 -0.11941892587E+04  0.11941892587E+04  0.00000000000E+00 0.  1.
         23    2    1    2    0    0  0.13843744854E+04 -0.79909922724E+03  0.82894161667E+03  0.18029282372E+04  0.91398762375E+02 0.  0.
        254    2    1    2    0    0 -0.13843744854E+04  0.79909922724E+03  0.48226263782E+03  0.18966545346E+04  0.89981602622E+03 0.  0.
        -24    2    4    4    0    0 -0.11310194889E+04  0.81769756445E+03  0.62788137920E+02  0.13993981805E+04  0.80861153770E+02 0.  0.
         24    2    4    4    0    0 -0.25335499652E+03 -0.18598337210E+02  0.41947449990E+03  0.49725635411E+03  0.82282277745E+02 0.  0.
         13    1    3    3    0    0  0.27449576303E+03 -0.12547323390E+03  0.13244823150E+03  0.32959670868E+03  0.00000000000E+00 0.  1.
        -13    1    3    3    0    0  0.11098787224E+04 -0.67362599334E+03  0.69649338518E+03  0.14733315285E+04  0.00000000000E+00 0. -1.
          4    1    6    6  502    0 -0.25434186015E+03 -0.72006667884E+01  0.40932244418E+03  0.48196109256E+03  0.00000000000E+00 0. -1.
          1    1    5    5  503    0 -0.86349085537E+03  0.65028954258E+03  0.22083941806E+02  0.10811940839E+04  0.00000000000E+00 0. -1.
         -2    1    5    5    0  503 -0.26752863354E+03  0.16740802187E+03  0.40704196114E+02  0.31820409666E+03  0.00000000000E+00 0.  1.
         -3    1    6    6    0  502  0.98686362602E+00 -0.11397670422E+02  0.10152055718E+02  0.15295261559E+02  0.00000000000E+00 0.  1.
<mgrwt>
<rscale>  0 0.34594300E+04</rscale>
<asrwt>0</asrwt>
<pdfrwt beam="1">  1        1 0.38544515E+00 0.34594300E+04</pdfrwt>
<pdfrwt beam="2">  1       -1 0.18372143E+00 0.34594300E+04</pdfrwt>
<totfact> 0.21516060E-01</totfact>
</mgrwt>
</event>
<event>
12    1  0.2083715E-007  0.2064012E+04  0.7818608E-02  0.8577264E-01
         -2   -1    0    0    0  501 -0.00000000000E+00  0.00000000000E+00  0.94814272017E+03  0.94814272017E+03  0.00000000000E+00 0.  1.
          2   -1    0    0  501    0  0.00000000000E+00 -0.00000000000E+00 -0.11232872720E+04  0.11232872720E+04  0.00000000000E+00 0. -1.
         23    2    1    2    0    0 -0.77373617105E+03 -0.22337708073E+02  0.23757617648E+03  0.81476918784E+03  0.90773092005E+02 0.  0.
        254    2    1    2    0    0  0.77373617105E+03  0.22337708073E+02 -0.41272072831E+03  0.12566608043E+04  0.89982850697E+03 0.  0.
        -24    2    4    4    0    0  0.91037738897E+03  0.20183208503E+03 -0.25965757016E+03  0.97133204742E+03  0.80874666743E+02 0.  0.
         24    2    4    4    0    0 -0.13664121791E+03 -0.17949437696E+03 -0.15306315815E+03  0.28532875690E+03  0.84232507619E+02 0.  0.
         13    1    3    3    0    0 -0.15370721484E+03 -0.32844192659E+02  0.72272201724E+02  0.17299687866E+03  0.00000000000E+00 0. -1.
        -13    1    3    3    0    0 -0.62002895622E+03  0.10506484586E+02  0.16530397476E+03  0.64177230918E+03  0.00000000000E+00 0.  1.
          4    1    6    6  502    0 -0.14543692340E+03 -0.15695472068E+03 -0.14912346765E+03  0.26081505255E+03  0.00000000000E+00 0. -1.
          1    1    5    5  503    0  0.77460012658E+03  0.19776198404E+03 -0.23503122644E+03  0.83327956643E+03  0.00000000000E+00 0. -1.
         -4    1    5    5    0  503  0.13577726239E+03  0.40701009914E+01 -0.24626343725E+02  0.13805248100E+03  0.00000000000E+00 0.  1.
         -3    1    6    6    0  502  0.87957054817E+01 -0.22539656277E+02 -0.39396905002E+01  0.24513704356E+02  0.00000000000E+00 0.  1.
<mgrwt>
<rscale>  0 0.20640123E+04</rscale>
<asrwt>0</asrwt>
<pdfrwt beam="1">  1        2 0.17281343E+00 0.20640123E+04</pdfrwt>
<pdfrwt beam="2">  1       -2 0.14586811E+00 0.20640123E+04</pdfrwt>
<totfact> 0.62846895E+00</totfact>
</mgrwt>
</event>
<event>
12    1  0.2083715E-007  0.1470454E+04  0.7818608E-02  0.8904342E-01
          4   -1    0    0  501    0  0.00000000000E+00  0.00000000000E+00  0.28442824541E+03  0.28442824541E+03  0.00000000000E+00 0.  1.
         -4   -1    0    0    0  501 -0.00000000000E+00 -0.00000000000E+00 -0.19005106386E+04  0.19005106386E+04  0.00000000000E+00 0. -1.
         23    2    1    2    0    0 -0.25366657196E+03  0.32437117963E+03 -0.78560008388E+03  0.89179980821E+03  0.92606772059E+02 0.  0.
        254    2    1    2    0    0  0.25366657196E+03 -0.32437117963E+03 -0.83048230931E+03  0.12931390758E+04  0.90163430025E+03 0.  0.
        -24    2    4    4    0    0  0.93627379117E+02  0.15036624791E+03  0.11041857402E+03  0.22412496919E+03  0.81631156411E+02 0.  0.
         24    2    4    4    0    0  0.16003919284E+03 -0.47473742754E+03 -0.94090088332E+03  0.10690141066E+04  0.80675396021E+02 0.  0.
         13    1    3    3    0    0 -0.62749958585E+02  0.14206031821E+03 -0.34171013517E+03  0.37534585091E+03  0.00000000000E+00 0. -1.
        -13    1    3    3    0    0 -0.19091661338E+03  0.18231086143E+03 -0.44388994870E+03  0.51645395730E+03  0.00000000000E+00 0.  1.
          4    1    6    6  502    0  0.12885574957E+03 -0.26443911993E+03 -0.57328358610E+03  0.64434922397E+03  0.00000000000E+00 0. -1.
          3    1    5    5  503    0  0.69917771874E+02  0.59004000515E+02  0.88365295342E+02  0.12719430931E+03  0.00000000000E+00 0. -1.
         -4    1    5    5    0  503  0.23709607243E+02  0.91362247395E+02  0.22053278676E+02  0.96930659882E+02  0.00000000000E+00 0.  1.
         -3    1    6    6    0  502  0.31183443272E+02 -0.21029830762E+03 -0.36761729723E+03  0.42466488263E+03  0.00000000000E+00 0.  1.
<mgrwt>
<rscale>  0 0.14704542E+04</rscale>
<asrwt>0</asrwt>
<pdfrwt beam="1">  1        4 0.43758192E-01 0.14704542E+04</pdfrwt>
<pdfrwt beam="2">  1       -4 0.29238625E+00 0.14704542E+04</pdfrwt>
<totfact> 0.34123412E-01</totfact>
</mgrwt>
</event>
<event>
12    1  0.2083715E-007  0.2000601E+04  0.7818608E-02  0.8606340E-01
          2   -1    0    0  501    0  0.00000000000E+00  0.00000000000E+00  0.78190811402E+03  0.78190811402E+03  0.00000000000E+00 0. -1.
         -2   -1    0    0    0  501 -0.00000000000E+00 -0.00000000000E+00 -0.12796919162E+04  0.12796919162E+04  0.00000000000E+00 0.  1.
         23    2    1    2    0    0  0.58592022682E+03 -0.15899869547E+03 -0.72818887608E+03  0.95232265748E+03  0.89868277689E+02 0.  0.
        254    2    1    2    0    0 -0.58592022682E+03  0.15899869547E+03  0.23040507390E+03  0.11092773727E+04  0.89934792724E+03 0.  0.
        -24    2    4    4    0    0 -0.97279526383E+02  0.13384275358E+02  0.50768292737E+03  0.52338471475E+03  0.80914521604E+02 0.  0.
         24    2    4    4    0    0 -0.48864070044E+03  0.14561442011E+03 -0.27727785347E+03  0.58589265799E+03  0.80086860327E+02 0.  0.
         11    1    3    3    0    0  0.60458112336E+02  0.10967689409E+02 -0.71002048397E+02  0.93897627418E+02  0.00000000000E+00 0. -1.
        -11    1    3    3    0    0  0.52546211448E+03 -0.16996638488E+03 -0.65718682769E+03  0.85842503006E+03  0.00000000000E+00 0.  1.
          2    1    6    6  502    0 -0.96316259146E+02  0.35682936747E+02 -0.21851807150E+02  0.10501235749E+03  0.00000000000E+00 0. -1.
          3    1    5    5  503    0  0.32150814204E+01  0.13406529004E+02  0.14270801845E+02  0.19842569233E+02  0.00000000000E+00 0. -1.
         -4    1    5    5    0  503 -0.10049460780E+03 -0.22253645926E-01  0.49341212552E+03  0.50354214551E+03  0.00000000000E+00 0.  1.
         -1    1    6    6    0  502 -0.39232444129E+03  0.10993148337E+03 -0.25542604632E+03  0.48088030050E+03  0.00000000000E+00 0.  1.
<mgrwt>
<rscale>  0 0.20006014E+04</rscale>
<asrwt>0</asrwt>
<pdfrwt beam="1">  1        2 0.12029356E+00 0.20006014E+04</pdfrwt>
<pdfrwt beam="2">  1       -2 0.19687568E+00 0.20006014E+04</pdfrwt>
<totfact> 0.45980213E+00</totfact>
</mgrwt>
</event>
<event>
12    1  0.2083715E-007  0.1778351E+04  0.7818608E-02  0.8717898E-01
         -1   -1    0    0    0  501 -0.00000000000E+00  0.00000000000E+00  0.17492391510E+04  0.17492391510E+04  0.00000000000E+00 0.  1.
          1   -1    0    0  501    0  0.00000000000E+00 -0.00000000000E+00 -0.45198673634E+03  0.45198673634E+03  0.00000000000E+00 0. -1.
         23    2    1    2    0    0 -0.48677927693E+03 -0.37393054394E+03  0.78809895857E+03  0.10027917325E+04  0.87824678656E+02 0.  0.
        254    2    1    2    0    0  0.48677927693E+03  0.37393054394E+03  0.50915345614E+03  0.11984341549E+04  0.89455523334E+03 0.  0.
        -24    2    4    4    0    0 -0.74350894895E+02 -0.22979405428E+03  0.97686264360E+02  0.27368571249E+03  0.83832571364E+02 0.  0.
         24    2    4    4    0    0  0.56113017182E+03  0.60372459822E+03  0.41146719177E+03  0.92474844237E+03  0.80647204074E+02 0.  0.
         13    1    3    3    0    0 -0.41408969168E+03 -0.28082262725E+03  0.60778452229E+03  0.78723163445E+03  0.00000000000E+00 0. -1.
        -13    1    3    3    0    0 -0.72689585247E+02 -0.93107916691E+02  0.18031443628E+03  0.21556009808E+03  0.00000000000E+00 0.  1.
          4    1    6    6  502    0  0.35968090642E+03  0.36743515751E+03  0.29715123881E+03  0.59386682694E+03  0.00000000000E+00 0. -1.
          3    1    5    5  503    0  0.12544915975E+02 -0.89462151970E+02  0.28640130908E+02  0.94768711347E+02  0.00000000000E+00 0. -1.
         -2    1    5    5    0  503 -0.86895810870E+02 -0.14033190231E+03  0.69046133453E+02  0.17891700114E+03  0.00000000000E+00 0.  1.
         -3    1    6    6    0  502  0.20144926540E+03  0.23628944071E+03  0.11431595297E+03  0.33088161542E+03  0.00000000000E+00 0.  1.
<mgrwt>
<rscale>  0 0.17783508E+04</rscale>
<asrwt>0</asrwt>
<pdfrwt beam="1">  1        1 0.69536422E-01 0.17783508E+04</pdfrwt>
<pdfrwt beam="2">  1       -1 0.26911371E+00 0.17783508E+04</pdfrwt>
<totfact> 0.25204726E+00</totfact>
</mgrwt>
</event>
<event>
12    1  0.2083715E-007  0.5335789E+04  0.7818608E-02  0.7778698E-01
          1   -1    0    0  501    0  0.00000000000E+00  0.00000000000E+00  0.25316200026E+04  0.25316200026E+04  0.00000000000E+00 0. -1.
         -1   -1    0    0    0  501 -0.00000000000E+00 -0.00000000000E+00 -0.28115040117E+04  0.28115040117E+04  0.00000000000E+00 0.  1.
         23    2    1    2    0    0  0.25019206537E+04  0.49587655915E+03  0.31875569959E+03  0.25724346652E+04  0.10155979101E+03 0.  0.
        254    2    1    2    0    0 -0.25019206537E+04 -0.49587655915E+03 -0.59863970869E+03  0.27706893492E+04  0.90158163760E+03 0.  0.
        -24    2    4    4    0    0 -0.25085309244E+04 -0.46554984368E+03 -0.69044520174E+03  0.26443988938E+04  0.81650947796E+02 0.  0.
         24    2    4    4    0    0  0.66102706220E+01 -0.30326715465E+02  0.91805493046E+02  0.12629045541E+03  0.80979165383E+02 0.  0.
         13    1    3    3    0    0  0.17059577783E+04  0.30379689498E+03  0.25006294028E+03  0.17507472601E+04  0.00000000000E+00 0. -1.
        -13    1    3    3    0    0  0.79596287546E+03  0.19207966416E+03  0.68692759311E+02  0.82168740508E+03  0.00000000000E+00 0.  1.
          2    1    6    6  502    0 -0.15119489514E+02 -0.24177968585E+02  0.98653386473E+02  0.10269208241E+03  0.00000000000E+00 0. -1.
          1    1    5    5  503    0 -0.60290555739E+03 -0.11375179760E+03 -0.20232462801E+03  0.64604166869E+03  0.00000000000E+00 0. -1.
         -2    1    5    5    0  503 -0.19056253670E+04 -0.35179804608E+03 -0.48812057373E+03  0.19983572251E+04  0.00000000000E+00 0.  1.
         -1    1    6    6    0  502  0.21729760136E+02 -0.61487468807E+01 -0.68478934267E+01  0.23598372998E+02  0.00000000000E+00 0.  1.
<mgrwt>
<rscale>  0 0.53357885E+04</rscale>
<asrwt>0</asrwt>
<pdfrwt beam="1">  1        1 0.38948000E+00 0.53357885E+04</pdfrwt>
<pdfrwt beam="2">  1       -1 0.43253908E+00 0.53357885E+04</pdfrwt>
<totfact> 0.38757150E-03</totfact>
</mgrwt>
</event>
<event>
12    1  0.2083715E-007  0.1660109E+04  0.7818608E-02  0.8784448E-01
         -2   -1    0    0    0  501 -0.00000000000E+00  0.00000000000E+00  0.37097689128E+03  0.37097689128E+03  0.00000000000E+00 0. -1.
          2   -1    0    0  501    0  0.00000000000E+00 -0.00000000000E+00 -0.18572337320E+04  0.18572337320E+04  0.00000000000E+00 0.  1.
         23    2    1    2    0    0 -0.23444047640E+02 -0.39906192131E+03 -0.10932125837E+04  0.11674157556E+04  0.89138952497E+02 0.  0.
        254    2    1    2    0    0  0.23444047640E+02  0.39906192131E+03 -0.39304425708E+03  0.10607948677E+04  0.90055645186E+03 0.  0.
        -24    2    4    4    0    0 -0.25407205906E+03  0.43683322873E+03  0.67257481713E+02  0.51599674457E+03  0.79706904605E+02 0.  0.
         24    2    4    4    0    0  0.27751610670E+03 -0.37771307416E+02 -0.46030173879E+03  0.54479812317E+03  0.80532248978E+02 0.  0.
         11    1    3    3    0    0  0.94629187199E+01 -0.78527810987E+02 -0.13484931796E+03  0.15633458505E+03  0.00000000000E+00 0.  1.
        -11    1    3    3    0    0 -0.32906966360E+02 -0.32053411032E+03 -0.95836326573E+03  0.10110811705E+04  0.00000000000E+00 0. -1.
          2    1    6    6  502    0  0.22965575017E+03 -0.96737557962E+01 -0.40928376786E+03  0.46941298211E+03  0.00000000000E+00 0. -1.
          3    1    5    5  503    0 -0.12313466698E+03  0.21409850160E+03  0.73057438117E+02  0.25756106822E+03  0.00000000000E+00 0. -1.
         -4    1    5    5    0  503 -0.13093739209E+03  0.22273472713E+03 -0.57999564032E+01  0.25843567635E+03  0.00000000000E+00 0.  1.
         -1    1    6    6    0  502  0.47860356530E+02 -0.28097551620E+02 -0.51017970939E+02  0.75385141062E+02  0.00000000000E+00 0.  1.
<mgrwt>
<rscale>  0 0.16601094E+04</rscale>
<asrwt>0</asrwt>
<pdfrwt beam="1">  1        2 0.28572827E+00 0.16601094E+04</pdfrwt>
<pdfrwt beam="2">  1       -2 0.57073368E-01 0.16601094E+04</pdfrwt>
<totfact> 0.22028499E+01</totfact>
</mgrwt>
</event>
<event>
12    1  0.2083715E-007  0.1822737E+04  0.7818608E-02  0.8694301E-01
          2   -1    0    0  501    0  0.00000000000E+00  0.00000000000E+00  0.24589716286E+04  0.24589716286E+04  0.00000000000E+00 0.  1.
         -2   -1    0    0    0  501 -0.00000000000E+00 -0.00000000000E+00 -0.33778032341E+03  0.33778032341E+03  0.00000000000E+00 0. -1.
         23    2    1    2    0    0 -0.36611252953E+03 -0.58019727371E+03  0.79798526114E+03  0.10562956004E+04  0.91173777647E+02 0.  0.
        254    2    1    2    0    0  0.36611252953E+03  0.58019727371E+03  0.13232060440E+04  0.17404563516E+04  0.89869172476E+03 0.  0.
        -24    2    4    4    0    0  0.28180870418E+03  0.12700525687E+03  0.12211220417E+04  0.12621715367E+04  0.79946646431E+02 0.  0.
         24    2    4    4    0    0  0.84303825347E+02  0.45319201684E+03  0.10208400233E+03  0.47828481490E+03  0.76453132975E+02 0.  0.
         11    1    3    3    0    0 -0.21764413453E+03 -0.25976895853E+03  0.38531549635E+03  0.51314414431E+03  0.00000000000E+00 0. -1.
        -11    1    3    3    0    0 -0.14846839500E+03 -0.32042831518E+03  0.41266976480E+03  0.54315145609E+03  0.00000000000E+00 0.  1.
          4    1    6    6  502    0  0.47092057442E+02  0.35746035363E+03  0.52909950355E+02  0.36441052282E+03  0.00000000000E+00 0. -1.
          1    1    5    5  503    0  0.22418454792E+03  0.66334389429E+02  0.83678864254E+03  0.86883496421E+03  0.00000000000E+00 0. -1.
         -2    1    5    5    0  503  0.57624156266E+02  0.60670867439E+02  0.38433339916E+03  0.39333657249E+03  0.00000000000E+00 0.  1.
         -3    1    6    6    0  502  0.37211767905E+02  0.95731663207E+02  0.49174051972E+02  0.11387429209E+03  0.00000000000E+00 0.  1.
<mgrwt>
<rscale>  0 0.18227367E+04</rscale>
<asrwt>0</asrwt>
<pdfrwt beam="1">  1        2 0.37830332E+00 0.18227367E+04</pdfrwt>
<pdfrwt beam="2">  1       -2 0.51966205E-01 0.18227367E+04</pdfrwt>
<totfact> 0.12125839E+01</totfact>
</mgrwt>
</event>
<event>
12    1  0.2083715E-007  0.1466329E+04  0.7818608E-02  0.8907158E-01
         -2   -1    0    0    0  501 -0.00000000000E+00  0.00000000000E+00  0.23387780837E+03  0.23387780837E+03  0.00000000000E+00 0. -1.
          2   -1    0    0  501    0  0.00000000000E+00 -0.00000000000E+00 -0.22983383696E+04  0.22983383696E+04  0.00000000000E+00 0.  1.
         23    2    1    2    0    0  0.98865041822E+01  0.18724800308E+03 -0.13544522376E+04  0.13705108441E+04  0.92733771002E+02 0.  0.
        254    2    1    2    0    0 -0.98865041822E+01 -0.18724800308E+03 -0.71000832364E+03  0.11617053339E+04  0.90015993326E+03 0.  0.
        -24    2    4    4    0    0  0.23603142917E+03  0.17499356435E+03  0.21433519579E+02  0.30546746410E+03  0.80730370634E+02 0.  0.
         24    2    4    4    0    0 -0.24591793335E+03 -0.36224156743E+03 -0.73144184322E+03  0.85623786975E+03  0.80259183051E+02 0.  0.
         11    1    3    3    0    0 -0.95475869284E+00  0.24555389286E+02 -0.50221028060E+03  0.50281114213E+03  0.00000000000E+00 0.  1.
        -11    1    3    3    0    0  0.10841262875E+02  0.16269261379E+03 -0.85224195695E+03  0.86769970195E+03  0.00000000000E+00 0. -1.
          4    1    6    6  502    0 -0.56661828638E+02 -0.45511671702E+02 -0.84302133083E+02  0.11130464828E+03  0.00000000000E+00 0. -1.
          1    1    5    5  503    0  0.51623125763E+02  0.47578148480E+02  0.39572989281E+02  0.80589383959E+02  0.00000000000E+00 0. -1.
         -2    1    5    5    0  503  0.18440830341E+03  0.12741541587E+03 -0.18139469703E+02  0.22487808014E+03  0.00000000000E+00 0.  1.
         -3    1    6    6    0  502 -0.18925610472E+03 -0.31672989573E+03 -0.64713971013E+03  0.74493322147E+03  0.00000000000E+00 0.  1.
<mgrwt>
<rscale>  0 0.14663292E+04</rscale>
<asrwt>0</asrwt>
<pdfrwt beam="1">  1        2 0.35359052E+00 0.14663292E+04</pdfrwt>
<pdfrwt beam="2">  1       -2 0.35981201E-01 0.14663292E+04</pdfrwt>
<totfact> 0.32026791E+01</totfact>
</mgrwt>
</event>
<event>
12    1  0.2083715E-007  0.1110946E+04  0.7818608E-02  0.9194588E-01
         -1   -1    0    0    0  501 -0.00000000000E+00  0.00000000000E+00  0.27617586885E+03  0.27617586885E+03  0.00000000000E+00 0.  1.
          1   -1    0    0  501    0  0.00000000000E+00 -0.00000000000E+00 -0.11172243597E+04  0.11172243597E+04  0.00000000000E+00 0. -1.
         23    2    1    2    0    0 -0.59790760879E+02  0.10175660368E+03 -0.30360222590E+03  0.33813758857E+03  0.90737951023E+02 0.  0.
        254    2    1    2    0    0  0.59790760879E+02 -0.10175660368E+03 -0.53744626492E+03  0.10552626399E+04  0.90044511777E+03 0.  0.
        -24    2    4    4    0    0 -0.39928643211E+03 -0.50396387329E+02 -0.38385225707E+03  0.56180334159E+03  0.79441731137E+02 0.  0.
         24    2    4    4    0    0  0.45907719299E+03 -0.51360216348E+02 -0.15359400785E+03  0.49345929835E+03  0.80754064511E+02 0.  0.
         11    1    3    3    0    0 -0.46135255866E+01  0.76940700228E+02 -0.23161026319E+03  0.24409930353E+03  0.00000000000E+00 0. -1.
        -11    1    3    3    0    0 -0.55177235292E+02  0.24815903448E+02 -0.71991962709E+02  0.94038285039E+02  0.00000000000E+00 0.  1.
          4    1    6    6  502    0  0.44662391011E+03 -0.63872462717E+02 -0.14994690408E+03  0.47543315263E+03  0.00000000000E+00 0. -1.
          3    1    5    5  503    0 -0.34034391500E+03 -0.24590490729E+02 -0.28890312128E+03  0.44710590043E+03  0.00000000000E+00 0. -1.
         -4    1    5    5    0  503 -0.58942517107E+02 -0.25805896600E+02 -0.94949135794E+02  0.11469744117E+03  0.00000000000E+00 0.  1.
         -3    1    6    6    0  502  0.12453282876E+02  0.12512246369E+02 -0.36471037746E+01  0.18026145720E+02  0.00000000000E+00 0.  1.
<mgrwt>
<rscale>  0 0.11109463E+04</rscale>
<asrwt>0</asrwt>
<pdfrwt beam="1">  1        1 0.17188067E+00 0.11109463E+04</pdfrwt>
<pdfrwt beam="2">  1       -1 0.42488596E-01 0.11109463E+04</pdfrwt>
<totfact> 0.66740706E+01</totfact>
</mgrwt>
</event>
<event>
12    1  0.2083715E-007  0.2081054E+04  0.7818608E-02  0.8569635E-01
         -1   -1    0    0    0  501 -0.00000000000E+00  0.00000000000E+00  0.18191027234E+04  0.18191027234E+04  0.00000000000E+00 0.  1.
          1   -1    0    0  501    0  0.00000000000E+00 -0.00000000000E+00 -0.59518183601E+03  0.59518183601E+03  0.00000000000E+00 0. -1.
         23    2    1    2    0    0  0.34490200731E+03  0.76638197077E+03  0.57290960844E+03  0.10218042833E+04  0.97774506928E+02 0.  0.
        254    2    1    2    0    0 -0.34490200731E+03 -0.76638197077E+03  0.65101127891E+03  0.13924802760E+04  0.89938140637E+03 0.  0.
        -24    2    4    4    0    0 -0.53539097320E+03 -0.71683764794E+03  0.24020746858E+03  0.92982099333E+03  0.79798145271E+02 0.  0.
         24    2    4    4    0    0  0.19048896589E+03 -0.49544322829E+02  0.41080381033E+03  0.46265928271E+03  0.80951561096E+02 0.  0.
         11    1    3    3    0    0  0.19188625149E+03  0.48439060795E+03  0.30425874092E+03  0.60334730961E+03  0.00000000000E+00 0.  1.
        -11    1    3    3    0    0  0.15301575582E+03  0.28199136282E+03  0.26865086751E+03  0.41845697371E+03  0.00000000000E+00 0. -1.
          2    1    6    6  502    0  0.18321068697E+03 -0.52979274008E+02  0.32762839232E+03  0.37909540059E+03  0.00000000000E+00 0. -1.
          1    1    5    5  503    0 -0.47876687691E+03 -0.64125737477E+03  0.18856043157E+03  0.82218232739E+03  0.00000000000E+00 0. -1.
         -2    1    5    5    0  503 -0.56624096293E+02 -0.75580273176E+02  0.51647037010E+02  0.10763866594E+03  0.00000000000E+00 0.  1.
         -1    1    6    6    0  502  0.72782789217E+01  0.34349511789E+01  0.83175418006E+02  0.83563882115E+02  0.00000000000E+00 0.  1.
<mgrwt>
<rscale>  0 0.20810544E+04</rscale>
<asrwt>0</asrwt>
<pdfrwt beam="1">  1        1 0.91566437E-01 0.20810544E+04</pdfrwt>
<pdfrwt beam="2">  1       -1 0.27986196E+00 0.20810544E+04</pdfrwt>
<totfact> 0.14239369E+00</totfact>
</mgrwt>
</event>
<event>
12    1  0.2083715E-007  0.1409286E+04  0.7818608E-02  0.8947125E-01
          1   -1    0    0  501    0  0.00000000000E+00  0.00000000000E+00  0.54057308532E+03  0.54057308532E+03  0.00000000000E+00 0. -1.
         -1   -1    0    0    0  501 -0.00000000000E+00 -0.00000000000E+00 -0.91850931412E+03  0.91850931412E+03  0.00000000000E+00 0.  1.
         23    2    1    2    0    0  0.25908071872E+03 -0.30988135835E+03 -0.26429295418E+02  0.41590105359E+03  0.95529595705E+02 0.  0.
        254    2    1    2    0    0 -0.25908071872E+03  0.30988135835E+03 -0.35150693338E+03  0.10431813458E+04  0.89527700800E+03 0.  0.
        -24    2    4    4    0    0 -0.20559493420E+03  0.26900416296E+03  0.25240759555E+03  0.43018078128E+03  0.81935301507E+02 0.  0.
         24    2    4    4    0    0 -0.53485784521E+02  0.40877195394E+02 -0.60391452893E+03  0.61300056457E+03  0.80779079367E+02 0.  0.
         13    1    3    3    0    0  0.18113522971E+03 -0.19379956758E+03 -0.60292789459E+02  0.27203577760E+03  0.00000000000E+00 0.  1.
        -13    1    3    3    0    0  0.77945489006E+02 -0.11608179077E+03  0.33863494042E+02  0.14386527598E+03  0.00000000000E+00 0. -1.
          4    1    6    6  502    0  0.15123692908E+02  0.25684777456E+02 -0.10454760241E+03  0.10871354584E+03  0.00000000000E+00 0. -1.
          1    1    5    5  503    0  0.74156384520E+01  0.12513946694E+02  0.66977352448E+01  0.16014062974E+02  0.00000000000E+00 0. -1.
         -2    1    5    5    0  503 -0.21301057265E+03  0.25649021626E+03  0.24570986031E+03  0.41416671830E+03  0.00000000000E+00 0.  1.
         -3    1    6    6    0  502 -0.68609477429E+02  0.15192417938E+02 -0.49936692652E+03  0.50428701873E+03  0.00000000000E+00 0.  1.
<mgrwt>
<rscale>  0 0.14092855E+04</rscale>
<asrwt>0</asrwt>
<pdfrwt beam="1">  1        1 0.83165089E-01 0.14092855E+04</pdfrwt>
<pdfrwt beam="2">  1       -1 0.14130913E+00 0.14092855E+04</pdfrwt>
<totfact> 0.15844871E+01</totfact>
</mgrwt>
</event>
<event>
12    1  0.2083715E-007  0.2229120E+04  0.7818608E-02  0.8506405E-01
          2   -1    0    0  501    0  0.00000000000E+00  0.00000000000E+00  0.21240404772E+04  0.21240404772E+04  0.00000000000E+00 0.  1.
         -2   -1    0    0    0  501 -0.00000000000E+00 -0.00000000000E+00 -0.58484951850E+03  0.58484951850E+03  0.00000000000E+00 0. -1.
         23    2    1    2    0    0 -0.53482046225E+02 -0.86509207773E+03  0.10672144074E+04  0.13777846218E+04  0.89995779999E+02 0.  0.
        254    2    1    2    0    0  0.53482046225E+02  0.86509207773E+03  0.47197655130E+03  0.13311053739E+04  0.89321611010E+03 0.  0.
        -24    2    4    4    0    0  0.26189255830E+03  0.13837429513E+03 -0.15682091669E+03  0.34429552211E+03  0.78812746390E+02 0.  0.
         24    2    4    4    0    0 -0.20841051207E+03  0.72671778260E+03  0.62879746799E+03  0.98680985183E+03  0.82787383242E+02 0.  0.
         13    1    3    3    0    0 -0.36579184996E+02 -0.17843787675E+03  0.26697869794E+03  0.32319612898E+03  0.00000000000E+00 0.  1.
        -13    1    3    3    0    0 -0.16902861229E+02 -0.68665420097E+03  0.80023570946E+03  0.10545884928E+04  0.00000000000E+00 0. -1.
          4    1    6    6  502    0 -0.18417026393E+03  0.56828631814E+03  0.45936047187E+03  0.75357817685E+03  0.00000000000E+00 0. -1.
          3    1    5    5  503    0  0.25076229201E+03  0.14324493382E+03 -0.13383532413E+03  0.31829661033E+03  0.00000000000E+00 0. -1.
         -4    1    5    5    0  503  0.11130266281E+02 -0.48706386950E+01 -0.22985592554E+02  0.25998911782E+02  0.00000000000E+00 0.  1.
         -3    1    6    6    0  502 -0.24240248141E+02  0.15843146446E+03  0.16943699612E+03  0.23323167498E+03  0.00000000000E+00 0.  1.
<mgrwt>
<rscale>  0 0.22291201E+04</rscale>
<asrwt>0</asrwt>
<pdfrwt beam="1">  1        2 0.32677545E+00 0.22291201E+04</pdfrwt>
<pdfrwt beam="2">  1       -2 0.89976850E-01 0.22291201E+04</pdfrwt>
<totfact> 0.54922383E+00</totfact>
</mgrwt>
</event>
<event>
12    1  0.2083715E-007  0.1251812E+04  0.7818608E-02  0.9068676E-01
          2   -1    0    0  501    0  0.00000000000E+00  0.00000000000E+00  0.69511304824E+03  0.69511304824E+03  0.00000000000E+00 0. -1.
         -2   -1    0    0    0  501 -0.00000000000E+00 -0.00000000000E+00 -0.56358945481E+03  0.56358945481E+03  0.00000000000E+00 0.  1.
         23    2    1    2    0    0 -0.22827679300E+03  0.11149588043E+03 -0.11292114276E+03  0.28890536609E+03  0.78571626572E+02 0.  0.
        254    2    1    2    0    0  0.22827679300E+03 -0.11149588043E+03  0.24444473619E+03  0.96979713696E+03  0.90344431606E+03 0.  0.
        -24    2    4    4    0    0  0.12318673410E+03 -0.43871841297E+03 -0.10364210789E+03  0.47399230760E+03  0.79235117245E+02 0.  0.
         24    2    4    4    0    0  0.10509005890E+03  0.32722253254E+03  0.34808684407E+03  0.49580482935E+03  0.80866998894E+02 0.  0.
         11    1    3    3    0    0 -0.82907377344E+02  0.45537068048E+02 -0.21692306191E+01  0.94614815679E+02  0.00000000000E+00 0. -1.
        -11    1    3    3    0    0 -0.14536941565E+03  0.65958812381E+02 -0.11075191214E+03  0.19429055041E+03  0.00000000000E+00 0.  1.
          4    1    6    6  502    0  0.93520311021E+02  0.25215072186E+03  0.22254982890E+03  0.34907658393E+03  0.00000000000E+00 0. -1.
          1    1    5    5  503    0  0.35953606883E+02 -0.27011491789E+03 -0.54365244773E+02  0.27786743342E+03  0.00000000000E+00 0. -1.
         -2    1    5    5    0  503  0.87233127215E+02 -0.16860349508E+03 -0.49276863115E+02  0.19612487419E+03  0.00000000000E+00 0.  1.
         -3    1    6    6    0  502  0.11569747877E+02  0.75071810683E+02  0.12553701517E+03  0.14672824542E+03  0.00000000000E+00 0.  1.
<mgrwt>
<rscale>  0 0.12518121E+04</rscale>
<asrwt>0</asrwt>
<pdfrwt beam="1">  1        2 0.10694047E+00 0.12518121E+04</pdfrwt>
<pdfrwt beam="2">  1       -2 0.86706070E-01 0.12518121E+04</pdfrwt>
<totfact> 0.46827744E+01</totfact>
</mgrwt>
</event>
<event>
12    1  0.2083715E-007  0.1222796E+04  0.7818608E-02  0.9093134E-01
         -2   -1    0    0    0  501 -0.00000000000E+00  0.00000000000E+00  0.35783321096E+03  0.35783321096E+03  0.00000000000E+00 0.  1.
          2   -1    0    0  501    0  0.00000000000E+00 -0.00000000000E+00 -0.10446424011E+04  0.10446424011E+04  0.00000000000E+00 0. -1.
         23    2    1    2    0    0  0.24298052439E+03 -0.10662094849E+03 -0.18752574996E+03  0.33732124000E+03  0.90620914598E+02 0.  0.
        254    2    1    2    0    0 -0.24298052439E+03  0.10662094849E+03 -0.49928344021E+03  0.10651543721E+04  0.90269724762E+03 0.  0.
        -24    2    4    4    0    0  0.21384835485E-01  0.19935043994E+03 -0.69609779624E+03  0.72865104929E+03  0.81483810349E+02 0.  0.
         24    2    4    4    0    0 -0.24300190922E+03 -0.92729491448E+02  0.19681435603E+03  0.33650332281E+03  0.82764177331E+02 0.  0.
         11    1    3    3    0    0  0.13131196458E+03 -0.14994343610E+02 -0.11727982601E+03  0.17669810404E+03  0.00000000000E+00 0. -1.
        -11    1    3    3    0    0  0.11166855981E+03 -0.91626604880E+02 -0.70245923950E+02  0.16062313595E+03  0.00000000000E+00 0.  1.
          4    1    6    6  502    0 -0.26530326726E+02  0.52324804668E+01 -0.13973048354E+01  0.27077473088E+02  0.00000000000E+00 0. -1.
          1    1    5    5  503    0  0.47873332509E+01  0.76321867982E+02 -0.14458793688E+03  0.16356533124E+03  0.00000000000E+00 0. -1.
         -2    1    5    5    0  503 -0.47659484155E+01  0.12302857196E+03 -0.55150985935E+03  0.56508571805E+03  0.00000000000E+00 0.  1.
         -3    1    6    6    0  502 -0.21647158250E+03 -0.97961971915E+02  0.19821166087E+03  0.30942584972E+03  0.00000000000E+00 0.  1.
<mgrwt>
<rscale>  0 0.12227964E+04</rscale>
<asrwt>0</asrwt>
<pdfrwt beam="1">  1        2 0.16071422E+00 0.12227964E+04</pdfrwt>
<pdfrwt beam="2">  1       -2 0.55051263E-01 0.12227964E+04</pdfrwt>
<totfact> 0.72122175E+01</totfact>
</mgrwt>
</event>
<event>
12    1  0.2083715E-007  0.3376342E+04  0.7818608E-02  0.8143737E-01
          2   -1    0    0  501    0  0.00000000000E+00  0.00000000000E+00  0.34208398988E+04  0.34208398988E+04  0.00000000000E+00 0. -1.
         -2   -1    0    0    0  501 -0.00000000000E+00 -0.00000000000E+00 -0.83310555934E+03  0.83310555934E+03  0.00000000000E+00 0.  1.
         23    2    1    2    0    0 -0.11101013349E+04 -0.10686878169E+04  0.15688624161E+04  0.22009603986E+04  0.92080247663E+02 0.  0.
        254    2    1    2    0    0  0.11101013349E+04  0.10686878169E+04  0.10188719234E+04  0.20529850595E+04  0.89567239237E+03 0.  0.
        -24    2    4    4    0    0  0.15601174254E+03  0.22130769166E+03  0.67130908070E+03  0.72819672270E+03  0.79358848965E+02 0.  0.
         24    2    4    4    0    0  0.95408959236E+03  0.84738012528E+03  0.34756284268E+03  0.13247883368E+04  0.76968699871E+02 0.  0.
         13    1    3    3    0    0 -0.26869802121E+03 -0.21339384227E+03  0.32076592686E+03  0.46970878036E+03  0.00000000000E+00 0. -1.
        -13    1    3    3    0    0 -0.84140331369E+03 -0.85529397468E+03  0.12480964892E+04  0.17312516183E+04  0.00000000000E+00 0.  1.
          2    1    6    6  502    0  0.82595403609E+03  0.75446176052E+03  0.28345767965E+03  0.11540194426E+04  0.00000000000E+00 0. -1.
          1    1    5    5  503    0  0.12891662297E+03  0.21618628132E+03  0.56803914575E+03  0.62130867933E+03  0.00000000000E+00 0. -1.
         -2    1    5    5    0  503  0.27095119571E+02  0.51214103404E+01  0.10326993496E+03  0.10688804337E+03  0.00000000000E+00 0.  1.
         -1    1    6    6    0  502  0.12813555627E+03  0.92918364758E+02  0.64105163038E+02  0.17076889418E+03  0.00000000000E+00 0.  1.
<mgrwt>
<rscale>  0 0.33763417E+04</rscale>
<asrwt>0</asrwt>
<pdfrwt beam="1">  1        2 0.52628306E+00 0.33763417E+04</pdfrwt>
<pdfrwt beam="2">  1       -2 0.12817009E+00 0.33763417E+04</pdfrwt>
<totfact> 0.34424283E-01</totfact>
</mgrwt>
</event>
<event>
12    1  0.2083715E-007  0.1867586E+04  0.7818608E-02  0.8671161E-01
         -1   -1    0    0    0  501 -0.00000000000E+00  0.00000000000E+00  0.48267883109E+03  0.48267883109E+03  0.00000000000E+00 0.  1.
          1   -1    0    0  501    0  0.00000000000E+00 -0.00000000000E+00 -0.18065216840E+04  0.18065216840E+04  0.00000000000E+00 0. -1.
         23    2    1    2    0    0 -0.13512143299E+03  0.66124274777E+03 -0.22736682956E+03  0.71797233886E+03  0.91043017529E+02 0.  0.
        254    2    1    2    0    0  0.13512143299E+03 -0.66124274777E+03 -0.10964760233E+04  0.15712281762E+04  0.90055457293E+03 0.  0.
        -24    2    4    4    0    0  0.11779808139E+02 -0.86414953082E+03 -0.91561175011E+03  0.12619204115E+04  0.84882698115E+02 0.  0.
         24    2    4    4    0    0  0.12334162485E+03  0.20290678304E+03 -0.18086427320E+03  0.30930776473E+03  0.81086922344E+02 0.  0.
         11    1    3    3    0    0 -0.42890454978E+02  0.41583509799E+03 -0.12261035486E+03  0.43565091411E+03  0.00000000000E+00 0.  1.
        -11    1    3    3    0    0 -0.92230978008E+02  0.24540764979E+03 -0.10475647471E+03  0.28232142475E+03  0.00000000000E+00 0. -1.
          4    1    6    6  502    0  0.73200072366E+02  0.14870557157E+03 -0.79297674232E+02  0.18373817989E+03  0.00000000000E+00 0. -1.
          1    1    5    5  503    0  0.28552719548E+02 -0.82146656455E+03 -0.85648067842E+03  0.11870896036E+04  0.00000000000E+00 0. -1.
         -2    1    5    5    0  503 -0.16772911409E+02 -0.42682966264E+02 -0.59131071683E+02  0.74830807858E+02  0.00000000000E+00 0.  1.
         -3    1    6    6    0  502  0.50141552481E+02  0.54201211472E+02 -0.10156659897E+03  0.12556958484E+03  0.00000000000E+00 0.  1.
<mgrwt>
<rscale>  0 0.18675864E+04</rscale>
<asrwt>0</asrwt>
<pdfrwt beam="1">  1        1 0.27792641E+00 0.18675864E+04</pdfrwt>
<pdfrwt beam="2">  1       -1 0.74258281E-01 0.18675864E+04</pdfrwt>
<totfact> 0.69059860E+00</totfact>
</mgrwt>
</event>
<event>
12    1  0.2083715E-007  0.2600845E+04  0.7818608E-02  0.8367914E-01
         -1   -1    0    0    0  501 -0.00000000000E+00  0.00000000000E+00  0.85065189439E+03  0.85065189439E+03  0.00000000000E+00 0.  1.
          1   -1    0    0  501    0  0.00000000000E+00 -0.00000000000E+00 -0.19880032112E+04  0.19880032112E+04  0.00000000000E+00 0. -1.
         23    2    1    2    0    0 -0.11384375628E+04  0.34739364318E+02 -0.39105127715E+03  0.12073950634E+04  0.87377513435E+02 0.  0.
        254    2    1    2    0    0  0.11384375628E+04 -0.34739364318E+02 -0.74630003968E+03  0.16312600422E+04  0.89821972159E+03 0.  0.
        -24    2    4    4    0    0  0.10070530287E+04  0.30748455578E+03 -0.42925168797E+03  0.11398244940E+04  0.78995638338E+02 0.  0.
         24    2    4    4    0    0  0.13138453415E+03 -0.34222392009E+03 -0.31704835170E+03  0.49143554823E+03  0.81302727204E+02 0.  0.
         11    1    3    3    0    0 -0.52076300944E+03 -0.11109993811E+02 -0.14260361409E+03  0.54004938173E+03  0.00000000000E+00 0.  1.
        -11    1    3    3    0    0 -0.61767455338E+03  0.45849358129E+02 -0.24844766306E+03  0.66734568165E+03  0.00000000000E+00 0. -1.
          4    1    6    6  502    0  0.14079119491E+03 -0.28971455130E+03 -0.26991950009E+03  0.42025375469E+03  0.00000000000E+00 0. -1.
          1    1    5    5  503    0  0.72169626939E+03  0.23027691215E+03 -0.34521881541E+03  0.83249564086E+03  0.00000000000E+00 0. -1.
         -2    1    5    5    0  503  0.28535675927E+03  0.77207643622E+02 -0.84032872563E+02  0.30732885313E+03  0.00000000000E+00 0.  1.
         -3    1    6    6    0  502 -0.94066607648E+01 -0.52509368796E+02 -0.47128851606E+02  0.71181793542E+02  0.00000000000E+00 0.  1.
<mgrwt>
<rscale>  0 0.26008450E+04</rscale>
<asrwt>0</asrwt>
<pdfrwt beam="1">  1        1 0.30584665E+00 0.26008450E+04</pdfrwt>
<pdfrwt beam="2">  1       -1 0.13086952E+00 0.26008450E+04</pdfrwt>
<totfact> 0.13332411E+00</totfact>
</mgrwt>
</event>
<event>
12    1  0.2083715E-007  0.1188044E+04  0.7818608E-02  0.9123386E-01
          1   -1    0    0  501    0  0.00000000000E+00  0.00000000000E+00  0.22048516849E+04  0.22048516849E+04  0.00000000000E+00 0. -1.
         -1   -1    0    0    0  501 -0.00000000000E+00 -0.00000000000E+00 -0.16003897314E+03  0.16003897314E+03  0.00000000000E+00 0.  1.
         23    2    1    2    0    0  0.13470670151E+02  0.16924288307E+03  0.77887287621E+03  0.80245889647E+03  0.92047329153E+02 0.  0.
        254    2    1    2    0    0 -0.13470670151E+02 -0.16924288307E+03  0.12659398356E+04  0.15624317616E+04  0.89986928492E+03 0.  0.
        -24    2    4    4    0    0 -0.40845983910E+03 -0.28335753811E+02  0.32348990054E+03  0.52784291817E+03  0.79561771014E+02 0.  0.
         24    2    4    4    0    0  0.39498916895E+03 -0.14090712926E+03  0.94244993503E+03  0.10345888434E+04  0.79315397285E+02 0.  0.
         13    1    3    3    0    0  0.11244795209E+02  0.33932391692E+02  0.52039683668E+02  0.63134628386E+02  0.00000000000E+00 0.  1.
        -13    1    3    3    0    0  0.22258749421E+01  0.13531049138E+03  0.72683319254E+03  0.73932426808E+03  0.00000000000E+00 0. -1.
          4    1    6    6  502    0  0.35155112458E+03 -0.96273041520E+02  0.80900651007E+03  0.88732644785E+03  0.00000000000E+00 0. -1.
          3    1    5    5  503    0 -0.28768247971E+03 -0.53741946942E+02  0.24407380401E+03  0.38107929332E+03  0.00000000000E+00 0. -1.
         -4    1    5    5    0  503 -0.12077735939E+03  0.25406193131E+02  0.79416096534E+02  0.14676362485E+03  0.00000000000E+00 0.  1.
         -1    1    6    6    0  502  0.43438044369E+02 -0.44634087738E+02  0.13344342496E+03  0.14726239558E+03  0.00000000000E+00 0.  1.
<mgrwt>
<rscale>  0 0.11880441E+04</rscale>
<asrwt>0</asrwt>
<pdfrwt beam="1">  1        1 0.33920793E+00 0.11880441E+04</pdfrwt>
<pdfrwt beam="2">  1       -1 0.24621382E-01 0.11880441E+04</pdfrwt>
<totfact> 0.30904845E+01</totfact>
</mgrwt>
</event>
<event>
12    1  0.2083715E-007  0.1201694E+04  0.7818608E-02  0.9111375E-01
         -1   -1    0    0    0  501 -0.00000000000E+00  0.00000000000E+00  0.20253905914E+03  0.20253905914E+03  0.00000000000E+00 0.  1.
          1   -1    0    0  501    0  0.00000000000E+00 -0.00000000000E+00 -0.17824574538E+04  0.17824574538E+04  0.00000000000E+00 0. -1.
         23    2    1    2    0    0 -0.23358828704E+02 -0.17081409072E+02 -0.75597700670E+03  0.76222362888E+03  0.92985032908E+02 0.  0.
        254    2    1    2    0    0  0.23358828704E+02  0.17081409072E+02 -0.82394138799E+03  0.12227728841E+04  0.90302641478E+03 0.  0.
        -24    2    4    4    0    0 -0.42890203587E+03 -0.21345453934E+02 -0.33273265438E+03  0.54906199457E+03  0.79658457291E+02 0.  0.
         24    2    4    4    0    0  0.45226086457E+03  0.38426863006E+02 -0.49120873361E+03  0.67371088952E+03  0.81140798961E+02 0.  0.
         11    1    3    3    0    0 -0.28902084599E+02 -0.13269495625E+02 -0.75470773405E+03  0.75537750420E+03  0.00000000000E+00 0. -1.
        -11    1    3    3    0    0  0.55432558952E+01 -0.38119134475E+01 -0.12692726450E+01  0.68461246774E+01  0.00000000000E+00 0.  1.
          4    1    6    6  502    0  0.43093010424E+02 -0.11367171701E+02 -0.79433452592E+02  0.91081795824E+02  0.00000000000E+00 0. -1.
          3    1    5    5  503    0 -0.24144738460E+03  0.10726644292E+02 -0.14506745719E+03  0.28188023621E+03  0.00000000000E+00 0. -1.
         -4    1    5    5    0  503 -0.18745465126E+03 -0.32072098226E+02 -0.18766519719E+03  0.26718175836E+03  0.00000000000E+00 0.  1.
         -3    1    6    6    0  502  0.40916785415E+03  0.49794034707E+02 -0.41177528102E+03  0.58262909369E+03  0.00000000000E+00 0.  1.
<mgrwt>
<rscale>  0 0.12016942E+04</rscale>
<asrwt>0</asrwt>
<pdfrwt beam="1">  1        1 0.27422423E+00 0.12016942E+04</pdfrwt>
<pdfrwt beam="2">  1       -1 0.31159854E-01 0.12016942E+04</pdfrwt>
<totfact> 0.39577065E+01</totfact>
</mgrwt>
</event>
<event>
12    1  0.2083715E-007  0.2164997E+04  0.7818608E-02  0.8533140E-01
          1   -1    0    0  501    0  0.00000000000E+00  0.00000000000E+00  0.11332910251E+04  0.11332910251E+04  0.00000000000E+00 0. -1.
         -1   -1    0    0    0  501 -0.00000000000E+00 -0.00000000000E+00 -0.10339821971E+04  0.10339821971E+04  0.00000000000E+00 0.  1.
         23    2    1    2    0    0 -0.11981871242E+03  0.88492928138E+03  0.24550626186E+02  0.89774295000E+03  0.88788029236E+02 0.  0.
        254    2    1    2    0    0  0.11981871242E+03 -0.88492928138E+03  0.74758201802E+02  0.12695302722E+04  0.89925634071E+03 0.  0.
        -24    2    4    4    0    0 -0.35806904696E+03 -0.17179252379E+03  0.16715435693E+02  0.40548074401E+03  0.80056944409E+02 0.  0.
         24    2    4    4    0    0  0.47788775938E+03 -0.71313675760E+03  0.58042766108E+02  0.86404952815E+03  0.79195194322E+02 0.  0.
         11    1    3    3    0    0 -0.12313358918E+03  0.83859874276E+03  0.56868164729E+01  0.84760962243E+03  0.00000000000E+00 0.  1.
        -11    1    3    3    0    0  0.33148767650E+01  0.46330538623E+02  0.18863809713E+02  0.50133327577E+02  0.00000000000E+00 0. -1.
          4    1    6    6  502    0  0.26472208647E+03 -0.42100223001E+03 -0.28440550717E+01  0.49732157544E+03  0.00000000000E+00 0. -1.
          1    1    5    5  503    0 -0.14396007148E+03 -0.39345178617E+02  0.34207664318E+02  0.15311012232E+03  0.00000000000E+00 0. -1.
         -2    1    5    5    0  503 -0.21410897549E+03 -0.13244734517E+03 -0.17492228624E+02  0.25237062169E+03  0.00000000000E+00 0.  1.
         -3    1    6    6    0  502  0.21316567291E+03 -0.29213452758E+03  0.60886821180E+02  0.36672795272E+03  0.00000000000E+00 0.  1.
<mgrwt>
<rscale>  0 0.21649968E+04</rscale>
<asrwt>0</asrwt>
<pdfrwt beam="1">  1        1 0.17435246E+00 0.21649968E+04</pdfrwt>
<pdfrwt beam="2">  1       -1 0.15907418E+00 0.21649968E+04</pdfrwt>
<totfact> 0.32515726E+00</totfact>
</mgrwt>
</event>
<event>
12    1  0.2083715E-007  0.1621136E+04  0.7818608E-02  0.8807668E-01
          1   -1    0    0  501    0  0.00000000000E+00  0.00000000000E+00  0.29836097044E+04  0.29836097044E+04  0.00000000000E+00 0. -1.
         -1   -1    0    0    0  501 -0.00000000000E+00 -0.00000000000E+00 -0.22020984890E+03  0.22020984890E+03  0.00000000000E+00 0.  1.
         23    2    1    2    0    0  0.21444872155E+03  0.50998670252E+03  0.76530531394E+03  0.94860727261E+03  0.89937996339E+02 0.  0.
        254    2    1    2    0    0 -0.21444872155E+03 -0.50998670252E+03  0.19980945415E+04  0.22552122806E+04  0.88742658457E+03 0.  0.
        -24    2    4    4    0    0  0.21180957684E+03 -0.13795991624E+03  0.14126730254E+04  0.14373314319E+04  0.79876985739E+02 0.  0.
         24    2    4    4    0    0 -0.42625829839E+03 -0.37202678628E+03  0.58542151608E+03  0.81788084879E+03  0.78170740540E+02 0.  0.
         11    1    3    3    0    0  0.65799322623E+02  0.27016823903E+03  0.39500857320E+03  0.48306542118E+03  0.00000000000E+00 0. -1.
        -11    1    3    3    0    0  0.14864939892E+03  0.23981846349E+03  0.37029674074E+03  0.46554185143E+03  0.00000000000E+00 0.  1.
          4    1    6    6  502    0 -0.29675485528E+03 -0.22237093782E+03  0.34516692222E+03  0.50660880600E+03  0.00000000000E+00 0. -1.
          1    1    5    5  503    0  0.69127301405E+02 -0.91207029003E+02  0.56736742504E+03  0.57879452393E+03  0.00000000000E+00 0. -1.
         -2    1    5    5    0  503  0.14268227544E+03 -0.46752887236E+02  0.84530560040E+03  0.85853690792E+03  0.00000000000E+00 0.  1.
         -3    1    6    6    0  502 -0.12950344311E+03 -0.14965584846E+03  0.24025459386E+03  0.31127204279E+03  0.00000000000E+00 0.  1.
<mgrwt>
<rscale>  0 0.16211357E+04</rscale>
<asrwt>0</asrwt>
<pdfrwt beam="1">  1        1 0.45901685E+00 0.16211357E+04</pdfrwt>
<pdfrwt beam="2">  1       -1 0.33878440E-01 0.16211357E+04</pdfrwt>
<totfact> 0.48639181E+00</totfact>
</mgrwt>
</event>
<event>
12    1  0.2083715E-007  0.2078382E+04  0.7818608E-02  0.8570827E-01
         -1   -1    0    0    0  501 -0.00000000000E+00  0.00000000000E+00  0.47559124510E+03  0.47559124510E+03  0.00000000000E+00 0.  1.
          1   -1    0    0  501    0  0.00000000000E+00 -0.00000000000E+00 -0.22706846943E+04  0.22706846943E+04  0.00000000000E+00 0. -1.
         23    2    1    2    0    0  0.29601325101E+03  0.78648708892E+03 -0.78897105335E+03  0.11567147581E+04  0.96581171622E+02 0.  0.
        254    2    1    2    0    0 -0.29601325101E+03 -0.78648708892E+03 -0.10061223959E+04  0.15895611813E+04  0.89901984848E+03 0.  0.
        -24    2    4    4    0    0 -0.31448206159E+03  0.25972401261E+02 -0.47769209369E+02  0.33055468431E+03  0.86086986597E+02 0.  0.
         24    2    4    4    0    0  0.18468810584E+02 -0.81245949018E+03 -0.95835318650E+03  0.12590064970E+04  0.78898728560E+02 0.  0.
         11    1    3    3    0    0  0.26817010846E+03  0.69797056105E+03 -0.65678614298E+03  0.99521161005E+03  0.00000000000E+00 0.  1.
        -11    1    3    3    0    0  0.27843142552E+02  0.88516527870E+02 -0.13218491036E+03  0.16150314802E+03  0.00000000000E+00 0. -1.
          2    1    6    6  502    0  0.32387810445E+02 -0.39905948784E+03 -0.52048128165E+03  0.65665684314E+03  0.00000000000E+00 0. -1.
          3    1    5    5  503    0 -0.21776489585E+03 -0.21663625270E+02 -0.39979724868E+02  0.22246177408E+03  0.00000000000E+00 0. -1.
         -4    1    5    5    0  503 -0.96717165740E+02  0.47636026531E+02 -0.77894845007E+01  0.10809291023E+03  0.00000000000E+00 0.  1.
         -1    1    6    6    0  502 -0.13918999861E+02 -0.41340000234E+03 -0.43787190485E+03  0.60234965390E+03  0.00000000000E+00 0.  1.
<mgrwt>
<rscale>  0 0.20783818E+04</rscale>
<asrwt>0</asrwt>
<pdfrwt beam="1">  1        1 0.34933611E+00 0.20783818E+04</pdfrwt>
<pdfrwt beam="2">  1       -1 0.73167883E-01 0.20783818E+04</pdfrwt>
<totfact> 0.33813767E+00</totfact>
</mgrwt>
</event>
<event>
12    1  0.2083715E-007  0.2317461E+04  0.7818608E-02  0.8471068E-01
          1   -1    0    0  501    0  0.00000000000E+00  0.00000000000E+00  0.14672760229E+04  0.14672760229E+04  0.00000000000E+00 0. -1.
         -1   -1    0    0    0  501 -0.00000000000E+00 -0.00000000000E+00 -0.91506730961E+03  0.91506730961E+03  0.00000000000E+00 0.  1.
         23    2    1    2    0    0  0.29283521431E+03 -0.82163300247E+02 -0.72432434458E+03  0.79089584563E+03  0.91472464946E+02 0.  0.
        254    2    1    2    0    0 -0.29283521431E+03  0.82163300247E+02  0.12765330579E+04  0.15914474869E+04  0.90036947139E+03 0.  0.
        -24    2    4    4    0    0 -0.74368407736E+02 -0.35959236566E+03  0.25480635161E+03  0.45429038119E+03  0.81339683464E+02 0.  0.
         24    2    4    4    0    0 -0.21846680657E+03  0.44175566591E+03  0.10217267063E+04  0.11371571057E+04  0.79529911444E+02 0.  0.
         11    1    3    3    0    0  0.89654997079E+02 -0.26442811458E+02 -0.12835854488E+03  0.15878651335E+03  0.00000000000E+00 0. -1.
        -11    1    3    3    0    0  0.20318021723E+03 -0.55720488788E+02 -0.59596579970E+03  0.63210933228E+03  0.00000000000E+00 0.  1.
          2    1    6    6  502    0 -0.14838079938E+03  0.21056652724E+03  0.53307333242E+03  0.59204923930E+03  0.00000000000E+00 0. -1.
          1    1    5    5  503    0 -0.72036898987E+01 -0.18057702217E+03  0.90126985531E+02  0.20194758629E+03  0.00000000000E+00 0. -1.
         -2    1    5    5    0  503 -0.67164717837E+02 -0.17901534349E+03  0.16467936608E+03  0.25234279490E+03  0.00000000000E+00 0.  1.
         -1    1    6    6    0  502 -0.70086007198E+02  0.23118913867E+03  0.48865337384E+03  0.54510786640E+03  0.00000000000E+00 0.  1.
<mgrwt>
<rscale>  0 0.23174610E+04</rscale>
<asrwt>0</asrwt>
<pdfrwt beam="1">  1        1 0.22573477E+00 0.23174610E+04</pdfrwt>
<pdfrwt beam="2">  1       -1 0.14077959E+00 0.23174610E+04</pdfrwt>
<totfact> 0.25702340E+00</totfact>
</mgrwt>
</event>
<event>
12    1  0.2083715E-007  0.2444446E+04  0.7818608E-02  0.8423049E-01
          1   -1    0    0  501    0  0.00000000000E+00  0.00000000000E+00  0.94647978987E+03  0.94647978987E+03  0.00000000000E+00 0. -1.
         -1   -1    0    0    0  501 -0.00000000000E+00 -0.00000000000E+00 -0.15782997362E+04  0.15782997362E+04  0.00000000000E+00 0.  1.
         23    2    1    2    0    0  0.97367650429E+03  0.39849222390E+03 -0.34250330222E+03  0.11102489832E+04  0.92207944829E+02 0.  0.
        254    2    1    2    0    0 -0.97367650429E+03 -0.39849222390E+03 -0.28931664412E+03  0.14145305429E+04  0.90019472825E+03 0.  0.
        -24    2    4    4    0    0 -0.49517468718E+03  0.48975837737E+02  0.24987063501E+03  0.56221245006E+03  0.77787539197E+02 0.  0.
         24    2    4    4    0    0 -0.47850181710E+03 -0.44746806164E+03 -0.53918727913E+03  0.85231809285E+03  0.80818031859E+02 0.  0.
         13    1    3    3    0    0  0.25852398924E+03  0.64182988633E+02 -0.75105663401E+02  0.27675796233E+03  0.00000000000E+00 0.  1.
        -13    1    3    3    0    0  0.71515251505E+03  0.33430923527E+03 -0.26739763882E+03  0.83349102084E+03  0.00000000000E+00 0. -1.
          2    1    6    6  502    0 -0.11232458377E+03 -0.65950420069E+02 -0.88124015908E+02  0.15726446581E+03  0.00000000000E+00 0. -1.
          3    1    5    5  503    0 -0.49831333684E+02 -0.24308045684E+00  0.53201562605E+02  0.72894630587E+02  0.00000000000E+00 0. -1.
         -4    1    5    5    0  503 -0.44534335350E+03  0.49218918194E+02  0.19666907241E+03  0.48931781947E+03  0.00000000000E+00 0.  1.
         -1    1    6    6    0  502 -0.36617723333E+03 -0.38151764157E+03 -0.45106326322E+03  0.69505362704E+03  0.00000000000E+00 0.  1.
<mgrwt>
<rscale>  0 0.24444458E+04</rscale>
<asrwt>0</asrwt>
<pdfrwt beam="1">  1        1 0.14561228E+00 0.24444458E+04</pdfrwt>
<pdfrwt beam="2">  1       -1 0.24281534E+00 0.24444458E+04</pdfrwt>
<totfact> 0.11570021E+00</totfact>
</mgrwt>
</event>
<event>
12    1  0.2083715E-007  0.2279707E+04  0.7818608E-02  0.8485966E-01
          2   -1    0    0  501    0  0.00000000000E+00  0.00000000000E+00  0.28299082065E+04  0.28299082065E+04  0.00000000000E+00 0. -1.
         -2   -1    0    0    0  501 -0.00000000000E+00 -0.00000000000E+00 -0.45911947740E+03  0.45911947740E+03  0.00000000000E+00 0.  1.
         23    2    1    2    0    0 -0.26252215754E+03  0.91328912851E+03  0.11914377769E+04  0.15270021538E+04  0.95899353036E+02 0.  0.
        254    2    1    2    0    0  0.26252215754E+03 -0.91328912851E+03  0.11793509522E+04  0.17620255301E+04  0.90047231214E+03 0.  0.
        -24    2    4    4    0    0  0.52282196762E+03 -0.88136047551E+03  0.85216421060E+03  0.13351623845E+04  0.79596818956E+02 0.  0.
         24    2    4    4    0    0 -0.26029981008E+03 -0.31928653003E+02  0.32718674158E+03  0.42686314561E+03  0.79909643978E+02 0.  0.
         13    1    3    3    0    0 -0.23377886887E+03  0.68696987869E+03  0.87159312467E+03  0.11341317158E+04  0.00000000000E+00 0.  1.
        -13    1    3    3    0    0 -0.28743288675E+02  0.22631924982E+03  0.31984465223E+03  0.39287043799E+03  0.00000000000E+00 0. -1.
          2    1    6    6  502    0 -0.96514832709E+02 -0.33616416907E+02  0.17829708076E+03  0.20551161871E+03  0.00000000000E+00 0. -1.
          1    1    5    5  503    0  0.76954280942E+02 -0.19161056803E+03  0.16586546316E+03  0.26485453178E+03  0.00000000000E+00 0. -1.
         -2    1    5    5    0  503  0.44586768668E+03 -0.68974990748E+03  0.68629874744E+03  0.10703078527E+04  0.00000000000E+00 0.  1.
         -1    1    6    6    0  502 -0.16378497737E+03  0.16877639040E+01  0.14888966083E+03  0.22135152690E+03  0.00000000000E+00 0.  1.
<mgrwt>
<rscale>  0 0.22797070E+04</rscale>
<asrwt>0</asrwt>
<pdfrwt beam="1">  1        2 0.43537048E+00 0.22797070E+04</pdfrwt>
<pdfrwt beam="2">  1       -2 0.70633768E-01 0.22797070E+04</pdfrwt>
<totfact> 0.36723931E+00</totfact>
</mgrwt>
</event>
<event>
12    1  0.2083715E-007  0.2113951E+04  0.7818608E-02  0.8555123E-01
          3   -1    0    0  501    0  0.00000000000E+00  0.00000000000E+00  0.10328664714E+04  0.10328664714E+04  0.00000000000E+00 0. -1.
         -3   -1    0    0    0  501 -0.00000000000E+00 -0.00000000000E+00 -0.10816469201E+04  0.10816469201E+04  0.00000000000E+00 0.  1.
         23    2    1    2    0    0 -0.30074453564E+03  0.69875598600E+03  0.38680521961E+03  0.85829401637E+03  0.91340773652E+02 0.  0.
        254    2    1    2    0    0  0.30074453564E+03 -0.69875598600E+03 -0.43558566832E+03  0.12562193752E+04  0.89980277861E+03 0.  0.
        -24    2    4    4    0    0  0.42796400544E+03 -0.14065240902E+02 -0.98785480843E+01  0.43613620248E+03  0.82256795769E+02 0.  0.
         24    2    4    4    0    0 -0.12721946980E+03 -0.68469074510E+03 -0.42570712024E+03  0.82008317268E+03  0.79521368023E+02 0.  0.
         13    1    3    3    0    0 -0.13786572634E+03  0.25622366344E+03  0.10722446431E+03  0.31008806806E+03  0.00000000000E+00 0.  1.
        -13    1    3    3    0    0 -0.16287880930E+03  0.44253232257E+03  0.27958075530E+03  0.54820594832E+03  0.00000000000E+00 0. -1.
          2    1    6    6  502    0 -0.12060834812E+03 -0.44232774142E+03 -0.27685578080E+03  0.53558316612E+03  0.00000000000E+00 0. -1.
          3    1    5    5  503    0  0.39769013483E+03 -0.12443024712E+02 -0.31147955096E+02  0.39910207631E+03  0.00000000000E+00 0. -1.
         -4    1    5    5    0  503  0.30273870609E+02 -0.16222161898E+01  0.21269407011E+02  0.37034126176E+02  0.00000000000E+00 0.  1.
         -1    1    6    6    0  502 -0.66111216809E+01 -0.24236300368E+03 -0.14885133944E+03  0.28450000656E+03  0.00000000000E+00 0.  1.
<mgrwt>
<rscale>  0 0.21139507E+04</rscale>
<asrwt>0</asrwt>
<pdfrwt beam="1">  1        3 0.15890253E+00 0.21139507E+04</pdfrwt>
<pdfrwt beam="2">  1       -3 0.16640722E+00 0.21139507E+04</pdfrwt>
<totfact> 0.16387855E-01</totfact>
</mgrwt>
</event>
<event>
12    1  0.2083715E-007  0.1972349E+04  0.7818608E-02  0.8619658E-01
         -2   -1    0    0    0  501 -0.00000000000E+00  0.00000000000E+00  0.26887209003E+03  0.26887209003E+03  0.00000000000E+00 0. -1.
          2   -1    0    0  501    0  0.00000000000E+00 -0.00000000000E+00 -0.36171126187E+04  0.36171126187E+04  0.00000000000E+00 0.  1.
         23    2    1    2    0    0  0.51721707145E+03  0.16136789468E+03 -0.22565281552E+03  0.59478131376E+03  0.96397726198E+02 0.  0.
        254    2    1    2    0    0 -0.51721707145E+03 -0.16136789468E+03 -0.31225877132E+04  0.32912033950E+04  0.88764444698E+03 0.  0.
        -24    2    4    4    0    0  0.21210970081E+02  0.21117804460E+03 -0.17914568849E+04  0.18057383102E+04  0.79542458225E+02 0.  0.
         24    2    4    4    0    0 -0.53842804153E+03 -0.37254593928E+03 -0.13311308283E+04  0.14854650848E+04  0.77472597575E+02 0.  0.
         13    1    3    3    0    0  0.21320500539E+03  0.21494708977E+02 -0.67655462334E+02  0.22471239045E+03  0.00000000000E+00 0. -1.
        -13    1    3    3    0    0  0.30401206606E+03  0.13987318571E+03 -0.15799735319E+03  0.37006892331E+03  0.00000000000E+00 0.  1.
          4    1    6    6  502    0 -0.45164748911E+03 -0.27735974637E+03 -0.10474238439E+04  0.11738869588E+04  0.00000000000E+00 0. -1.
          3    1    5    5  503    0  0.37464502353E+02  0.51036629448E+02 -0.63165027787E+03  0.63481524872E+03  0.00000000000E+00 0. -1.
         -4    1    5    5    0  503 -0.16253532272E+02  0.16014141515E+03 -0.11598066071E+04  0.11709230615E+04  0.00000000000E+00 0.  1.
         -3    1    6    6    0  502 -0.86780552422E+02 -0.95186192917E+02 -0.28370698440E+03  0.31157812599E+03  0.00000000000E+00 0.  1.
<mgrwt>
<rscale>  0 0.19723495E+04</rscale>
<asrwt>0</asrwt>
<pdfrwt beam="1">  1        2 0.55647881E+00 0.19723495E+04</pdfrwt>
<pdfrwt beam="2">  1       -2 0.41364941E-01 0.19723495E+04</pdfrwt>
<totfact> 0.34838541E+00</totfact>
</mgrwt>
</event>
<event>
12    1  0.2083715E-007  0.2504984E+04  0.7818608E-02  0.8401212E-01
          2   -1    0    0  501    0  0.00000000000E+00  0.00000000000E+00  0.24170688467E+04  0.24170688467E+04  0.00000000000E+00 0.  1.
         -2   -1    0    0    0  501 -0.00000000000E+00 -0.00000000000E+00 -0.64902419364E+03  0.64902419364E+03  0.00000000000E+00 0. -1.
         23    2    1    2    0    0 -0.10169481176E+04 -0.62365988214E+02  0.12412261991E+04  0.16084033453E+04  0.90806680954E+02 0.  0.
        254    2    1    2    0    0  0.10169481176E+04  0.62365988214E+02  0.52681845397E+03  0.14576896951E+04  0.89958244386E+03 0.  0.
        -24    2    4    4    0    0  0.86731714672E+03 -0.32715501541E+03  0.41265981554E+03  0.10179390617E+04  0.81500753397E+02 0.  0.
         24    2    4    4    0    0  0.14963097090E+03  0.38952100363E+03  0.11415863844E+03  0.43975063342E+03  0.78945456767E+02 0.  0.
         13    1    3    3    0    0 -0.23962215942E+03  0.14146927029E+02  0.33311428869E+03  0.41058987342E+03  0.00000000000E+00 0.  1.
        -13    1    3    3    0    0 -0.77732595820E+03 -0.76512915243E+02  0.90811191042E+03  0.11978134718E+04  0.00000000000E+00 0. -1.
          4    1    6    6  502    0  0.23573286754E+02  0.21347755369E+02 -0.62123930608E+01  0.32404017270E+02  0.00000000000E+00 0. -1.
          3    1    5    5  503    0  0.53926794222E+03 -0.23351340663E+03  0.23091764513E+03  0.63139637583E+03  0.00000000000E+00 0. -1.
         -4    1    5    5    0  503  0.32804920450E+03 -0.93641608788E+02  0.18174217040E+03  0.38654268584E+03  0.00000000000E+00 0.  1.
         -3    1    6    6    0  502  0.12605768415E+03  0.36817324826E+03  0.12037103150E+03  0.40734661615E+03  0.00000000000E+00 0.  1.
<mgrwt>
<rscale>  0 0.25049840E+04</rscale>
<asrwt>0</asrwt>
<pdfrwt beam="1">  1        2 0.37185674E+00 0.25049840E+04</pdfrwt>
<pdfrwt beam="2">  1       -2 0.99849877E-01 0.25049840E+04</pdfrwt>
<totfact> 0.28719756E+00</totfact>
</mgrwt>
</event>
<event>
12    1  0.2083715E-007  0.2124477E+04  0.7818608E-02  0.8550537E-01
          1   -1    0    0  501    0  0.00000000000E+00  0.00000000000E+00  0.23983384181E+04  0.23983384181E+04  0.00000000000E+00 0. -1.
         -1   -1    0    0    0  501 -0.00000000000E+00 -0.00000000000E+00 -0.47047168531E+03  0.47047168531E+03  0.00000000000E+00 0.  1.
         23    2    1    2    0    0  0.37461081814E+03  0.52935936865E+03  0.12419498491E+02  0.65493607727E+03  0.90732657432E+02 0.  0.
        254    2    1    2    0    0 -0.37461081814E+03 -0.52935936865E+03  0.19154472343E+04  0.22138740261E+04  0.90096919482E+03 0.  0.
        -24    2    4    4    0    0 -0.17751499764E+03 -0.49765670147E+03  0.19225328102E+04  0.19954202287E+04  0.79973219899E+02 0.  0.
         24    2    4    4    0    0 -0.19709582049E+03 -0.31702667182E+02 -0.70855759024E+01  0.21845379745E+03  0.88430959911E+02 0.  0.
         13    1    3    3    0    0  0.13287836585E+03  0.17722849554E+03  0.46924446405E+02  0.22642549197E+03  0.00000000000E+00 0.  1.
        -13    1    3    3    0    0  0.24173245228E+03  0.35213087311E+03 -0.34504947914E+02  0.42851058530E+03  0.00000000000E+00 0. -1.
          4    1    6    6  502    0 -0.12205606649E+02  0.49101232905E+00 -0.27091736084E+02  0.29718346031E+02  0.00000000000E+00 0. -1.
          1    1    5    5  503    0 -0.18942149698E+02 -0.79554236086E+02  0.20703110120E+03  0.22259730093E+03  0.00000000000E+00 0. -1.
         -2    1    5    5    0  503 -0.15857284795E+03 -0.41810246538E+03  0.17155017090E+04  0.17728229278E+04  0.00000000000E+00 0.  1.
         -3    1    6    6    0  502 -0.18489021384E+03 -0.32193679511E+02  0.20006160182E+02  0.18873545141E+03  0.00000000000E+00 0.  1.
<mgrwt>
<rscale>  0 0.21244767E+04</rscale>
<asrwt>0</asrwt>
<pdfrwt beam="1">  1        1 0.36897513E+00 0.21244767E+04</pdfrwt>
<pdfrwt beam="2">  1       -1 0.72380261E-01 0.21244767E+04</pdfrwt>
<totfact> 0.28149599E+00</totfact>
</mgrwt>
</event>
<event>
12    1  0.2083715E-007  0.1391995E+04  0.7818608E-02  0.8959633E-01
          2   -1    0    0  501    0  0.00000000000E+00  0.00000000000E+00  0.95903224902E+03  0.95903224902E+03  0.00000000000E+00 0. -1.
         -2   -1    0    0    0  501 -0.00000000000E+00 -0.00000000000E+00 -0.50510563885E+03  0.50510563885E+03  0.00000000000E+00 0.  1.
         23    2    1    2    0    0  0.35203958493E+03  0.12817714239E+03  0.27453179657E+03  0.47324755187E+03  0.90742982320E+02 0.  0.
        254    2    1    2    0    0 -0.35203958493E+03 -0.12817714239E+03  0.17939481360E+03  0.99089033600E+03  0.89962209269E+03 0.  0.
        -24    2    4    4    0    0 -0.39138502644E+03  0.28334006457E+03 -0.80004170906E+02  0.49645999421E+03  0.81289774149E+02 0.  0.
         24    2    4    4    0    0  0.39345441509E+02 -0.41151720696E+03  0.25939898451E+03  0.49443034179E+03  0.79240484153E+02 0.  0.
         13    1    3    3    0    0  0.15049349174E+03  0.21931420488E+02  0.14995198231E+03  0.21357639210E+03  0.00000000000E+00 0. -1.
        -13    1    3    3    0    0  0.20154609318E+03  0.10624572190E+03  0.12457981426E+03  0.25967115978E+03  0.00000000000E+00 0.  1.
          4    1    6    6  502    0  0.26170369640E+02 -0.66554163574E+02  0.72639652669E+02  0.10193558788E+03  0.00000000000E+00 0. -1.
          3    1    5    5  503    0 -0.23884181077E+03  0.19710859333E+03 -0.85112534753E+02  0.32115627303E+03  0.00000000000E+00 0. -1.
         -2    1    5    5    0  503 -0.15254321567E+03  0.86231471246E+02  0.51083638467E+01  0.17530372118E+03  0.00000000000E+00 0.  1.
         -3    1    6    6    0  502  0.13175071869E+02 -0.34496304339E+03  0.18675933184E+03  0.39249475391E+03  0.00000000000E+00 0.  1.
<mgrwt>
<rscale>  0 0.13919951E+04</rscale>
<asrwt>0</asrwt>
<pdfrwt beam="1">  1        2 0.14754342E+00 0.13919951E+04</pdfrwt>
<pdfrwt beam="2">  1       -2 0.77708560E-01 0.13919951E+04</pdfrwt>
<totfact> 0.38492320E+01</totfact>
</mgrwt>
</event>
<event>
12    1  0.2360101E-007  0.2326054E+04  0.7818608E-02  0.8467719E-01
         -1   -1    0    0    0  501 -0.00000000000E+00  0.00000000000E+00  0.65578545934E+03  0.65578545934E+03  0.00000000000E+00 0.  1.
          1   -1    0    0  501    0  0.00000000000E+00 -0.00000000000E+00 -0.20626130774E+04  0.20626130774E+04  0.00000000000E+00 0. -1.
         23    2    1    2    0    0  0.20887813282E+03 -0.84297643946E+03 -0.52857400131E+02  0.87486934270E+03  0.91450042041E+02 0.  0.
        254    2    1    2    0    0 -0.20887813282E+03  0.84297643946E+03 -0.13539702180E+04  0.18435291941E+04  0.90062488661E+03 0.  0.
        -24    2    4    4    0    0  0.13430480161E+02  0.71164891898E+03 -0.33762525564E+03  0.79183834759E+03  0.79953697744E+02 0.  0.
         24    2    4    4    0    0 -0.22230861298E+03  0.13132752048E+03 -0.10163449623E+04  0.10516908465E+04  0.80178033606E+02 0.  0.
         11    1    3    3    0    0  0.17846736203E+03 -0.70000534658E+03 -0.97034932128E+01  0.72246262348E+03  0.00000000000E+00 0.  1.
        -11    1    3    3    0    0  0.30410770787E+02 -0.14297109288E+03 -0.43153906918E+02  0.15240671922E+03  0.00000000000E+00 0. -1.
          4    1    6    6  502    0 -0.34343704281E+02  0.25880662160E+02 -0.79612258301E+02  0.90484310073E+02  0.00000000000E+00 0. -1.
          1    1    5    5  503    0  0.19763961748E+02  0.68527016766E+02 -0.17580285905E+02  0.73454970311E+02  0.00000000000E+00 0. -1.
         -2    1    5    5    0  503 -0.63334815872E+01  0.64312190222E+03 -0.32004496973E+03  0.71838337728E+03  0.00000000000E+00 0.  1.
         -3    1    6    6    0  502 -0.18796490870E+03  0.10544685832E+03 -0.93673270403E+03  0.96120653640E+03  0.00000000000E+00 0.  1.
<mgrwt>
<rscale>  0 0.23260539E+04</rscale>
<asrwt>0</asrwt>
<pdfrwt beam="1">  1        1 0.31732509E+00 0.23260539E+04</pdfrwt>
<pdfrwt beam="2">  1       -1 0.10089007E+00 0.23260539E+04</pdfrwt>
<totfact> 0.22753406E+00</totfact>
</mgrwt>
</event>
<event>
12    1  0.2083715E-007  0.2813872E+04  0.7818608E-02  0.8298975E-01
          2   -1    0    0  501    0  0.00000000000E+00  0.00000000000E+00  0.11439281062E+04  0.11439281062E+04  0.00000000000E+00 0. -1.
         -2   -1    0    0    0  501 -0.00000000000E+00 -0.00000000000E+00 -0.17304134634E+04  0.17304134634E+04  0.00000000000E+00 0.  1.
         23    2    1    2    0    0  0.53131512540E+02  0.45777055380E+03 -0.14636044039E+04  0.15369629670E+04  0.87979960323E+02 0.  0.
        254    2    1    2    0    0 -0.53131512540E+02 -0.45777055380E+03  0.87711904668E+03  0.13373786025E+04  0.89825768398E+03 0.  0.
        -24    2    4    4    0    0  0.22420702574E+03 -0.20137924517E+03 -0.66517988179E+02  0.31789129600E+03  0.76209202511E+02 0.  0.
         24    2    4    4    0    0 -0.27733853828E+03 -0.25639130863E+03  0.94363703486E+03  0.10194873065E+04  0.79059133526E+02 0.  0.
         13    1    3    3    0    0  0.23914941123E+02  0.11852761848E+03 -0.27201774543E+03  0.29768166652E+03  0.00000000000E+00 0.  1.
        -13    1    3    3    0    0  0.29216571417E+02  0.33924293532E+03 -0.11915866585E+04  0.12392813005E+04  0.00000000000E+00 0. -1.
          4    1    6    6  502    0 -0.22141076356E+03 -0.23744745321E+03  0.75558393930E+03  0.82238136444E+03  0.00000000000E+00 0. -1.
          3    1    5    5  503    0  0.19610464881E+03 -0.13924759556E+03 -0.67095623087E+02  0.24969731435E+03  0.00000000000E+00 0. -1.
         -4    1    5    5    0  503  0.28102376928E+02 -0.62131649606E+02  0.57763490864E+00  0.68193981654E+02  0.00000000000E+00 0.  1.
         -3    1    6    6    0  502 -0.55927774721E+02 -0.18943855421E+02  0.18805309556E+03  0.19710594205E+03  0.00000000000E+00 0.  1.
<mgrwt>
<rscale>  0 0.28138718E+04</rscale>
<asrwt>0</asrwt>
<pdfrwt beam="1">  1        2 0.17598894E+00 0.28138718E+04</pdfrwt>
<pdfrwt beam="2">  1       -2 0.26621746E+00 0.28138718E+04</pdfrwt>
<totfact> 0.90969232E-01</totfact>
</mgrwt>
</event>
<event>
12    1  0.2083715E-007  0.1885877E+04  0.7818608E-02  0.8661918E-01
          2   -1    0    0  501    0  0.00000000000E+00  0.00000000000E+00  0.28700974701E+04  0.28700974701E+04  0.00000000000E+00 0. -1.
         -2   -1    0    0    0  501 -0.00000000000E+00 -0.00000000000E+00 -0.30979191761E+03  0.30979191761E+03  0.00000000000E+00 0.  1.
         23    2    1    2    0    0  0.28181222988E+03 -0.53948153794E+03  0.32782059321E+03  0.69720726685E+03  0.90405580225E+02 0.  0.
        254    2    1    2    0    0 -0.28181222988E+03  0.53948153794E+03  0.22324849593E+04  0.24826821208E+04  0.89959043855E+03 0.  0.
        -24    2    4    4    0    0 -0.50164004061E+03  0.12087454404E+03  0.67648511339E+03  0.85453257684E+03  0.79626820236E+02 0.  0.
         24    2    4    4    0    0  0.21982781073E+03  0.41860699390E+03  0.15559998459E+04  0.16281495440E+04  0.78608749994E+02 0.  0.
         11    1    3    3    0    0  0.14304919503E+03 -0.18063095229E+03  0.13077195957E+03  0.26493757479E+03  0.00000000000E+00 0.  1.
        -11    1    3    3    0    0  0.13876303485E+03 -0.35885058564E+03  0.19704863364E+03  0.43226969206E+03  0.00000000000E+00 0. -1.
          4    1    6    6  502    0  0.85665318991E+02  0.91358998534E+02  0.43619747679E+03  0.45382072699E+03  0.00000000000E+00 0. -1.
          3    1    5    5  503    0 -0.50752987240E+02  0.33107891520E+02  0.10603489620E+03  0.12212861011E+03  0.00000000000E+00 0. -1.
         -4    1    5    5    0  503 -0.45088705337E+03  0.87766652519E+02  0.57045021719E+03  0.73240396673E+03  0.00000000000E+00 0.  1.
         -3    1    6    6    0  502  0.13416249174E+03  0.32724799536E+03  0.11198023691E+04  0.11743288170E+04  0.00000000000E+00 0.  1.
<mgrwt>
<rscale>  0 0.18858770E+04</rscale>
<asrwt>0</asrwt>
<pdfrwt beam="1">  1        2 0.44155344E+00 0.18858770E+04</pdfrwt>
<pdfrwt beam="2">  1       -2 0.47660297E-01 0.18858770E+04</pdfrwt>
<totfact> 0.82178652E+00</totfact>
</mgrwt>
</event>
<event>
12    1  0.2083715E-007  0.2132051E+04  0.7818608E-02  0.8547255E-01
         -2   -1    0    0    0  501 -0.00000000000E+00  0.00000000000E+00  0.46147851701E+03  0.46147851701E+03  0.00000000000E+00 0.  1.
          2   -1    0    0  501    0  0.00000000000E+00 -0.00000000000E+00 -0.24625422259E+04  0.24625422259E+04  0.00000000000E+00 0. -1.
         23    2    1    2    0    0 -0.71640721745E+03  0.23419480495E+03 -0.21974413489E+03  0.79039098537E+03  0.91345043937E+02 0.  0.
        254    2    1    2    0    0  0.71640721745E+03 -0.23419480495E+03 -0.17813195740E+04  0.21336297576E+04  0.90066087385E+03 0.  0.
        -24    2    4    4    0    0  0.33300534064E+03 -0.56375050139E+03 -0.92699495612E+03  0.11376189050E+04  0.78421551450E+02 0.  0.
         24    2    4    4    0    0  0.38340187681E+03  0.32955569644E+03 -0.85432461791E+03  0.99601085252E+03  0.81013019805E+02 0.  0.
         11    1    3    3    0    0 -0.12679443246E+03  0.11845047425E+02 -0.57304783301E+02  0.13964587871E+03  0.00000000000E+00 0. -1.
        -11    1    3    3    0    0 -0.58961278499E+03  0.22234975753E+03 -0.16243935159E+03  0.65074510666E+03  0.00000000000E+00 0.  1.
          2    1    6    6  502    0  0.28738993460E+03  0.20612318371E+03 -0.55075166712E+03  0.65452818137E+03  0.00000000000E+00 0. -1.
          3    1    5    5  503    0  0.15965154202E+03 -0.34339674445E+03 -0.55145675846E+03  0.66896524231E+03  0.00000000000E+00 0. -1.
         -4    1    5    5    0  503  0.17335379861E+03 -0.22035375694E+03 -0.37553819766E+03  0.46865366273E+03  0.00000000000E+00 0.  1.
         -1    1    6    6    0  502  0.96011942211E+02  0.12343251273E+03 -0.30357295079E+03  0.34148267116E+03  0.00000000000E+00 0.  1.
<mgrwt>
<rscale>  0 0.21320510E+04</rscale>
<asrwt>0</asrwt>
<pdfrwt beam="1">  1        2 0.37885266E+00 0.21320510E+04</pdfrwt>
<pdfrwt beam="2">  1       -2 0.70996693E-01 0.21320510E+04</pdfrwt>
<totfact> 0.60627987E+00</totfact>
</mgrwt>
</event>
<event>
12    1  0.2083715E-007  0.2003577E+04  0.7818608E-02  0.8604950E-01
         -2   -1    0    0    0  501 -0.00000000000E+00  0.00000000000E+00  0.79026529076E+03  0.79026529076E+03  0.00000000000E+00 0.  1.
          2   -1    0    0  501    0  0.00000000000E+00 -0.00000000000E+00 -0.12699280405E+04  0.12699280405E+04  0.00000000000E+00 0. -1.
         23    2    1    2    0    0  0.14103022630E+03 -0.78429344979E+03 -0.22034700613E+03  0.83190537914E+03  0.92238910513E+02 0.  0.
        254    2    1    2    0    0 -0.14103022630E+03  0.78429344979E+03 -0.25931574366E+03  0.12282879522E+04  0.89802054453E+03 0.  0.
        -24    2    4    4    0    0 -0.33209882966E+03 -0.16926551800E+02  0.47015037806E+02  0.34536104735E+03  0.80546250254E+02 0.  0.
         24    2    4    4    0    0  0.19106860336E+03  0.80122000159E+03 -0.30633078146E+03  0.88292690481E+03  0.85209561787E+02 0.  0.
         13    1    3    3    0    0  0.38041546815E+02 -0.46759300419E+03 -0.13240572348E+03  0.48746451405E+03  0.00000000000E+00 0.  1.
        -13    1    3    3    0    0  0.10298867948E+03 -0.31670044560E+03 -0.87941282644E+02  0.34444086508E+03  0.00000000000E+00 0. -1.
          4    1    6    6  502    0  0.13042847546E+03  0.67412513276E+03 -0.26705173161E+03  0.73673123267E+03  0.00000000000E+00 0. -1.
          1    1    5    5  503    0 -0.28148400534E+03 -0.15037819867E+02  0.89948345510E+01  0.28202887855E+03  0.00000000000E+00 0. -1.
         -2    1    5    5    0  503 -0.50614824322E+02 -0.18887319327E+01  0.38020203255E+02  0.63332168801E+02  0.00000000000E+00 0.  1.
         -3    1    6    6    0  502  0.60640127905E+02  0.12709486883E+03 -0.39279049852E+02  0.14619567214E+03  0.00000000000E+00 0.  1.
<mgrwt>
<rscale>  0 0.20035769E+04</rscale>
<asrwt>0</asrwt>
<pdfrwt beam="1">  1        2 0.19537354E+00 0.20035769E+04</pdfrwt>
<pdfrwt beam="2">  1       -2 0.12157928E+00 0.20035769E+04</pdfrwt>
<totfact> 0.82199324E+00</totfact>
</mgrwt>
</event>
<event>
12    1  0.2083715E-007  0.2202480E+04  0.7818608E-02  0.8517396E-01
         -2   -1    0    0    0  501 -0.00000000000E+00  0.00000000000E+00  0.41586063136E+03  0.41586063136E+03  0.00000000000E+00 0. -1.
          2   -1    0    0  501    0  0.00000000000E+00 -0.00000000000E+00 -0.29161934027E+04  0.29161934027E+04  0.00000000000E+00 0.  1.
         23    2    1    2    0    0 -0.53312992311E+03 -0.69145411651E+03 -0.63507498312E+03  0.10835172542E+04  0.91395272280E+02 0.  0.
        254    2    1    2    0    0  0.53312992311E+03  0.69145411651E+03 -0.18652577882E+04  0.22485367799E+04  0.90243821049E+03 0.  0.
        -24    2    4    4    0    0  0.70041515576E+03  0.55536434014E+03 -0.96011737311E+03  0.13145724114E+04  0.85230945368E+02 0.  0.
         24    2    4    4    0    0 -0.16728523265E+03  0.13608977637E+03 -0.90514041513E+03  0.93396436845E+03  0.80656643423E+02 0.  0.
         11    1    3    3    0    0 -0.28570816517E+03 -0.44345937671E+03 -0.37602913626E+03  0.64782967341E+03  0.00000000000E+00 0.  1.
        -11    1    3    3    0    0 -0.24742175795E+03 -0.24799473980E+03 -0.25904584687E+03  0.43568758079E+03  0.00000000000E+00 0. -1.
          2    1    6    6  502    0 -0.15670088373E+03  0.85826213361E+02 -0.71912027140E+03  0.74098263852E+03  0.00000000000E+00 0. -1.
          3    1    5    5  503    0  0.18036157593E+03  0.19230659262E+03 -0.27689345633E+03  0.38233769079E+03  0.00000000000E+00 0. -1.
         -4    1    5    5    0  503  0.52005357983E+03  0.36305774752E+03 -0.68322391678E+03  0.93223472065E+03  0.00000000000E+00 0.  1.
         -1    1    6    6    0  502 -0.10584348919E+02  0.50263563009E+02 -0.18602014374E+03  0.19298172992E+03  0.00000000000E+00 0.  1.
<mgrwt>
<rscale>  0 0.22024804E+04</rscale>
<asrwt>0</asrwt>
<pdfrwt beam="1">  1        2 0.44864513E+00 0.22024804E+04</pdfrwt>
<pdfrwt beam="2">  1       -2 0.63978560E-01 0.22024804E+04</pdfrwt>
<totfact> 0.40566111E+00</totfact>
</mgrwt>
</event>
<event>
12    1  0.2083715E-007  0.3959612E+04  0.7818608E-02  0.8012744E-01
          1   -1    0    0  501    0  0.00000000000E+00  0.00000000000E+00  0.32298065146E+04  0.32298065146E+04  0.00000000000E+00 0. -1.
         -1   -1    0    0    0  501 -0.00000000000E+00 -0.00000000000E+00 -0.12135810344E+04  0.12135810344E+04  0.00000000000E+00 0.  1.
         23    2    1    2    0    0  0.73937913405E+03  0.17202728376E+04  0.10880902038E+04  0.21677419275E+04  0.95627573642E+02 0.  0.
        254    2    1    2    0    0 -0.73937913405E+03 -0.17202728376E+04  0.92813527645E+03  0.22756456215E+04  0.90061521407E+03 0.  0.
        -24    2    4    4    0    0 -0.82557976938E+03 -0.10758340658E+04  0.88038992180E+03  0.16184038119E+04  0.71718835727E+02 0.  0.
         24    2    4    4    0    0  0.86200635333E+02 -0.64443877179E+03  0.47745354649E+02  0.65724180958E+03  0.83398424740E+02 0.  0.
         11    1    3    3    0    0  0.55288352760E+03  0.12331903923E+04  0.74140613579E+03  0.15414674168E+04  0.00000000000E+00 0. -1.
        -11    1    3    3    0    0  0.18649560644E+03  0.48708244527E+03  0.34668406803E+03  0.62627451069E+03  0.00000000000E+00 0.  1.
          4    1    6    6  502    0  0.71970465798E+02 -0.51623742980E+03  0.46709202200E+01  0.52125104256E+03  0.00000000000E+00 0. -1.
          1    1    5    5  503    0 -0.43067400706E+03 -0.61420147284E+03  0.50455242492E+03  0.90404463335E+03  0.00000000000E+00 0. -1.
         -2    1    5    5    0  503 -0.39490576232E+03 -0.46163259294E+03  0.37583749689E+03  0.71435917859E+03  0.00000000000E+00 0.  1.
         -3    1    6    6    0  502  0.14230169535E+02 -0.12820134199E+03  0.43074434429E+02  0.13599076702E+03  0.00000000000E+00 0.  1.
<mgrwt>
<rscale>  0 0.39596121E+04</rscale>
<asrwt>0</asrwt>
<pdfrwt beam="1">  1        1 0.49689331E+00 0.39596121E+04</pdfrwt>
<pdfrwt beam="2">  1       -1 0.18670478E+00 0.39596121E+04</pdfrwt>
<totfact> 0.59032446E-02</totfact>
</mgrwt>
</event>
<event>
12    1  0.2083715E-007  0.4705125E+04  0.7818608E-02  0.7875678E-01
          2   -1    0    0  501    0  0.00000000000E+00  0.00000000000E+00  0.26910203806E+04  0.26910203806E+04  0.00000000000E+00 0. -1.
         -2   -1    0    0    0  501 -0.00000000000E+00 -0.00000000000E+00 -0.20566736925E+04  0.20566736925E+04  0.00000000000E+00 0.  1.
         23    2    1    2    0    0 -0.82392028363E+03  0.20497937599E+04 -0.20224759446E+03  0.22202649854E+04  0.90406991181E+02 0.  0.
        254    2    1    2    0    0  0.82392028363E+03 -0.20497937599E+04  0.83659428256E+03  0.25274290876E+04  0.89861488278E+03 0.  0.
        -24    2    4    4    0    0  0.95302195162E+03 -0.12767135826E+04  0.61511600871E+03  0.17096679321E+04  0.79676355050E+02 0.  0.
         24    2    4    4    0    0 -0.12910166799E+03 -0.77308017725E+03  0.22147827385E+03  0.81776115553E+03  0.73215302785E+02 0.  0.
         13    1    3    3    0    0 -0.39399502098E+03  0.89343682826E+03 -0.12061484355E+03  0.98387467857E+03  0.00000000000E+00 0.  1.
        -13    1    3    3    0    0 -0.42992526266E+03  0.11563569316E+04 -0.81632750910E+02  0.12363903068E+04  0.00000000000E+00 0. -1.
          2    1    6    6  502    0  0.66320835006E+01 -0.36251977244E+02  0.13969907355E+01  0.36880102614E+02  0.00000000000E+00 0. -1.
          3    1    5    5  503    0  0.38034239872E+03 -0.46628701196E+03  0.26304199229E+03  0.65671531694E+03  0.00000000000E+00 0. -1.
         -4    1    5    5    0  503  0.57267955290E+03 -0.81042657068E+03  0.35207401641E+03  0.10529526152E+04  0.00000000000E+00 0.  1.
         -1    1    6    6    0  502 -0.13573375149E+03 -0.73682820001E+03  0.22008128311E+03  0.78088105291E+03  0.00000000000E+00 0.  1.
<mgrwt>
<rscale>  0 0.47051252E+04</rscale>
<asrwt>0</asrwt>
<pdfrwt beam="1">  1        2 0.41400313E+00 0.47051252E+04</pdfrwt>
<pdfrwt beam="2">  1       -2 0.31641134E+00 0.47051252E+04</pdfrwt>
<totfact> 0.50480219E-02</totfact>
</mgrwt>
</event>
<event>
12    1  0.2232639E-007  0.2354110E+04  0.7818608E-02  0.8456887E-01
          2   -1    0    0  501    0  0.00000000000E+00  0.00000000000E+00  0.78809704692E+03  0.78809704692E+03  0.00000000000E+00 0. -1.
         -2   -1    0    0    0  501 -0.00000000000E+00 -0.00000000000E+00 -0.17579788512E+04  0.17579788512E+04  0.00000000000E+00 0.  1.
         23    2    1    2    0    0 -0.74352083462E+03  0.42158891730E+03  0.15289993354E+03  0.87297661221E+03  0.90273634531E+02 0.  0.
        254    2    1    2    0    0  0.74352083462E+03 -0.42158891730E+03 -0.11227817378E+04  0.16730992859E+04  0.89892265687E+03 0.  0.
        -24    2    4    4    0    0  0.31164981553E+03  0.25713430117E+03 -0.52482281962E+03  0.66698941302E+03  0.78690715647E+02 0.  0.
         24    2    4    4    0    0  0.43187101909E+03 -0.67872321847E+03 -0.59795891817E+03  0.10061098729E+04  0.86743438100E+02 0.  0.
         11    1    3    3    0    0 -0.40201027605E+03  0.17889205933E+03  0.63421961950E+02  0.44456380442E+03  0.00000000000E+00 0.  1.
        -11    1    3    3    0    0 -0.34151055857E+03  0.24269685797E+03  0.89477971585E+02  0.42841280780E+03  0.00000000000E+00 0. -1.
          4    1    6    6  502    0  0.25231301069E+03 -0.45640579578E+03 -0.41847950125E+03  0.66865028136E+03  0.00000000000E+00 0. -1.
          3    1    5    5  503    0  0.19174087078E+03  0.11911761413E+03 -0.24914176595E+03  0.33619218769E+03  0.00000000000E+00 0. -1.
         -4    1    5    5    0  503  0.11990894475E+03  0.13801668704E+03 -0.27568105368E+03  0.33079722534E+03  0.00000000000E+00 0.  1.
         -3    1    6    6    0  502  0.17955800840E+03 -0.22231742268E+03 -0.17947941692E+03  0.33745959152E+03  0.00000000000E+00 0.  1.
<mgrwt>
<rscale>  0 0.23541095E+04</rscale>
<asrwt>0</asrwt>
<pdfrwt beam="1">  1        2 0.12124570E+00 0.23541095E+04</pdfrwt>
<pdfrwt beam="2">  1       -2 0.27045828E+00 0.23541095E+04</pdfrwt>
<totfact> 0.15273549E+00</totfact>
</mgrwt>
</event>
<event>
12    1  0.2083715E-007  0.1480891E+04  0.7818608E-02  0.8897260E-01
          2   -1    0    0  501    0  0.00000000000E+00  0.00000000000E+00  0.23187379495E+04  0.23187379495E+04  0.00000000000E+00 0. -1.
         -2   -1    0    0    0  501 -0.00000000000E+00 -0.00000000000E+00 -0.23644750867E+03  0.23644750867E+03  0.00000000000E+00 0.  1.
         23    2    1    2    0    0 -0.16364376696E+03 -0.42555840447E+03  0.75825731098E+03  0.88959209130E+03  0.92415914051E+02 0.  0.
        254    2    1    2    0    0  0.16364376696E+03  0.42555840447E+03  0.13240331299E+04  0.16655933669E+04  0.90180834812E+03 0.  0.
        -24    2    4    4    0    0  0.47338529838E+02 -0.16791066020E+03 -0.15797643873E+02  0.19313246426E+03  0.81336689040E+02 0.  0.
         24    2    4    4    0    0  0.11630523712E+03  0.59346906467E+03  0.13398307738E+04  0.14724609026E+04  0.85218358275E+02 0.  0.
         11    1    3    3    0    0 -0.12653033142E+03 -0.28666385892E+03  0.59185777520E+03  0.66968777714E+03  0.00000000000E+00 0. -1.
        -11    1    3    3    0    0 -0.37113435537E+02 -0.13889454554E+03  0.16639953578E+03  0.21990431416E+03  0.00000000000E+00 0.  1.
          2    1    6    6  502    0  0.11958641325E+03  0.58329358410E+03  0.13325439515E+04  0.14595224213E+04  0.00000000000E+00 0. -1.
          1    1    5    5  503    0  0.67605503010E+02 -0.13420048175E+03 -0.25993475651E+02  0.15249896431E+03  0.00000000000E+00 0. -1.
         -2    1    5    5    0  503 -0.20266973173E+02 -0.33710178449E+02  0.10195831778E+02  0.40633499951E+02  0.00000000000E+00 0.  1.
         -1    1    6    6    0  502 -0.32811761265E+01  0.10175480567E+02  0.72868222419E+01  0.12938481361E+02  0.00000000000E+00 0.  1.
<mgrwt>
<rscale>  0 0.14808914E+04</rscale>
<asrwt>0</asrwt>
<pdfrwt beam="1">  1        2 0.35672890E+00 0.14808914E+04</pdfrwt>
<pdfrwt beam="2">  1       -2 0.36376541E-01 0.14808914E+04</pdfrwt>
<totfact> 0.30501824E+01</totfact>
</mgrwt>
</event>
<event>
12    1  0.2083715E-007  0.4169720E+04  0.7818608E-02  0.7971157E-01
          2   -1    0    0  501    0  0.00000000000E+00  0.00000000000E+00  0.29652232489E+04  0.29652232489E+04  0.00000000000E+00 0. -1.
         -2   -1    0    0    0  501 -0.00000000000E+00 -0.00000000000E+00 -0.14658728623E+04  0.14658728623E+04  0.00000000000E+00 0.  1.
         23    2    1    2    0    0 -0.19496592806E+04  0.84188900182E+02  0.32529824151E+03  0.19805409504E+04  0.92002331597E+02 0.  0.
        254    2    1    2    0    0  0.19496592806E+04 -0.84188900182E+02  0.11740521451E+04  0.24505551608E+04  0.90474475712E+03 0.  0.
        -24    2    4    4    0    0  0.12546788645E+04  0.33104996197E+01  0.12097079017E+04  0.17445871289E+04  0.77207708147E+02 0.  0.
         24    2    4    4    0    0  0.69498041603E+03 -0.87499399802E+02 -0.35655756613E+02  0.70596803194E+03  0.80408989048E+02 0.  0.
         11    1    3    3    0    0 -0.15651313256E+04  0.65512155490E+02  0.22382692083E+03  0.15824115771E+04  0.00000000000E+00 0. -1.
        -11    1    3    3    0    0 -0.38452795493E+03  0.18676744692E+02  0.10147132068E+03  0.39812937324E+03  0.00000000000E+00 0.  1.
          4    1    6    6  502    0  0.39592755468E+03 -0.58570929226E+02 -0.59232175900E+02  0.40459564131E+03  0.00000000000E+00 0. -1.
          1    1    5    5  503    0  0.60876016051E+03  0.15907131475E+02  0.53730556691E+03  0.81212021406E+03  0.00000000000E+00 0. -1.
         -2    1    5    5    0  503  0.64591870402E+03 -0.12596631855E+02  0.67240233480E+03  0.93246691480E+03  0.00000000000E+00 0.  1.
         -3    1    6    6    0  502  0.29905286135E+03 -0.28928470576E+02  0.23576419287E+02  0.30137239064E+03  0.00000000000E+00 0.  1.
<mgrwt>
<rscale>  0 0.41697196E+04</rscale>
<asrwt>0</asrwt>
<pdfrwt beam="1">  1        2 0.45618819E+00 0.41697196E+04</pdfrwt>
<pdfrwt beam="2">  1       -2 0.22551890E+00 0.41697196E+04</pdfrwt>
<totfact> 0.12986799E-01</totfact>
</mgrwt>
</event>
<event>
12    1  0.2083715E-007  0.1695737E+04  0.7818608E-02  0.8763799E-01
         -2   -1    0    0    0  501 -0.00000000000E+00  0.00000000000E+00  0.31352585605E+03  0.31352585605E+03  0.00000000000E+00 0. -1.
          2   -1    0    0  501    0  0.00000000000E+00 -0.00000000000E+00 -0.22928930509E+04  0.22928930509E+04  0.00000000000E+00 0.  1.
         23    2    1    2    0    0 -0.35191963380E+03  0.23738787266E+03 -0.13757808263E+04  0.14427904251E+04  0.93117657355E+02 0.  0.
        254    2    1    2    0    0  0.35191963380E+03 -0.23738787266E+03 -0.60358636855E+03  0.11636284818E+04  0.89973013101E+03 0.  0.
        -24    2    4    4    0    0  0.84139466273E+02 -0.60322631264E+02  0.23086868338E+03  0.26586837691E+03  0.81653997122E+02 0.  0.
         24    2    4    4    0    0  0.26778016752E+03 -0.17706524140E+03 -0.83445505193E+03  0.89776010490E+03  0.81238257241E+02 0.  0.
         13    1    3    3    0    0 -0.11703897846E+03  0.81731145683E+02 -0.32668825946E+03  0.35651552774E+03  0.00000000000E+00 0. -1.
        -13    1    3    3    0    0 -0.23488065534E+03  0.15565672698E+03 -0.10490925669E+04  0.10862748974E+04  0.00000000000E+00 0.  1.
          2    1    6    6  502    0  0.12536836456E+03 -0.96013317936E+02 -0.51597552554E+03  0.53959848685E+03  0.00000000000E+00 0. -1.
          3    1    5    5  503    0  0.71793383819E+02 -0.22323309829E+02  0.79939915158E+02  0.10974064952E+03  0.00000000000E+00 0. -1.
         -4    1    5    5    0  503  0.12346082454E+02 -0.37999321435E+02  0.15092876822E+03  0.15612772738E+03  0.00000000000E+00 0.  1.
         -1    1    6    6    0  502  0.14241180296E+03 -0.81051923461E+02 -0.31847952639E+03  0.35816161806E+03  0.00000000000E+00 0.  1.
<mgrwt>
<rscale>  0 0.16957373E+04</rscale>
<asrwt>0</asrwt>
<pdfrwt beam="1">  1        2 0.35275279E+00 0.16957373E+04</pdfrwt>
<pdfrwt beam="2">  1       -2 0.48234746E-01 0.16957373E+04</pdfrwt>
<totfact> 0.17748855E+01</totfact>
</mgrwt>
</event>
<event>
12    1  0.2083715E-007  0.2038365E+04  0.7818608E-02  0.8588891E-01
         -1   -1    0    0    0  501 -0.00000000000E+00  0.00000000000E+00  0.10660713512E+04  0.10660713512E+04  0.00000000000E+00 0.  1.
          1   -1    0    0  501    0  0.00000000000E+00 -0.00000000000E+00 -0.97435572298E+03  0.97435572298E+03  0.00000000000E+00 0. -1.
         23    2    1    2    0    0  0.26331639981E+03  0.77268722753E+03 -0.58865082331E+01  0.82141104441E+03  0.91106393351E+02 0.  0.
        254    2    1    2    0    0 -0.26331639981E+03 -0.77268722753E+03  0.97602136488E+02  0.12190160298E+04  0.90005156844E+03 0.  0.
        -24    2    4    4    0    0  0.61752189338E+02 -0.60087536331E+03 -0.29342906631E+03  0.67648485752E+03  0.81649313369E+02 0.  0.
         24    2    4    4    0    0 -0.32506858914E+03 -0.17181186422E+03  0.39103120280E+03  0.54253117228E+03  0.79030165077E+02 0.  0.
         11    1    3    3    0    0  0.17645761284E+03  0.59968052575E+03 -0.32796993693E+02  0.62596299003E+03  0.00000000000E+00 0. -1.
        -11    1    3    3    0    0  0.86858786968E+02  0.17300670178E+03  0.26910485460E+02  0.19544805439E+03  0.00000000000E+00 0.  1.
          4    1    6    6  502    0 -0.96051340876E+02 -0.44112680811E+02  0.16703947506E+03  0.19767138114E+03  0.00000000000E+00 0. -1.
          3    1    5    5  503    0  0.43265229701E+02 -0.50177982011E+03 -0.27559403409E+03  0.57411404755E+03  0.00000000000E+00 0. -1.
         -4    1    5    5    0  503  0.18486959636E+02 -0.99095543200E+02 -0.17835032222E+02  0.10237080997E+03  0.00000000000E+00 0.  1.
         -3    1    6    6    0  502 -0.22901724827E+03 -0.12769918341E+03  0.22399172774E+03  0.34485979114E+03  0.00000000000E+00 0.  1.
<mgrwt>
<rscale>  0 0.20383648E+04</rscale>
<asrwt>0</asrwt>
<pdfrwt beam="1">  1        1 0.14990088E+00 0.20383648E+04</pdfrwt>
<pdfrwt beam="2">  1       -1 0.16401098E+00 0.20383648E+04</pdfrwt>
<totfact> 0.39951393E+00</totfact>
</mgrwt>
</event>
<event>
12    1  0.2083715E-007  0.3837483E+04  0.7818608E-02  0.8038159E-01
         -2   -1    0    0    0  501 -0.00000000000E+00  0.00000000000E+00  0.16922934223E+04  0.16922934223E+04  0.00000000000E+00 0.  1.
          2   -1    0    0  501    0  0.00000000000E+00 -0.00000000000E+00 -0.21754905100E+04  0.21754905100E+04  0.00000000000E+00 0. -1.
         23    2    1    2    0    0 -0.16816272126E+04 -0.49379009646E+03 -0.69345667612E+03  0.18869949377E+04  0.90382474404E+02 0.  0.
        254    2    1    2    0    0  0.16816272126E+04  0.49379009646E+03  0.21025958841E+03  0.19807889947E+04  0.89867525028E+03 0.  0.
        -24    2    4    4    0    0  0.25217566895E+03  0.43485395269E+03 -0.89534355443E+02  0.51687779687E+03  0.80347544538E+02 0.  0.
         24    2    4    4    0    0  0.14294515436E+04  0.58936143764E+02  0.29979394386E+03  0.14639111978E+04  0.79714500932E+02 0.  0.
         11    1    3    3    0    0 -0.10486372120E+04 -0.29307508756E+03 -0.38596203573E+03  0.11552054806E+04  0.00000000000E+00 0. -1.
        -11    1    3    3    0    0 -0.63299000052E+03 -0.20071500890E+03 -0.30749464039E+03  0.73178945703E+03  0.00000000000E+00 0.  1.
          4    1    6    6  502    0  0.83826759308E+03  0.13089415880E+02  0.20914307386E+03  0.86406291192E+03  0.00000000000E+00 0. -1.
          1    1    5    5  503    0  0.19039061762E+03  0.33674786062E+03 -0.34032667424E+02  0.38833739372E+03  0.00000000000E+00 0. -1.
         -2    1    5    5    0  503  0.61785051329E+02  0.98106092071E+02 -0.55501688019E+02  0.12854040315E+03  0.00000000000E+00 0.  1.
         -3    1    6    6    0  502  0.59118395054E+03  0.45846727884E+02  0.90650869995E+02  0.59984828587E+03  0.00000000000E+00 0.  1.
<mgrwt>
<rscale>  0 0.38374827E+04</rscale>
<asrwt>0</asrwt>
<pdfrwt beam="1">  1        2 0.33469085E+00 0.38374827E+04</pdfrwt>
<pdfrwt beam="2">  1       -2 0.26035283E+00 0.38374827E+04</pdfrwt>
<totfact> 0.23656370E-01</totfact>
</mgrwt>
</event>
<event>
12    1  0.2083715E-007  0.2220083E+04  0.7818608E-02  0.8510115E-01
          1   -1    0    0  501    0  0.00000000000E+00  0.00000000000E+00  0.11911990408E+04  0.11911990408E+04  0.00000000000E+00 0. -1.
         -1   -1    0    0    0  501 -0.00000000000E+00 -0.00000000000E+00 -0.10344136098E+04  0.10344136098E+04  0.00000000000E+00 0.  1.
         23    2    1    2    0    0  0.10391238835E+03 -0.60524327812E+03  0.75918445566E+03  0.98063234676E+03  0.90341306433E+02 0.  0.
        254    2    1    2    0    0 -0.10391238835E+03  0.60524327812E+03 -0.60239902473E+03  0.12449803039E+04  0.89998564534E+03 0.  0.
        -24    2    4    4    0    0 -0.33590866441E+03  0.10873882512E+03  0.75409682361E+02  0.36969529480E+03  0.79556444689E+02 0.  0.
         24    2    4    4    0    0  0.23199627606E+03  0.49650445300E+03 -0.67780870709E+03  0.87528500905E+03  0.79751236359E+02 0.  0.
         13    1    3    3    0    0  0.99828737323E+02 -0.59665908961E+03  0.72047158543E+03  0.94076944648E+03  0.00000000000E+00 0.  1.
        -13    1    3    3    0    0  0.40836510248E+01 -0.85841885042E+01  0.38712870226E+02  0.39862900285E+02  0.00000000000E+00 0. -1.
          4    1    6    6  502    0  0.32434988509E+02  0.26815773580E+02 -0.36511009655E+02  0.55715060964E+02  0.00000000000E+00 0. -1.
          3    1    5    5  503    0 -0.20773732029E+03  0.34946231850E+02  0.19395617121E+02  0.21154721300E+03  0.00000000000E+00 0. -1.
         -4    1    5    5    0  503 -0.12817134412E+03  0.73792593272E+02  0.56014065240E+02  0.15814808181E+03  0.00000000000E+00 0.  1.
         -3    1    6    6    0  502  0.19956128755E+03  0.46968867942E+03 -0.64129769744E+03  0.81956994808E+03  0.00000000000E+00 0.  1.
<mgrwt>
<rscale>  0 0.22200833E+04</rscale>
<asrwt>0</asrwt>
<pdfrwt beam="1">  1        1 0.18326139E+00 0.22200833E+04</pdfrwt>
<pdfrwt beam="2">  1       -1 0.15914055E+00 0.22200833E+04</pdfrwt>
<totfact> 0.29285775E+00</totfact>
</mgrwt>
</event>
<event>
12    1  0.2083715E-007  0.1229420E+04  0.7818608E-02  0.9087488E-01
         -1   -1    0    0    0  501 -0.00000000000E+00  0.00000000000E+00  0.26060732335E+03  0.26060732335E+03  0.00000000000E+00 0.  1.
          1   -1    0    0  501    0  0.00000000000E+00 -0.00000000000E+00 -0.14499522167E+04  0.14499522167E+04  0.00000000000E+00 0. -1.
         23    2    1    2    0    0 -0.69755462140E+02  0.24798151363E+03 -0.14596559441E+03  0.30900448008E+03  0.88414695379E+02 0.  0.
        254    2    1    2    0    0  0.69755462140E+02 -0.24798151363E+03 -0.10433792989E+04  0.14015550599E+04  0.89964191155E+03 0.  0.
        -24    2    4    4    0    0 -0.25363185652E+03 -0.46061270548E+03 -0.69766259674E+03  0.87726966157E+03  0.79848463565E+02 0.  0.
         24    2    4    4    0    0  0.32338731866E+03  0.21263119184E+03 -0.34571670218E+03  0.52428539837E+03  0.74590610390E+02 0.  0.
         11    1    3    3    0    0 -0.26253024430E+02  0.20475742640E+03 -0.87289498171E+02  0.22413005476E+03  0.00000000000E+00 0.  1.
        -11    1    3    3    0    0 -0.43502437710E+02  0.43224087234E+02 -0.58676096235E+02  0.84874425319E+02  0.00000000000E+00 0. -1.
          4    1    6    6  502    0  0.99736868744E+02  0.86442798697E+02 -0.15978611518E+03  0.20724720272E+03  0.00000000000E+00 0. -1.
          3    1    5    5  503    0 -0.15760143354E+03 -0.34196890868E+03 -0.45506108330E+03  0.59064501682E+03  0.00000000000E+00 0. -1.
         -4    1    5    5    0  503 -0.96030422982E+02 -0.11864379679E+03 -0.24260151344E+03  0.28662464475E+03  0.00000000000E+00 0.  1.
         -3    1    6    6    0  502  0.22365044992E+03  0.12618839315E+03 -0.18593058700E+03  0.31703819564E+03  0.00000000000E+00 0.  1.
<mgrwt>
<rscale>  0 0.12294196E+04</rscale>
<asrwt>0</asrwt>
<pdfrwt beam="1">  1        1 0.22306958E+00 0.12294196E+04</pdfrwt>
<pdfrwt beam="2">  1       -1 0.40093434E-01 0.12294196E+04</pdfrwt>
<totfact> 0.42445069E+01</totfact>
</mgrwt>
</event>
<event>
12    1  0.2083715E-007  0.1279247E+04  0.7818608E-02  0.9046186E-01
         -2   -1    0    0    0  501 -0.00000000000E+00  0.00000000000E+00  0.14099710614E+03  0.14099710614E+03  0.00000000000E+00 0. -1.
          2   -1    0    0  501    0  0.00000000000E+00 -0.00000000000E+00 -0.29016085315E+04  0.29016085315E+04  0.00000000000E+00 0.  1.
         23    2    1    2    0    0 -0.30072725829E+03 -0.81495629726E+02 -0.77374746911E+03  0.83929341996E+03  0.93004716543E+02 0.  0.
        254    2    1    2    0    0  0.30072725829E+03  0.81495629726E+02 -0.19868639563E+04  0.22033122177E+04  0.89993217874E+03 0.  0.
        -24    2    4    4    0    0 -0.20977945578E+03  0.78029594251E+02 -0.12017990353E+03  0.26645917597E+03  0.80381873601E+02 0.  0.
         24    2    4    4    0    0  0.51050671406E+03  0.34660354752E+01 -0.18666840527E+04  0.19368530417E+04  0.79127959192E+02 0.  0.
         11    1    3    3    0    0 -0.85524141271E+02 -0.48787701860E+00 -0.31126075056E+03  0.32279695104E+03  0.00000000000E+00 0.  1.
        -11    1    3    3    0    0 -0.21520311701E+03 -0.81007752708E+02 -0.46248671856E+03  0.51649646893E+03  0.00000000000E+00 0. -1.
          2    1    6    6  502    0  0.93810394648E+02 -0.20490948320E+02 -0.27199196289E+03  0.28844392346E+03  0.00000000000E+00 0. -1.
          1    1    5    5  503    0 -0.13477739824E+03  0.88567673350E+02 -0.91851237855E+02  0.18559587747E+03  0.00000000000E+00 0. -1.
         -2    1    5    5    0  503 -0.75002057536E+02 -0.10538079099E+02 -0.28328665674E+02  0.80863298502E+02  0.00000000000E+00 0.  1.
         -1    1    6    6    0  502  0.41669631941E+03  0.23956983796E+02 -0.15946920898E+04  0.16484091182E+04  0.00000000000E+00 0.  1.
<mgrwt>
<rscale>  0 0.12792473E+04</rscale>
<asrwt>0</asrwt>
<pdfrwt beam="1">  1        2 0.44640132E+00 0.12792473E+04</pdfrwt>
<pdfrwt beam="2">  1       -2 0.21691862E-01 0.12792473E+04</pdfrwt>
<totfact> 0.36808695E+01</totfact>
</mgrwt>
</event>
<event>
12    1  0.2741782E-007  0.4704546E+04  0.7818608E-02  0.7875774E-01
         -2   -1    0    0    0  501 -0.00000000000E+00  0.00000000000E+00  0.15075892928E+04  0.15075892928E+04  0.00000000000E+00 0. -1.
          2   -1    0    0  501    0  0.00000000000E+00 -0.00000000000E+00 -0.36702221683E+04  0.36702221683E+04  0.00000000000E+00 0.  1.
         23    2    1    2    0    0  0.18194684080E+03 -0.22364280624E+04 -0.69951317014E+03  0.23519275631E+04  0.86772436170E+02 0.  0.
        254    2    1    2    0    0 -0.18194684080E+03  0.22364280624E+04 -0.14631197053E+04  0.28258838979E+04  0.90010299482E+03 0.  0.
        -24    2    4    4    0    0  0.12072616991E+03  0.24785119789E+03 -0.53973111961E+03  0.61117964044E+03  0.78904036725E+02 0.  0.
         24    2    4    4    0    0 -0.30267301072E+03  0.19885768645E+04 -0.92338858573E+03  0.22147042575E+04  0.78864253188E+02 0.  0.
         11    1    3    3    0    0  0.47015968530E+02 -0.90967255555E+03 -0.24933503877E+03  0.94439537333E+03  0.00000000000E+00 0.  1.
        -11    1    3    3    0    0  0.13493087227E+03 -0.13267555069E+04 -0.45017813136E+03  0.14075321898E+04  0.00000000000E+00 0. -1.
          2    1    6    6  502    0 -0.39558972204E+02  0.13439429285E+03 -0.71691690107E+02  0.15737355770E+03  0.00000000000E+00 0. -1.
          3    1    5    5  503    0 -0.65574085247E+01  0.23562824582E+01 -0.33934350083E+01  0.77502951388E+01  0.00000000000E+00 0. -1.
         -2    1    5    5    0  503  0.12728357844E+03  0.24549491543E+03 -0.53633768461E+03  0.60342934530E+03  0.00000000000E+00 0.  1.
         -1    1    6    6    0  502 -0.26311403851E+03  0.18541825717E+04 -0.85169689563E+03  0.20573306998E+04  0.00000000000E+00 0.  1.
<mgrwt>
<rscale>  0 0.47045457E+04</rscale>
<asrwt>0</asrwt>
<pdfrwt beam="1">  1        2 0.56464956E+00 0.47045457E+04</pdfrwt>
<pdfrwt beam="2">  1       -2 0.23193681E+00 0.47045457E+04</pdfrwt>
<totfact> 0.37943015E-02</totfact>
</mgrwt>
</event>
<event>
12    1  0.2083715E-007  0.2467671E+04  0.7818608E-02  0.8414594E-01
         -2   -1    0    0    0  501 -0.00000000000E+00  0.00000000000E+00  0.45470408524E+03  0.45470408524E+03  0.00000000000E+00 0.  1.
          2   -1    0    0  501    0  0.00000000000E+00 -0.00000000000E+00 -0.33480011593E+04  0.33480011593E+04  0.00000000000E+00 0. -1.
         23    2    1    2    0    0  0.17854260845E+03 -0.95955108655E+03 -0.59014516857E+03  0.11443459089E+04  0.92954227716E+02 0.  0.
        254    2    1    2    0    0 -0.17854260845E+03  0.95955108655E+03 -0.23031519055E+04  0.26583593357E+04  0.89986104874E+03 0.  0.
        -24    2    4    4    0    0 -0.40089612536E+03  0.81496505037E+02 -0.69307901133E+03  0.80919028851E+03  0.84089377573E+02 0.  0.
         24    2    4    4    0    0  0.22235351691E+03  0.87805458151E+03 -0.16100728942E+04  0.18491690472E+04  0.81673164721E+02 0.  0.
         13    1    3    3    0    0  0.11260122769E+03 -0.77260610319E+03 -0.44524936555E+03  0.89880266170E+03  0.00000000000E+00 0.  1.
        -13    1    3    3    0    0  0.65941380766E+02 -0.18694498336E+03 -0.14489580302E+03  0.24554324717E+03  0.00000000000E+00 0. -1.
          2    1    6    6  502    0  0.31746276998E+02  0.11055046580E+03 -0.15413015710E+03  0.19231572198E+03  0.00000000000E+00 0. -1.
          1    1    5    5  503    0 -0.92430218249E+02  0.54879318532E+02 -0.19708304348E+03  0.22449234035E+03  0.00000000000E+00 0. -1.
         -2    1    5    5    0  503 -0.30846590711E+03  0.26617186506E+02 -0.49599596785E+03  0.58469794817E+03  0.00000000000E+00 0.  1.
         -1    1    6    6    0  502  0.19060723991E+03  0.76750411571E+03 -0.14559427371E+04  0.16568533252E+04  0.00000000000E+00 0.  1.
<mgrwt>
<rscale>  0 0.24676708E+04</rscale>
<asrwt>0</asrwt>
<pdfrwt beam="1">  1        2 0.51507710E+00 0.24676708E+04</pdfrwt>
<pdfrwt beam="2">  1       -2 0.69954475E-01 0.24676708E+04</pdfrwt>
<totfact> 0.17233919E+00</totfact>
</mgrwt>
</event>
<event>
12    1  0.2083715E-007  0.1861521E+04  0.7818608E-02  0.8674250E-01
          2   -1    0    0  501    0  0.00000000000E+00  0.00000000000E+00  0.30341734652E+04  0.30341734652E+04  0.00000000000E+00 0. -1.
         -2   -1    0    0    0  501 -0.00000000000E+00 -0.00000000000E+00 -0.28551934888E+03  0.28551934888E+03  0.00000000000E+00 0.  1.
         23    2    1    2    0    0 -0.69778367399E+03 -0.12798861002E+03  0.99825145777E+03  0.12279533166E+04  0.89890125966E+02 0.  0.
        254    2    1    2    0    0  0.69778367399E+03  0.12798861002E+03  0.17504026585E+04  0.20917394975E+04  0.89898916477E+03 0.  0.
        -24    2    4    4    0    0  0.45748788415E+02  0.39848569729E+03  0.43594391311E+03  0.59759552268E+03  0.78673443822E+02 0.  0.
         24    2    4    4    0    0  0.65203488557E+03 -0.27049708727E+03  0.13144587454E+04  0.14941439748E+04  0.79663403241E+02 0.  0.
         13    1    3    3    0    0 -0.24526799829E+03 -0.14857476865E+02  0.39856270983E+03  0.46821936020E+03  0.00000000000E+00 0. -1.
        -13    1    3    3    0    0 -0.45251567570E+03 -0.11313113315E+03  0.59968874794E+03  0.75973395636E+03  0.00000000000E+00 0.  1.
          2    1    6    6  502    0  0.39193559720E+03 -0.15630253422E+03  0.86527989810E+03  0.96268026707E+03  0.00000000000E+00 0. -1.
          3    1    5    5  503    0  0.60795722716E+02  0.28780267534E+03  0.28283562520E+03  0.40807167350E+03  0.00000000000E+00 0. -1.
         -4    1    5    5    0  503 -0.15046934301E+02  0.11068302195E+03  0.15310828791E+03  0.18952384918E+03  0.00000000000E+00 0.  1.
         -1    1    6    6    0  502  0.26009928837E+03 -0.11419455306E+03  0.44917884731E+03  0.53146370772E+03  0.00000000000E+00 0.  1.
<mgrwt>
<rscale>  0 0.18615211E+04</rscale>
<asrwt>0</asrwt>
<pdfrwt beam="1">  1        2 0.46679590E+00 0.18615211E+04</pdfrwt>
<pdfrwt beam="2">  1       -2 0.43926056E-01 0.18615211E+04</pdfrwt>
<totfact> 0.76780336E+00</totfact>
</mgrwt>
</event>
<event>
12    1  0.2083715E-007  0.2467969E+04  0.7818608E-02  0.8414486E-01
          1   -1    0    0  501    0  0.00000000000E+00  0.00000000000E+00  0.27722855201E+04  0.27722855201E+04  0.00000000000E+00 0. -1.
         -1   -1    0    0    0  501 -0.00000000000E+00 -0.00000000000E+00 -0.54926429823E+03  0.54926429823E+03  0.00000000000E+00 0.  1.
         23    2    1    2    0    0 -0.76438349973E+03  0.44595391112E+03  0.16263968238E+03  0.90453124866E+03  0.92563967154E+02 0.  0.
        254    2    1    2    0    0  0.76438349973E+03 -0.44595391112E+03  0.20603815395E+04  0.24170185697E+04  0.90202530583E+03 0.  0.
        -24    2    4    4    0    0  0.38312858902E+03 -0.15539093108E+03  0.15172183904E+03  0.44753249565E+03  0.79573620190E+02 0.  0.
         24    2    4    4    0    0  0.38125491070E+03 -0.29056298003E+03  0.19086597004E+04  0.19694860740E+04  0.78175388320E+02 0.  0.
         13    1    3    3    0    0 -0.28034591831E+03  0.17921047016E+03  0.17851891940E+02  0.33321001871E+03  0.00000000000E+00 0. -1.
        -13    1    3    3    0    0 -0.48403758142E+03  0.26674344096E+03  0.14478779044E+03  0.57132122994E+03  0.00000000000E+00 0.  1.
          2    1    6    6  502    0  0.24648488725E+03 -0.18433006398E+03  0.13701609955E+04  0.14043053535E+04  0.00000000000E+00 0. -1.
          3    1    5    5  503    0  0.99116313245E+02 -0.53938273187E+02  0.77659803002E+02  0.13698330507E+03  0.00000000000E+00 0. -1.
         -4    1    5    5    0  503  0.28401227578E+03 -0.10145265790E+03  0.74062036039E+02  0.31054919058E+03  0.00000000000E+00 0.  1.
         -1    1    6    6    0  502  0.13477002346E+03 -0.10623291605E+03  0.53849870492E+03  0.56518072054E+03  0.00000000000E+00 0.  1.
<mgrwt>
<rscale>  0 0.24679688E+04</rscale>
<asrwt>0</asrwt>
<pdfrwt beam="1">  1        1 0.42650545E+00 0.24679688E+04</pdfrwt>
<pdfrwt beam="2">  1       -1 0.84502202E-01 0.24679688E+04</pdfrwt>
<totfact> 0.10772216E+00</totfact>
</mgrwt>
</event>
<event>
12    1  0.2083715E-007  0.1210882E+04  0.7818608E-02  0.9103385E-01
          2   -1    0    0  501    0  0.00000000000E+00  0.00000000000E+00  0.35985297890E+03  0.35985297890E+03  0.00000000000E+00 0.  1.
         -2   -1    0    0    0  501 -0.00000000000E+00 -0.00000000000E+00 -0.10186349230E+04  0.10186349230E+04  0.00000000000E+00 0. -1.
         23    2    1    2    0    0  0.25887632992E+03  0.38552017897E+00 -0.16390688522E+03  0.31934943563E+03  0.90008289606E+02 0.  0.
        254    2    1    2    0    0 -0.25887632992E+03 -0.38552017897E+00 -0.49487505889E+03  0.10591384663E+04  0.89991992091E+03 0.  0.
        -24    2    4    4    0    0  0.23907499750E+03 -0.52974172417E+02  0.10140884602E+03  0.27643054787E+03  0.78530098524E+02 0.  0.
         24    2    4    4    0    0 -0.49795132741E+03  0.52588652238E+02 -0.59628390491E+03  0.78270791842E+03  0.79725149605E+02 0.  0.
         13    1    3    3    0    0  0.25680093072E+03 -0.56383512157E+01 -0.13584333050E+03  0.29057171140E+03  0.00000000000E+00 0.  1.
        -13    1    3    3    0    0  0.20753991961E+01  0.60238713947E+01 -0.28063554722E+02  0.28777724233E+02  0.00000000000E+00 0. -1.
          4    1    6    6  502    0 -0.10340743356E+03  0.43703533577E+02 -0.12505434865E+03  0.16805262949E+03  0.00000000000E+00 0. -1.
          1    1    5    5  503    0  0.11946876485E+03 -0.54740294534E+02  0.23017695970E+02  0.13341326752E+03  0.00000000000E+00 0. -1.
         -2    1    5    5    0  503  0.11960623264E+03  0.17661221171E+01  0.78391150050E+02  0.14301728036E+03  0.00000000000E+00 0.  1.
         -3    1    6    6    0  502 -0.39454389385E+03  0.88851186610E+01 -0.47122955626E+03  0.61465528892E+03  0.00000000000E+00 0.  1.
<mgrwt>
<rscale>  0 0.12108820E+04</rscale>
<asrwt>0</asrwt>
<pdfrwt beam="1">  1        2 0.55361997E-01 0.12108820E+04</pdfrwt>
<pdfrwt beam="2">  1       -2 0.15671307E+00 0.12108820E+04</pdfrwt>
<totfact> 0.23511465E+01</totfact>
</mgrwt>
</event>
<event>
12    1  0.2083715E-007  0.2796847E+04  0.7818608E-02  0.8304248E-01
         -2   -1    0    0    0  501 -0.00000000000E+00  0.00000000000E+00  0.14947664698E+04  0.14947664698E+04  0.00000000000E+00 0.  1.
          2   -1    0    0  501    0  0.00000000000E+00 -0.00000000000E+00 -0.13082897775E+04  0.13082897775E+04  0.00000000000E+00 0. -1.
         23    2    1    2    0    0 -0.64932250160E+03 -0.96372001360E+03  0.54843621445E+03  0.12883816272E+04  0.93642726489E+02 0.  0.
        254    2    1    2    0    0  0.64932250160E+03  0.96372001360E+03 -0.36195952216E+03  0.15146746200E+04  0.90158112959E+03 0.  0.
        -24    2    4    4    0    0  0.81884667974E+03  0.70980002941E+03 -0.78719850443E+02  0.10898416193E+04  0.85041011333E+02 0.  0.
         24    2    4    4    0    0 -0.16952417813E+03  0.25391998419E+03 -0.28323967172E+03  0.42483300076E+03  0.83931886426E+02 0.  0.
         11    1    3    3    0    0 -0.21554151875E+03 -0.24508891346E+03  0.15815366631E+03  0.36268347629E+03  0.00000000000E+00 0.  1.
        -11    1    3    3    0    0 -0.43378098285E+03 -0.71863110014E+03  0.39028254815E+03  0.92569815089E+03  0.00000000000E+00 0. -1.
          2    1    6    6  502    0 -0.15216263132E+03  0.21545112408E+03 -0.27643105758E+03  0.38208216765E+03  0.00000000000E+00 0. -1.
          3    1    5    5  503    0  0.73553063298E+03  0.61673823435E+03 -0.47317044105E+02  0.96104644239E+03  0.00000000000E+00 0. -1.
         -4    1    5    5    0  503  0.83316046759E+02  0.93061795053E+02 -0.31402806338E+02  0.12879517690E+03  0.00000000000E+00 0.  1.
         -1    1    6    6    0  502 -0.17361546811E+02  0.38468860109E+02 -0.68086141412E+01  0.42750833118E+02  0.00000000000E+00 0.  1.
<mgrwt>
<rscale>  0 0.27968466E+04</rscale>
<asrwt>0</asrwt>
<pdfrwt beam="1">  1        2 0.20127535E+00 0.27968466E+04</pdfrwt>
<pdfrwt beam="2">  1       -2 0.22996407E+00 0.27968466E+04</pdfrwt>
<totfact> 0.12172402E+00</totfact>
</mgrwt>
</event>
<event>
12    1  0.2083715E-007  0.3358066E+04  0.7818608E-02  0.8148276E-01
         -1   -1    0    0    0  501 -0.00000000000E+00  0.00000000000E+00  0.26573038911E+04  0.26573038911E+04  0.00000000000E+00 0.  1.
          1   -1    0    0  501    0  0.00000000000E+00 -0.00000000000E+00 -0.10609067723E+04  0.10609067723E+04  0.00000000000E+00 0. -1.
         23    2    1    2    0    0 -0.30642680959E+03 -0.10919281214E+04 -0.43980770716E+03  0.12194940811E+04  0.86778930120E+02 0.  0.
        254    2    1    2    0    0  0.30642680959E+03  0.10919281214E+04  0.20362048260E+04  0.24987165823E+04  0.90069420633E+03 0.  0.
        -24    2    4    4    0    0  0.55097869558E+03  0.80504435686E+03  0.10283397836E+04  0.14197199696E+04  0.80300323485E+02 0.  0.
         24    2    4    4    0    0 -0.24455188599E+03  0.28688376451E+03  0.10078650424E+04  0.10789966127E+04  0.79585346084E+02 0.  0.
         11    1    3    3    0    0 -0.17498255915E+03 -0.62639284403E+03 -0.20601618656E+03  0.68222398095E+03  0.00000000000E+00 0.  1.
        -11    1    3    3    0    0 -0.13144425043E+03 -0.46553527734E+03 -0.23379152060E+03  0.53727010016E+03  0.00000000000E+00 0. -1.
          4    1    6    6  502    0 -0.31077728470E+02  0.87278119982E+02  0.26357583280E+03  0.27938417112E+03  0.00000000000E+00 0. -1.
          3    1    5    5  503    0  0.13761325712E+03  0.22818228063E+03  0.23507528653E+03  0.35533779993E+03  0.00000000000E+00 0. -1.
         -4    1    5    5    0  503  0.41336543846E+03  0.57686207624E+03  0.79326449707E+03  0.10643821696E+04  0.00000000000E+00 0.  1.
         -3    1    6    6    0  502 -0.21347415752E+03  0.19960564453E+03  0.74428920958E+03  0.79961244160E+03  0.00000000000E+00 0.  1.
<mgrwt>
<rscale>  0 0.33580659E+04</rscale>
<asrwt>0</asrwt>
<pdfrwt beam="1">  1        1 0.16321643E+00 0.33580659E+04</pdfrwt>
<pdfrwt beam="2">  1       -1 0.40881598E+00 0.33580659E+04</pdfrwt>
<totfact> 0.69701958E-02</totfact>
</mgrwt>
</event>
<event>
12    1  0.2083715E-007  0.1313009E+04  0.7818608E-02  0.9019312E-01
          2   -1    0    0  501    0  0.00000000000E+00  0.00000000000E+00  0.76103453094E+03  0.76103453094E+03  0.00000000000E+00 0. -1.
         -2   -1    0    0    0  501 -0.00000000000E+00 -0.00000000000E+00 -0.56633192308E+03  0.56633192308E+03  0.00000000000E+00 0.  1.
         23    2    1    2    0    0  0.22140332647E+03  0.16940130823E+03  0.24696864437E+03  0.38307758595E+03  0.89658738316E+02 0.  0.
        254    2    1    2    0    0 -0.22140332647E+03 -0.16940130823E+03 -0.52266036501E+02  0.94428886806E+03  0.90068501241E+03 0.  0.
        -24    2    4    4    0    0 -0.49471234627E+03  0.11348184249E+03  0.82339306444E+02  0.52068755646E+03  0.81959355413E+02 0.  0.
         24    2    4    4    0    0  0.27330901980E+03 -0.28288315072E+03 -0.13460534295E+03  0.42360131160E+03  0.81232847850E+02 0.  0.
         13    1    3    3    0    0 -0.30775230457E+01 -0.67107817143E+01  0.81861689326E+01  0.11023570252E+02  0.00000000000E+00 0.  1.
        -13    1    3    3    0    0  0.22448084952E+03  0.17611208995E+03  0.23878247543E+03  0.37205401570E+03  0.00000000000E+00 0. -1.
          4    1    6    6  502    0  0.15574188446E+03 -0.21241376012E+03 -0.10384130676E+03  0.28312215924E+03  0.00000000000E+00 0. -1.
          1    1    5    5  503    0 -0.54765275591E+02  0.36220413579E+02  0.25367091353E+02  0.70389225696E+02  0.00000000000E+00 0. -1.
         -2    1    5    5    0  503 -0.43994707068E+03  0.77261428912E+02  0.56972215091E+02  0.45029833077E+03  0.00000000000E+00 0.  1.
         -3    1    6    6    0  502  0.11756713535E+03 -0.70469390604E+02 -0.30764036186E+02  0.14047915236E+03  0.00000000000E+00 0.  1.
<mgrwt>
<rscale>  0 0.13130090E+04</rscale>
<asrwt>0</asrwt>
<pdfrwt beam="1">  1        2 0.11708224E+00 0.13130090E+04</pdfrwt>
<pdfrwt beam="2">  1       -2 0.87127988E-01 0.13130090E+04</pdfrwt>
<totfact> 0.41044551E+01</totfact>
</mgrwt>
</event>
<event>
12    1  0.2083715E-007  0.2476947E+04  0.7818608E-02  0.8411245E-01
         -1   -1    0    0    0  501 -0.00000000000E+00  0.00000000000E+00  0.76448255203E+03  0.76448255203E+03  0.00000000000E+00 0.  1.
          1   -1    0    0  501    0  0.00000000000E+00 -0.00000000000E+00 -0.20063456635E+04  0.20063456635E+04  0.00000000000E+00 0. -1.
         23    2    1    2    0    0 -0.68928068411E+03 -0.55216803061E+03 -0.12207515088E+04  0.15095194357E+04  0.91745763231E+02 0.  0.
        254    2    1    2    0    0  0.68928068411E+03  0.55216803061E+03 -0.21111602664E+02  0.12613087798E+04  0.90025371021E+03 0.  0.
        -24    2    4    4    0    0 -0.92311239305E+02 -0.14094865961E+03 -0.10023238464E+03  0.21132822848E+03  0.78899934557E+02 0.  0.
         24    2    4    4    0    0  0.78159192341E+03  0.69311669022E+03  0.79120781972E+02  0.10499805513E+04  0.70016990948E+02 0.  0.
         11    1    3    3    0    0 -0.11208866751E+02 -0.11293049162E+02 -0.50011168777E+02  0.52481317206E+02  0.00000000000E+00 0. -1.
        -11    1    3    3    0    0 -0.67807181736E+03 -0.54087498145E+03 -0.11707403400E+04  0.14570381185E+04  0.00000000000E+00 0.  1.
          4    1    6    6  502    0  0.69715395023E+03  0.61672976355E+03  0.48429821333E+02  0.93205401087E+03  0.00000000000E+00 0. -1.
          1    1    5    5  503    0 -0.92644609910E+02 -0.13968532714E+03 -0.70944745213E+02  0.18201145908E+03  0.00000000000E+00 0. -1.
         -2    1    5    5    0  503  0.33337060521E+00 -0.12633324728E+01 -0.29287639423E+02  0.29316769396E+02  0.00000000000E+00 0.  1.
         -3    1    6    6    0  502  0.84437973181E+02  0.76386926668E+02  0.30690960638E+02  0.11792654046E+03  0.00000000000E+00 0.  1.
<mgrwt>
<rscale>  0 0.24769467E+04</rscale>
<asrwt>0</asrwt>
<pdfrwt beam="1">  1        1 0.30866857E+00 0.24769467E+04</pdfrwt>
<pdfrwt beam="2">  1       -1 0.11761270E+00 0.24769467E+04</pdfrwt>
<totfact> 0.17074697E+00</totfact>
</mgrwt>
</event>
<event>
12    1  0.2083715E-007  0.3066060E+04  0.7818608E-02  0.8225115E-01
          2   -1    0    0  501    0  0.00000000000E+00  0.00000000000E+00  0.19774599174E+04  0.19774599174E+04  0.00000000000E+00 0.  1.
         -2   -1    0    0    0  501 -0.00000000000E+00 -0.00000000000E+00 -0.11884849499E+04  0.11884849499E+04  0.00000000000E+00 0. -1.
         23    2    1    2    0    0  0.57510213733E+03  0.38859429688E+03 -0.89403574706E+03  0.11353465024E+04  0.89239943584E+02 0.  0.
        254    2    1    2    0    0 -0.57510213733E+03 -0.38859429688E+03  0.16830107146E+04  0.20305983649E+04  0.89947576859E+03 0.  0.
        -24    2    4    4    0    0 -0.58327557412E+03  0.13200800262E+03  0.78862827401E+03  0.99291205979E+03  0.79393298064E+02 0.  0.
         24    2    4    4    0    0  0.81734367901E+01 -0.52060229950E+03  0.89438244057E+03  0.10376863051E+04  0.76022092476E+02 0.  0.
         13    1    3    3    0    0  0.12172212730E+03  0.10188771489E+03 -0.15246843886E+03  0.22009999447E+03  0.00000000000E+00 0.  1.
        -13    1    3    3    0    0  0.45338001003E+03  0.28670658199E+03 -0.74156730820E+03  0.91524650791E+03  0.00000000000E+00 0. -1.
          2    1    6    6  502    0 -0.22395663745E+02 -0.16246741369E+03  0.33111800085E+03  0.36950826344E+03  0.00000000000E+00 0. -1.
          1    1    5    5  503    0 -0.14598336670E+03  0.31741083417E+02  0.14372643392E+03  0.20730636154E+03  0.00000000000E+00 0. -1.
         -2    1    5    5    0  503 -0.43729220742E+03  0.10026691920E+03  0.64490184009E+03  0.78560569824E+03  0.00000000000E+00 0.  1.
         -1    1    6    6    0  502  0.30569100535E+02 -0.35813488581E+03  0.56326443972E+03  0.66817804169E+03  0.00000000000E+00 0.  1.
<mgrwt>
<rscale>  0 0.30660602E+04</rscale>
<asrwt>0</asrwt>
<pdfrwt beam="1">  1        2 0.30422460E+00 0.30660602E+04</pdfrwt>
<pdfrwt beam="2">  1       -2 0.18284384E+00 0.30660602E+04</pdfrwt>
<totfact> 0.10149535E+00</totfact>
</mgrwt>
</event>
<event>
12    1  0.2083715E-007  0.2543275E+04  0.7818608E-02  0.8387729E-01
         -2   -1    0    0    0  501 -0.00000000000E+00  0.00000000000E+00  0.17439361439E+04  0.17439361439E+04  0.00000000000E+00 0.  1.
          2   -1    0    0  501    0  0.00000000000E+00 -0.00000000000E+00 -0.92724872397E+03  0.92724872397E+03  0.00000000000E+00 0. -1.
         23    2    1    2    0    0  0.87455911738E+03 -0.35745267049E+03  0.96845732855E+03  0.13561308214E+04  0.92494033265E+02 0.  0.
        254    2    1    2    0    0 -0.87455911738E+03  0.35745267049E+03 -0.15176990866E+03  0.13150540464E+04  0.90205708153E+03 0.  0.
        -24    2    4    4    0    0  0.76894494931E+02  0.19108264683E+03 -0.25818981082E+03  0.33991189716E+03  0.80329186144E+02 0.  0.
         24    2    4    4    0    0 -0.95145361231E+03  0.16637002366E+03  0.10641990216E+03  0.97514214924E+03  0.81449705312E+02 0.  0.
         11    1    3    3    0    0  0.62040626426E+03 -0.21428024949E+03  0.70187580876E+03  0.96096285515E+03  0.00000000000E+00 0. -1.
        -11    1    3    3    0    0  0.25415285312E+03 -0.14317242100E+03  0.26658151979E+03  0.39516796629E+03  0.00000000000E+00 0.  1.
          2    1    6    6  502    0 -0.49090376346E+03  0.11765415324E+03  0.29392059668E+02  0.50566085267E+03  0.00000000000E+00 0. -1.
          3    1    5    5  503    0  0.92588348283E+02  0.15932169077E+03 -0.20141556114E+03  0.27299126663E+03  0.00000000000E+00 0. -1.
         -4    1    5    5    0  503 -0.15693853353E+02  0.31760956056E+02 -0.56774249688E+02  0.66920630528E+02  0.00000000000E+00 0.  1.
         -1    1    6    6    0  502 -0.46054984885E+03  0.48715870422E+02  0.77027842497E+02  0.46948129657E+03  0.00000000000E+00 0.  1.
<mgrwt>
<rscale>  0 0.25432755E+04</rscale>
<asrwt>0</asrwt>
<pdfrwt beam="1">  1        2 0.14265365E+00 0.25432755E+04</pdfrwt>
<pdfrwt beam="2">  1       -2 0.26829787E+00 0.25432755E+04</pdfrwt>
<totfact> 0.12400655E+00</totfact>
</mgrwt>
</event>
<event>
12    1  0.2083715E-007  0.1548971E+04  0.7818608E-02  0.8852526E-01
          1   -1    0    0  501    0  0.00000000000E+00  0.00000000000E+00  0.42489856905E+04  0.42489856905E+04  0.00000000000E+00 0. -1.
         -1   -1    0    0    0  501 -0.00000000000E+00 -0.00000000000E+00 -0.14116957373E+03  0.14116957373E+03  0.00000000000E+00 0.  1.
         23    2    1    2    0    0  0.46383539899E+03 -0.16589488909E+03  0.10186447619E+04  0.11351016453E+04  0.90300624173E+02 0.  0.
        254    2    1    2    0    0 -0.46383539899E+03  0.16589488909E+03  0.30891713549E+04  0.32550536189E+04  0.89984999334E+03 0.  0.
        -24    2    4    4    0    0 -0.19466025068E+03 -0.98365998257E+02  0.26906832290E+04  0.27006994722E+04  0.80205469852E+02 0.  0.
         24    2    4    4    0    0 -0.26917514831E+03  0.26426088735E+03  0.39848812590E+03  0.55435414674E+03  0.78909165948E+02 0.  0.
         13    1    3    3    0    0  0.44141387080E+03 -0.15612377431E+03  0.10005376971E+04  0.11046703225E+04  0.00000000000E+00 0. -1.
        -13    1    3    3    0    0  0.22421528183E+02 -0.97711147805E+01  0.18107064807E+02  0.30431322778E+02  0.00000000000E+00 0.  1.
          4    1    6    6  502    0 -0.26265336284E+03  0.25914564281E+03  0.40172169562E+03  0.54545721550E+03  0.00000000000E+00 0. -1.
          1    1    5    5  503    0 -0.19692842133E+03 -0.89687063860E+02  0.26584227200E+04  0.26672150140E+04  0.00000000000E+00 0. -1.
         -2    1    5    5    0  503  0.22681706529E+01 -0.86789343971E+01  0.32260509019E+02  0.33484458224E+02  0.00000000000E+00 0.  1.
         -3    1    6    6    0  502 -0.65217854644E+01  0.51152445384E+01 -0.32335697244E+01  0.88969312402E+01  0.00000000000E+00 0.  1.
<mgrwt>
<rscale>  0 0.15489706E+04</rscale>
<asrwt>0</asrwt>
<pdfrwt beam="1">  1        1 0.65369001E+00 0.15489706E+04</pdfrwt>
<pdfrwt beam="2">  1       -1 0.21718399E-01 0.15489706E+04</pdfrwt>
<totfact> 0.99819392E-01</totfact>
</mgrwt>
</event>
<event>
12    1  0.2083715E-007  0.3145807E+04  0.7818608E-02  0.8203278E-01
          2   -1    0    0  501    0  0.00000000000E+00  0.00000000000E+00  0.37319841904E+04  0.37319841904E+04  0.00000000000E+00 0. -1.
         -2   -1    0    0    0  501 -0.00000000000E+00 -0.00000000000E+00 -0.66292494952E+03  0.66292494952E+03  0.00000000000E+00 0.  1.
         23    2    1    2    0    0 -0.13471076948E+04  0.51583739281E+03  0.13990150146E+04  0.20115201964E+04  0.90460667078E+02 0.  0.
        254    2    1    2    0    0  0.13471076948E+04 -0.51583739281E+03  0.16700442263E+04  0.23833889436E+04  0.90039312585E+03 0.  0.
        -24    2    4    4    0    0 -0.93939803492E+02  0.63514074044E+02  0.80438707661E+02  0.15956746076E+03  0.78311330988E+02 0.  0.
         24    2    4    4    0    0  0.14410474983E+04 -0.57935146685E+03  0.15896055187E+04  0.22238214828E+04  0.79185022674E+02 0.  0.
         13    1    3    3    0    0 -0.17308013538E+03  0.99623796238E+02  0.19417573640E+03  0.27854236778E+03  0.00000000000E+00 0. -1.
        -13    1    3    3    0    0 -0.11740275594E+04  0.41621359657E+03  0.12048392782E+04  0.17329778286E+04  0.00000000000E+00 0.  1.
          2    1    6    6  502    0  0.12378186983E+03 -0.53140442150E+02  0.17117218549E+03  0.21782051091E+03  0.00000000000E+00 0. -1.
          1    1    5    5  503    0 -0.20548323139E+00  0.22255367813E+02  0.46713457853E+02  0.51744475690E+02  0.00000000000E+00 0. -1.
         -2    1    5    5    0  503 -0.93734320261E+02  0.41258706231E+02  0.33725249808E+02  0.10782298507E+03  0.00000000000E+00 0.  1.
         -1    1    6    6    0  502  0.13172656285E+04 -0.52621102470E+03  0.14184333332E+04  0.20060009719E+04  0.00000000000E+00 0.  1.
<mgrwt>
<rscale>  0 0.31458070E+04</rscale>
<asrwt>0</asrwt>
<pdfrwt beam="1">  1        2 0.57415140E+00 0.31458070E+04</pdfrwt>
<pdfrwt beam="2">  1       -2 0.10198846E+00 0.31458070E+04</pdfrwt>
<totfact> 0.36793065E-01</totfact>
</mgrwt>
</event>
<event>
12    1  0.2083715E-007  0.1313014E+04  0.7818608E-02  0.9019308E-01
         -1   -1    0    0    0  501 -0.00000000000E+00  0.00000000000E+00  0.91082136389E+03  0.91082136389E+03  0.00000000000E+00 0.  1.
          1   -1    0    0  501    0  0.00000000000E+00 -0.00000000000E+00 -0.47320115768E+03  0.47320115768E+03  0.00000000000E+00 0. -1.
         23    2    1    2    0    0  0.94332996789E+01  0.33663806428E+03  0.97915814032E+02  0.36442975150E+03  0.99032134551E+02 0.  0.
        254    2    1    2    0    0 -0.94332996789E+01 -0.33663806428E+03  0.33970439218E+03  0.10195927701E+04  0.90041999603E+03 0.  0.
        -24    2    4    4    0    0  0.38204481174E+03 -0.28875858331E+03 -0.92398846967E+01  0.48620362632E+03  0.83479537373E+02 0.  0.
         24    2    4    4    0    0 -0.39147811142E+03 -0.47879480972E+02  0.34894427688E+03  0.53338914375E+03  0.84819301387E+02 0.  0.
         11    1    3    3    0    0 -0.32565663902E+02  0.22679968325E+03  0.91311243756E+02  0.24665028284E+03  0.00000000000E+00 0. -1.
        -11    1    3    3    0    0  0.41998963581E+02  0.10983838103E+03  0.66045702762E+01  0.11777946866E+03  0.00000000000E+00 0.  1.
          2    1    6    6  502    0 -0.33633893462E+03 -0.42769190677E+02  0.25461480357E+03  0.42400681694E+03  0.00000000000E+00 0. -1.
          3    1    5    5  503    0  0.36284675368E+03 -0.26333382457E+03 -0.28044154713E+02  0.44920924349E+03  0.00000000000E+00 0. -1.
         -4    1    5    5    0  503  0.19198058065E+02 -0.25424758737E+02  0.18804270016E+02  0.36994382832E+02  0.00000000000E+00 0.  1.
         -1    1    6    6    0  502 -0.55139176798E+02 -0.51102902954E+01  0.94329473301E+02  0.10938232681E+03  0.00000000000E+00 0.  1.
<mgrwt>
<rscale>  0 0.13130144E+04</rscale>
<asrwt>0</asrwt>
<pdfrwt beam="1">  1        1 0.72800178E-01 0.13130144E+04</pdfrwt>
<pdfrwt beam="2">  1       -1 0.14012636E+00 0.13130144E+04</pdfrwt>
<totfact> 0.19628879E+01</totfact>
</mgrwt>
</event>
<event>
12    1  0.2083715E-007  0.2464009E+04  0.7818608E-02  0.8415921E-01
          2   -1    0    0  501    0  0.00000000000E+00  0.00000000000E+00  0.98457486240E+03  0.98457486240E+03  0.00000000000E+00 0. -1.
         -2   -1    0    0    0  501 -0.00000000000E+00 -0.00000000000E+00 -0.15416142258E+04  0.15416142258E+04  0.00000000000E+00 0.  1.
         23    2    1    2    0    0 -0.74632043947E+03 -0.46024270695E+03  0.37827089351E+03  0.95939854060E+03  0.92407484357E+02 0.  0.
        254    2    1    2    0    0  0.74632043947E+03  0.46024270695E+03 -0.93531025688E+03  0.15667905476E+04  0.90067185791E+03 0.  0.
        -24    2    4    4    0    0  0.43627457887E+03 -0.20636163717E+02 -0.88085581918E+03  0.98659238483E+03  0.81830313497E+02 0.  0.
         24    2    4    4    0    0  0.31004586059E+03  0.48087887067E+03 -0.54454437702E+02  0.58019816273E+03  0.79320226436E+02 0.  0.
         11    1    3    3    0    0 -0.21894401768E+03 -0.10766442945E+03  0.14296637001E+03  0.28278524573E+03  0.00000000000E+00 0. -1.
        -11    1    3    3    0    0 -0.52737642179E+03 -0.35257827751E+03  0.23530452350E+03  0.67661329488E+03  0.00000000000E+00 0.  1.
          4    1    6    6  502    0  0.81209094089E+02  0.71521646573E+02 -0.19136492084E+02  0.10989298531E+03  0.00000000000E+00 0. -1.
          1    1    5    5  503    0  0.32536379325E+03 -0.38120882297E+02 -0.71287612673E+03  0.78454265128E+03  0.00000000000E+00 0. -1.
         -2    1    5    5    0  503  0.11091078563E+03  0.17484718580E+02 -0.16797969245E+03  0.20204973355E+03  0.00000000000E+00 0.  1.
         -3    1    6    6    0  502  0.22883676651E+03  0.40935722410E+03 -0.35317945618E+02  0.47030517742E+03  0.00000000000E+00 0.  1.
<mgrwt>
<rscale>  0 0.24640086E+04</rscale>
<asrwt>0</asrwt>
<pdfrwt beam="1">  1        2 0.15147306E+00 0.24640086E+04</pdfrwt>
<pdfrwt beam="2">  1       -2 0.23717142E+00 0.24640086E+04</pdfrwt>
<totfact> 0.17779134E+00</totfact>
</mgrwt>
</event>
<event>
12    1  0.2083715E-007  0.2618638E+04  0.7818608E-02  0.8361898E-01
         -1   -1    0    0    0  501 -0.00000000000E+00  0.00000000000E+00  0.74896743220E+03  0.74896743220E+03  0.00000000000E+00 0.  1.
          1   -1    0    0  501    0  0.00000000000E+00 -0.00000000000E+00 -0.22889067129E+04  0.22889067129E+04  0.00000000000E+00 0. -1.
         23    2    1    2    0    0  0.69607996783E+03  0.74515040943E+03 -0.56333736908E+02  0.10253534127E+04  0.91649750569E+02 0.  0.
        254    2    1    2    0    0 -0.69607996783E+03 -0.74515040943E+03 -0.14836055438E+04  0.20125207324E+04  0.89965428606E+03 0.  0.
        -24    2    4    4    0    0 -0.26481951994E+03 -0.85252299324E+03 -0.11173073390E+04  0.14322608877E+04  0.77914879764E+02 0.  0.
         24    2    4    4    0    0 -0.43126044789E+03  0.10737258381E+03 -0.36629820476E+03  0.58025984467E+03  0.70800189691E+02 0.  0.
         13    1    3    3    0    0  0.61068894007E+03  0.61100118933E+03 -0.31794609407E+02  0.86445030631E+03  0.00000000000E+00 0.  1.
        -13    1    3    3    0    0  0.85391027755E+02  0.13414922010E+03 -0.24539127502E+02  0.16090310641E+03  0.00000000000E+00 0. -1.
          2    1    6    6  502    0 -0.18299444780E+03  0.33842579329E+02 -0.19642753405E+03  0.27058467110E+03  0.00000000000E+00 0. -1.
          1    1    5    5  503    0 -0.28128336375E+02 -0.15333932764E+03 -0.15975383786E+03  0.22321613163E+03  0.00000000000E+00 0. -1.
         -2    1    5    5    0  503 -0.23669118356E+03 -0.69918366560E+03 -0.95755350117E+03  0.12090447561E+04  0.00000000000E+00 0.  1.
         -1    1    6    6    0  502 -0.24826600008E+03  0.73530004479E+02 -0.16987067071E+03  0.30967517356E+03  0.00000000000E+00 0.  1.
<mgrwt>
<rscale>  0 0.26186383E+04</rscale>
<asrwt>0</asrwt>
<pdfrwt beam="1">  1        1 0.35213949E+00 0.26186383E+04</pdfrwt>
<pdfrwt beam="2">  1       -1 0.11522576E+00 0.26186383E+04</pdfrwt>
<totfact> 0.11374298E+00</totfact>
</mgrwt>
</event>
<event>
12    1  0.2083715E-007  0.2201094E+04  0.7818608E-02  0.8517973E-01
          1   -1    0    0  501    0  0.00000000000E+00  0.00000000000E+00  0.14546458202E+04  0.14546458202E+04  0.00000000000E+00 0. -1.
         -1   -1    0    0    0  501 -0.00000000000E+00 -0.00000000000E+00 -0.83264505553E+03  0.83264505553E+03  0.00000000000E+00 0.  1.
         23    2    1    2    0    0 -0.35868710088E+03  0.76186011152E+03  0.62800485218E+03  0.10542184531E+04  0.88877368513E+02 0.  0.
        254    2    1    2    0    0  0.35868710088E+03 -0.76186011152E+03 -0.60040875482E+01  0.12330724226E+04  0.90074651507E+03 0.  0.
        -24    2    4    4    0    0  0.33317656151E+03 -0.60891246759E+03 -0.39855885676E+03  0.80370912084E+03  0.72925813593E+02 0.  0.
         24    2    4    4    0    0  0.25510539365E+02 -0.15294764394E+03  0.39255476921E+03  0.42936330175E+03  0.78802466054E+02 0.  0.
         11    1    3    3    0    0 -0.11406116668E+03  0.34554194340E+03  0.27049729856E+03  0.45340707198E+03  0.00000000000E+00 0.  1.
        -11    1    3    3    0    0 -0.24462593420E+03  0.41631816813E+03  0.35750755362E+03  0.60081138112E+03  0.00000000000E+00 0. -1.
          4    1    6    6  502    0  0.48576275251E+02 -0.56106689023E+02  0.17716662967E+03  0.19208235145E+03  0.00000000000E+00 0. -1.
          3    1    5    5  503    0  0.19869456311E+03 -0.42840208789E+03 -0.25434689078E+03  0.53637693758E+03  0.00000000000E+00 0. -1.
         -4    1    5    5    0  503  0.13448199840E+03 -0.18051037970E+03 -0.14421196598E+03  0.26733218325E+03  0.00000000000E+00 0.  1.
         -3    1    6    6    0  502 -0.23065735886E+02 -0.96840954912E+02  0.21538813954E+03  0.23728095030E+03  0.00000000000E+00 0.  1.
<mgrwt>
<rscale>  0 0.22010940E+04</rscale>
<asrwt>0</asrwt>
<pdfrwt beam="1">  1        1 0.22379166E+00 0.22010940E+04</pdfrwt>
<pdfrwt beam="2">  1       -1 0.12809924E+00 0.22010940E+04</pdfrwt>
<totfact> 0.33755581E+00</totfact>
</mgrwt>
</event>
<event>
12    1  0.2083715E-007  0.3349149E+04  0.7818608E-02  0.8150501E-01
         -2   -1    0    0    0  501 -0.00000000000E+00  0.00000000000E+00  0.72395040987E+03  0.72395040987E+03  0.00000000000E+00 0.  1.
          2   -1    0    0  501    0  0.00000000000E+00 -0.00000000000E+00 -0.38734684983E+04  0.38734684983E+04  0.00000000000E+00 0. -1.
         23    2    1    2    0    0  0.13352733860E+04  0.36256845386E+03 -0.49548054908E+03  0.14723786957E+04  0.89370855835E+02 0.  0.
        254    2    1    2    0    0 -0.13352733860E+04 -0.36256845386E+03 -0.26540375393E+04  0.31250402125E+04  0.89863795273E+03 0.  0.
        -24    2    4    4    0    0 -0.24723679636E+03 -0.41781662488E+03 -0.12691083194E+04  0.13611008067E+04  0.79137312330E+02 0.  0.
         24    2    4    4    0    0 -0.10880365897E+04  0.55248171021E+02 -0.13849292199E+04  0.17639394057E+04  0.81100567232E+02 0.  0.
         11    1    3    3    0    0  0.10661173140E+04  0.32616419841E+03 -0.39690880400E+03  0.11834381312E+04  0.00000000000E+00 0.  1.
        -11    1    3    3    0    0  0.26915607199E+03  0.36404255452E+02 -0.98571745074E+02  0.28894056453E+03  0.00000000000E+00 0. -1.
          4    1    6    6  502    0 -0.44722858390E+03  0.62119232290E+02 -0.56157470608E+03  0.72058195633E+03  0.00000000000E+00 0. -1.
          1    1    5    5  503    0 -0.14408156568E+03 -0.17539689737E+03 -0.53555767283E+03  0.58167481474E+03  0.00000000000E+00 0. -1.
         -2    1    5    5    0  503 -0.10315523068E+03 -0.24241972751E+03 -0.73355064656E+03  0.77942599198E+03  0.00000000000E+00 0.  1.
         -3    1    6    6    0  502 -0.64080800576E+03 -0.68710612687E+01 -0.82335451386E+03  0.10433574494E+04  0.00000000000E+00 0.  1.
<mgrwt>
<rscale>  0 0.33491486E+04</rscale>
<asrwt>0</asrwt>
<pdfrwt beam="1">  1        2 0.59591823E+00 0.33491486E+04</pdfrwt>
<pdfrwt beam="2">  1       -2 0.11137699E+00 0.33491486E+04</pdfrwt>
<totfact> 0.22818559E-01</totfact>
</mgrwt>
</event>
<event>
12    1  0.2083715E-007  0.2899927E+04  0.7818608E-02  0.8272899E-01
         -2   -1    0    0    0  501 -0.00000000000E+00  0.00000000000E+00  0.81360504656E+03  0.81360504656E+03  0.00000000000E+00 0.  1.
          2   -1    0    0  501    0  0.00000000000E+00 -0.00000000000E+00 -0.25840476485E+04  0.25840476485E+04  0.00000000000E+00 0. -1.
         23    2    1    2    0    0 -0.20964946005E+03 -0.90303278896E+03 -0.18765880821E+04  0.20950564268E+04  0.90870718333E+02 0.  0.
        254    2    1    2    0    0  0.20964946005E+03  0.90303278896E+03  0.10614548024E+03  0.13025962682E+04  0.90888341439E+03 0.  0.
        -24    2    4    4    0    0 -0.26601176704E+03  0.50825986553E+02  0.15518308199E+03  0.32203771019E+03  0.79252487242E+02 0.  0.
         24    2    4    4    0    0  0.47566122709E+03  0.85220680240E+03 -0.49037601746E+02  0.98055855802E+03  0.81119432314E+02 0.  0.
         13    1    3    3    0    0 -0.59100213537E+02 -0.20871844450E+03 -0.52682502818E+03  0.56973751380E+03  0.00000000000E+00 0. -1.
        -13    1    3    3    0    0 -0.15054924651E+03 -0.69431434446E+03 -0.13497630540E+04  0.15253189130E+04  0.00000000000E+00 0.  1.
          4    1    6    6  502    0  0.52561482416E+02  0.14193327861E+03 -0.25468298639E+02  0.15348094099E+03  0.00000000000E+00 0. -1.
          1    1    5    5  503    0 -0.12931927366E+03  0.25791517211E+02  0.12091033112E+03  0.17890775577E+03  0.00000000000E+00 0. -1.
         -2    1    5    5    0  503 -0.13669249338E+03  0.25034469341E+02  0.34272750865E+02  0.14312995442E+03  0.00000000000E+00 0.  1.
         -3    1    6    6    0  502  0.42309974468E+03  0.71027352379E+03 -0.23569303108E+02  0.82707761703E+03  0.00000000000E+00 0.  1.
<mgrwt>
<rscale>  0 0.28999270E+04</rscale>
<asrwt>0</asrwt>
<pdfrwt beam="1">  1        2 0.39754579E+00 0.28999270E+04</pdfrwt>
<pdfrwt beam="2">  1       -2 0.12517001E+00 0.28999270E+04</pdfrwt>
<totfact> 0.12820719E+00</totfact>
</mgrwt>
</event>
<event>
12    1  0.2083715E-007  0.1485464E+04  0.7818608E-02  0.8894177E-01
          1   -1    0    0  501    0  0.00000000000E+00  0.00000000000E+00  0.70691569823E+03  0.70691569823E+03  0.00000000000E+00 0. -1.
         -1   -1    0    0    0  501 -0.00000000000E+00 -0.00000000000E+00 -0.78036269412E+03  0.78036269412E+03  0.00000000000E+00 0.  1.
         23    2    1    2    0    0 -0.73421830763E+02 -0.45927550522E+03 -0.19697560768E+02  0.47453944646E+03  0.92059423300E+02 0.  0.
        254    2    1    2    0    0  0.73421830763E+02  0.45927550522E+03 -0.53749435116E+02  0.10127389459E+04  0.89801248089E+03 0.  0.
        -24    2    4    4    0    0 -0.10014418085E+03 -0.89221721173E+01  0.34547018927E+03  0.36852094450E+03  0.79684206370E+02 0.  0.
         24    2    4    4    0    0  0.17356601161E+03  0.46819767733E+03 -0.39921962439E+03  0.64421800139E+03  0.79412211757E+02 0.  0.
         11    1    3    3    0    0 -0.48386619162E+02 -0.34308743620E+03  0.25409676742E+02  0.34741316248E+03  0.00000000000E+00 0. -1.
        -11    1    3    3    0    0 -0.25035211601E+02 -0.11618806901E+03 -0.45107237510E+02  0.12712628397E+03  0.00000000000E+00 0.  1.
          2    1    6    6  502    0  0.13102811517E+03  0.28158114508E+03 -0.20886786670E+03  0.37427542528E+03  0.00000000000E+00 0. -1.
          3    1    5    5  503    0 -0.44028760597E+02 -0.29517464655E+02  0.77032416289E+02  0.93508318554E+02  0.00000000000E+00 0. -1.
         -4    1    5    5    0  503 -0.56115420251E+02  0.20595292538E+02  0.26843777298E+03  0.27501262595E+03  0.00000000000E+00 0.  1.
         -1    1    6    6    0  502  0.42537896446E+02  0.18661653225E+03 -0.19035175769E+03  0.26994257611E+03  0.00000000000E+00 0.  1.
<mgrwt>
<rscale>  0 0.14854638E+04</rscale>
<asrwt>0</asrwt>
<pdfrwt beam="1">  1        1 0.10875626E+00 0.14854638E+04</pdfrwt>
<pdfrwt beam="2">  1       -1 0.12005580E+00 0.14854638E+04</pdfrwt>
<totfact> 0.16078318E+01</totfact>
</mgrwt>
</event>
<event>
12    1  0.2083715E-007  0.2818327E+04  0.7818608E-02  0.8297601E-01
         -1   -1    0    0    0  501 -0.00000000000E+00  0.00000000000E+00  0.69136235792E+03  0.69136235792E+03  0.00000000000E+00 0.  1.
          1   -1    0    0  501    0  0.00000000000E+00 -0.00000000000E+00 -0.28722158416E+04  0.28722158416E+04  0.00000000000E+00 0. -1.
         23    2    1    2    0    0 -0.83661737792E+03  0.89488491401E+03 -0.13723285407E+04  0.18417872561E+04  0.90260881022E+02 0.  0.
        254    2    1    2    0    0  0.83661737792E+03 -0.89488491401E+03 -0.80852494297E+03  0.17217909434E+04  0.90005767769E+03 0.  0.
        -24    2    4    4    0    0 -0.17244449286E+03 -0.13302536077E+03 -0.23777631518E+03  0.33230921700E+03  0.80367841292E+02 0.  0.
         24    2    4    4    0    0  0.10090618708E+04 -0.76185955324E+03 -0.57074862779E+03  0.13894817264E+04  0.79181021031E+02 0.  0.
         11    1    3    3    0    0 -0.45554613751E+03  0.42129145931E+03 -0.68951878579E+03  0.92760171035E+03  0.00000000000E+00 0. -1.
        -11    1    3    3    0    0 -0.38107124040E+03  0.47359345470E+03 -0.68280975491E+03  0.91418554571E+03  0.00000000000E+00 0.  1.
          2    1    6    6  502    0  0.12599615688E+03 -0.10345841627E+03 -0.46120958227E+02  0.16942791456E+03  0.00000000000E+00 0. -1.
          1    1    5    5  503    0 -0.27428124658E+02 -0.27713159308E+02 -0.61992453231E+01  0.39481031694E+02  0.00000000000E+00 0. -1.
         -2    1    5    5    0  503 -0.14501636820E+03 -0.10531220146E+03 -0.23157706986E+03  0.29282818530E+03  0.00000000000E+00 0.  1.
         -1    1    6    6    0  502  0.88306571390E+03 -0.65840113697E+03 -0.52462766956E+03  0.12200538119E+04  0.00000000000E+00 0.  1.
<mgrwt>
<rscale>  0 0.28183271E+04</rscale>
<asrwt>0</asrwt>
<pdfrwt beam="1">  1        1 0.44187936E+00 0.28183271E+04</pdfrwt>
<pdfrwt beam="2">  1       -1 0.10636344E+00 0.28183271E+04</pdfrwt>
<totfact> 0.52792445E-01</totfact>
</mgrwt>
</event>
<event>
12    1  0.2083715E-007  0.2966299E+04  0.7818608E-02  0.8253420E-01
         -1   -1    0    0    0  501 -0.00000000000E+00  0.00000000000E+00  0.17010516894E+04  0.17010516894E+04  0.00000000000E+00 0.  1.
          1   -1    0    0  501    0  0.00000000000E+00 -0.00000000000E+00 -0.12931602576E+04  0.12931602576E+04  0.00000000000E+00 0. -1.
         23    2    1    2    0    0 -0.12705753862E+04 -0.24736496183E+03 -0.18380151102E+03  0.13106461347E+04  0.91973140677E+02 0.  0.
        254    2    1    2    0    0  0.12705753862E+04  0.24736496183E+03  0.59169294285E+03  0.16835658122E+04  0.89930087795E+03 0.  0.
        -24    2    4    4    0    0  0.77654736294E+02 -0.19608216860E+03  0.30085796751E+03  0.37592098317E+03  0.79514741169E+02 0.  0.
         24    2    4    4    0    0  0.11929206499E+04  0.44344713042E+03  0.29083497534E+03  0.13076448291E+04  0.75133092463E+02 0.  0.
         13    1    3    3    0    0 -0.94435777640E+02 -0.40817193563E+02 -0.26109563141E+02  0.10614079647E+03  0.00000000000E+00 0. -1.
        -13    1    3    3    0    0 -0.11761396086E+04 -0.20654776826E+03 -0.15769194788E+03  0.12045053383E+04  0.00000000000E+00 0.  1.
          4    1    6    6  502    0  0.25487570742E+03  0.62548495914E+02  0.56568646783E+02  0.26846592405E+03  0.00000000000E+00 0. -1.
          1    1    5    5  503    0 -0.15396748098E+02 -0.38628433699E+02  0.69665058120E+02  0.81132213485E+02  0.00000000000E+00 0. -1.
         -2    1    5    5    0  503  0.93051484392E+02 -0.15745373490E+03  0.23119290939E+03  0.29478876968E+03  0.00000000000E+00 0.  1.
         -3    1    6    6    0  502  0.93804494252E+03  0.38089863451E+03  0.23426632856E+03  0.10391789050E+04  0.00000000000E+00 0.  1.
<mgrwt>
<rscale>  0 0.29662990E+04</rscale>
<asrwt>0</asrwt>
<pdfrwt beam="1">  1        1 0.19894773E+00 0.29662990E+04</pdfrwt>
<pdfrwt beam="2">  1       -1 0.26170026E+00 0.29662990E+04</pdfrwt>
<totfact> 0.45670881E-01</totfact>
</mgrwt>
</event>
<event>
12    1  0.2083715E-007  0.2666862E+04  0.7818608E-02  0.8345838E-01
         -1   -1    0    0    0  501 -0.00000000000E+00  0.00000000000E+00  0.65074674228E+03  0.65074674228E+03  0.00000000000E+00 0.  1.
          1   -1    0    0  501    0  0.00000000000E+00 -0.00000000000E+00 -0.27323052657E+04  0.27323052657E+04  0.00000000000E+00 0. -1.
         23    2    1    2    0    0 -0.11798017835E+04  0.20715304412E+02 -0.87095581535E+03  0.14694826879E+04  0.91945448224E+02 0.  0.
        254    2    1    2    0    0  0.11798017835E+04 -0.20715304412E+02 -0.12106027080E+04  0.19135693201E+04  0.89656413821E+03 0.  0.
        -24    2    4    4    0    0  0.63722739130E+03 -0.42275496360E+03 -0.44034947889E+03  0.88610254568E+03  0.80557745964E+02 0.  0.
         24    2    4    4    0    0  0.54257439219E+03  0.40203965919E+03 -0.77025322916E+03  0.10274667744E+04  0.79844078534E+02 0.  0.
         13    1    3    3    0    0 -0.61401489536E+03  0.13801477206E+02 -0.51011857468E+03  0.79838946181E+03  0.00000000000E+00 0. -1.
        -13    1    3    3    0    0 -0.56578688814E+03  0.69138272054E+01 -0.36083724067E+03  0.67109322605E+03  0.00000000000E+00 0.  1.
          2    1    6    6  502    0  0.26116342882E+03  0.24305264857E+03 -0.40778770752E+03  0.54182261021E+03  0.00000000000E+00 0. -1.
          3    1    5    5  503    0  0.23101294121E+02  0.44464341686E+00 -0.14166611962E+02  0.27102774624E+02  0.00000000000E+00 0. -1.
         -4    1    5    5    0  503  0.61412609718E+03 -0.42319960702E+03 -0.42618286692E+03  0.85899977105E+03  0.00000000000E+00 0.  1.
         -1    1    6    6    0  502  0.28141096337E+03  0.15898701062E+03 -0.36246552163E+03  0.48564416421E+03  0.00000000000E+00 0.  1.
<mgrwt>
<rscale>  0 0.26668624E+04</rscale>
<asrwt>0</asrwt>
<pdfrwt beam="1">  1        1 0.42035465E+00 0.26668624E+04</pdfrwt>
<pdfrwt beam="2">  1       -1 0.10011488E+00 0.26668624E+04</pdfrwt>
<totfact> 0.77467129E-01</totfact>
</mgrwt>
</event>
<event>
12    1  0.2083715E-007  0.1082055E+04  0.7818608E-02  0.9222861E-01
          2   -1    0    0  501    0  0.00000000000E+00  0.00000000000E+00  0.26006006172E+03  0.26006006172E+03  0.00000000000E+00 0.  1.
         -2   -1    0    0    0  501 -0.00000000000E+00 -0.00000000000E+00 -0.11255504197E+04  0.11255504197E+04  0.00000000000E+00 0. -1.
         23    2    1    2    0    0 -0.69467454749E+02 -0.56505042720E+02 -0.28081873131E+03  0.30897197333E+03  0.92660527346E+02 0.  0.
        254    2    1    2    0    0  0.69467454749E+02  0.56505042720E+02 -0.58467162667E+03  0.10766385081E+04  0.89960603541E+03 0.  0.
        -24    2    4    4    0    0  0.39901046177E+03  0.13799978185E+03 -0.58829993540E+03  0.72843392630E+03  0.79157328195E+02 0.  0.
         24    2    4    4    0    0 -0.32954300702E+03 -0.81494739128E+02  0.36283087333E+01  0.34820458179E+03  0.77416278462E+02 0.  0.
         13    1    3    3    0    0 -0.15422452963E+02  0.21694958127E+02 -0.11307957285E+03  0.11617019006E+03  0.00000000000E+00 0. -1.
        -13    1    3    3    0    0 -0.54045001785E+02 -0.78200000847E+02 -0.16773915846E+03  0.19280178327E+03  0.00000000000E+00 0.  1.
          2    1    6    6  502    0 -0.18967293275E+03 -0.53298346677E+02  0.39818631150E+02  0.20100263322E+03  0.00000000000E+00 0. -1.
          1    1    5    5  503    0  0.19196600600E+03  0.95419968609E+02 -0.34455948898E+03  0.40580433625E+03  0.00000000000E+00 0. -1.
         -2    1    5    5    0  503  0.20704445577E+03  0.42579813240E+02 -0.24374044642E+03  0.32262959006E+03  0.00000000000E+00 0.  1.
         -1    1    6    6    0  502 -0.13987007428E+03 -0.28196392451E+02 -0.36190322417E+02  0.14720194857E+03  0.00000000000E+00 0.  1.
<mgrwt>
<rscale>  0 0.10820549E+04</rscale>
<asrwt>0</asrwt>
<pdfrwt beam="1">  1        2 0.40009241E-01 0.10820549E+04</pdfrwt>
<pdfrwt beam="2">  1       -2 0.17316160E+00 0.10820549E+04</pdfrwt>
<totfact> 0.25884391E+01</totfact>
</mgrwt>
</event>
<event>
12    1  0.2083715E-007  0.2256674E+04  0.7818608E-02  0.8495202E-01
          1   -1    0    0  501    0  0.00000000000E+00  0.00000000000E+00  0.38799865148E+04  0.38799865148E+04  0.00000000000E+00 0. -1.
         -1   -1    0    0    0  501 -0.00000000000E+00 -0.00000000000E+00 -0.32813121625E+03  0.32813121625E+03  0.00000000000E+00 0.  1.
         23    2    1    2    0    0 -0.44291512093E+03 -0.65711185502E+03  0.24573346594E+04  0.25835936493E+04  0.92155965892E+02 0.  0.
        254    2    1    2    0    0  0.44291512093E+03  0.65711185502E+03  0.10945206391E+04  0.16245240817E+04  0.90173902445E+03 0.  0.
        -24    2    4    4    0    0  0.49881275228E+03  0.44592144372E+03  0.11945325758E+04  0.13714621125E+04  0.79625093410E+02 0.  0.
         24    2    4    4    0    0 -0.55897631344E+02  0.21119041130E+03 -0.10001193671E+03  0.25306196921E+03  0.79448333936E+02 0.  0.
         11    1    3    3    0    0 -0.24829342391E+03 -0.39206391337E+03  0.15763483694E+04  0.16432400671E+04  0.00000000000E+00 0. -1.
        -11    1    3    3    0    0 -0.19462169703E+03 -0.26504794165E+03  0.88098629009E+03  0.94035358225E+03  0.00000000000E+00 0.  1.
          4    1    6    6  502    0 -0.14118930457E+02  0.14195657656E+03 -0.96291796324E+02  0.17211369459E+03  0.00000000000E+00 0. -1.
          1    1    5    5  503    0  0.49181426477E+03  0.41938935408E+03  0.11469757609E+04  0.13165569101E+04  0.00000000000E+00 0. -1.
         -4    1    5    5    0  503  0.69984875027E+01  0.26532089639E+02  0.47556814855E+02  0.54905202368E+02  0.00000000000E+00 0.  1.
         -3    1    6    6    0  502 -0.41778700888E+02  0.69233834736E+02 -0.37201403815E+01  0.80948274624E+02  0.00000000000E+00 0.  1.
<mgrwt>
<rscale>  0 0.22566743E+04</rscale>
<asrwt>0</asrwt>
<pdfrwt beam="1">  1        1 0.59692097E+00 0.22566743E+04</pdfrwt>
<pdfrwt beam="2">  1       -1 0.50481728E-01 0.22566743E+04</pdfrwt>
<totfact> 0.43786411E-01</totfact>
</mgrwt>
</event>
<event>
12    1  0.2083715E-007  0.1686691E+04  0.7818608E-02  0.8768992E-01
         -2   -1    0    0    0  501 -0.00000000000E+00  0.00000000000E+00  0.57161037875E+03  0.57161037875E+03  0.00000000000E+00 0.  1.
          2   -1    0    0  501    0  0.00000000000E+00 -0.00000000000E+00 -0.12442596291E+04  0.12442596291E+04  0.00000000000E+00 0. -1.
         23    2    1    2    0    0 -0.67242263912E+02 -0.34571344060E+03  0.27991135503E+03  0.45888690684E+03  0.90484924294E+02 0.  0.
        254    2    1    2    0    0  0.67242263912E+02  0.34571344060E+03 -0.95256060534E+03  0.13569831010E+04  0.89999562467E+03 0.  0.
        -24    2    4    4    0    0  0.59255633413E+01  0.62797244203E+03 -0.80224929927E+03  0.10218847839E+04  0.79120623433E+02 0.  0.
         24    2    4    4    0    0  0.61316700570E+02 -0.28225900143E+03 -0.15031130607E+03  0.33509831712E+03  0.79167618059E+02 0.  0.
         11    1    3    3    0    0  0.19977793251E+02 -0.10976564628E+03  0.97349921580E+02  0.14806963415E+03  0.00000000000E+00 0.  1.
        -11    1    3    3    0    0 -0.87220057162E+02 -0.23594779432E+03  0.18256143345E+03  0.31081727269E+03  0.00000000000E+00 0. -1.
          2    1    6    6  502    0  0.59244361409E+02 -0.13474094173E+03 -0.45280166437E+02  0.15399775715E+03  0.00000000000E+00 0. -1.
          3    1    5    5  503    0 -0.14911727348E+02  0.55769938399E+03 -0.68281320984E+03  0.88175100910E+03  0.00000000000E+00 0. -1.
         -4    1    5    5    0  503  0.20837290690E+02  0.70273058033E+02 -0.11943608944E+03  0.14013377476E+03  0.00000000000E+00 0.  1.
         -1    1    6    6    0  502  0.20723391615E+01 -0.14751805970E+03 -0.10503113963E+03  0.18110055996E+03  0.00000000000E+00 0.  1.
<mgrwt>
<rscale>  0 0.16866911E+04</rscale>
<asrwt>0</asrwt>
<pdfrwt beam="1">  1        2 0.19142456E+00 0.16866911E+04</pdfrwt>
<pdfrwt beam="2">  1       -2 0.87940059E-01 0.16866911E+04</pdfrwt>
<totfact> 0.18930693E+01</totfact>
</mgrwt>
</event>
<event>
12    1  0.2083715E-007  0.1818076E+04  0.7818608E-02  0.8696746E-01
         -2   -1    0    0    0  501 -0.00000000000E+00  0.00000000000E+00  0.45997732089E+03  0.45997732089E+03  0.00000000000E+00 0.  1.
          2   -1    0    0  501    0  0.00000000000E+00 -0.00000000000E+00 -0.17965015306E+04  0.17965015306E+04  0.00000000000E+00 0. -1.
         23    2    1    2    0    0  0.43837255943E+03  0.25673712262E+03 -0.10729240903E+04  0.11905832859E+04  0.90763462676E+02 0.  0.
        254    2    1    2    0    0 -0.43837255943E+03 -0.25673712262E+03 -0.26360011940E+03  0.10658955656E+04  0.89920180313E+03 0.  0.
        -24    2    4    4    0    0 -0.45458493312E+03 -0.17085661297E+03 -0.56089132497E+03  0.74625023540E+03  0.80317443899E+02 0.  0.
         24    2    4    4    0    0  0.16212373690E+02 -0.85880509657E+02  0.29729120557E+03  0.31964533017E+03  0.78439614926E+02 0.  0.
         13    1    3    3    0    0  0.33957617757E+03  0.16900166097E+03 -0.86093279501E+03  0.94078627717E+03  0.00000000000E+00 0. -1.
        -13    1    3    3    0    0  0.98796381857E+02  0.87735461658E+02 -0.21199129532E+03  0.24979700878E+03  0.00000000000E+00 0.  1.
          4    1    6    6  502    0  0.44909850433E+02 -0.47354212310E+02  0.21124841546E+03  0.22109999802E+03  0.00000000000E+00 0. -1.
          1    1    5    5  503    0 -0.27214325287E+03 -0.14308842883E+03 -0.33965641077E+03  0.45815142248E+03  0.00000000000E+00 0. -1.
         -2    1    5    5    0  503 -0.18244168025E+03 -0.27768184140E+02 -0.22123491420E+03  0.28809881291E+03  0.00000000000E+00 0.  1.
         -3    1    6    6    0  502 -0.28697476743E+02 -0.38526297347E+02  0.86042790109E+02  0.98545332149E+02  0.00000000000E+00 0.  1.
<mgrwt>
<rscale>  0 0.18180759E+04</rscale>
<asrwt>0</asrwt>
<pdfrwt beam="1">  1        2 0.27638485E+00 0.18180759E+04</pdfrwt>
<pdfrwt beam="2">  1       -2 0.70765742E-01 0.18180759E+04</pdfrwt>
<totfact> 0.14829965E+01</totfact>
</mgrwt>
</event>
<event>
12    1  0.2083715E-007  0.2334254E+04  0.7818608E-02  0.8464536E-01
          1   -1    0    0  501    0  0.00000000000E+00  0.00000000000E+00  0.97366735964E+03  0.97366735964E+03  0.00000000000E+00 0. -1.
         -1   -1    0    0    0  501 -0.00000000000E+00 -0.00000000000E+00 -0.13990254483E+04  0.13990254483E+04  0.00000000000E+00 0.  1.
         23    2    1    2    0    0 -0.33657218371E+03 -0.41015902334E+03 -0.10236322790E+04  0.11565848912E+04  0.91401907594E+02 0.  0.
        254    2    1    2    0    0  0.33657218371E+03  0.41015902334E+03  0.59827419037E+03  0.12161079167E+04  0.91622879178E+03 0.  0.
        -24    2    4    4    0    0  0.56283228043E+03  0.12704408667E+03  0.61157818538E+03  0.84458772667E+03  0.79875999845E+02 0.  0.
         24    2    4    4    0    0 -0.22626009672E+03  0.28311493667E+03 -0.13303995013E+02  0.37152019001E+03  0.80638431080E+02 0.  0.
         11    1    3    3    0    0 -0.51960857682E+02 -0.12482755096E+03 -0.24468973001E+03  0.27956200061E+03  0.00000000000E+00 0. -1.
        -11    1    3    3    0    0 -0.28461132603E+03 -0.28533147237E+03 -0.77894254901E+03  0.87702289063E+03  0.00000000000E+00 0.  1.
          2    1    6    6  502    0 -0.40040099655E+02  0.13069756064E+02  0.77134636414E+01  0.42819687356E+02  0.00000000000E+00 0. -1.
          1    1    5    5  503    0  0.17032056117E+03  0.13253449091E+02  0.22055852573E+03  0.27898173908E+03  0.00000000000E+00 0. -1.
         -2    1    5    5    0  503  0.39251171926E+03  0.11379063758E+03  0.39101965966E+03  0.56560598759E+03  0.00000000000E+00 0.  1.
         -1    1    6    6    0  502 -0.18621999707E+03  0.27004518061E+03 -0.21017458654E+02  0.32870050265E+03  0.00000000000E+00 0.  1.
<mgrwt>
<rscale>  0 0.23342540E+04</rscale>
<asrwt>0</asrwt>
<pdfrwt beam="1">  1        1 0.14979498E+00 0.23342540E+04</pdfrwt>
<pdfrwt beam="2">  1       -1 0.21523468E+00 0.23342540E+04</pdfrwt>
<totfact> 0.16945628E+00</totfact>
</mgrwt>
</event>
<event>
12    1  0.2083715E-007  0.1786631E+04  0.7818608E-02  0.8713441E-01
         -1   -1    0    0    0  501 -0.00000000000E+00  0.00000000000E+00  0.17916866495E+04  0.17916866495E+04  0.00000000000E+00 0.  1.
          1   -1    0    0  501    0  0.00000000000E+00 -0.00000000000E+00 -0.44539760580E+03  0.44539760580E+03  0.00000000000E+00 0. -1.
         23    2    1    2    0    0 -0.57117967522E+02  0.61134115791E+03  0.19338802125E+03  0.65017678914E+03  0.91271336177E+02 0.  0.
        254    2    1    2    0    0  0.57117967522E+02 -0.61134115791E+03  0.11529010224E+04  0.15869074662E+04  0.90116261852E+03 0.  0.
        -24    2    4    4    0    0  0.12051697937E+03  0.50812983943E+02 -0.87456346954E+02  0.17698883704E+03  0.81056364102E+02 0.  0.
         24    2    4    4    0    0 -0.63399011844E+02 -0.66215414186E+03  0.12403573694E+04  0.14099186291E+04  0.83166066545E+02 0.  0.
         11    1    3    3    0    0 -0.83528660968E+01  0.10836071185E+03  0.72297116313E+02  0.13053232271E+03  0.00000000000E+00 0.  1.
        -11    1    3    3    0    0 -0.48765101426E+02  0.50298044606E+03  0.12109090494E+03  0.51964446643E+03  0.00000000000E+00 0. -1.
          2    1    6    6  502    0 -0.42514920139E+02 -0.55035817809E+03  0.10854455828E+04  0.12177412516E+04  0.00000000000E+00 0. -1.
          1    1    5    5  503    0  0.25144293575E+02 -0.21516203280E+02 -0.27942981131E+02  0.43312731355E+02  0.00000000000E+00 0. -1.
         -2    1    5    5    0  503  0.95372685791E+02  0.72329187223E+02 -0.59513365824E+02  0.13367610568E+03  0.00000000000E+00 0.  1.
         -3    1    6    6    0  502 -0.20884091705E+02 -0.11179596377E+03  0.15491178656E+03  0.19217737748E+03  0.00000000000E+00 0.  1.
<mgrwt>
<rscale>  0 0.17866314E+04</rscale>
<asrwt>0</asrwt>
<pdfrwt beam="1">  1        1 0.68522709E-01 0.17866314E+04</pdfrwt>
<pdfrwt beam="2">  1       -1 0.27564410E+00 0.17866314E+04</pdfrwt>
<totfact> 0.23309912E+00</totfact>
</mgrwt>
</event>
<event>
12    1  0.2083715E-007  0.2759884E+04  0.7818608E-02  0.8315832E-01
          1   -1    0    0  501    0  0.00000000000E+00  0.00000000000E+00  0.76877495577E+03  0.76877495577E+03  0.00000000000E+00 0. -1.
         -1   -1    0    0    0  501 -0.00000000000E+00 -0.00000000000E+00 -0.24769801135E+04  0.24769801135E+04  0.00000000000E+00 0.  1.
         23    2    1    2    0    0 -0.10412862156E+04 -0.50383532097E+03 -0.27573852839E+03  0.11949236976E+04  0.11697817617E+03 0.  0.
        254    2    1    2    0    0  0.10412862156E+04  0.50383532097E+03 -0.14324666293E+04  0.20508313716E+04  0.90322846350E+03 0.  0.
        -24    2    4    4    0    0  0.33262436635E+03  0.33475848758E+03 -0.11837390641E+04  0.12767510725E+04  0.78440519200E+02 0.  0.
         24    2    4    4    0    0  0.70866184923E+03  0.16907683339E+03 -0.24872756518E+03  0.77408029912E+03  0.80909305216E+02 0.  0.
         13    1    3    3    0    0 -0.93471164522E+03 -0.47478436817E+03 -0.22009173204E+03  0.10712359341E+04  0.00000000000E+00 0. -1.
        -13    1    3    3    0    0 -0.10657457035E+03 -0.29050952804E+02 -0.55646796344E+02  0.12368776354E+03  0.00000000000E+00 0.  1.
          2    1    6    6  502    0  0.65042213940E+03  0.17715386454E+03 -0.23251636970E+03  0.71308927444E+03  0.00000000000E+00 0. -1.
          3    1    5    5  503    0  0.28857275043E+03  0.31020170098E+03 -0.99621658692E+03  0.10825649244E+04  0.00000000000E+00 0. -1.
         -4    1    5    5    0  503  0.44051615918E+02  0.24556786608E+02 -0.18752247721E+03  0.19418614804E+03  0.00000000000E+00 0.  1.
         -1    1    6    6    0  502  0.58239709824E+02 -0.80770311504E+01 -0.16211195476E+02  0.60991024679E+02  0.00000000000E+00 0.  1.
<mgrwt>
<rscale>  0 0.27598843E+04</rscale>
<asrwt>0</asrwt>
<pdfrwt beam="1">  1        1 0.11827307E+00 0.27598843E+04</pdfrwt>
<pdfrwt beam="2">  1       -1 0.38107385E+00 0.27598843E+04</pdfrwt>
<totfact> 0.19686751E-01</totfact>
</mgrwt>
</event>
<event>
12    1  0.2083715E-007  0.2156300E+04  0.7818608E-02  0.8536840E-01
          2   -1    0    0  501    0  0.00000000000E+00  0.00000000000E+00  0.98542698565E+03  0.98542698565E+03  0.00000000000E+00 0. -1.
         -2   -1    0    0    0  501 -0.00000000000E+00 -0.00000000000E+00 -0.11795977275E+04  0.11795977275E+04  0.00000000000E+00 0.  1.
         23    2    1    2    0    0 -0.67233501007E+03  0.55227099388E+03 -0.25629990141E+03  0.91157689918E+03  0.90803013262E+02 0.  0.
        254    2    1    2    0    0  0.67233501007E+03 -0.55227099388E+03  0.62129159524E+02  0.12534478140E+04  0.90012986481E+03 0.  0.
        -24    2    4    4    0    0 -0.83623519279E+02 -0.46411085272E+03 -0.45985611403E+02  0.48068778394E+03  0.80958585597E+02 0.  0.
         24    2    4    4    0    0  0.75595852935E+03 -0.88160141161E+02  0.10811477093E+03  0.77276003007E+03  0.78890758645E+02 0.  0.
         13    1    3    3    0    0 -0.54869744390E+03  0.41747353565E+03 -0.17444365152E+03  0.71118466341E+03  0.00000000000E+00 0. -1.
        -13    1    3    3    0    0 -0.12363756617E+03  0.13479745823E+03 -0.81856249890E+02  0.20039223577E+03  0.00000000000E+00 0.  1.
          4    1    6    6  502    0  0.56182888600E+03 -0.92526869864E+02  0.10216646230E+03  0.57849019422E+03  0.00000000000E+00 0. -1.
          3    1    5    5  503    0 -0.50350317013E+02 -0.39766237078E+03 -0.59271909751E+02  0.40519584751E+03  0.00000000000E+00 0. -1.
         -4    1    5    5    0  503 -0.33273202265E+02 -0.66448481941E+02  0.13286298348E+02  0.75491936424E+02  0.00000000000E+00 0.  1.
         -3    1    6    6    0  502  0.19412964335E+03  0.43667287035E+01  0.59483086314E+01  0.19426983585E+03  0.00000000000E+00 0.  1.
<mgrwt>
<rscale>  0 0.21563000E+04</rscale>
<asrwt>0</asrwt>
<pdfrwt beam="1">  1        2 0.15160415E+00 0.21563000E+04</pdfrwt>
<pdfrwt beam="2">  1       -2 0.18147657E+00 0.21563000E+04</pdfrwt>
<totfact> 0.41812883E+00</totfact>
</mgrwt>
</event>
<event>
12    1  0.2083715E-007  0.2149855E+04  0.7818608E-02  0.8539594E-01
          1   -1    0    0  501    0  0.00000000000E+00  0.00000000000E+00  0.34619828782E+04  0.34619828782E+04  0.00000000000E+00 0. -1.
         -1   -1    0    0    0  501 -0.00000000000E+00 -0.00000000000E+00 -0.33375942504E+03  0.33375942504E+03  0.00000000000E+00 0.  1.
         23    2    1    2    0    0 -0.85108007478E+03  0.43392966754E+02  0.89322882755E+03  0.12378562478E+04  0.90609650122E+02 0.  0.
        254    2    1    2    0    0  0.85108007478E+03 -0.43392966754E+02  0.22349946256E+04  0.25578860554E+04  0.90628905577E+03 0.  0.
        -24    2    4    4    0    0 -0.16935085907E+03 -0.61592250213E+01  0.60044900340E+03  0.62904762056E+03  0.80276109324E+02 0.  0.
         24    2    4    4    0    0  0.10204309338E+04 -0.37233741733E+02  0.16345456222E+04  0.19288384348E+04  0.77541436184E+02 0.  0.
         13    1    3    3    0    0 -0.34931964199E+03  0.53803715202E+01  0.30502965492E+03  0.46378470335E+03  0.00000000000E+00 0.  1.
        -13    1    3    3    0    0 -0.50176043279E+03  0.38012595234E+02  0.58819917263E+03  0.77407154449E+03  0.00000000000E+00 0. -1.
          2    1    6    6  502    0  0.61650727361E+03  0.16978442508E-01  0.10427885213E+04  0.12113996528E+04  0.00000000000E+00 0. -1.
          3    1    5    5  503    0 -0.11767389995E+03 -0.40812289789E+02  0.42603255726E+03  0.44386544084E+03  0.00000000000E+00 0. -1.
         -4    1    5    5    0  503 -0.51676959115E+02  0.34653064768E+02  0.17441644614E+03  0.18518217972E+03  0.00000000000E+00 0.  1.
         -1    1    6    6    0  502  0.40392366024E+03 -0.37250720175E+02  0.59175710087E+03  0.71743878197E+03  0.00000000000E+00 0.  1.
<mgrwt>
<rscale>  0 0.21498553E+04</rscale>
<asrwt>0</asrwt>
<pdfrwt beam="1">  1        1 0.53261272E+00 0.21498553E+04</pdfrwt>
<pdfrwt beam="2">  1       -1 0.51347606E-01 0.21498553E+04</pdfrwt>
<totfact> 0.93791350E-01</totfact>
</mgrwt>
</event>
<event>
12    1  0.2083715E-007  0.1304708E+04  0.7818608E-02  0.9025840E-01
         -1   -1    0    0    0  501 -0.00000000000E+00  0.00000000000E+00  0.58718345988E+03  0.58718345988E+03  0.00000000000E+00 0.  1.
          1   -1    0    0  501    0  0.00000000000E+00 -0.00000000000E+00 -0.72475803948E+03  0.72475803948E+03  0.00000000000E+00 0. -1.
         23    2    1    2    0    0  0.28074908740E+03 -0.13020327617E+03  0.86404613170E+02  0.33436921716E+03  0.92542276825E+02 0.  0.
        254    2    1    2    0    0 -0.28074908740E+03  0.13020327617E+03 -0.22397919277E+03  0.97757228221E+03  0.89983773257E+03 0.  0.
        -24    2    4    4    0    0 -0.20713984682E+03 -0.28037963589E+03 -0.38313929265E+03  0.52397398135E+03  0.78951625655E+02 0.  0.
         24    2    4    4    0    0 -0.73609240582E+02  0.41058291206E+03  0.15916009988E+03  0.45359830086E+03  0.80142580304E+02 0.  0.
         13    1    3    3    0    0  0.14056757543E+03 -0.26193218123E+02  0.85566937492E+01  0.14324295776E+03  0.00000000000E+00 0. -1.
        -13    1    3    3    0    0  0.14018151197E+03 -0.10401005805E+03  0.77847919421E+02  0.19112625940E+03  0.00000000000E+00 0.  1.
          4    1    6    6  502    0 -0.58158032299E+02  0.18775464208E+03  0.40545786445E+02  0.20069410341E+03  0.00000000000E+00 0. -1.
          3    1    5    5  503    0 -0.22441181929E+02 -0.50389085016E+02 -0.10469914561E+03  0.11834093808E+03  0.00000000000E+00 0. -1.
         -4    1    5    5    0  503 -0.18469866489E+03 -0.22999055087E+03 -0.27844014705E+03  0.40563304327E+03  0.00000000000E+00 0.  1.
         -3    1    6    6    0  502 -0.15451208283E+02  0.22282826998E+03  0.11861431344E+03  0.25290419746E+03  0.00000000000E+00 0.  1.
<mgrwt>
<rscale>  0 0.13047083E+04</rscale>
<asrwt>0</asrwt>
<pdfrwt beam="1">  1        1 0.11150124E+00 0.13047083E+04</pdfrwt>
<pdfrwt beam="2">  1       -1 0.90335917E-01 0.13047083E+04</pdfrwt>
<totfact> 0.30408916E+01</totfact>
</mgrwt>
</event>
<event>
12    1  0.2083715E-007  0.1768301E+04  0.7818608E-02  0.8723341E-01
         -2   -1    0    0    0  501 -0.00000000000E+00  0.00000000000E+00  0.12475650595E+04  0.12475650595E+04  0.00000000000E+00 0.  1.
          2   -1    0    0  501    0  0.00000000000E+00 -0.00000000000E+00 -0.62659810505E+03  0.62659810505E+03  0.00000000000E+00 0. -1.
         23    2    1    2    0    0  0.95376850329E+02 -0.46502820814E+03 -0.24136573972E+03  0.54036142821E+03  0.91570054294E+02 0.  0.
        254    2    1    2    0    0 -0.95376850329E+02  0.46502820814E+03  0.86233269420E+03  0.13338017364E+04  0.90003412075E+03 0.  0.
        -24    2    4    4    0    0 -0.24961017156E+02 -0.48905900521E+02  0.79861544428E+03  0.80498461619E+03  0.84845536008E+02 0.  0.
         24    2    4    4    0    0 -0.70415833173E+02  0.51393410867E+03  0.63717249928E+02  0.52881712019E+03  0.80628785518E+02 0.  0.
         11    1    3    3    0    0  0.60737854515E+02 -0.32027771578E+03 -0.11681013287E+03  0.34628241269E+03  0.00000000000E+00 0.  1.
        -11    1    3    3    0    0  0.34638995814E+02 -0.14475049237E+03 -0.12455560684E+03  0.19407901552E+03  0.00000000000E+00 0. -1.
          2    1    6    6  502    0 -0.54654516029E+02  0.23677487117E+03 -0.41431964827E+01  0.24303625618E+03  0.00000000000E+00 0. -1.
          1    1    5    5  503    0  0.15006917755E+02 -0.36639674322E+02  0.63074167530E+03  0.63198317562E+03  0.00000000000E+00 0. -1.
         -2    1    5    5    0  503 -0.39967934911E+02 -0.12266226200E+02  0.16787376898E+03  0.17300144056E+03  0.00000000000E+00 0.  1.
         -1    1    6    6    0  502 -0.15761317144E+02  0.27715923750E+03  0.67860446410E+02  0.28578086401E+03  0.00000000000E+00 0.  1.
<mgrwt>
<rscale>  0 0.17683008E+04</rscale>
<asrwt>0</asrwt>
<pdfrwt beam="1">  1        2 0.96399709E-01 0.17683008E+04</pdfrwt>
<pdfrwt beam="2">  1       -2 0.19193309E+00 0.17683008E+04</pdfrwt>
<totfact> 0.66925566E+00</totfact>
</mgrwt>
</event>
<event>
12    1  0.2083715E-007  0.3414566E+04  0.7818608E-02  0.8134341E-01
          1   -1    0    0  501    0  0.00000000000E+00  0.00000000000E+00  0.22850408764E+04  0.22850408764E+04  0.00000000000E+00 0. -1.
         -1   -1    0    0    0  501 -0.00000000000E+00 -0.00000000000E+00 -0.12756075245E+04  0.12756075245E+04  0.00000000000E+00 0.  1.
         23    2    1    2    0    0 -0.11609764050E+04  0.25592143249E+03  0.15670416870E+04  0.19692216476E+04  0.94086428225E+02 0.  0.
        254    2    1    2    0    0  0.11609764050E+04 -0.25592143249E+03 -0.55760833508E+03  0.15914267533E+04  0.89908290108E+03 0.  0.
        -24    2    4    4    0    0  0.12919332440E+04 -0.26038083202E+03 -0.41689195996E+03  0.13841710186E+04  0.72393492634E+02 0.  0.
         24    2    4    4    0    0 -0.13095683896E+03  0.44593995312E+01 -0.14071637512E+03  0.20725573469E+03  0.77358008114E+02 0.  0.
         13    1    3    3    0    0 -0.15735590551E+03  0.23787186296E+01  0.20130009016E+03  0.25551568562E+03  0.00000000000E+00 0.  1.
        -13    1    3    3    0    0 -0.10036204995E+04  0.25354271386E+03  0.13657415969E+04  0.17137059620E+04  0.00000000000E+00 0. -1.
          2    1    6    6  502    0 -0.12789910988E+03  0.17652656004E+02 -0.96999011659E+02  0.16148872046E+03  0.00000000000E+00 0. -1.
          1    1    5    5  503    0  0.95714812293E+03 -0.17080287168E+03 -0.28268063998E+03  0.10125287623E+04  0.00000000000E+00 0. -1.
         -2    1    5    5    0  503  0.33478512105E+03 -0.89577960344E+02 -0.13421131997E+03  0.37164225629E+03  0.00000000000E+00 0.  1.
         -3    1    6    6    0  502 -0.30577290800E+01 -0.13193256473E+02 -0.43717363462E+02  0.45767014230E+02  0.00000000000E+00 0.  1.
<mgrwt>
<rscale>  0 0.34145661E+04</rscale>
<asrwt>0</asrwt>
<pdfrwt beam="1">  1        1 0.35154475E+00 0.34145661E+04</pdfrwt>
<pdfrwt beam="2">  1       -1 0.19624731E+00 0.34145661E+04</pdfrwt>
<totfact> 0.25019538E-01</totfact>
</mgrwt>
</event>
<event>
12    1  0.2083715E-007  0.1445100E+04  0.7818608E-02  0.8921804E-01
         -2   -1    0    0    0  501 -0.00000000000E+00  0.00000000000E+00  0.13598201035E+04  0.13598201035E+04  0.00000000000E+00 0.  1.
          2   -1    0    0  501    0  0.00000000000E+00 -0.00000000000E+00 -0.38393222184E+03  0.38393222184E+03  0.00000000000E+00 0. -1.
         23    2    1    2    0    0  0.24061823018E+02 -0.41550033415E+03  0.14638755687E+03  0.45087951028E+03  0.92970516732E+02 0.  0.
        254    2    1    2    0    0 -0.24061823018E+02  0.41550033415E+03  0.82950032477E+03  0.12928728150E+04  0.90012767322E+03 0.  0.
        -24    2    4    4    0    0 -0.29504016835E+03 -0.78712652541E+01  0.70539391958E+03  0.76897894867E+03  0.81470141601E+02 0.  0.
         24    2    4    4    0    0  0.27097834533E+03  0.42337159940E+03  0.12410640519E+03  0.52389386637E+03  0.79935027331E+02 0.  0.
         13    1    3    3    0    0  0.46446535872E+01 -0.19918588459E+03  0.11874899477E+03  0.23194377161E+03  0.00000000000E+00 0.  1.
        -13    1    3    3    0    0  0.19417169431E+02 -0.21631444956E+03  0.27638562105E+02  0.21893573868E+03  0.00000000000E+00 0. -1.
          4    1    6    6  502    0  0.17101365345E+03  0.19524335566E+03  0.53431724302E+02  0.26499167300E+03  0.00000000000E+00 0. -1.
          1    1    5    5  503    0 -0.29743802806E+03 -0.13279911481E+02  0.67112844139E+03  0.73420645696E+03  0.00000000000E+00 0. -1.
         -2    1    5    5    0  503  0.23978597156E+01  0.54086462269E+01  0.34265478182E+02  0.34772491718E+02  0.00000000000E+00 0.  1.
         -3    1    6    6    0  502  0.99964691877E+02  0.22812824374E+03  0.70674680889E+02  0.25890219337E+03  0.00000000000E+00 0.  1.
<mgrwt>
<rscale>  0 0.14451003E+04</rscale>
<asrwt>0</asrwt>
<pdfrwt beam="1">  1        2 0.59066496E-01 0.14451003E+04</pdfrwt>
<pdfrwt beam="2">  1       -2 0.20920309E+00 0.14451003E+04</pdfrwt>
<totfact> 0.93542756E+00</totfact>
</mgrwt>
</event>
<event>
12    1  0.2083715E-007  0.1780192E+04  0.7818608E-02  0.8716905E-01
          1   -1    0    0  501    0  0.00000000000E+00  0.00000000000E+00  0.54511871434E+03  0.54511871434E+03  0.00000000000E+00 0. -1.
         -1   -1    0    0    0  501 -0.00000000000E+00 -0.00000000000E+00 -0.14533907995E+04  0.14533907995E+04  0.00000000000E+00 0.  1.
         23    2    1    2    0    0  0.49649260579E+03  0.39784650893E+03 -0.53882505818E+03  0.83869284488E+03  0.91030173320E+02 0.  0.
        254    2    1    2    0    0 -0.49649260579E+03 -0.39784650893E+03 -0.36944702694E+03  0.11598166689E+04  0.89660294864E+03 0.  0.
        -24    2    4    4    0    0 -0.51879804153E+03 -0.30590867818E+03  0.14962809696E+03  0.62605156238E+03  0.82586100966E+02 0.  0.
         24    2    4    4    0    0  0.22305435748E+02 -0.91937830754E+02 -0.51907512390E+03  0.53376510654E+03  0.80722410270E+02 0.  0.
         13    1    3    3    0    0  0.18363990145E+03  0.95271886895E+02 -0.15696224596E+03  0.25968729753E+03  0.00000000000E+00 0. -1.
        -13    1    3    3    0    0  0.31285270433E+03  0.30257462204E+03 -0.38186281222E+03  0.57900554735E+03  0.00000000000E+00 0.  1.
          2    1    6    6  502    0  0.25732184107E+02 -0.32904688643E+01 -0.22800154682E+03  0.22947260803E+03  0.00000000000E+00 0. -1.
          1    1    5    5  503    0 -0.19062880729E+03 -0.14106741908E+03  0.26056363558E+02  0.23857554983E+03  0.00000000000E+00 0. -1.
         -2    1    5    5    0  503 -0.32816923424E+03 -0.16484125910E+03  0.12357173340E+03  0.38747601255E+03  0.00000000000E+00 0.  1.
         -1    1    6    6    0  502 -0.34267483587E+01 -0.88647361890E+02 -0.29107357707E+03  0.30429249850E+03  0.00000000000E+00 0.  1.
<mgrwt>
<rscale>  0 0.17801916E+04</rscale>
<asrwt>0</asrwt>
<pdfrwt beam="1">  1        1 0.83864419E-01 0.17801916E+04</pdfrwt>
<pdfrwt beam="2">  1       -1 0.22359858E+00 0.17801916E+04</pdfrwt>
<totfact> 0.38653591E+00</totfact>
</mgrwt>
</event>
<event>
12    1  0.2083715E-007  0.3471473E+04  0.7818608E-02  0.8120584E-01
         -2   -1    0    0    0  501 -0.00000000000E+00  0.00000000000E+00  0.11292301792E+04  0.11292301792E+04  0.00000000000E+00 0. -1.
          2   -1    0    0  501    0  0.00000000000E+00 -0.00000000000E+00 -0.26679955037E+04  0.26679955037E+04  0.00000000000E+00 0.  1.
         23    2    1    2    0    0  0.88215028081E+03 -0.13552353210E+04 -0.75823431542E+03  0.17883188604E+04  0.91176620195E+02 0.  0.
        254    2    1    2    0    0 -0.88215028081E+03  0.13552353210E+04 -0.78053100913E+03  0.20089068225E+04  0.90090292026E+03 0.  0.
        -24    2    4    4    0    0 -0.12233605649E+03  0.87326867208E+03 -0.12760574316E+03  0.89440239389E+03  0.78154540157E+02 0.  0.
         24    2    4    4    0    0 -0.75981422432E+03  0.48196664896E+03 -0.65292526598E+03  0.11145044286E+04  0.78735075676E+02 0.  0.
         11    1    3    3    0    0  0.12449149063E+03 -0.14513387412E+03 -0.73015425761E+02  0.20467834535E+03  0.00000000000E+00 0. -1.
        -11    1    3    3    0    0  0.75765879018E+03 -0.12101014469E+04 -0.68521888966E+03  0.15836405151E+04  0.00000000000E+00 0.  1.
          4    1    6    6  502    0 -0.28878211996E+03  0.21408474616E+03 -0.22565572541E+03  0.42443833210E+03  0.00000000000E+00 0. -1.
          1    1    5    5  503    0 -0.10542845270E+02  0.15719858836E+03  0.49796171978E+01  0.15763040429E+03  0.00000000000E+00 0. -1.
         -2    1    5    5    0  503 -0.11179321122E+03  0.71607008372E+03 -0.13258536036E+03  0.73677198960E+03  0.00000000000E+00 0.  1.
         -3    1    6    6    0  502 -0.47103210436E+03  0.26788190280E+03 -0.42726954057E+03  0.69006609646E+03  0.00000000000E+00 0.  1.
<mgrwt>
<rscale>  0 0.34714729E+04</rscale>
<asrwt>0</asrwt>
<pdfrwt beam="1">  1        2 0.41046084E+00 0.34714729E+04</pdfrwt>
<pdfrwt beam="2">  1       -2 0.17372772E+00 0.34714729E+04</pdfrwt>
<totfact> 0.45821191E-01</totfact>
</mgrwt>
</event>
<event>
12    1  0.2083715E-007  0.1373265E+04  0.7818608E-02  0.8973401E-01
          1   -1    0    0  501    0  0.00000000000E+00  0.00000000000E+00  0.77240654345E+03  0.77240654345E+03  0.00000000000E+00 0. -1.
         -1   -1    0    0    0  501 -0.00000000000E+00 -0.00000000000E+00 -0.61038370059E+03  0.61038370059E+03  0.00000000000E+00 0.  1.
         23    2    1    2    0    0 -0.17948345669E+03  0.33264440613E+03 -0.21689589021E+02  0.38859711598E+03  0.87582350514E+02 0.  0.
        254    2    1    2    0    0  0.17948345669E+03 -0.33264440613E+03  0.18371243188E+03  0.99419312806E+03  0.90100116876E+03 0.  0.
        -24    2    4    4    0    0  0.48352282218E+03  0.28852973131E+02  0.15562248605E+03  0.51506028001E+03  0.80261573955E+02 0.  0.
         24    2    4    4    0    0 -0.30403936549E+03 -0.36149737926E+03  0.28089945832E+02  0.47913284806E+03  0.75225993201E+02 0.  0.
         13    1    3    3    0    0 -0.11388426725E+03  0.18421589657E+03 -0.53832591936E+02  0.22316601630E+03  0.00000000000E+00 0.  1.
        -13    1    3    3    0    0 -0.65599189434E+02  0.14842850956E+03  0.32143002915E+02  0.16543109968E+03  0.00000000000E+00 0. -1.
          4    1    6    6  502    0 -0.26549997702E+03 -0.27350280447E+03  0.35257304736E+02  0.38280164497E+03  0.00000000000E+00 0. -1.
          1    1    5    5  503    0  0.30744354748E+03 -0.19453668772E+02  0.88368199401E+02  0.32048232210E+03  0.00000000000E+00 0. -1.
         -2    1    5    5    0  503  0.17607927470E+03  0.48306641903E+02  0.67254286645E+02  0.19457795790E+03  0.00000000000E+00 0.  1.
         -3    1    6    6    0  502 -0.38539388470E+02 -0.87994574784E+02 -0.71673589041E+01  0.96331203090E+02  0.00000000000E+00 0.  1.
<mgrwt>
<rscale>  0 0.13732653E+04</rscale>
<asrwt>0</asrwt>
<pdfrwt beam="1">  1        1 0.11883178E+00 0.13732653E+04</pdfrwt>
<pdfrwt beam="2">  1       -1 0.93905185E-01 0.13732653E+04</pdfrwt>
<totfact> 0.25120762E+01</totfact>
</mgrwt>
</event>
<event>
12    1  0.2083715E-007  0.1934210E+04  0.7818608E-02  0.8638013E-01
         -2   -1    0    0    0  501 -0.00000000000E+00  0.00000000000E+00  0.69711604461E+03  0.69711604461E+03  0.00000000000E+00 0.  1.
          2   -1    0    0  501    0  0.00000000000E+00 -0.00000000000E+00 -0.13416590621E+04  0.13416590621E+04  0.00000000000E+00 0. -1.
         23    2    1    2    0    0  0.54935993282E+03  0.46822226892E+03 -0.49539489413E+03  0.87950811936E+03  0.84202149585E+02 0.  0.
        254    2    1    2    0    0 -0.54935993282E+03 -0.46822226892E+03 -0.14914812332E+03  0.11592669873E+04  0.89477726628E+03 0.  0.
        -24    2    4    4    0    0  0.33113900942E+02 -0.26527864552E+03  0.28685589579E+03  0.39996452807E+03  0.78841794494E+02 0.  0.
         24    2    4    4    0    0 -0.58247383376E+03 -0.20294362340E+03 -0.43600401911E+03  0.75930245923E+03  0.77322950139E+02 0.  0.
         13    1    3    3    0    0  0.10656514219E+02  0.56355994698E+01  0.24576044143E+01  0.12302889747E+02  0.00000000000E+00 0.  1.
        -13    1    3    3    0    0  0.53870341860E+03  0.46258666945E+03 -0.49785249855E+03  0.86720522962E+03  0.00000000000E+00 0. -1.
          2    1    6    6  502    0 -0.32138336807E+03 -0.10717002753E+03 -0.19244910180E+03  0.38962718188E+03  0.00000000000E+00 0. -1.
          3    1    5    5  503    0  0.12359618857E+02 -0.16961262267E+02  0.57826282895E+02  0.61516856141E+02  0.00000000000E+00 0. -1.
         -4    1    5    5    0  503  0.20754282085E+02 -0.24831738325E+03  0.22902961290E+03  0.33844767193E+03  0.00000000000E+00 0.  1.
         -1    1    6    6    0  502 -0.26109046568E+03 -0.95773595876E+02 -0.24355491731E+03  0.36967527735E+03  0.00000000000E+00 0.  1.
<mgrwt>
<rscale>  0 0.19342100E+04</rscale>
<asrwt>0</asrwt>
<pdfrwt beam="1">  1        2 0.20640909E+00 0.19342100E+04</pdfrwt>
<pdfrwt beam="2">  1       -2 0.10724862E+00 0.19342100E+04</pdfrwt>
<totfact> 0.10202083E+01</totfact>
</mgrwt>
</event>
<event>
12    1  0.2083715E-007  0.2005490E+04  0.7818608E-02  0.8604058E-01
         -2   -1    0    0    0  501 -0.00000000000E+00  0.00000000000E+00  0.38170741283E+03  0.38170741283E+03  0.00000000000E+00 0.  1.
          2   -1    0    0  501    0  0.00000000000E+00 -0.00000000000E+00 -0.26342095625E+04  0.26342095625E+04  0.00000000000E+00 0. -1.
         23    2    1    2    0    0 -0.52976229325E+03 -0.30287492278E+03 -0.16724448232E+04  0.17826871119E+04  0.92305719429E+02 0.  0.
        254    2    1    2    0    0  0.52976229325E+03  0.30287492278E+03 -0.58005732643E+03  0.12332298635E+04  0.90111491387E+03 0.  0.
        -24    2    4    4    0    0  0.68163212249E+03 -0.54955471201E+02 -0.39298070652E+03  0.79365371554E+03  0.88373809839E+02 0.  0.
         24    2    4    4    0    0 -0.15186982924E+03  0.35783039399E+03 -0.18707661990E+03  0.43957614792E+03  0.84394858925E+02 0.  0.
         13    1    3    3    0    0 -0.52586006075E+03 -0.30898029513E+03 -0.16538931194E+04  0.17627705683E+04  0.00000000000E+00 0. -1.
        -13    1    3    3    0    0 -0.39022324975E+01  0.61053723496E+01 -0.18551703856E+02  0.19916543525E+02  0.00000000000E+00 0.  1.
          2    1    6    6  502    0 -0.24776095721E+02  0.47872577427E+02  0.37524920552E+01  0.54034431479E+02  0.00000000000E+00 0. -1.
          1    1    5    5  503    0  0.17331072589E+03 -0.40341109118E+01 -0.14390489753E+03  0.22530313200E+03  0.00000000000E+00 0. -1.
         -2    1    5    5    0  503  0.50832139661E+03 -0.50921360289E+02 -0.24907580899E+03  0.56835058354E+03  0.00000000000E+00 0.  1.
         -1    1    6    6    0  502 -0.12709373352E+03  0.30995781656E+03 -0.19082911196E+03  0.38554171644E+03  0.00000000000E+00 0.  1.
<mgrwt>
<rscale>  0 0.20054898E+04</rscale>
<asrwt>0</asrwt>
<pdfrwt beam="1">  1        2 0.40526301E+00 0.20054898E+04</pdfrwt>
<pdfrwt beam="2">  1       -2 0.58724217E-01 0.20054898E+04</pdfrwt>
<totfact> 0.73187279E+00</totfact>
</mgrwt>
</event>
<event>
12    1  0.2083715E-007  0.1550714E+04  0.7818608E-02  0.8851412E-01
         -2   -1    0    0    0  501 -0.00000000000E+00  0.00000000000E+00  0.14776094270E+03  0.14776094270E+03  0.00000000000E+00 0.  1.
          2   -1    0    0  501    0  0.00000000000E+00 -0.00000000000E+00 -0.40685896461E+04  0.40685896461E+04  0.00000000000E+00 0. -1.
         23    2    1    2    0    0  0.28255887815E+03 -0.12389322613E+03 -0.21034675503E+03  0.38570102501E+03  0.96594369570E+02 0.  0.
        254    2    1    2    0    0 -0.28255887815E+03  0.12389322613E+03 -0.37104819483E+04  0.38306495638E+04  0.90056134736E+03 0.  0.
        -24    2    4    4    0    0 -0.57916270097E+03 -0.48828197290E+02 -0.26089442546E+04  0.26740480152E+04  0.78288168098E+02 0.  0.
         24    2    4    4    0    0  0.29660382282E+03  0.17272142342E+03 -0.11015376937E+04  0.11566015485E+04  0.80841409343E+02 0.  0.
         13    1    3    3    0    0  0.12341564041E+03 -0.73354240571E+02 -0.15134311951E+03  0.20860729788E+03  0.00000000000E+00 0. -1.
        -13    1    3    3    0    0  0.15914323774E+03 -0.50538985563E+02 -0.59003635524E+02  0.17709372712E+03  0.00000000000E+00 0.  1.
          2    1    6    6  502    0  0.27188368362E+03  0.16158637854E+03 -0.91535857531E+03  0.96845868086E+03  0.00000000000E+00 0. -1.
          3    1    5    5  503    0 -0.37372576159E+03 -0.65784040409E+02 -0.16203318082E+04  0.16641735647E+04  0.00000000000E+00 0. -1.
         -4    1    5    5    0  503 -0.20543693938E+03  0.16955843119E+02 -0.98861244640E+03  0.10098744505E+04  0.00000000000E+00 0.  1.
         -1    1    6    6    0  502  0.24720139203E+02  0.11135044888E+02 -0.18617911844E+03  0.18814286765E+03  0.00000000000E+00 0.  1.
<mgrwt>
<rscale>  0 0.15507142E+04</rscale>
<asrwt>0</asrwt>
<pdfrwt beam="1">  1        2 0.62593689E+00 0.15507142E+04</pdfrwt>
<pdfrwt beam="2">  1       -2 0.22732452E-01 0.15507142E+04</pdfrwt>
<totfact> 0.50427869E+00</totfact>
</mgrwt>
</event>
<event>
12    1  0.2083715E-007  0.1538351E+04  0.7818608E-02  0.8859343E-01
         -2   -1    0    0    0  501 -0.00000000000E+00  0.00000000000E+00  0.28579787093E+03  0.28579787093E+03  0.00000000000E+00 0.  1.
          2   -1    0    0  501    0  0.00000000000E+00 -0.00000000000E+00 -0.20701025892E+04  0.20701025892E+04  0.00000000000E+00 0. -1.
         23    2    1    2    0    0 -0.21641553387E+03  0.42558460160E+03 -0.82198015639E+03  0.95491395078E+03  0.90836883934E+02 0.  0.
        254    2    1    2    0    0  0.21641553387E+03 -0.42558460160E+03 -0.96232456185E+03  0.14009865093E+04  0.89929789308E+03 0.  0.
        -24    2    4    4    0    0  0.39296472168E+03 -0.50265637377E+03 -0.10006246387E+04  0.11891349904E+04  0.75549025774E+02 0.  0.
         24    2    4    4    0    0 -0.17654918780E+03  0.77071772168E+02  0.38300076845E+02  0.21185151889E+03  0.79400858887E+02 0.  0.
         13    1    3    3    0    0 -0.13497564097E+03  0.19206975091E+03 -0.33972016270E+03  0.41293946507E+03  0.00000000000E+00 0.  1.
        -13    1    3    3    0    0 -0.81439892907E+02  0.23351485070E+03 -0.48225999369E+03  0.54197448572E+03  0.00000000000E+00 0. -1.
          4    1    6    6  502    0 -0.12089728765E+03  0.29484231337E+02 -0.88591422203E+01  0.12475559490E+03  0.00000000000E+00 0. -1.
          3    1    5    5  503    0  0.27806663347E+03 -0.29665391200E+03 -0.63012240353E+03  0.74991922203E+03  0.00000000000E+00 0. -1.
         -2    1    5    5    0  503  0.11489808821E+03 -0.20600246177E+03 -0.37050223517E+03  0.43921576838E+03  0.00000000000E+00 0.  1.
         -3    1    6    6    0  502 -0.55651900155E+02  0.47587540832E+02  0.47159219065E+02  0.87095923993E+02  0.00000000000E+00 0.  1.
<mgrwt>
<rscale>  0 0.15383510E+04</rscale>
<asrwt>0</asrwt>
<pdfrwt beam="1">  1        2 0.31847732E+00 0.15383510E+04</pdfrwt>
<pdfrwt beam="2">  1       -2 0.43968904E-01 0.15383510E+04</pdfrwt>
<totfact> 0.28871445E+01</totfact>
</mgrwt>
</event>
<event>
12    1  0.2083715E-007  0.1711797E+04  0.7818608E-02  0.8754664E-01
          2   -1    0    0  501    0  0.00000000000E+00  0.00000000000E+00  0.13030804878E+04  0.13030804878E+04  0.00000000000E+00 0. -1.
         -2   -1    0    0    0  501 -0.00000000000E+00 -0.00000000000E+00 -0.56217759287E+03  0.56217759287E+03  0.00000000000E+00 0.  1.
         23    2    1    2    0    0  0.82284818654E+02  0.55778710214E+03  0.24875322984E+01  0.57198901444E+03  0.96270463461E+02 0.  0.
        254    2    1    2    0    0 -0.82284818654E+02 -0.55778710214E+03  0.73841536261E+03  0.12932690662E+04  0.89966126245E+03 0.  0.
        -24    2    4    4    0    0 -0.36014415967E+03 -0.49868488365E+03  0.15481340636E+03  0.63927948346E+03  0.79502441804E+02 0.  0.
         24    2    4    4    0    0  0.27785934102E+03 -0.59102218487E+02  0.58360195625E+03  0.65398958274E+03  0.80076497032E+02 0.  0.
         13    1    3    3    0    0  0.13912772135E+02  0.32863408589E+03  0.34446849677E+02  0.33072724878E+03  0.00000000000E+00 0. -1.
        -13    1    3    3    0    0  0.68372046519E+02  0.22915301625E+03 -0.31959317378E+02  0.24126176566E+03  0.00000000000E+00 0.  1.
          2    1    6    6  502    0  0.10723945239E+02 -0.81962746771E+01  0.84853096476E+02  0.85919903990E+02  0.00000000000E+00 0. -1.
          3    1    5    5  503    0 -0.19355189266E+02 -0.78815062661E+01  0.14714870915E+02  0.25559125935E+02  0.00000000000E+00 0. -1.
         -4    1    5    5    0  503 -0.34078897041E+03 -0.49080337738E+03  0.14009853545E+03  0.61372035752E+03  0.00000000000E+00 0.  1.
         -1    1    6    6    0  502  0.26713539578E+03 -0.50905943810E+02  0.49874885977E+03  0.56806967875E+03  0.00000000000E+00 0.  1.
<mgrwt>
<rscale>  0 0.17117975E+04</rscale>
<asrwt>0</asrwt>
<pdfrwt beam="1">  1        2 0.20047392E+00 0.17117975E+04</pdfrwt>
<pdfrwt beam="2">  1       -2 0.86488861E-01 0.17117975E+04</pdfrwt>
<totfact> 0.18126698E+01</totfact>
</mgrwt>
</event>
<event>
12    1  0.2083715E-007  0.4502416E+04  0.7818608E-02  0.7910214E-01
         -2   -1    0    0    0  501 -0.00000000000E+00  0.00000000000E+00  0.19017581573E+04  0.19017581573E+04  0.00000000000E+00 0.  1.
          2   -1    0    0  501    0  0.00000000000E+00 -0.00000000000E+00 -0.26648690342E+04  0.26648690342E+04  0.00000000000E+00 0. -1.
         23    2    1    2    0    0 -0.16431911765E+04 -0.10679032317E+04  0.55599375092E+03  0.20391016836E+04  0.91170557199E+02 0.  0.
        254    2    1    2    0    0  0.16431911765E+04  0.10679032317E+04 -0.13191046278E+04  0.25275255078E+04  0.89880677498E+03 0.  0.
        -24    2    4    4    0    0  0.11293968080E+04  0.38512822290E+03 -0.37808620720E+03  0.12540029878E+04  0.75587137690E+02 0.  0.
         24    2    4    4    0    0  0.51379436845E+03  0.68277500879E+03 -0.94101842062E+03  0.12735225200E+04  0.78597552324E+02 0.  0.
         13    1    3    3    0    0 -0.14631014488E+04 -0.93741442943E+03  0.46480360412E+03  0.17987367936E+04  0.00000000000E+00 0. -1.
        -13    1    3    3    0    0 -0.18008972765E+03 -0.13048880225E+03  0.91190146800E+02  0.24036489009E+03  0.00000000000E+00 0.  1.
          2    1    6    6  502    0  0.22089170081E+02  0.11808035309E+02 -0.17241765991E+02  0.30407887582E+02  0.00000000000E+00 0. -1.
          1    1    5    5  503    0  0.71690710320E+03  0.28185324004E+03 -0.25150847066E+03  0.81034162818E+03  0.00000000000E+00 0. -1.
         -2    1    5    5    0  503  0.41248970482E+03  0.10327498286E+03 -0.12657773654E+03  0.44366135966E+03  0.00000000000E+00 0.  1.
         -1    1    6    6    0  502  0.49170519837E+03  0.67096697348E+03 -0.92377665463E+03  0.12431146324E+04  0.00000000000E+00 0.  1.
<mgrwt>
<rscale>  0 0.45024155E+04</rscale>
<asrwt>0</asrwt>
<pdfrwt beam="1">  1        2 0.40997985E+00 0.45024155E+04</pdfrwt>
<pdfrwt beam="2">  1       -2 0.29257818E+00 0.45024155E+04</pdfrwt>
<totfact> 0.74477254E-02</totfact>
</mgrwt>
</event>
<event>
12    1  0.2083715E-007  0.1558833E+04  0.7818608E-02  0.8846246E-01
          2   -1    0    0  501    0  0.00000000000E+00  0.00000000000E+00  0.22903916790E+04  0.22903916790E+04  0.00000000000E+00 0.  1.
         -2   -1    0    0    0  501 -0.00000000000E+00 -0.00000000000E+00 -0.26523403196E+03  0.26523403196E+03  0.00000000000E+00 0. -1.
         23    2    1    2    0    0  0.17392017217E+02  0.49160373803E+03  0.43916475999E+03  0.66678859384E+03  0.98816116832E+02 0.  0.
        254    2    1    2    0    0 -0.17392017217E+02 -0.49160373803E+03  0.15859928871E+04  0.18888371171E+04  0.90019747821E+03 0.  0.
        -24    2    4    4    0    0  0.29966234126E+02 -0.36325860685E+03  0.16690001669E+04  0.17102047310E+04  0.79899150162E+02 0.  0.
         24    2    4    4    0    0 -0.47358251343E+02 -0.12834513118E+03 -0.83007279874E+02  0.17863238610E+03  0.79398011208E+02 0.  0.
         13    1    3    3    0    0  0.56432422043E+02  0.34821184060E+03  0.29713656832E+03  0.46122255412E+03  0.00000000000E+00 0. -1.
        -13    1    3    3    0    0 -0.39040404826E+02  0.14339189742E+03  0.14202819167E+03  0.20556603972E+03  0.00000000000E+00 0.  1.
          4    1    6    6  502    0  0.44869249784E+01 -0.65661798091E+02 -0.51243355908E+01  0.66014112427E+02  0.00000000000E+00 0. -1.
          3    1    5    5  503    0  0.47380729391E+02 -0.12148386484E+03  0.54896350618E+03  0.56423771059E+03  0.00000000000E+00 0. -1.
         -4    1    5    5    0  503 -0.17414495265E+02 -0.24177474201E+03  0.11200366608E+04  0.11459670205E+04  0.00000000000E+00 0.  1.
         -3    1    6    6    0  502 -0.51845176322E+02 -0.62683333091E+02 -0.77882944283E+02  0.11261827367E+03  0.00000000000E+00 0.  1.
<mgrwt>
<rscale>  0 0.15588327E+04</rscale>
<asrwt>0</asrwt>
<pdfrwt beam="1">  1        2 0.35236794E+00 0.15588327E+04</pdfrwt>
<pdfrwt beam="2">  1       -2 0.40805237E-01 0.15588327E+04</pdfrwt>
<totfact> 0.25147217E+01</totfact>
</mgrwt>
</event>
<event>
12    1  0.2083715E-007  0.2120674E+04  0.7818608E-02  0.8552190E-01
          1   -1    0    0  501    0  0.00000000000E+00  0.00000000000E+00  0.11059938590E+04  0.11059938590E+04  0.00000000000E+00 0. -1.
         -1   -1    0    0    0  501 -0.00000000000E+00 -0.00000000000E+00 -0.10165653458E+04  0.10165653458E+04  0.00000000000E+00 0.  1.
         23    2    1    2    0    0 -0.71572632310E+03  0.12031896699E+03  0.51096878574E+03  0.89226856957E+03  0.91177172881E+02 0.  0.
        254    2    1    2    0    0  0.71572632310E+03 -0.12031896699E+03 -0.42154027255E+03  0.12302906352E+04  0.89954322977E+03 0.  0.
        -24    2    4    4    0    0  0.86878339497E+03 -0.24678662418E+03 -0.21420334062E+03  0.93159479850E+03  0.79357244227E+02 0.  0.
         24    2    4    4    0    0 -0.15305707187E+03  0.12646765719E+03 -0.20733693192E+03  0.29869583667E+03  0.82523111563E+02 0.  0.
         11    1    3    3    0    0 -0.20074632165E+03  0.10063661947E+02  0.18313827862E+03  0.27191909099E+03  0.00000000000E+00 0. -1.
        -11    1    3    3    0    0 -0.51498000145E+03  0.11025530504E+03  0.32783050712E+03  0.62034947858E+03  0.00000000000E+00 0.  1.
          2    1    6    6  502    0  0.80196781874E+01  0.20220830196E+02 -0.25994123630E+02  0.33895304621E+02  0.00000000000E+00 0. -1.
          3    1    5    5  503    0  0.46704808880E+02 -0.21355163090E+01  0.28700030359E+01  0.46841610986E+02  0.00000000000E+00 0. -1.
         -4    1    5    5    0  503  0.82207858609E+03 -0.24465110787E+03 -0.21707334366E+03  0.88475318752E+03  0.00000000000E+00 0.  1.
         -1    1    6    6    0  502 -0.16107675006E+03  0.10624682699E+03 -0.18134280829E+03  0.26480053205E+03  0.00000000000E+00 0.  1.
<mgrwt>
<rscale>  0 0.21206744E+04</rscale>
<asrwt>0</asrwt>
<pdfrwt beam="1">  1        1 0.17015290E+00 0.21206744E+04</pdfrwt>
<pdfrwt beam="2">  1       -1 0.15639467E+00 0.21206744E+04</pdfrwt>
<totfact> 0.35866664E+00</totfact>
</mgrwt>
</event>
<event>
12    1  0.2083715E-007  0.1867522E+04  0.7818608E-02  0.8671194E-01
         -2   -1    0    0    0  501 -0.00000000000E+00  0.00000000000E+00  0.22341974652E+03  0.22341974652E+03  0.00000000000E+00 0.  1.
          2   -1    0    0  501    0  0.00000000000E+00 -0.00000000000E+00 -0.39025612741E+04  0.39025612741E+04  0.00000000000E+00 0. -1.
         23    2    1    2    0    0 -0.63621587603E+03  0.29995782595E+03 -0.16848208002E+04  0.18280069791E+04  0.90791237635E+02 0.  0.
        254    2    1    2    0    0  0.63621587603E+03 -0.29995782595E+03 -0.19943207274E+04  0.22979740415E+04  0.89923533809E+03 0.  0.
        -24    2    4    4    0    0  0.76104190721E+03  0.16441394473E+02 -0.15793859934E+04  0.17553232597E+04  0.85114780308E+02 0.  0.
         24    2    4    4    0    0 -0.12482603117E+03 -0.31639922042E+03 -0.41493473400E+03  0.54265078179E+03  0.81295957839E+02 0.  0.
         13    1    3    3    0    0 -0.34775846551E+03  0.17320240274E+03 -0.81456657655E+03  0.90247090274E+03  0.00000000000E+00 0. -1.
        -13    1    3    3    0    0 -0.28845741052E+03  0.12675542320E+03 -0.87025422361E+03  0.92553607640E+03  0.00000000000E+00 0.  1.
          4    1    6    6  502    0 -0.19427449301E+02 -0.70468243240E+02 -0.14605749662E+03  0.16332786477E+03  0.00000000000E+00 0. -1.
          1    1    5    5  503    0  0.45693037227E+03  0.30374509511E+02 -0.86401801035E+03  0.97787274128E+03  0.00000000000E+00 0. -1.
         -2    1    5    5    0  503  0.30411153494E+03 -0.13933115038E+02 -0.71536798308E+03  0.77745051842E+03  0.00000000000E+00 0.  1.
         -3    1    6    6    0  502 -0.10539858187E+03 -0.24593097718E+03 -0.26887723738E+03  0.37932291702E+03  0.00000000000E+00 0.  1.
<mgrwt>
<rscale>  0 0.18675216E+04</rscale>
<asrwt>0</asrwt>
<pdfrwt beam="1">  1        2 0.60039403E+00 0.18675216E+04</pdfrwt>
<pdfrwt beam="2">  1       -2 0.34372270E-01 0.18675216E+04</pdfrwt>
<totfact> 0.30832608E+00</totfact>
</mgrwt>
</event>
<event>
12    1  0.2083715E-007  0.2398803E+04  0.7818608E-02  0.8439952E-01
         -1   -1    0    0    0  501 -0.00000000000E+00  0.00000000000E+00  0.69147341427E+03  0.69147341427E+03  0.00000000000E+00 0.  1.
          1   -1    0    0  501    0  0.00000000000E+00 -0.00000000000E+00 -0.20804330004E+04  0.20804330004E+04  0.00000000000E+00 0. -1.
         23    2    1    2    0    0  0.79895903119E+03 -0.27869919078E+03  0.77674912084E+02  0.85457528463E+03  0.90866675228E+02 0.  0.
        254    2    1    2    0    0 -0.79895903119E+03  0.27869919078E+03 -0.14666344982E+04  0.19173311300E+04  0.89951828129E+03 0.  0.
        -24    2    4    4    0    0 -0.83722694871E+03  0.43739656333E+02 -0.14377327212E+04  0.16662276228E+04  0.79856071418E+02 0.  0.
         24    2    4    4    0    0  0.38267917522E+02  0.23495953445E+03 -0.28901776947E+02  0.25110350719E+03  0.74479811179E+02 0.  0.
         13    1    3    3    0    0  0.70765673786E+03 -0.22343222393E+03  0.47238390938E+02  0.74359362753E+03  0.00000000000E+00 0. -1.
        -13    1    3    3    0    0  0.91302293336E+02 -0.55266966851E+02  0.30436521146E+02  0.11098165710E+03  0.00000000000E+00 0.  1.
          2    1    6    6  502    0 -0.14245374110E+02  0.42987657205E+02  0.14208743604E+02  0.47463225241E+02  0.00000000000E+00 0. -1.
          3    1    5    5  503    0 -0.66116904877E+03  0.59873718767E+02 -0.11743512222E+04  0.13490108103E+04  0.00000000000E+00 0. -1.
         -4    1    5    5    0  503 -0.17605789995E+03 -0.16134062435E+02 -0.26338149902E+03  0.31721681250E+03  0.00000000000E+00 0.  1.
         -1    1    6    6    0  502  0.52513291632E+02  0.19197187724E+03 -0.43110520551E+02  0.20364028195E+03  0.00000000000E+00 0.  1.
<mgrwt>
<rscale>  0 0.23988031E+04</rscale>
<asrwt>0</asrwt>
<pdfrwt beam="1">  1        1 0.32006661E+00 0.23988031E+04</pdfrwt>
<pdfrwt beam="2">  1       -1 0.10638053E+00 0.23988031E+04</pdfrwt>
<totfact> 0.19442329E+00</totfact>
</mgrwt>
</event>
<event>
12    1  0.2083715E-007  0.2454511E+04  0.7818608E-02  0.8419373E-01
          2   -1    0    0  501    0  0.00000000000E+00  0.00000000000E+00  0.15566706622E+04  0.15566706622E+04  0.00000000000E+00 0. -1.
         -2   -1    0    0    0  501 -0.00000000000E+00 -0.00000000000E+00 -0.96754945018E+03  0.96754945018E+03  0.00000000000E+00 0.  1.
         23    2    1    2    0    0 -0.54868225264E+02  0.87028586261E+03 -0.37384173634E+03  0.95315843043E+03  0.91352859128E+02 0.  0.
        254    2    1    2    0    0  0.54868225264E+02 -0.87028586261E+03  0.96296294837E+03  0.15710616820E+04  0.88347561584E+03 0.  0.
        -24    2    4    4    0    0  0.44562995315E+03 -0.62890423675E+03  0.59704866415E+03  0.97822115022E+03  0.79642433519E+02 0.  0.
         24    2    4    4    0    0 -0.39076172789E+03 -0.24138162586E+03  0.36591428422E+03  0.59284053174E+03  0.81282319054E+02 0.  0.
         13    1    3    3    0    0  0.80402004963E+01  0.55827706586E+03 -0.24693308325E+03  0.61050296862E+03  0.00000000000E+00 0. -1.
        -13    1    3    3    0    0 -0.62908425760E+02  0.31200879675E+03 -0.12690865309E+03  0.34265546181E+03  0.00000000000E+00 0.  1.
          2    1    6    6  502    0 -0.37310212858E+02  0.18918444011E+01  0.29765013209E+02  0.47765961417E+02  0.00000000000E+00 0. -1.
          1    1    5    5  503    0  0.78633000867E+02 -0.69823388060E+02  0.98310284099E+02  0.14395612632E+03  0.00000000000E+00 0. -1.
         -2    1    5    5    0  503  0.36699695229E+03 -0.55908084869E+03  0.49873838005E+03  0.83426502390E+03  0.00000000000E+00 0.  1.
         -1    1    6    6    0  502 -0.35345151503E+03 -0.24327347026E+03  0.33614927101E+03  0.54507457033E+03  0.00000000000E+00 0.  1.
<mgrwt>
<rscale>  0 0.24545108E+04</rscale>
<asrwt>0</asrwt>
<pdfrwt beam="1">  1        2 0.23948779E+00 0.24545108E+04</pdfrwt>
<pdfrwt beam="2">  1       -2 0.14885376E+00 0.24545108E+04</pdfrwt>
<totfact> 0.32289202E+00</totfact>
</mgrwt>
</event>
<event>
12    1  0.2197679E-007  0.3096922E+04  0.7818608E-02  0.8216583E-01
          2   -1    0    0  501    0  0.00000000000E+00  0.00000000000E+00  0.18648221358E+04  0.18648221358E+04  0.00000000000E+00 0. -1.
         -2   -1    0    0    0  501 -0.00000000000E+00 -0.00000000000E+00 -0.12857691818E+04  0.12857691818E+04  0.00000000000E+00 0.  1.
         23    2    1    2    0    0  0.10095757466E+04 -0.70554504366E+03  0.97589156198E+03  0.15740711931E+04  0.91097659097E+02 0.  0.
        254    2    1    2    0    0 -0.10095757466E+04  0.70554504366E+03 -0.39683860795E+03  0.15765201245E+04  0.90049865366E+03 0.  0.
        -24    2    4    4    0    0 -0.82030668684E+03  0.91437128609E+03 -0.35462471203E+03  0.12810844511E+04  0.80254440767E+02 0.  0.
         24    2    4    4    0    0 -0.18926905981E+03 -0.20882624242E+03 -0.42213895923E+02  0.29543567334E+03  0.77904091970E+02 0.  0.
         13    1    3    3    0    0  0.52463474774E+03 -0.32282530160E+03  0.52295007633E+03  0.80804367223E+03  0.00000000000E+00 0. -1.
        -13    1    3    3    0    0  0.48494099890E+03 -0.38271974206E+03  0.45294148565E+03  0.76602752092E+03  0.00000000000E+00 0.  1.
          4    1    6    6  502    0 -0.12361781371E+03 -0.12162491547E+03 -0.62647855893E+02  0.18438746643E+03  0.00000000000E+00 0. -1.
          3    1    5    5  503    0 -0.48611276589E+03  0.57940629019E+03 -0.18689399310E+03  0.77906779867E+03  0.00000000000E+00 0. -1.
         -2    1    5    5    0  503 -0.33419392094E+03  0.33496499590E+03 -0.16773071893E+03  0.50201665246E+03  0.00000000000E+00 0.  1.
         -3    1    6    6    0  502 -0.65651246101E+02 -0.87201326949E+02  0.20433959970E+02  0.11104820690E+03  0.00000000000E+00 0.  1.
<mgrwt>
<rscale>  0 0.30969216E+04</rscale>
<asrwt>0</asrwt>
<pdfrwt beam="1">  1        2 0.28689571E+00 0.30969216E+04</pdfrwt>
<pdfrwt beam="2">  1       -2 0.19781064E+00 0.30969216E+04</pdfrwt>
<totfact> 0.92750386E-01</totfact>
</mgrwt>
</event>
<event>
12    1  0.2083715E-007  0.1497085E+04  0.7818608E-02  0.8886393E-01
          2   -1    0    0  501    0  0.00000000000E+00  0.00000000000E+00  0.22759130944E+04  0.22759130944E+04  0.00000000000E+00 0. -1.
         -2   -1    0    0    0  501 -0.00000000000E+00 -0.00000000000E+00 -0.24619402542E+03  0.24619402542E+03  0.00000000000E+00 0.  1.
         23    2    1    2    0    0  0.25608109563E+03  0.20722867151E+03  0.82477942606E+02  0.35181800389E+03  0.91935015164E+02 0.  0.
        254    2    1    2    0    0 -0.25608109563E+03 -0.20722867151E+03  0.19472411264E+04  0.21702891159E+04  0.89993643812E+03 0.  0.
        -24    2    4    4    0    0 -0.43926206325E+03  0.75715875052E+02  0.46836638005E+03  0.65135760884E+03  0.78839169808E+02 0.  0.
         24    2    4    4    0    0  0.18318096762E+03 -0.28294454656E+03  0.14788747463E+04  0.15189315071E+04  0.80433354860E+02 0.  0.
         11    1    3    3    0    0  0.78454493801E+02  0.18040097140E+02  0.35989852457E+02  0.88180622488E+02  0.00000000000E+00 0. -1.
        -11    1    3    3    0    0  0.17762660182E+03  0.18918857437E+03  0.46488090149E+02  0.26363738140E+03  0.00000000000E+00 0.  1.
          4    1    6    6  502    0  0.17309214764E+03 -0.24705657327E+03  0.13934278084E+04  0.14257064562E+04  0.00000000000E+00 0. -1.
          3    1    5    5  503    0 -0.37470541644E+03  0.58003076203E+02  0.35341458451E+03  0.51833423050E+03  0.00000000000E+00 0. -1.
         -4    1    5    5    0  503 -0.64556646808E+02  0.17712798849E+02  0.11495179553E+03  0.13302337835E+03  0.00000000000E+00 0.  1.
         -3    1    6    6    0  502  0.10088819983E+02 -0.35887973295E+02  0.85446937920E+02  0.93225050903E+02  0.00000000000E+00 0.  1.
<mgrwt>
<rscale>  0 0.14970854E+04</rscale>
<asrwt>0</asrwt>
<pdfrwt beam="1">  1        2 0.35014046E+00 0.14970854E+04</pdfrwt>
<pdfrwt beam="2">  1       -2 0.37876005E-01 0.14970854E+04</pdfrwt>
<totfact> 0.29787133E+01</totfact>
</mgrwt>
</event>
<event>
12    1  0.2083715E-007  0.1467684E+04  0.7818608E-02  0.8906231E-01
          2   -1    0    0  501    0  0.00000000000E+00  0.00000000000E+00  0.11499916639E+04  0.11499916639E+04  0.00000000000E+00 0. -1.
         -2   -1    0    0    0  501 -0.00000000000E+00 -0.00000000000E+00 -0.46828551973E+03  0.46828551973E+03  0.00000000000E+00 0.  1.
         23    2    1    2    0    0  0.20166627763E+03  0.36724817711E+03  0.32352125306E+02  0.42993958815E+03  0.90889374122E+02 0.  0.
        254    2    1    2    0    0 -0.20166627763E+03 -0.36724817711E+03  0.64935401884E+03  0.11883375955E+04  0.90274309074E+03 0.  0.
        -24    2    4    4    0    0  0.92896369118E+02  0.26299795854E+02  0.67796204951E+03  0.68945357897E+03  0.79951749963E+02 0.  0.
         24    2    4    4    0    0 -0.29456264674E+03 -0.39354797296E+03 -0.28608030667E+02  0.49888401649E+03  0.80122921905E+02 0.  0.
         13    1    3    3    0    0  0.18651371446E+03  0.34654694961E+03  0.52874536179E+02  0.39708672924E+03  0.00000000000E+00 0. -1.
        -13    1    3    3    0    0  0.15152563170E+02  0.20701227498E+02 -0.20522410873E+02  0.32852858911E+02  0.00000000000E+00 0.  1.
          4    1    6    6  502    0 -0.14172484786E+03 -0.14283269650E+03 -0.39496943865E+02  0.20505394477E+03  0.00000000000E+00 0. -1.
          1    1    5    5  503    0  0.16044748052E+02 -0.45594260992E+01  0.37516363579E+03  0.37553425400E+03  0.00000000000E+00 0. -1.
         -2    1    5    5    0  503  0.76851621066E+02  0.30859221953E+02  0.30279841371E+03  0.31391932497E+03  0.00000000000E+00 0.  1.
         -3    1    6    6    0  502 -0.15283779888E+03 -0.25071527646E+03  0.10888913198E+02  0.29383007172E+03  0.00000000000E+00 0.  1.
<mgrwt>
<rscale>  0 0.14676845E+04</rscale>
<asrwt>0</asrwt>
<pdfrwt beam="1">  1        2 0.17692179E+00 0.14676845E+04</pdfrwt>
<pdfrwt beam="2">  1       -2 0.72043926E-01 0.14676845E+04</pdfrwt>
<totfact> 0.34321130E+01</totfact>
</mgrwt>
</event>
<event>
12    1  0.2083715E-007  0.1229625E+04  0.7818608E-02  0.9087314E-01
          1   -1    0    0  501    0  0.00000000000E+00  0.00000000000E+00  0.64575571045E+03  0.64575571045E+03  0.00000000000E+00 0. -1.
         -1   -1    0    0    0  501 -0.00000000000E+00 -0.00000000000E+00 -0.58535227283E+03  0.58535227283E+03  0.00000000000E+00 0.  1.
         23    2    1    2    0    0 -0.24591451916E+03  0.62000690465E+02 -0.91140596680E+02  0.28432190400E+03  0.90632777621E+02 0.  0.
        254    2    1    2    0    0  0.24591451916E+03 -0.62000690465E+02  0.15154403430E+03  0.94678607928E+03  0.89951111679E+03 0.  0.
        -24    2    4    4    0    0 -0.29344322050E+03 -0.15522698644E+03 -0.75024543291E+02  0.34928151001E+03  0.78514649336E+02 0.  0.
         24    2    4    4    0    0  0.53935773966E+03  0.93226295975E+02  0.22656857759E+03  0.59750456927E+03  0.77977409293E+02 0.  0.
         11    1    3    3    0    0 -0.13496604682E+03  0.64275801437E+02 -0.16087794062E+02  0.15035301648E+03  0.00000000000E+00 0. -1.
        -11    1    3    3    0    0 -0.11094847234E+03 -0.22751109723E+01 -0.75052802618E+02  0.13396888752E+03  0.00000000000E+00 0.  1.
          2    1    6    6  502    0  0.20545699634E+03  0.39001894549E+02  0.12788498917E+03  0.24512914062E+03  0.00000000000E+00 0. -1.
          3    1    5    5  503    0 -0.76635165830E+02 -0.44266924763E+02 -0.56557480248E+02  0.10502979502E+03  0.00000000000E+00 0. -1.
         -4    1    5    5    0  503 -0.21680805467E+03 -0.11096006168E+03 -0.18467063043E+02  0.24425171499E+03  0.00000000000E+00 0.  1.
         -1    1    6    6    0  502  0.33390074332E+03  0.54224401426E+02  0.98683588419E+02  0.35237542866E+03  0.00000000000E+00 0.  1.
<mgrwt>
<rscale>  0 0.12296253E+04</rscale>
<asrwt>0</asrwt>
<pdfrwt beam="1">  1        1 0.99347033E-01 0.12296253E+04</pdfrwt>
<pdfrwt beam="2">  1       -1 0.90054196E-01 0.12296253E+04</pdfrwt>
<totfact> 0.36660319E+01</totfact>
</mgrwt>
</event>
<event>
12    1  0.2083715E-007  0.2273893E+04  0.7818608E-02  0.8488286E-01
          2   -1    0    0  501    0  0.00000000000E+00  0.00000000000E+00  0.16354826676E+04  0.16354826676E+04  0.00000000000E+00 0. -1.
         -2   -1    0    0    0  501 -0.00000000000E+00 -0.00000000000E+00 -0.79037701621E+03  0.79037701621E+03  0.00000000000E+00 0.  1.
         23    2    1    2    0    0  0.91264364476E+03  0.27651313256E+03  0.40786074903E+03  0.10436047765E+04  0.11568320610E+03 0.  0.
        254    2    1    2    0    0 -0.91264364476E+03 -0.27651313256E+03  0.43724490236E+03  0.13822549073E+04  0.90003754884E+03 0.  0.
        -24    2    4    4    0    0 -0.10007827979E+04 -0.67612947409E+02  0.51390514545E+03  0.11298855373E+04  0.80031929103E+02 0.  0.
         24    2    4    4    0    0  0.88139153169E+02 -0.20890018515E+03 -0.76660243093E+02  0.25236936996E+03  0.80035669231E+02 0.  0.
         13    1    3    3    0    0  0.23754928990E+03  0.10812285268E+03  0.15349091789E+03  0.30278652261E+03  0.00000000000E+00 0. -1.
        -13    1    3    3    0    0  0.67509435486E+03  0.16839027988E+03  0.25436983115E+03  0.74081825390E+03  0.00000000000E+00 0.  1.
          2    1    6    6  502    0  0.30102890313E+02 -0.56897098425E+02  0.14335620048E+02  0.65946749855E+02  0.00000000000E+00 0. -1.
          3    1    5    5  503    0 -0.25740735653E+01 -0.38677842582E+01 -0.12021499424E+01  0.47990388904E+01  0.00000000000E+00 0. -1.
         -4    1    5    5    0  503 -0.99820872436E+03 -0.63745163151E+02  0.51510729539E+03  0.11250864984E+04  0.00000000000E+00 0.  1.
         -1    1    6    6    0  502  0.58036262856E+02 -0.15200308672E+03 -0.90995863141E+02  0.18642262011E+03  0.00000000000E+00 0.  1.
<mgrwt>
<rscale>  0 0.22738935E+04</rscale>
<asrwt>0</asrwt>
<pdfrwt beam="1">  1        2 0.25161272E+00 0.22738935E+04</pdfrwt>
<pdfrwt beam="2">  1       -2 0.12159646E+00 0.22738935E+04</pdfrwt>
<totfact> 0.49739916E+00</totfact>
</mgrwt>
</event>
<event>
12    1  0.2083715E-007  0.2748191E+04  0.7818608E-02  0.8319536E-01
          2   -1    0    0  501    0  0.00000000000E+00  0.00000000000E+00  0.31824322543E+04  0.31824322543E+04  0.00000000000E+00 0. -1.
         -2   -1    0    0    0  501 -0.00000000000E+00 -0.00000000000E+00 -0.59330052649E+03  0.59330052649E+03  0.00000000000E+00 0.  1.
         23    2    1    2    0    0 -0.21896271528E+02 -0.77351817984E+03  0.24582752130E+04  0.25787806131E+04  0.90457762136E+02 0.  0.
        254    2    1    2    0    0  0.21896271528E+02  0.77351817984E+03  0.13085651479E+03  0.11969521676E+04  0.90374844002E+03 0.  0.
        -24    2    4    4    0    0  0.19442009950E+03  0.44953706195E+03  0.47540370157E+03  0.68751929272E+03  0.82409667159E+02 0.  0.
         24    2    4    4    0    0 -0.17252382797E+03  0.32398111789E+03 -0.34454718677E+03  0.50943287489E+03  0.77979831610E+02 0.  0.
         13    1    3    3    0    0  0.94994117814E+01 -0.15765551913E+03  0.62138413633E+03  0.64114253206E+03  0.00000000000E+00 0.  1.
        -13    1    3    3    0    0 -0.31395683310E+02 -0.61586266070E+03  0.18368910766E+04  0.19376380811E+04  0.00000000000E+00 0. -1.
          4    1    6    6  502    0 -0.16357239709E+03  0.27899405506E+03 -0.26721499453E+03  0.41952051815E+03  0.00000000000E+00 0. -1.
          3    1    5    5  503    0  0.20064347613E+03  0.41724528834E+03  0.45294329116E+03  0.64769519078E+03  0.00000000000E+00 0. -1.
         -4    1    5    5    0  503 -0.62233766267E+01  0.32291773615E+02  0.22460410412E+02  0.39824101945E+02  0.00000000000E+00 0.  1.
         -3    1    6    6    0  502 -0.89514308830E+01  0.44987062821E+02 -0.77332192243E+02  0.89912356733E+02  0.00000000000E+00 0.  1.
<mgrwt>
<rscale>  0 0.27481912E+04</rscale>
<asrwt>0</asrwt>
<pdfrwt beam="1">  1        2 0.48960495E+00 0.27481912E+04</pdfrwt>
<pdfrwt beam="2">  1       -2 0.91277006E-01 0.27481912E+04</pdfrwt>
<totfact> 0.11897868E+00</totfact>
</mgrwt>
</event>
<event>
12    1  0.2083715E-007  0.1207006E+04  0.7818608E-02  0.9106746E-01
          2   -1    0    0  501    0  0.00000000000E+00  0.00000000000E+00  0.20854854904E+03  0.20854854904E+03  0.00000000000E+00 0. -1.
         -2   -1    0    0    0  501 -0.00000000000E+00 -0.00000000000E+00 -0.17464323200E+04  0.17464323200E+04  0.00000000000E+00 0.  1.
         23    2    1    2    0    0 -0.15327072735E+03  0.65527385789E+02 -0.65925950807E+03  0.68668062311E+03  0.95506151778E+02 0.  0.
        254    2    1    2    0    0  0.15327072735E+03 -0.65527385789E+02 -0.87862426294E+03  0.12683002460E+04  0.89934374095E+03 0.  0.
        -24    2    4    4    0    0 -0.32780416808E+03  0.16483584505E+03 -0.35474332379E+03  0.51643990849E+03  0.78999524567E+02 0.  0.
         24    2    4    4    0    0  0.48107489543E+03 -0.23036323083E+03 -0.52388093914E+03  0.75186033749E+03  0.79639535121E+02 0.  0.
         11    1    3    3    0    0  0.11912194427E+02  0.14768498387E+02 -0.54041396555E+02  0.57275487447E+02  0.00000000000E+00 0.  1.
        -11    1    3    3    0    0 -0.16518292177E+03  0.50758887402E+02 -0.60521811151E+03  0.62940513566E+03  0.00000000000E+00 0. -1.
          4    1    6    6  502    0  0.27205587534E+03 -0.17143488330E+03 -0.32948665467E+03  0.46039740890E+03  0.00000000000E+00 0. -1.
          1    1    5    5  503    0 -0.20671657532E+02  0.36395445248E+02 -0.48928466926E+02  0.64388979924E+02  0.00000000000E+00 0. -1.
         -2    1    5    5    0  503 -0.30713251055E+03  0.12844039980E+03 -0.30581485687E+03  0.45205092857E+03  0.00000000000E+00 0.  1.
         -3    1    6    6    0  502  0.20901902009E+03 -0.58928347538E+02 -0.19439428447E+03  0.29146292859E+03  0.00000000000E+00 0.  1.
<mgrwt>
<rscale>  0 0.12070061E+04</rscale>
<asrwt>0</asrwt>
<pdfrwt beam="1">  1        2 0.32084392E-01 0.12070061E+04</pdfrwt>
<pdfrwt beam="2">  1       -2 0.26868189E+00 0.12070061E+04</pdfrwt>
<totfact> 0.80741210E+00</totfact>
</mgrwt>
</event>
<event>
12    1  0.2083715E-007  0.2953764E+04  0.7818608E-02  0.8257059E-01
          1   -1    0    0  501    0  0.00000000000E+00  0.00000000000E+00  0.20791183705E+04  0.20791183705E+04  0.00000000000E+00 0. -1.
         -1   -1    0    0    0  501 -0.00000000000E+00 -0.00000000000E+00 -0.10490888715E+04  0.10490888715E+04  0.00000000000E+00 0.  1.
         23    2    1    2    0    0 -0.35497295182E+03 -0.73935642599E+03  0.15871231628E+04  0.17879713567E+04  0.72304337647E+02 0.  0.
        254    2    1    2    0    0  0.35497295182E+03  0.73935642599E+03 -0.55709366381E+03  0.13402358854E+04  0.90178997386E+03 0.  0.
        -24    2    4    4    0    0  0.25685249971E+03  0.42213259017E+03  0.17674055145E+03  0.53081621049E+03  0.79746451304E+02 0.  0.
         24    2    4    4    0    0  0.98120452107E+02  0.31722383582E+03 -0.73383421527E+03  0.80941967487E+03  0.79931029204E+02 0.  0.
         11    1    3    3    0    0 -0.33226394068E+03 -0.64003442514E+03  0.14063716066E+04  0.15804823591E+04  0.00000000000E+00 0.  1.
        -11    1    3    3    0    0 -0.22709011136E+02 -0.99322000849E+02  0.18075155614E+03  0.20748899751E+03  0.00000000000E+00 0. -1.
          2    1    6    6  502    0  0.60639500815E+02  0.79724523673E+02 -0.24388500478E+03  0.26365326528E+03  0.00000000000E+00 0. -1.
          3    1    5    5  503    0  0.14932571747E+03  0.28332481382E+03  0.14833023351E+03  0.35294897393E+03  0.00000000000E+00 0. -1.
         -4    1    5    5    0  503  0.10752678225E+03  0.13880777635E+03  0.28410317940E+02  0.17786723656E+03  0.00000000000E+00 0.  1.
         -1    1    6    6    0  502  0.37480951292E+02  0.23749931215E+03 -0.48994921048E+03  0.54576640959E+03  0.00000000000E+00 0.  1.
<mgrwt>
<rscale>  0 0.29537637E+04</rscale>
<asrwt>0</asrwt>
<pdfrwt beam="1">  1        1 0.31986436E+00 0.29537637E+04</pdfrwt>
<pdfrwt beam="2">  1       -1 0.16139829E+00 0.29537637E+04</pdfrwt>
<totfact> 0.64160829E-01</totfact>
</mgrwt>
</event>
<event>
12    1  0.2083715E-007  0.2752254E+04  0.7818608E-02  0.8318247E-01
          2   -1    0    0  501    0  0.00000000000E+00  0.00000000000E+00  0.18640837793E+04  0.18640837793E+04  0.00000000000E+00 0.  1.
         -2   -1    0    0    0  501 -0.00000000000E+00 -0.00000000000E+00 -0.10159012189E+04  0.10159012189E+04  0.00000000000E+00 0. -1.
         23    2    1    2    0    0 -0.72127862142E+03  0.85218900787E+03 -0.15502712020E+03  0.11307232394E+04  0.89625226676E+02 0.  0.
        254    2    1    2    0    0  0.72127862142E+03 -0.85218900787E+03  0.10032096806E+04  0.17492617588E+04  0.89834185174E+03 0.  0.
        -24    2    4    4    0    0  0.24739446691E+02 -0.51732038022E+03  0.78252759263E+03  0.94169564074E+03  0.78796132761E+02 0.  0.
         24    2    4    4    0    0  0.69653917473E+03 -0.33486862765E+03  0.22068208801E+03  0.80756611806E+03  0.78476947875E+02 0.  0.
         13    1    3    3    0    0 -0.40991022133E+03  0.46850157807E+03 -0.42627923847E+02  0.62396895603E+03  0.00000000000E+00 0.  1.
        -13    1    3    3    0    0 -0.31136840009E+03  0.38368742980E+03 -0.11239919636E+03  0.50675428336E+03  0.00000000000E+00 0. -1.
          4    1    6    6  502    0  0.26031815636E+03 -0.12111556558E+03  0.43013076334E+02  0.29031818319E+03  0.00000000000E+00 0. -1.
          1    1    5    5  503    0  0.25151475640E+02 -0.17953151756E+03  0.33611884159E+03  0.38189008654E+03  0.00000000000E+00 0. -1.
         -2    1    5    5    0  503 -0.41202894942E+00 -0.33778886265E+03  0.44640875104E+03  0.55980555420E+03  0.00000000000E+00 0.  1.
         -3    1    6    6    0  502  0.43622101838E+03 -0.21375306207E+03  0.17766901168E+03  0.51724793487E+03  0.00000000000E+00 0.  1.
<mgrwt>
<rscale>  0 0.27522536E+04</rscale>
<asrwt>0</asrwt>
<pdfrwt beam="1">  1        2 0.28678212E+00 0.27522536E+04</pdfrwt>
<pdfrwt beam="2">  1       -2 0.15629250E+00 0.27522536E+04</pdfrwt>
<totfact> 0.18645611E+00</totfact>
</mgrwt>
</event>
<event>
12    1  0.2589742E-007  0.2727164E+04  0.7818608E-02  0.8326245E-01
          1   -1    0    0  501    0  0.00000000000E+00  0.00000000000E+00  0.10798760721E+04  0.10798760721E+04  0.00000000000E+00 0. -1.
         -1   -1    0    0    0  501 -0.00000000000E+00 -0.00000000000E+00 -0.17218239909E+04  0.17218239909E+04  0.00000000000E+00 0.  1.
         23    2    1    2    0    0  0.41360574697E+03  0.67232776319E+03  0.66020230290E+03  0.10329560106E+04  0.89647665874E+02 0.  0.
        254    2    1    2    0    0 -0.41360574697E+03 -0.67232776319E+03 -0.13021502217E+04  0.17687440524E+04  0.89986998382E+03 0.  0.
        -24    2    4    4    0    0 -0.47412337513E+03 -0.58619708520E+03 -0.39995299346E+03  0.85712680335E+03  0.79271448202E+02 0.  0.
         24    2    4    4    0    0  0.60517628163E+02 -0.86130677986E+02 -0.90219722826E+03  0.91161724901E+03  0.77493825629E+02 0.  0.
         11    1    3    3    0    0  0.18384745521E+03  0.34833528276E+03  0.37626911280E+03  0.54471625756E+03  0.00000000000E+00 0. -1.
        -11    1    3    3    0    0  0.22975829176E+03  0.32399248043E+03  0.28393319010E+03  0.48823975304E+03  0.00000000000E+00 0.  1.
          2    1    6    6  502    0  0.76994065132E+02 -0.70599009233E+02 -0.64270801068E+03  0.65114199155E+03  0.00000000000E+00 0. -1.
          1    1    5    5  503    0 -0.41904584757E+03 -0.47782481338E+03 -0.35142276167E+03  0.72623269829E+03  0.00000000000E+00 0. -1.
         -2    1    5    5    0  503 -0.55077527568E+02 -0.10837227182E+03 -0.48530231789E+02  0.13089410506E+03  0.00000000000E+00 0.  1.
         -3    1    6    6    0  502 -0.16476436969E+02 -0.15531668753E+02 -0.25948921757E+03  0.26047525746E+03  0.00000000000E+00 0.  1.
<mgrwt>
<rscale>  0 0.27271645E+04</rscale>
<asrwt>0</asrwt>
<pdfrwt beam="1">  1        1 0.16613478E+00 0.27271645E+04</pdfrwt>
<pdfrwt beam="2">  1       -1 0.26489600E+00 0.27271645E+04</pdfrwt>
<totfact> 0.63785856E-01</totfact>
</mgrwt>
</event>
<event>
12    1  0.2083715E-007  0.1302121E+04  0.7818608E-02  0.9027885E-01
          2   -1    0    0  501    0  0.00000000000E+00  0.00000000000E+00  0.15028464950E+04  0.15028464950E+04  0.00000000000E+00 0. -1.
         -2   -1    0    0    0  501 -0.00000000000E+00 -0.00000000000E+00 -0.28205112798E+03  0.28205112798E+03  0.00000000000E+00 0.  1.
         23    2    1    2    0    0  0.26218912084E+03 -0.12626271783E+03  0.10656237410E+03  0.32348090122E+03  0.92730495960E+02 0.  0.
        254    2    1    2    0    0 -0.26218912084E+03  0.12626271783E+03  0.11142329929E+04  0.14614167218E+04  0.89974344293E+03 0.  0.
        -24    2    4    4    0    0 -0.21406074061E+03 -0.36968376006E+03  0.60203410125E+03  0.74245977739E+03  0.79456773413E+02 0.  0.
         24    2    4    4    0    0 -0.48128380224E+02  0.49594647789E+03  0.51219889167E+03  0.71895694437E+03  0.79196801129E+02 0.  0.
         13    1    3    3    0    0  0.19852758275E+03 -0.48162633993E+02  0.78902228829E+02  0.21899406873E+03  0.00000000000E+00 0. -1.
        -13    1    3    3    0    0  0.63661538086E+02 -0.78100083834E+02  0.27660145269E+02  0.10448683248E+03  0.00000000000E+00 0.  1.
          2    1    6    6  502    0  0.22228870283E+02  0.12300219888E+03  0.12464490570E+03  0.17652199897E+03  0.00000000000E+00 0. -1.
          3    1    5    5  503    0 -0.86113275320E+02 -0.11801183067E+03  0.14912532183E+03  0.20875979013E+03  0.00000000000E+00 0. -1.
         -4    1    5    5    0  503 -0.12794746529E+03 -0.25167192939E+03  0.45290877942E+03  0.53369998725E+03  0.00000000000E+00 0.  1.
         -1    1    6    6    0  502 -0.70357250507E+02  0.37294427901E+03  0.38755398597E+03  0.54243494540E+03  0.00000000000E+00 0.  1.
<mgrwt>
<rscale>  0 0.13021207E+04</rscale>
<asrwt>0</asrwt>
<pdfrwt beam="1">  1        2 0.23120715E+00 0.13021207E+04</pdfrwt>
<pdfrwt beam="2">  1       -2 0.43392482E-01 0.13021207E+04</pdfrwt>
<totfact> 0.62393669E+01</totfact>
</mgrwt>
</event>
<event>
12    1  0.2083715E-007  0.1838809E+04  0.7818608E-02  0.8685929E-01
         -1   -1    0    0    0  501 -0.00000000000E+00  0.00000000000E+00  0.34878717038E+03  0.34878717038E+03  0.00000000000E+00 0.  1.
          1   -1    0    0  501    0  0.00000000000E+00 -0.00000000000E+00 -0.24235548649E+04  0.24235548649E+04  0.00000000000E+00 0. -1.
         23    2    1    2    0    0  0.36944936868E+03  0.36468669055E+03 -0.96232868284E+02  0.53595317670E+03  0.92172796343E+02 0.  0.
        254    2    1    2    0    0 -0.36944936868E+03 -0.36468669055E+03 -0.19785348263E+04  0.22363888586E+04  0.90407181680E+03 0.  0.
        -24    2    4    4    0    0 -0.10672819916E+03  0.26096405847E+03 -0.28031322327E+03  0.40584521164E+03  0.81496529760E+02 0.  0.
         24    2    4    4    0    0 -0.26272116952E+03 -0.62565074903E+03 -0.16982216030E+04  0.18305436470E+04  0.80449722996E+02 0.  0.
         13    1    3    3    0    0  0.83240565686E+02  0.56739379212E+02 -0.51578289955E+02  0.11317539010E+03  0.00000000000E+00 0. -1.
        -13    1    3    3    0    0  0.28620880300E+03  0.30794731134E+03 -0.44654578329E+02  0.42277778660E+03  0.00000000000E+00 0.  1.
          2    1    6    6  502    0 -0.21144708082E+03 -0.40903661227E+03 -0.11205229062E+04  0.12114422815E+04  0.00000000000E+00 0. -1.
          3    1    5    5  503    0 -0.17978776906E+02  0.14762421099E+03 -0.15757802154E+03  0.21667251086E+03  0.00000000000E+00 0. -1.
         -4    1    5    5    0  503 -0.88749422255E+02  0.11333984748E+03 -0.12273520172E+03  0.18917270078E+03  0.00000000000E+00 0.  1.
         -1    1    6    6    0  502 -0.51274088701E+02 -0.21661413676E+03 -0.57769869680E+03  0.61910136544E+03  0.00000000000E+00 0.  1.
<mgrwt>
<rscale>  0 0.18388092E+04</rscale>
<asrwt>0</asrwt>
<pdfrwt beam="1">  1        1 0.37285461E+00 0.18388092E+04</pdfrwt>
<pdfrwt beam="2">  1       -1 0.53659562E-01 0.18388092E+04</pdfrwt>
<totfact> 0.50480611E+00</totfact>
</mgrwt>
</event>
<event>
12    1  0.2083715E-007  0.3187953E+04  0.7818608E-02  0.8192006E-01
         -2   -1    0    0    0  501 -0.00000000000E+00  0.00000000000E+00  0.63380876134E+03  0.63380876134E+03  0.00000000000E+00 0.  1.
          2   -1    0    0  501    0  0.00000000000E+00 -0.00000000000E+00 -0.40087183863E+04  0.40087183863E+04  0.00000000000E+00 0. -1.
         23    2    1    2    0    0  0.60620500262E+03 -0.10585970575E+04 -0.27419615288E+04  0.30025449250E+04  0.93865677852E+02 0.  0.
        254    2    1    2    0    0 -0.60620500262E+03  0.10585970575E+04 -0.63294809617E+03  0.16399822227E+04  0.89487773629E+03 0.  0.
        -24    2    4    4    0    0 -0.44666418806E+02  0.56297222696E+03  0.11136023086E+03  0.58106541500E+03  0.79392053679E+02 0.  0.
         24    2    4    4    0    0 -0.56153858382E+03  0.49562483057E+03 -0.74430832703E+03  0.10589168077E+04  0.79626416227E+02 0.  0.
         13    1    3    3    0    0  0.47686226153E+03 -0.87071163916E+03 -0.21489360674E+04  0.23671634073E+04  0.00000000000E+00 0.  1.
        -13    1    3    3    0    0  0.12934274109E+03 -0.18788541837E+03 -0.59302546140E+03  0.63538151766E+03  0.00000000000E+00 0. -1.
          4    1    6    6  502    0 -0.19213036791E+03  0.12136455571E+03 -0.21738309909E+03  0.31448186820E+03  0.00000000000E+00 0. -1.
          1    1    5    5  503    0 -0.16131643354E+02  0.14740031850E+03 -0.56652947972E+01  0.14838860932E+03  0.00000000000E+00 0. -1.
         -2    1    5    5    0  503 -0.28534775452E+02  0.41557190846E+03  0.11702552566E+03  0.43267680567E+03  0.00000000000E+00 0.  1.
         -3    1    6    6    0  502 -0.36940821591E+03  0.37426027487E+03 -0.52692522794E+03  0.74443493951E+03  0.00000000000E+00 0.  1.
<mgrwt>
<rscale>  0 0.31879528E+04</rscale>
<asrwt>0</asrwt>
<pdfrwt beam="1">  1        2 0.61672591E+00 0.31879528E+04</pdfrwt>
<pdfrwt beam="2">  1       -2 0.97509040E-01 0.31879528E+04</pdfrwt>
<totfact> 0.24833024E-01</totfact>
</mgrwt>
</event>
<event>
12    1  0.2083715E-007  0.2448845E+04  0.7818608E-02  0.8421440E-01
         -2   -1    0    0    0  501 -0.00000000000E+00  0.00000000000E+00  0.87193971078E+03  0.87193971078E+03  0.00000000000E+00 0.  1.
          2   -1    0    0  501    0  0.00000000000E+00 -0.00000000000E+00 -0.17193965140E+04  0.17193965140E+04  0.00000000000E+00 0. -1.
         23    2    1    2    0    0  0.17274336872E+03 -0.83602090093E+03  0.29309780300E+03  0.90692248070E+03  0.88492065466E+02 0.  0.
        254    2    1    2    0    0 -0.17274336872E+03  0.83602090093E+03 -0.11405546062E+04  0.16844137441E+04  0.89867326276E+03 0.  0.
        -24    2    4    4    0    0 -0.15825255783E+02  0.75122074332E+03 -0.28674088514E+03  0.80826695686E+03  0.80573534233E+02 0.  0.
         24    2    4    4    0    0 -0.15691811293E+03  0.84800157604E+02 -0.85381372106E+03  0.87614678719E+03  0.82589112729E+02 0.  0.
         13    1    3    3    0    0  0.12700949879E+03 -0.54262137530E+03  0.23259424452E+03  0.60387867349E+03  0.00000000000E+00 0.  1.
        -13    1    3    3    0    0  0.45733869929E+02 -0.29339952563E+03  0.60503558476E+02  0.30304380721E+03  0.00000000000E+00 0. -1.
          2    1    6    6  502    0 -0.77198372632E+02  0.34717456199E+02 -0.58992754708E+03  0.59596929561E+03  0.00000000000E+00 0. -1.
          3    1    5    5  503    0 -0.38333543094E+02  0.61301186126E+03 -0.25268381487E+03  0.66415518733E+03  0.00000000000E+00 0. -1.
         -4    1    5    5    0  503  0.22508287311E+02  0.13820888207E+03 -0.34057070272E+02  0.14411176952E+03  0.00000000000E+00 0.  1.
         -1    1    6    6    0  502 -0.79719740300E+02  0.50082701405E+02 -0.26388617398E+03  0.28017749159E+03  0.00000000000E+00 0.  1.
<mgrwt>
<rscale>  0 0.24488447E+04</rscale>
<asrwt>0</asrwt>
<pdfrwt beam="1">  1        2 0.26452254E+00 0.24488447E+04</pdfrwt>
<pdfrwt beam="2">  1       -2 0.13414457E+00 0.24488447E+04</pdfrwt>
<totfact> 0.34359532E+00</totfact>
</mgrwt>
</event>
<event>
12    1  0.2083715E-007  0.1967074E+04  0.7818608E-02  0.8622171E-01
         -1   -1    0    0    0  501 -0.00000000000E+00  0.00000000000E+00  0.41162226220E+03  0.41162226220E+03  0.00000000000E+00 0.  1.
          1   -1    0    0  501    0  0.00000000000E+00 -0.00000000000E+00 -0.23500799040E+04  0.23500799040E+04  0.00000000000E+00 0. -1.
         23    2    1    2    0    0  0.53917395512E+03  0.27913277374E+03 -0.14376852937E+04  0.15633653400E+04  0.92458224092E+02 0.  0.
        254    2    1    2    0    0 -0.53917395512E+03 -0.27913277374E+03 -0.50077234814E+03  0.11983368263E+04  0.90366727577E+03 0.  0.
        -24    2    4    4    0    0 -0.34395110710E+02 -0.45763270269E+03 -0.67880123123E+01  0.46550516643E+03  0.77706297352E+02 0.  0.
         24    2    4    4    0    0 -0.50477884441E+03  0.17849992895E+03 -0.49398433582E+03  0.73283165985E+03  0.79735884259E+02 0.  0.
         11    1    3    3    0    0  0.31999708630E+03  0.17297121416E+03 -0.97220217909E+03  0.10380242065E+04  0.00000000000E+00 0. -1.
        -11    1    3    3    0    0  0.21917686882E+03  0.10616155958E+03 -0.46548311463E+03  0.52534113351E+03  0.00000000000E+00 0.  1.
          4    1    6    6  502    0 -0.12442947966E+03  0.71618581703E+02 -0.16495258324E+03  0.21868075218E+03  0.00000000000E+00 0. -1.
          1    1    5    5  503    0 -0.38306081640E+02 -0.11009324564E+03  0.13533924091E+02  0.11735009897E+03  0.00000000000E+00 0. -1.
         -2    1    5    5    0  503  0.39109709298E+01 -0.34753945705E+03 -0.20321936404E+02  0.34815506746E+03  0.00000000000E+00 0.  1.
         -3    1    6    6    0  502 -0.38034936475E+03  0.10688134725E+03 -0.32903175258E+03  0.51415090767E+03  0.00000000000E+00 0.  1.
<mgrwt>
<rscale>  0 0.19670742E+04</rscale>
<asrwt>0</asrwt>
<pdfrwt beam="1">  1        1 0.36155077E+00 0.19670742E+04</pdfrwt>
<pdfrwt beam="2">  1       -1 0.63326500E-01 0.19670742E+04</pdfrwt>
<totfact> 0.40468242E+00</totfact>
</mgrwt>
</event>
<event>
12    1  0.2083715E-007  0.2421037E+04  0.7818608E-02  0.8431669E-01
          2   -1    0    0  501    0  0.00000000000E+00  0.00000000000E+00  0.19105757470E+04  0.19105757470E+04  0.00000000000E+00 0. -1.
         -2   -1    0    0    0  501 -0.00000000000E+00 -0.00000000000E+00 -0.76697060800E+03  0.76697060800E+03  0.00000000000E+00 0.  1.
         23    2    1    2    0    0  0.18901960254E+03  0.10170738669E+04  0.36501645607E+03  0.11004143254E+04  0.86643022598E+02 0.  0.
        254    2    1    2    0    0 -0.18901960254E+03 -0.10170738669E+04  0.77858868296E+03  0.15771320296E+04  0.90054285890E+03 0.  0.
        -24    2    4    4    0    0 -0.72630904017E+02 -0.10992909648E+04  0.41752109686E+03  0.11807358701E+04  0.78086203230E+02 0.  0.
         24    2    4    4    0    0 -0.11638869853E+03  0.82217097822E+02  0.36106758610E+03  0.39639615956E+03  0.80337620473E+02 0.  0.
         11    1    3    3    0    0  0.18635352499E+03  0.85295858091E+03  0.32373113303E+03  0.93116476712E+03  0.00000000000E+00 0. -1.
        -11    1    3    3    0    0  0.26660775549E+01  0.16411528603E+03  0.41285323047E+02  0.16924955827E+03  0.00000000000E+00 0.  1.
          2    1    6    6  502    0 -0.87057422410E+02  0.44430483302E+02  0.14344615720E+03  0.17357955714E+03  0.00000000000E+00 0. -1.
          1    1    5    5  503    0  0.51278869867E+01 -0.43144412696E+03  0.18253547011E+03  0.46849709472E+03  0.00000000000E+00 0. -1.
         -2    1    5    5    0  503 -0.77758791003E+02 -0.66784683780E+03  0.23498562675E+03  0.71223877535E+03  0.00000000000E+00 0.  1.
         -1    1    6    6    0  502 -0.29331276115E+02  0.37786614521E+02  0.21762142890E+03  0.22281660241E+03  0.00000000000E+00 0.  1.
<mgrwt>
<rscale>  0 0.24210373E+04</rscale>
<asrwt>0</asrwt>
<pdfrwt beam="1">  1        2 0.29393473E+00 0.24210373E+04</pdfrwt>
<pdfrwt beam="2">  1       -2 0.11799548E+00 0.24210373E+04</pdfrwt>
<totfact> 0.37233588E+00</totfact>
</mgrwt>
</event>
<event>
12    1  0.2083715E-007  0.1017380E+04  0.7818608E-02  0.9289686E-01
          2   -1    0    0  501    0  0.00000000000E+00  0.00000000000E+00  0.65800691219E+03  0.65800691219E+03  0.00000000000E+00 0. -1.
         -2   -1    0    0    0  501 -0.00000000000E+00 -0.00000000000E+00 -0.39325639038E+03  0.39325639038E+03  0.00000000000E+00 0.  1.
         23    2    1    2    0    0 -0.61188111314E+02 -0.36928644754E+02  0.60746749607E+02  0.13574262512E+03  0.98123304656E+02 0.  0.
        254    2    1    2    0    0  0.61188111314E+02  0.36928644754E+02  0.20400377220E+03  0.91552067746E+03  0.88963636504E+03 0.  0.
        -24    2    4    4    0    0  0.68250372281E+01 -0.31544048193E+03  0.38837016950E+03  0.50647158140E+03  0.78312166632E+02 0.  0.
         24    2    4    4    0    0  0.54363074086E+02  0.35236912668E+03 -0.18436639730E+03  0.40904909605E+03  0.78808941553E+02 0.  0.
         13    1    3    3    0    0 -0.17664447887E+02 -0.46778832998E+01  0.77038052672E+02  0.79175607802E+02  0.00000000000E+00 0. -1.
        -13    1    3    3    0    0 -0.43523663427E+02 -0.32250761455E+02 -0.16291303065E+02  0.56567017316E+02  0.00000000000E+00 0.  1.
          2    1    6    6  502    0  0.54264573974E+02  0.11581826266E+03 -0.52783298696E+02  0.13836397861E+03  0.00000000000E+00 0. -1.
          3    1    5    5  503    0 -0.27691139868E+02 -0.23757523646E+03  0.27101973176E+03  0.36146989807E+03  0.00000000000E+00 0. -1.
         -4    1    5    5    0  503  0.34516177096E+02 -0.77865245466E+02  0.11735043773E+03  0.14500168333E+03  0.00000000000E+00 0.  1.
         -3    1    6    6    0  502  0.98500112000E-01  0.23655086402E+03 -0.13158309860E+03  0.27068511745E+03  0.00000000000E+00 0.  1.
<mgrwt>
<rscale>  0 0.10173798E+04</rscale>
<asrwt>0</asrwt>
<pdfrwt beam="1">  1        2 0.10123183E+00 0.10173798E+04</pdfrwt>
<pdfrwt beam="2">  1       -2 0.60500983E-01 0.10173798E+04</pdfrwt>
<totfact> 0.11246910E+02</totfact>
</mgrwt>
</event>
<event>
12    1  0.2083715E-007  0.1260762E+04  0.7818608E-02  0.9061273E-01
         -1   -1    0    0    0  501 -0.00000000000E+00  0.00000000000E+00  0.72370725666E+03  0.72370725666E+03  0.00000000000E+00 0.  1.
          1   -1    0    0  501    0  0.00000000000E+00 -0.00000000000E+00 -0.54908983890E+03  0.54908983890E+03  0.00000000000E+00 0. -1.
         23    2    1    2    0    0  0.21346510487E+03  0.18880279119E+03  0.14615332850E+03  0.33368652446E+03  0.93659255889E+02 0.  0.
        254    2    1    2    0    0 -0.21346510487E+03 -0.18880279119E+03  0.28464089260E+02  0.93911057110E+03  0.89437386781E+03 0.  0.
        -24    2    4    4    0    0 -0.40681085121E+03  0.16383533786E+02  0.32170478772E+03  0.52486920411E+03  0.78931756227E+02 0.  0.
         24    2    4    4    0    0  0.19334574635E+03 -0.20518632498E+03 -0.29324069846E+03  0.41424136699E+03  0.78241915290E+02 0.  0.
         11    1    3    3    0    0  0.95562120363E+01 -0.44518426752E+01 -0.80005020719E+01  0.13234353973E+02  0.00000000000E+00 0. -1.
        -11    1    3    3    0    0  0.20390889283E+03  0.19325463387E+03  0.15415383057E+03  0.32045217048E+03  0.00000000000E+00 0.  1.
          2    1    6    6  502    0  0.14808004069E+03 -0.14092888453E+03 -0.16019884283E+03  0.25971584124E+03  0.00000000000E+00 0. -1.
          1    1    5    5  503    0 -0.36009118260E+02  0.54694510187E+01  0.43487618511E+01  0.36680829080E+02  0.00000000000E+00 0. -1.
         -2    1    5    5    0  503 -0.37080173295E+03  0.10914082768E+02  0.31735602586E+03  0.48818837503E+03  0.00000000000E+00 0.  1.
         -1    1    6    6    0  502  0.45265705656E+02 -0.64257440450E+02 -0.13304185562E+03  0.15452552575E+03  0.00000000000E+00 0.  1.
<mgrwt>
<rscale>  0 0.12607622E+04</rscale>
<asrwt>0</asrwt>
<pdfrwt beam="1">  1        1 0.84475360E-01 0.12607622E+04</pdfrwt>
<pdfrwt beam="2">  1       -1 0.11133958E+00 0.12607622E+04</pdfrwt>
<totfact> 0.28425788E+01</totfact>
</mgrwt>
</event>
<event>
12    1  0.2083715E-007  0.1177784E+04  0.7818608E-02  0.9132528E-01
         -2   -1    0    0    0  501 -0.00000000000E+00  0.00000000000E+00  0.19708930355E+03  0.19708930355E+03  0.00000000000E+00 0.  1.
          2   -1    0    0  501    0  0.00000000000E+00 -0.00000000000E+00 -0.17595760178E+04  0.17595760178E+04  0.00000000000E+00 0. -1.
         23    2    1    2    0    0  0.15888598466E+03 -0.13729500879E+03 -0.49782213188E+03  0.54797094012E+03  0.91381621072E+02 0.  0.
        254    2    1    2    0    0 -0.15888598466E+03  0.13729500879E+03 -0.10646645823E+04  0.14086943812E+04  0.89822854062E+03 0.  0.
        -24    2    4    4    0    0 -0.15570005705E+03 -0.36376961966E+03 -0.36316782771E+03  0.54297557749E+03  0.79754389940E+02 0.  0.
         24    2    4    4    0    0 -0.31859276144E+01  0.50106462845E+03 -0.70149675463E+03  0.86571880371E+03  0.79343798317E+02 0.  0.
         11    1    3    3    0    0  0.66017495226E+02 -0.82682915617E+02 -0.14797208011E+03  0.18190797317E+03  0.00000000000E+00 0.  1.
        -11    1    3    3    0    0  0.92868489436E+02 -0.54612093171E+02 -0.34985005177E+03  0.36606296695E+03  0.00000000000E+00 0. -1.
          2    1    6    6  502    0  0.33024683956E+01  0.29297120446E+03 -0.47482647551E+03  0.55794553030E+03  0.00000000000E+00 0. -1.
          3    1    5    5  503    0 -0.14295461523E+03 -0.33916743708E+03 -0.30301459369E+03  0.47674774921E+03  0.00000000000E+00 0. -1.
         -4    1    5    5    0  503 -0.12745441814E+02 -0.24602182575E+02 -0.60153234022E+02  0.66227828273E+02  0.00000000000E+00 0.  1.
         -1    1    6    6    0  502 -0.64883960100E+01  0.20809342399E+03 -0.22667027913E+03  0.30777327342E+03  0.00000000000E+00 0.  1.
<mgrwt>
<rscale>  0 0.11777837E+04</rscale>
<asrwt>0</asrwt>
<pdfrwt beam="1">  1        2 0.27070401E+00 0.11777837E+04</pdfrwt>
<pdfrwt beam="2">  1       -2 0.30321430E-01 0.11777837E+04</pdfrwt>
<totfact> 0.90266191E+01</totfact>
</mgrwt>
</event>
<event>
12    1  0.2083715E-007  0.1588235E+04  0.7818608E-02  0.8827808E-01
          1   -1    0    0  501    0  0.00000000000E+00  0.00000000000E+00  0.83357760628E+03  0.83357760628E+03  0.00000000000E+00 0. -1.
         -1   -1    0    0    0  501 -0.00000000000E+00 -0.00000000000E+00 -0.75652582129E+03  0.75652582129E+03  0.00000000000E+00 0.  1.
         23    2    1    2    0    0 -0.31691267705E+03 -0.12572941355E+03  0.43761746169E+03  0.56219489385E+03  0.91173052932E+02 0.  0.
        254    2    1    2    0    0  0.31691267705E+03  0.12572941355E+03 -0.36056567671E+03  0.10279085337E+04  0.90019265504E+03 0.  0.
        -24    2    4    4    0    0  0.33296321842E+03  0.23444086401E+03 -0.61278849301E+03  0.74024698028E+03  0.81417633929E+02 0.  0.
         24    2    4    4    0    0 -0.16050541366E+02 -0.10871145046E+03  0.25222281630E+03  0.28766155345E+03  0.84006076763E+02 0.  0.
         11    1    3    3    0    0 -0.81025201785E+02 -0.14866544369E+02  0.16845870241E+03  0.18752181708E+03  0.00000000000E+00 0. -1.
        -11    1    3    3    0    0 -0.23588747526E+03 -0.11086286918E+03  0.26915875929E+03  0.37467307676E+03  0.00000000000E+00 0.  1.
          4    1    6    6  502    0 -0.37894980065E+01  0.13833645653E+02  0.17830493435E+02  0.22883543067E+02  0.00000000000E+00 0. -1.
          1    1    5    5  503    0  0.68967391994E+02  0.41494040216E+02 -0.18540241215E+03  0.20211954621E+03  0.00000000000E+00 0. -1.
         -2    1    5    5    0  503  0.26399582642E+03  0.19294682379E+03 -0.42738608086E+03  0.53812743406E+03  0.00000000000E+00 0.  1.
         -3    1    6    6    0  502 -0.12261043360E+02 -0.12254509611E+03  0.23439232286E+03  0.26477801038E+03  0.00000000000E+00 0.  1.
<mgrwt>
<rscale>  0 0.15882355E+04</rscale>
<asrwt>0</asrwt>
<pdfrwt beam="1">  1        1 0.12824271E+00 0.15882355E+04</pdfrwt>
<pdfrwt beam="2">  1       -1 0.11638859E+00 0.15882355E+04</pdfrwt>
<totfact> 0.13249837E+01</totfact>
</mgrwt>
</event>
<event>
12    1  0.2083715E-007  0.1118780E+04  0.7818608E-02  0.9187079E-01
          2   -1    0    0  501    0  0.00000000000E+00  0.00000000000E+00  0.22174404441E+03  0.22174404441E+03  0.00000000000E+00 0. -1.
         -2   -1    0    0    0  501 -0.00000000000E+00 -0.00000000000E+00 -0.14111631798E+04  0.14111631798E+04  0.00000000000E+00 0.  1.
         23    2    1    2    0    0 -0.12854389690E+03 -0.74106984611E+02 -0.34452746110E+03  0.38641458065E+03  0.92745232178E+02 0.  0.
        254    2    1    2    0    0  0.12854389690E+03  0.74106984611E+02 -0.84489167432E+03  0.12464926436E+04  0.90437082582E+03 0.  0.
        -24    2    4    4    0    0  0.24054895325E+03 -0.35712503410E+03 -0.26913555679E+03  0.51393775927E+03  0.79347234269E+02 0.  0.
         24    2    4    4    0    0 -0.11200505635E+03  0.43123201871E+03 -0.57575611753E+03  0.73255488432E+03  0.81457750212E+02 0.  0.
         11    1    3    3    0    0 -0.24796919425E+02 -0.61303197749E+02 -0.17698788769E+03  0.18893830119E+03  0.00000000000E+00 0. -1.
        -11    1    3    3    0    0 -0.10374697747E+03 -0.12803786862E+02 -0.16753957341E+03  0.19747627946E+03  0.00000000000E+00 0.  1.
          4    1    6    6  502    0 -0.10518670569E+03  0.24593853607E+03 -0.34327957445E+03  0.43519061664E+03  0.00000000000E+00 0. -1.
          3    1    5    5  503    0  0.70089940827E+02 -0.54130171727E+02 -0.37415895052E+02  0.96138569257E+02  0.00000000000E+00 0. -1.
         -4    1    5    5    0  503  0.17045901242E+03 -0.30299486237E+03 -0.23171966174E+03  0.41779919001E+03  0.00000000000E+00 0.  1.
         -3    1    6    6    0  502 -0.68183506647E+01  0.18529348263E+03 -0.23247654308E+03  0.29736426768E+03  0.00000000000E+00 0.  1.
<mgrwt>
<rscale>  0 0.11187797E+04</rscale>
<asrwt>0</asrwt>
<pdfrwt beam="1">  1        2 0.34114468E-01 0.11187797E+04</pdfrwt>
<pdfrwt beam="2">  1       -2 0.21710203E+00 0.11187797E+04</pdfrwt>
<totfact> 0.15763874E+01</totfact>
</mgrwt>
</event>
<event>
12    1  0.2083715E-007  0.1477691E+04  0.7818608E-02  0.8899425E-01
         -2   -1    0    0    0  501 -0.00000000000E+00  0.00000000000E+00  0.26732897035E+03  0.26732897035E+03  0.00000000000E+00 0.  1.
          2   -1    0    0  501    0  0.00000000000E+00 -0.00000000000E+00 -0.20420266619E+04  0.20420266619E+04  0.00000000000E+00 0. -1.
         23    2    1    2    0    0  0.41441965818E+03 -0.51924992309E+02 -0.26393362836E+03  0.50230645370E+03  0.90614321899E+02 0.  0.
        254    2    1    2    0    0 -0.41441965818E+03  0.51924992309E+02 -0.15107640632E+04  0.18070491785E+04  0.89921010956E+03 0.  0.
        -24    2    4    4    0    0 -0.36474883476E+03  0.20139827301E+03 -0.17692349300E+03  0.46154434647E+03  0.90101523554E+02 0.  0.
         24    2    4    4    0    0 -0.49670823419E+02 -0.14947328070E+03 -0.13338405702E+04  0.13455048321E+04  0.80269135578E+02 0.  0.
         11    1    3    3    0    0  0.27429459420E+03 -0.35739695090E+02 -0.12239817684E+03  0.30248332831E+03  0.00000000000E+00 0.  1.
        -11    1    3    3    0    0  0.14012506398E+03 -0.16185297219E+02 -0.14153545152E+03  0.19982312538E+03  0.00000000000E+00 0. -1.
          4    1    6    6  502    0 -0.33314835294E+02 -0.30085442795E+02 -0.18528128782E+03  0.19064146384E+03  0.00000000000E+00 0. -1.
          1    1    5    5  503    0 -0.51057373015E+02  0.56047832150E+02 -0.65077546832E+01  0.76095766629E+02  0.00000000000E+00 0. -1.
         -2    1    5    5    0  503 -0.31369146175E+03  0.14535044086E+03 -0.17041573832E+03  0.38544857984E+03  0.00000000000E+00 0.  1.
         -3    1    6    6    0  502 -0.16355988125E+02 -0.11938783791E+03 -0.11485592823E+04  0.11548633682E+04  0.00000000000E+00 0.  1.
<mgrwt>
<rscale>  0 0.14776913E+04</rscale>
<asrwt>0</asrwt>
<pdfrwt beam="1">  1        2 0.31415796E+00 0.14776913E+04</pdfrwt>
<pdfrwt beam="2">  1       -2 0.41127532E-01 0.14776913E+04</pdfrwt>
<totfact> 0.34327580E+01</totfact>
</mgrwt>
</event>
<event>
12    1  0.2083715E-007  0.1696939E+04  0.7818608E-02  0.8763112E-01
         -2   -1    0    0    0  501 -0.00000000000E+00  0.00000000000E+00  0.52263786872E+03  0.52263786872E+03  0.00000000000E+00 0.  1.
          2   -1    0    0  501    0  0.00000000000E+00 -0.00000000000E+00 -0.13774362032E+04  0.13774362032E+04  0.00000000000E+00 0. -1.
         23    2    1    2    0    0 -0.58925980128E+03  0.30973645892E+02 -0.44771305231E+03  0.74646956151E+03  0.92646364831E+02 0.  0.
        254    2    1    2    0    0  0.58925980128E+03 -0.30973645892E+02 -0.40708528214E+03  0.11536045104E+04  0.90382435201E+03 0.  0.
        -24    2    4    4    0    0  0.32273643530E+03 -0.96765951429E+02  0.25663407948E+03  0.43083310829E+03  0.78953533323E+02 0.  0.
         24    2    4    4    0    0  0.26652336598E+03  0.65792305537E+02 -0.66371936162E+03  0.72277140208E+03  0.80695579762E+02 0.  0.
         11    1    3    3    0    0 -0.20331277549E+03  0.40457381112E+02 -0.19813593847E+03  0.28675901813E+03  0.00000000000E+00 0. -1.
        -11    1    3    3    0    0 -0.38594702579E+03 -0.94837352197E+01 -0.24957711384E+03  0.45971054339E+03  0.00000000000E+00 0.  1.
          2    1    6    6  502    0  0.22018448250E+03  0.78493010685E+02 -0.59164754360E+03  0.63615184894E+03  0.00000000000E+00 0. -1.
          3    1    5    5  503    0  0.14226335878E+03 -0.81026901685E+02  0.10412192608E+03  0.19402473434E+03  0.00000000000E+00 0. -1.
         -4    1    5    5    0  503  0.18047307652E+03 -0.15739049744E+02  0.15251215341E+03  0.23680837395E+03  0.00000000000E+00 0.  1.
         -3    1    6    6    0  502  0.46338883484E+02 -0.12700705148E+02 -0.72071818020E+02  0.86619553142E+02  0.00000000000E+00 0.  1.
<mgrwt>
<rscale>  0 0.16969388E+04</rscale>
<asrwt>0</asrwt>
<pdfrwt beam="1">  1        2 0.21191326E+00 0.16969388E+04</pdfrwt>
<pdfrwt beam="2">  1       -2 0.80405827E-01 0.16969388E+04</pdfrwt>
<totfact> 0.19393143E+01</totfact>
</mgrwt>
</event>
<event>
12    1  0.2083715E-007  0.1104298E+04  0.7818608E-02  0.9201013E-01
         -4   -1    0    0    0  501 -0.00000000000E+00  0.00000000000E+00  0.25808417117E+03  0.25808417117E+03  0.00000000000E+00 0. -1.
          4   -1    0    0  501    0  0.00000000000E+00 -0.00000000000E+00 -0.11812760148E+04  0.11812760148E+04  0.00000000000E+00 0.  1.
         23    2    1    2    0    0  0.13280077295E+03 -0.96905585815E+02 -0.13564302354E+03  0.23174124065E+03  0.90984806013E+02 0.  0.
        254    2    1    2    0    0 -0.13280077295E+03  0.96905585815E+02 -0.78754882010E+03  0.12076189453E+04  0.90060181834E+03 0.  0.
        -24    2    4    4    0    0 -0.24338050915E+03 -0.22004326862E+03 -0.79340114681E+03  0.86234044675E+03  0.80576386473E+02 0.  0.
         24    2    4    4    0    0  0.11057973620E+03  0.31694885443E+03  0.58523267029E+01  0.34527849857E+03  0.80613506680E+02 0.  0.
         11    1    3    3    0    0  0.12937832724E+03 -0.10184906962E+03 -0.93864729409E+02  0.18953250901E+03  0.00000000000E+00 0. -1.
        -11    1    3    3    0    0  0.34224457049E+01  0.49434838040E+01 -0.41778294128E+02  0.42208731644E+02  0.00000000000E+00 0.  1.
          2    1    6    6  502    0  0.89526661413E+02  0.21174867478E+03 -0.30698006866E+02  0.23193725876E+03  0.00000000000E+00 0. -1.
          3    1    5    5  503    0 -0.71055988549E+02 -0.43782503927E+02 -0.12859545949E+03  0.15330575123E+03  0.00000000000E+00 0. -1.
         -4    1    5    5    0  503 -0.17232452060E+03 -0.17626076469E+03 -0.66480568731E+03  0.70903469552E+03  0.00000000000E+00 0.  1.
         -3    1    6    6    0  502  0.21053074789E+02  0.10520017965E+03  0.36550333569E+02  0.11334123980E+03  0.00000000000E+00 0.  1.
<mgrwt>
<rscale>  0 0.11042982E+04</rscale>
<asrwt>0</asrwt>
<pdfrwt beam="1">  1        4 0.18173477E+00 0.11042982E+04</pdfrwt>
<pdfrwt beam="2">  1       -4 0.39705257E-01 0.11042982E+04</pdfrwt>
<totfact> 0.21430224E+00</totfact>
</mgrwt>
</event>
<event>
12    1  0.2083715E-007  0.1899878E+04  0.7818608E-02  0.8654917E-01
         -2   -1    0    0    0  501 -0.00000000000E+00  0.00000000000E+00  0.27727452008E+03  0.27727452008E+03  0.00000000000E+00 0.  1.
          2   -1    0    0  501    0  0.00000000000E+00 -0.00000000000E+00 -0.32544792372E+04  0.32544792372E+04  0.00000000000E+00 0. -1.
         23    2    1    2    0    0 -0.20788643383E+03  0.49924328683E+03 -0.20769501663E+04  0.21482127456E+04  0.92926736300E+02 0.  0.
        254    2    1    2    0    0  0.20788643383E+03 -0.49924328683E+03 -0.90025455078E+03  0.13835410116E+04  0.90070352828E+03 0.  0.
        -24    2    4    4    0    0  0.31262663105E+03 -0.18060769999E+02  0.32987159988E+02  0.32520053718E+03  0.81275056455E+02 0.  0.
         24    2    4    4    0    0 -0.10474019722E+03 -0.48118251683E+03 -0.93324171077E+03  0.10583404744E+04  0.81469906883E+02 0.  0.
         11    1    3    3    0    0 -0.17128511515E+02  0.14160117380E+03 -0.49257466229E+03  0.51280998066E+03  0.00000000000E+00 0. -1.
        -11    1    3    3    0    0 -0.19075792231E+03  0.35764211302E+03 -0.15843755040E+04  0.16354027650E+04  0.00000000000E+00 0.  1.
          2    1    6    6  502    0 -0.84295401557E+02 -0.42129048244E+03 -0.74829006726E+03  0.86286117660E+03  0.00000000000E+00 0. -1.
          1    1    5    5  503    0  0.31567773063E+03 -0.14166918358E+02  0.37861651599E+02  0.31825561402E+03  0.00000000000E+00 0. -1.
         -2    1    5    5    0  503 -0.30510995795E+01 -0.38938516409E+01 -0.48744916109E+01  0.69449231608E+01  0.00000000000E+00 0.  1.
         -1    1    6    6    0  502 -0.20444795667E+02 -0.59892034387E+02 -0.18495164351E+03  0.19547929785E+03  0.00000000000E+00 0.  1.
<mgrwt>
<rscale>  0 0.18998781E+04</rscale>
<asrwt>0</asrwt>
<pdfrwt beam="1">  1        2 0.50068911E+00 0.18998781E+04</pdfrwt>
<pdfrwt beam="2">  1       -2 0.42657619E-01 0.18998781E+04</pdfrwt>
<totfact> 0.58546086E+00</totfact>
</mgrwt>
</event>
<event>
12    1  0.2083715E-007  0.1644894E+04  0.7818608E-02  0.8793433E-01
         -1   -1    0    0    0  501 -0.00000000000E+00  0.00000000000E+00  0.45354013295E+03  0.45354013295E+03  0.00000000000E+00 0.  1.
          1   -1    0    0  501    0  0.00000000000E+00 -0.00000000000E+00 -0.14914211493E+04  0.14914211493E+04  0.00000000000E+00 0. -1.
         23    2    1    2    0    0 -0.31900389054E+03 -0.45108606166E+03 -0.19353052451E+03  0.59274001920E+03  0.92976068127E+02 0.  0.
        254    2    1    2    0    0  0.31900389054E+03  0.45108606166E+03 -0.84435049183E+03  0.13522212630E+04  0.90018468880E+03 0.  0.
        -24    2    4    4    0    0 -0.26514294314E+03  0.36057477111E+03 -0.43602286646E+03  0.63000231449E+03  0.80448929910E+02 0.  0.
         24    2    4    4    0    0  0.58414683368E+03  0.90511290549E+02 -0.40832762536E+03  0.72221894854E+03  0.73816955967E+02 0.  0.
         11    1    3    3    0    0 -0.16376209140E+03 -0.29310570253E+03 -0.86336034463E+02  0.34667403462E+03  0.00000000000E+00 0.  1.
        -11    1    3    3    0    0 -0.15524179914E+03 -0.15798035913E+03 -0.10719449005E+03  0.24606598458E+03  0.00000000000E+00 0. -1.
          4    1    6    6  502    0  0.59370174422E+02  0.14181351570E+02 -0.71410655146E+02  0.93943653386E+02  0.00000000000E+00 0. -1.
          1    1    5    5  503    0 -0.72843851232E+01  0.38373562325E+01 -0.30191303336E+02  0.31293807161E+02  0.00000000000E+00 0. -1.
         -2    1    5    5    0  503 -0.25785855801E+03  0.35673741488E+03 -0.40583156313E+03  0.59870850733E+03  0.00000000000E+00 0.  1.
         -3    1    6    6    0  502  0.52477665926E+03  0.76329938980E+02 -0.33691697022E+03  0.62827529516E+03  0.00000000000E+00 0.  1.
<mgrwt>
<rscale>  0 0.16448943E+04</rscale>
<asrwt>0</asrwt>
<pdfrwt beam="1">  1        1 0.22944941E+00 0.16448943E+04</pdfrwt>
<pdfrwt beam="2">  1       -1 0.69775405E-01 0.16448943E+04</pdfrwt>
<totfact> 0.13167333E+01</totfact>
</mgrwt>
</event>
<event>
12    1  0.2083715E-007  0.3211835E+04  0.7818608E-02  0.8185699E-01
          2   -1    0    0  501    0  0.00000000000E+00  0.00000000000E+00  0.20538278450E+04  0.20538278450E+04  0.00000000000E+00 0.  1.
         -2   -1    0    0    0  501 -0.00000000000E+00 -0.00000000000E+00 -0.12556898412E+04  0.12556898412E+04  0.00000000000E+00 0. -1.
         23    2    1    2    0    0 -0.11032617634E+04 -0.62548764332E+03 -0.41490135967E+03  0.13372668429E+04  0.87853060254E+02 0.  0.
        254    2    1    2    0    0  0.11032617634E+04  0.62548764332E+03  0.12130393635E+04  0.19722508433E+04  0.89993754267E+03 0.  0.
        -24    2    4    4    0    0  0.45335163578E+03 -0.19864795750E+03  0.35540590884E+03  0.61457557887E+03  0.80006658591E+02 0.  0.
         24    2    4    4    0    0  0.64991012767E+03  0.82413560082E+03  0.85763345467E+03  0.13576752644E+04  0.78513173399E+02 0.  0.
         13    1    3    3    0    0 -0.10070978291E+04 -0.56413690741E+03 -0.35101581757E+03  0.12065274932E+04  0.00000000000E+00 0.  1.
        -13    1    3    3    0    0 -0.96163934388E+02 -0.61350735907E+02 -0.63885542107E+02  0.13073934971E+03  0.00000000000E+00 0. -1.
          4    1    6    6  502    0  0.10950382056E+03  0.12062877187E+03  0.16817518753E+03  0.23414798957E+03  0.00000000000E+00 0. -1.
          1    1    5    5  503    0  0.49191977575E+02 -0.48327163728E+02  0.64434438637E+02  0.94377763770E+02  0.00000000000E+00 0. -1.
         -2    1    5    5    0  503  0.40415965820E+03 -0.15032079377E+03  0.29097147021E+03  0.52019781510E+03  0.00000000000E+00 0.  1.
         -3    1    6    6    0  502  0.54040630711E+03  0.70350682896E+03  0.68945826714E+03  0.11235272748E+04  0.00000000000E+00 0.  1.
<mgrwt>
<rscale>  0 0.32118348E+04</rscale>
<asrwt>0</asrwt>
<pdfrwt beam="1">  1        2 0.31597352E+00 0.32118348E+04</pdfrwt>
<pdfrwt beam="2">  1       -2 0.19318305E+00 0.32118348E+04</pdfrwt>
<totfact> 0.77415403E-01</totfact>
</mgrwt>
</event>
<event>
12    1  0.2083715E-007  0.1957491E+04  0.7818608E-02  0.8626757E-01
         -1   -1    0    0    0  501 -0.00000000000E+00  0.00000000000E+00  0.48955323157E+03  0.48955323157E+03  0.00000000000E+00 0.  1.
          1   -1    0    0  501    0  0.00000000000E+00 -0.00000000000E+00 -0.19567703184E+04  0.19567703184E+04  0.00000000000E+00 0. -1.
         23    2    1    2    0    0 -0.13119859557E+03  0.74240505490E+03 -0.39325572898E+03  0.85529796831E+03  0.92229112561E+02 0.  0.
        254    2    1    2    0    0  0.13119859557E+03 -0.74240505490E+03 -0.10739613578E+04  0.15910255817E+04  0.89977278595E+03 0.  0.
        -24    2    4    4    0    0  0.28996418915E+02 -0.10581393832E+03 -0.91126273109E+03  0.92130780406E+03  0.79818061203E+02 0.  0.
         24    2    4    4    0    0  0.10220217666E+03 -0.63659111658E+03 -0.16269862674E+03  0.66971777759E+03  0.79734082166E+02 0.  0.
         11    1    3    3    0    0 -0.12707336743E+03  0.56896487997E+03 -0.33449545959E+03  0.67212788057E+03  0.00000000000E+00 0. -1.
        -11    1    3    3    0    0 -0.41252281472E+01  0.17344017493E+03 -0.58760269398E+02  0.18317008775E+03  0.00000000000E+00 0.  1.
          4    1    6    6  502    0 -0.12212406819E+02 -0.94332921234E+02 -0.31525786293E+02  0.10020837345E+03  0.00000000000E+00 0. -1.
          3    1    5    5  503    0 -0.39495085258E+01  0.12193164148E+02 -0.68959545772E+02  0.70140507716E+02  0.00000000000E+00 0. -1.
         -4    1    5    5    0  503  0.32945927441E+02 -0.11800710247E+03 -0.84230318532E+03  0.85116729635E+03  0.00000000000E+00 0.  1.
         -3    1    6    6    0  502  0.11441458348E+03 -0.54225819534E+03 -0.13117284045E+03  0.56950940414E+03  0.00000000000E+00 0.  1.
<mgrwt>
<rscale>  0 0.19574915E+04</rscale>
<asrwt>0</asrwt>
<pdfrwt beam="1">  1        1 0.30104159E+00 0.19574915E+04</pdfrwt>
<pdfrwt beam="2">  1       -1 0.75315881E-01 0.19574915E+04</pdfrwt>
<totfact> 0.52603816E+00</totfact>
</mgrwt>
</event>
<event>
12    1  0.2083715E-007  0.3162833E+04  0.7818608E-02  0.8198702E-01
          2   -1    0    0  501    0  0.00000000000E+00  0.00000000000E+00  0.15891263094E+04  0.15891263094E+04  0.00000000000E+00 0. -1.
         -2   -1    0    0    0  501 -0.00000000000E+00 -0.00000000000E+00 -0.15737444037E+04  0.15737444037E+04  0.00000000000E+00 0.  1.
         23    2    1    2    0    0  0.29654196302E+03  0.12106781600E+04  0.75645252174E+03  0.14609252112E+04  0.91669581531E+02 0.  0.
        254    2    1    2    0    0 -0.29654196302E+03 -0.12106781600E+04 -0.74107061604E+03  0.17019455019E+04  0.89092877972E+03 0.  0.
        -24    2    4    4    0    0 -0.12954125643E+03  0.42293160739E+02 -0.33892613279E+03  0.37305226718E+03  0.75679733043E+02 0.  0.
         24    2    4    4    0    0 -0.16700070658E+03 -0.12529713208E+04 -0.40214448325E+03  0.13288932347E+04  0.80066705111E+02 0.  0.
         11    1    3    3    0    0  0.27409676221E+03  0.10453622621E+04  0.68449416332E+03  0.12792355348E+04  0.00000000000E+00 0. -1.
        -11    1    3    3    0    0  0.22445200810E+02  0.16531589798E+03  0.71958358428E+02  0.18168967640E+03  0.00000000000E+00 0.  1.
          4    1    6    6  502    0 -0.17725525980E+02 -0.19257737440E+03 -0.91170514410E+02  0.21380435472E+03  0.00000000000E+00 0. -1.
          1    1    5    5  503    0 -0.30909867865E+01  0.28184976851E+02 -0.70896063815E+02  0.76355739692E+02  0.00000000000E+00 0. -1.
         -2    1    5    5    0  503 -0.12645026965E+03  0.14108183888E+02 -0.26803006898E+03  0.29669652749E+03  0.00000000000E+00 0.  1.
         -3    1    6    6    0  502 -0.14927518060E+03 -0.10603939464E+04 -0.31097396884E+03  0.11150888800E+04  0.00000000000E+00 0.  1.
<mgrwt>
<rscale>  0 0.31628333E+04</rscale>
<asrwt>0</asrwt>
<pdfrwt beam="1">  1        2 0.24448097E+00 0.31628333E+04</pdfrwt>
<pdfrwt beam="2">  1       -2 0.24211453E+00 0.31628333E+04</pdfrwt>
<totfact> 0.68662404E-01</totfact>
</mgrwt>
</event>
<event>
12    1  0.2083715E-007  0.1197174E+04  0.7818608E-02  0.9115334E-01
          2   -1    0    0  501    0  0.00000000000E+00  0.00000000000E+00  0.13500618886E+04  0.13500618886E+04  0.00000000000E+00 0. -1.
         -2   -1    0    0    0  501 -0.00000000000E+00 -0.00000000000E+00 -0.26539982600E+03  0.26539982600E+03  0.00000000000E+00 0.  1.
         23    2    1    2    0    0  0.13495463063E+03  0.13683692100E+03  0.28342812495E+02  0.21412193821E+03  0.90043290295E+02 0.  0.
        254    2    1    2    0    0 -0.13495463063E+03 -0.13683692100E+03  0.10563192501E+04  0.14013397764E+04  0.90055855748E+03 0.  0.
        -24    2    4    4    0    0 -0.34984525760E+02 -0.14946959187E+03 -0.12447154790E+03  0.21364009680E+03  0.81140919312E+02 0.  0.
         24    2    4    4    0    0 -0.99970104869E+02  0.12632670877E+02  0.11807907980E+04  0.11876996795E+04  0.78803641953E+02 0.  0.
         13    1    3    3    0    0  0.62372611525E+02  0.23158343136E+02  0.41806707508E+02  0.78577683333E+02  0.00000000000E+00 0. -1.
        -13    1    3    3    0    0  0.72582019104E+02  0.11367857786E+03 -0.13463895013E+02  0.13554425488E+03  0.00000000000E+00 0.  1.
          2    1    6    6  502    0 -0.42847038280E+02 -0.24134204996E+02  0.27479112483E+03  0.27915674956E+03  0.00000000000E+00 0. -1.
          3    1    5    5  503    0  0.14550129113E+02 -0.82607581782E+02 -0.33417805892E+02  0.90291021568E+02  0.00000000000E+00 0. -1.
         -4    1    5    5    0  503 -0.49534654874E+02 -0.66862010092E+02 -0.91053742012E+02  0.12334907523E+03  0.00000000000E+00 0.  1.
         -1    1    6    6    0  502 -0.57123066588E+02  0.36766875873E+02  0.90599967314E+03  0.90854292999E+03  0.00000000000E+00 0.  1.
<mgrwt>
<rscale>  0 0.11971737E+04</rscale>
<asrwt>0</asrwt>
<pdfrwt beam="1">  1        2 0.20770182E+00 0.11971737E+04</pdfrwt>
<pdfrwt beam="2">  1       -2 0.40830743E-01 0.11971737E+04</pdfrwt>
<totfact> 0.86619234E+01</totfact>
</mgrwt>
</event>
<event>
12    1  0.2083715E-007  0.1197025E+04  0.7818608E-02  0.9115464E-01
          2   -1    0    0  501    0  0.00000000000E+00  0.00000000000E+00  0.22049441070E+04  0.22049441070E+04  0.00000000000E+00 0. -1.
         -2   -1    0    0    0  501 -0.00000000000E+00 -0.00000000000E+00 -0.16246098892E+03  0.16246098892E+03  0.00000000000E+00 0.  1.
         23    2    1    2    0    0  0.21346250200E+03 -0.11195548488E+03  0.52603134763E+03  0.58663480976E+03  0.96597882852E+02 0.  0.
        254    2    1    2    0    0 -0.21346250200E+03  0.11195548488E+03  0.15164517704E+04  0.17807702862E+04  0.90189609691E+03 0.  0.
        -24    2    4    4    0    0 -0.16966605761E+02  0.16498608209E+03  0.15495980407E+04  0.15605615326E+04  0.81178422534E+02 0.  0.
         24    2    4    4    0    0 -0.19649589623E+03 -0.53030597207E+02 -0.33146270215E+02  0.22020875360E+03  0.77267965264E+02 0.  0.
         13    1    3    3    0    0  0.89399520925E+02 -0.17825526588E+01  0.13580461143E+03  0.16259872177E+03  0.00000000000E+00 0. -1.
        -13    1    3    3    0    0  0.12406298107E+03 -0.11017293222E+03  0.39022673621E+03  0.42403608799E+03  0.00000000000E+00 0.  1.
          4    1    6    6  502    0 -0.15575928423E+03 -0.57178917685E+02  0.24668123474E+01  0.16594115950E+03  0.00000000000E+00 0. -1.
          3    1    5    5  503    0 -0.63763051963E+01  0.15505071916E+03  0.15164874459E+04  0.15244066243E+04  0.00000000000E+00 0. -1.
         -4    1    5    5    0  503 -0.10590300565E+02  0.99353629251E+01  0.33110594797E+02  0.36154908247E+02  0.00000000000E+00 0.  1.
         -3    1    6    6    0  502 -0.40736612005E+02  0.41483204780E+01 -0.35613082562E+02  0.54267594105E+02  0.00000000000E+00 0.  1.
<mgrwt>
<rscale>  0 0.11970253E+04</rscale>
<asrwt>0</asrwt>
<pdfrwt beam="1">  1        2 0.33922215E+00 0.11970253E+04</pdfrwt>
<pdfrwt beam="2">  1       -2 0.24994000E-01 0.11970253E+04</pdfrwt>
<totfact> 0.72900752E+01</totfact>
</mgrwt>
</event>
<event>
12    1  0.2083715E-007  0.1881212E+04  0.7818608E-02  0.8664265E-01
          2   -1    0    0  501    0  0.00000000000E+00  0.00000000000E+00  0.80949398476E+03  0.80949398476E+03  0.00000000000E+00 0. -1.
         -2   -1    0    0    0  501 -0.00000000000E+00 -0.00000000000E+00 -0.10929541586E+04  0.10929541586E+04  0.00000000000E+00 0.  1.
         23    2    1    2    0    0  0.52226347116E+03  0.30385627904E+03 -0.50873821567E+03  0.79519230129E+03  0.91806602822E+02 0.  0.
        254    2    1    2    0    0 -0.52226347116E+03 -0.30385627904E+03  0.22527804179E+03  0.11072558421E+04  0.90009862357E+03 0.  0.
        -24    2    4    4    0    0 -0.39476665845E+03 -0.58785719539E+03 -0.33974464582E+01  0.71284511052E+03  0.81974460320E+02 0.  0.
         24    2    4    4    0    0 -0.12749681272E+03  0.28400091636E+03  0.22867548825E+03  0.39441073159E+03  0.79720690713E+02 0.  0.
         13    1    3    3    0    0  0.19910195963E+03  0.12884948132E+03 -0.14420874745E+03  0.27756069968E+03  0.00000000000E+00 0. -1.
        -13    1    3    3    0    0  0.32316151153E+03  0.17500679772E+03 -0.36452946822E+03  0.51763160161E+03  0.00000000000E+00 0.  1.
          2    1    6    6  502    0 -0.84368721514E+02  0.22726713149E+03  0.21001963850E+03  0.32074394583E+03  0.00000000000E+00 0. -1.
          1    1    5    5  503    0 -0.33532675576E+03 -0.53452122855E+03 -0.19840279045E+02  0.63130865159E+03  0.00000000000E+00 0. -1.
         -2    1    5    5    0  503 -0.59439902688E+02 -0.53335966845E+02  0.16442832587E+02  0.81536458927E+02  0.00000000000E+00 0.  1.
         -1    1    6    6    0  502 -0.43128091203E+02  0.56733784862E+02  0.18655849742E+02  0.73666785767E+02  0.00000000000E+00 0.  1.
<mgrwt>
<rscale>  0 0.18812122E+04</rscale>
<asrwt>0</asrwt>
<pdfrwt beam="1">  1        2 0.12453754E+00 0.18812122E+04</pdfrwt>
<pdfrwt beam="2">  1       -2 0.16814679E+00 0.18812122E+04</pdfrwt>
<totfact> 0.69850381E+00</totfact>
</mgrwt>
</event>
<event>
12    1  0.2083715E-007  0.1439859E+04  0.7818608E-02  0.8925461E-01
          2   -1    0    0  501    0  0.00000000000E+00  0.00000000000E+00  0.16988218130E+04  0.16988218130E+04  0.00000000000E+00 0. -1.
         -2   -1    0    0    0  501 -0.00000000000E+00 -0.00000000000E+00 -0.30509306994E+03  0.30509306994E+03  0.00000000000E+00 0.  1.
         23    2    1    2    0    0  0.35194904354E+03 -0.21405395147E+03  0.62677829078E+03  0.75513417863E+03  0.87689101650E+02 0.  0.
        254    2    1    2    0    0 -0.35194904354E+03  0.21405395147E+03  0.76695045231E+03  0.12487807043E+04  0.89529493903E+03 0.  0.
        -24    2    4    4    0    0  0.14493040746E+03  0.21376190390E+03  0.68853086089E+03  0.73962145942E+03  0.79159221014E+02 0.  0.
         24    2    4    4    0    0 -0.49687945101E+03  0.29204756604E+00  0.78419591416E+02  0.50915924492E+03  0.78766936274E+02 0.  0.
         13    1    3    3    0    0  0.12912220461E+03 -0.10169280157E+03  0.18278054449E+03  0.24581028672E+03  0.00000000000E+00 0.  1.
        -13    1    3    3    0    0  0.22282683893E+03 -0.11236114990E+03  0.44399774629E+03  0.50932389191E+03  0.00000000000E+00 0. -1.
          2    1    6    6  502    0 -0.38389211854E+03  0.10070115052E+02  0.27990183740E+02  0.38504287590E+03  0.00000000000E+00 0. -1.
          1    1    5    5  503    0  0.10030126035E+03  0.19680741885E+03  0.53398823046E+03  0.57787276560E+03  0.00000000000E+00 0. -1.
         -2    1    5    5    0  503  0.44629147112E+02  0.16954485049E+02  0.15454263043E+03  0.16174869382E+03  0.00000000000E+00 0.  1.
         -1    1    6    6    0  502 -0.11298733246E+03 -0.97780674855E+01  0.50429407676E+02  0.12411636902E+03  0.00000000000E+00 0.  1.
<mgrwt>
<rscale>  0 0.14398594E+04</rscale>
<asrwt>0</asrwt>
<pdfrwt beam="1">  1        2 0.26135720E+00 0.14398594E+04</pdfrwt>
<pdfrwt beam="2">  1       -2 0.46937396E-01 0.14398594E+04</pdfrwt>
<totfact> 0.41007125E+01</totfact>
</mgrwt>
</event>
<event>
12    1  0.2083715E-007  0.2740458E+04  0.7818608E-02  0.8321996E-01
         -1   -1    0    0    0  501 -0.00000000000E+00  0.00000000000E+00  0.71287140953E+03  0.71287140953E+03  0.00000000000E+00 0.  1.
          1   -1    0    0  501    0  0.00000000000E+00 -0.00000000000E+00 -0.26337525082E+04  0.26337525082E+04  0.00000000000E+00 0. -1.
         23    2    1    2    0    0  0.69006046447E+03  0.79159647970E+03 -0.10055236791E+03  0.10591050344E+04  0.93724404447E+02 0.  0.
        254    2    1    2    0    0 -0.69006046447E+03 -0.79159647970E+03 -0.18203287307E+04  0.22875188833E+04  0.90351398551E+03 0.  0.
        -24    2    4    4    0    0  0.14275039406E+03 -0.45209804294E+03 -0.69369684264E+03  0.84402620848E+03  0.79966340971E+02 0.  0.
         24    2    4    4    0    0 -0.83281085853E+03 -0.33949843677E+03 -0.11266318881E+04  0.14434926748E+04  0.74421611019E+02 0.  0.
         13    1    3    3    0    0  0.44005535042E+01  0.12869072045E+02 -0.11342626419E+02  0.17709688324E+02  0.00000000000E+00 0. -1.
        -13    1    3    3    0    0  0.68565991097E+03  0.77872740766E+03 -0.89209741489E+02  0.10413953461E+04  0.00000000000E+00 0.  1.
          2    1    6    6  502    0 -0.70676761460E+02 -0.76900682415E+01 -0.83069139020E+02  0.10933811603E+03  0.00000000000E+00 0. -1.
          3    1    5    5  503    0  0.36780056592E+01  0.73415649973E+00  0.30871692915E+00  0.37632456122E+01  0.00000000000E+00 0. -1.
         -4    1    5    5    0  503  0.13907238841E+03 -0.45283219944E+03 -0.69400555957E+03  0.84026296287E+03  0.00000000000E+00 0.  1.
         -1    1    6    6    0  502 -0.76213409707E+03 -0.33180836853E+03 -0.10435627491E+04  0.13341545588E+04  0.00000000000E+00 0.  1.
<mgrwt>
<rscale>  0 0.27404575E+04</rscale>
<asrwt>0</asrwt>
<pdfrwt beam="1">  1        1 0.40519269E+00 0.27404575E+04</pdfrwt>
<pdfrwt beam="2">  1       -1 0.10967253E+00 0.27404575E+04</pdfrwt>
<totfact> 0.73038564E-01</totfact>
</mgrwt>
</event>
<event>
12    1  0.2083715E-007  0.1627647E+04  0.7818608E-02  0.8803741E-01
          1   -1    0    0  501    0  0.00000000000E+00  0.00000000000E+00  0.20482497499E+04  0.20482497499E+04  0.00000000000E+00 0. -1.
         -1   -1    0    0    0  501 -0.00000000000E+00 -0.00000000000E+00 -0.32335347503E+03  0.32335347503E+03  0.00000000000E+00 0.  1.
         23    2    1    2    0    0 -0.46079055587E+03  0.28147933397E+03  0.85417596414E+03  0.10144651316E+04  0.89243339208E+02 0.  0.
        254    2    1    2    0    0  0.46079055587E+03 -0.28147933397E+03  0.87072031070E+03  0.13571380933E+04  0.89000640058E+03 0.  0.
        -24    2    4    4    0    0  0.52257141380E+03 -0.65830252324E+02  0.89042772842E+02  0.54022836678E+03  0.80644703681E+02 0.  0.
         24    2    4    4    0    0 -0.61780857930E+02 -0.21564908165E+03  0.78167753785E+03  0.81690972655E+03  0.77461779788E+02 0.  0.
         11    1    3    3    0    0 -0.40522967099E+03  0.24077728358E+03  0.79211696412E+03  0.92175597171E+03  0.00000000000E+00 0. -1.
        -11    1    3    3    0    0 -0.55560884889E+02  0.40702050395E+02  0.62059000013E+02  0.92709159842E+02  0.00000000000E+00 0.  1.
          4    1    6    6  502    0 -0.45401500466E+02 -0.82606553697E+02  0.21788054808E+03  0.23739644519E+03  0.00000000000E+00 0. -1.
          3    1    5    5  503    0  0.13751540257E+03 -0.39328075893E+02  0.53194278184E+02  0.15260017932E+03  0.00000000000E+00 0. -1.
         -4    1    5    5    0  503  0.38505601123E+03 -0.26502176431E+02  0.35848494658E+02  0.38762818746E+03  0.00000000000E+00 0.  1.
         -3    1    6    6    0  502 -0.16379357463E+02 -0.13304252795E+03  0.56379698977E+03  0.57951328136E+03  0.00000000000E+00 0.  1.
<mgrwt>
<rscale>  0 0.16276470E+04</rscale>
<asrwt>0</asrwt>
<pdfrwt beam="1">  1        1 0.31511534E+00 0.16276470E+04</pdfrwt>
<pdfrwt beam="2">  1       -1 0.49746690E-01 0.16276470E+04</pdfrwt>
<totfact> 0.10727510E+01</totfact>
</mgrwt>
</event>
<event>
12    1  0.2083715E-007  0.1941176E+04  0.7818608E-02  0.8634628E-01
          1   -1    0    0  501    0  0.00000000000E+00  0.00000000000E+00  0.11735889537E+04  0.11735889537E+04  0.00000000000E+00 0. -1.
         -1   -1    0    0    0  501 -0.00000000000E+00 -0.00000000000E+00 -0.80270065525E+03  0.80270065525E+03  0.00000000000E+00 0.  1.
         23    2    1    2    0    0 -0.39211346001E+03 -0.62528505565E+03  0.33403869168E+03  0.81460142141E+03  0.85201302121E+02 0.  0.
        254    2    1    2    0    0  0.39211346001E+03  0.62528505565E+03  0.36849606734E+02  0.11616881875E+04  0.89634099825E+03 0.  0.
        -24    2    4    4    0    0  0.42498471055E+03  0.52228385463E+03 -0.34246119213E+03  0.75963682625E+03  0.79849925985E+02 0.  0.
         24    2    4    4    0    0 -0.32871250540E+02  0.10300120102E+03  0.37931079886E+03  0.40205136126E+03  0.77966970141E+02 0.  0.
         11    1    3    3    0    0 -0.39246860583E+02 -0.10934798313E+03  0.32703469323E+02  0.12069305857E+03  0.00000000000E+00 0.  1.
        -11    1    3    3    0    0 -0.35286659943E+03 -0.51593707252E+03  0.30133522236E+03  0.69390836284E+03  0.00000000000E+00 0. -1.
          4    1    6    6  502    0  0.74503033717E+01  0.43492165562E+02  0.58442403129E+02  0.73229706876E+02  0.00000000000E+00 0. -1.
          1    1    5    5  503    0  0.72193578819E+01  0.34305972666E+02 -0.25263885934E+02  0.43212068005E+02  0.00000000000E+00 0. -1.
         -2    1    5    5    0  503  0.41776535267E+03  0.48797788197E+03 -0.31719730619E+03  0.71642475825E+03  0.00000000000E+00 0.  1.
         -3    1    6    6    0  502 -0.40321553912E+02  0.59509035457E+02  0.32086839573E+03  0.32882165438E+03  0.00000000000E+00 0.  1.
<mgrwt>
<rscale>  0 0.19411755E+04</rscale>
<asrwt>0</asrwt>
<pdfrwt beam="1">  1        1 0.18055215E+00 0.19411755E+04</pdfrwt>
<pdfrwt beam="2">  1       -1 0.12349241E+00 0.19411755E+04</pdfrwt>
<totfact> 0.60094384E+00</totfact>
</mgrwt>
</event>
<event>
12    1  0.2083715E-007  0.1949041E+04  0.7818608E-02  0.8630823E-01
          2   -1    0    0  501    0  0.00000000000E+00  0.00000000000E+00  0.15062449381E+04  0.15062449381E+04  0.00000000000E+00 0. -1.
         -2   -1    0    0    0  501 -0.00000000000E+00 -0.00000000000E+00 -0.63050202759E+03  0.63050202759E+03  0.00000000000E+00 0.  1.
         23    2    1    2    0    0  0.31144747154E+03  0.67585990933E+03  0.15140156997E+03  0.76500659744E+03  0.92339125917E+02 0.  0.
        254    2    1    2    0    0 -0.31144747154E+03 -0.67585990933E+03  0.72434134051E+03  0.13717403682E+04  0.89622269314E+03 0.  0.
        -24    2    4    4    0    0  0.11133936268E+03 -0.65215996084E+03  0.20558080837E+03  0.69734602570E+03  0.79491776873E+02 0.  0.
         24    2    4    4    0    0 -0.42278683422E+03 -0.23699948486E+02  0.51876053215E+03  0.67439434253E+03  0.79905223689E+02 0.  0.
         11    1    3    3    0    0 -0.17130805151E+01  0.49805886118E+02  0.83530162181E+01  0.50530523615E+02  0.00000000000E+00 0. -1.
        -11    1    3    3    0    0  0.31316055206E+03  0.62605402321E+03  0.14304855376E+03  0.71447607383E+03  0.00000000000E+00 0.  1.
          4    1    6    6  502    0 -0.85021754710E+02 -0.12660723057E+02  0.15934528326E+03  0.18105223550E+03  0.00000000000E+00 0. -1.
          3    1    5    5  503    0  0.33525842382E+02 -0.12359422363E+03  0.10153574511E+02  0.12846248206E+03  0.00000000000E+00 0. -1.
         -4    1    5    5    0  503  0.77813520298E+02 -0.52856573721E+03  0.19542723386E+03  0.56888354364E+03  0.00000000000E+00 0.  1.
         -3    1    6    6    0  502 -0.33776507951E+03 -0.11039225429E+02  0.35941524889E+03  0.49334210703E+03  0.00000000000E+00 0.  1.
<mgrwt>
<rscale>  0 0.19490413E+04</rscale>
<asrwt>0</asrwt>
<pdfrwt beam="1">  1        2 0.23172999E+00 0.19490413E+04</pdfrwt>
<pdfrwt beam="2">  1       -2 0.97000312E-01 0.19490413E+04</pdfrwt>
<totfact> 0.10426300E+01</totfact>
</mgrwt>
</event>
<event>
12    1  0.2083715E-007  0.1511875E+04  0.7818608E-02  0.8876594E-01
          1   -1    0    0  501    0  0.00000000000E+00  0.00000000000E+00  0.70247716210E+03  0.70247716210E+03  0.00000000000E+00 0. -1.
         -1   -1    0    0    0  501 -0.00000000000E+00 -0.00000000000E+00 -0.81346615339E+03  0.81346615339E+03  0.00000000000E+00 0.  1.
         23    2    1    2    0    0 -0.21784733846E+03 -0.22168891169E+03 -0.41886715996E+03  0.52914152421E+03  0.89093313492E+02 0.  0.
        254    2    1    2    0    0  0.21784733846E+03  0.22168891169E+03  0.30787816867E+03  0.98680179128E+03  0.88452550675E+03 0.  0.
        -24    2    4    4    0    0  0.20610587393E+03  0.52096579430E+03  0.24395776226E+02  0.56690206839E+03  0.83053062249E+02 0.  0.
         24    2    4    4    0    0  0.11741464525E+02 -0.29927688260E+03  0.28348239245E+03  0.41989972289E+03  0.79050591449E+02 0.  0.
         11    1    3    3    0    0 -0.19894290995E+03 -0.15012624513E+03 -0.32782713870E+03  0.41180918368E+03  0.00000000000E+00 0.  1.
        -11    1    3    3    0    0 -0.18904428509E+02 -0.71562666564E+02 -0.91040021268E+02  0.11733234054E+03  0.00000000000E+00 0. -1.
          4    1    6    6  502    0 -0.32760162071E+02 -0.93017497949E+02  0.84451554965E+02  0.12983662149E+03  0.00000000000E+00 0. -1.
          3    1    5    5  503    0  0.53962808186E+02  0.68988977822E+02 -0.12977467088E+02  0.88543087704E+02  0.00000000000E+00 0. -1.
         -4    1    5    5    0  503  0.15214306575E+03  0.45197681647E+03  0.37373243314E+02  0.47835898068E+03  0.00000000000E+00 0.  1.
         -3    1    6    6    0  502  0.44501626596E+02 -0.20625938465E+03  0.19903083748E+03  0.29006310140E+03  0.00000000000E+00 0.  1.
<mgrwt>
<rscale>  0 0.15118749E+04</rscale>
<asrwt>0</asrwt>
<pdfrwt beam="1">  1        1 0.10807341E+00 0.15118749E+04</pdfrwt>
<pdfrwt beam="2">  1       -1 0.12514864E+00 0.15118749E+04</pdfrwt>
<totfact> 0.14616263E+01</totfact>
</mgrwt>
</event>
<event>
12    1  0.2083715E-007  0.2053744E+04  0.7818608E-02  0.8581898E-01
          1   -1    0    0  501    0  0.00000000000E+00  0.00000000000E+00  0.16962834885E+04  0.16962834885E+04  0.00000000000E+00 0. -1.
         -1   -1    0    0    0  501 -0.00000000000E+00 -0.00000000000E+00 -0.62163315325E+03  0.62163315325E+03  0.00000000000E+00 0.  1.
         23    2    1    2    0    0  0.28196203940E+03 -0.72527679888E+03  0.73747479248E+03  0.10772247505E+04  0.10495268896E+03 0.  0.
        254    2    1    2    0    0 -0.28196203940E+03  0.72527679888E+03  0.33717554273E+03  0.12406918912E+04  0.90559372546E+03 0.  0.
        -24    2    4    4    0    0  0.21967417497E+03  0.53255904600E+03 -0.34971420400E+02  0.58237073913E+03  0.77825425920E+02 0.  0.
         24    2    4    4    0    0 -0.50163621437E+03  0.19271775288E+03  0.37214696313E+03  0.65832115206E+03  0.78194330000E+02 0.  0.
         11    1    3    3    0    0  0.24675660438E+03 -0.66232202907E+03  0.62437456936E+03  0.94308159502E+03  0.00000000000E+00 0.  1.
        -11    1    3    3    0    0  0.35205435017E+02 -0.62954769815E+02  0.11310022313E+03  0.13414315550E+03  0.00000000000E+00 0. -1.
          4    1    6    6  502    0 -0.10392817268E+03  0.47574932729E+02  0.43231794415E+02  0.12220240320E+03  0.00000000000E+00 0. -1.
          1    1    5    5  503    0  0.18183130411E+02  0.12739434760E+02  0.70254804596E+01  0.23286837596E+02  0.00000000000E+00 0. -1.
         -2    1    5    5    0  503  0.20149104456E+03  0.51981961124E+03 -0.41996900860E+02  0.55908390153E+03  0.00000000000E+00 0.  1.
         -3    1    6    6    0  502 -0.39770804169E+03  0.14514282015E+03  0.32891516872E+03  0.53611874886E+03  0.00000000000E+00 0.  1.
<mgrwt>
<rscale>  0 0.20537440E+04</rscale>
<asrwt>0</asrwt>
<pdfrwt beam="1">  1        1 0.26096669E+00 0.20537440E+04</pdfrwt>
<pdfrwt beam="2">  1       -1 0.95635870E-01 0.20537440E+04</pdfrwt>
<totfact> 0.46686260E+00</totfact>
</mgrwt>
</event>
<event>
12    1  0.2083715E-007  0.1568202E+04  0.7818608E-02  0.8840324E-01
         -2   -1    0    0    0  501 -0.00000000000E+00  0.00000000000E+00  0.32753351266E+03  0.32753351266E+03  0.00000000000E+00 0.  1.
          2   -1    0    0  501    0  0.00000000000E+00 -0.00000000000E+00 -0.18771047415E+04  0.18771047415E+04  0.00000000000E+00 0. -1.
         23    2    1    2    0    0 -0.35639698710E+03 -0.34441358028E+03 -0.75135525327E+03  0.90381205263E+03  0.81865640939E+02 0.  0.
        254    2    1    2    0    0  0.35639698710E+03  0.34441358028E+03 -0.79821597555E+03  0.13008262015E+04  0.89964467221E+03 0.  0.
        -24    2    4    4    0    0  0.18646989389E+03 -0.29649690849E+03 -0.26539155386E+03  0.44655562724E+03  0.79358763151E+02 0.  0.
         24    2    4    4    0    0  0.16992709321E+03  0.64091048876E+03 -0.53282442169E+03  0.85427057428E+03  0.78961244397E+02 0.  0.
         11    1    3    3    0    0 -0.24457284007E+03 -0.20759094704E+03 -0.42248449106E+03  0.53047433546E+03  0.00000000000E+00 0.  1.
        -11    1    3    3    0    0 -0.11182414702E+03 -0.13682263324E+03 -0.32887076221E+03  0.37333771717E+03  0.00000000000E+00 0. -1.
          4    1    6    6  502    0  0.17109976620E+03  0.61093730636E+03 -0.48835930140E+03  0.80063370498E+03  0.00000000000E+00 0. -1.
          1    1    5    5  503    0  0.18051260320E+03 -0.23191625245E+03 -0.20917005586E+03  0.36072435506E+03  0.00000000000E+00 0. -1.
         -2    1    5    5    0  503  0.59572906891E+01 -0.64580656041E+02 -0.56221497999E+02  0.85831272181E+02  0.00000000000E+00 0.  1.
         -3    1    6    6    0  502 -0.11726729885E+01  0.29973182407E+02 -0.44465120288E+02  0.53636869295E+02  0.00000000000E+00 0.  1.
<mgrwt>
<rscale>  0 0.15682024E+04</rscale>
<asrwt>0</asrwt>
<pdfrwt beam="1">  1        2 0.28878534E+00 0.15682024E+04</pdfrwt>
<pdfrwt beam="2">  1       -2 0.50389772E-01 0.15682024E+04</pdfrwt>
<totfact> 0.27995594E+01</totfact>
</mgrwt>
</event>
<event>
12    1  0.2083715E-007  0.3163482E+04  0.7818608E-02  0.8198529E-01
         -2   -1    0    0    0  501 -0.00000000000E+00  0.00000000000E+00  0.19674673065E+04  0.19674673065E+04  0.00000000000E+00 0. -1.
          2   -1    0    0  501    0  0.00000000000E+00 -0.00000000000E+00 -0.12716372099E+04  0.12716372099E+04  0.00000000000E+00 0.  1.
         23    2    1    2    0    0 -0.13947878413E+04 -0.35718351078E+03  0.51260730563E+03  0.15311427535E+04  0.92836950632E+02 0.  0.
        254    2    1    2    0    0  0.13947878413E+04  0.35718351078E+03  0.18322279098E+03  0.17079617629E+04  0.90030528697E+03 0.  0.
        -24    2    4    4    0    0  0.10274597856E+04  0.51740971920E+03 -0.17217701200E+03  0.11663670389E+04  0.85911100816E+02 0.  0.
         24    2    4    4    0    0  0.36732805562E+03 -0.16022620842E+03  0.35539980298E+03  0.54159472400E+03  0.80084248100E+02 0.  0.
         13    1    3    3    0    0 -0.51549282454E+03 -0.17676324203E+03  0.18084958177E+03  0.57418173701E+03  0.00000000000E+00 0. -1.
        -13    1    3    3    0    0 -0.87929501672E+03 -0.18042026874E+03  0.33175772386E+03  0.95696101652E+03  0.00000000000E+00 0.  1.
          2    1    6    6  502    0  0.20352985720E+03 -0.12377959364E+03  0.23848920620E+03  0.33707994905E+03  0.00000000000E+00 0. -1.
          1    1    5    5  503    0  0.92814820969E+03  0.49132707751E+03 -0.16864240974E+03  0.10636266538E+04  0.00000000000E+00 0. -1.
         -4    1    5    5    0  503  0.99311575954E+02  0.26082641691E+02 -0.35346022644E+01  0.10274038509E+03  0.00000000000E+00 0.  1.
         -1    1    6    6    0  502  0.16379819842E+03 -0.36446614778E+02  0.11691059678E+03  0.20451477495E+03  0.00000000000E+00 0.  1.
<mgrwt>
<rscale>  0 0.31634820E+04</rscale>
<asrwt>0</asrwt>
<pdfrwt beam="1">  1        2 0.19563649E+00 0.31634820E+04</pdfrwt>
<pdfrwt beam="2">  1       -2 0.30268728E+00 0.31634820E+04</pdfrwt>
<totfact> 0.44387878E-01</totfact>
</mgrwt>
</event>
<event>
12    1  0.2083715E-007  0.1938752E+04  0.7818608E-02  0.8635804E-01
          4   -1    0    0  501    0  0.00000000000E+00  0.00000000000E+00  0.29513229671E+03  0.29513229671E+03  0.00000000000E+00 0. -1.
         -4   -1    0    0    0  501 -0.00000000000E+00 -0.00000000000E+00 -0.31839618315E+04  0.31839618315E+04  0.00000000000E+00 0.  1.
         23    2    1    2    0    0 -0.50076886765E+03 -0.47707317080E+03 -0.16765673963E+04  0.18160508246E+04  0.93776832504E+02 0.  0.
        254    2    1    2    0    0  0.50076886765E+03  0.47707317080E+03 -0.12122621385E+04  0.16630433035E+04  0.90430374759E+03 0.  0.
        -24    2    4    4    0    0  0.48164086213E+02  0.55550115235E+03 -0.29958236814E+03  0.63806969955E+03  0.80511096872E+02 0.  0.
         24    2    4    4    0    0  0.45260478143E+03 -0.78427981543E+02 -0.91267977035E+03  0.10249736040E+04  0.81144865531E+02 0.  0.
         11    1    3    3    0    0 -0.33747804466E+03 -0.29668848174E+03 -0.97710158560E+03  0.10754733815E+04  0.00000000000E+00 0. -1.
        -11    1    3    3    0    0 -0.16329082299E+03 -0.18038468906E+03 -0.69946581066E+03  0.74057744308E+03  0.00000000000E+00 0.  1.
          4    1    6    6  502    0  0.37720172312E+03 -0.93159440340E+02 -0.73442576450E+03  0.83086763375E+03  0.00000000000E+00 0. -1.
          1    1    5    5  503    0  0.32734962387E+02  0.43313524178E+03 -0.26927985448E+03  0.51106687964E+03  0.00000000000E+00 0. -1.
         -2    1    5    5    0  503  0.15429123826E+02  0.12236591057E+03 -0.30302513664E+02  0.12700281991E+03  0.00000000000E+00 0.  1.
         -3    1    6    6    0  502  0.75403058310E+02  0.14731458798E+02 -0.17825400585E+03  0.19410597024E+03  0.00000000000E+00 0.  1.
<mgrwt>
<rscale>  0 0.19387521E+04</rscale>
<asrwt>0</asrwt>
<pdfrwt beam="1">  1        4 0.45404968E-01 0.19387521E+04</pdfrwt>
<pdfrwt beam="2">  1       -4 0.48984029E+00 0.19387521E+04</pdfrwt>
<totfact> 0.12947163E-02</totfact>
</mgrwt>
</event>
<event>
12    1  0.2083715E-007  0.3246985E+04  0.7818608E-02  0.8176518E-01
         -2   -1    0    0    0  501 -0.00000000000E+00  0.00000000000E+00  0.12591615085E+04  0.12591615085E+04  0.00000000000E+00 0.  1.
          2   -1    0    0  501    0  0.00000000000E+00 -0.00000000000E+00 -0.20932404411E+04  0.20932404411E+04  0.00000000000E+00 0. -1.
         23    2    1    2    0    0 -0.11220749935E+04  0.97035852444E+03 -0.58740563087E+03  0.15984836651E+04  0.97245541150E+02 0.  0.
        254    2    1    2    0    0  0.11220749935E+04 -0.97035852444E+03 -0.24667330173E+03  0.17539182846E+04  0.90262598804E+03 0.  0.
        -24    2    4    4    0    0  0.80492509656E+03 -0.85604355293E+03  0.19367841612E+03  0.11934421607E+04  0.77960800914E+02 0.  0.
         24    2    4    4    0    0  0.31714989697E+03 -0.11431497151E+03 -0.44035171785E+03  0.56047612392E+03  0.81067133975E+02 0.  0.
         11    1    3    3    0    0 -0.17194719445E+03  0.18317901840E+03 -0.12716708994E+03  0.28158810206E+03  0.00000000000E+00 0. -1.
        -11    1    3    3    0    0 -0.95012779908E+03  0.78717950604E+03 -0.46023854093E+03  0.13168955630E+04  0.00000000000E+00 0.  1.
          2    1    6    6  502    0  0.10489192907E+03 -0.61234240835E+02 -0.21128335208E+03  0.24370597839E+03  0.00000000000E+00 0. -1.
          1    1    5    5  503    0  0.18340114534E+03 -0.18855890025E+03  0.10931101567E+02  0.26326778754E+03  0.00000000000E+00 0. -1.
         -2    1    5    5    0  503  0.62152395122E+03 -0.66748465268E+03  0.18274731455E+03  0.93017437316E+03  0.00000000000E+00 0.  1.
         -1    1    6    6    0  502  0.21225796789E+03 -0.53080730673E+02 -0.22906836577E+03  0.31677014553E+03  0.00000000000E+00 0.  1.
<mgrwt>
<rscale>  0 0.32469849E+04</rscale>
<asrwt>0</asrwt>
<pdfrwt beam="1">  1        2 0.32203699E+00 0.32469849E+04</pdfrwt>
<pdfrwt beam="2">  1       -2 0.19371716E+00 0.32469849E+04</pdfrwt>
<totfact> 0.72776830E-01</totfact>
</mgrwt>
</event>
<event>
12    1  0.2083715E-007  0.2713440E+04  0.7818608E-02  0.8330657E-01
          2   -1    0    0  501    0  0.00000000000E+00  0.00000000000E+00  0.26021807278E+04  0.26021807278E+04  0.00000000000E+00 0. -1.
         -2   -1    0    0    0  501 -0.00000000000E+00 -0.00000000000E+00 -0.70736403297E+03  0.70736403297E+03  0.00000000000E+00 0.  1.
         23    2    1    2    0    0 -0.86909237558E+02  0.11948211605E+04  0.99904786286E+03  0.15626474719E+04  0.92842167488E+02 0.  0.
        254    2    1    2    0    0  0.86909237558E+02 -0.11948211605E+04  0.89576883202E+03  0.17468972889E+04  0.90227352639E+03 0.  0.
        -24    2    4    4    0    0 -0.32152178042E+03 -0.13373585320E+03  0.26699049654E+03  0.44522164957E+03  0.75344928750E+02 0.  0.
         24    2    4    4    0    0  0.40843101798E+03 -0.10610853073E+04  0.62877833547E+03  0.13016756393E+04  0.79242343884E+02 0.  0.
         11    1    3    3    0    0  0.20126741515E+02  0.19378390880E+03  0.16158056694E+03  0.25311177105E+03  0.00000000000E+00 0.  1.
        -11    1    3    3    0    0 -0.10703597907E+03  0.10010372517E+04  0.83746729592E+03  0.13095357009E+04  0.00000000000E+00 0. -1.
          4    1    6    6  502    0  0.23667673506E+03 -0.61838866452E+03  0.41053837035E+03  0.77907776945E+03  0.00000000000E+00 0. -1.
          1    1    5    5  503    0 -0.11819182524E+03 -0.21741982898E+02  0.60528796551E+02  0.13455763295E+03  0.00000000000E+00 0. -1.
         -2    1    5    5    0  503 -0.20332995518E+03 -0.11199387030E+03  0.20646169999E+03  0.31066401662E+03  0.00000000000E+00 0.  1.
         -3    1    6    6    0  502  0.17175428291E+03 -0.44269664277E+03  0.21823996512E+03  0.52259786987E+03  0.00000000000E+00 0.  1.
<mgrwt>
<rscale>  0 0.27134399E+04</rscale>
<asrwt>0</asrwt>
<pdfrwt beam="1">  1        2 0.40033549E+00 0.27134399E+04</pdfrwt>
<pdfrwt beam="2">  1       -2 0.10882524E+00 0.27134399E+04</pdfrwt>
<totfact> 0.17925412E+00</totfact>
</mgrwt>
</event>
<event>
12    1  0.2083715E-007  0.3069597E+04  0.7818608E-02  0.8224132E-01
          2   -1    0    0  501    0  0.00000000000E+00  0.00000000000E+00  0.31094142651E+04  0.31094142651E+04  0.00000000000E+00 0. -1.
         -2   -1    0    0    0  501 -0.00000000000E+00 -0.00000000000E+00 -0.75757219202E+03  0.75757219202E+03  0.00000000000E+00 0.  1.
         23    2    1    2    0    0  0.97686682722E+02 -0.13012737984E+04  0.43189156018E+03  0.13775627266E+04  0.91063490886E+02 0.  0.
        254    2    1    2    0    0 -0.97686682722E+02  0.13012737984E+04  0.19199505129E+04  0.24894237306E+04  0.89897961702E+03 0.  0.
        -24    2    4    4    0    0  0.37847748257E+03  0.42835705664E+03  0.83996264527E+03  0.10191102607E+04  0.79457569220E+02 0.  0.
         24    2    4    4    0    0 -0.47616416529E+03  0.87291674180E+03  0.10799878676E+04  0.14703134698E+04  0.82048491148E+02 0.  0.
         11    1    3    3    0    0  0.89148834190E+02 -0.70805732639E+03  0.26496690627E+03  0.76124907455E+03  0.00000000000E+00 0.  1.
        -11    1    3    3    0    0  0.85378485320E+01 -0.59321647205E+03  0.16692465392E+03  0.61631365201E+03  0.00000000000E+00 0. -1.
          4    1    6    6  502    0 -0.11423259557E+03  0.21131811845E+03  0.31459573011E+03  0.39582181153E+03  0.00000000000E+00 0. -1.
          1    1    5    5  503    0  0.77210510978E+02  0.12378778038E+03  0.17157763474E+03  0.22521936489E+03  0.00000000000E+00 0. -1.
         -2    1    5    5    0  503  0.30126697159E+03  0.30456927626E+03  0.66838501054E+03  0.79389089586E+03  0.00000000000E+00 0.  1.
         -3    1    6    6    0  502 -0.36193156972E+03  0.66159862334E+03  0.76539213751E+03  0.10744916583E+04  0.00000000000E+00 0.  1.
<mgrwt>
<rscale>  0 0.30695966E+04</rscale>
<asrwt>0</asrwt>
<pdfrwt beam="1">  1        2 0.47837142E+00 0.30695966E+04</pdfrwt>
<pdfrwt beam="2">  1       -2 0.11654957E+00 0.30695966E+04</pdfrwt>
<totfact> 0.72030567E-01</totfact>
</mgrwt>
</event>
<event>
12    1  0.2083715E-007  0.1530931E+04  0.7818608E-02  0.8864141E-01
         -1   -1    0    0    0  501 -0.00000000000E+00  0.00000000000E+00  0.94544513107E+03  0.94544513107E+03  0.00000000000E+00 0.  1.
          1   -1    0    0  501    0  0.00000000000E+00 -0.00000000000E+00 -0.61974791791E+03  0.61974791791E+03  0.00000000000E+00 0. -1.
         23    2    1    2    0    0  0.85473720721E+02 -0.31477738777E+03 -0.27048775493E+03  0.43328962411E+03  0.90474924733E+02 0.  0.
        254    2    1    2    0    0 -0.85473720721E+02  0.31477738777E+03  0.59618496810E+03  0.11319034249E+04  0.90519516473E+03 0.  0.
        -24    2    4    4    0    0  0.20609649670E+03 -0.10430152023E+03 -0.10069944278E+03  0.26438687176E+03  0.80034162125E+02 0.  0.
         24    2    4    4    0    0 -0.29157021742E+03  0.41907890800E+03  0.69688441088E+03  0.86751655311E+03  0.79352158027E+02 0.  0.
         11    1    3    3    0    0  0.10988180968E+02 -0.15042477625E+03 -0.79319861792E+02  0.17041124936E+03  0.00000000000E+00 0. -1.
        -11    1    3    3    0    0  0.74485539754E+02 -0.16435261152E+03 -0.19116789314E+03  0.26287837475E+03  0.00000000000E+00 0.  1.
          2    1    6    6  502    0 -0.15117033968E+02  0.48416445382E+01  0.41147293459E+02  0.44102902363E+02  0.00000000000E+00 0. -1.
          1    1    5    5  503    0 -0.41460690240E+00  0.87909726173E+01 -0.57497841921E+01  0.10512521900E+02  0.00000000000E+00 0. -1.
         -2    1    5    5    0  503  0.20651110361E+03 -0.11309249284E+03 -0.94949658587E+02  0.25387434986E+03  0.00000000000E+00 0.  1.
         -1    1    6    6    0  502 -0.27645318346E+03  0.41423726346E+03  0.65573711742E+03  0.82341365075E+03  0.00000000000E+00 0.  1.
<mgrwt>
<rscale>  0 0.15309313E+04</rscale>
<asrwt>0</asrwt>
<pdfrwt beam="1">  1        1 0.95345834E-01 0.15309313E+04</pdfrwt>
<pdfrwt beam="2">  1       -1 0.14545310E+00 0.15309313E+04</pdfrwt>
<totfact> 0.11947255E+01</totfact>
</mgrwt>
</event>
<event>
12    1  0.2083715E-007  0.3324127E+04  0.7818608E-02  0.8156783E-01
         -1   -1    0    0    0  501 -0.00000000000E+00  0.00000000000E+00  0.11043878160E+04  0.11043878160E+04  0.00000000000E+00 0.  1.
          1   -1    0    0  501    0  0.00000000000E+00 -0.00000000000E+00 -0.25013455335E+04  0.25013455335E+04  0.00000000000E+00 0. -1.
         23    2    1    2    0    0  0.13925268064E+04  0.22858001643E+02 -0.13583802125E+04  0.19474747780E+04  0.88361838987E+02 0.  0.
        254    2    1    2    0    0 -0.13925268064E+04 -0.22858001643E+02 -0.38577505009E+02  0.16582585715E+04  0.89926629620E+03 0.  0.
        -24    2    4    4    0    0 -0.96399926508E+03 -0.21199926336E+03 -0.39352137587E+03  0.10653663456E+04  0.76864206462E+02 0.  0.
         24    2    4    4    0    0 -0.42852754130E+03  0.18914126171E+03  0.35494387086E+03  0.59289222599E+03  0.78267296107E+02 0.  0.
         11    1    3    3    0    0  0.71539771813E+03  0.34783151259E+02 -0.75073003487E+03  0.10375930551E+04  0.00000000000E+00 0. -1.
        -11    1    3    3    0    0  0.67712908825E+03 -0.11925149617E+02 -0.60765017763E+03  0.90988172293E+03  0.00000000000E+00 0.  1.
          2    1    6    6  502    0 -0.38001834044E+03  0.19288654872E+03  0.32192187075E+03  0.53409067640E+03  0.00000000000E+00 0. -1.
          3    1    5    5  503    0 -0.63858062924E+03 -0.13352792342E+03 -0.29819814718E+03  0.71731238756E+03  0.00000000000E+00 0. -1.
         -4    1    5    5    0  503 -0.32541863584E+03 -0.78471339936E+02 -0.95323228685E+02  0.34805395799E+03  0.00000000000E+00 0.  1.
         -1    1    6    6    0  502 -0.48509200859E+02 -0.37452870073E+01  0.33022000111E+02  0.58801549590E+02  0.00000000000E+00 0.  1.
<mgrwt>
<rscale>  0 0.33241273E+04</rscale>
<asrwt>0</asrwt>
<pdfrwt beam="1">  1        1 0.38482239E+00 0.33241273E+04</pdfrwt>
<pdfrwt beam="2">  1       -1 0.16990582E+00 0.33241273E+04</pdfrwt>
<totfact> 0.27577132E-01</totfact>
</mgrwt>
</event>
<event>
12    1  0.2083715E-007  0.2528503E+04  0.7818608E-02  0.8392901E-01
         -1   -1    0    0    0  501 -0.00000000000E+00  0.00000000000E+00  0.70611197551E+03  0.70611197551E+03  0.00000000000E+00 0.  1.
          1   -1    0    0  501    0  0.00000000000E+00 -0.00000000000E+00 -0.22635665787E+04  0.22635665787E+04  0.00000000000E+00 0. -1.
         23    2    1    2    0    0 -0.10885948124E+04  0.15357756362E+03 -0.59165016247E+03  0.12517811057E+04  0.91001583367E+02 0.  0.
        254    2    1    2    0    0  0.10885948124E+04 -0.15357756362E+03 -0.96580444073E+03  0.17178974485E+04  0.89987148655E+03 0.  0.
        -24    2    4    4    0    0  0.41452605195E+03  0.16510828362E+03 -0.84405325095E+03  0.95821770112E+03  0.81625236534E+02 0.  0.
         24    2    4    4    0    0  0.67406876045E+03 -0.31868584723E+03 -0.12175118978E+03  0.75967974741E+03  0.79753390976E+02 0.  0.
         11    1    3    3    0    0 -0.29552885132E+03  0.73160804183E+02 -0.13419480723E+03  0.33271316703E+03  0.00000000000E+00 0. -1.
        -11    1    3    3    0    0 -0.79306596109E+03  0.80416759433E+02 -0.45745535524E+03  0.91906793866E+03  0.00000000000E+00 0.  1.
          2    1    6    6  502    0  0.31331137559E+03 -0.19218107985E+03 -0.61528023084E+02  0.37267047529E+03  0.00000000000E+00 0. -1.
          1    1    5    5  503    0  0.44329404446E+02  0.37627006937E+02 -0.71883299223E+02  0.92455916289E+02  0.00000000000E+00 0. -1.
         -2    1    5    5    0  503  0.37019664750E+03  0.12748127668E+03 -0.77216995173E+03  0.86576178483E+03  0.00000000000E+00 0.  1.
         -1    1    6    6    0  502  0.36075738486E+03 -0.12650476738E+03 -0.60223166696E+02  0.38700927212E+03  0.00000000000E+00 0.  1.
<mgrwt>
<rscale>  0 0.25285027E+04</rscale>
<asrwt>0</asrwt>
<pdfrwt beam="1">  1        1 0.34824101E+00 0.25285027E+04</pdfrwt>
<pdfrwt beam="2">  1       -1 0.10863261E+00 0.25285027E+04</pdfrwt>
<totfact> 0.13728023E+00</totfact>
</mgrwt>
</event>
<event>
12    1  0.2284161E-007  0.3154542E+04  0.7818608E-02  0.8200927E-01
          1   -1    0    0  501    0  0.00000000000E+00  0.00000000000E+00  0.15836516955E+04  0.15836516955E+04  0.00000000000E+00 0. -1.
         -1   -1    0    0    0  501 -0.00000000000E+00 -0.00000000000E+00 -0.15709160083E+04  0.15709160083E+04  0.00000000000E+00 0.  1.
         23    2    1    2    0    0  0.11373673960E+04 -0.84889108931E+03 -0.27680665720E+03  0.14489061685E+04  0.92122119193E+02 0.  0.
        254    2    1    2    0    0 -0.11373673960E+04  0.84889108931E+03  0.28954234438E+03  0.17056615353E+04  0.90068075867E+03 0.  0.
        -24    2    4    4    0    0 -0.17212397747E+03  0.64974905243E+03  0.23044594579E+03  0.71512485217E+03  0.80608470405E+02 0.  0.
         24    2    4    4    0    0 -0.96524341849E+03  0.19914203687E+03  0.59096398594E+02  0.99053668317E+03  0.79486656668E+02 0.  0.
         11    1    3    3    0    0  0.72356415823E+03 -0.59109967862E+03 -0.19756395987E+03  0.95497405168E+03  0.00000000000E+00 0.  1.
        -11    1    3    3    0    0  0.41380323773E+03 -0.25779141069E+03 -0.79242697328E+02  0.49393211686E+03  0.00000000000E+00 0. -1.
          4    1    6    6  502    0 -0.68672796231E+03  0.16220539917E+03  0.12433882507E+02  0.70573400596E+03  0.00000000000E+00 0. -1.
          3    1    5    5  503    0 -0.16041506971E+03  0.58194004949E+03  0.23093335951E+03  0.64631063145E+03  0.00000000000E+00 0. -1.
         -4    1    5    5    0  503 -0.11708907764E+02  0.67809002940E+02 -0.48741372216E+00  0.68814220717E+02  0.00000000000E+00 0.  1.
         -3    1    6    6    0  502 -0.27851545618E+03  0.36936637702E+02  0.46662516087E+02  0.28480267721E+03  0.00000000000E+00 0.  1.
<mgrwt>
<rscale>  0 0.31545420E+04</rscale>
<asrwt>0</asrwt>
<pdfrwt beam="1">  1        1 0.24363872E+00 0.31545420E+04</pdfrwt>
<pdfrwt beam="2">  1       -1 0.24167939E+00 0.31545420E+04</pdfrwt>
<totfact> 0.38016688E-01</totfact>
</mgrwt>
</event>
<event>
12    1  0.2083715E-007  0.3086308E+04  0.7818608E-02  0.8219506E-01
         -1   -1    0    0    0  501 -0.00000000000E+00  0.00000000000E+00  0.90667055190E+03  0.90667055190E+03  0.00000000000E+00 0.  1.
          1   -1    0    0  501    0  0.00000000000E+00 -0.00000000000E+00 -0.26264499162E+04  0.26264499162E+04  0.00000000000E+00 0. -1.
         23    2    1    2    0    0  0.16820763777E+03  0.12921133606E+04 -0.17139473958E+03  0.13172342886E+04  0.88765243143E+02 0.  0.
        254    2    1    2    0    0 -0.16820763777E+03 -0.12921133606E+04 -0.15483846247E+04  0.22158861795E+04  0.90266597826E+03 0.  0.
        -24    2    4    4    0    0  0.18098581910E+03 -0.11590492565E+03  0.12041270494E+02  0.22924940363E+03  0.78870009284E+02 0.  0.
         24    2    4    4    0    0 -0.34919345687E+03 -0.11762084349E+04 -0.15604258952E+04  0.19866367758E+04  0.79964691916E+02 0.  0.
         13    1    3    3    0    0  0.23237593976E+01  0.28217540178E+03 -0.50157380225E+02  0.28660795526E+03  0.00000000000E+00 0. -1.
        -13    1    3    3    0    0  0.16588387838E+03  0.10099379588E+04 -0.12123735935E+03  0.10306263334E+04  0.00000000000E+00 0.  1.
          4    1    6    6  502    0 -0.24319305843E+03 -0.74486011015E+03 -0.94340340100E+03  0.12263643114E+04  0.00000000000E+00 0. -1.
          3    1    5    5  503    0  0.63226729710E+02 -0.37358503964E+02 -0.33268899151E+02  0.80623177927E+02  0.00000000000E+00 0. -1.
         -4    1    5    5    0  503  0.11775908939E+03 -0.78546421684E+02  0.45310169646E+02  0.14862622570E+03  0.00000000000E+00 0.  1.
         -3    1    6    6    0  502 -0.10600039844E+03 -0.43134832479E+03 -0.61702249420E+03  0.76027246439E+03  0.00000000000E+00 0.  1.
<mgrwt>
<rscale>  0 0.30863083E+04</rscale>
<asrwt>0</asrwt>
<pdfrwt beam="1">  1        1 0.40406921E+00 0.30863083E+04</pdfrwt>
<pdfrwt beam="2">  1       -1 0.13948778E+00 0.30863083E+04</pdfrwt>
<totfact> 0.39510191E-01</totfact>
</mgrwt>
</event>
<event>
12    1  0.2083715E-007  0.1372530E+04  0.7818608E-02  0.8973946E-01
         -2   -1    0    0    0  501 -0.00000000000E+00  0.00000000000E+00  0.19416415696E+03  0.19416415696E+03  0.00000000000E+00 0.  1.
          2   -1    0    0  501    0  0.00000000000E+00 -0.00000000000E+00 -0.24255754165E+04  0.24255754165E+04  0.00000000000E+00 0. -1.
         23    2    1    2    0    0 -0.12748759102E+03 -0.19909594482E+02  0.44245698972E+02  0.16515534232E+03  0.93108148952E+02 0.  0.
        254    2    1    2    0    0  0.12748759102E+03  0.19909594482E+02 -0.22756569585E+04  0.24545842312E+04  0.91088949779E+03 0.  0.
        -24    2    4    4    0    0 -0.26802568241E+03 -0.89605863661E+02 -0.17896733755E+04  0.18136117707E+04  0.79936765530E+02 0.  0.
         24    2    4    4    0    0  0.39551327343E+03  0.10951545814E+03 -0.48598358304E+03  0.64097246051E+03  0.79001690607E+02 0.  0.
         11    1    3    3    0    0 -0.11263206071E+03  0.64356188106E+01  0.63346539980E+02  0.12938385686E+03  0.00000000000E+00 0.  1.
        -11    1    3    3    0    0 -0.14855530308E+02 -0.26345213293E+02 -0.19100841008E+02  0.35771485451E+02  0.00000000000E+00 0. -1.
          4    1    6    6  502    0  0.35421595405E+03  0.12145161648E+03 -0.42610371022E+03  0.56725991319E+03  0.00000000000E+00 0. -1.
          1    1    5    5  503    0 -0.24333617290E+03 -0.94030665732E+02 -0.14710096344E+04  0.14939623836E+04  0.00000000000E+00 0. -1.
         -2    1    5    5    0  503 -0.24689509518E+02  0.44248020716E+01 -0.31866374112E+03  0.31964938708E+03  0.00000000000E+00 0.  1.
         -3    1    6    6    0  502  0.41297319383E+02 -0.11936158337E+02 -0.59879872812E+02  0.73712547318E+02  0.00000000000E+00 0.  1.
<mgrwt>
<rscale>  0 0.13725302E+04</rscale>
<asrwt>0</asrwt>
<pdfrwt beam="1">  1        2 0.37316545E+00 0.13725302E+04</pdfrwt>
<pdfrwt beam="2">  1       -2 0.29871409E-01 0.13725302E+04</pdfrwt>
<totfact> 0.38872255E+01</totfact>
</mgrwt>
</event>
<event>
12    1  0.2579424E-007  0.1706031E+04  0.7818608E-02  0.8757932E-01
          1   -1    0    0  501    0  0.00000000000E+00  0.00000000000E+00  0.18100882237E+04  0.18100882237E+04  0.00000000000E+00 0. -1.
         -1   -1    0    0    0  501 -0.00000000000E+00 -0.00000000000E+00 -0.40198889833E+03  0.40198889833E+03  0.00000000000E+00 0.  1.
         23    2    1    2    0    0  0.26213831234E+03 -0.52487330028E+03  0.72138434404E+03  0.93426035772E+03  0.90766557911E+02 0.  0.
        254    2    1    2    0    0 -0.26213831234E+03  0.52487330028E+03  0.68671498137E+03  0.12778167643E+04  0.90389697502E+03 0.  0.
        -24    2    4    4    0    0 -0.56807742813E+03  0.29172043473E+03  0.59024124796E+03  0.87330222828E+03  0.80369613319E+02 0.  0.
         24    2    4    4    0    0  0.30593911579E+03  0.23315286555E+03  0.96473733414E+02  0.40451453606E+03  0.79786135165E+02 0.  0.
         13    1    3    3    0    0  0.58324535216E+02 -0.20578693419E+03  0.28879482547E+03  0.35937788595E+03  0.00000000000E+00 0. -1.
        -13    1    3    3    0    0  0.20381377712E+03 -0.31908636609E+03  0.43258951857E+03  0.57488247177E+03  0.00000000000E+00 0.  1.
          4    1    6    6  502    0  0.35237256949E+02  0.81763224384E+01 -0.85973800071E+01  0.37181063310E+02  0.00000000000E+00 0. -1.
          1    1    5    5  503    0 -0.71892990191E+02  0.50668204415E+02  0.11775750664E+03  0.14697856765E+03  0.00000000000E+00 0. -1.
         -2    1    5    5    0  503 -0.49618443794E+03  0.24105223032E+03  0.47248374132E+03  0.72632366064E+03  0.00000000000E+00 0.  1.
         -3    1    6    6    0  502  0.27070185884E+03  0.22497654311E+03  0.10507111342E+03  0.36733347275E+03  0.00000000000E+00 0.  1.
<mgrwt>
<rscale>  0 0.17060309E+04</rscale>
<asrwt>0</asrwt>
<pdfrwt beam="1">  1        1 0.27847511E+00 0.17060309E+04</pdfrwt>
<pdfrwt beam="2">  1       -1 0.61844447E-01 0.17060309E+04</pdfrwt>
<totfact> 0.10115228E+01</totfact>
</mgrwt>
</event>
<event>
12    1  0.2083715E-007  0.1541477E+04  0.7818608E-02  0.8857330E-01
         -1   -1    0    0    0  501 -0.00000000000E+00  0.00000000000E+00  0.71032215336E+03  0.71032215336E+03  0.00000000000E+00 0. -1.
          1   -1    0    0  501    0  0.00000000000E+00 -0.00000000000E+00 -0.83629371560E+03  0.83629371560E+03  0.00000000000E+00 0.  1.
         23    2    1    2    0    0 -0.24992032576E+03 -0.42772163535E+03 -0.99950190914E+02  0.51912993900E+03  0.11874294221E+03 0.  0.
        254    2    1    2    0    0  0.24992032576E+03  0.42772163535E+03 -0.26021371329E+02  0.10274859300E+04  0.89980234380E+03 0.  0.
        -24    2    4    4    0    0  0.42707314419E+03 -0.73355088422E+02  0.14410565378E+03  0.46354589456E+03  0.79598476299E+02 0.  0.
         24    2    4    4    0    0 -0.17715281842E+03  0.50107672378E+03 -0.17012702511E+03  0.56394003540E+03  0.81388909959E+02 0.  0.
         13    1    3    3    0    0 -0.23998979415E+03 -0.37262929553E+03 -0.53603251380E+02  0.44645380695E+03  0.00000000000E+00 0. -1.
        -13    1    3    3    0    0 -0.99305316134E+01 -0.55092339823E+02 -0.46346939534E+02  0.72676132048E+02  0.00000000000E+00 0.  1.
          4    1    6    6  502    0 -0.17783097542E+02  0.27056649692E+02 -0.31068417776E+02  0.44872568835E+02  0.00000000000E+00 0. -1.
          3    1    5    5  503    0  0.63685754901E+01 -0.14355251982E+02  0.64649686318E+01  0.16983163211E+02  0.00000000000E+00 0. -1.
         -4    1    5    5    0  503  0.42070456870E+03 -0.58999836441E+02  0.13764068515E+03  0.44656273135E+03  0.00000000000E+00 0.  1.
         -3    1    6    6    0  502 -0.15936972088E+03  0.47402007408E+03 -0.13905860733E+03  0.51906746656E+03  0.00000000000E+00 0.  1.
<mgrwt>
<rscale>  0 0.15414772E+04</rscale>
<asrwt>0</asrwt>
<pdfrwt beam="1">  1        1 0.12866057E+00 0.15414772E+04</pdfrwt>
<pdfrwt beam="2">  1       -1 0.10928033E+00 0.15414772E+04</pdfrwt>
<totfact> 0.15378141E+01</totfact>
</mgrwt>
</event>
<event>
12    1  0.2083715E-007  0.1684146E+04  0.7818608E-02  0.8770458E-01
         -2   -1    0    0    0  501 -0.00000000000E+00  0.00000000000E+00  0.81994276062E+03  0.81994276062E+03  0.00000000000E+00 0.  1.
          2   -1    0    0  501    0  0.00000000000E+00 -0.00000000000E+00 -0.86480095838E+03  0.86480095838E+03  0.00000000000E+00 0. -1.
         23    2    1    2    0    0  0.13506976543E+02  0.44787756337E+03 -0.41512484318E+03  0.61767429645E+03  0.91739581864E+02 0.  0.
        254    2    1    2    0    0 -0.13506976543E+02 -0.44787756337E+03  0.37026664541E+03  0.10670694226E+04  0.89485362694E+03 0.  0.
        -24    2    4    4    0    0 -0.36579710276E+03 -0.35828668721E+03 -0.31930826658E+02  0.51925779907E+03  0.80201082199E+02 0.  0.
         24    2    4    4    0    0  0.35229012622E+03 -0.89590876161E+02  0.40219747207E+03  0.54781162348E+03  0.78739508274E+02 0.  0.
         11    1    3    3    0    0 -0.14174253227E+02  0.37711568978E+03 -0.31244562437E+03  0.48993818092E+03  0.00000000000E+00 0.  1.
        -11    1    3    3    0    0  0.27681229770E+02  0.70761873592E+02 -0.10267921880E+03  0.12773611553E+03  0.00000000000E+00 0. -1.
          4    1    6    6  502    0  0.14466386919E+03 -0.77096138667E+02  0.17562167504E+03  0.24023826171E+03  0.00000000000E+00 0. -1.
          1    1    5    5  503    0 -0.60693720220E+01 -0.25332533139E+02  0.85665774571E+01  0.27421902949E+02  0.00000000000E+00 0. -1.
         -2    1    5    5    0  503 -0.35972773074E+03 -0.33295415407E+03 -0.40497404115E+02  0.49183589612E+03  0.00000000000E+00 0.  1.
         -3    1    6    6    0  502  0.20762625703E+03 -0.12494737494E+02  0.22657579704E+03  0.30757336178E+03  0.00000000000E+00 0.  1.
<mgrwt>
<rscale>  0 0.16841464E+04</rscale>
<asrwt>0</asrwt>
<pdfrwt beam="1">  1        2 0.13304630E+00 0.16841464E+04</pdfrwt>
<pdfrwt beam="2">  1       -2 0.12614504E+00 0.16841464E+04</pdfrwt>
<totfact> 0.13836948E+01</totfact>
</mgrwt>
</event>
<event>
12    1  0.2083715E-007  0.1404343E+04  0.7818608E-02  0.8950681E-01
          2   -1    0    0  501    0  0.00000000000E+00  0.00000000000E+00  0.27613724357E+04  0.27613724357E+04  0.00000000000E+00 0. -1.
         -2   -1    0    0    0  501 -0.00000000000E+00 -0.00000000000E+00 -0.17855073865E+03  0.17855073865E+03  0.00000000000E+00 0.  1.
         23    2    1    2    0    0  0.32367382110E+01 -0.40413731053E+03  0.67205687296E+03  0.78974726790E+03  0.93289144143E+02 0.  0.
        254    2    1    2    0    0 -0.32367382110E+01  0.40413731053E+03  0.19107648240E+04  0.21501759064E+04  0.89938688755E+03 0.  0.
        -24    2    4    4    0    0 -0.72070861909E+02 -0.46089559154E+02  0.15732471905E+04  0.15776394563E+04  0.80753174496E+02 0.  0.
         24    2    4    4    0    0  0.68834123698E+02  0.45022686968E+03  0.33751763356E+03  0.57253645009E+03  0.80233801799E+02 0.  0.
         11    1    3    3    0    0 -0.18482313788E+02 -0.10587923068E+03  0.25342166980E+03  0.27527177505E+03  0.00000000000E+00 0. -1.
        -11    1    3    3    0    0  0.21719051999E+02 -0.29825807985E+03  0.41863520316E+03  0.51447549285E+03  0.00000000000E+00 0.  1.
          2    1    6    6  502    0  0.64908207781E+02  0.44291799847E+03  0.31185661386E+03  0.54556757273E+03  0.00000000000E+00 0. -1.
          3    1    5    5  503    0 -0.17031102063E+02 -0.49045652976E+02  0.10943197775E+04  0.10955506880E+04  0.00000000000E+00 0. -1.
         -4    1    5    5    0  503 -0.55039759846E+02  0.29560938216E+01  0.47892741302E+03  0.48208876837E+03  0.00000000000E+00 0.  1.
         -1    1    6    6    0  502  0.39259159174E+01  0.73088712113E+01  0.25661019697E+02  0.26968877360E+02  0.00000000000E+00 0.  1.
<mgrwt>
<rscale>  0 0.14043434E+04</rscale>
<asrwt>0</asrwt>
<pdfrwt beam="1">  1        2 0.42482650E+00 0.14043434E+04</pdfrwt>
<pdfrwt beam="2">  1       -2 0.27469347E-01 0.14043434E+04</pdfrwt>
<totfact> 0.28847187E+01</totfact>
</mgrwt>
</event>
<event>
12    1  0.3248019E-007  0.3126981E+04  0.7818608E-02  0.8208372E-01
         -2   -1    0    0    0  501 -0.00000000000E+00  0.00000000000E+00  0.91638255159E+03  0.91638255159E+03  0.00000000000E+00 0. -1.
          2   -1    0    0  501    0  0.00000000000E+00 -0.00000000000E+00 -0.26675576488E+04  0.26675576488E+04  0.00000000000E+00 0.  1.
         23    2    1    2    0    0  0.13314576716E+04 -0.52879452857E+03 -0.76811216527E+03  0.16281695764E+04  0.92394190810E+02 0.  0.
        254    2    1    2    0    0 -0.13314576716E+04  0.52879452857E+03 -0.98306293197E+03  0.19557706240E+04  0.89789911504E+03 0.  0.
        -24    2    4    4    0    0 -0.58866956777E+03  0.62621076103E+03 -0.80725539768E+03  0.11819374120E+04  0.81504549697E+02 0.  0.
         24    2    4    4    0    0 -0.74278810382E+03 -0.97416232459E+02 -0.17580753429E+03  0.77383321196E+03  0.81764670286E+02 0.  0.
         13    1    3    3    0    0  0.32470149719E+03 -0.16985925413E+03 -0.21125489668E+03  0.42297973930E+03  0.00000000000E+00 0.  1.
        -13    1    3    3    0    0  0.10067561744E+04 -0.35893527444E+03 -0.55685726860E+03  0.12051898371E+04  0.00000000000E+00 0. -1.
          4    1    6    6  502    0 -0.59935847859E+03 -0.45996072265E+02 -0.13496285001E+03  0.61608537996E+03  0.00000000000E+00 0. -1.
          3    1    5    5  503    0 -0.34238625376E+03  0.38342097538E+03 -0.53363250754E+03  0.74094780128E+03  0.00000000000E+00 0. -1.
         -4    1    5    5    0  503 -0.24628331401E+03  0.24278978564E+03 -0.27362289014E+03  0.44098961074E+03  0.00000000000E+00 0.  1.
         -3    1    6    6    0  502 -0.14342962523E+03 -0.51420160194E+02 -0.40844684275E+02  0.15774783200E+03  0.00000000000E+00 0.  1.
<mgrwt>
<rscale>  0 0.31269815E+04</rscale>
<asrwt>0</asrwt>
<pdfrwt beam="1">  1        2 0.41039348E+00 0.31269815E+04</pdfrwt>
<pdfrwt beam="2">  1       -2 0.14098193E+00 0.31269815E+04</pdfrwt>
<totfact> 0.82914602E-01</totfact>
</mgrwt>
</event>
<event>
12    1  0.2083715E-007  0.2430643E+04  0.7818608E-02  0.8428119E-01
          1   -1    0    0  501    0  0.00000000000E+00  0.00000000000E+00  0.94944831746E+03  0.94944831746E+03  0.00000000000E+00 0. -1.
         -1   -1    0    0    0  501 -0.00000000000E+00 -0.00000000000E+00 -0.15556474736E+04  0.15556474736E+04  0.00000000000E+00 0.  1.
         23    2    1    2    0    0 -0.58976108108E+03 -0.86353891697E+03 -0.23870060507E+03  0.10765257013E+04  0.91717025585E+02 0.  0.
        254    2    1    2    0    0  0.58976108108E+03  0.86353891697E+03 -0.36749855109E+03  0.14285700898E+04  0.90124343136E+03 0.  0.
        -24    2    4    4    0    0  0.50108341495E+03  0.63186796410E+03 -0.65369387390E+03  0.10416853659E+04  0.86319221305E+02 0.  0.
         24    2    4    4    0    0  0.88677666127E+02  0.23167095287E+03  0.28619532281E+03  0.38688472391E+03  0.78973843258E+02 0.  0.
         11    1    3    3    0    0 -0.25952678361E+03 -0.35215594608E+03 -0.56428191719E+02  0.44108060781E+03  0.00000000000E+00 0. -1.
        -11    1    3    3    0    0 -0.33023429747E+03 -0.51138297090E+03 -0.18227241336E+03  0.63544509348E+03  0.00000000000E+00 0.  1.
          2    1    6    6  502    0  0.82640586331E+02  0.10943447538E+03  0.13593207899E+03  0.19308780647E+03  0.00000000000E+00 0. -1.
          1    1    5    5  503    0  0.41005218887E+02  0.86781997651E+02 -0.10089891688E+03  0.13925923495E+03  0.00000000000E+00 0. -1.
         -2    1    5    5    0  503  0.46007819607E+03  0.54508596645E+03 -0.55279495702E+03  0.90242613095E+03  0.00000000000E+00 0.  1.
         -1    1    6    6    0  502  0.60370797957E+01  0.12223647750E+03  0.15026324382E+03  0.19379691744E+03  0.00000000000E+00 0.  1.
<mgrwt>
<rscale>  0 0.24306434E+04</rscale>
<asrwt>0</asrwt>
<pdfrwt beam="1">  1        1 0.14606897E+00 0.24306434E+04</pdfrwt>
<pdfrwt beam="2">  1       -1 0.23933038E+00 0.24306434E+04</pdfrwt>
<totfact> 0.12144145E+00</totfact>
</mgrwt>
</event>
<event>
12    1  0.2083715E-007  0.2176932E+04  0.7818608E-02  0.8528091E-01
         -2   -1    0    0    0  501 -0.00000000000E+00  0.00000000000E+00  0.26448717348E+04  0.26448717348E+04  0.00000000000E+00 0.  1.
          2   -1    0    0  501    0  0.00000000000E+00 -0.00000000000E+00 -0.44794538790E+03  0.44794538790E+03  0.00000000000E+00 0. -1.
         23    2    1    2    0    0 -0.86769982495E+03  0.58628317778E+02  0.12505265071E+04  0.15243654314E+04  0.59440370010E+02 0.  0.
        254    2    1    2    0    0  0.86769982495E+03 -0.58628317778E+02  0.94639983975E+03  0.15684516913E+04  0.89890365741E+03 0.  0.
        -24    2    4    4    0    0  0.84576003869E+02 -0.22865049503E+03  0.66863083383E+03  0.71618095150E+03  0.80086291254E+02 0.  0.
         24    2    4    4    0    0  0.78312382108E+03  0.17002217725E+03  0.27776900592E+03  0.85227073977E+03  0.83781461605E+02 0.  0.
         13    1    3    3    0    0 -0.41053950681E+03 -0.19982103197E+01  0.58881561683E+03  0.71780952217E+03  0.00000000000E+00 0.  1.
        -13    1    3    3    0    0 -0.45716031815E+03  0.60626528097E+02  0.66171089029E+03  0.80655590924E+03  0.00000000000E+00 0. -1.
          2    1    6    6  502    0  0.60908082232E+03  0.14676682678E+03  0.18276780129E+03  0.65262854576E+03  0.00000000000E+00 0. -1.
          1    1    5    5  503    0  0.93390349405E+02 -0.14570178573E+03  0.46172810653E+03  0.49309594613E+03  0.00000000000E+00 0. -1.
         -2    1    5    5    0  503 -0.88143455356E+01 -0.82948709300E+02  0.20690272729E+03  0.22308500537E+03  0.00000000000E+00 0.  1.
         -1    1    6    6    0  502  0.17404299877E+03  0.23255350474E+02  0.95001204637E+02  0.19964219401E+03  0.00000000000E+00 0.  1.
<mgrwt>
<rscale>  0 0.21769319E+04</rscale>
<asrwt>0</asrwt>
<pdfrwt beam="1">  1        2 0.68914677E-01 0.21769319E+04</pdfrwt>
<pdfrwt beam="2">  1       -2 0.40690333E+00 0.21769319E+04</pdfrwt>
<totfact> 0.42890499E-01</totfact>
</mgrwt>
</event>
<event>
12    1  0.2083715E-007  0.2009743E+04  0.7818608E-02  0.8602079E-01
         -2   -1    0    0    0  501 -0.00000000000E+00  0.00000000000E+00  0.29753709464E+03  0.29753709464E+03  0.00000000000E+00 0.  1.
          2   -1    0    0  501    0  0.00000000000E+00 -0.00000000000E+00 -0.33937497961E+04  0.33937497961E+04  0.00000000000E+00 0. -1.
         23    2    1    2    0    0 -0.28719040800E+03 -0.82122416763E+02 -0.26028505560E+04  0.26215200543E+04  0.91180900425E+02 0.  0.
        254    2    1    2    0    0  0.28719040800E+03  0.82122416763E+02 -0.49336214549E+03  0.10697668364E+04  0.90098415965E+03 0.  0.
        -24    2    4    4    0    0 -0.31593500120E+03  0.97144069070E+02 -0.19576427055E+03  0.39237195170E+03  0.79876177439E+02 0.  0.
         24    2    4    4    0    0  0.60312540919E+03 -0.15021652306E+02 -0.29759787494E+03  0.67739488473E+03  0.79457066625E+02 0.  0.
         13    1    3    3    0    0 -0.24074919506E+03 -0.45881300458E+02 -0.22978348686E+04  0.23108678786E+04  0.00000000000E+00 0. -1.
        -13    1    3    3    0    0 -0.46441212942E+02 -0.36241116306E+02 -0.30501568732E+03  0.31065217573E+03  0.00000000000E+00 0.  1.
          4    1    6    6  502    0  0.54390626187E+03  0.10502974941E+02 -0.26401876150E+03  0.60469020217E+03  0.00000000000E+00 0. -1.
          3    1    5    5  503    0 -0.16688533203E+03  0.17647634952E+02 -0.12485973010E+03  0.20917003912E+03  0.00000000000E+00 0. -1.
         -4    1    5    5    0  503 -0.14904966917E+03  0.79496434118E+02 -0.70904540446E+02  0.18320191258E+03  0.00000000000E+00 0.  1.
         -3    1    6    6    0  502  0.59219147327E+02 -0.25524627248E+02 -0.33579113439E+02  0.72704682556E+02  0.00000000000E+00 0.  1.
<mgrwt>
<rscale>  0 0.20097427E+04</rscale>
<asrwt>0</asrwt>
<pdfrwt beam="1">  1        2 0.52211534E+00 0.20097427E+04</pdfrwt>
<pdfrwt beam="2">  1       -2 0.45774939E-01 0.20097427E+04</pdfrwt>
<totfact> 0.40640946E+00</totfact>
</mgrwt>
</event>
<event>
12    1  0.2083715E-007  0.1757125E+04  0.7818608E-02  0.8729438E-01
         -1   -1    0    0    0  501 -0.00000000000E+00  0.00000000000E+00  0.35554472359E+03  0.35554472359E+03  0.00000000000E+00 0.  1.
          1   -1    0    0  501    0  0.00000000000E+00 -0.00000000000E+00 -0.21709566711E+04  0.21709566711E+04  0.00000000000E+00 0. -1.
         23    2    1    2    0    0  0.19005698610E+03  0.43946606560E+03 -0.52098919157E+02  0.48994263320E+03  0.89874388309E+02 0.  0.
        254    2    1    2    0    0 -0.19005698610E+03 -0.43946606560E+03 -0.17633130284E+04  0.20365587615E+04  0.89947021758E+03 0.  0.
        -24    2    4    4    0    0 -0.49230530084E+03 -0.10689581106E+03 -0.60073945031E+03  0.78751178185E+03  0.74132959831E+02 0.  0.
         24    2    4    4    0    0  0.30224831474E+03 -0.33257025454E+03 -0.11625735781E+04  0.12490469797E+04  0.81141943752E+02 0.  0.
         13    1    3    3    0    0  0.37630545718E+02  0.33728701678E+02 -0.23059516412E+02  0.55546598321E+02  0.00000000000E+00 0. -1.
        -13    1    3    3    0    0  0.15242644038E+03  0.40573736392E+03 -0.29039402746E+02  0.43439603488E+03  0.00000000000E+00 0.  1.
          2    1    6    6  502    0  0.45165508359E+02 -0.43038116827E+02 -0.25124896262E+03  0.25887882080E+03  0.00000000000E+00 0. -1.
          1    1    5    5  503    0 -0.11306170402E+03 -0.41097030001E+02 -0.10345387278E+03  0.15866511458E+03  0.00000000000E+00 0. -1.
         -2    1    5    5    0  503 -0.37924359682E+03 -0.65798781057E+02 -0.49728557752E+03  0.62884666726E+03  0.00000000000E+00 0.  1.
         -1    1    6    6    0  502  0.25708280639E+03 -0.28953213771E+03 -0.91132461545E+03  0.99016815887E+03  0.00000000000E+00 0.  1.
<mgrwt>
<rscale>  0 0.17571251E+04</rscale>
<asrwt>0</asrwt>
<pdfrwt beam="1">  1        1 0.33399333E+00 0.17571251E+04</pdfrwt>
<pdfrwt beam="2">  1       -1 0.54699189E-01 0.17571251E+04</pdfrwt>
<totfact> 0.72954131E+00</totfact>
</mgrwt>
</event>
<event>
12    1  0.2083715E-007  0.3230875E+04  0.7818608E-02  0.8180710E-01
          1   -1    0    0  501    0  0.00000000000E+00  0.00000000000E+00  0.15345037354E+04  0.15345037354E+04  0.00000000000E+00 0. -1.
         -1   -1    0    0    0  501 -0.00000000000E+00 -0.00000000000E+00 -0.17006399280E+04  0.17006399280E+04  0.00000000000E+00 0.  1.
         23    2    1    2    0    0 -0.82011405685E+03  0.96552532057E+03 -0.85847365399E+03  0.15327939244E+04  0.87487079110E+02 0.  0.
        254    2    1    2    0    0  0.82011405685E+03 -0.96552532057E+03  0.69233746142E+03  0.17023497391E+04  0.90212929377E+03 0.  0.
        -24    2    4    4    0    0  0.77012522680E+03 -0.66422934049E+03  0.92345639755E+02  0.10243740151E+04  0.80752238212E+02 0.  0.
         24    2    4    4    0    0  0.49988830054E+02 -0.30129598008E+03  0.59999182166E+03  0.67797572393E+03  0.79892086144E+02 0.  0.
         11    1    3    3    0    0 -0.36633218560E+03  0.49880085611E+03 -0.41675112538E+03  0.74611196530E+03  0.00000000000E+00 0. -1.
        -11    1    3    3    0    0 -0.45378187126E+03  0.46672446446E+03 -0.44172252861E+03  0.78668195905E+03  0.00000000000E+00 0.  1.
          4    1    6    6  502    0  0.27146147487E+02 -0.15683674826E+03  0.39755211337E+03  0.42823166834E+03  0.00000000000E+00 0. -1.
          3    1    5    5  503    0  0.52906487414E+03 -0.46695995000E+03  0.10046483907E+03  0.71277936267E+03  0.00000000000E+00 0. -1.
         -4    1    5    5    0  503  0.24106035266E+03 -0.19726939049E+03 -0.81191993125E+01  0.31159465247E+03  0.00000000000E+00 0.  1.
         -3    1    6    6    0  502  0.22842682566E+02 -0.14445923182E+03  0.20243970830E+03  0.24974405559E+03  0.00000000000E+00 0.  1.
<mgrwt>
<rscale>  0 0.32308750E+04</rscale>
<asrwt>0</asrwt>
<pdfrwt beam="1">  1        1 0.23607750E+00 0.32308750E+04</pdfrwt>
<pdfrwt beam="2">  1       -1 0.26163691E+00 0.32308750E+04</pdfrwt>
<totfact> 0.30248606E-01</totfact>
</mgrwt>
</event>
<event>
12    1  0.2083715E-007  0.2427686E+04  0.7818608E-02  0.8429211E-01
         -2   -1    0    0    0  501 -0.00000000000E+00  0.00000000000E+00  0.81236511036E+03  0.81236511036E+03  0.00000000000E+00 0.  1.
          2   -1    0    0  501    0  0.00000000000E+00 -0.00000000000E+00 -0.18137345697E+04  0.18137345697E+04  0.00000000000E+00 0. -1.
         23    2    1    2    0    0  0.71959439611E+03  0.12171163869E+03  0.37641483077E+03  0.82560847448E+03  0.85506785738E+02 0.  0.
        254    2    1    2    0    0 -0.71959439611E+03 -0.12171163869E+03 -0.13777842901E+04  0.18004912056E+04  0.90047166163E+03 0.  0.
        -24    2    4    4    0    0 -0.45252905919E+03  0.34429748201E+03 -0.46903414778E+03  0.74204544139E+03  0.85528356576E+02 0.  0.
         24    2    4    4    0    0 -0.26706533692E+03 -0.46600912070E+03 -0.90875014235E+03  0.10584457642E+04  0.77409429552E+02 0.  0.
         11    1    3    3    0    0  0.47916826336E+03  0.11437054729E+03  0.27852526393E+03  0.56591445409E+03  0.00000000000E+00 0.  1.
        -11    1    3    3    0    0  0.24042613275E+03  0.73410914006E+01  0.97889566840E+02  0.25969402039E+03  0.00000000000E+00 0. -1.
          2    1    6    6  502    0 -0.46779466997E+02 -0.57810536464E+02 -0.83840988349E+02  0.11207001377E+03  0.00000000000E+00 0. -1.
          3    1    5    5  503    0 -0.20181062892E+03  0.11639520976E+03 -0.23013201984E+03  0.32746926780E+03  0.00000000000E+00 0. -1.
         -4    1    5    5    0  503 -0.25071843027E+03  0.22790227225E+03 -0.23890212794E+03  0.41457617359E+03  0.00000000000E+00 0.  1.
         -1    1    6    6    0  502 -0.22028586992E+03 -0.40819858424E+03 -0.82490915400E+03  0.94637575043E+03  0.00000000000E+00 0.  1.
<mgrwt>
<rscale>  0 0.24276859E+04</rscale>
<asrwt>0</asrwt>
<pdfrwt beam="1">  1        2 0.27903608E+00 0.24276859E+04</pdfrwt>
<pdfrwt beam="2">  1       -2 0.12497925E+00 0.24276859E+04</pdfrwt>
<totfact> 0.36492365E+00</totfact>
</mgrwt>
</event>
<event>
12    1  0.2083715E-007  0.1935453E+04  0.7818608E-02  0.8637408E-01
          1   -1    0    0  501    0  0.00000000000E+00  0.00000000000E+00  0.13037237622E+04  0.13037237622E+04  0.00000000000E+00 0. -1.
         -1   -1    0    0    0  501 -0.00000000000E+00 -0.00000000000E+00 -0.71832265640E+03  0.71832265640E+03  0.00000000000E+00 0.  1.
         23    2    1    2    0    0 -0.68115271336E+03 -0.26878221426E+03  0.43891866548E+02  0.73964181455E+03  0.94501959008E+02 0.  0.
        254    2    1    2    0    0  0.68115271336E+03  0.26878221426E+03  0.54150923929E+03  0.12824046041E+04  0.90283797812E+03 0.  0.
        -24    2    4    4    0    0  0.82262672338E+03  0.36671899053E+01  0.50763927617E+03  0.96953807654E+03  0.74687836016E+02 0.  0.
         24    2    4    4    0    0 -0.14147401002E+03  0.26511502436E+03  0.33869963119E+02  0.31286652755E+03  0.80233521743E+02 0.  0.
         11    1    3    3    0    0 -0.43066533515E+03 -0.15210719542E+03  0.70052519864E+02  0.46207854888E+03  0.00000000000E+00 0. -1.
        -11    1    3    3    0    0 -0.25048737821E+03 -0.11667501885E+03 -0.26160653316E+02  0.27756326567E+03  0.00000000000E+00 0.  1.
          2    1    6    6  502    0 -0.12300742059E+03  0.14870839986E+03  0.15919466611E+02  0.19364514744E+03  0.00000000000E+00 0. -1.
          1    1    5    5  503    0  0.48350878739E+03  0.16020059312E+02  0.33801524661E+03  0.59016243249E+03  0.00000000000E+00 0. -1.
         -4    1    5    5    0  503  0.33911793599E+03 -0.12352869406E+02  0.16962402956E+03  0.37937564405E+03  0.00000000000E+00 0.  1.
         -1    1    6    6    0  502 -0.18466589429E+02  0.11640662450E+03  0.17950496508E+02  0.11922138012E+03  0.00000000000E+00 0.  1.
<mgrwt>
<rscale>  0 0.19354527E+04</rscale>
<asrwt>0</asrwt>
<pdfrwt beam="1">  1        1 0.20057289E+00 0.19354527E+04</pdfrwt>
<pdfrwt beam="2">  1       -1 0.11051118E+00 0.19354527E+04</pdfrwt>
<totfact> 0.63305222E+00</totfact>
</mgrwt>
</event>
<event>
12    1  0.2083715E-007  0.2437299E+04  0.7818608E-02  0.8425670E-01
          1   -1    0    0  501    0  0.00000000000E+00  0.00000000000E+00  0.14442281444E+04  0.14442281444E+04  0.00000000000E+00 0. -1.
         -1   -1    0    0    0  501 -0.00000000000E+00 -0.00000000000E+00 -0.10283049510E+04  0.10283049510E+04  0.00000000000E+00 0.  1.
         23    2    1    2    0    0  0.64324609469E+03  0.45431285020E+03  0.88430411535E+03  0.11876609799E+04  0.91537591081E+02 0.  0.
        254    2    1    2    0    0 -0.64324609469E+03 -0.45431285020E+03 -0.46838092194E+03  0.12848721155E+04  0.90074966607E+03 0.  0.
        -24    2    4    4    0    0 -0.66560658424E+02 -0.36184882376E+03 -0.57422793899E+03  0.68599011732E+03  0.74025824139E+02 0.  0.
         24    2    4    4    0    0 -0.57668543626E+03 -0.92464026441E+02  0.10584701705E+03  0.59888199816E+03  0.79626428554E+02 0.  0.
         11    1    3    3    0    0  0.19884471661E+03  0.90507789405E+02  0.24085252605E+03  0.32517813667E+03  0.00000000000E+00 0.  1.
        -11    1    3    3    0    0  0.44440137808E+03  0.36380506079E+03  0.64345158930E+03  0.86248284323E+03  0.00000000000E+00 0. -1.
          4    1    6    6  502    0 -0.12731009037E+03 -0.47521055362E+02  0.45204157478E+02  0.14321147184E+03  0.00000000000E+00 0. -1.
          3    1    5    5  503    0 -0.13149434559E+02 -0.10318629613E+02 -0.11314978451E+02  0.20184411898E+02  0.00000000000E+00 0. -1.
         -4    1    5    5    0  503 -0.53411223865E+02 -0.35153019414E+03 -0.56291296054E+03  0.66580570542E+03  0.00000000000E+00 0.  1.
         -3    1    6    6    0  502 -0.44937534589E+03 -0.44942971079E+02  0.60642859567E+02  0.45567052633E+03  0.00000000000E+00 0.  1.
<mgrwt>
<rscale>  0 0.24372993E+04</rscale>
<asrwt>0</asrwt>
<pdfrwt beam="1">  1        1 0.22218894E+00 0.24372993E+04</pdfrwt>
<pdfrwt beam="2">  1       -1 0.15820076E+00 0.24372993E+04</pdfrwt>
<totfact> 0.19272447E+00</totfact>
</mgrwt>
</event>
<event>
12    1  0.2083715E-007  0.1961786E+04  0.7818608E-02  0.8624698E-01
          2   -1    0    0  501    0  0.00000000000E+00  0.00000000000E+00  0.24070360453E+04  0.24070360453E+04  0.00000000000E+00 0.  1.
         -2   -1    0    0    0  501 -0.00000000000E+00 -0.00000000000E+00 -0.39972431485E+03  0.39972431485E+03  0.00000000000E+00 0. -1.
         23    2    1    2    0    0 -0.22670279079E+03  0.55680021418E+03  0.14811273120E+04  0.16016982038E+04  0.10138238445E+03 0.  0.
        254    2    1    2    0    0  0.22670279079E+03 -0.55680021418E+03  0.52618441848E+03  0.12050621564E+04  0.90215526633E+03 0.  0.
        -24    2    4    4    0    0  0.28993694706E+03  0.36403458351E+02 -0.11594972442E+03  0.32491780466E+03  0.82088952595E+02 0.  0.
         24    2    4    4    0    0 -0.63234156270E+02 -0.59320367253E+03  0.64213414291E+03  0.88014435170E+03  0.80178966808E+02 0.  0.
         11    1    3    3    0    0 -0.72419657292E+02  0.11505550925E+03  0.43368248050E+03  0.45449188207E+03  0.00000000000E+00 0.  1.
        -11    1    3    3    0    0 -0.15428313350E+03  0.44174470493E+03  0.10474448315E+04  0.11472063217E+04  0.00000000000E+00 0. -1.
          2    1    6    6  502    0 -0.95068528770E+01 -0.89329166468E+02  0.58393670313E+02  0.10714429974E+03  0.00000000000E+00 0. -1.
          1    1    5    5  503    0  0.58683669199E+02 -0.24501973358E+02 -0.14963590547E+02  0.65330152082E+02  0.00000000000E+00 0. -1.
         -2    1    5    5    0  503  0.23125327787E+03  0.60905431709E+02 -0.10098613388E+03  0.25958765258E+03  0.00000000000E+00 0.  1.
         -1    1    6    6    0  502 -0.53727303393E+02 -0.50387450606E+03  0.58374047259E+03  0.77300005196E+03  0.00000000000E+00 0.  1.
<mgrwt>
<rscale>  0 0.19617858E+04</rscale>
<asrwt>0</asrwt>
<pdfrwt beam="1">  1        2 0.37031323E+00 0.19617858E+04</pdfrwt>
<pdfrwt beam="2">  1       -2 0.61496050E-01 0.19617858E+04</pdfrwt>
<totfact> 0.90262992E+00</totfact>
</mgrwt>
</event>
<event>
12    1  0.2083715E-007  0.1959572E+04  0.7818608E-02  0.8625759E-01
         -2   -1    0    0    0  501 -0.00000000000E+00  0.00000000000E+00  0.43593591506E+03  0.43593591506E+03  0.00000000000E+00 0.  1.
          2   -1    0    0  501    0  0.00000000000E+00 -0.00000000000E+00 -0.22021142846E+04  0.22021142846E+04  0.00000000000E+00 0. -1.
         23    2    1    2    0    0  0.72962938844E+03 -0.74859377150E+01 -0.10245985924E+04  0.12611467922E+04  0.90960827908E+02 0.  0.
        254    2    1    2    0    0 -0.72962938844E+03  0.74859377150E+01 -0.74157977715E+03  0.13769034075E+04  0.90194641961E+03 0.  0.
        -24    2    4    4    0    0 -0.46608624588E+02  0.21388980529E+03 -0.60200937077E+03  0.64553098311E+03  0.79835800099E+02 0.  0.
         24    2    4    4    0    0 -0.68302076385E+03 -0.20640386757E+03 -0.13957040638E+03  0.73137242434E+03  0.79409094861E+02 0.  0.
         11    1    3    3    0    0  0.35086168696E+03 -0.48839185819E+02 -0.48611267823E+03  0.60149374509E+03  0.00000000000E+00 0. -1.
        -11    1    3    3    0    0  0.37876770147E+03  0.41353248104E+02 -0.53848591416E+03  0.65965304710E+03  0.00000000000E+00 0.  1.
          2    1    6    6  502    0 -0.54096605472E+03 -0.19606595804E+03 -0.10698872110E+03  0.58526294834E+03  0.00000000000E+00 0. -1.
          3    1    5    5  503    0 -0.58755992026E+02  0.11052734137E+03 -0.27027246173E+03  0.29785191516E+03  0.00000000000E+00 0. -1.
         -4    1    5    5    0  503  0.12147367438E+02  0.10336246392E+03 -0.33173690903E+03  0.34767906796E+03  0.00000000000E+00 0.  1.
         -3    1    6    6    0  502 -0.14205470913E+03 -0.10337909529E+02 -0.32581685281E+02  0.14610947599E+03  0.00000000000E+00 0.  1.
<mgrwt>
<rscale>  0 0.19595721E+04</rscale>
<asrwt>0</asrwt>
<pdfrwt beam="1">  1        2 0.33878682E+00 0.19595721E+04</pdfrwt>
<pdfrwt beam="2">  1       -2 0.67067063E-01 0.19595721E+04</pdfrwt>
<totfact> 0.97947495E+00</totfact>
</mgrwt>
</event>
<event>
12    1  0.2083715E-007  0.2539391E+04  0.7818608E-02  0.8389085E-01
          2   -1    0    0  501    0  0.00000000000E+00  0.00000000000E+00  0.22660613534E+04  0.22660613534E+04  0.00000000000E+00 0. -1.
         -2   -1    0    0    0  501 -0.00000000000E+00 -0.00000000000E+00 -0.71142218098E+03  0.71142218098E+03  0.00000000000E+00 0.  1.
         23    2    1    2    0    0 -0.71456156089E+03 -0.73822128618E+03  0.11755102361E+04  0.15637991089E+04  0.89857922464E+02 0.  0.
        254    2    1    2    0    0  0.71456156089E+03  0.73822128618E+03  0.37912893638E+03  0.14136844255E+04  0.89397763553E+03 0.  0.
        -24    2    4    4    0    0  0.68709572739E+03  0.10672561061E+03  0.33145568288E+03  0.77454751001E+03  0.81056036134E+02 0.  0.
         24    2    4    4    0    0  0.27465833499E+02  0.63149567557E+03  0.47673253501E+02  0.63913691549E+03  0.81744096817E+02 0.  0.
         13    1    3    3    0    0 -0.36137918138E+03 -0.36436398365E+03  0.51965520747E+03  0.73034071498E+03  0.00000000000E+00 0. -1.
        -13    1    3    3    0    0 -0.35318237951E+03 -0.37385730253E+03  0.65585502858E+03  0.83345839391E+03  0.00000000000E+00 0.  1.
          4    1    6    6  502    0  0.23579313125E+02  0.11148798537E+03 -0.16603174638E+02  0.11515737188E+03  0.00000000000E+00 0. -1.
          1    1    5    5  503    0  0.25178534340E+03  0.45000242842E+01  0.14006916672E+03  0.28815877713E+03  0.00000000000E+00 0. -1.
         -2    1    5    5    0  503  0.43531038399E+03  0.10222558633E+03  0.19138651616E+03  0.48638873289E+03  0.00000000000E+00 0.  1.
         -3    1    6    6    0  502  0.38865203736E+01  0.52000769020E+03  0.64276428139E+02  0.52397954361E+03  0.00000000000E+00 0.  1.
<mgrwt>
<rscale>  0 0.25393907E+04</rscale>
<asrwt>0</asrwt>
<pdfrwt beam="1">  1        2 0.34862482E+00 0.25393907E+04</pdfrwt>
<pdfrwt beam="2">  1       -2 0.10944957E+00 0.25393907E+04</pdfrwt>
<totfact> 0.28013914E+00</totfact>
</mgrwt>
</event>
<event>
12    1  0.2083715E-007  0.2758895E+04  0.7818608E-02  0.8316145E-01
          2   -1    0    0  501    0  0.00000000000E+00  0.00000000000E+00  0.19595839330E+04  0.19595839330E+04  0.00000000000E+00 0. -1.
         -2   -1    0    0    0  501 -0.00000000000E+00 -0.00000000000E+00 -0.97106062175E+03  0.97106062175E+03  0.00000000000E+00 0.  1.
         23    2    1    2    0    0  0.65219778080E+03 -0.96434774324E+03  0.15012351897E+02  0.11675714299E+04  0.87573728721E+02 0.  0.
        254    2    1    2    0    0 -0.65219778080E+03  0.96434774324E+03  0.97351095931E+03  0.17630731248E+04  0.89742673263E+03 0.  0.
        -24    2    4    4    0    0 -0.77348858402E+03  0.90673926810E+03  0.10491306443E+04  0.15897253361E+04  0.78043869950E+02 0.  0.
         24    2    4    4    0    0  0.12129080321E+03  0.57608475141E+02 -0.75619684996E+02  0.17334778869E+03  0.79378358094E+02 0.  0.
         13    1    3    3    0    0  0.95104783193E+02 -0.13975522957E+03 -0.28729639038E+02  0.17146963620E+03  0.00000000000E+00 0.  1.
        -13    1    3    3    0    0  0.55709299761E+03 -0.82459251367E+03  0.43741990935E+02  0.99610179368E+03  0.00000000000E+00 0. -1.
          4    1    6    6  502    0  0.11979041036E+03  0.26277044050E+02 -0.70812037827E+02  0.14161415946E+03  0.00000000000E+00 0. -1.
          3    1    5    5  503    0 -0.62388100414E+03  0.70572080567E+03  0.86382499628E+03  0.12780700243E+04  0.00000000000E+00 0. -1.
         -4    1    5    5    0  503 -0.14960757988E+03  0.20101846243E+03  0.18530564803E+03  0.31165531182E+03  0.00000000000E+00 0.  1.
         -3    1    6    6    0  502  0.15003928527E+01  0.31331431092E+02 -0.48076471681E+01  0.31733629233E+02  0.00000000000E+00 0.  1.
<mgrwt>
<rscale>  0 0.27588946E+04</rscale>
<asrwt>0</asrwt>
<pdfrwt beam="1">  1        2 0.30147445E+00 0.27588946E+04</pdfrwt>
<pdfrwt beam="2">  1       -2 0.14939394E+00 0.27588946E+04</pdfrwt>
<totfact> 0.18606412E+00</totfact>
</mgrwt>
</event>
<event>
12    1  0.2083715E-007  0.2424157E+04  0.7818608E-02  0.8430514E-01
          2   -1    0    0  501    0  0.00000000000E+00  0.00000000000E+00  0.23376333549E+04  0.23376333549E+04  0.00000000000E+00 0. -1.
         -2   -1    0    0    0  501 -0.00000000000E+00 -0.00000000000E+00 -0.62847094387E+03  0.62847094387E+03  0.00000000000E+00 0.  1.
         23    2    1    2    0    0  0.64987401825E+03 -0.75085589971E+02 -0.25567045976E+03  0.70813882002E+03  0.90106154111E+02 0.  0.
        254    2    1    2    0    0 -0.64987401825E+03  0.75085589971E+02  0.19648328708E+04  0.22579654788E+04  0.89992544561E+03 0.  0.
        -24    2    4    4    0    0  0.13624936178E+03 -0.13896786148E+03  0.12725875233E+03  0.24636726060E+03  0.81400749010E+02 0.  0.
         24    2    4    4    0    0 -0.78612338003E+03  0.21405345145E+03  0.18375741185E+04  0.20115982182E+04  0.77716804660E+02 0.  0.
         13    1    3    3    0    0  0.63765378426E+03 -0.86404984503E+02 -0.25210516090E+03  0.69110432070E+03  0.00000000000E+00 0. -1.
        -13    1    3    3    0    0  0.12220233990E+02  0.11319394532E+02 -0.35652988533E+01  0.17034499325E+02  0.00000000000E+00 0.  1.
          2    1    6    6  502    0 -0.20268715667E+02  0.11495696059E+02  0.29495771106E+02  0.37589524815E+02  0.00000000000E+00 0. -1.
          1    1    5    5  503    0 -0.83390092239E+01 -0.11592863588E+02 -0.18802089863E+01  0.14403775437E+02  0.00000000000E+00 0. -1.
         -2    1    5    5    0  503  0.14458837100E+03 -0.12737499789E+03  0.12913896132E+03  0.23196348516E+03  0.00000000000E+00 0.  1.
         -1    1    6    6    0  502 -0.76585466437E+03  0.20255775539E+03  0.18080783474E+04  0.19740086934E+04  0.00000000000E+00 0.  1.
<mgrwt>
<rscale>  0 0.24241573E+04</rscale>
<asrwt>0</asrwt>
<pdfrwt beam="1">  1        2 0.35963590E+00 0.24241573E+04</pdfrwt>
<pdfrwt beam="2">  1       -2 0.96687838E-01 0.24241573E+04</pdfrwt>
<totfact> 0.34631919E+00</totfact>
</mgrwt>
</event>
<event>
12    1  0.2083715E-007  0.3761947E+04  0.7818608E-02  0.8054371E-01
         -1   -1    0    0    0  501 -0.00000000000E+00  0.00000000000E+00  0.15435525630E+04  0.15435525630E+04  0.00000000000E+00 0.  1.
          1   -1    0    0  501    0  0.00000000000E+00 -0.00000000000E+00 -0.22921543445E+04  0.22921543445E+04  0.00000000000E+00 0. -1.
         23    2    1    2    0    0  0.62736139284E+03  0.16206672433E+04  0.37111291316E-01  0.17403003273E+04  0.92198682485E+02 0.  0.
        254    2    1    2    0    0 -0.62736139284E+03 -0.16206672433E+04 -0.74863889277E+03  0.20954065803E+04  0.90006883856E+03 0.  0.
        -24    2    4    4    0    0 -0.14181669717E+03 -0.45530753642E+03  0.18980585969E+03  0.52031457321E+03  0.85346718750E+02 0.  0.
         24    2    4    4    0    0 -0.48554469567E+03 -0.11653597069E+04 -0.93844475246E+03  0.15750920071E+04  0.80121029633E+02 0.  0.
         13    1    3    3    0    0  0.54547572749E+03  0.13311448473E+04 -0.20528332383E+02  0.14387188003E+04  0.00000000000E+00 0. -1.
        -13    1    3    3    0    0  0.81885665347E+02  0.28952239597E+03  0.20565443675E+02  0.30158152701E+03  0.00000000000E+00 0.  1.
          2    1    6    6  502    0 -0.40963718032E+03 -0.94275370666E+03 -0.72912036946E+03  0.12602395344E+04  0.00000000000E+00 0. -1.
          3    1    5    5  503    0 -0.16390649402E+02 -0.18465392042E+03  0.58504752260E+02  0.19439272042E+03  0.00000000000E+00 0. -1.
         -4    1    5    5    0  503 -0.12542604777E+03 -0.27065361600E+03  0.13130110743E+03  0.32592185279E+03  0.00000000000E+00 0.  1.
         -1    1    6    6    0  502 -0.75907515347E+02 -0.22260600022E+03 -0.20932438300E+03  0.31485247266E+03  0.00000000000E+00 0.  1.
<mgrwt>
<rscale>  0 0.37619467E+04</rscale>
<asrwt>0</asrwt>
<pdfrwt beam="1">  1        1 0.35263913E+00 0.37619467E+04</pdfrwt>
<pdfrwt beam="2">  1       -1 0.23746963E+00 0.37619467E+04</pdfrwt>
<totfact> 0.12671618E-01</totfact>
</mgrwt>
</event>
<event>
12    1  0.2083715E-007  0.1487216E+04  0.7818608E-02  0.8892999E-01
          1   -1    0    0  501    0  0.00000000000E+00  0.00000000000E+00  0.19856519655E+04  0.19856519655E+04  0.00000000000E+00 0.  1.
         -1   -1    0    0    0  501 -0.00000000000E+00 -0.00000000000E+00 -0.27847415019E+03  0.27847415019E+03  0.00000000000E+00 0. -1.
         23    2    1    2    0    0  0.42538421057E+03 -0.14028386254E+02  0.25431410785E+03  0.50366515682E+03  0.88625067122E+02 0.  0.
        254    2    1    2    0    0 -0.42538421057E+03  0.14028386254E+02  0.14528637075E+04  0.17604609589E+04  0.89847721899E+03 0.  0.
        -24    2    4    4    0    0 -0.21786945473E+03  0.28377586750E+03  0.12469870315E+03  0.38710630571E+03  0.79408331251E+02 0.  0.
         24    2    4    4    0    0 -0.20751475584E+03 -0.26974748125E+03  0.13281650043E+04  0.13733546532E+04  0.79086327251E+02 0.  0.
         11    1    3    3    0    0  0.99808880329E+02  0.10539826188E+02  0.21449077468E+02  0.10263022680E+03  0.00000000000E+00 0. -1.
        -11    1    3    3    0    0  0.32557533024E+03 -0.24568212442E+02  0.23286503038E+03  0.40103493002E+03  0.00000000000E+00 0.  1.
          4    1    6    6  502    0 -0.20166849287E+03 -0.25576829919E+03  0.11707862318E+04  0.12152481246E+04  0.00000000000E+00 0. -1.
          1    1    5    5  503    0 -0.62981642649E+02  0.14540675093E+03  0.61972726673E+02  0.17014825705E+03  0.00000000000E+00 0. -1.
         -2    1    5    5    0  503 -0.15488781208E+03  0.13836911657E+03  0.62725976477E+02  0.21695804865E+03  0.00000000000E+00 0.  1.
         -3    1    6    6    0  502 -0.58462629713E+01 -0.13979182052E+02  0.15737877255E+03  0.15810652855E+03  0.00000000000E+00 0.  1.
<mgrwt>
<rscale>  0 0.14872158E+04</rscale>
<asrwt>0</asrwt>
<pdfrwt beam="1">  1        1 0.30548491E+00 0.14872158E+04</pdfrwt>
<pdfrwt beam="2">  1       -1 0.42842178E-01 0.14872158E+04</pdfrwt>
<totfact> 0.15847880E+01</totfact>
</mgrwt>
</event>
<event>
12    1  0.2083715E-007  0.1863020E+04  0.7818608E-02  0.8673486E-01
         -2   -1    0    0    0  501 -0.00000000000E+00  0.00000000000E+00  0.74343058719E+03  0.74343058719E+03  0.00000000000E+00 0.  1.
          2   -1    0    0  501    0  0.00000000000E+00 -0.00000000000E+00 -0.11671713410E+04  0.11671713410E+04  0.00000000000E+00 0. -1.
         23    2    1    2    0    0 -0.26455602015E+03  0.51069042851E+03 -0.59023559414E+03  0.82913515849E+03  0.91062906162E+02 0.  0.
        254    2    1    2    0    0  0.26455602015E+03 -0.51069042851E+03  0.16649484029E+03  0.10814667697E+04  0.90058605399E+03 0.  0.
        -24    2    4    4    0    0  0.32069037734E+03 -0.73756835033E+03  0.19816715459E+03  0.83243802564E+03  0.82664719445E+02 0.  0.
         24    2    4    4    0    0 -0.56134357193E+02  0.22687792182E+03 -0.31672314301E+02  0.24902874410E+03  0.79921977154E+02 0.  0.
         11    1    3    3    0    0 -0.14637426359E+03  0.18737252028E+03 -0.25433096040E+03  0.34816393239E+03  0.00000000000E+00 0. -1.
        -11    1    3    3    0    0 -0.11818175656E+03  0.32331790824E+03 -0.33590463374E+03  0.48097122610E+03  0.00000000000E+00 0.  1.
          2    1    6    6  502    0  0.79476755318E+01  0.76452785659E+02 -0.37276328490E+02  0.85426685802E+02  0.00000000000E+00 0. -1.
          1    1    5    5  503    0  0.15064298959E+03 -0.26590464535E+03  0.99837787659E+02  0.32150610348E+03  0.00000000000E+00 0. -1.
         -4    1    5    5    0  503  0.17004738775E+03 -0.47166370498E+03  0.98329366929E+02  0.51093192215E+03  0.00000000000E+00 0.  1.
         -1    1    6    6    0  502 -0.64082032725E+02  0.15042513616E+03  0.56040141890E+01  0.16360205830E+03  0.00000000000E+00 0.  1.
<mgrwt>
<rscale>  0 0.18630200E+04</rscale>
<asrwt>0</asrwt>
<pdfrwt beam="1">  1        2 0.17956482E+00 0.18630200E+04</pdfrwt>
<pdfrwt beam="2">  1       -2 0.11437394E+00 0.18630200E+04</pdfrwt>
<totfact> 0.11128012E+01</totfact>
</mgrwt>
</event>
<event>
12    1  0.2083715E-007  0.2053407E+04  0.7818608E-02  0.8582050E-01
          2   -1    0    0  501    0  0.00000000000E+00  0.00000000000E+00  0.18290309608E+04  0.18290309608E+04  0.00000000000E+00 0. -1.
         -2   -1    0    0    0  501 -0.00000000000E+00 -0.00000000000E+00 -0.57632708436E+03  0.57632708436E+03  0.00000000000E+00 0.  1.
         23    2    1    2    0    0  0.14625056950E+03  0.16105592809E+03 -0.42754176722E+03  0.48745853794E+03  0.86577262840E+02 0.  0.
        254    2    1    2    0    0 -0.14625056950E+03 -0.16105592809E+03  0.16802456437E+04  0.19178995072E+04  0.89876852178E+03 0.  0.
        -24    2    4    4    0    0 -0.39331561609E+03  0.22120552495E+03  0.92847873471E+03  0.10354875519E+04  0.80824817421E+02 0.  0.
         24    2    4    4    0    0  0.24706504659E+03 -0.38226145304E+03  0.75176690897E+03  0.88241195539E+03  0.79576490672E+02 0.  0.
         13    1    3    3    0    0  0.15371110566E+03  0.15190935754E+03 -0.36805008005E+03  0.42680723791E+03  0.00000000000E+00 0.  1.
        -13    1    3    3    0    0 -0.74605361577E+01  0.91465705521E+01 -0.59491687170E+02  0.60651300027E+02  0.00000000000E+00 0. -1.
          2    1    6    6  502    0  0.64323941732E+02 -0.52510570865E+02  0.16958944367E+03  0.18882666373E+03  0.00000000000E+00 0. -1.
          1    1    5    5  503    0 -0.20316419788E+03  0.12053525584E+03  0.39490714582E+03  0.46016963505E+03  0.00000000000E+00 0. -1.
         -2    1    5    5    0  503 -0.19015141821E+03  0.10067026912E+03  0.53357158889E+03  0.57531791681E+03  0.00000000000E+00 0.  1.
         -1    1    6    6    0  502  0.18274110485E+03 -0.32975088218E+03  0.58217746530E+03  0.69358529165E+03  0.00000000000E+00 0.  1.
<mgrwt>
<rscale>  0 0.20534070E+04</rscale>
<asrwt>0</asrwt>
<pdfrwt beam="1">  1        2 0.28138938E+00 0.20534070E+04</pdfrwt>
<pdfrwt beam="2">  1       -2 0.88665706E-01 0.20534070E+04</pdfrwt>
<totfact> 0.84126108E+00</totfact>
</mgrwt>
</event>
<event>
12    1  0.2083715E-007  0.2286743E+04  0.7818608E-02  0.8483166E-01
          2   -1    0    0  501    0  0.00000000000E+00  0.00000000000E+00  0.88841898057E+03  0.88841898057E+03  0.00000000000E+00 0.  1.
         -2   -1    0    0    0  501 -0.00000000000E+00 -0.00000000000E+00 -0.14714888200E+04  0.14714888200E+04  0.00000000000E+00 0. -1.
         23    2    1    2    0    0 -0.14167558087E+03  0.54551237965E+03 -0.10529305813E+04  0.11978196927E+04  0.91942811219E+02 0.  0.
        254    2    1    2    0    0  0.14167558087E+03 -0.54551237965E+03  0.46986074186E+03  0.11620881079E+04  0.90112370252E+03 0.  0.
        -24    2    4    4    0    0  0.43400922113E+03 -0.56755035649E+03  0.46932529528E+03  0.85853486104E+03  0.79614468865E+02 0.  0.
         24    2    4    4    0    0 -0.29233364026E+03  0.22037976842E+02  0.53544658150E+00  0.30355324687E+03  0.78737902741E+02 0.  0.
         11    1    3    3    0    0 -0.22395677143E+02  0.26454835268E+03 -0.46954175583E+03  0.53940416918E+03  0.00000000000E+00 0. -1.
        -11    1    3    3    0    0 -0.11927990372E+03  0.28096402697E+03 -0.58338882545E+03  0.65841552347E+03  0.00000000000E+00 0.  1.
          4    1    6    6  502    0 -0.20325643635E+03  0.90815007247E+01  0.36340158867E+02  0.20667912261E+03  0.00000000000E+00 0. -1.
          3    1    5    5  503    0  0.33222314022E+03 -0.37519985589E+03  0.31964231677E+03  0.59440588610E+03  0.00000000000E+00 0. -1.
         -4    1    5    5    0  503  0.10178608091E+03 -0.19235050060E+03  0.14968297851E+03  0.26412897494E+03  0.00000000000E+00 0.  1.
         -3    1    6    6    0  502 -0.89077203909E+02  0.12956476117E+02 -0.35804712285E+02  0.96874124261E+02  0.00000000000E+00 0.  1.
<mgrwt>
<rscale>  0 0.22867432E+04</rscale>
<asrwt>0</asrwt>
<pdfrwt beam="1">  1        2 0.13667984E+00 0.22867432E+04</pdfrwt>
<pdfrwt beam="2">  1       -2 0.22638289E+00 0.22867432E+04</pdfrwt>
<totfact> 0.24404573E+00</totfact>
</mgrwt>
</event>
<event>
12    1  0.2516943E-007  0.1771680E+04  0.7818608E-02  0.8721506E-01
          2   -1    0    0  501    0  0.00000000000E+00  0.00000000000E+00  0.16152832521E+04  0.16152832521E+04  0.00000000000E+00 0. -1.
         -2   -1    0    0    0  501 -0.00000000000E+00 -0.00000000000E+00 -0.48580496050E+03  0.48580496050E+03  0.00000000000E+00 0.  1.
         23    2    1    2    0    0  0.48879650434E+03 -0.33346169757E+03  0.90590424038E+02  0.60486958128E+03  0.86843877340E+02 0.  0.
        254    2    1    2    0    0 -0.48879650434E+03  0.33346169757E+03  0.10388878676E+04  0.14962186313E+04  0.89959072081E+03 0.  0.
        -24    2    4    4    0    0 -0.77762008439E+02 -0.13034353594E+03  0.81420014800E+03  0.83225473975E+03  0.81790607795E+02 0.  0.
         24    2    4    4    0    0 -0.41103449590E+03  0.46380523351E+03  0.22468771960E+03  0.66396389160E+03  0.79365146982E+02 0.  0.
         11    1    3    3    0    0  0.25254219943E+03 -0.15844113523E+03  0.32380297871E+01  0.29814701183E+03  0.00000000000E+00 0.  1.
        -11    1    3    3    0    0  0.23625430491E+03 -0.17502056233E+03  0.87352394251E+02  0.30672256945E+03  0.00000000000E+00 0. -1.
          4    1    6    6  502    0 -0.27623910973E+02  0.71759348460E+01  0.10206179341E+02  0.30310733992E+02  0.00000000000E+00 0. -1.
          3    1    5    5  503    0  0.14429660593E+01  0.87622309451E+01  0.97113197135E+02  0.97518366988E+02  0.00000000000E+00 0. -1.
         -4    1    5    5    0  503 -0.79204974499E+02 -0.13910576689E+03  0.71708695086E+03  0.73473637277E+03  0.00000000000E+00 0.  1.
         -3    1    6    6    0  502 -0.38341058493E+03  0.45662929866E+03  0.21448154026E+03  0.63365315761E+03  0.00000000000E+00 0.  1.
<mgrwt>
<rscale>  0 0.17716801E+04</rscale>
<asrwt>0</asrwt>
<pdfrwt beam="1">  1        2 0.24850511E+00 0.17716801E+04</pdfrwt>
<pdfrwt beam="2">  1       -2 0.74739226E-01 0.17716801E+04</pdfrwt>
<totfact> 0.16647671E+01</totfact>
</mgrwt>
</event>
<event>
12    1  0.2083715E-007  0.2923249E+04  0.7818608E-02  0.8265994E-01
          2   -1    0    0  501    0  0.00000000000E+00  0.00000000000E+00  0.27148041406E+04  0.27148041406E+04  0.00000000000E+00 0. -1.
         -2   -1    0    0    0  501 -0.00000000000E+00 -0.00000000000E+00 -0.78692452822E+03  0.78692452822E+03  0.00000000000E+00 0.  1.
         23    2    1    2    0    0 -0.17948742489E+03  0.12784583691E+04  0.53347707579E+03  0.13992167832E+04  0.80859624092E+02 0.  0.
        254    2    1    2    0    0  0.17948742489E+03 -0.12784583691E+04  0.13944025366E+04  0.21025118856E+04  0.89973677145E+03 0.  0.
        -24    2    4    4    0    0  0.35371761471E+03 -0.13233686097E+04  0.11596915667E+04  0.17966172750E+04  0.80798978673E+02 0.  0.
         24    2    4    4    0    0 -0.17423018982E+03  0.44910240643E+02  0.23471096992E+03  0.30589461058E+03  0.78161273161E+02 0.  0.
         11    1    3    3    0    0 -0.58685042048E+02  0.26300487004E+03  0.84777530651E+02  0.28249376193E+03  0.00000000000E+00 0.  1.
        -11    1    3    3    0    0 -0.12080238284E+03  0.10154534991E+04  0.44869954514E+03  0.11167230213E+04  0.00000000000E+00 0. -1.
          4    1    6    6  502    0 -0.11726951734E+03  0.49719769588E+02  0.10842195563E+03  0.16727078540E+03  0.00000000000E+00 0. -1.
          1    1    5    5  503    0  0.35362979917E+03 -0.13230930942E+04  0.11539659429E+04  0.17908843537E+04  0.00000000000E+00 0. -1.
         -2    1    5    5    0  503  0.87815541261E-01 -0.27551555546E+00  0.57256237208E+01  0.57329213654E+01  0.00000000000E+00 0.  1.
         -3    1    6    6    0  502 -0.56960672482E+02 -0.48095289446E+01  0.12628901429E+03  0.13862382519E+03  0.00000000000E+00 0.  1.
<mgrwt>
<rscale>  0 0.29232489E+04</rscale>
<asrwt>0</asrwt>
<pdfrwt beam="1">  1        2 0.41766217E+00 0.29232489E+04</pdfrwt>
<pdfrwt beam="2">  1       -2 0.12106531E+00 0.29232489E+04</pdfrwt>
<totfact> 0.11638691E+00</totfact>
</mgrwt>
</event>
<event>
12    1  0.2083715E-007  0.1203314E+04  0.7818608E-02  0.9109961E-01
          1   -1    0    0  501    0  0.00000000000E+00  0.00000000000E+00  0.61227534619E+03  0.61227534619E+03  0.00000000000E+00 0. -1.
         -1   -1    0    0    0  501 -0.00000000000E+00 -0.00000000000E+00 -0.59122256840E+03  0.59122256840E+03  0.00000000000E+00 0.  1.
         23    2    1    2    0    0 -0.23825084329E+03 -0.43972280248E+02 -0.67851330958E+02  0.26860396877E+03  0.94059891383E+02 0.  0.
        254    2    1    2    0    0  0.23825084329E+03  0.43972280248E+02  0.88904108755E+02  0.93489394582E+03  0.89856870835E+03 0.  0.
        -24    2    4    4    0    0  0.30455866897E+03  0.41900865891E+03 -0.34178627673E+02  0.52623440087E+03  0.86198764400E+02 0.  0.
         24    2    4    4    0    0 -0.66307825687E+02 -0.37503637866E+03  0.12308273643E+03  0.40865954495E+03  0.82487881573E+02 0.  0.
         13    1    3    3    0    0 -0.19885318533E+03 -0.33606597271E+00 -0.37199807129E+02  0.20230305956E+03  0.00000000000E+00 0. -1.
        -13    1    3    3    0    0 -0.39397657957E+02 -0.43636214275E+02 -0.30651523829E+02  0.66300909208E+02  0.00000000000E+00 0.  1.
          2    1    6    6  502    0 -0.51964728573E+02 -0.88299517033E+02  0.27697515368E+02  0.10613335989E+03  0.00000000000E+00 0. -1.
          3    1    5    5  503    0  0.27392755611E+03  0.33526989074E+03 -0.49485297407E+02  0.43576484518E+03  0.00000000000E+00 0. -1.
         -4    1    5    5    0  503  0.30631112870E+02  0.83738768164E+02  0.15306669733E+02  0.90469555694E+02  0.00000000000E+00 0.  1.
         -3    1    6    6    0  502 -0.14343097114E+02 -0.28673686163E+03  0.95385221060E+02  0.30252618506E+03  0.00000000000E+00 0.  1.
<mgrwt>
<rscale>  0 0.12033138E+04</rscale>
<asrwt>0</asrwt>
<pdfrwt beam="1">  1        1 0.94196207E-01 0.12033138E+04</pdfrwt>
<pdfrwt beam="2">  1       -1 0.90957318E-01 0.12033138E+04</pdfrwt>
<totfact> 0.38849992E+01</totfact>
</mgrwt>
</event>
<event>
12    1  0.2083715E-007  0.1791943E+04  0.7818608E-02  0.8710596E-01
         -1   -1    0    0    0  501 -0.00000000000E+00  0.00000000000E+00  0.17343645898E+04  0.17343645898E+04  0.00000000000E+00 0.  1.
          1   -1    0    0  501    0  0.00000000000E+00 -0.00000000000E+00 -0.46285820938E+03  0.46285820938E+03  0.00000000000E+00 0. -1.
         23    2    1    2    0    0  0.36929554158E+03 -0.55739165209E+03  0.42082136836E+03  0.79517263983E+03  0.90245510777E+02 0.  0.
        254    2    1    2    0    0 -0.36929554158E+03  0.55739165209E+03  0.85068501206E+03  0.14020501593E+04  0.89163614144E+03 0.  0.
        -24    2    4    4    0    0 -0.39861838250E+03  0.77621256683E+03  0.69468512168E+03  0.11184430219E+04  0.83215449994E+02 0.  0.
         24    2    4    4    0    0  0.29322840921E+02 -0.21882091474E+03  0.15599989038E+03  0.28360713748E+03  0.85759086414E+02 0.  0.
         11    1    3    3    0    0  0.20518262664E+03 -0.38442869764E+03  0.28657632662E+03  0.52154704948E+03  0.00000000000E+00 0.  1.
        -11    1    3    3    0    0  0.16411291494E+03 -0.17296295445E+03  0.13424504174E+03  0.27362559035E+03  0.00000000000E+00 0. -1.
          2    1    6    6  502    0  0.23870131653E+02 -0.13346765919E+03  0.43713879797E+02  0.14245807286E+03  0.00000000000E+00 0. -1.
          1    1    5    5  503    0 -0.48043294062E+02  0.12587300575E+03  0.14228211582E+03  0.19594992258E+03  0.00000000000E+00 0. -1.
         -2    1    5    5    0  503 -0.35057508844E+03  0.65033956108E+03  0.55240300587E+03  0.92249309928E+03  0.00000000000E+00 0.  1.
         -1    1    6    6    0  502  0.54527092676E+01 -0.85353255548E+02  0.11228601058E+03  0.14114906462E+03  0.00000000000E+00 0.  1.
<mgrwt>
<rscale>  0 0.17919430E+04</rscale>
<asrwt>0</asrwt>
<pdfrwt beam="1">  1        1 0.71208956E-01 0.17919430E+04</pdfrwt>
<pdfrwt beam="2">  1       -1 0.26682532E+00 0.17919430E+04</pdfrwt>
<totfact> 0.25220709E+00</totfact>
</mgrwt>
</event>
<event>
12    1  0.2083715E-007  0.1616978E+04  0.7818608E-02  0.8810185E-01
          2   -1    0    0  501    0  0.00000000000E+00  0.00000000000E+00  0.16919377081E+04  0.16919377081E+04  0.00000000000E+00 0. -1.
         -2   -1    0    0    0  501 -0.00000000000E+00 -0.00000000000E+00 -0.38633504941E+03  0.38633504941E+03  0.00000000000E+00 0.  1.
         23    2    1    2    0    0  0.54961765771E+02 -0.27359788196E+03  0.10695409760E+04  0.11091868972E+04  0.92201284200E+02 0.  0.
        254    2    1    2    0    0 -0.54961765771E+02  0.27359788196E+03  0.23606168268E+03  0.96908586032E+03  0.89751082998E+03 0.  0.
        -24    2    4    4    0    0  0.32966234980E+03  0.27078464970E+03 -0.10776668916E+03  0.44723511905E+03  0.80025002540E+02 0.  0.
         24    2    4    4    0    0 -0.38462411557E+03  0.28132322633E+01  0.34382837184E+03  0.52185074127E+03  0.78527844323E+02 0.  0.
         13    1    3    3    0    0  0.66121043754E+02 -0.14620410631E+03  0.48623988233E+03  0.51203208522E+03  0.00000000000E+00 0.  1.
        -13    1    3    3    0    0 -0.11159277983E+02 -0.12739377565E+03  0.58330109366E+03  0.59715481194E+03  0.00000000000E+00 0. -1.
          4    1    6    6  502    0 -0.64645982166E+02 -0.26814721225E+02  0.78071510506E+02  0.10484890575E+03  0.00000000000E+00 0. -1.
          1    1    5    5  503    0  0.12487637454E+02 -0.22630277164E+01 -0.12913481081E+02  0.18105810594E+02  0.00000000000E+00 0. -1.
         -4    1    5    5    0  503  0.31717471234E+03  0.27304767741E+03 -0.94853208076E+02  0.42912930845E+03  0.00000000000E+00 0.  1.
         -3    1    6    6    0  502 -0.31997813340E+03  0.29627953488E+02  0.26575686133E+03  0.41700183552E+03  0.00000000000E+00 0.  1.
<mgrwt>
<rscale>  0 0.16169785E+04</rscale>
<asrwt>0</asrwt>
<pdfrwt beam="1">  1        2 0.26029810E+00 0.16169785E+04</pdfrwt>
<pdfrwt beam="2">  1       -2 0.59436163E-01 0.16169785E+04</pdfrwt>
<totfact> 0.25070166E+01</totfact>
</mgrwt>
</event>
<event>
12    1  0.2083715E-007  0.1872382E+04  0.7818608E-02  0.8668727E-01
          2   -1    0    0  501    0  0.00000000000E+00  0.00000000000E+00  0.13002635510E+04  0.13002635510E+04  0.00000000000E+00 0.  1.
         -2   -1    0    0    0  501 -0.00000000000E+00 -0.00000000000E+00 -0.67405868488E+03  0.67405868488E+03  0.00000000000E+00 0. -1.
         23    2    1    2    0    0 -0.57358043914E+03  0.42577532242E+03  0.19653691926E+03  0.74648384846E+03  0.91281049676E+02 0.  0.
        254    2    1    2    0    0  0.57358043914E+03 -0.42577532242E+03  0.42966794682E+03  0.12278383874E+04  0.90149510018E+03 0.  0.
        -24    2    4    4    0    0  0.71364229578E+03 -0.51714466699E+03  0.51559938188E+03  0.10241619202E+04  0.79630291630E+02 0.  0.
         24    2    4    4    0    0 -0.14006185663E+03  0.91369344575E+02 -0.85931435059E+02  0.20367646714E+03  0.78321203539E+02 0.  0.
         11    1    3    3    0    0 -0.54647141070E+02  0.21971483605E+02  0.38050521037E+02  0.70120598045E+02  0.00000000000E+00 0.  1.
        -11    1    3    3    0    0 -0.51893329807E+03  0.40380383881E+03  0.15848639822E+03  0.67636325041E+03  0.00000000000E+00 0. -1.
          4    1    6    6  502    0 -0.43722528988E+02  0.25257093954E+02 -0.69168470260E+02  0.85637944944E+02  0.00000000000E+00 0. -1.
          3    1    5    5  503    0  0.59073151481E+02 -0.34097362403E+02  0.64890107820E+02  0.94143472645E+02  0.00000000000E+00 0. -1.
         -4    1    5    5    0  503  0.65456914430E+03 -0.48304730459E+03  0.45070927406E+03  0.93001844759E+03  0.00000000000E+00 0.  1.
         -3    1    6    6    0  502 -0.96339327647E+02  0.66112250621E+02 -0.16762964799E+02  0.11803852220E+03  0.00000000000E+00 0.  1.
<mgrwt>
<rscale>  0 0.18723824E+04</rscale>
<asrwt>0</asrwt>
<pdfrwt beam="1">  1        2 0.20004055E+00 0.18723824E+04</pdfrwt>
<pdfrwt beam="2">  1       -2 0.10370134E+00 0.18723824E+04</pdfrwt>
<totfact> 0.11749819E+01</totfact>
</mgrwt>
</event>
<event>
12    1  0.2083715E-007  0.1737814E+04  0.7818608E-02  0.8740086E-01
          2   -1    0    0  501    0  0.00000000000E+00  0.00000000000E+00  0.15689174789E+04  0.15689174789E+04  0.00000000000E+00 0. -1.
         -2   -1    0    0    0  501 -0.00000000000E+00 -0.00000000000E+00 -0.48122338194E+03  0.48122338194E+03  0.00000000000E+00 0.  1.
         23    2    1    2    0    0  0.56054296000E+03 -0.26614611287E+03  0.54139118727E+03  0.82759634002E+03  0.82274667880E+02 0.  0.
        254    2    1    2    0    0 -0.56054296000E+03  0.26614611287E+03  0.54630290965E+03  0.12225445208E+04  0.90062537872E+03 0.  0.
        -24    2    4    4    0    0 -0.42943746284E+03  0.23896105608E+02 -0.15635610732E+03  0.46461561104E+03  0.80205207873E+02 0.  0.
         24    2    4    4    0    0 -0.13110549715E+03  0.24225000726E+03  0.70265901697E+03  0.75792890974E+03  0.69662189774E+02 0.  0.
         13    1    3    3    0    0  0.24843712032E+03 -0.16233041985E+03  0.26870064517E+03  0.40034011125E+03  0.00000000000E+00 0.  1.
        -13    1    3    3    0    0  0.31210583968E+03 -0.10381569302E+03  0.27269054209E+03  0.42725622877E+03  0.00000000000E+00 0. -1.
          2    1    6    6  502    0 -0.13948735435E+03  0.22248209145E+03  0.64530935149E+03  0.69669158324E+03  0.00000000000E+00 0. -1.
          1    1    5    5  503    0 -0.39304825480E+03 -0.13572050612E+01 -0.13653621398E+03  0.41609002672E+03  0.00000000000E+00 0. -1.
         -2    1    5    5    0  503 -0.36389208044E+02  0.25253310669E+02 -0.19819893341E+02  0.48525584323E+02  0.00000000000E+00 0.  1.
         -1    1    6    6    0  502  0.83818571974E+01  0.19767915810E+02  0.57349665481E+02  0.61237326496E+02  0.00000000000E+00 0.  1.
<mgrwt>
<rscale>  0 0.17378145E+04</rscale>
<asrwt>0</asrwt>
<pdfrwt beam="1">  1        2 0.24137192E+00 0.17378145E+04</pdfrwt>
<pdfrwt beam="2">  1       -2 0.74034367E-01 0.17378145E+04</pdfrwt>
<totfact> 0.18097428E+01</totfact>
</mgrwt>
</event>
<event>
12    1  0.2083715E-007  0.2211881E+04  0.7818608E-02  0.8513499E-01
          1   -1    0    0  501    0  0.00000000000E+00  0.00000000000E+00  0.16780113259E+04  0.16780113259E+04  0.00000000000E+00 0. -1.
         -1   -1    0    0    0  501 -0.00000000000E+00 -0.00000000000E+00 -0.72890117862E+03  0.72890117862E+03  0.00000000000E+00 0.  1.
         23    2    1    2    0    0  0.79492168445E+03 -0.14931524697E+03  0.87435997849E+03  0.11944253740E+04  0.89168798138E+02 0.  0.
        254    2    1    2    0    0 -0.79492168445E+03  0.14931524697E+03  0.74750168789E+02  0.12124871306E+04  0.90018993923E+03 0.  0.
        -24    2    4    4    0    0 -0.32583647309E+03 -0.12569255663E+03  0.42902084580E+03  0.55880051232E+03  0.78937319752E+02 0.  0.
         24    2    4    4    0    0 -0.46908521136E+03  0.27500780360E+03 -0.35427067701E+03  0.65368661825E+03  0.78283170213E+02 0.  0.
         13    1    3    3    0    0  0.65918365971E+02 -0.19356844986E+02  0.42766818737E+02  0.80925392832E+02  0.00000000000E+00 0.  1.
        -13    1    3    3    0    0  0.72900331848E+03 -0.12995840198E+03  0.83159315976E+03  0.11134999811E+04  0.00000000000E+00 0. -1.
          2    1    6    6  502    0 -0.10974379154E+03  0.10476312674E+03 -0.95926861229E+02  0.17950202008E+03  0.00000000000E+00 0. -1.
          1    1    5    5  503    0 -0.20883927501E+03 -0.10665507050E+03  0.23892122505E+03  0.33477230864E+03  0.00000000000E+00 0. -1.
         -2    1    5    5    0  503 -0.11699719808E+03 -0.19037486131E+02  0.19009962075E+03  0.22402820368E+03  0.00000000000E+00 0.  1.
         -1    1    6    6    0  502 -0.35934141982E+03  0.17024467686E+03 -0.25834381578E+03  0.47418459818E+03  0.00000000000E+00 0.  1.
<mgrwt>
<rscale>  0 0.22118810E+04</rscale>
<asrwt>0</asrwt>
<pdfrwt beam="1">  1        1 0.25815559E+00 0.22118810E+04</pdfrwt>
<pdfrwt beam="2">  1       -1 0.11213864E+00 0.22118810E+04</pdfrwt>
<totfact> 0.32757866E+00</totfact>
</mgrwt>
</event>
<event>
12    1  0.2083715E-007  0.2308954E+04  0.7818608E-02  0.8474399E-01
         -2   -1    0    0    0  501 -0.00000000000E+00  0.00000000000E+00  0.10299281174E+04  0.10299281174E+04  0.00000000000E+00 0.  1.
          2   -1    0    0  501    0  0.00000000000E+00 -0.00000000000E+00 -0.12940870525E+04  0.12940870525E+04  0.00000000000E+00 0. -1.
         23    2    1    2    0    0  0.30317432335E+03 -0.81196058050E+03  0.34031693668E+03  0.93575131053E+03  0.92845264534E+02 0.  0.
        254    2    1    2    0    0 -0.30317432335E+03  0.81196058050E+03 -0.60447587175E+03  0.13882638594E+04  0.90038370109E+03 0.  0.
        -24    2    4    4    0    0  0.21590100753E+03  0.63156010505E+03 -0.45981032212E+03  0.81448106831E+03  0.80451643636E+02 0.  0.
         24    2    4    4    0    0 -0.51907533088E+03  0.18040047546E+03 -0.14466554962E+03  0.57378279109E+03  0.79467222407E+02 0.  0.
         11    1    3    3    0    0  0.86444578262E+02 -0.28727980455E+03  0.75596565812E+02  0.30938195160E+03  0.00000000000E+00 0. -1.
        -11    1    3    3    0    0  0.21672974508E+03 -0.52468077596E+03  0.26472037086E+03  0.62636935894E+03  0.00000000000E+00 0.  1.
          4    1    6    6  502    0 -0.38720205149E+03  0.98259317939E+02 -0.94232329300E+02  0.41043885553E+03  0.00000000000E+00 0. -1.
          3    1    5    5  503    0  0.22197298552E+03  0.60963472076E+03 -0.45070686821E+03  0.78997669592E+03  0.00000000000E+00 0. -1.
         -4    1    5    5    0  503 -0.60719779838E+01  0.21925384288E+02 -0.91034539146E+01  0.24504372385E+02  0.00000000000E+00 0.  1.
         -3    1    6    6    0  502 -0.13187327939E+03  0.82141157516E+02 -0.50433220323E+02  0.16334393557E+03  0.00000000000E+00 0.  1.
<mgrwt>
<rscale>  0 0.23089536E+04</rscale>
<asrwt>0</asrwt>
<pdfrwt beam="1">  1        2 0.19909032E+00 0.23089536E+04</pdfrwt>
<pdfrwt beam="2">  1       -2 0.15845048E+00 0.23089536E+04</pdfrwt>
<totfact> 0.39050998E+00</totfact>
</mgrwt>
</event>
<event>
12    1  0.2632895E-007  0.3268772E+04  0.7818608E-02  0.8170887E-01
          1   -1    0    0  501    0  0.00000000000E+00  0.00000000000E+00  0.23267972810E+04  0.23267972810E+04  0.00000000000E+00 0. -1.
         -1   -1    0    0    0  501 -0.00000000000E+00 -0.00000000000E+00 -0.11480232093E+04  0.11480232093E+04  0.00000000000E+00 0.  1.
         23    2    1    2    0    0  0.50800302471E+03 -0.12060910002E+04 -0.25381424669E+03  0.13360834415E+04  0.89301270250E+02 0.  0.
        254    2    1    2    0    0 -0.50800302471E+03  0.12060910002E+04  0.14325883185E+04  0.21387370488E+04  0.89953560223E+03 0.  0.
        -24    2    4    4    0    0 -0.56690364723E+03  0.24700456904E+03  0.58731232720E+03  0.85647555680E+03  0.78889843095E+02 0.  0.
         24    2    4    4    0    0  0.58900622528E+02  0.95908643119E+03  0.84527599125E+03  0.12822614920E+04  0.79918499636E+02 0.  0.
         11    1    3    3    0    0  0.23529797730E+03 -0.67084958665E+03 -0.12832400847E+03  0.72240664254E+03  0.00000000000E+00 0. -1.
        -11    1    3    3    0    0  0.27270504741E+03 -0.53524141358E+03 -0.12549023822E+03  0.61367679896E+03  0.00000000000E+00 0.  1.
          2    1    6    6  502    0 -0.24432993247E+01  0.44830855502E+03  0.35865879562E+03  0.57412774005E+03  0.00000000000E+00 0. -1.
          1    1    5    5  503    0 -0.29367039530E+03  0.91650520382E+02  0.31960158653E+03  0.44360713821E+03  0.00000000000E+00 0. -1.
         -2    1    5    5    0  503 -0.27323325193E+03  0.15535404866E+03  0.26771074068E+03  0.41286841859E+03  0.00000000000E+00 0.  1.
         -1    1    6    6    0  502  0.61343921852E+02  0.51077787617E+03  0.48661719563E+03  0.70813375192E+03  0.00000000000E+00 0.  1.
<mgrwt>
<rscale>  0 0.32687718E+04</rscale>
<asrwt>0</asrwt>
<pdfrwt beam="1">  1        1 0.35796881E+00 0.32687718E+04</pdfrwt>
<pdfrwt beam="2">  1       -1 0.17661896E+00 0.32687718E+04</pdfrwt>
<totfact> 0.32663773E-01</totfact>
</mgrwt>
</event>
<event>
12    1  0.2083715E-007  0.1224907E+04  0.7818608E-02  0.9091330E-01
          1   -1    0    0  501    0  0.00000000000E+00  0.00000000000E+00  0.20831368664E+04  0.20831368664E+04  0.00000000000E+00 0. -1.
         -1   -1    0    0    0  501 -0.00000000000E+00 -0.00000000000E+00 -0.18006476343E+03  0.18006476343E+03  0.00000000000E+00 0.  1.
         23    2    1    2    0    0  0.26416465071E+03  0.53380344972E+02  0.37948659247E+03  0.47373210092E+03  0.88202072925E+02 0.  0.
        254    2    1    2    0    0 -0.26416465071E+03 -0.53380344972E+02  0.15235855105E+04  0.17894695289E+04  0.89903056852E+03 0.  0.
        -24    2    4    4    0    0 -0.11920830997E+02 -0.13743199991E+03  0.15025744794E+04  0.15109301956E+04  0.78424033967E+02 0.  0.
         24    2    4    4    0    0 -0.25224381971E+03  0.84051654942E+02  0.21011031125E+02  0.27853933329E+03  0.80318562480E+02 0.  0.
         13    1    3    3    0    0  0.14622296365E+03  0.41984368938E+02  0.28148335157E+03  0.31996362222E+03  0.00000000000E+00 0. -1.
        -13    1    3    3    0    0  0.11794168706E+03  0.11395976034E+02  0.98003240899E+02  0.15376847870E+03  0.00000000000E+00 0.  1.
          2    1    6    6  502    0 -0.25361754861E+03  0.79009839587E+02  0.30823700311E+02  0.26742198155E+03  0.00000000000E+00 0. -1.
          3    1    5    5  503    0 -0.35335394738E+02 -0.12027168612E+03  0.10562211951E+04  0.10636339040E+04  0.00000000000E+00 0. -1.
         -4    1    5    5    0  503  0.23414563741E+02 -0.17160313797E+02  0.44635328426E+03  0.44729629166E+03  0.00000000000E+00 0.  1.
         -1    1    6    6    0  502  0.13737288980E+01  0.50418153552E+01 -0.98126691864E+01  0.11117351741E+02  0.00000000000E+00 0.  1.
<mgrwt>
<rscale>  0 0.12249074E+04</rscale>
<asrwt>0</asrwt>
<pdfrwt beam="1">  1        1 0.32048258E+00 0.12249074E+04</pdfrwt>
<pdfrwt beam="2">  1       -1 0.27702273E-01 0.12249074E+04</pdfrwt>
<totfact> 0.30391310E+01</totfact>
</mgrwt>
</event>
<event>
12    1  0.2083715E-007  0.1089544E+04  0.7818608E-02  0.9215443E-01
          2   -1    0    0  501    0  0.00000000000E+00  0.00000000000E+00  0.74939650926E+03  0.74939650926E+03  0.00000000000E+00 0. -1.
         -2   -1    0    0    0  501 -0.00000000000E+00 -0.00000000000E+00 -0.39602096277E+03  0.39602096277E+03  0.00000000000E+00 0.  1.
         23    2    1    2    0    0  0.49708452188E+02  0.13558039281E+03  0.93697606751E+02  0.19492190966E+03  0.91445810312E+02 0.  0.
        254    2    1    2    0    0 -0.49708452188E+02 -0.13558039281E+03  0.25967793973E+03  0.95049556237E+03  0.90286001604E+03 0.  0.
        -24    2    4    4    0    0  0.27611165393E+03  0.17153635969E+02 -0.20772133569E+03  0.35502894612E+03  0.79784125109E+02 0.  0.
         24    2    4    4    0    0 -0.32582010612E+03 -0.15273402878E+03  0.46739927542E+03  0.59546661624E+03  0.81436989740E+02 0.  0.
         11    1    3    3    0    0  0.48516954431E+02  0.61741198873E+02  0.92134805325E+02  0.12105656883E+03  0.00000000000E+00 0. -1.
        -11    1    3    3    0    0  0.11914977565E+01  0.73839193933E+02  0.15628014260E+01  0.73865340830E+02  0.00000000000E+00 0.  1.
          4    1    6    6  502    0 -0.12645944747E+03 -0.82501666467E+02  0.25136371361E+03  0.29322727250E+03  0.00000000000E+00 0. -1.
          3    1    5    5  503    0  0.82194825881E+02  0.37236476672E+02 -0.89157081837E+02  0.12685239390E+03  0.00000000000E+00 0. -1.
         -4    1    5    5    0  503  0.19391682805E+03 -0.20082840703E+02 -0.11856425386E+03  0.22817655222E+03  0.00000000000E+00 0.  1.
         -3    1    6    6    0  502 -0.19936065865E+03 -0.70232362309E+02  0.21603556182E+03  0.30223934374E+03  0.00000000000E+00 0.  1.
<mgrwt>
<rscale>  0 0.10895444E+04</rscale>
<asrwt>0</asrwt>
<pdfrwt beam="1">  1        2 0.11529177E+00 0.10895444E+04</pdfrwt>
<pdfrwt beam="2">  1       -2 0.60926302E-01 0.10895444E+04</pdfrwt>
<totfact> 0.93542395E+01</totfact>
</mgrwt>
</event>
<event>
12    1  0.2083715E-007  0.1268871E+04  0.7818608E-02  0.9054621E-01
          2   -1    0    0  501    0  0.00000000000E+00  0.00000000000E+00  0.27745126561E+04  0.27745126561E+04  0.00000000000E+00 0. -1.
         -2   -1    0    0    0  501 -0.00000000000E+00 -0.00000000000E+00 -0.14507360671E+03  0.14507360671E+03  0.00000000000E+00 0.  1.
         23    2    1    2    0    0 -0.56748835320E+02 -0.28139245407E+03  0.85752462048E+03  0.91107033050E+03  0.11089873254E+03 0.  0.
        254    2    1    2    0    0  0.56748835320E+02  0.28139245407E+03  0.17719144289E+04  0.20085159323E+04  0.90114003543E+03 0.  0.
        -24    2    4    4    0    0  0.14797048707E+03  0.49009211923E+03  0.52153652505E+03  0.73498807116E+03  0.78240446085E+02 0.  0.
         24    2    4    4    0    0 -0.91221651747E+02 -0.20869966516E+03  0.12503779039E+04  0.12735278612E+04  0.80940538085E+02 0.  0.
         11    1    3    3    0    0 -0.36541858855E+02 -0.22153160347E+02  0.73130740870E+02  0.84700503081E+02  0.00000000000E+00 0.  1.
        -11    1    3    3    0    0 -0.20206976465E+02 -0.25923929372E+03  0.78439387961E+03  0.82636982742E+03  0.00000000000E+00 0. -1.
          4    1    6    6  502    0  0.76199690942E+01 -0.51811657615E+02  0.38200879969E+03  0.38558168374E+03  0.00000000000E+00 0. -1.
          1    1    5    5  503    0 -0.61676514497E+01  0.52561339102E+02  0.68686258559E+02  0.86709494333E+02  0.00000000000E+00 0. -1.
         -2    1    5    5    0  503  0.15413813852E+03  0.43753078013E+03  0.45285026650E+03  0.64827857682E+03  0.00000000000E+00 0.  1.
         -3    1    6    6    0  502 -0.98841620841E+02 -0.15688800754E+03  0.86836910416E+03  0.88794617742E+03  0.00000000000E+00 0.  1.
<mgrwt>
<rscale>  0 0.12688712E+04</rscale>
<asrwt>0</asrwt>
<pdfrwt beam="1">  1        2 0.42684806E+00 0.12688712E+04</pdfrwt>
<pdfrwt beam="2">  1       -2 0.22319018E-01 0.12688712E+04</pdfrwt>
<totfact> 0.41776562E+01</totfact>
</mgrwt>
</event>
<event>
12    1  0.2083715E-007  0.3114047E+04  0.7818608E-02  0.8211893E-01
          2   -1    0    0  501    0  0.00000000000E+00  0.00000000000E+00  0.18523695831E+04  0.18523695831E+04  0.00000000000E+00 0. -1.
         -2   -1    0    0    0  501 -0.00000000000E+00 -0.00000000000E+00 -0.13087677406E+04  0.13087677406E+04  0.00000000000E+00 0.  1.
         23    2    1    2    0    0  0.10846868470E+04  0.13536809213E+03  0.11778319110E+04  0.16095409739E+04  0.92000323786E+02 0.  0.
        254    2    1    2    0    0 -0.10846868470E+04 -0.13536809213E+03 -0.63423006844E+03  0.15515963498E+04  0.90018519019E+03 0.  0.
        -24    2    4    4    0    0 -0.32062994377E+03  0.19565375926E+03 -0.60268427904E+03  0.71456346555E+03  0.79301019763E+02 0.  0.
         24    2    4    4    0    0 -0.76405690325E+03 -0.33102185139E+03 -0.31545789392E+02  0.83703288428E+03  0.79186457434E+02 0.  0.
         13    1    3    3    0    0  0.83781838142E+03  0.75277023748E+02  0.94141255499E+03  0.12624832154E+04  0.00000000000E+00 0.  1.
        -13    1    3    3    0    0  0.24686846559E+03  0.60091068383E+02  0.23641935601E+03  0.34705775845E+03  0.00000000000E+00 0. -1.
          4    1    6    6  502    0 -0.37927190556E+03 -0.19227173500E+03  0.14094568762E+02  0.42545770095E+03  0.00000000000E+00 0. -1.
          3    1    5    5  503    0 -0.32108825535E+03  0.18684072511E+03 -0.59932174133E+03  0.70511961674E+03  0.00000000000E+00 0. -1.
         -4    1    5    5    0  503  0.45831158694E+00  0.88130341454E+01 -0.33625377179E+01  0.94438488056E+01  0.00000000000E+00 0.  1.
         -3    1    6    6    0  502 -0.38478499769E+03 -0.13875011639E+03 -0.45640358154E+02  0.41157518333E+03  0.00000000000E+00 0.  1.
<mgrwt>
<rscale>  0 0.31140466E+04</rscale>
<asrwt>0</asrwt>
<pdfrwt beam="1">  1        2 0.28497994E+00 0.31140466E+04</pdfrwt>
<pdfrwt beam="2">  1       -2 0.20134888E+00 0.31140466E+04</pdfrwt>
<totfact> 0.89194441E-01</totfact>
</mgrwt>
</event>
<event>
12    1  0.2083715E-007  0.2487677E+04  0.7818608E-02  0.8407389E-01
         -3   -1    0    0    0  501 -0.00000000000E+00  0.00000000000E+00  0.13291875734E+04  0.13291875734E+04  0.00000000000E+00 0.  1.
          3   -1    0    0  501    0  0.00000000000E+00 -0.00000000000E+00 -0.11639695632E+04  0.11639695632E+04  0.00000000000E+00 0. -1.
         23    2    1    2    0    0 -0.50950517558E+02 -0.95645199647E+03  0.56379846094E+03  0.11153664024E+04  0.93686340324E+02 0.  0.
        254    2    1    2    0    0  0.50950517558E+02  0.95645199647E+03 -0.39858045076E+03  0.13777907341E+04  0.90666672736E+03 0.  0.
        -24    2    4    4    0    0  0.17956017751E+03  0.38302631419E+03 -0.61122778820E+03  0.74764110749E+03  0.80104942564E+02 0.  0.
         24    2    4    4    0    0 -0.12860965996E+03  0.57342568228E+03  0.21264733744E+03  0.63014962663E+03  0.80698228552E+02 0.  0.
         13    1    3    3    0    0 -0.40192757477E+01 -0.46321744196E+03  0.32120417975E+03  0.56370087653E+03  0.00000000000E+00 0.  1.
        -13    1    3    3    0    0 -0.46931241811E+02 -0.49323455451E+03  0.24259428120E+03  0.55166552592E+03  0.00000000000E+00 0. -1.
          2    1    6    6  502    0 -0.11459814516E+03  0.56547986713E+03  0.20875087260E+03  0.61357733157E+03  0.00000000000E+00 0. -1.
          1    1    5    5  503    0  0.58163412965E+02  0.20423726208E+03 -0.26628512818E+03  0.34059302887E+03  0.00000000000E+00 0. -1.
         -2    1    5    5    0  503  0.12139676455E+03  0.17878905211E+03 -0.34494266002E+03  0.40704807861E+03  0.00000000000E+00 0.  1.
         -1    1    6    6    0  502 -0.14011514800E+02  0.79458151464E+01  0.38964648388E+01  0.16572295060E+02  0.00000000000E+00 0.  1.
<mgrwt>
<rscale>  0 0.24876767E+04</rscale>
<asrwt>0</asrwt>
<pdfrwt beam="1">  1        3 0.17907224E+00 0.24876767E+04</pdfrwt>
<pdfrwt beam="2">  1       -3 0.20449040E+00 0.24876767E+04</pdfrwt>
<totfact> 0.64255554E-02</totfact>
</mgrwt>
</event>
<event>
12    1  0.2083715E-007  0.3552164E+04  0.7818608E-02  0.8101538E-01
         -1   -1    0    0    0  501 -0.00000000000E+00  0.00000000000E+00  0.12816068351E+04  0.12816068351E+04  0.00000000000E+00 0.  1.
          1   -1    0    0  501    0  0.00000000000E+00 -0.00000000000E+00 -0.24613382632E+04  0.24613382632E+04  0.00000000000E+00 0. -1.
         23    2    1    2    0    0 -0.62937771790E+03 -0.15332406567E+04 -0.65821512993E+03  0.17856765617E+04  0.91926071463E+02 0.  0.
        254    2    1    2    0    0  0.62937771790E+03  0.15332406567E+04 -0.52151629813E+03  0.19572685365E+04  0.90109802548E+03 0.  0.
        -24    2    4    4    0    0  0.63764082175E+02  0.96187253677E+03 -0.61142695211E+03  0.11442699939E+04  0.79033322461E+02 0.  0.
         24    2    4    4    0    0  0.56561363573E+03  0.57136811997E+03  0.89910653979E+02  0.81299854259E+03  0.80637405165E+02 0.  0.
         13    1    3    3    0    0 -0.43453660096E+03 -0.10627407980E+04 -0.40998078113E+03  0.12191490073E+04  0.00000000000E+00 0.  1.
        -13    1    3    3    0    0 -0.19484111695E+03 -0.47049985878E+03 -0.24823434880E+03  0.56652755439E+03  0.00000000000E+00 0. -1.
          4    1    6    6  502    0  0.27939853341E+03  0.33796632269E+03  0.57611643577E+02  0.44227127108E+03  0.00000000000E+00 0. -1.
          1    1    5    5  503    0  0.34159888924E+02  0.67967704758E+03 -0.47139368673E+03  0.82785252002E+03  0.00000000000E+00 0. -1.
         -2    1    5    5    0  503  0.29604193250E+02  0.28219548919E+03 -0.14003326538E+03  0.31641747390E+03  0.00000000000E+00 0.  1.
         -3    1    6    6    0  502  0.28621510232E+03  0.23340179727E+03  0.32299010403E+02  0.37072727151E+03  0.00000000000E+00 0.  1.
<mgrwt>
<rscale>  0 0.35521644E+04</rscale>
<asrwt>0</asrwt>
<pdfrwt beam="1">  1        1 0.37866742E+00 0.35521644E+04</pdfrwt>
<pdfrwt beam="2">  1       -1 0.19717028E+00 0.35521644E+04</pdfrwt>
<totfact> 0.18427507E-01</totfact>
</mgrwt>
</event>
<event>
12    1  0.2083715E-007  0.1122996E+04  0.7818608E-02  0.9183064E-01
          1   -1    0    0  501    0  0.00000000000E+00  0.00000000000E+00  0.20850347105E+04  0.20850347105E+04  0.00000000000E+00 0. -1.
         -1   -1    0    0    0  501 -0.00000000000E+00 -0.00000000000E+00 -0.15121083296E+03  0.15121083296E+03  0.00000000000E+00 0.  1.
         23    2    1    2    0    0  0.18003761336E+02  0.27773328171E+02 -0.59431043968E+01  0.97433865072E+02  0.91446948517E+02 0.  0.
        254    2    1    2    0    0 -0.18003761336E+02 -0.27773328171E+02  0.19397669819E+04  0.21388116784E+04  0.90040210916E+03 0.  0.
        -24    2    4    4    0    0 -0.70539875723E+01 -0.36927700308E+03  0.36454241415E+03  0.52498772427E+03  0.79408281503E+02 0.  0.
         24    2    4    4    0    0 -0.10949773764E+02  0.34150367491E+03  0.15752245678E+04  0.16138239541E+04  0.79691018229E+02 0.  0.
         13    1    3    3    0    0  0.17642268787E+02  0.32295396289E+02 -0.44990462133E+02  0.58123867321E+02  0.00000000000E+00 0.  1.
        -13    1    3    3    0    0  0.36149254875E+00 -0.45220681181E+01  0.39047357737E+02  0.39309997750E+02  0.00000000000E+00 0. -1.
          4    1    6    6  502    0  0.30818275289E+02  0.16332077047E+03  0.82773713920E+03  0.84425837975E+03  0.00000000000E+00 0. -1.
          3    1    5    5  503    0 -0.40024703136E+02 -0.21452411216E+03  0.18937295800E+03  0.28893717099E+03  0.00000000000E+00 0. -1.
         -4    1    5    5    0  503  0.32970715563E+02 -0.15475289092E+03  0.17516945615E+03  0.23605055328E+03  0.00000000000E+00 0.  1.
         -3    1    6    6    0  502 -0.41768049053E+02  0.17818290444E+03  0.74748742859E+03  0.76956557437E+03  0.00000000000E+00 0.  1.
<mgrwt>
<rscale>  0 0.11229957E+04</rscale>
<asrwt>0</asrwt>
<pdfrwt beam="1">  1        1 0.32077455E+00 0.11229957E+04</pdfrwt>
<pdfrwt beam="2">  1       -1 0.23263206E-01 0.11229957E+04</pdfrwt>
<totfact> 0.41266920E+01</totfact>
</mgrwt>
</event>
<event>
12    1  0.2083715E-007  0.1921477E+04  0.7818608E-02  0.8644239E-01
          1   -1    0    0  501    0  0.00000000000E+00  0.00000000000E+00  0.96842146854E+03  0.96842146854E+03  0.00000000000E+00 0. -1.
         -1   -1    0    0    0  501 -0.00000000000E+00 -0.00000000000E+00 -0.95311616046E+03  0.95311616046E+03  0.00000000000E+00 0.  1.
         23    2    1    2    0    0  0.39773180584E+03 -0.58321594819E+03  0.25028461647E+03  0.75466755628E+03  0.92462422992E+02 0.  0.
        254    2    1    2    0    0 -0.39773180584E+03  0.58321594819E+03 -0.23497930839E+03  0.11668700727E+04  0.89890992855E+03 0.  0.
        -24    2    4    4    0    0  0.22545500298E+03  0.39403094565E+03  0.24484964252E+02  0.46131115105E+03  0.78218412857E+02 0.  0.
         24    2    4    4    0    0 -0.62318680881E+03  0.18918500254E+03 -0.25946427264E+03  0.70555892167E+03  0.79617330487E+02 0.  0.
         13    1    3    3    0    0  0.71064257123E+02 -0.54015956104E+02  0.43406264450E+02  0.99257019640E+02  0.00000000000E+00 0. -1.
        -13    1    3    3    0    0  0.32666754871E+03 -0.52919999209E+03  0.20687835202E+03  0.65541053664E+03  0.00000000000E+00 0.  1.
          4    1    6    6  502    0 -0.24681493020E+03  0.34651281295E+02 -0.95796977542E+02  0.26701195099E+03  0.00000000000E+00 0. -1.
          3    1    5    5  503    0 -0.62598683123E+01  0.14267880480E+02 -0.16715787385E+01  0.15670116150E+02  0.00000000000E+00 0. -1.
         -4    1    5    5    0  503  0.23171487129E+03  0.37976306517E+03  0.26156542990E+02  0.44564103490E+03  0.00000000000E+00 0.  1.
         -3    1    6    6    0  502 -0.37637187861E+03  0.15453372124E+03 -0.16366729510E+03  0.43854697068E+03  0.00000000000E+00 0.  1.
<mgrwt>
<rscale>  0 0.19214767E+04</rscale>
<asrwt>0</asrwt>
<pdfrwt beam="1">  1        1 0.14898792E+00 0.19214767E+04</pdfrwt>
<pdfrwt beam="2">  1       -1 0.14663325E+00 0.19214767E+04</pdfrwt>
<totfact> 0.55499593E+00</totfact>
</mgrwt>
</event>
<event>
12    1  0.2083715E-007  0.1767504E+04  0.7818608E-02  0.8723774E-01
          2   -1    0    0  501    0  0.00000000000E+00  0.00000000000E+00  0.20572859497E+04  0.20572859497E+04  0.00000000000E+00 0. -1.
         -2   -1    0    0    0  501 -0.00000000000E+00 -0.00000000000E+00 -0.37963508310E+03  0.37963508310E+03  0.00000000000E+00 0.  1.
         23    2    1    2    0    0 -0.22449013067E+03 -0.62016174865E+02  0.14608843469E+04  0.14821865077E+04  0.91934455175E+02 0.  0.
        254    2    1    2    0    0  0.22449013067E+03  0.62016174865E+02  0.21676651967E+03  0.95473452502E+03  0.90016024379E+03 0.  0.
        -24    2    4    4    0    0  0.48654095809E+03  0.23812164492E+03 -0.25135039967E+02  0.54907751916E+03  0.86199362710E+02 0.  0.
         24    2    4    4    0    0 -0.26205082742E+03 -0.17610547006E+03  0.24190155964E+03  0.40565700586E+03  0.79733738863E+02 0.  0.
         11    1    3    3    0    0 -0.18922955425E+03 -0.12575555344E+02  0.10998009576E+04  0.11160323092E+04  0.00000000000E+00 0. -1.
        -11    1    3    3    0    0 -0.35260576416E+02 -0.49440619521E+02  0.36108338932E+03  0.36615419860E+03  0.00000000000E+00 0.  1.
          2    1    6    6  502    0 -0.85798589426E+02 -0.86586077129E+02  0.55443806042E+02  0.13391251745E+03  0.00000000000E+00 0. -1.
          1    1    5    5  503    0  0.31668404435E+03  0.17508778059E+03  0.19829547800E+02  0.36240547156E+03  0.00000000000E+00 0. -1.
         -2    1    5    5    0  503  0.16985691374E+03  0.63033864334E+02 -0.44964587767E+02  0.18667204759E+03  0.00000000000E+00 0.  1.
         -1    1    6    6    0  502 -0.17625223799E+03 -0.89519392926E+02  0.18645775360E+03  0.27174448841E+03  0.00000000000E+00 0.  1.
<mgrwt>
<rscale>  0 0.17675044E+04</rscale>
<asrwt>0</asrwt>
<pdfrwt beam="1">  1        2 0.31650552E+00 0.17675044E+04</pdfrwt>
<pdfrwt beam="2">  1       -2 0.58405399E-01 0.17675044E+04</pdfrwt>
<totfact> 0.16109817E+01</totfact>
</mgrwt>
</event>
<event>
12    1  0.2083715E-007  0.1468039E+04  0.7818608E-02  0.8905989E-01
         -2   -1    0    0    0  501 -0.00000000000E+00  0.00000000000E+00  0.17992274944E+03  0.17992274944E+03  0.00000000000E+00 0.  1.
          2   -1    0    0  501    0  0.00000000000E+00 -0.00000000000E+00 -0.29945320738E+04  0.29945320738E+04  0.00000000000E+00 0. -1.
         23    2    1    2    0    0 -0.11188590230E+02 -0.40273722375E+03 -0.44341245657E+03  0.60585877785E+03  0.90154290643E+02 0.  0.
        254    2    1    2    0    0  0.11188590230E+02  0.40273722375E+03 -0.23711968678E+04  0.25685960454E+04  0.90154789255E+03 0.  0.
        -24    2    4    4    0    0 -0.11606028481E+03  0.52200728886E+03 -0.23017243419E+04  0.23645305535E+04  0.84310099822E+02 0.  0.
         24    2    4    4    0    0  0.12724887504E+03 -0.11927006512E+03 -0.69472525897E+02  0.20406549190E+03  0.79991677685E+02 0.  0.
         11    1    3    3    0    0 -0.32234852345E+02 -0.19289883417E+03 -0.16054784513E+03  0.25303093982E+03  0.00000000000E+00 0.  1.
        -11    1    3    3    0    0  0.21046262116E+02 -0.20983838957E+03 -0.28286461143E+03  0.35282783803E+03  0.00000000000E+00 0. -1.
          2    1    6    6  502    0  0.40452195692E+02 -0.91031396050E+02 -0.25916440969E+02  0.10293083656E+03  0.00000000000E+00 0. -1.
          1    1    5    5  503    0 -0.35261236513E+02  0.32924179276E+03 -0.13325795340E+04  0.13731029559E+04  0.00000000000E+00 0. -1.
         -2    1    5    5    0  503 -0.80799048293E+02  0.19276549610E+03 -0.96914480786E+03  0.99142759760E+03  0.00000000000E+00 0.  1.
         -1    1    6    6    0  502  0.86796679344E+02 -0.28238669067E+02 -0.43556084928E+02  0.10113465534E+03  0.00000000000E+00 0.  1.
<mgrwt>
<rscale>  0 0.14680388E+04</rscale>
<asrwt>0</asrwt>
<pdfrwt beam="1">  1        2 0.46069720E+00 0.14680388E+04</pdfrwt>
<pdfrwt beam="2">  1       -2 0.27680425E-01 0.14680388E+04</pdfrwt>
<totfact> 0.20396250E+01</totfact>
</mgrwt>
</event>
<event>
12    1  0.2132782E-007  0.2000304E+04  0.7818608E-02  0.8606479E-01
          2   -1    0    0  501    0  0.00000000000E+00  0.00000000000E+00  0.20812319267E+04  0.20812319267E+04  0.00000000000E+00 0. -1.
         -2   -1    0    0    0  501 -0.00000000000E+00 -0.00000000000E+00 -0.48063072592E+03  0.48063072592E+03  0.00000000000E+00 0.  1.
         23    2    1    2    0    0 -0.70181256728E+03  0.35628480061E+03  0.50177712145E+03  0.93768012270E+03  0.89353198906E+02 0.  0.
        254    2    1    2    0    0  0.70181256728E+03 -0.35628480061E+03  0.10988240793E+04  0.16241825299E+04  0.90059691006E+03 0.  0.
        -24    2    4    4    0    0  0.81561478753E+02 -0.25264989370E+01  0.85898949206E+03  0.86653091596E+03  0.79713379200E+02 0.  0.
         24    2    4    4    0    0  0.62025108853E+03 -0.35375830167E+03  0.23983458726E+03  0.75765161395E+03  0.81602635052E+02 0.  0.
         13    1    3    3    0    0 -0.44932093797E+03  0.26426298289E+03  0.36312217605E+03  0.63528099622E+03  0.00000000000E+00 0.  1.
        -13    1    3    3    0    0 -0.25249162932E+03  0.92021817714E+02  0.13865494541E+03  0.30239912648E+03  0.00000000000E+00 0. -1.
          4    1    6    6  502    0  0.57268404347E+03 -0.33352827772E+03  0.19955387962E+03  0.69211984263E+03  0.00000000000E+00 0. -1.
          1    1    5    5  503    0  0.94204689649E+02  0.80259424751E+01  0.64290699038E+03  0.64982177370E+03  0.00000000000E+00 0. -1.
         -2    1    5    5    0  503 -0.12643210897E+02 -0.10552441412E+02  0.21608250168E+03  0.21670914225E+03  0.00000000000E+00 0.  1.
         -3    1    6    6    0  502  0.47567045059E+02 -0.20230023949E+02  0.40280707636E+02  0.65531771319E+02  0.00000000000E+00 0.  1.
<mgrwt>
<rscale>  0 0.20003040E+04</rscale>
<asrwt>0</asrwt>
<pdfrwt beam="1">  1        2 0.32018952E+00 0.20003040E+04</pdfrwt>
<pdfrwt beam="2">  1       -2 0.73943190E-01 0.20003040E+04</pdfrwt>
<totfact> 0.92146840E+00</totfact>
</mgrwt>
</event>
<event>
12    1  0.2083715E-007  0.1713031E+04  0.7818608E-02  0.8753967E-01
         -2   -1    0    0    0  501 -0.00000000000E+00  0.00000000000E+00  0.57778223544E+03  0.57778223544E+03  0.00000000000E+00 0.  1.
          2   -1    0    0  501    0  0.00000000000E+00 -0.00000000000E+00 -0.12697153003E+04  0.12697153003E+04  0.00000000000E+00 0. -1.
         23    2    1    2    0    0  0.60235388985E+03  0.34726047147E+02 -0.11656743406E+03  0.62097228300E+03  0.89344852139E+02 0.  0.
        254    2    1    2    0    0 -0.60235388985E+03 -0.34726047147E+02 -0.57536563081E+03  0.12265252528E+04  0.89960128923E+03 0.  0.
        -24    2    4    4    0    0 -0.64782013419E+03 -0.31301877977E+03 -0.58891270429E+03  0.93325955111E+03  0.80644489698E+02 0.  0.
         24    2    4    4    0    0  0.45466244342E+02  0.27829273262E+03  0.13547073483E+02  0.29326570165E+03  0.79418034196E+02 0.  0.
         11    1    3    3    0    0  0.57521128258E+03  0.13883988812E+02 -0.10523527564E+03  0.58492328386E+03  0.00000000000E+00 0.  1.
        -11    1    3    3    0    0  0.27142607262E+02  0.20842058334E+02 -0.11332158425E+02  0.36048999142E+02  0.00000000000E+00 0. -1.
          2    1    6    6  502    0  0.32613478459E+02  0.10647308595E+03 -0.30436605245E+02  0.11544065119E+03  0.00000000000E+00 0. -1.
          1    1    5    5  503    0 -0.47465380875E+03 -0.21564164093E+03 -0.38125526375E+03  0.64587392857E+03  0.00000000000E+00 0. -1.
         -4    1    5    5    0  503 -0.17316632544E+03 -0.97377138845E+02 -0.20765744054E+03  0.28738562255E+03  0.00000000000E+00 0.  1.
         -1    1    6    6    0  502  0.12852765883E+02  0.17181964667E+03  0.43983678728E+02  0.17782505045E+03  0.00000000000E+00 0.  1.
<mgrwt>
<rscale>  0 0.17130312E+04</rscale>
<asrwt>0</asrwt>
<pdfrwt beam="1">  1        2 0.19534082E+00 0.17130312E+04</pdfrwt>
<pdfrwt beam="2">  1       -2 0.88889574E-01 0.17130312E+04</pdfrwt>
<totfact> 0.17804521E+01</totfact>
</mgrwt>
</event>
<event>
12    1  0.2083715E-007  0.2748396E+04  0.7818608E-02  0.8319471E-01
         -2   -1    0    0    0  501 -0.00000000000E+00  0.00000000000E+00  0.72830308569E+03  0.72830308569E+03  0.00000000000E+00 0.  1.
          2   -1    0    0  501    0  0.00000000000E+00 -0.00000000000E+00 -0.25929051582E+04  0.25929051582E+04  0.00000000000E+00 0. -1.
         23    2    1    2    0    0 -0.97519444915E+03 -0.15973511334E+03 -0.17084291411E+04  0.19759527816E+04  0.95602013343E+02 0.  0.
        254    2    1    2    0    0  0.97519444915E+03  0.15973511334E+03 -0.15617293146E+03  0.13452554623E+04  0.89933461753E+03 0.  0.
        -24    2    4    4    0    0  0.98762109371E+03 -0.15061472068E+03 -0.19772916432E+03  0.10216653189E+04  0.81381709549E+02 0.  0.
         24    2    4    4    0    0 -0.12426644566E+02  0.31034983402E+03  0.41556232870E+02  0.32359014338E+03  0.80698323608E+02 0.  0.
         11    1    3    3    0    0 -0.44970142966E+03 -0.57264202215E+02 -0.87307615402E+03  0.98375430642E+03  0.00000000000E+00 0. -1.
        -11    1    3    3    0    0 -0.52549301948E+03 -0.10247091113E+03 -0.83535298708E+03  0.99219847520E+03  0.00000000000E+00 0.  1.
          2    1    6    6  502    0 -0.85877573728E+00  0.57937350068E+02  0.40878007267E+02  0.70911815001E+02  0.00000000000E+00 0. -1.
          3    1    5    5  503    0  0.34770440145E+03 -0.81922812954E+02 -0.97707874304E+02  0.37034649555E+03  0.00000000000E+00 0. -1.
         -4    1    5    5    0  503  0.63991669227E+03 -0.68691907722E+02 -0.10002129002E+03  0.65131882338E+03  0.00000000000E+00 0.  1.
         -1    1    6    6    0  502 -0.11567868829E+02  0.25241248395E+03  0.67822560276E+00  0.25267832838E+03  0.00000000000E+00 0.  1.
<mgrwt>
<rscale>  0 0.27483965E+04</rscale>
<asrwt>0</asrwt>
<pdfrwt beam="1">  1        2 0.39890849E+00 0.27483965E+04</pdfrwt>
<pdfrwt beam="2">  1       -2 0.11204663E+00 0.27483965E+04</pdfrwt>
<totfact> 0.16863540E+00</totfact>
</mgrwt>
</event>
<event>
12    1  0.2083715E-007  0.1723152E+04  0.7818608E-02  0.8748269E-01
          2   -1    0    0  501    0  0.00000000000E+00  0.00000000000E+00  0.15238746506E+04  0.15238746506E+04  0.00000000000E+00 0. -1.
         -2   -1    0    0    0  501 -0.00000000000E+00 -0.00000000000E+00 -0.48712232936E+03  0.48712232936E+03  0.00000000000E+00 0.  1.
         23    2    1    2    0    0  0.21435741883E+03 -0.44516881825E+03 -0.59768252824E+02  0.50642390309E+03  0.93640513815E+02 0.  0.
        254    2    1    2    0    0 -0.21435741883E+03  0.44516881825E+03  0.10965205740E+04  0.15045730768E+04  0.90402344800E+03 0.  0.
        -24    2    4    4    0    0 -0.34036222430E+03  0.35127793968E+03  0.11687673503E+03  0.50906265893E+03  0.79006233230E+02 0.  0.
         24    2    4    4    0    0  0.12600480547E+03  0.93890878572E+02  0.97964383901E+03  0.99551041791E+03  0.81524430634E+02 0.  0.
         11    1    3    3    0    0  0.46097664495E+02 -0.73086797302E+02  0.23746145600E+02  0.89613358617E+02  0.00000000000E+00 0. -1.
        -11    1    3    3    0    0  0.16825975434E+03 -0.37208202095E+03 -0.83514398423E+02  0.41681054448E+03  0.00000000000E+00 0.  1.
          4    1    6    6  502    0  0.10041477728E+03  0.29203488281E+02  0.49734131778E+03  0.50821684111E+03  0.00000000000E+00 0. -1.
          1    1    5    5  503    0 -0.34276933646E+03  0.35309613594E+03  0.11759704528E+03  0.50596122805E+03  0.00000000000E+00 0. -1.
         -2    1    5    5    0  503  0.24071121626E+01 -0.18181962616E+01 -0.72031025318E+00  0.31014308746E+01  0.00000000000E+00 0.  1.
         -3    1    6    6    0  502  0.25590028189E+02  0.64687390291E+02  0.48230252123E+03  0.48729357680E+03  0.00000000000E+00 0.  1.
<mgrwt>
<rscale>  0 0.17231522E+04</rscale>
<asrwt>0</asrwt>
<pdfrwt beam="1">  1        2 0.23444225E+00 0.17231522E+04</pdfrwt>
<pdfrwt beam="2">  1       -2 0.74941897E-01 0.17231522E+04</pdfrwt>
<totfact> 0.18695536E+01</totfact>
</mgrwt>
</event>
<event>
12    1  0.2083715E-007  0.1716285E+04  0.7818608E-02  0.8752130E-01
         -1   -1    0    0    0  501 -0.00000000000E+00  0.00000000000E+00  0.16753730377E+04  0.16753730377E+04  0.00000000000E+00 0.  1.
          1   -1    0    0  501    0  0.00000000000E+00 -0.00000000000E+00 -0.43954919640E+03  0.43954919640E+03  0.00000000000E+00 0. -1.
         23    2    1    2    0    0 -0.56328774180E+03 -0.12924632077E+03  0.72552355930E+03  0.93174066434E+03  0.88082569251E+02 0.  0.
        254    2    1    2    0    0  0.56328774180E+03  0.12924632077E+03  0.51030028199E+03  0.11831815697E+04  0.89750462822E+03 0.  0.
        -24    2    4    4    0    0  0.10144957508E+03 -0.20585271724E+03 -0.16630936603E+03  0.29434977502E+03  0.79470921393E+02 0.  0.
         24    2    4    4    0    0  0.46183816672E+03  0.33509903800E+03  0.67660964802E+03  0.88883179472E+03  0.81458492493E+02 0.  0.
         13    1    3    3    0    0 -0.90572824336E+02 -0.26562284110E+02  0.17540185433E+03  0.19918534572E+03  0.00000000000E+00 0.  1.
        -13    1    3    3    0    0 -0.47271491746E+03 -0.10268403666E+03  0.55012170497E+03  0.73255531863E+03  0.00000000000E+00 0. -1.
          2    1    6    6  502    0  0.11716562226E+03  0.55249445797E+02  0.19179962160E+03  0.23144627702E+03  0.00000000000E+00 0. -1.
          1    1    5    5  503    0  0.92214812631E+01  0.63530671286E+01 -0.10860393763E+02  0.15599529843E+02  0.00000000000E+00 0. -1.
         -2    1    5    5    0  503  0.92228093812E+02 -0.21220578437E+03 -0.15544897227E+03  0.27875024518E+03  0.00000000000E+00 0.  1.
         -1    1    6    6    0  502  0.34467254446E+03  0.27984959221E+03  0.48481002642E+03  0.65738551770E+03  0.00000000000E+00 0.  1.
<mgrwt>
<rscale>  0 0.17162854E+04</rscale>
<asrwt>0</asrwt>
<pdfrwt beam="1">  1        1 0.67622954E-01 0.17162854E+04</pdfrwt>
<pdfrwt beam="2">  1       -1 0.25774969E+00 0.17162854E+04</pdfrwt>
<totfact> 0.31185286E+00</totfact>
</mgrwt>
</event>
<event>
12    1  0.2083715E-007  0.2566093E+04  0.7818608E-02  0.8379811E-01
         -2   -1    0    0    0  501 -0.00000000000E+00  0.00000000000E+00  0.18052222499E+04  0.18052222499E+04  0.00000000000E+00 0. -1.
          2   -1    0    0  501    0  0.00000000000E+00 -0.00000000000E+00 -0.91191443622E+03  0.91191443622E+03  0.00000000000E+00 0.  1.
         23    2    1    2    0    0 -0.61971502938E+03 -0.91217727657E+03  0.16187416351E+03  0.11183869678E+04  0.92043811867E+02 0.  0.
        254    2    1    2    0    0  0.61971502938E+03  0.91217727657E+03  0.73143365012E+03  0.15987497183E+04  0.89715738627E+03 0.  0.
        -24    2    4    4    0    0 -0.14289973257E+02  0.58760317569E+03  0.28465213390E+02  0.59433851117E+03  0.83344478351E+02 0.  0.
         24    2    4    4    0    0  0.63400500263E+03  0.32457410089E+03  0.70296843674E+03  0.10044112071E+04  0.85828664566E+02 0.  0.
         11    1    3    3    0    0 -0.81247323258E+02 -0.91168843944E+02  0.42586342504E+02  0.12933090199E+03  0.00000000000E+00 0. -1.
        -11    1    3    3    0    0 -0.53846770612E+03 -0.82100843263E+03  0.11928782101E+03  0.98905606576E+03  0.00000000000E+00 0.  1.
          2    1    6    6  502    0  0.15626024400E+03  0.65684946050E+02  0.12140528653E+03  0.20849704936E+03  0.00000000000E+00 0. -1.
          3    1    5    5  503    0 -0.43639654233E+02  0.24701577830E+03  0.28798126435E+02  0.25248870516E+03  0.00000000000E+00 0. -1.
         -4    1    5    5    0  503  0.29349680975E+02  0.34058739739E+03 -0.33291304571E+00  0.34184980600E+03  0.00000000000E+00 0.  1.
         -1    1    6    6    0  502  0.47774475864E+03  0.25888915484E+03  0.58156315020E+03  0.79591415779E+03  0.00000000000E+00 0.  1.
<mgrwt>
<rscale>  0 0.25660929E+04</rscale>
<asrwt>0</asrwt>
<pdfrwt beam="1">  1        2 0.14029453E+00 0.25660929E+04</pdfrwt>
<pdfrwt beam="2">  1       -2 0.27772650E+00 0.25660929E+04</pdfrwt>
<totfact> 0.11100934E+00</totfact>
</mgrwt>
</event>
<event>
12    1  0.2083715E-007  0.3088453E+04  0.7818608E-02  0.8218914E-01
         -2   -1    0    0    0  501 -0.00000000000E+00  0.00000000000E+00  0.99828637146E+03  0.99828637146E+03  0.00000000000E+00 0.  1.
          2   -1    0    0  501    0  0.00000000000E+00 -0.00000000000E+00 -0.23887286724E+04  0.23887286724E+04  0.00000000000E+00 0. -1.
         23    2    1    2    0    0 -0.27360900392E+03  0.13847983934E+04 -0.63078312467E+03  0.15489108849E+04  0.93322566879E+02 0.  0.
        254    2    1    2    0    0  0.27360900392E+03 -0.13847983934E+04 -0.75965917625E+03  0.18381041589E+04  0.89945336592E+03 0.  0.
        -24    2    4    4    0    0  0.62875420361E+02 -0.13675478592E+04 -0.82693100992E+03  0.16010002727E+04  0.72432812547E+02 0.  0.
         24    2    4    4    0    0  0.21073358356E+03 -0.17250534254E+02  0.67271833664E+02  0.23710388623E+03  0.83585459793E+02 0.  0.
         11    1    3    3    0    0 -0.10625653445E+03  0.70290493556E+03 -0.28016621825E+03  0.76410660866E+03  0.00000000000E+00 0. -1.
        -11    1    3    3    0    0 -0.16735246947E+03  0.68189345789E+03 -0.35061690642E+03  0.78480427625E+03  0.00000000000E+00 0.  1.
          4    1    6    6  502    0  0.15433294412E+03  0.22509196393E+02  0.30530318174E+02  0.15892583771E+03  0.00000000000E+00 0. -1.
          1    1    5    5  503    0  0.48992915718E+02 -0.99128984391E+03 -0.56141616926E+03  0.11402824104E+04  0.00000000000E+00 0. -1.
         -2    1    5    5    0  503  0.13882504643E+02 -0.37625801529E+03 -0.26551484065E+03  0.46071786227E+03  0.00000000000E+00 0.  1.
         -3    1    6    6    0  502  0.56400639439E+02 -0.39759730647E+02  0.36741515491E+02  0.78178048522E+02  0.00000000000E+00 0.  1.
<mgrwt>
<rscale>  0 0.30884529E+04</rscale>
<asrwt>0</asrwt>
<pdfrwt beam="1">  1        2 0.36749671E+00 0.30884529E+04</pdfrwt>
<pdfrwt beam="2">  1       -2 0.15358252E+00 0.30884529E+04</pdfrwt>
<totfact> 0.96469643E-01</totfact>
</mgrwt>
</event>
<event>
12    1  0.2083715E-007  0.3720385E+04  0.7818608E-02  0.8063459E-01
          2   -1    0    0  501    0  0.00000000000E+00  0.00000000000E+00  0.13423474608E+04  0.13423474608E+04  0.00000000000E+00 0. -1.
         -2   -1    0    0    0  501 -0.00000000000E+00 -0.00000000000E+00 -0.25778092355E+04  0.25778092355E+04  0.00000000000E+00 0.  1.
         23    2    1    2    0    0 -0.59218748427E+03  0.13199751128E+04  0.45699094927E+03  0.15199334914E+04  0.91305945607E+02 0.  0.
        254    2    1    2    0    0  0.59218748427E+03 -0.13199751128E+04 -0.16924527240E+04  0.24002232048E+04  0.89646801120E+03 0.  0.
        -24    2    4    4    0    0  0.78670919631E+03 -0.10559865375E+04 -0.15456513431E+04  0.20320983669E+04  0.79792051052E+02 0.  0.
         24    2    4    4    0    0 -0.19452171203E+03 -0.26398857533E+03 -0.14680138090E+03  0.36812483794E+03  0.80228339878E+02 0.  0.
         11    1    3    3    0    0 -0.29737886299E+03  0.77301591444E+03  0.25811023469E+03  0.86753022159E+03  0.00000000000E+00 0. -1.
        -11    1    3    3    0    0 -0.29480862129E+03  0.54695919838E+03  0.19888071458E+03  0.65240326985E+03  0.00000000000E+00 0.  1.
          2    1    6    6  502    0 -0.15323219948E+03 -0.19452169278E+03 -0.14569101110E+03  0.28730587643E+03  0.00000000000E+00 0. -1.
          1    1    5    5  503    0  0.71707219145E+03 -0.96832416347E+03 -0.13779638680E+04  0.18304722437E+04  0.00000000000E+00 0. -1.
         -2    1    5    5    0  503  0.69637004854E+02 -0.87662374020E+02 -0.16768747513E+03  0.20162612325E+03  0.00000000000E+00 0.  1.
         -1    1    6    6    0  502 -0.41289512556E+02 -0.69466882550E+02 -0.11103698016E+01  0.80818961509E+02  0.00000000000E+00 0.  1.
<mgrwt>
<rscale>  0 0.37203848E+04</rscale>
<asrwt>0</asrwt>
<pdfrwt beam="1">  1        2 0.20651500E+00 0.37203848E+04</pdfrwt>
<pdfrwt beam="2">  1       -2 0.39658603E+00 0.37203848E+04</pdfrwt>
<totfact> 0.98432413E-02</totfact>
</mgrwt>
</event>
<event>
12    1  0.2113416E-007  0.3181139E+04  0.7818608E-02  0.8193816E-01
         -2   -1    0    0    0  501 -0.00000000000E+00  0.00000000000E+00  0.18077927361E+04  0.18077927361E+04  0.00000000000E+00 0.  1.
          2   -1    0    0  501    0  0.00000000000E+00 -0.00000000000E+00 -0.13994477293E+04  0.13994477293E+04  0.00000000000E+00 0. -1.
         23    2    1    2    0    0  0.13446124259E+04 -0.48200690986E+03  0.50306158558E+03  0.15172850515E+04  0.93646845315E+02 0.  0.
        254    2    1    2    0    0 -0.13446124259E+04  0.48200690986E+03 -0.94716578786E+02  0.16899554139E+04  0.89814521865E+03 0.  0.
        -24    2    4    4    0    0 -0.74937659697E+03 -0.36497387378E+02 -0.38254508728E+03  0.84586652901E+03  0.79070207474E+02 0.  0.
         24    2    4    4    0    0 -0.59523582893E+03  0.51850429724E+03  0.28782850850E+03  0.84408888494E+03  0.80550587066E+02 0.  0.
         11    1    3    3    0    0  0.63181800870E+03 -0.19137851428E+03  0.19734411549E+03  0.68903151725E+03  0.00000000000E+00 0. -1.
        -11    1    3    3    0    0  0.71279441720E+03 -0.29062839558E+03  0.30571747009E+03  0.82825353427E+03  0.00000000000E+00 0.  1.
          4    1    6    6  502    0 -0.40024258039E+03  0.29754797299E+03  0.18665654955E+03  0.53251252274E+03  0.00000000000E+00 0. -1.
          3    1    5    5  503    0 -0.50912762353E+03 -0.33093378606E+02 -0.29968610044E+03  0.59170758618E+03  0.00000000000E+00 0. -1.
         -4    1    5    5    0  503 -0.24024897345E+03 -0.34040087717E+01 -0.82858986847E+02  0.25415894283E+03  0.00000000000E+00 0.  1.
         -3    1    6    6    0  502 -0.19499324854E+03  0.22095632425E+03  0.10117195895E+03  0.31157636220E+03  0.00000000000E+00 0.  1.
<mgrwt>
<rscale>  0 0.31811391E+04</rscale>
<asrwt>0</asrwt>
<pdfrwt beam="1">  1        2 0.21529965E+00 0.31811391E+04</pdfrwt>
<pdfrwt beam="2">  1       -2 0.27812196E+00 0.31811391E+04</pdfrwt>
<totfact> 0.52804733E-01</totfact>
</mgrwt>
</event>
<event>
12    1  0.2083715E-007  0.2203925E+04  0.7818608E-02  0.8516796E-01
          2   -1    0    0  501    0  0.00000000000E+00  0.00000000000E+00  0.12237033962E+04  0.12237033962E+04  0.00000000000E+00 0. -1.
         -2   -1    0    0    0  501 -0.00000000000E+00 -0.00000000000E+00 -0.99233317003E+03  0.99233317003E+03  0.00000000000E+00 0.  1.
         23    2    1    2    0    0  0.65899727545E+03 -0.63145453549E+03  0.23501061007E+02  0.91846341604E+03  0.10005252265E+03 0.  0.
        254    2    1    2    0    0 -0.65899727545E+03  0.63145453549E+03  0.20786916518E+03  0.12975731502E+04  0.89859571045E+03 0.  0.
        -24    2    4    4    0    0 -0.51771991387E+03 -0.81705510323E+02  0.19848337655E+03  0.56609881944E+03  0.79765424602E+02 0.  0.
         24    2    4    4    0    0 -0.14127736158E+03  0.71316004582E+03  0.93857886341E+01  0.73147433077E+03  0.80062848430E+02 0.  0.
         13    1    3    3    0    0  0.46889099576E+03 -0.49210677146E+03  0.48381938595E+02  0.68144600110E+03  0.00000000000E+00 0. -1.
        -13    1    3    3    0    0  0.19010627969E+03 -0.13934776403E+03 -0.24880877588E+02  0.23701741495E+03  0.00000000000E+00 0.  1.
          4    1    6    6  502    0 -0.10077547154E+03  0.38249241227E+03 -0.26362744187E+02  0.39642292490E+03  0.00000000000E+00 0. -1.
          3    1    5    5  503    0 -0.19777340925E+03 -0.50872157487E+02  0.11346499656E+03  0.23361635914E+03  0.00000000000E+00 0. -1.
         -4    1    5    5    0  503 -0.31994650462E+03 -0.30833352836E+02  0.85018379988E+02  0.33248246029E+03  0.00000000000E+00 0.  1.
         -3    1    6    6    0  502 -0.40501890041E+02  0.33066763355E+03  0.35748532821E+02  0.33505140587E+03  0.00000000000E+00 0.  1.
<mgrwt>
<rscale>  0 0.22039251E+04</rscale>
<asrwt>0</asrwt>
<pdfrwt beam="1">  1        2 0.18826206E+00 0.22039251E+04</pdfrwt>
<pdfrwt beam="2">  1       -2 0.15266664E+00 0.22039251E+04</pdfrwt>
<totfact> 0.47898901E+00</totfact>
</mgrwt>
</event>
<event>
12    1  0.2083715E-007  0.1735255E+04  0.7818608E-02  0.8741509E-01
          2   -1    0    0  501    0  0.00000000000E+00  0.00000000000E+00  0.15749595629E+04  0.15749595629E+04  0.00000000000E+00 0. -1.
         -2   -1    0    0    0  501 -0.00000000000E+00 -0.00000000000E+00 -0.47796631928E+03  0.47796631928E+03  0.00000000000E+00 0.  1.
         23    2    1    2    0    0  0.49415122374E+03  0.28290334809E+02 -0.58317643201E+02  0.50645756066E+03  0.90069630129E+02 0.  0.
        254    2    1    2    0    0 -0.49415122374E+03 -0.28290334809E+02  0.11553108868E+04  0.15464683215E+04  0.90101900606E+03 0.  0.
        -24    2    4    4    0    0 -0.66515215386E+03 -0.36412262444E+02  0.11780918800E+04  0.13557579384E+04  0.80161518992E+02 0.  0.
         24    2    4    4    0    0  0.17100093012E+03  0.81219276353E+01 -0.22780993219E+02  0.19071038310E+03  0.80896185078E+02 0.  0.
         13    1    3    3    0    0  0.33726144726E+03  0.12636702098E+02 -0.81221695051E+02  0.34713388453E+03  0.00000000000E+00 0. -1.
        -13    1    3    3    0    0  0.15688977649E+03  0.15653632710E+02  0.22904051850E+02  0.15932367613E+03  0.00000000000E+00 0.  1.
          4    1    6    6  502    0  0.17597963300E+03 -0.40911723089E+01 -0.22973983797E+02  0.17752006324E+03  0.00000000000E+00 0. -1.
          1    1    5    5  503    0 -0.43149031794E+03 -0.18762744929E+02  0.68450135808E+03  0.80936891730E+03  0.00000000000E+00 0. -1.
         -2    1    5    5    0  503 -0.23366183592E+03 -0.17649517515E+02  0.49359052195E+03  0.54638902111E+03  0.00000000000E+00 0.  1.
         -3    1    6    6    0  502 -0.49787028808E+01  0.12213099944E+02  0.19299057803E+00  0.13190319859E+02  0.00000000000E+00 0.  1.
<mgrwt>
<rscale>  0 0.17352552E+04</rscale>
<asrwt>0</asrwt>
<pdfrwt beam="1">  1        2 0.24230147E+00 0.17352552E+04</pdfrwt>
<pdfrwt beam="2">  1       -2 0.73533281E-01 0.17352552E+04</pdfrwt>
<totfact> 0.18232010E+01</totfact>
</mgrwt>
</event>
<event>
12    1  0.2083715E-007  0.2563694E+04  0.7818608E-02  0.8380639E-01
          1   -1    0    0  501    0  0.00000000000E+00  0.00000000000E+00  0.25994827476E+04  0.25994827476E+04  0.00000000000E+00 0. -1.
         -1   -1    0    0    0  501 -0.00000000000E+00 -0.00000000000E+00 -0.63209934746E+03  0.63209934746E+03  0.00000000000E+00 0.  1.
         23    2    1    2    0    0  0.69021072922E+03  0.86712960275E+03  0.10828462609E+04  0.15523606390E+04  0.94672751940E+02 0.  0.
        254    2    1    2    0    0 -0.69021072922E+03 -0.86712960275E+03  0.88453713927E+03  0.16792214561E+04  0.89948549143E+03 0.  0.
        -24    2    4    4    0    0 -0.23108291923E+03 -0.20250228281E+03  0.80271528657E+03  0.86323372175E+03  0.80088307345E+02 0.  0.
         24    2    4    4    0    0 -0.45912780999E+03 -0.66462731994E+03  0.81821852702E+02  0.81598773438E+03  0.81322486236E+02 0.  0.
         13    1    3    3    0    0  0.40614910242E+03  0.43895762605E+03  0.56005017368E+03  0.81932721663E+03  0.00000000000E+00 0.  1.
        -13    1    3    3    0    0  0.28406162680E+03  0.42817197670E+03  0.52279608721E+03  0.73303342233E+03  0.00000000000E+00 0. -1.
          4    1    6    6  502    0 -0.23645461529E+03 -0.32995194912E+03  0.85429860687E+00  0.40593078677E+03  0.00000000000E+00 0. -1.
          3    1    5    5  503    0 -0.23639815789E+03 -0.19985536451E+03  0.79694180850E+03  0.85495175415E+03  0.00000000000E+00 0. -1.
         -4    1    5    5    0  503  0.53152386551E+01 -0.26469183042E+01  0.57734780658E+01  0.82819676072E+01  0.00000000000E+00 0.  1.
         -3    1    6    6    0  502 -0.22267319470E+03 -0.33467537081E+03  0.80967554095E+02  0.41005694761E+03  0.00000000000E+00 0.  1.
<mgrwt>
<rscale>  0 0.25636937E+04</rscale>
<asrwt>0</asrwt>
<pdfrwt beam="1">  1        1 0.39992042E+00 0.25636937E+04</pdfrwt>
<pdfrwt beam="2">  1       -1 0.97246055E-01 0.25636937E+04</pdfrwt>
<totfact> 0.10359581E+00</totfact>
</mgrwt>
</event>
<event>
12    1  0.2083715E-007  0.1915081E+04  0.7818608E-02  0.8647386E-01
         -1   -1    0    0    0  501 -0.00000000000E+00  0.00000000000E+00  0.10598256828E+04  0.10598256828E+04  0.00000000000E+00 0.  1.
          1   -1    0    0  501    0  0.00000000000E+00 -0.00000000000E+00 -0.86512743475E+03  0.86512743475E+03  0.00000000000E+00 0. -1.
         23    2    1    2    0    0  0.16344777442E+02 -0.52704543781E+03  0.60052202861E+03  0.80434285160E+03  0.91086062641E+02 0.  0.
        254    2    1    2    0    0 -0.16344777442E+02  0.52704543781E+03 -0.40582378061E+03  0.11206102659E+04  0.90168197380E+03 0.  0.
        -24    2    4    4    0    0 -0.17299371036E+03  0.38126698219E+03 -0.65555144982E+03  0.78201045142E+03  0.80630684178E+02 0.  0.
         24    2    4    4    0    0  0.15664893292E+03  0.14577845562E+03  0.24972766922E+03  0.33859981449E+03  0.80595777119E+02 0.  0.
         13    1    3    3    0    0 -0.81598065966E+01 -0.10649947245E+03  0.17873849476E+03  0.20822144362E+03  0.00000000000E+00 0.  1.
        -13    1    3    3    0    0  0.24504584039E+02 -0.42054596536E+03  0.42178353385E+03  0.59612140798E+03  0.00000000000E+00 0. -1.
          2    1    6    6  502    0  0.68235985627E+02  0.40658150030E+02  0.14696230834E+03  0.16705434735E+03  0.00000000000E+00 0. -1.
          3    1    5    5  503    0 -0.70295252838E+02  0.19584147811E+03 -0.25770519511E+03  0.33122088507E+03  0.00000000000E+00 0. -1.
         -4    1    5    5    0  503 -0.10269845752E+03  0.18542550409E+03 -0.39784625471E+03  0.45078956635E+03  0.00000000000E+00 0.  1.
         -1    1    6    6    0  502  0.88412947293E+02  0.10512030559E+03  0.10276536088E+03  0.17154546713E+03  0.00000000000E+00 0.  1.
<mgrwt>
<rscale>  0 0.19150815E+04</rscale>
<asrwt>0</asrwt>
<pdfrwt beam="1">  1        1 0.13309653E+00 0.19150815E+04</pdfrwt>
<pdfrwt beam="2">  1       -1 0.16305011E+00 0.19150815E+04</pdfrwt>
<totfact> 0.50370375E+00</totfact>
</mgrwt>
</event>
<event>
12    1  0.2083715E-007  0.2081026E+04  0.7818608E-02  0.8569648E-01
         -1   -1    0    0    0  501 -0.00000000000E+00  0.00000000000E+00  0.86791169935E+03  0.86791169935E+03  0.00000000000E+00 0.  1.
          1   -1    0    0  501    0  0.00000000000E+00 -0.00000000000E+00 -0.12474388738E+04  0.12474388738E+04  0.00000000000E+00 0. -1.
         23    2    1    2    0    0 -0.10430188467E+03 -0.82644940995E+03 -0.27683319447E+02  0.83792581268E+03  0.86346922515E+02 0.  0.
        254    2    1    2    0    0  0.10430188467E+03  0.82644940995E+03 -0.35184385500E+03  0.12774247605E+04  0.90228732120E+03 0.  0.
        -24    2    4    4    0    0 -0.28781975127E+03 -0.77256515864E+01 -0.13082720566E+03  0.32617629884E+03  0.79845633995E+02 0.  0.
         24    2    4    4    0    0  0.39212163594E+03  0.83417506154E+03 -0.22101664933E+03  0.95124846162E+03  0.80111583371E+02 0.  0.
         13    1    3    3    0    0 -0.96937532669E+02 -0.62956855507E+03 -0.53464645067E+02  0.63922759565E+03  0.00000000000E+00 0. -1.
        -13    1    3    3    0    0 -0.73643519972E+01 -0.19688085488E+03  0.25781325620E+02  0.19869821703E+03  0.00000000000E+00 0.  1.
          4    1    6    6  502    0  0.29047544596E+02  0.11872413246E+03 -0.41752800784E+02  0.12916065906E+03  0.00000000000E+00 0. -1.
          3    1    5    5  503    0 -0.93101401704E+02 -0.36299969126E+02 -0.62427259158E+02  0.11782496104E+03  0.00000000000E+00 0. -1.
         -4    1    5    5    0  503 -0.19471834957E+03  0.28574317539E+02 -0.68399946506E+02  0.20835133780E+03  0.00000000000E+00 0.  1.
         -3    1    6    6    0  502  0.36307409134E+03  0.71545092908E+03 -0.17926384855E+03  0.82208780256E+03  0.00000000000E+00 0.  1.
<mgrwt>
<rscale>  0 0.20810255E+04</rscale>
<asrwt>0</asrwt>
<pdfrwt beam="1">  1        1 0.19191367E+00 0.20810255E+04</pdfrwt>
<pdfrwt beam="2">  1       -1 0.13352488E+00 0.20810255E+04</pdfrwt>
<totfact> 0.43076273E+00</totfact>
</mgrwt>
</event>
<event>
12    1  0.2083715E-007  0.2347213E+04  0.7818608E-02  0.8459535E-01
          2   -1    0    0  501    0  0.00000000000E+00  0.00000000000E+00  0.17350410968E+04  0.17350410968E+04  0.00000000000E+00 0. -1.
         -2   -1    0    0    0  501 -0.00000000000E+00 -0.00000000000E+00 -0.79384396155E+03  0.79384396155E+03  0.00000000000E+00 0.  1.
         23    2    1    2    0    0  0.73166861550E+03 -0.66782269149E+03  0.53475763411E+03  0.11292271231E+04  0.88668247686E+02 0.  0.
        254    2    1    2    0    0 -0.73166861550E+03  0.66782269149E+03  0.40643950112E+03  0.13996579352E+04  0.90140066417E+03 0.  0.
        -24    2    4    4    0    0 -0.68724564258E+03  0.86420717897E+03  0.41605341930E+03  0.11826273499E+04  0.79664167110E+02 0.  0.
         24    2    4    4    0    0 -0.44422972917E+02 -0.19638448747E+03 -0.96139181811E+01  0.21703058535E+03  0.80433700091E+02 0.  0.
         13    1    3    3    0    0  0.38906199810E+03 -0.34698111722E+03  0.33108774668E+03  0.61756313853E+03  0.00000000000E+00 0. -1.
        -13    1    3    3    0    0  0.34260661739E+03 -0.32084157428E+03  0.20366988743E+03  0.51166398458E+03  0.00000000000E+00 0.  1.
          4    1    6    6  502    0 -0.30518777295E+02 -0.13301152742E+03  0.31715566563E+02  0.14010474423E+03  0.00000000000E+00 0. -1.
          3    1    5    5  503    0 -0.58637919349E+03  0.77195352044E+03  0.38030411562E+03  0.10413376093E+04  0.00000000000E+00 0. -1.
         -4    1    5    5    0  503 -0.10086644909E+03  0.92253658531E+02  0.35749303678E+02  0.14128974053E+03  0.00000000000E+00 0.  1.
         -3    1    6    6    0  502 -0.13904195622E+02 -0.63372960051E+02 -0.41329484744E+02  0.76925841112E+02  0.00000000000E+00 0.  1.
<mgrwt>
<rscale>  0 0.23472127E+04</rscale>
<asrwt>0</asrwt>
<pdfrwt beam="1">  1        2 0.26692940E+00 0.23472127E+04</pdfrwt>
<pdfrwt beam="2">  1       -2 0.12212984E+00 0.23472127E+04</pdfrwt>
<totfact> 0.43040588E+00</totfact>
</mgrwt>
</event>
<event>
12    1  0.2083715E-007  0.3463274E+04  0.7818608E-02  0.8122549E-01
         -1   -1    0    0    0  501 -0.00000000000E+00  0.00000000000E+00  0.71511551903E+03  0.71511551903E+03  0.00000000000E+00 0.  1.
          1   -1    0    0  501    0  0.00000000000E+00 -0.00000000000E+00 -0.41931209959E+04  0.41931209959E+04  0.00000000000E+00 0. -1.
         23    2    1    2    0    0  0.33892325562E+03 -0.11864483044E+04 -0.15102742717E+03  0.12463821676E+04  0.90170237517E+02 0.  0.
        254    2    1    2    0    0 -0.33892325562E+03  0.11864483044E+04 -0.33269780497E+04  0.36618543474E+04  0.90435931227E+03 0.  0.
        -24    2    4    4    0    0  0.29030555809E+03  0.23960157301E+03 -0.71419377154E+03  0.81128665719E+03  0.80168983911E+02 0.  0.
         24    2    4    4    0    0 -0.62922881371E+03  0.94684673139E+03 -0.26127842782E+04  0.28505676902E+04  0.81528149415E+02 0.  0.
         11    1    3    3    0    0  0.19017545580E+03 -0.78599971621E+03 -0.71228860881E+02  0.81181020472E+03  0.00000000000E+00 0. -1.
        -11    1    3    3    0    0  0.14874779982E+03 -0.40044858819E+03 -0.79798566286E+02  0.43457196287E+03  0.00000000000E+00 0.  1.
          2    1    6    6  502    0 -0.19751831871E+03  0.25823520862E+03 -0.67374312011E+03  0.74808335170E+03  0.00000000000E+00 0. -1.
          1    1    5    5  503    0  0.13957443683E+03  0.13555221109E+03 -0.44519498130E+03  0.48585388413E+03  0.00000000000E+00 0. -1.
         -2    1    5    5    0  503  0.15073112126E+03  0.10404936191E+03 -0.26899879024E+03  0.32543277306E+03  0.00000000000E+00 0.  1.
         -1    1    6    6    0  502 -0.43171049500E+03  0.68861152277E+03 -0.19390411581E+04  0.21024843385E+04  0.00000000000E+00 0.  1.
<mgrwt>
<rscale>  0 0.34632735E+04</rscale>
<asrwt>0</asrwt>
<pdfrwt beam="1">  1        1 0.64509553E+00 0.34632735E+04</pdfrwt>
<pdfrwt beam="2">  1       -1 0.11001777E+00 0.34632735E+04</pdfrwt>
<totfact> 0.39957464E-02</totfact>
</mgrwt>
</event>
<event>
12    1  0.2083715E-007  0.1288307E+04  0.7818608E-02  0.9038889E-01
          2   -1    0    0  501    0  0.00000000000E+00  0.00000000000E+00  0.31188056415E+04  0.31188056415E+04  0.00000000000E+00 0. -1.
         -2   -1    0    0    0  501 -0.00000000000E+00 -0.00000000000E+00 -0.13304260562E+03  0.13304260562E+03  0.00000000000E+00 0.  1.
         23    2    1    2    0    0 -0.72380787483E+02  0.30002607975E+03  0.10126710011E+04  0.10624863093E+04  0.90110898759E+02 0.  0.
        254    2    1    2    0    0  0.72380787483E+02 -0.30002607975E+03  0.19730920348E+04  0.21893619378E+04  0.89719501230E+03 0.  0.
        -24    2    4    4    0    0 -0.13616694019E+02  0.29751228107E+03  0.95094967974E+03  0.99978671379E+03  0.81050650306E+02 0.  0.
         24    2    4    4    0    0  0.85997481502E+02 -0.59753836082E+03  0.10221423550E+04  0.11895752240E+04  0.76593473476E+02 0.  0.
         11    1    3    3    0    0 -0.30592775722E+02  0.31202568396E+02  0.22369808449E+03  0.22792619684E+03  0.00000000000E+00 0.  1.
        -11    1    3    3    0    0 -0.41788011761E+02  0.26882351135E+03  0.78897291661E+03  0.83456011247E+03  0.00000000000E+00 0. -1.
          2    1    6    6  502    0  0.45218314464E+02 -0.29286506203E+03  0.57647511473E+03  0.64818068347E+03  0.00000000000E+00 0. -1.
          1    1    5    5  503    0 -0.39060718395E+02  0.13114090082E+03  0.35270876785E+03  0.37832149094E+03  0.00000000000E+00 0. -1.
         -4    1    5    5    0  503  0.25444024376E+02  0.16637138025E+03  0.59824091190E+03  0.62146522285E+03  0.00000000000E+00 0.  1.
         -1    1    6    6    0  502  0.40779167038E+02 -0.30467329879E+03  0.44566724030E+03  0.54139454055E+03  0.00000000000E+00 0.  1.
<mgrwt>
<rscale>  0 0.12883075E+04</rscale>
<asrwt>0</asrwt>
<pdfrwt beam="1">  1        2 0.47981620E+00 0.12883075E+04</pdfrwt>
<pdfrwt beam="2">  1       -2 0.20468095E-01 0.12883075E+04</pdfrwt>
<totfact> 0.29872430E+01</totfact>
</mgrwt>
</event>
<event>
12    1  0.2083715E-007  0.2779193E+04  0.7818608E-02  0.8309757E-01
         -1   -1    0    0    0  501 -0.00000000000E+00  0.00000000000E+00  0.50446773207E+03  0.50446773207E+03  0.00000000000E+00 0.  1.
          1   -1    0    0  501    0  0.00000000000E+00 -0.00000000000E+00 -0.38277542677E+04  0.38277542677E+04  0.00000000000E+00 0. -1.
         23    2    1    2    0    0  0.49362356031E+03 -0.11236377044E+04 -0.11790557110E+04  0.17043085038E+04  0.90935121768E+02 0.  0.
        254    2    1    2    0    0 -0.49362356031E+03  0.11236377044E+04 -0.21442308246E+04  0.26279134960E+04  0.89553202229E+03 0.  0.
        -24    2    4    4    0    0 -0.16391605652E+03  0.97790385821E+03 -0.94104126934E+03  0.13692283258E+04  0.77865961952E+02 0.  0.
         24    2    4    4    0    0 -0.32970750379E+03  0.14573384620E+03 -0.12031895553E+04  0.12586851702E+04  0.81718172539E+02 0.  0.
         11    1    3    3    0    0  0.22594521776E+03 -0.40478661591E+03 -0.44400140965E+03  0.64190396293E+03  0.00000000000E+00 0.  1.
        -11    1    3    3    0    0  0.26767834255E+03 -0.71885108850E+03 -0.73505430132E+03  0.10624045408E+04  0.00000000000E+00 0. -1.
          2    1    6    6  502    0  0.13936652007E+01  0.97733202265E+01 -0.58923514221E+02  0.59744795749E+02  0.00000000000E+00 0. -1.
          3    1    5    5  503    0 -0.23673050116E+02  0.16501890125E+03 -0.19990210381E+03  0.26029310820E+03  0.00000000000E+00 0. -1.
         -4    1    5    5    0  503 -0.14024300640E+03  0.81288495695E+03 -0.74113916553E+03  0.11089352176E+04  0.00000000000E+00 0.  1.
         -1    1    6    6    0  502 -0.33110116899E+03  0.13596052598E+03 -0.11442660410E+04  0.11989403744E+04  0.00000000000E+00 0.  1.
<mgrwt>
<rscale>  0 0.27791931E+04</rscale>
<asrwt>0</asrwt>
<pdfrwt beam="1">  1        1 0.58888524E+00 0.27791931E+04</pdfrwt>
<pdfrwt beam="2">  1       -1 0.77610425E-01 0.27791931E+04</pdfrwt>
<totfact> 0.19490764E-01</totfact>
</mgrwt>
</event>
<event>
12    1  0.2083715E-007  0.2331094E+04  0.7818608E-02  0.8465761E-01
          1   -1    0    0  501    0  0.00000000000E+00  0.00000000000E+00  0.30527368309E+04  0.30527368309E+04  0.00000000000E+00 0. -1.
         -1   -1    0    0    0  501 -0.00000000000E+00 -0.00000000000E+00 -0.44501064650E+03  0.44501064650E+03  0.00000000000E+00 0.  1.
         23    2    1    2    0    0 -0.51964982310E+02  0.70907751783E+03  0.80101389263E+02  0.72124841625E+03  0.91059100027E+02 0.  0.
        254    2    1    2    0    0  0.51964982310E+02 -0.70907751783E+03  0.25276247951E+04  0.27764990612E+04  0.90253456773E+03 0.  0.
        -24    2    4    4    0    0 -0.11812885128E+03 -0.70036286053E+03  0.95437238982E+03  0.11920506660E+04  0.75468999750E+02 0.  0.
         24    2    4    4    0    0  0.17009383359E+03 -0.87146573015E+01  0.15732524053E+04  0.15844483952E+04  0.79660081797E+02 0.  0.
         13    1    3    3    0    0 -0.56315516428E+02  0.42394063510E+03  0.10907565005E+02  0.42780378032E+03  0.00000000000E+00 0.  1.
        -13    1    3    3    0    0  0.43505341183E+01  0.28513688273E+03  0.69193824258E+02  0.29344463593E+03  0.00000000000E+00 0. -1.
          2    1    6    6  502    0  0.76612681304E+02  0.35673435178E+02  0.69315171297E+03  0.69828460824E+03  0.00000000000E+00 0. -1.
          3    1    5    5  503    0  0.69675901066E+01 -0.26326473301E+02  0.53128191552E+02  0.59701216453E+02  0.00000000000E+00 0. -1.
         -4    1    5    5    0  503 -0.12509644139E+03 -0.67403638723E+03  0.90124419827E+03  0.11323494495E+04  0.00000000000E+00 0.  1.
         -1    1    6    6    0  502  0.93481152286E+02 -0.44388092480E+02  0.88010069235E+03  0.88616378693E+03  0.00000000000E+00 0.  1.
<mgrwt>
<rscale>  0 0.23310945E+04</rscale>
<asrwt>0</asrwt>
<pdfrwt beam="1">  1        1 0.46965181E+00 0.23310945E+04</pdfrwt>
<pdfrwt beam="2">  1       -1 0.68463178E-01 0.23310945E+04</pdfrwt>
<totfact> 0.10650990E+00</totfact>
</mgrwt>
</event>
<event>
12    1  0.2083715E-007  0.2611298E+04  0.7818608E-02  0.8364374E-01
          2   -1    0    0  501    0  0.00000000000E+00  0.00000000000E+00  0.11181895301E+04  0.11181895301E+04  0.00000000000E+00 0. -1.
         -2   -1    0    0    0  501 -0.00000000000E+00 -0.00000000000E+00 -0.15245356621E+04  0.15245356621E+04  0.00000000000E+00 0.  1.
         23    2    1    2    0    0 -0.98026872518E+03  0.57477028495E+03 -0.96594727794E+01  0.11404958608E+04  0.96694617408E+02 0.  0.
        254    2    1    2    0    0  0.98026872518E+03 -0.57477028495E+03 -0.39668665919E+03  0.15022293314E+04  0.89891323530E+03 0.  0.
        -24    2    4    4    0    0  0.45609648099E+03 -0.74522585965E+03 -0.34587499200E+03  0.94320076835E+03  0.81317879129E+02 0.  0.
         24    2    4    4    0    0  0.52417224419E+03  0.17045557470E+03 -0.50811667198E+02  0.55902856308E+03  0.78227004898E+02 0.  0.
         11    1    3    3    0    0 -0.45977640430E+03  0.30569725302E+03  0.32259652497E+02  0.55306946908E+03  0.00000000000E+00 0. -1.
        -11    1    3    3    0    0 -0.52049232088E+03  0.26907303194E+03 -0.41919125277E+02  0.58742639171E+03  0.00000000000E+00 0.  1.
          2    1    6    6  502    0  0.49927305335E+03  0.16340125359E+03 -0.30654552319E+02  0.52622547739E+03  0.00000000000E+00 0. -1.
          3    1    5    5  503    0  0.23111840921E+03 -0.42535327315E+03 -0.22544670863E+03  0.53401062208E+03  0.00000000000E+00 0. -1.
         -4    1    5    5    0  503  0.22497807178E+03 -0.31987258650E+03 -0.12042828337E+03  0.40919014628E+03  0.00000000000E+00 0.  1.
         -1    1    6    6    0  502  0.24899190840E+02  0.70543211049E+01 -0.20157114879E+02  0.32803085693E+02  0.00000000000E+00 0.  1.
<mgrwt>
<rscale>  0 0.26112984E+04</rscale>
<asrwt>0</asrwt>
<pdfrwt beam="1">  1        2 0.17202916E+00 0.26112984E+04</pdfrwt>
<pdfrwt beam="2">  1       -2 0.23454395E+00 0.26112984E+04</pdfrwt>
<totfact> 0.15025896E+00</totfact>
</mgrwt>
</event>
<event>
12    1  0.2083715E-007  0.3660436E+04  0.7818608E-02  0.8076787E-01
          1   -1    0    0  501    0  0.00000000000E+00  0.00000000000E+00  0.15912666726E+04  0.15912666726E+04  0.00000000000E+00 0. -1.
         -1   -1    0    0    0  501 -0.00000000000E+00 -0.00000000000E+00 -0.21050517401E+04  0.21050517401E+04  0.00000000000E+00 0.  1.
         23    2    1    2    0    0  0.13656664743E+04  0.10016906921E+04 -0.53373736365E+03  0.17781054205E+04  0.91401047364E+02 0.  0.
        254    2    1    2    0    0 -0.13656664743E+04 -0.10016906921E+04  0.19952296147E+02  0.19182129922E+04  0.90039648357E+03 0.  0.
        -24    2    4    4    0    0 -0.78929696814E+03 -0.16300667176E+03 -0.27602868055E+03  0.85582277513E+03  0.81730722503E+02 0.  0.
         24    2    4    4    0    0 -0.57636950618E+03 -0.83868402035E+03  0.29598097669E+03  0.10623902171E+04  0.73996899497E+02 0.  0.
         13    1    3    3    0    0  0.55006808591E+03  0.34834471718E+03 -0.20452444557E+03  0.68245819649E+03  0.00000000000E+00 0. -1.
        -13    1    3    3    0    0  0.81559838841E+03  0.65334597493E+03 -0.32921291808E+03  0.10956472240E+04  0.00000000000E+00 0.  1.
          2    1    6    6  502    0 -0.75024710957E+01 -0.14550835600E+02 -0.43182414623E+01  0.16931069030E+02  0.00000000000E+00 0. -1.
          1    1    5    5  503    0 -0.19689105714E+03 -0.97859710059E+01 -0.48707161926E+02  0.20306216100E+03  0.00000000000E+00 0. -1.
         -4    1    5    5    0  503 -0.59240591100E+03 -0.15322070075E+03 -0.22732151862E+03  0.65276061413E+03  0.00000000000E+00 0.  1.
         -3    1    6    6    0  502 -0.56886703508E+03 -0.82413318475E+03  0.30029921816E+03  0.10454591480E+04  0.00000000000E+00 0.  1.
<mgrwt>
<rscale>  0 0.36604364E+04</rscale>
<asrwt>0</asrwt>
<pdfrwt beam="1">  1        1 0.24481026E+00 0.36604364E+04</pdfrwt>
<pdfrwt beam="2">  1       -1 0.32385411E+00 0.36604364E+04</pdfrwt>
<totfact> 0.10516337E-01</totfact>
</mgrwt>
</event>
<event>
12    1  0.2083715E-007  0.1761406E+04  0.7818608E-02  0.8727097E-01
         -3   -1    0    0    0  501 -0.00000000000E+00  0.00000000000E+00  0.76094763813E+03  0.76094763813E+03  0.00000000000E+00 0.  1.
          3   -1    0    0  501    0  0.00000000000E+00 -0.00000000000E+00 -0.10193054653E+04  0.10193054653E+04  0.00000000000E+00 0. -1.
         23    2    1    2    0    0 -0.52188364893E+03  0.55919010347E+02 -0.48204559357E+03  0.71906306039E+03  0.95886661244E+02 0.  0.
        254    2    1    2    0    0  0.52188364893E+03 -0.55919010347E+02  0.22368776642E+03  0.10611900430E+04  0.89476176260E+03 0.  0.
        -24    2    4    4    0    0 -0.23797562155E+03 -0.88140638929E+02  0.11583713835E+03  0.28899569700E+03  0.75492394179E+02 0.  0.
         24    2    4    4    0    0  0.75985927048E+03  0.32221628582E+02  0.10785062807E+03  0.77219434602E+03  0.78917715203E+02 0.  0.
         13    1    3    3    0    0 -0.23184732031E+03  0.20318138769E+02 -0.27851126811E+03  0.36295252191E+03  0.00000000000E+00 0. -1.
        -13    1    3    3    0    0 -0.29003632862E+03  0.35600871578E+02 -0.20353432545E+03  0.35611053848E+03  0.00000000000E+00 0.  1.
          2    1    6    6  502    0  0.10735073357E+03 -0.21726205925E+02  0.71461206601E+01  0.10976007955E+03  0.00000000000E+00 0. -1.
          1    1    5    5  503    0 -0.18119360506E+03 -0.30708638644E+02  0.74956221483E+02  0.19847563614E+03  0.00000000000E+00 0. -1.
         -2    1    5    5    0  503 -0.56782016483E+02 -0.57432000286E+02  0.40880916870E+02  0.90520060853E+02  0.00000000000E+00 0.  1.
         -1    1    6    6    0  502  0.65250853691E+03  0.53947834507E+02  0.10070450741E+03  0.66243426647E+03  0.00000000000E+00 0.  1.
<mgrwt>
<rscale>  0 0.17614064E+04</rscale>
<asrwt>0</asrwt>
<pdfrwt beam="1">  1        3 0.15681622E+00 0.17614064E+04</pdfrwt>
<pdfrwt beam="2">  1       -3 0.11706887E+00 0.17614064E+04</pdfrwt>
<totfact> 0.42863298E-01</totfact>
</mgrwt>
</event>
<event>
12    1  0.2083715E-007  0.2827899E+04  0.7818608E-02  0.8294659E-01
         -1   -1    0    0    0  501 -0.00000000000E+00  0.00000000000E+00  0.52314585814E+03  0.52314585814E+03  0.00000000000E+00 0.  1.
          1   -1    0    0  501    0  0.00000000000E+00 -0.00000000000E+00 -0.38215975595E+04  0.38215975595E+04  0.00000000000E+00 0. -1.
         23    2    1    2    0    0  0.92057250665E+03 -0.30498651409E+03 -0.27428194630E+04  0.29106659241E+04  0.91907569183E+02 0.  0.
        254    2    1    2    0    0 -0.92057250665E+03  0.30498651409E+03 -0.55563223839E+03  0.14340774936E+04  0.89854357683E+03 0.  0.
        -24    2    4    4    0    0 -0.94415667322E+03  0.48623627613E+03 -0.29412219357E+03  0.11049349332E+04  0.80720518041E+02 0.  0.
         24    2    4    4    0    0  0.23584166571E+02 -0.18124976204E+03 -0.26151004482E+03  0.32914256038E+03  0.80867993399E+02 0.  0.
         11    1    3    3    0    0  0.66841258287E+03 -0.23321750183E+03 -0.18789496090E+04  0.20078887960E+04  0.00000000000E+00 0.  1.
        -11    1    3    3    0    0  0.25215992378E+03 -0.71769012255E+02 -0.86386985403E+03  0.90277712808E+03  0.00000000000E+00 0. -1.
          2    1    6    6  502    0  0.14001295457E+02 -0.31468235920E+02 -0.93387792144E+01  0.35686116959E+02  0.00000000000E+00 0. -1.
          1    1    5    5  503    0 -0.30729843569E+03  0.16596978117E+03 -0.13570309661E+03  0.37469137602E+03  0.00000000000E+00 0. -1.
         -2    1    5    5    0  503 -0.63685823753E+03  0.32026649496E+03 -0.15841909696E+03  0.73024355717E+03  0.00000000000E+00 0.  1.
         -1    1    6    6    0  502  0.95828711144E+01 -0.14978152612E+03 -0.25217126561E+03  0.29345644342E+03  0.00000000000E+00 0.  1.
<mgrwt>
<rscale>  0 0.28278988E+04</rscale>
<asrwt>0</asrwt>
<pdfrwt beam="1">  1        1 0.58793809E+00 0.28278988E+04</pdfrwt>
<pdfrwt beam="2">  1       -1 0.80483977E-01 0.28278988E+04</pdfrwt>
<totfact> 0.18178052E-01</totfact>
</mgrwt>
</event>
<event>
12    1  0.2083715E-007  0.2663357E+04  0.7818608E-02  0.8346993E-01
          1   -1    0    0  501    0  0.00000000000E+00  0.00000000000E+00  0.10369001003E+04  0.10369001003E+04  0.00000000000E+00 0. -1.
         -1   -1    0    0    0  501 -0.00000000000E+00 -0.00000000000E+00 -0.17102589987E+04  0.17102589987E+04  0.00000000000E+00 0.  1.
         23    2    1    2    0    0  0.57186783447E+02 -0.11796269226E+04 -0.19605486584E+03  0.12009764345E+04  0.95482359576E+02 0.  0.
        254    2    1    2    0    0 -0.57186783447E+02  0.11796269226E+04 -0.47730403260E+03  0.15461826646E+04  0.87639699218E+03 0.  0.
        -24    2    4    4    0    0  0.61008776157E+02  0.10679168632E+04 -0.68359687203E+03  0.12719754806E+04  0.80302193157E+02 0.  0.
         24    2    4    4    0    0 -0.11819555960E+03  0.11171005936E+03  0.20629283942E+03  0.27420718396E+03  0.78635338544E+02 0.  0.
         11    1    3    3    0    0 -0.19991702694E+02 -0.37081161851E+03 -0.84755048160E+02  0.38089938670E+03  0.00000000000E+00 0. -1.
        -11    1    3    3    0    0  0.77178486141E+02 -0.80881530409E+03 -0.11129981768E+03  0.82007704776E+03  0.00000000000E+00 0.  1.
          4    1    6    6  502    0 -0.89497817660E+02  0.32480425817E+02  0.12490034411E+03  0.15705073507E+03  0.00000000000E+00 0. -1.
          3    1    5    5  503    0  0.57245783460E+02  0.73206739034E+03 -0.42820676021E+03  0.85003574820E+03  0.00000000000E+00 0. -1.
         -4    1    5    5    0  503  0.37629926972E+01  0.33584947290E+03 -0.25539011181E+03  0.42193973239E+03  0.00000000000E+00 0.  1.
         -3    1    6    6    0  502 -0.28697741944E+02  0.79229633547E+02  0.81392495315E+02  0.11715644890E+03  0.00000000000E+00 0.  1.
<mgrwt>
<rscale>  0 0.26633571E+04</rscale>
<asrwt>0</asrwt>
<pdfrwt beam="1">  1        1 0.15952309E+00 0.26633571E+04</pdfrwt>
<pdfrwt beam="2">  1       -1 0.26311677E+00 0.26633571E+04</pdfrwt>
<totfact> 0.71046442E-01</totfact>
</mgrwt>
</event>
<event>
12    1  0.2083715E-007  0.2507649E+04  0.7818608E-02  0.8400266E-01
          2   -1    0    0  501    0  0.00000000000E+00  0.00000000000E+00  0.16597783886E+04  0.16597783886E+04  0.00000000000E+00 0. -1.
         -2   -1    0    0    0  501 -0.00000000000E+00 -0.00000000000E+00 -0.94715997913E+03  0.94715997913E+03  0.00000000000E+00 0.  1.
         23    2    1    2    0    0 -0.49063214037E+03  0.82944450650E+03  0.84049810117E+03  0.12823186622E+04  0.95947938334E+02 0.  0.
        254    2    1    2    0    0  0.49063214037E+03 -0.82944450650E+03 -0.12787969174E+03  0.13246197055E+04  0.89975889105E+03 0.  0.
        -24    2    4    4    0    0  0.74838458287E+03 -0.56650065850E+03 -0.98005236110E+02  0.94709085193E+03  0.79834676363E+02 0.  0.
         24    2    4    4    0    0 -0.25775244250E+03 -0.26294384800E+03 -0.29874455630E+02  0.37752885354E+03  0.77844481733E+02 0.  0.
         13    1    3    3    0    0 -0.12884930852E+01  0.60746675962E+01  0.20595253893E+02  0.21511073515E+02  0.00000000000E+00 0.  1.
        -13    1    3    3    0    0 -0.48934364728E+03  0.82336983891E+03  0.81990284727E+03  0.12608075887E+04  0.00000000000E+00 0. -1.
          4    1    6    6  502    0 -0.14574886667E+03 -0.10255305202E+03 -0.35969665317E+02  0.18180670350E+03  0.00000000000E+00 0. -1.
          1    1    5    5  503    0  0.13302226572E+03 -0.10967118147E+03  0.12093042070E+02  0.17282630843E+03  0.00000000000E+00 0. -1.
         -2    1    5    5    0  503  0.61536231715E+03 -0.45682947703E+03 -0.11009827818E+03  0.77426454350E+03  0.00000000000E+00 0.  1.
         -3    1    6    6    0  502 -0.11200357583E+03 -0.16039079598E+03  0.60952096870E+01  0.19572215004E+03  0.00000000000E+00 0.  1.
<mgrwt>
<rscale>  0 0.25076488E+04</rscale>
<asrwt>0</asrwt>
<pdfrwt beam="1">  1        2 0.25535052E+00 0.25076488E+04</pdfrwt>
<pdfrwt beam="2">  1       -2 0.14571692E+00 0.25076488E+04</pdfrwt>
<totfact> 0.29775677E+00</totfact>
</mgrwt>
</event>
<event>
12    1  0.2083715E-007  0.3143235E+04  0.7818608E-02  0.8203972E-01
          2   -1    0    0  501    0  0.00000000000E+00  0.00000000000E+00  0.20176872731E+04  0.20176872731E+04  0.00000000000E+00 0. -1.
         -2   -1    0    0    0  501 -0.00000000000E+00 -0.00000000000E+00 -0.12241649634E+04  0.12241649634E+04  0.00000000000E+00 0.  1.
         23    2    1    2    0    0  0.29447495870E+03 -0.13771196300E+04  0.65123348489E+03  0.15556200141E+04  0.11258152407E+03 0.  0.
        254    2    1    2    0    0 -0.29447495870E+03  0.13771196300E+04  0.14228882477E+03  0.16862322225E+04  0.91649278322E+03 0.  0.
        -24    2    4    4    0    0  0.42969812735E+02  0.13068440793E+04  0.15918165941E+02  0.13100127494E+04  0.78690300151E+02 0.  0.
         24    2    4    4    0    0 -0.33744477144E+03  0.70275550775E+02  0.12637065883E+03  0.37621947304E+03  0.82243064609E+02 0.  0.
         13    1    3    3    0    0  0.21486363957E+03 -0.11656049690E+04  0.57278841704E+03  0.13163920002E+04  0.00000000000E+00 0. -1.
        -13    1    3    3    0    0  0.79611319137E+02 -0.21151466101E+03  0.78445067844E+02  0.23922801388E+03  0.00000000000E+00 0.  1.
          2    1    6    6  502    0 -0.73912163221E+02  0.50703905588E+02  0.23658263942E+02  0.92701711778E+02  0.00000000000E+00 0. -1.
          1    1    5    5  503    0  0.48252821576E+01  0.30473330467E+03 -0.29162255400E+02  0.30616353059E+03  0.00000000000E+00 0. -1.
         -2    1    5    5    0  503  0.38144530577E+02  0.10021107746E+04  0.45080421341E+02  0.10038492188E+04  0.00000000000E+00 0.  1.
         -1    1    6    6    0  502 -0.26353260822E+03  0.19571645186E+02  0.10271239488E+03  0.28351776126E+03  0.00000000000E+00 0.  1.
<mgrwt>
<rscale>  0 0.31432353E+04</rscale>
<asrwt>0</asrwt>
<pdfrwt beam="1">  1        2 0.31041342E+00 0.31432353E+04</pdfrwt>
<pdfrwt beam="2">  1       -2 0.18833307E+00 0.31432353E+04</pdfrwt>
<totfact> 0.87895619E-01</totfact>
</mgrwt>
</event>
<event>
12    1  0.2083715E-007  0.1692277E+04  0.7818608E-02  0.8765782E-01
          1   -1    0    0  501    0  0.00000000000E+00  0.00000000000E+00  0.56944272526E+03  0.56944272526E+03  0.00000000000E+00 0. -1.
         -1   -1    0    0    0  501 -0.00000000000E+00 -0.00000000000E+00 -0.12572820929E+04  0.12572820929E+04  0.00000000000E+00 0.  1.
         23    2    1    2    0    0 -0.34536103203E+03  0.11570284094E+03 -0.76736990165E+03  0.85401199617E+03  0.88422473362E+02 0.  0.
        254    2    1    2    0    0  0.34536103203E+03 -0.11570284094E+03  0.79530534008E+02  0.97271282200E+03  0.89843404788E+03 0.  0.
        -24    2    4    4    0    0  0.20119640585E+03 -0.22568485965E+02 -0.40091235899E+03  0.45619685794E+03  0.79972015839E+02 0.  0.
         24    2    4    4    0    0  0.14416462618E+03 -0.93134354973E+02  0.48044289300E+03  0.51651596406E+03  0.80659284481E+02 0.  0.
         13    1    3    3    0    0 -0.35429187332E+01 -0.68913051494E+01 -0.41136375074E+01  0.87729341360E+01  0.00000000000E+00 0. -1.
        -13    1    3    3    0    0 -0.34181811330E+03  0.12259414609E+03 -0.76325626414E+03  0.84523906203E+03  0.00000000000E+00 0.  1.
          2    1    6    6  502    0  0.49432409938E+02 -0.13204464143E+02  0.24662927129E+03  0.25188076243E+03  0.00000000000E+00 0. -1.
          1    1    5    5  503    0  0.19058237829E+03 -0.36669462555E+02 -0.32744805685E+03  0.38064224981E+03  0.00000000000E+00 0. -1.
         -2    1    5    5    0  503  0.10614027555E+02  0.14100976590E+02 -0.73464302139E+02  0.75554608135E+02  0.00000000000E+00 0.  1.
         -1    1    6    6    0  502  0.94732216241E+02 -0.79929890830E+02  0.23381362171E+03  0.26463520162E+03  0.00000000000E+00 0.  1.
<mgrwt>
<rscale>  0 0.16922767E+04</rscale>
<asrwt>0</asrwt>
<pdfrwt beam="1">  1        1 0.87606574E-01 0.16922767E+04</pdfrwt>
<pdfrwt beam="2">  1       -1 0.19342801E+00 0.16922767E+04</pdfrwt>
<totfact> 0.58770192E+00</totfact>
</mgrwt>
</event>
<event>
12    1  0.2083715E-007  0.3442674E+04  0.7818608E-02  0.8127512E-01
          2   -1    0    0  501    0  0.00000000000E+00  0.00000000000E+00  0.18530383848E+04  0.18530383848E+04  0.00000000000E+00 0. -1.
         -2   -1    0    0    0  501 -0.00000000000E+00 -0.00000000000E+00 -0.15989957145E+04  0.15989957145E+04  0.00000000000E+00 0.  1.
         23    2    1    2    0    0  0.12462004746E+04 -0.87382813071E+03  0.62283499376E+03  0.16469183625E+04  0.88461508270E+02 0.  0.
        254    2    1    2    0    0 -0.12462004746E+04  0.87382813071E+03 -0.36879232343E+03  0.18051157368E+04  0.89768804178E+03 0.  0.
        -24    2    4    4    0    0 -0.42259048861E+03  0.43418538770E+03  0.27301630880E+03  0.66928712478E+03  0.79420895072E+02 0.  0.
         24    2    4    4    0    0 -0.82360998601E+03  0.43964274301E+03 -0.64180863223E+03  0.11358286120E+04  0.81050384763E+02 0.  0.
         13    1    3    3    0    0  0.65190273308E+03 -0.40331367439E+03  0.30882689517E+03  0.82644609294E+03  0.00000000000E+00 0.  1.
        -13    1    3    3    0    0  0.59429774154E+03 -0.47051445632E+03  0.31400809858E+03  0.82047226959E+03  0.00000000000E+00 0. -1.
          4    1    6    6  502    0 -0.39557464214E+03  0.20486414342E+03 -0.25772540741E+03  0.51465619630E+03  0.00000000000E+00 0. -1.
          3    1    5    5  503    0 -0.29182524894E+03  0.34265301655E+03  0.22096844472E+03  0.50139816437E+03  0.00000000000E+00 0. -1.
         -4    1    5    5    0  503 -0.13076523966E+03  0.91532371153E+02  0.52047864074E+02  0.16788896041E+03  0.00000000000E+00 0.  1.
         -3    1    6    6    0  502 -0.42803534387E+03  0.23477859959E+03 -0.38408322482E+03  0.62117241569E+03  0.00000000000E+00 0.  1.
<mgrwt>
<rscale>  0 0.34426736E+04</rscale>
<asrwt>0</asrwt>
<pdfrwt beam="1">  1        2 0.28508283E+00 0.34426736E+04</pdfrwt>
<pdfrwt beam="2">  1       -2 0.24599934E+00 0.34426736E+04</pdfrwt>
<totfact> 0.45278000E-01</totfact>
</mgrwt>
</event>
<event>
12    1  0.2083715E-007  0.1552773E+04  0.7818608E-02  0.8850098E-01
          2   -1    0    0  501    0  0.00000000000E+00  0.00000000000E+00  0.10212643433E+04  0.10212643433E+04  0.00000000000E+00 0. -1.
         -2   -1    0    0    0  501 -0.00000000000E+00 -0.00000000000E+00 -0.59022543268E+03  0.59022543268E+03  0.00000000000E+00 0.  1.
         23    2    1    2    0    0  0.28030040240E+03 -0.37429962663E+03 -0.68926126985E+02  0.48049644877E+03  0.86356819196E+02 0.  0.
        254    2    1    2    0    0 -0.28030040240E+03  0.37429962663E+03  0.49996503763E+03  0.11309933272E+04  0.90028458906E+03 0.  0.
        -24    2    4    4    0    0 -0.44633779761E+03  0.45422034212E+03  0.57978261438E+02  0.64472148869E+03  0.82284691265E+02 0.  0.
         24    2    4    4    0    0  0.16603739521E+03 -0.79920715492E+02  0.44198677619E+03  0.48627183853E+03  0.84570995323E+02 0.  0.
         13    1    3    3    0    0  0.12088168896E+03 -0.19746134031E+03  0.37775852358E+01  0.23155481812E+03  0.00000000000E+00 0. -1.
        -13    1    3    3    0    0  0.15941871344E+03 -0.17683828632E+03 -0.72703712220E+02  0.24894163065E+03  0.00000000000E+00 0.  1.
          2    1    6    6  502    0  0.54037809595E+02  0.84938982309E+01  0.17764255854E+03  0.18587390827E+03  0.00000000000E+00 0. -1.
          3    1    5    5  503    0 -0.33045321931E+03  0.28891244766E+03  0.20714027121E+02  0.43943008942E+03  0.00000000000E+00 0. -1.
         -4    1    5    5    0  503 -0.11588457829E+03  0.16530789446E+03  0.37264234317E+02  0.20529139927E+03  0.00000000000E+00 0.  1.
         -1    1    6    6    0  502  0.11199958561E+03 -0.88414613723E+02  0.26434421765E+03  0.30039793026E+03  0.00000000000E+00 0.  1.
<mgrwt>
<rscale>  0 0.15527732E+04</rscale>
<asrwt>0</asrwt>
<pdfrwt beam="1">  1        2 0.15711759E+00 0.15527732E+04</pdfrwt>
<pdfrwt beam="2">  1       -2 0.90803913E-01 0.15527732E+04</pdfrwt>
<totfact> 0.24327050E+01</totfact>
</mgrwt>
</event>
<event>
12    1  0.2083715E-007  0.3434689E+04  0.7818608E-02  0.8129445E-01
          2   -1    0    0  501    0  0.00000000000E+00  0.00000000000E+00  0.32932880928E+04  0.32932880928E+04  0.00000000000E+00 0. -1.
         -2   -1    0    0    0  501 -0.00000000000E+00 -0.00000000000E+00 -0.89554030716E+03  0.89554030716E+03  0.00000000000E+00 0.  1.
         23    2    1    2    0    0  0.94885263382E+03 -0.52194105906E+03 -0.31642352467E+03  0.11319696492E+04  0.92128441890E+02 0.  0.
        254    2    1    2    0    0 -0.94885263382E+03  0.52194105906E+03  0.27141713103E+04  0.30568587508E+04  0.89717095968E+03 0.  0.
        -24    2    4    4    0    0  0.48935327228E+02 -0.14550488421E+03  0.18396164008E+03  0.25513841754E+03  0.87677759454E+02 0.  0.
         24    2    4    4    0    0 -0.99778796105E+03  0.66744594327E+03  0.25302096703E+04  0.28017203333E+04  0.81307737547E+02 0.  0.
         13    1    3    3    0    0  0.89627816087E+03 -0.48237296673E+03 -0.31734014388E+03  0.10661627397E+04  0.00000000000E+00 0.  1.
        -13    1    3    3    0    0  0.52574472947E+02 -0.39568092333E+02  0.91661920645E+00  0.65806909420E+02  0.00000000000E+00 0. -1.
          2    1    6    6  502    0 -0.50364121297E+02  0.14382402108E+02  0.11844405117E+03  0.12950826793E+03  0.00000000000E+00 0. -1.
          3    1    5    5  503    0 -0.10366153704E+02 -0.17129387537E+02 -0.34963561947E+01  0.20324801761E+02  0.00000000000E+00 0. -1.
         -4    1    5    5    0  503  0.59301480932E+02 -0.12837549667E+03  0.18745799627E+03  0.23481361577E+03  0.00000000000E+00 0.  1.
         -1    1    6    6    0  502 -0.94742383975E+03  0.65306354116E+03  0.24117656191E+04  0.26722120654E+04  0.00000000000E+00 0.  1.
<mgrwt>
<rscale>  0 0.34346891E+04</rscale>
<asrwt>0</asrwt>
<pdfrwt beam="1">  1        2 0.50665970E+00 0.34346891E+04</pdfrwt>
<pdfrwt beam="2">  1       -2 0.13777543E+00 0.34346891E+04</pdfrwt>
<totfact> 0.34766709E-01</totfact>
</mgrwt>
</event>
<event>
12    1  0.2083715E-007  0.1168246E+04  0.7818608E-02  0.9141114E-01
          2   -1    0    0  501    0  0.00000000000E+00  0.00000000000E+00  0.18628466928E+04  0.18628466928E+04  0.00000000000E+00 0. -1.
         -2   -1    0    0    0  501 -0.00000000000E+00 -0.00000000000E+00 -0.18316043860E+03  0.18316043860E+03  0.00000000000E+00 0.  1.
         23    2    1    2    0    0 -0.11654301308E+03  0.18514398753E+03  0.31964753257E+03  0.39802471087E+03  0.91589057045E+02 0.  0.
        254    2    1    2    0    0  0.11654301308E+03 -0.18514398753E+03  0.13600387216E+04  0.16479824205E+04  0.90458839481E+03 0.  0.
        -24    2    4    4    0    0 -0.33366366109E+03 -0.21817720760E+03  0.34613304201E+03  0.53526325861E+03  0.88124574317E+02 0.  0.
         24    2    4    4    0    0  0.45020667417E+03  0.33033220074E+02  0.10139056796E+04  0.11127191619E+04  0.79761914777E+02 0.  0.
         11    1    3    3    0    0 -0.33237203697E+02  0.10155737597E+03  0.89509642609E+02  0.13939364564E+03  0.00000000000E+00 0.  1.
        -11    1    3    3    0    0 -0.83305809378E+02  0.83586611554E+02  0.23013788996E+03  0.25863106523E+03  0.00000000000E+00 0. -1.
          2    1    6    6  502    0  0.56669273085E+02  0.28840709697E+02  0.17169778137E+03  0.18309374969E+03  0.00000000000E+00 0. -1.
          1    1    5    5  503    0 -0.89663479154E+01  0.44813981483E+01 -0.13878357201E+01  0.10119506524E+02  0.00000000000E+00 0. -1.
         -2    1    5    5    0  503 -0.32469731317E+03 -0.22265860575E+03  0.34752087773E+03  0.52514375209E+03  0.00000000000E+00 0.  1.
         -1    1    6    6    0  502  0.39353740108E+03  0.41925103764E+01  0.84220789823E+03  0.92962541222E+03  0.00000000000E+00 0.  1.
<mgrwt>
<rscale>  0 0.11682462E+04</rscale>
<asrwt>0</asrwt>
<pdfrwt beam="1">  1        2 0.28659179E+00 0.11682462E+04</pdfrwt>
<pdfrwt beam="2">  1       -2 0.28178530E-01 0.11682462E+04</pdfrwt>
<totfact> 0.90764306E+01</totfact>
</mgrwt>
</event>
<event>
12    1  0.2083715E-007  0.2713172E+04  0.7818608E-02  0.8330744E-01
         -1   -1    0    0    0  501 -0.00000000000E+00  0.00000000000E+00  0.19424253074E+04  0.19424253074E+04  0.00000000000E+00 0.  1.
          1   -1    0    0  501    0  0.00000000000E+00 -0.00000000000E+00 -0.94743722159E+03  0.94743722159E+03  0.00000000000E+00 0. -1.
         23    2    1    2    0    0 -0.11385145326E+04 -0.35468807906E+03  0.63192313935E+03  0.13526448581E+04  0.91116868420E+02 0.  0.
        254    2    1    2    0    0  0.11385145326E+04  0.35468807906E+03  0.36306494644E+03  0.15372176709E+04  0.89955713446E+03 0.  0.
        -24    2    4    4    0    0  0.68608924616E+03  0.20883597805E+03  0.65518847270E+03  0.97465654454E+03  0.79702732988E+02 0.  0.
         24    2    4    4    0    0  0.45242528640E+03  0.14585210101E+03 -0.29212352625E+03  0.56256112637E+03  0.71954090685E+02 0.  0.
         13    1    3    3    0    0 -0.44090938947E+03 -0.91413769816E+02  0.24348276616E+03  0.51189981877E+03  0.00000000000E+00 0. -1.
        -13    1    3    3    0    0 -0.69760514309E+03 -0.26327430924E+03  0.38844037318E+03  0.84074503929E+03  0.00000000000E+00 0.  1.
          4    1    6    6  502    0  0.45352539412E+03  0.13992801922E+03 -0.28696832402E+03  0.55463136647E+03  0.00000000000E+00 0. -1.
          3    1    5    5  503    0  0.57106108411E+03  0.14316621099E+03  0.52211353668E+03  0.78689889499E+03  0.00000000000E+00 0. -1.
         -4    1    5    5    0  503  0.11502816204E+03  0.65669767052E+02  0.13307493602E+03  0.18775764955E+03  0.00000000000E+00 0.  1.
         -3    1    6    6    0  502 -0.11001077212E+01  0.59240817907E+01 -0.51552022315E+01  0.79297599023E+01  0.00000000000E+00 0.  1.
<mgrwt>
<rscale>  0 0.27131723E+04</rscale>
<asrwt>0</asrwt>
<pdfrwt beam="1">  1        1 0.14575957E+00 0.27131723E+04</pdfrwt>
<pdfrwt beam="2">  1       -1 0.29883466E+00 0.27131723E+04</pdfrwt>
<totfact> 0.48807397E-01</totfact>
</mgrwt>
</event>
<event>
12    1  0.2083715E-007  0.2315214E+04  0.7818608E-02  0.8471947E-01
          1   -1    0    0  501    0  0.00000000000E+00  0.00000000000E+00  0.30028855610E+04  0.30028855610E+04  0.00000000000E+00 0. -1.
         -1   -1    0    0    0  501 -0.00000000000E+00 -0.00000000000E+00 -0.44625540347E+03  0.44625540347E+03  0.00000000000E+00 0.  1.
         23    2    1    2    0    0 -0.30362005611E+01  0.97702075224E+03  0.97199458288E+03  0.13811195060E+04  0.90215585249E+02 0.  0.
        254    2    1    2    0    0  0.30362005611E+01 -0.97702075224E+03  0.15846355747E+04  0.20680214585E+04  0.90059096126E+03 0.  0.
        -24    2    4    4    0    0 -0.12281910108E+03 -0.13374130044E+03  0.10272905864E+04  0.10462313557E+04  0.79390388933E+02 0.  0.
         24    2    4    4    0    0  0.12585530164E+03 -0.84327945180E+03  0.55734498830E+03  0.10217901028E+04  0.80385243357E+02 0.  0.
         11    1    3    3    0    0 -0.19470842628E+02  0.77831207630E+03  0.72666758076E+03  0.10649857158E+04  0.00000000000E+00 0. -1.
        -11    1    3    3    0    0  0.16434642067E+02  0.19870867594E+03  0.24532700212E+03  0.31613379023E+03  0.00000000000E+00 0.  1.
          2    1    6    6  502    0  0.13047305501E+03 -0.66549220700E+03  0.42886231765E+03  0.80238767636E+03  0.00000000000E+00 0. -1.
          3    1    5    5  503    0 -0.45274946890E+02 -0.10562368388E+03  0.55180677934E+03  0.56364608145E+03  0.00000000000E+00 0. -1.
         -4    1    5    5    0  503 -0.77544154189E+02 -0.28117616561E+02  0.47548380703E+03  0.48258527429E+03  0.00000000000E+00 0.  1.
         -1    1    6    6    0  502 -0.46177533649E+01 -0.17778724480E+03  0.12848267064E+03  0.21940242641E+03  0.00000000000E+00 0.  1.
<mgrwt>
<rscale>  0 0.23152139E+04</rscale>
<asrwt>0</asrwt>
<pdfrwt beam="1">  1        1 0.46198238E+00 0.23152139E+04</pdfrwt>
<pdfrwt beam="2">  1       -1 0.68654680E-01 0.23152139E+04</pdfrwt>
<totfact> 0.11535045E+00</totfact>
</mgrwt>
</event>
<event>
12    1  0.2083715E-007  0.4143747E+04  0.7818608E-02  0.7976160E-01
         -2   -1    0    0    0  501 -0.00000000000E+00  0.00000000000E+00  0.17704542931E+04  0.17704542931E+04  0.00000000000E+00 0.  1.
          2   -1    0    0  501    0  0.00000000000E+00 -0.00000000000E+00 -0.24246095690E+04  0.24246095690E+04  0.00000000000E+00 0. -1.
         23    2    1    2    0    0 -0.16636986261E+04  0.10569918560E+04 -0.42235412865E+03  0.20176047442E+04  0.84976417684E+02 0.  0.
        254    2    1    2    0    0  0.16636986261E+04 -0.10569918560E+04 -0.23180114728E+03  0.21774591179E+04  0.89580775620E+03 0.  0.
        -24    2    4    4    0    0 -0.91398933914E+02 -0.13141415577E+03 -0.84686417025E+01  0.17917606024E+03  0.80055588272E+02 0.  0.
         24    2    4    4    0    0  0.17550975600E+04 -0.92557770021E+03 -0.22333250558E+03  0.19982830576E+04  0.78716237865E+02 0.  0.
         11    1    3    3    0    0 -0.76668904871E+03  0.53723510069E+03 -0.20359783329E+03  0.95806353054E+03  0.00000000000E+00 0. -1.
        -11    1    3    3    0    0 -0.89700957740E+03  0.51975675529E+03 -0.21875629536E+03  0.10595412136E+04  0.00000000000E+00 0.  1.
          2    1    6    6  502    0  0.36029167607E+03 -0.19789177226E+03 -0.15025415785E+02  0.41133563970E+03  0.00000000000E+00 0. -1.
          1    1    5    5  503    0 -0.15555601787E+02 -0.91210616590E+02  0.29814117632E+01  0.92575602303E+02  0.00000000000E+00 0. -1.
         -2    1    5    5    0  503 -0.75843332127E+02 -0.40203539182E+02 -0.11450053466E+02  0.86600457939E+02  0.00000000000E+00 0.  1.
         -1    1    6    6    0  502  0.13948058840E+04 -0.72768592795E+03 -0.20830708980E+03  0.15869474179E+04  0.00000000000E+00 0.  1.
<mgrwt>
<rscale>  0 0.41437473E+04</rscale>
<asrwt>0</asrwt>
<pdfrwt beam="1">  1        2 0.37301686E+00 0.41437473E+04</pdfrwt>
<pdfrwt beam="2">  1       -2 0.27237758E+00 0.41437473E+04</pdfrwt>
<totfact> 0.14066327E-01</totfact>
</mgrwt>
</event>
<event>
12    1  0.2083715E-007  0.2621953E+04  0.7818608E-02  0.8360782E-01
         -1   -1    0    0    0  501 -0.00000000000E+00  0.00000000000E+00  0.11535322076E+04  0.11535322076E+04  0.00000000000E+00 0.  1.
          1   -1    0    0  501    0  0.00000000000E+00 -0.00000000000E+00 -0.14899101425E+04  0.14899101425E+04  0.00000000000E+00 0. -1.
         23    2    1    2    0    0  0.72034817734E+03  0.43418401297E+03  0.65037841307E+03  0.10670456880E+04  0.90427686352E+02 0.  0.
        254    2    1    2    0    0 -0.72034817734E+03 -0.43418401297E+03 -0.98675634804E+03  0.15763966621E+04  0.89661646876E+03 0.  0.
        -24    2    4    4    0    0 -0.18168214611E+03 -0.15314934948E+03  0.14486525740E+03  0.28944625318E+03  0.79561706984E+02 0.  0.
         24    2    4    4    0    0 -0.53866603122E+03 -0.28103466350E+03 -0.11316216054E+04  0.12869504089E+04  0.80822779835E+02 0.  0.
         13    1    3    3    0    0  0.65443102764E+03  0.42236335648E+03  0.59516760128E+03  0.98025264522E+03  0.00000000000E+00 0.  1.
        -13    1    3    3    0    0  0.65917149696E+02  0.11820656491E+02  0.55210811792E+02  0.86793042824E+02  0.00000000000E+00 0. -1.
          4    1    6    6  502    0 -0.10330537207E+02 -0.22396891897E+02 -0.43906692876E+02  0.50360087817E+02  0.00000000000E+00 0. -1.
          3    1    5    5  503    0 -0.17332028142E+02 -0.25570621646E+02 -0.72289376236E+01  0.31725595818E+02  0.00000000000E+00 0. -1.
         -4    1    5    5    0  503 -0.16435011797E+03 -0.12757872783E+03  0.15209419502E+03  0.25772065736E+03  0.00000000000E+00 0.  1.
         -3    1    6    6    0  502 -0.52833549401E+03 -0.25863777160E+03 -0.10877149126E+04  0.12365903211E+04  0.00000000000E+00 0.  1.
<mgrwt>
<rscale>  0 0.26219530E+04</rscale>
<asrwt>0</asrwt>
<pdfrwt beam="1">  1        1 0.22921695E+00 0.26219530E+04</pdfrwt>
<pdfrwt beam="2">  1       -1 0.17746649E+00 0.26219530E+04</pdfrwt>
<totfact> 0.12685516E+00</totfact>
</mgrwt>
</event>
<event>
12    1  0.2083715E-007  0.4536809E+04  0.7818608E-02  0.7904224E-01
         -1   -1    0    0    0  501 -0.00000000000E+00  0.00000000000E+00  0.16014865026E+04  0.16014865026E+04  0.00000000000E+00 0.  1.
          1   -1    0    0  501    0  0.00000000000E+00 -0.00000000000E+00 -0.32130512026E+04  0.32130512026E+04  0.00000000000E+00 0. -1.
         23    2    1    2    0    0  0.10389044287E+04  0.19138506236E+04 -0.83414819562E+03  0.23337116427E+04  0.90885628977E+02 0.  0.
        254    2    1    2    0    0 -0.10389044287E+04 -0.19138506236E+04 -0.77741650439E+03  0.24808260624E+04  0.89887424542E+03 0.  0.
        -24    2    4    4    0    0 -0.93337857505E+02 -0.16158176948E+03  0.17901512572E+03  0.27049807161E+03  0.79386192986E+02 0.  0.
         24    2    4    4    0    0 -0.94556657124E+03 -0.17522688542E+04 -0.95643163011E+03  0.22103279908E+04  0.79032183515E+02 0.  0.
         11    1    3    3    0    0  0.22155993325E+03  0.44101186117E+03 -0.15221955860E+03  0.51647948627E+03  0.00000000000E+00 0.  1.
        -11    1    3    3    0    0  0.81734449549E+03  0.14728387625E+04 -0.68192863702E+03  0.18172321565E+04  0.00000000000E+00 0. -1.
          2    1    6    6  502    0 -0.19402182927E+03 -0.42260926132E+03 -0.20684377630E+03  0.50894735070E+03  0.00000000000E+00 0. -1.
          3    1    5    5  503    0 -0.16843995456E+02  0.53147957235E+01  0.26367110885E+02  0.31736284800E+02  0.00000000000E+00 0. -1.
         -4    1    5    5    0  503 -0.76493862049E+02 -0.16689656521E+03  0.15264801484E+03  0.23876178681E+03  0.00000000000E+00 0.  1.
         -1    1    6    6    0  502 -0.75154474197E+03 -0.13296595928E+04 -0.74958785381E+03  0.17013806401E+04  0.00000000000E+00 0.  1.
<mgrwt>
<rscale>  0 0.45368086E+04</rscale>
<asrwt>0</asrwt>
<pdfrwt beam="1">  1        1 0.49431556E+00 0.45368086E+04</pdfrwt>
<pdfrwt beam="2">  1       -1 0.24638254E+00 0.45368086E+04</pdfrwt>
<totfact> 0.22909178E-02</totfact>
</mgrwt>
</event>
<event>
12    1  0.2219439E-007  0.2569447E+04  0.7818608E-02  0.8378654E-01
          2   -1    0    0  501    0  0.00000000000E+00  0.00000000000E+00  0.22211634837E+04  0.22211634837E+04  0.00000000000E+00 0.  1.
         -2   -1    0    0    0  501 -0.00000000000E+00 -0.00000000000E+00 -0.74308573244E+03  0.74308573244E+03  0.00000000000E+00 0. -1.
         23    2    1    2    0    0 -0.36519855454E+03 -0.10647518330E+04  0.62502074068E+03  0.12905257770E+04  0.87973886446E+02 0.  0.
        254    2    1    2    0    0  0.36519855454E+03  0.10647518330E+04  0.85305701058E+03  0.16737234391E+04  0.89809656337E+03 0.  0.
        -24    2    4    4    0    0 -0.27307139562E+03  0.44247839260E+03  0.44997516150E+03  0.69223498700E+03  0.79727763280E+02 0.  0.
         24    2    4    4    0    0  0.63826995017E+03  0.62227344044E+03  0.40308184909E+03  0.98148845212E+03  0.78942007866E+02 0.  0.
         11    1    3    3    0    0 -0.89937407133E+02 -0.16626551922E+03  0.93040697352E+02  0.21068823282E+03  0.00000000000E+00 0.  1.
        -11    1    3    3    0    0 -0.27526114741E+03 -0.89848631382E+03  0.53198004333E+03  0.10798375442E+04  0.00000000000E+00 0. -1.
          2    1    6    6  502    0  0.91181461358E+02  0.56430985898E+02  0.36896473346E+02  0.11340134395E+03  0.00000000000E+00 0. -1.
          3    1    5    5  503    0 -0.33908861361E+02  0.10966386966E+03  0.78145628862E+02  0.13886221408E+03  0.00000000000E+00 0. -1.
         -4    1    5    5    0  503 -0.23916253426E+03  0.33281452294E+03  0.37182953264E+03  0.55337277292E+03  0.00000000000E+00 0.  1.
         -1    1    6    6    0  502  0.54708848881E+03  0.56584245455E+03  0.36618537574E+03  0.86808710816E+03  0.00000000000E+00 0.  1.
<mgrwt>
<rscale>  0 0.25694473E+04</rscale>
<asrwt>0</asrwt>
<pdfrwt beam="1">  1        2 0.34171746E+00 0.25694473E+04</pdfrwt>
<pdfrwt beam="2">  1       -2 0.11432088E+00 0.25694473E+04</pdfrwt>
<totfact> 0.26649855E+00</totfact>
</mgrwt>
</event>
<event>
12    1  0.2083715E-007  0.4917657E+04  0.7818608E-02  0.7841336E-01
          2   -1    0    0  501    0  0.00000000000E+00  0.00000000000E+00  0.20719103706E+04  0.20719103706E+04  0.00000000000E+00 0. -1.
         -2   -1    0    0    0  501 -0.00000000000E+00 -0.00000000000E+00 -0.29180016736E+04  0.29180016736E+04  0.00000000000E+00 0.  1.
         23    2    1    2    0    0 -0.14967918515E+04  0.10901550504E+04 -0.19193520172E+04  0.26685131369E+04  0.90699037544E+02 0.  0.
        254    2    1    2    0    0  0.14967918515E+04 -0.10901550504E+04  0.10732607143E+04  0.23213989073E+04  0.89898856785E+03 0.  0.
        -24    2    4    4    0    0  0.14864906889E+04 -0.11722359508E+04  0.86330379056E+03  0.20822212586E+04  0.80995322883E+02 0.  0.
         24    2    4    4    0    0  0.10301162587E+02  0.82080900391E+02  0.20995692371E+03  0.23917764866E+03  0.79250549825E+02 0.  0.
         11    1    3    3    0    0 -0.10348380402E+04  0.70125144627E+03 -0.12984053623E+04  0.18023595216E+04  0.00000000000E+00 0. -1.
        -11    1    3    3    0    0 -0.46195381135E+03  0.38890360412E+03 -0.62094665492E+03  0.86615361535E+03  0.00000000000E+00 0.  1.
          2    1    6    6  502    0  0.33915142116E+02  0.63315045166E+01  0.51871585706E+02  0.62297561894E+02  0.00000000000E+00 0. -1.
          1    1    5    5  503    0  0.14936119118E+03 -0.14378195366E+03  0.78322266120E+02  0.22162218526E+03  0.00000000000E+00 0. -1.
         -2    1    5    5    0  503  0.13371294978E+04 -0.10284539971E+04  0.78498152444E+03  0.18605990733E+04  0.00000000000E+00 0.  1.
         -1    1    6    6    0  502 -0.23613979529E+02  0.75749395874E+02  0.15808533800E+03  0.17688008677E+03  0.00000000000E+00 0.  1.
<mgrwt>
<rscale>  0 0.49176571E+04</rscale>
<asrwt>0</asrwt>
<pdfrwt beam="1">  1        2 0.31875544E+00 0.49176571E+04</pdfrwt>
<pdfrwt beam="2">  1       -2 0.44892333E+00 0.49176571E+04</pdfrwt>
<totfact> 0.15789970E-02</totfact>
</mgrwt>
</event>
<event>
12    1  0.2083715E-007  0.2300781E+04  0.7818608E-02  0.8477613E-01
         -1   -1    0    0    0  501 -0.00000000000E+00  0.00000000000E+00  0.43426450245E+03  0.43426450245E+03  0.00000000000E+00 0.  1.
          1   -1    0    0  501    0  0.00000000000E+00 -0.00000000000E+00 -0.30474482023E+04  0.30474482023E+04  0.00000000000E+00 0. -1.
         23    2    1    2    0    0 -0.50409626372E+03 -0.27285742908E+03  0.78723651243E+02  0.58575083404E+03  0.91336775796E+02 0.  0.
        254    2    1    2    0    0  0.50409626372E+03  0.27285742908E+03 -0.26919073511E+04  0.28959618707E+04  0.90092494142E+03 0.  0.
        -24    2    4    4    0    0  0.74095317481E+03  0.95040603023E+02 -0.20790804598E+04  0.22106380425E+04  0.79376781275E+02 0.  0.
         24    2    4    4    0    0 -0.23685691108E+03  0.17781682606E+03 -0.61282689130E+03  0.68532382816E+03  0.79949551536E+02 0.  0.
         11    1    3    3    0    0 -0.77533072983E+02 -0.13827488915E+02 -0.82122624735E+01  0.79183445939E+02  0.00000000000E+00 0. -1.
        -11    1    3    3    0    0 -0.42656319074E+03 -0.25902994016E+03  0.86935913716E+02  0.50656738810E+03  0.00000000000E+00 0.  1.
          4    1    6    6  502    0 -0.12974506788E+03  0.49300012164E+02 -0.25529771751E+03  0.29058767765E+03  0.00000000000E+00 0. -1.
          1    1    5    5  503    0  0.49120399653E+03  0.98000339577E+02 -0.14276103381E+04  0.15129298431E+04  0.00000000000E+00 0. -1.
         -2    1    5    5    0  503  0.24974917828E+03 -0.29597365536E+01 -0.65147012168E+03  0.69770819941E+03  0.00000000000E+00 0.  1.
         -3    1    6    6    0  502 -0.10711184320E+03  0.12851681389E+03 -0.35752917379E+03  0.39473615051E+03  0.00000000000E+00 0.  1.
<mgrwt>
<rscale>  0 0.23007812E+04</rscale>
<asrwt>0</asrwt>
<pdfrwt beam="1">  1        1 0.46883820E+00 0.23007812E+04</pdfrwt>
<pdfrwt beam="2">  1       -1 0.66809922E-01 0.23007812E+04</pdfrwt>
<totfact> 0.11326761E+00</totfact>
</mgrwt>
</event>
<event>
12    1  0.2083715E-007  0.4368626E+04  0.7818608E-02  0.7934049E-01
          2   -1    0    0  501    0  0.00000000000E+00  0.00000000000E+00  0.33121999992E+04  0.33121999992E+04  0.00000000000E+00 0.  1.
         -2   -1    0    0    0  501 -0.00000000000E+00 -0.00000000000E+00 -0.14404999143E+04  0.14404999143E+04  0.00000000000E+00 0. -1.
         23    2    1    2    0    0 -0.20817170404E+04  0.11886878539E+03  0.10407167112E+04  0.23322021997E+04  0.91652621795E+02 0.  0.
        254    2    1    2    0    0  0.20817170404E+04 -0.11886878539E+03  0.83098337372E+03  0.24204977138E+04  0.90586985296E+03 0.  0.
        -24    2    4    4    0    0  0.92973186035E+03 -0.29739278132E+03 -0.11475972529E+02  0.97998188983E+03  0.85959338736E+02 0.  0.
         24    2    4    4    0    0  0.11519851800E+04  0.17852399592E+03  0.84245934625E+03  0.14405158239E+04  0.80046341261E+02 0.  0.
         11    1    3    3    0    0 -0.11068287715E+04  0.40111410160E+02  0.59676217969E+03  0.12580953675E+04  0.00000000000E+00 0.  1.
        -11    1    3    3    0    0 -0.97488826893E+03  0.78757375234E+02  0.44395453146E+03  0.10741068322E+04  0.00000000000E+00 0. -1.
          2    1    6    6  502    0  0.37396364900E+03  0.50730861450E+02  0.22804082548E+03  0.44093655911E+03  0.00000000000E+00 0. -1.
          3    1    5    5  503    0  0.46056975328E+03 -0.12493536613E+03  0.31701090450E+02  0.47826593280E+03  0.00000000000E+00 0. -1.
         -4    1    5    5    0  503  0.46916210707E+03 -0.17245741519E+03 -0.43177062979E+02  0.50171595702E+03  0.00000000000E+00 0.  1.
         -1    1    6    6    0  502  0.77802153104E+03  0.12779313447E+03  0.61441852078E+03  0.99957926481E+03  0.00000000000E+00 0.  1.
<mgrwt>
<rscale>  0 0.43686262E+04</rscale>
<asrwt>0</asrwt>
<pdfrwt beam="1">  1        2 0.50956923E+00 0.43686262E+04</pdfrwt>
<pdfrwt beam="2">  1       -2 0.22161537E+00 0.43686262E+04</pdfrwt>
<totfact> 0.80704960E-02</totfact>
</mgrwt>
</event>
<event>
12    1  0.2083715E-007  0.1726253E+04  0.7818608E-02  0.8746531E-01
          1   -1    0    0  501    0  0.00000000000E+00  0.00000000000E+00  0.13444584300E+04  0.13444584300E+04  0.00000000000E+00 0. -1.
         -1   -1    0    0    0  501 -0.00000000000E+00 -0.00000000000E+00 -0.55411714544E+03  0.55411714544E+03  0.00000000000E+00 0.  1.
         23    2    1    2    0    0  0.40408636270E+03 -0.20030265224E+03  0.76332650764E+03  0.89092325344E+03  0.87578223581E+02 0.  0.
        254    2    1    2    0    0 -0.40408636270E+03  0.20030265224E+03  0.27014776892E+02  0.10076523220E+04  0.90068111047E+03 0.  0.
        -24    2    4    4    0    0 -0.17373882431E+03 -0.16768293506E+02  0.44048962762E+03  0.48056312675E+03  0.80271115653E+02 0.  0.
         24    2    4    4    0    0 -0.23034753839E+03  0.21707094574E+03 -0.41347485073E+03  0.52708919521E+03  0.81742177583E+02 0.  0.
         11    1    3    3    0    0  0.18444911961E+03 -0.10011623791E+03  0.43928701355E+03  0.48684475872E+03  0.00000000000E+00 0. -1.
        -11    1    3    3    0    0  0.21963724309E+03 -0.10018641433E+03  0.32403949408E+03  0.40407849472E+03  0.00000000000E+00 0.  1.
          2    1    6    6  502    0 -0.47621376190E+02  0.87151009688E+02 -0.16349358255E+03  0.19129361070E+03  0.00000000000E+00 0. -1.
          3    1    5    5  503    0 -0.83612570882E+02 -0.18050851927E+02  0.11818653862E+03  0.14589363652E+03  0.00000000000E+00 0. -1.
         -4    1    5    5    0  503 -0.90126253431E+02  0.12825584215E+01  0.32230308900E+03  0.33466949023E+03  0.00000000000E+00 0.  1.
         -1    1    6    6    0  502 -0.18272616220E+03  0.12991993606E+03 -0.24998126818E+03  0.33579558451E+03  0.00000000000E+00 0.  1.
<mgrwt>
<rscale>  0 0.17262531E+04</rscale>
<asrwt>0</asrwt>
<pdfrwt beam="1">  1        1 0.20683976E+00 0.17262531E+04</pdfrwt>
<pdfrwt beam="2">  1       -1 0.85248792E-01 0.17262531E+04</pdfrwt>
<totfact> 0.10862833E+01</totfact>
</mgrwt>
</event>
<event>
12    1  0.2083715E-007  0.2063347E+04  0.7818608E-02  0.8577563E-01
         -1   -1    0    0    0  501 -0.00000000000E+00  0.00000000000E+00  0.60301132234E+03  0.60301132234E+03  0.00000000000E+00 0.  1.
          1   -1    0    0  501    0  0.00000000000E+00 -0.00000000000E+00 -0.17650582782E+04  0.17650582782E+04  0.00000000000E+00 0. -1.
         23    2    1    2    0    0 -0.13073872862E+03 -0.56244107836E+03 -0.11518094965E+04  0.12912692843E+04  0.85315102641E+02 0.  0.
        254    2    1    2    0    0  0.13073872862E+03  0.56244107836E+03 -0.10237459425E+02  0.10768003162E+04  0.90882425896E+03 0.  0.
        -24    2    4    4    0    0 -0.21078583489E+03 -0.15128059384E+03 -0.66402439479E+02  0.27940457465E+03  0.79631313604E+02 0.  0.
         24    2    4    4    0    0  0.34152456351E+03  0.71372167221E+03  0.56164980054E+02  0.79739574158E+03  0.81534108499E+02 0.  0.
         13    1    3    3    0    0 -0.23859015347E+02 -0.14981794686E+03 -0.38754405078E+03  0.41617912142E+03  0.00000000000E+00 0. -1.
        -13    1    3    3    0    0 -0.10687971328E+03 -0.41262313151E+03 -0.76426544568E+03  0.87509016291E+03  0.00000000000E+00 0.  1.
          4    1    6    6  502    0  0.56682772961E+02  0.16997310027E+03 -0.13145496474E+02  0.17965688310E+03  0.00000000000E+00 0. -1.
          1    1    5    5  503    0 -0.54445977255E+02 -0.52012728575E+02 -0.56150520491E+02  0.93928533069E+02  0.00000000000E+00 0. -1.
         -2    1    5    5    0  503 -0.15633985763E+03 -0.99267865270E+02 -0.10251918989E+02  0.18547604159E+03  0.00000000000E+00 0.  1.
         -3    1    6    6    0  502  0.28484179055E+03  0.54374857193E+03  0.69310476528E+02  0.61773885848E+03  0.00000000000E+00 0.  1.
<mgrwt>
<rscale>  0 0.20633469E+04</rscale>
<asrwt>0</asrwt>
<pdfrwt beam="1">  1        1 0.27154742E+00 0.20633469E+04</pdfrwt>
<pdfrwt beam="2">  1       -1 0.92770974E-01 0.20633469E+04</pdfrwt>
<totfact> 0.44828825E+00</totfact>
</mgrwt>
</event>
<event>
12    1  0.2083715E-007  0.2681843E+04  0.7818608E-02  0.8340920E-01
         -3   -1    0    0    0  501 -0.00000000000E+00  0.00000000000E+00  0.14153156431E+04  0.14153156431E+04  0.00000000000E+00 0.  1.
          3   -1    0    0  501    0  0.00000000000E+00 -0.00000000000E+00 -0.12704380115E+04  0.12704380115E+04  0.00000000000E+00 0. -1.
         23    2    1    2    0    0  0.10991978983E+04  0.21881053184E+03  0.45974123101E+03  0.12149539892E+04  0.92936148871E+02 0.  0.
        254    2    1    2    0    0 -0.10991978983E+04 -0.21881053184E+03 -0.31486359949E+03  0.14707996654E+04  0.89888736837E+03 0.  0.
        -24    2    4    4    0    0 -0.12377961012E+04 -0.26545983989E+03 -0.30097618682E+03  0.13036458730E+04  0.79358569338E+02 0.  0.
         24    2    4    4    0    0  0.13859820283E+03  0.46649308055E+02 -0.13887412668E+02  0.16715379242E+03  0.79761584243E+02 0.  0.
         11    1    3    3    0    0  0.91563856381E+03  0.15000420387E+03  0.39603709400E+03  0.10088313142E+04  0.00000000000E+00 0.  1.
        -11    1    3    3    0    0  0.18355933453E+03  0.68806327969E+02  0.63704137011E+02  0.20612267496E+03  0.00000000000E+00 0. -1.
          4    1    6    6  502    0  0.11008127506E+03  0.17260316053E+02 -0.40225502312E+02  0.11846474862E+03  0.00000000000E+00 0. -1.
          3    1    5    5  503    0 -0.96144481868E+03 -0.21577442980E+03 -0.20141713409E+03  0.10057353558E+04  0.00000000000E+00 0. -1.
         -4    1    5    5    0  503 -0.27635128249E+03 -0.49685410098E+02 -0.99559052731E+02  0.29791051726E+03  0.00000000000E+00 0.  1.
         -3    1    6    6    0  502  0.28516927767E+02  0.29388992002E+02  0.26338089644E+02  0.48689043801E+02  0.00000000000E+00 0.  1.
<mgrwt>
<rscale>  0 0.26818432E+04</rscale>
<asrwt>0</asrwt>
<pdfrwt beam="1">  1        3 0.19545200E+00 0.26818432E+04</pdfrwt>
<pdfrwt beam="2">  1       -3 0.21774087E+00 0.26818432E+04</pdfrwt>
<totfact> 0.40866195E-02</totfact>
</mgrwt>
</event>
<event>
12    1  0.2083715E-007  0.2158297E+04  0.7818608E-02  0.8535989E-01
          1   -1    0    0  501    0  0.00000000000E+00  0.00000000000E+00  0.22216252596E+04  0.22216252596E+04  0.00000000000E+00 0. -1.
         -1   -1    0    0    0  501 -0.00000000000E+00 -0.00000000000E+00 -0.52419329169E+03  0.52419329169E+03  0.00000000000E+00 0.  1.
         23    2    1    2    0    0  0.94322991777E+01 -0.81292867600E+03  0.11621010701E+04  0.14209574451E+04  0.87744875297E+02 0.  0.
        254    2    1    2    0    0 -0.94322991777E+01  0.81292867600E+03  0.53533089781E+03  0.13248611062E+04  0.89874121969E+03 0.  0.
        -24    2    4    4    0    0 -0.16769334773E+03 -0.39497206854E+02  0.40140614958E+03  0.44411887703E+03  0.80209673955E+02 0.  0.
         24    2    4    4    0    0  0.15826104855E+03  0.85242588286E+03  0.13392474823E+03  0.88074222915E+03  0.78067859937E+02 0.  0.
         13    1    3    3    0    0 -0.16763295754E+01 -0.55985982876E+03  0.86690880923E+03  0.10319770935E+04  0.00000000000E+00 0. -1.
        -13    1    3    3    0    0  0.11108628753E+02 -0.25306884725E+03  0.29519226090E+03  0.38898035166E+03  0.00000000000E+00 0.  1.
          2    1    6    6  502    0  0.13651257947E+03  0.55217118298E+03  0.71188951435E+02  0.57323343105E+03  0.00000000000E+00 0. -1.
          1    1    5    5  503    0 -0.12972453033E+03 -0.21390723330E+00  0.22813557921E+03  0.26243921587E+03  0.00000000000E+00 0. -1.
         -2    1    5    5    0  503 -0.37968817397E+02 -0.39283299621E+02  0.17327057037E+03  0.18167966116E+03  0.00000000000E+00 0.  1.
         -1    1    6    6    0  502  0.21748469086E+02  0.30025469988E+03  0.62735796797E+02  0.30750879810E+03  0.00000000000E+00 0.  1.
<mgrwt>
<rscale>  0 0.21582966E+04</rscale>
<asrwt>0</asrwt>
<pdfrwt beam="1">  1        1 0.34178849E+00 0.21582966E+04</pdfrwt>
<pdfrwt beam="2">  1       -1 0.80645123E-01 0.21582966E+04</pdfrwt>
<totfact> 0.29542268E+00</totfact>
</mgrwt>
</event>
<event>
12    1  0.2083715E-007  0.2182906E+04  0.7818608E-02  0.8525577E-01
          1   -1    0    0  501    0  0.00000000000E+00  0.00000000000E+00  0.16477191603E+04  0.16477191603E+04  0.00000000000E+00 0. -1.
         -1   -1    0    0    0  501 -0.00000000000E+00 -0.00000000000E+00 -0.72298076609E+03  0.72298076609E+03  0.00000000000E+00 0.  1.
         23    2    1    2    0    0 -0.62442514054E+02 -0.42662429809E+02  0.13624199106E+04  0.13676818645E+04  0.92986660288E+02 0.  0.
        254    2    1    2    0    0  0.62442514054E+02  0.42662429809E+02 -0.43768151647E+03  0.10030180619E+04  0.89931138774E+03 0.  0.
        -24    2    4    4    0    0  0.15538206631E+03  0.32113855600E+03 -0.56537600125E+03  0.67305667109E+03  0.77985261622E+02 0.  0.
         24    2    4    4    0    0 -0.92939552258E+02 -0.27847612619E+03  0.12769448478E+03  0.32996139079E+03  0.79886949757E+02 0.  0.
         11    1    3    3    0    0 -0.20264791014E+02 -0.56060776333E+02  0.10952926164E+04  0.10969135736E+04  0.00000000000E+00 0. -1.
        -11    1    3    3    0    0 -0.42177723040E+02  0.13398346524E+02  0.26712729419E+03  0.27076829082E+03  0.00000000000E+00 0.  1.
          4    1    6    6  502    0 -0.76762150254E+02 -0.22441395717E+03  0.65659965884E+02  0.24610014832E+03  0.00000000000E+00 0. -1.
          3    1    5    5  503    0  0.10090207203E+03  0.24735327654E+03 -0.36147135640E+03  0.44947348426E+03  0.00000000000E+00 0. -1.
         -2    1    5    5    0  503  0.54479994284E+02  0.73785279454E+02 -0.20390464485E+03  0.22358318683E+03  0.00000000000E+00 0.  1.
         -3    1    6    6    0  502 -0.16177402004E+02 -0.54062169020E+02  0.62034518895E+02  0.83861242474E+02  0.00000000000E+00 0.  1.
<mgrwt>
<rscale>  0 0.21829056E+04</rscale>
<asrwt>0</asrwt>
<pdfrwt beam="1">  1        1 0.25349525E+00 0.21829056E+04</pdfrwt>
<pdfrwt beam="2">  1       -1 0.11122781E+00 0.21829056E+04</pdfrwt>
<totfact> 0.35121449E+00</totfact>
</mgrwt>
</event>
<event>
12    1  0.2083715E-007  0.3304898E+04  0.7818608E-02  0.8161650E-01
         -2   -1    0    0    0  501 -0.00000000000E+00  0.00000000000E+00  0.16869963146E+04  0.16869963146E+04  0.00000000000E+00 0.  1.
          2   -1    0    0  501    0  0.00000000000E+00 -0.00000000000E+00 -0.16186087165E+04  0.16186087165E+04  0.00000000000E+00 0. -1.
         23    2    1    2    0    0 -0.14508794050E+04  0.45571367071E+03 -0.12316500904E+03  0.15283169979E+04  0.88641012836E+02 0.  0.
        254    2    1    2    0    0  0.14508794050E+04 -0.45571367071E+03  0.19155260713E+03  0.17772880331E+04  0.89963012059E+03 0.  0.
        -24    2    4    4    0    0  0.14434770509E+04 -0.62532313724E+03  0.14008181807E+03  0.15818400149E+04  0.89106085661E+02 0.  0.
         24    2    4    4    0    0  0.74023541242E+01  0.16960946652E+03  0.51470789051E+02  0.19544801826E+03  0.82027554744E+02 0.  0.
         11    1    3    3    0    0 -0.11588903348E+04  0.32735034974E+03 -0.10611986766E+03  0.12089030093E+04  0.00000000000E+00 0. -1.
        -11    1    3    3    0    0 -0.29198907024E+03  0.12836332098E+03 -0.17045141387E+02  0.31941398867E+03  0.00000000000E+00 0.  1.
          2    1    6    6  502    0  0.36066474447E+02  0.11210933096E+03  0.57238425614E+02  0.13094094102E+03  0.00000000000E+00 0. -1.
          1    1    5    5  503    0  0.10290228274E+04 -0.47980911906E+03  0.75934507522E+02  0.11379239076E+04  0.00000000000E+00 0. -1.
         -2    1    5    5    0  503  0.41445422344E+03 -0.14551401818E+03  0.64147310553E+02  0.44391610724E+03  0.00000000000E+00 0.  1.
         -1    1    6    6    0  502 -0.28664120323E+02  0.57500135560E+02 -0.57676365632E+01  0.64507077246E+02  0.00000000000E+00 0.  1.
<mgrwt>
<rscale>  0 0.33048975E+04</rscale>
<asrwt>0</asrwt>
<pdfrwt beam="1">  1        2 0.24901673E+00 0.33048975E+04</pdfrwt>
<pdfrwt beam="2">  1       -2 0.25953789E+00 0.33048975E+04</pdfrwt>
<totfact> 0.51047379E-01</totfact>
</mgrwt>
</event>
<event>
12    1  0.2083715E-007  0.2175205E+04  0.7818608E-02  0.8528820E-01
         -1   -1    0    0    0  501 -0.00000000000E+00  0.00000000000E+00  0.14460093203E+04  0.14460093203E+04  0.00000000000E+00 0. -1.
          1   -1    0    0  501    0  0.00000000000E+00 -0.00000000000E+00 -0.81802986384E+03  0.81802986384E+03  0.00000000000E+00 0.  1.
         23    2    1    2    0    0  0.52828116913E+03 -0.67646469953E+03  0.53694581306E+03  0.10167410962E+04  0.93627812315E+02 0.  0.
        254    2    1    2    0    0 -0.52828116913E+03  0.67646469953E+03  0.91033643363E+02  0.12472980879E+04  0.90043318042E+03 0.  0.
        -24    2    4    4    0    0 -0.11988465812E+03  0.43916393864E+03 -0.36241529350E+03  0.58748567894E+03  0.80977044519E+02 0.  0.
         24    2    4    4    0    0 -0.40839651101E+03  0.23730076089E+03  0.45344893687E+03  0.65981240893E+03  0.81468492721E+02 0.  0.
         13    1    3    3    0    0  0.21879748146E+03 -0.21088636714E+03  0.17339012383E+03  0.34987073725E+03  0.00000000000E+00 0. -1.
        -13    1    3    3    0    0  0.30948368767E+03 -0.46557833239E+03  0.36355568923E+03  0.66687035898E+03  0.00000000000E+00 0.  1.
          4    1    6    6  502    0 -0.10188370485E+02  0.25005177633E+02  0.16352282506E+02  0.31566737949E+02  0.00000000000E+00 0. -1.
          1    1    5    5  503    0 -0.25185360318E+02  0.95533710974E+02 -0.12449927720E+03  0.15893729056E+03  0.00000000000E+00 0. -1.
         -2    1    5    5    0  503 -0.94699297806E+02  0.34363022767E+03 -0.23791601631E+03  0.42854838838E+03  0.00000000000E+00 0.  1.
         -3    1    6    6    0  502 -0.39820814052E+03  0.21229558325E+03  0.43709665436E+03  0.62824567098E+03  0.00000000000E+00 0.  1.
<mgrwt>
<rscale>  0 0.21752046E+04</rscale>
<asrwt>0</asrwt>
<pdfrwt beam="1">  1        1 0.12585075E+00 0.21752046E+04</pdfrwt>
<pdfrwt beam="2">  1       -1 0.22246297E+00 0.21752046E+04</pdfrwt>
<totfact> 0.20643836E+00</totfact>
</mgrwt>
</event>
<event>
12    1  0.2083715E-007  0.1139868E+04  0.7818608E-02  0.9167182E-01
          2   -1    0    0  501    0  0.00000000000E+00  0.00000000000E+00  0.21339149441E+04  0.21339149441E+04  0.00000000000E+00 0.  1.
         -2   -1    0    0    0  501 -0.00000000000E+00 -0.00000000000E+00 -0.15222022912E+03  0.15222022912E+03  0.00000000000E+00 0. -1.
         23    2    1    2    0    0 -0.12289836148E+03 -0.62178464682E+01  0.68236774697E+03  0.69962997898E+03  0.93347182645E+02 0.  0.
        254    2    1    2    0    0  0.12289836148E+03  0.62178464682E+01  0.12993269680E+04  0.15865051943E+04  0.90200082743E+03 0.  0.
        -24    2    4    4    0    0  0.44255727865E+02 -0.24226344212E+02  0.14180937021E+04  0.14213208012E+04  0.81348551283E+02 0.  0.
         24    2    4    4    0    0  0.78642633614E+02  0.30444190681E+02 -0.11876673403E+03  0.16518439309E+03  0.77902721662E+02 0.  0.
         11    1    3    3    0    0 -0.10701044572E+03  0.76428043268E+01  0.33800491485E+03  0.35462229260E+03  0.00000000000E+00 0. -1.
        -11    1    3    3    0    0 -0.15887915760E+02 -0.13860650795E+02  0.34436283213E+03  0.34500768638E+03  0.00000000000E+00 0.  1.
          2    1    6    6  502    0  0.84218754340E+02  0.22138649662E+02 -0.60424576164E+02  0.10599079109E+03  0.00000000000E+00 0. -1.
          1    1    5    5  503    0  0.99791227102E+01 -0.48529031995E+02  0.55575103582E+03  0.55795507314E+03  0.00000000000E+00 0. -1.
         -2    1    5    5    0  503  0.34276605155E+02  0.24302687783E+02  0.86234266625E+03  0.86336572803E+03  0.00000000000E+00 0.  1.
         -1    1    6    6    0  502 -0.55761207254E+01  0.83055410183E+01 -0.58342157864E+02  0.59193602004E+02  0.00000000000E+00 0.  1.
<mgrwt>
<rscale>  0 0.11398685E+04</rscale>
<asrwt>0</asrwt>
<pdfrwt beam="1">  1        2 0.32829458E+00 0.11398685E+04</pdfrwt>
<pdfrwt beam="2">  1       -2 0.23418498E-01 0.11398685E+04</pdfrwt>
<totfact> 0.90215693E+01</totfact>
</mgrwt>
</event>
<event>
12    1  0.2083715E-007  0.2486241E+04  0.7818608E-02  0.8407904E-01
          1   -1    0    0  501    0  0.00000000000E+00  0.00000000000E+00  0.28200787183E+04  0.28200787183E+04  0.00000000000E+00 0. -1.
         -1   -1    0    0    0  501 -0.00000000000E+00 -0.00000000000E+00 -0.54798045168E+03  0.54798045168E+03  0.00000000000E+00 0.  1.
         23    2    1    2    0    0  0.92905473644E+03 -0.52413150596E+03  0.12030360076E+04  0.16107927253E+04  0.97473224781E+02 0.  0.
        254    2    1    2    0    0 -0.92905473644E+03  0.52413150596E+03  0.10690622591E+04  0.17572664447E+04  0.89846241159E+03 0.  0.
        -24    2    4    4    0    0 -0.83397302978E+03 -0.85847861255E+01  0.54241764239E+03  0.99808413802E+03  0.79814377425E+02 0.  0.
         24    2    4    4    0    0 -0.95081706667E+02  0.53271629208E+03  0.52664461666E+03  0.75918230666E+03  0.78587808864E+02 0.  0.
         11    1    3    3    0    0  0.15859600728E+03 -0.89171043684E+02  0.15317428068E+03  0.23783718973E+03  0.00000000000E+00 0.  1.
        -11    1    3    3    0    0  0.77045872917E+03 -0.43496046227E+03  0.10498617269E+04  0.13729555356E+04  0.00000000000E+00 0. -1.
          4    1    6    6  502    0 -0.10135308572E+03  0.37608134116E+03  0.35985322820E+03  0.53028668567E+03  0.00000000000E+00 0. -1.
          3    1    5    5  503    0 -0.19036855189E+03 -0.34353742751E+02  0.13592850232E+03  0.23642530095E+03  0.00000000000E+00 0. -1.
         -4    1    5    5    0  503 -0.64360447789E+03  0.25768956626E+02  0.40648914008E+03  0.76165883707E+03  0.00000000000E+00 0.  1.
         -3    1    6    6    0  502  0.62713790514E+01  0.15663495092E+03  0.16679138846E+03  0.22889562099E+03  0.00000000000E+00 0.  1.
<mgrwt>
<rscale>  0 0.24862405E+04</rscale>
<asrwt>0</asrwt>
<pdfrwt beam="1">  1        1 0.43385826E+00 0.24862405E+04</pdfrwt>
<pdfrwt beam="2">  1       -1 0.84304686E-01 0.24862405E+04</pdfrwt>
<totfact> 0.99938596E-01</totfact>
</mgrwt>
</event>
<event>
12    1  0.2083715E-007  0.1482077E+04  0.7818608E-02  0.8896460E-01
          1   -1    0    0  501    0  0.00000000000E+00  0.00000000000E+00  0.17673872114E+04  0.17673872114E+04  0.00000000000E+00 0. -1.
         -1   -1    0    0    0  501 -0.00000000000E+00 -0.00000000000E+00 -0.31070611551E+03  0.31070611551E+03  0.00000000000E+00 0.  1.
         23    2    1    2    0    0 -0.34647971021E+03 -0.11055703814E+03  0.63116538396E+02  0.38004126126E+03  0.90424634734E+02 0.  0.
        254    2    1    2    0    0  0.34647971021E+03  0.11055703814E+03  0.13935645575E+04  0.16980520657E+04  0.89949296469E+03 0.  0.
        -24    2    4    4    0    0  0.62008684866E+03  0.22322218942E+03  0.94608236241E+03  0.11557109162E+04  0.79120411819E+02 0.  0.
         24    2    4    4    0    0 -0.27360713845E+03 -0.11266515128E+03  0.44748219511E+03  0.54234114951E+03  0.79619752515E+02 0.  0.
         13    1    3    3    0    0 -0.24504508836E+02  0.14669035801E+02 -0.14199045709E+01  0.28594889292E+02  0.00000000000E+00 0. -1.
        -13    1    3    3    0    0 -0.32197520138E+03 -0.12522607394E+03  0.64536442966E+02  0.35144637196E+03  0.00000000000E+00 0.  1.
          4    1    6    6  502    0 -0.21128039236E+03 -0.58629447559E+02  0.27989947340E+03  0.35555665023E+03  0.00000000000E+00 0. -1.
          1    1    5    5  503    0  0.57907032130E+03  0.22567760131E+03  0.86913191713E+03  0.10684770031E+04  0.00000000000E+00 0. -1.
         -2    1    5    5    0  503  0.41016527361E+02 -0.24554118874E+01  0.76950445279E+02  0.87233913089E+02  0.00000000000E+00 0.  1.
         -3    1    6    6    0  502 -0.62326746090E+02 -0.54035703720E+02  0.16758272171E+03  0.18678449928E+03  0.00000000000E+00 0.  1.
<mgrwt>
<rscale>  0 0.14820769E+04</rscale>
<asrwt>0</asrwt>
<pdfrwt beam="1">  1        1 0.27190572E+00 0.14820769E+04</pdfrwt>
<pdfrwt beam="2">  1       -1 0.47800942E-01 0.14820769E+04</pdfrwt>
<totfact> 0.18161593E+01</totfact>
</mgrwt>
</event>
<event>
12    1  0.2083715E-007  0.1406214E+04  0.7818608E-02  0.8949333E-01
         -2   -1    0    0    0  501 -0.00000000000E+00  0.00000000000E+00  0.58601269856E+03  0.58601269856E+03  0.00000000000E+00 0.  1.
          2   -1    0    0  501    0  0.00000000000E+00 -0.00000000000E+00 -0.84359885115E+03  0.84359885115E+03  0.00000000000E+00 0. -1.
         23    2    1    2    0    0  0.13088974190E+03 -0.24524901053E+03 -0.37945163962E+03  0.47996567999E+03  0.95416484181E+02 0.  0.
        254    2    1    2    0    0 -0.13088974190E+03  0.24524901053E+03  0.12186548703E+03  0.94964586973E+03  0.89983158383E+03 0.  0.
        -24    2    4    4    0    0 -0.28974870081E+03  0.21420990966E+03  0.44570421181E+03  0.57975387037E+03  0.87304700733E+02 0.  0.
         24    2    4    4    0    0  0.15885895891E+03  0.31039100870E+02 -0.32383872478E+03  0.36989199936E+03  0.75822008084E+02 0.  0.
         11    1    3    3    0    0  0.93845235506E+02 -0.15824424216E+03 -0.31738497461E+03  0.36685336377E+03  0.00000000000E+00 0. -1.
        -11    1    3    3    0    0  0.37044506394E+02 -0.87004768378E+02 -0.62066665012E+02  0.11311231622E+03  0.00000000000E+00 0.  1.
          4    1    6    6  502    0  0.24504306843E+02  0.70224664444E+01 -0.13210378440E+03  0.13454064791E+03  0.00000000000E+00 0. -1.
          1    1    5    5  503    0 -0.10749649595E+03  0.12959123085E+03  0.22885040789E+03  0.28411598502E+03  0.00000000000E+00 0. -1.
         -2    1    5    5    0  503 -0.18225220486E+03  0.84618678817E+02  0.21685380392E+03  0.29563788535E+03  0.00000000000E+00 0.  1.
         -3    1    6    6    0  502  0.13435465207E+03  0.24016634426E+02 -0.19173494038E+03  0.23535135144E+03  0.00000000000E+00 0.  1.
<mgrwt>
<rscale>  0 0.14062143E+04</rscale>
<asrwt>0</asrwt>
<pdfrwt beam="1">  1        2 0.12978444E+00 0.14062143E+04</pdfrwt>
<pdfrwt beam="2">  1       -2 0.90155800E-01 0.14062143E+04</pdfrwt>
<totfact> 0.32849302E+01</totfact>
</mgrwt>
</event>
<event>
12    1  0.2083715E-007  0.2894833E+04  0.7818608E-02  0.8274416E-01
          2   -1    0    0  501    0  0.00000000000E+00  0.00000000000E+00  0.11958881879E+04  0.11958881879E+04  0.00000000000E+00 0. -1.
         -2   -1    0    0    0  501 -0.00000000000E+00 -0.00000000000E+00 -0.17518486751E+04  0.17518486751E+04  0.00000000000E+00 0.  1.
         23    2    1    2    0    0  0.76638305297E+03  0.98935338689E+03  0.12607395558E+03  0.12613941465E+04  0.95170596412E+02 0.  0.
        254    2    1    2    0    0 -0.76638305297E+03 -0.98935338689E+03 -0.68203444285E+03  0.16863427165E+04  0.90134214832E+03 0.  0.
        -24    2    4    4    0    0 -0.19742583216E+03  0.15397702761E+03 -0.12008367112E+03  0.28882363976E+03  0.79455160820E+02 0.  0.
         24    2    4    4    0    0 -0.56895722081E+03 -0.11433304145E+04 -0.56195077173E+03  0.13975190768E+04  0.79712886386E+02 0.  0.
         11    1    3    3    0    0  0.30007257599E+03  0.38563393360E+03  0.26471489370E+01  0.48863492405E+03  0.00000000000E+00 0. -1.
        -11    1    3    3    0    0  0.46631047699E+03  0.60371945328E+03  0.12342680664E+03  0.77275922241E+03  0.00000000000E+00 0.  1.
          2    1    6    6  502    0 -0.18049738355E+03 -0.29612265043E+03 -0.13138615922E+03  0.37085071444E+03  0.00000000000E+00 0. -1.
          1    1    5    5  503    0 -0.26869141439E+02  0.60664455789E+02 -0.46175710381E+02  0.80835160586E+02  0.00000000000E+00 0. -1.
         -2    1    5    5    0  503 -0.17055669072E+03  0.93312571820E+02 -0.73907960739E+02  0.20798847918E+03  0.00000000000E+00 0.  1.
         -1    1    6    6    0  502 -0.38845983727E+03 -0.84720776406E+03 -0.43056461252E+03  0.10266683623E+04  0.00000000000E+00 0.  1.
<mgrwt>
<rscale>  0 0.28948334E+04</rscale>
<asrwt>0</asrwt>
<pdfrwt beam="1">  1        2 0.18398280E+00 0.28948334E+04</pdfrwt>
<pdfrwt beam="2">  1       -2 0.26951518E+00 0.28948334E+04</pdfrwt>
<totfact> 0.80257436E-01</totfact>
</mgrwt>
</event>
<event>
12    1  0.2083715E-007  0.1614556E+04  0.7818608E-02  0.8811656E-01
          1   -1    0    0  501    0  0.00000000000E+00  0.00000000000E+00  0.79660627408E+03  0.79660627408E+03  0.00000000000E+00 0. -1.
         -1   -1    0    0    0  501 -0.00000000000E+00 -0.00000000000E+00 -0.81809219722E+03  0.81809219722E+03  0.00000000000E+00 0.  1.
         23    2    1    2    0    0 -0.18845706480E+03  0.94356093474E+02  0.50238384159E+03  0.55226808428E+03  0.90506215063E+02 0.  0.
        254    2    1    2    0    0  0.18845706480E+03 -0.94356093474E+02 -0.52386976473E+03  0.10624303870E+04  0.89994425339E+03 0.  0.
        -24    2    4    4    0    0 -0.79165329545E+02  0.26053021049E+03  0.92266712025E+02  0.29847079510E+03  0.80178110452E+02 0.  0.
         24    2    4    4    0    0  0.26762239435E+03 -0.35488630397E+03 -0.61613647676E+03  0.76395959192E+03  0.80274936301E+02 0.  0.
         11    1    3    3    0    0 -0.33896490925E+02 -0.17750205790E+02  0.92058843553E+02  0.99693894392E+02  0.00000000000E+00 0.  1.
        -11    1    3    3    0    0 -0.15456057388E+03  0.11210629926E+03  0.41032499804E+03  0.45257418988E+03  0.00000000000E+00 0. -1.
          2    1    6    6  502    0 -0.21484682367E+01 -0.24276525520E+02 -0.42929351670E+02  0.49364915090E+02  0.00000000000E+00 0. -1.
          3    1    5    5  503    0  0.37047331205E+01  0.63156705443E+02 -0.47583568529E+01  0.63443963069E+02  0.00000000000E+00 0. -1.
         -4    1    5    5    0  503 -0.82870062666E+02  0.19737350505E+03  0.97025068878E+02  0.23502683203E+03  0.00000000000E+00 0.  1.
         -1    1    6    6    0  502  0.26977086258E+03 -0.33060977845E+03 -0.57320712509E+03  0.71459467683E+03  0.00000000000E+00 0.  1.
<mgrwt>
<rscale>  0 0.16145555E+04</rscale>
<asrwt>0</asrwt>
<pdfrwt beam="1">  1        1 0.12255481E+00 0.16145555E+04</pdfrwt>
<pdfrwt beam="2">  1       -1 0.12586034E+00 0.16145555E+04</pdfrwt>
<totfact> 0.11739632E+01</totfact>
</mgrwt>
</event>
<event>
12    1  0.2083715E-007  0.3036461E+04  0.7818608E-02  0.8233395E-01
         -2   -1    0    0    0  501 -0.00000000000E+00  0.00000000000E+00  0.11689562496E+04  0.11689562496E+04  0.00000000000E+00 0.  1.
          2   -1    0    0  501    0  0.00000000000E+00 -0.00000000000E+00 -0.19718651845E+04  0.19718651845E+04  0.00000000000E+00 0. -1.
         23    2    1    2    0    0  0.83634433927E+03 -0.50450466110E+03  0.64894821850E+03  0.11761634389E+04  0.90718453385E+02 0.  0.
        254    2    1    2    0    0 -0.83634433927E+03  0.50450466110E+03 -0.14518571534E+04  0.19646579952E+04  0.89330567978E+03 0.  0.
        -24    2    4    4    0    0 -0.10072491855E+03  0.41595686190E+03 -0.10052868139E+04  0.10955732965E+04  0.80707183476E+02 0.  0.
         24    2    4    4    0    0 -0.73561942072E+03  0.88547799208E+02 -0.44657033941E+03  0.86908469875E+03  0.83105358904E+02 0.  0.
         13    1    3    3    0    0  0.20427868740E+03 -0.16428383080E+03  0.15069052119E+03  0.30236830582E+03  0.00000000000E+00 0. -1.
        -13    1    3    3    0    0  0.63206565187E+03 -0.34022083030E+03  0.49825769731E+03  0.87379513307E+03  0.00000000000E+00 0.  1.
          2    1    6    6  502    0 -0.36863301956E+03  0.23013808160E+02 -0.18060631480E+03  0.41114301578E+03  0.00000000000E+00 0. -1.
          3    1    5    5  503    0 -0.20260430210E+02  0.34565346457E+02 -0.51772691420E+02  0.65464950813E+02  0.00000000000E+00 0. -1.
         -4    1    5    5    0  503 -0.80464488341E+02  0.38139151544E+03 -0.95351412253E+03  0.10301083457E+04  0.00000000000E+00 0.  1.
         -1    1    6    6    0  502 -0.36698640116E+03  0.65533991047E+02 -0.26596402461E+03  0.45794168297E+03  0.00000000000E+00 0.  1.
<mgrwt>
<rscale>  0 0.30364612E+04</rscale>
<asrwt>0</asrwt>
<pdfrwt beam="1">  1        2 0.30336387E+00 0.30364612E+04</pdfrwt>
<pdfrwt beam="2">  1       -2 0.17983942E+00 0.30364612E+04</pdfrwt>
<totfact> 0.10747459E+00</totfact>
</mgrwt>
</event>
<event>
12    1  0.2083715E-007  0.2965077E+04  0.7818608E-02  0.8253774E-01
          1   -1    0    0  501    0  0.00000000000E+00  0.00000000000E+00  0.21137793111E+04  0.21137793111E+04  0.00000000000E+00 0.  1.
         -1   -1    0    0    0  501 -0.00000000000E+00 -0.00000000000E+00 -0.10398062987E+04  0.10398062987E+04  0.00000000000E+00 0. -1.
         23    2    1    2    0    0  0.23267259956E+03  0.54761785643E+03  0.17700558056E+04  0.18696475683E+04  0.91992496327E+02 0.  0.
        254    2    1    2    0    0 -0.23267259956E+03 -0.54761785643E+03 -0.69608279316E+03  0.12839380415E+04  0.89996876841E+03 0.  0.
        -24    2    4    4    0    0 -0.95918050560E+02 -0.29558884525E+03 -0.87828002805E+03  0.93502994980E+03  0.79574879846E+02 0.  0.
         24    2    4    4    0    0 -0.13675454900E+03 -0.25202901118E+03  0.18219723488E+03  0.34890809166E+03  0.79502169028E+02 0.  0.
         13    1    3    3    0    0  0.95548427926E+02  0.17618665063E+03  0.72178413810E+03  0.74909517416E+03  0.00000000000E+00 0.  1.
        -13    1    3    3    0    0  0.13712417163E+03  0.37143120580E+03  0.10482716675E+04  0.11205523941E+04  0.00000000000E+00 0. -1.
          4    1    6    6  502    0 -0.12502391033E+03 -0.23327705744E+03  0.13572343461E+03  0.29743909357E+03  0.00000000000E+00 0. -1.
          3    1    5    5  503    0 -0.62066810928E+02 -0.18557225546E+03 -0.65813222812E+03  0.68660569522E+03  0.00000000000E+00 0. -1.
         -4    1    5    5    0  503 -0.33851239632E+02 -0.11001658978E+03 -0.22014779992E+03  0.24842425458E+03  0.00000000000E+00 0.  1.
         -3    1    6    6    0  502 -0.11730638665E+02 -0.18751953744E+02  0.46473800276E+02  0.51468998094E+02  0.00000000000E+00 0.  1.
<mgrwt>
<rscale>  0 0.29650774E+04</rscale>
<asrwt>0</asrwt>
<pdfrwt beam="1">  1        1 0.32519681E+00 0.29650774E+04</pdfrwt>
<pdfrwt beam="2">  1       -1 0.15997020E+00 0.29650774E+04</pdfrwt>
<totfact> 0.62241477E-01</totfact>
</mgrwt>
</event>
<event>
12    1  0.2083715E-007  0.1510226E+04  0.7818608E-02  0.8877681E-01
          1   -1    0    0  501    0  0.00000000000E+00  0.00000000000E+00  0.10731759953E+04  0.10731759953E+04  0.00000000000E+00 0.  1.
         -1   -1    0    0    0  501 -0.00000000000E+00 -0.00000000000E+00 -0.53131616110E+03  0.53131616110E+03  0.00000000000E+00 0. -1.
         23    2    1    2    0    0 -0.39469933842E+03 -0.20853005042E+03  0.36634788304E+03  0.58453607402E+03  0.90549990335E+02 0.  0.
        254    2    1    2    0    0  0.39469933842E+03  0.20853005042E+03  0.17551195117E+03  0.10199560824E+04  0.90012977693E+03 0.  0.
        -24    2    4    4    0    0  0.14248988757E+03 -0.34406649087E+03 -0.62511365280E+01  0.38098749264E+03  0.80170285231E+02 0.  0.
         24    2    4    4    0    0  0.25220945084E+03  0.55259654129E+03  0.18176308770E+03  0.63896858975E+03  0.79186451475E+02 0.  0.
         13    1    3    3    0    0 -0.17896361488E+03 -0.90679000362E+02  0.10770934273E+03  0.22771025244E+03  0.00000000000E+00 0. -1.
        -13    1    3    3    0    0 -0.21573572354E+03 -0.11785105005E+03  0.25863854031E+03  0.35682582158E+03  0.00000000000E+00 0.  1.
          4    1    6    6  502    0  0.19536426317E+03  0.43773212094E+03  0.10897870583E+03  0.49158210234E+03  0.00000000000E+00 0. -1.
          1    1    5    5  503    0  0.15230681466E+03 -0.31951274658E+03 -0.65282830162E+00  0.35395788903E+03  0.00000000000E+00 0. -1.
         -4    1    5    5    0  503 -0.98169270872E+01 -0.24553744293E+02 -0.55983082264E+01  0.27029603608E+02  0.00000000000E+00 0.  1.
         -3    1    6    6    0  502  0.56845187675E+02  0.11486442036E+03  0.72784381873E+02  0.14738648741E+03  0.00000000000E+00 0.  1.
<mgrwt>
<rscale>  0 0.15102261E+04</rscale>
<asrwt>0</asrwt>
<pdfrwt beam="1">  1        1 0.16510400E+00 0.15102261E+04</pdfrwt>
<pdfrwt beam="2">  1       -1 0.81740948E-01 0.15102261E+04</pdfrwt>
<totfact> 0.19133393E+01</totfact>
</mgrwt>
</event>
<event>
12    1  0.2083715E-007  0.2853406E+04  0.7818608E-02  0.8286877E-01
         -2   -1    0    0    0  501 -0.00000000000E+00  0.00000000000E+00  0.16957578735E+04  0.16957578735E+04  0.00000000000E+00 0.  1.
          2   -1    0    0  501    0  0.00000000000E+00 -0.00000000000E+00 -0.12003372575E+04  0.12003372575E+04  0.00000000000E+00 0. -1.
         23    2    1    2    0    0 -0.67689181746E+03  0.10226309631E+04 -0.15758942678E+03  0.12397992758E+04  0.91165769866E+02 0.  0.
        254    2    1    2    0    0  0.67689181746E+03 -0.10226309631E+04  0.65301004276E+03  0.16562958552E+04  0.90163031491E+03 0.  0.
        -24    2    4    4    0    0  0.61273529912E+03 -0.11792019288E+04  0.61040820037E+03  0.14645253986E+04  0.79213233227E+02 0.  0.
         24    2    4    4    0    0  0.64156518338E+02  0.15657096569E+03  0.42601842395E+02  0.19177045662E+03  0.79564218819E+02 0.  0.
         11    1    3    3    0    0 -0.39209331962E+03  0.66265692573E+03 -0.11983252155E+03  0.77923757977E+03  0.00000000000E+00 0. -1.
        -11    1    3    3    0    0 -0.28479849784E+03  0.35997403741E+03 -0.37756905226E+02  0.46056169606E+03  0.00000000000E+00 0.  1.
          4    1    6    6  502    0 -0.76979767839E+00  0.24399293565E+02 -0.20195174879E+02  0.31682222197E+02  0.00000000000E+00 0. -1.
          1    1    5    5  503    0  0.68765648044E+02 -0.17463541240E+03  0.65072638629E+02  0.19864714927E+03  0.00000000000E+00 0. -1.
         -2    1    5    5    0  503  0.54396965108E+03 -0.10045665164E+04  0.54533556174E+03  0.12658782493E+04  0.00000000000E+00 0.  1.
         -3    1    6    6    0  502  0.64926316017E+02  0.13217167212E+03  0.62797017274E+02  0.16008823443E+03  0.00000000000E+00 0.  1.
<mgrwt>
<rscale>  0 0.28534059E+04</rscale>
<asrwt>0</asrwt>
<pdfrwt beam="1">  1        2 0.18466727E+00 0.28534059E+04</pdfrwt>
<pdfrwt beam="2">  1       -2 0.26088583E+00 0.28534059E+04</pdfrwt>
<totfact> 0.90374497E-01</totfact>
</mgrwt>
</event>
<event>
12    1  0.2083715E-007  0.2030123E+04  0.7818608E-02  0.8592665E-01
          1   -1    0    0  501    0  0.00000000000E+00  0.00000000000E+00  0.89454955728E+03  0.89454955728E+03  0.00000000000E+00 0. -1.
         -1   -1    0    0    0  501 -0.00000000000E+00 -0.00000000000E+00 -0.11518084724E+04  0.11518084724E+04  0.00000000000E+00 0.  1.
         23    2    1    2    0    0 -0.79777365694E+03 -0.93757917769E+02 -0.23338194964E+03  0.84115116513E+03  0.88514367994E+02 0.  0.
        254    2    1    2    0    0  0.79777365694E+03  0.93757917769E+02 -0.23876965488E+02  0.12052068645E+04  0.89817599723E+03 0.  0.
        -24    2    4    4    0    0  0.23725569068E+03  0.46362177278E+03  0.16718866778E+02  0.52720031653E+03  0.80157608981E+02 0.  0.
         24    2    4    4    0    0  0.56051796625E+03 -0.36986385501E+03 -0.40595832266E+02  0.67800654801E+03  0.84054719163E+02 0.  0.
         13    1    3    3    0    0 -0.29898166767E+03 -0.29021853461E+02 -0.43466264764E+02  0.30351543907E+03  0.00000000000E+00 0. -1.
        -13    1    3    3    0    0 -0.49879198927E+03 -0.64736064308E+02 -0.18991568487E+03  0.53763572606E+03  0.00000000000E+00 0.  1.
          2    1    6    6  502    0  0.34278790204E+03 -0.23323760181E+03  0.15531895309E+02  0.41490307839E+03  0.00000000000E+00 0. -1.
          3    1    5    5  503    0  0.58417058771E+02  0.19248577093E+03 -0.91842315837E+01  0.20136453231E+03  0.00000000000E+00 0. -1.
         -4    1    5    5    0  503  0.17883863191E+03  0.27113600186E+03  0.25903098362E+02  0.32583578421E+03  0.00000000000E+00 0.  1.
         -1    1    6    6    0  502  0.21773006421E+03 -0.13662625320E+03 -0.56127727575E+02  0.26310346962E+03  0.00000000000E+00 0.  1.
<mgrwt>
<rscale>  0 0.20301229E+04</rscale>
<asrwt>0</asrwt>
<pdfrwt beam="1">  1        1 0.13762301E+00 0.20301229E+04</pdfrwt>
<pdfrwt beam="2">  1       -1 0.17720130E+00 0.20301229E+04</pdfrwt>
<totfact> 0.37086142E+00</totfact>
</mgrwt>
</event>
<event>
12    1  0.2083715E-007  0.2413923E+04  0.7818608E-02  0.8434309E-01
          2   -1    0    0  501    0  0.00000000000E+00  0.00000000000E+00  0.27898375530E+04  0.27898375530E+04  0.00000000000E+00 0. -1.
         -2   -1    0    0    0  501 -0.00000000000E+00 -0.00000000000E+00 -0.52216537804E+03  0.52216537804E+03  0.00000000000E+00 0.  1.
         23    2    1    2    0    0 -0.84555180828E+03 -0.10915388895E+03  0.17878674366E+04  0.19822964948E+04  0.78466494517E+02 0.  0.
        254    2    1    2    0    0  0.84555180828E+03  0.10915388895E+03  0.47980473843E+03  0.13297064362E+04  0.90057436538E+03 0.  0.
        -24    2    4    4    0    0  0.95541152646E+02  0.58344812280E+02  0.55353294950E+03  0.57027551127E+03  0.79266661335E+02 0.  0.
         24    2    4    4    0    0  0.75001065564E+03  0.50809076668E+02 -0.73728211073E+02  0.75943092496E+03  0.78752364046E+02 0.  0.
         13    1    3    3    0    0 -0.78224539589E+03 -0.90923235913E+02  0.16878980935E+04  0.18625721109E+04  0.00000000000E+00 0. -1.
        -13    1    3    3    0    0 -0.63306412391E+02 -0.18230653035E+02  0.99969343094E+02  0.11972438398E+03  0.00000000000E+00 0.  1.
          2    1    6    6  502    0  0.35123716985E+03 -0.72766647688E+01 -0.58592376195E+02  0.35616508235E+03  0.00000000000E+00 0. -1.
          3    1    5    5  503    0  0.26152240268E+02  0.38465384558E+02  0.91557150163E+02  0.10269487439E+03  0.00000000000E+00 0. -1.
         -4    1    5    5    0  503  0.69388912378E+02  0.19879427721E+02  0.46197579934E+03  0.46758063688E+03  0.00000000000E+00 0.  1.
         -1    1    6    6    0  502  0.39877348579E+03  0.58085741437E+02 -0.15135834878E+02  0.40326584262E+03  0.00000000000E+00 0.  1.
<mgrwt>
<rscale>  0 0.24139234E+04</rscale>
<asrwt>0</asrwt>
<pdfrwt beam="1">  1        2 0.42920577E+00 0.24139234E+04</pdfrwt>
<pdfrwt beam="2">  1       -2 0.80333137E-01 0.24139234E+04</pdfrwt>
<totfact> 0.28851620E+00</totfact>
</mgrwt>
</event>
<event>
12    1  0.2083715E-007  0.2634164E+04  0.7818608E-02  0.8356688E-01
         -2   -1    0    0    0  501 -0.00000000000E+00  0.00000000000E+00  0.73231378089E+03  0.73231378089E+03  0.00000000000E+00 0.  1.
          2   -1    0    0  501    0  0.00000000000E+00 -0.00000000000E+00 -0.23687996497E+04  0.23687996497E+04  0.00000000000E+00 0. -1.
         23    2    1    2    0    0  0.86478931871E+03 -0.57509512296E+03 -0.10391797540E+03  0.10478451293E+04  0.92657990275E+02 0.  0.
        254    2    1    2    0    0 -0.86478931871E+03  0.57509512296E+03 -0.15325678935E+04  0.20532683013E+04  0.88800416839E+03 0.  0.
        -24    2    4    4    0    0 -0.55599419334E+03  0.74477302896E+03 -0.77056454158E+03  0.12101094490E+04  0.82333213353E+02 0.  0.
         24    2    4    4    0    0 -0.30879512537E+03 -0.16967790600E+03 -0.76200335187E+03  0.84315885239E+03  0.78247816998E+02 0.  0.
         13    1    3    3    0    0  0.50810226752E+03 -0.39201436938E+03 -0.64263596482E+02  0.64495968083E+03  0.00000000000E+00 0. -1.
        -13    1    3    3    0    0  0.35668705118E+03 -0.18308075358E+03 -0.39654378921E+02  0.40288544846E+03  0.00000000000E+00 0.  1.
          2    1    6    6  502    0 -0.21486892244E+03 -0.96911868366E+02 -0.42744561368E+03  0.48812940571E+03  0.00000000000E+00 0. -1.
          3    1    5    5  503    0 -0.38693117166E+03  0.54505794509E+03 -0.59604171912E+03  0.89558339982E+03  0.00000000000E+00 0. -1.
         -4    1    5    5    0  503 -0.16906302168E+03  0.19971508387E+03 -0.17452282247E+03  0.31452604914E+03  0.00000000000E+00 0.  1.
         -1    1    6    6    0  502 -0.93926202931E+02 -0.72766037636E+02 -0.33455773819E+03  0.35502944668E+03  0.00000000000E+00 0.  1.
<mgrwt>
<rscale>  0 0.26341637E+04</rscale>
<asrwt>0</asrwt>
<pdfrwt beam="1">  1        2 0.36443072E+00 0.26341637E+04</pdfrwt>
<pdfrwt beam="2">  1       -2 0.11266366E+00 0.26341637E+04</pdfrwt>
<totfact> 0.22647146E+00</totfact>
</mgrwt>
</event>
<event>
12    1  0.2083715E-007  0.2232524E+04  0.7818608E-02  0.8505012E-01
         -2   -1    0    0    0  501 -0.00000000000E+00  0.00000000000E+00  0.48718495682E+03  0.48718495682E+03  0.00000000000E+00 0. -1.
          2   -1    0    0  501    0  0.00000000000E+00 -0.00000000000E+00 -0.25576333742E+04  0.25576333742E+04  0.00000000000E+00 0.  1.
         23    2    1    2    0    0 -0.55665809203E+03 -0.64251914439E+03 -0.13932997709E+04  0.16345412580E+04  0.87987443691E+02 0.  0.
        254    2    1    2    0    0  0.55665809203E+03  0.64251914439E+03 -0.67714864648E+03  0.14102770730E+04  0.89869463716E+03 0.  0.
        -24    2    4    4    0    0  0.27596111992E+03 -0.11586419202E+03  0.57321007797E+02  0.31491586565E+03  0.79418220830E+02 0.  0.
         24    2    4    4    0    0  0.28069697211E+03  0.75838333641E+03 -0.73446965428E+03  0.10953612074E+04  0.80214876599E+02 0.  0.
         11    1    3    3    0    0 -0.12374212461E+03 -0.19382434183E+03 -0.33774864847E+03  0.40860021834E+03  0.00000000000E+00 0.  1.
        -11    1    3    3    0    0 -0.43291596742E+03 -0.44869480256E+03 -0.10555511224E+04  0.12259410397E+04  0.00000000000E+00 0. -1.
          4    1    6    6  502    0  0.26635319128E+02  0.10812008443E+03 -0.69781363863E+02  0.13141092658E+03  0.00000000000E+00 0. -1.
          1    1    5    5  503    0  0.11677343862E+03 -0.87553755495E+01  0.31926586499E+02  0.12137544848E+03  0.00000000000E+00 0. -1.
         -2    1    5    5    0  503  0.15918768130E+03 -0.10710881647E+03  0.25394421299E+02  0.19354041717E+03  0.00000000000E+00 0.  1.
         -3    1    6    6    0  502  0.25406165298E+03  0.65026325198E+03 -0.66468829041E+03  0.96395028077E+03  0.00000000000E+00 0.  1.
<mgrwt>
<rscale>  0 0.22325237E+04</rscale>
<asrwt>0</asrwt>
<pdfrwt beam="1">  1        2 0.39348206E+00 0.22325237E+04</pdfrwt>
<pdfrwt beam="2">  1       -2 0.74951532E-01 0.22325237E+04</pdfrwt>
<totfact> 0.46978353E+00</totfact>
</mgrwt>
</event>
<event>
12    1  0.2083715E-007  0.1870276E+04  0.7818608E-02  0.8669795E-01
         -1   -1    0    0    0  501 -0.00000000000E+00  0.00000000000E+00  0.65247400013E+03  0.65247400013E+03  0.00000000000E+00 0.  1.
          1   -1    0    0  501    0  0.00000000000E+00 -0.00000000000E+00 -0.13402570696E+04  0.13402570696E+04  0.00000000000E+00 0. -1.
         23    2    1    2    0    0  0.20342459391E+03  0.55142693688E+03 -0.69859515775E+03  0.91744717758E+03  0.90669162896E+02 0.  0.
        254    2    1    2    0    0 -0.20342459391E+03 -0.55142693688E+03  0.10812088292E+02  0.10752838921E+04  0.90036954374E+03 0.  0.
        -24    2    4    4    0    0 -0.22722115595E+03  0.16380845306E+02  0.33730974281E+03  0.41493783700E+03  0.80608685500E+02 0.  0.
         24    2    4    4    0    0  0.23796562039E+02 -0.56780778219E+03 -0.32649765452E+03  0.66034605513E+03  0.80524780275E+02 0.  0.
         11    1    3    3    0    0  0.14278765691E+03  0.35638876451E+03 -0.51829587679E+03  0.64500533512E+03  0.00000000000E+00 0. -1.
        -11    1    3    3    0    0  0.60636937001E+02  0.19503817237E+03 -0.18029928096E+03  0.27244184246E+03  0.00000000000E+00 0.  1.
          4    1    6    6  502    0  0.19804711382E+02 -0.19372423518E+03 -0.70794962645E+02  0.20720336056E+03  0.00000000000E+00 0. -1.
          1    1    5    5  503    0 -0.89136365017E+02 -0.15980836013E+02  0.78634934280E+02  0.11993386335E+03  0.00000000000E+00 0. -1.
         -2    1    5    5    0  503 -0.13808479093E+03  0.32361681319E+02  0.25867480853E+03  0.29500397365E+03  0.00000000000E+00 0.  1.
         -3    1    6    6    0  502  0.39918506565E+01 -0.37408354701E+03 -0.25570269187E+03  0.45314269457E+03  0.00000000000E+00 0.  1.
<mgrwt>
<rscale>  0 0.18702758E+04</rscale>
<asrwt>0</asrwt>
<pdfrwt beam="1">  1        1 0.20619340E+00 0.18702758E+04</pdfrwt>
<pdfrwt beam="2">  1       -1 0.10038061E+00 0.18702758E+04</pdfrwt>
<totfact> 0.75042932E+00</totfact>
</mgrwt>
</event>
<event>
12    1  0.2083715E-007  0.1595183E+04  0.7818608E-02  0.8823513E-01
          2   -1    0    0  501    0  0.00000000000E+00  0.00000000000E+00  0.25122405453E+04  0.25122405453E+04  0.00000000000E+00 0. -1.
         -2   -1    0    0    0  501 -0.00000000000E+00 -0.00000000000E+00 -0.25322097735E+03  0.25322097735E+03  0.00000000000E+00 0.  1.
         23    2    1    2    0    0  0.26029096054E+03 -0.77520077552E+02  0.15793990330E+04  0.16052694048E+04  0.92886006414E+02 0.  0.
        254    2    1    2    0    0 -0.26029096054E+03  0.77520077552E+02  0.67962053496E+03  0.11601921178E+04  0.90022271250E+03 0.  0.
        -24    2    4    4    0    0 -0.38398533477E+03  0.28570974374E+03  0.75213452024E+03  0.89506909908E+03  0.79796996241E+02 0.  0.
         24    2    4    4    0    0  0.12369437424E+03 -0.20818966619E+03 -0.72513985273E+02  0.26512301872E+03  0.79929354262E+02 0.  0.
         11    1    3    3    0    0  0.50689112192E+02  0.38659710610E+01  0.15215897230E+03  0.16042657099E+03  0.00000000000E+00 0.  1.
        -11    1    3    3    0    0  0.20960184834E+03 -0.81386048612E+02  0.14272400607E+04  0.14448428338E+04  0.00000000000E+00 0. -1.
          2    1    6    6  502    0 -0.77449831792E+01 -0.15554347642E+01  0.35863689241E+01  0.86756085557E+01  0.00000000000E+00 0. -1.
          1    1    5    5  503    0 -0.75129055945E+01  0.55292191269E+01  0.99504419459E+00  0.93811581148E+01  0.00000000000E+00 0. -1.
         -2    1    5    5    0  503 -0.37647242918E+03  0.28018052461E+03  0.75113947604E+03  0.88568794096E+03  0.00000000000E+00 0.  1.
         -1    1    6    6    0  502  0.13143935741E+03 -0.20663423142E+03 -0.76100354198E+02  0.25644741017E+03  0.00000000000E+00 0.  1.
<mgrwt>
<rscale>  0 0.15951828E+04</rscale>
<asrwt>0</asrwt>
<pdfrwt beam="1">  1        2 0.38649853E+00 0.15951828E+04</pdfrwt>
<pdfrwt beam="2">  1       -2 0.38957075E-01 0.15951828E+04</pdfrwt>
<totfact> 0.20505932E+01</totfact>
</mgrwt>
</event>
<event>
12    1  0.2083715E-007  0.1442217E+04  0.7818608E-02  0.8923814E-01
          2   -1    0    0  501    0  0.00000000000E+00  0.00000000000E+00  0.14123663664E+04  0.14123663664E+04  0.00000000000E+00 0. -1.
         -2   -1    0    0    0  501 -0.00000000000E+00 -0.00000000000E+00 -0.36817449297E+03  0.36817449297E+03  0.00000000000E+00 0.  1.
         23    2    1    2    0    0 -0.24100740763E+03  0.26962653283E+03  0.14422427295E+02  0.37254516634E+03  0.88311136411E+02 0.  0.
        254    2    1    2    0    0  0.24100740763E+03 -0.26962653283E+03  0.10297694462E+04  0.14079956931E+04  0.88951881469E+03 0.  0.
        -24    2    4    4    0    0  0.30610236269E+03 -0.52160636714E+03  0.94153954487E+03  0.11218914259E+04  0.79823544212E+02 0.  0.
         24    2    4    4    0    0 -0.65094955060E+02  0.25197983431E+03  0.88229901282E+02  0.28610426718E+03  0.79623778769E+02 0.  0.
         11    1    3    3    0    0 -0.24109433830E+03  0.23731943126E+03  0.31093262316E+01  0.33831444001E+03  0.00000000000E+00 0. -1.
        -11    1    3    3    0    0  0.86930670733E-01  0.32307101571E+02  0.11313101063E+02  0.34230726322E+02  0.00000000000E+00 0.  1.
          2    1    6    6  502    0 -0.79124282629E+02  0.24119061481E+03  0.77489390700E+02  0.26540190362E+03  0.00000000000E+00 0. -1.
          1    1    5    5  503    0  0.30910099264E+03 -0.50558178338E+03  0.90336792102E+03  0.10803841743E+04  0.00000000000E+00 0. -1.
         -2    1    5    5    0  503 -0.29986299523E+01 -0.16024583752E+02  0.38171623853E+02  0.41507251579E+02  0.00000000000E+00 0.  1.
         -3    1    6    6    0  502  0.14029327569E+02  0.10789219500E+02  0.10740510582E+02  0.20702363561E+02  0.00000000000E+00 0.  1.
<mgrwt>
<rscale>  0 0.14422167E+04</rscale>
<asrwt>0</asrwt>
<pdfrwt beam="1">  1        2 0.21728713E+00 0.14422167E+04</pdfrwt>
<pdfrwt beam="2">  1       -2 0.56642230E-01 0.14422167E+04</pdfrwt>
<totfact> 0.40383620E+01</totfact>
</mgrwt>
</event>
<event>
12    1  0.2083715E-007  0.1254902E+04  0.7818608E-02  0.9066113E-01
          2   -1    0    0  501    0  0.00000000000E+00  0.00000000000E+00  0.63846994309E+03  0.63846994309E+03  0.00000000000E+00 0. -1.
         -2   -1    0    0    0  501 -0.00000000000E+00 -0.00000000000E+00 -0.61662220015E+03  0.61662220015E+03  0.00000000000E+00 0.  1.
         23    2    1    2    0    0 -0.14793638178E+03  0.24860541291E+03 -0.50184554894E+02  0.30702964719E+03  0.89771322383E+02 0.  0.
        254    2    1    2    0    0  0.14793638178E+03 -0.24860541291E+03  0.72032297841E+02  0.94806249605E+03  0.89996889952E+03 0.  0.
        -24    2    4    4    0    0  0.27522736874E+02 -0.24961515175E+03  0.46207416591E+03  0.53208234401E+03  0.80832301563E+02 0.  0.
         24    2    4    4    0    0  0.12041364491E+03  0.10097388401E+01 -0.39004186807E+03  0.41598015205E+03  0.80039756356E+02 0.  0.
         11    1    3    3    0    0 -0.67386637063E+02  0.90965683638E+02  0.22917627394E+02  0.11550295278E+03  0.00000000000E+00 0. -1.
        -11    1    3    3    0    0 -0.80549744719E+02  0.15763972927E+03 -0.73102182289E+02  0.19152669442E+03  0.00000000000E+00 0.  1.
          4    1    6    6  502    0  0.10138853342E+02  0.29054053189E+02 -0.86813436774E+02  0.92105956150E+02  0.00000000000E+00 0. -1.
          3    1    5    5  503    0  0.19485260297E+01 -0.13248942772E+03  0.16424590255E+03  0.21103071273E+03  0.00000000000E+00 0. -1.
         -4    1    5    5    0  503  0.25574210844E+02 -0.11712572403E+03  0.29782826336E+03  0.32105163128E+03  0.00000000000E+00 0.  1.
         -3    1    6    6    0  502  0.11027479157E+03 -0.28044314349E+02 -0.30322843129E+03  0.32387419590E+03  0.00000000000E+00 0.  1.
<mgrwt>
<rscale>  0 0.12549020E+04</rscale>
<asrwt>0</asrwt>
<pdfrwt beam="1">  1        2 0.98226145E-01 0.12549020E+04</pdfrwt>
<pdfrwt beam="2">  1       -2 0.94864954E-01 0.12549020E+04</pdfrwt>
<totfact> 0.42276917E+01</totfact>
</mgrwt>
</event>
<event>
12    1  0.2083715E-007  0.2118812E+04  0.7818608E-02  0.8553002E-01
         -2   -1    0    0    0  501 -0.00000000000E+00  0.00000000000E+00  0.46907755014E+03  0.46907755014E+03  0.00000000000E+00 0. -1.
          2   -1    0    0  501    0  0.00000000000E+00 -0.00000000000E+00 -0.23926555977E+04  0.23926555977E+04  0.00000000000E+00 0.  1.
         23    2    1    2    0    0 -0.79092739118E+03  0.98587158822E+01 -0.12476016159E+04  0.14800195527E+04  0.91020612366E+02 0.  0.
        254    2    1    2    0    0  0.79092739118E+03 -0.98587158822E+01 -0.67597643160E+03  0.13817135951E+04  0.90913419827E+03 0.  0.
        -24    2    4    4    0    0  0.55880602210E+03  0.41337422755E+03 -0.50461117421E+03  0.86334961510E+03  0.87164777416E+02 0.  0.
         24    2    4    4    0    0  0.23212136908E+03 -0.42323294343E+03 -0.17136525740E+03  0.51836398002E+03  0.79553189460E+02 0.  0.
         11    1    3    3    0    0 -0.27513350109E+03  0.44505905665E+02 -0.41121164413E+03  0.49676376209E+03  0.00000000000E+00 0. -1.
        -11    1    3    3    0    0 -0.51579389009E+03 -0.34647189783E+02 -0.83638997179E+03  0.98325579059E+03  0.00000000000E+00 0.  1.
          2    1    6    6  502    0  0.21930996171E+03 -0.37778594531E+03 -0.17593110336E+03  0.47092550675E+03  0.00000000000E+00 0. -1.
          3    1    5    5  503    0  0.54337951481E+03  0.38078326840E+03 -0.46798353366E+03  0.81195183501E+03  0.00000000000E+00 0. -1.
         -2    1    5    5    0  503  0.15426507288E+02  0.32590959149E+02 -0.36627640550E+02  0.51397780085E+02  0.00000000000E+00 0.  1.
         -1    1    6    6    0  502  0.12811407375E+02 -0.45446998120E+02  0.45658459652E+01  0.47438473273E+02  0.00000000000E+00 0.  1.
<mgrwt>
<rscale>  0 0.21188120E+04</rscale>
<asrwt>0</asrwt>
<pdfrwt beam="1">  1        2 0.36810086E+00 0.21188120E+04</pdfrwt>
<pdfrwt beam="2">  1       -2 0.72165777E-01 0.21188120E+04</pdfrwt>
<totfact> 0.64228412E+00</totfact>
</mgrwt>
</event>
<event>
12    1  0.2083715E-007  0.2442425E+04  0.7818608E-02  0.8423789E-01
          2   -1    0    0  501    0  0.00000000000E+00  0.00000000000E+00  0.27317600692E+04  0.27317600692E+04  0.00000000000E+00 0. -1.
         -2   -1    0    0    0  501 -0.00000000000E+00 -0.00000000000E+00 -0.54593353615E+03  0.54593353615E+03  0.00000000000E+00 0.  1.
         23    2    1    2    0    0  0.85537599693E+03  0.29102605342E+03  0.22021028843E+03  0.93438429292E+03  0.90648639527E+02 0.  0.
        254    2    1    2    0    0 -0.85537599693E+03 -0.29102605342E+03  0.19656162447E+04  0.23433093124E+04  0.90060371566E+03 0.  0.
        -24    2    4    4    0    0 -0.92586112817E+03 -0.35506271291E+03  0.19815099345E+04  0.22176077642E+04  0.90078946914E+02 0.  0.
         24    2    4    4    0    0  0.70485131237E+02  0.64036659491E+02 -0.15893689806E+02  0.12570154826E+03  0.80494859307E+02 0.  0.
         13    1    3    3    0    0  0.74769369311E+03  0.27219630295E+03  0.21809852849E+03  0.82504766782E+03  0.00000000000E+00 0. -1.
        -13    1    3    3    0    0  0.10768230382E+03  0.18829750468E+02  0.21117599418E+01  0.10933662510E+03  0.00000000000E+00 0.  1.
          4    1    6    6  502    0  0.13940744912E+02 -0.75005572132E+01 -0.29526350220E+02  0.33502359387E+02  0.00000000000E+00 0. -1.
          3    1    5    5  503    0 -0.10650065714E+03 -0.32271760010E+02  0.28918999197E+03  0.30986240159E+03  0.00000000000E+00 0. -1.
         -4    1    5    5    0  503 -0.81936047103E+03 -0.32279095290E+03  0.16923199425E+04  0.19077453626E+04  0.00000000000E+00 0.  1.
         -3    1    6    6    0  502  0.56544386326E+02  0.71537216704E+02  0.13632660414E+02  0.92199188872E+02  0.00000000000E+00 0.  1.
<mgrwt>
<rscale>  0 0.24424246E+04</rscale>
<asrwt>0</asrwt>
<pdfrwt beam="1">  1        2 0.42027077E+00 0.24424246E+04</pdfrwt>
<pdfrwt beam="2">  1       -2 0.83989777E-01 0.24424246E+04</pdfrwt>
<totfact> 0.28203184E+00</totfact>
</mgrwt>
</event>
<event>
12    1  0.2083715E-007  0.1814528E+04  0.7818608E-02  0.8698612E-01
          2   -1    0    0  501    0  0.00000000000E+00  0.00000000000E+00  0.94605388599E+03  0.94605388599E+03  0.00000000000E+00 0.  1.
         -2   -1    0    0    0  501 -0.00000000000E+00 -0.00000000000E+00 -0.87006417443E+03  0.87006417443E+03  0.00000000000E+00 0. -1.
         23    2    1    2    0    0  0.17173049332E+03 -0.44254337847E+03 -0.45897613816E+03  0.66649805753E+03  0.90689366137E+02 0.  0.
        254    2    1    2    0    0 -0.17173049332E+03  0.44254337847E+03  0.53496584972E+03  0.11496200029E+04  0.90005649074E+03 0.  0.
        -24    2    4    4    0    0 -0.23865896408E+03 -0.13797614694E+03  0.47663845844E+03  0.55678642005E+03  0.82652158069E+02 0.  0.
         24    2    4    4    0    0  0.66928470766E+02  0.58051952541E+03  0.58327391287E+02  0.59283358284E+03  0.81038464879E+02 0.  0.
         11    1    3    3    0    0  0.10288314837E+03 -0.24720315934E+03 -0.31917544461E+03  0.41661410040E+03  0.00000000000E+00 0. -1.
        -11    1    3    3    0    0  0.68847344944E+02 -0.19534021913E+03 -0.13980069354E+03  0.24988395713E+03  0.00000000000E+00 0.  1.
          4    1    6    6  502    0 -0.84461417067E+01  0.14842711492E+03 -0.96490224133E+01  0.14898003016E+03  0.00000000000E+00 0. -1.
          1    1    5    5  503    0 -0.15372992735E+03 -0.11259126092E+03  0.38337135542E+03  0.42811596414E+03  0.00000000000E+00 0. -1.
         -2    1    5    5    0  503 -0.84929036735E+02 -0.25384886015E+02  0.93267103020E+02  0.12867045591E+03  0.00000000000E+00 0.  1.
         -3    1    6    6    0  502  0.75374612472E+02  0.43209241049E+03  0.67976413700E+02  0.44385355268E+03  0.00000000000E+00 0.  1.
<mgrwt>
<rscale>  0 0.18145276E+04</rscale>
<asrwt>0</asrwt>
<pdfrwt beam="1">  1        2 0.14554675E+00 0.18145276E+04</pdfrwt>
<pdfrwt beam="2">  1       -2 0.13385603E+00 0.18145276E+04</pdfrwt>
<totfact> 0.10383613E+01</totfact>
</mgrwt>
</event>
<event>
12    1  0.2083715E-007  0.1955962E+04  0.7818608E-02  0.8627491E-01
         -1   -1    0    0    0  501 -0.00000000000E+00  0.00000000000E+00  0.45584219466E+03  0.45584219466E+03  0.00000000000E+00 0.  1.
          1   -1    0    0  501    0  0.00000000000E+00 -0.00000000000E+00 -0.20981963174E+04  0.20981963174E+04  0.00000000000E+00 0. -1.
         23    2    1    2    0    0  0.62741736533E+03  0.40944526847E+03 -0.86439720015E+03  0.11479960876E+04  0.97028445612E+02 0.  0.
        254    2    1    2    0    0 -0.62741736533E+03 -0.40944526847E+03 -0.77795692257E+03  0.14060424245E+04  0.90024460446E+03 0.  0.
        -24    2    4    4    0    0 -0.50844081033E+03 -0.65488901477E+03 -0.74952296889E+03  0.11204014872E+04  0.78250446108E+02 0.  0.
         24    2    4    4    0    0 -0.11897655499E+03  0.24544374629E+03 -0.28433953686E+02  0.28564093729E+03  0.79901202143E+02 0.  0.
         13    1    3    3    0    0  0.29797530440E+03  0.20632240452E+03 -0.49035878407E+03  0.60976221083E+03  0.00000000000E+00 0. -1.
        -13    1    3    3    0    0  0.32944206093E+03  0.20312286396E+03 -0.37403841608E+03  0.53823387674E+03  0.00000000000E+00 0.  1.
          4    1    6    6  502    0 -0.74506284185E+02  0.22001657597E+03 -0.15495988012E+02  0.23280594007E+03  0.00000000000E+00 0. -1.
          1    1    5    5  503    0  0.26659696115E+01 -0.38363665732E+01 -0.71937659664E+01  0.85776087129E+01  0.00000000000E+00 0. -1.
         -2    1    5    5    0  503 -0.51110677995E+03 -0.65105264819E+03 -0.74232920292E+03  0.11118238785E+04  0.00000000000E+00 0.  1.
         -1    1    6    6    0  502 -0.44470270808E+02  0.25427170320E+02 -0.12937965675E+02  0.52834997227E+02  0.00000000000E+00 0.  1.
<mgrwt>
<rscale>  0 0.19559616E+04</rscale>
<asrwt>0</asrwt>
<pdfrwt beam="1">  1        1 0.32279943E+00 0.19559616E+04</pdfrwt>
<pdfrwt beam="2">  1       -1 0.70129569E-01 0.19559616E+04</pdfrwt>
<totfact> 0.48914166E+00</totfact>
</mgrwt>
</event>
<event>
12    1  0.2083715E-007  0.1322475E+04  0.7818608E-02  0.9011930E-01
          2   -1    0    0  501    0  0.00000000000E+00  0.00000000000E+00  0.11880620683E+04  0.11880620683E+04  0.00000000000E+00 0. -1.
         -2   -1    0    0    0  501 -0.00000000000E+00 -0.00000000000E+00 -0.36802358021E+03  0.36802358021E+03  0.00000000000E+00 0.  1.
         23    2    1    2    0    0 -0.24397855476E+03 -0.24677733478E+03  0.23781030841E+03  0.42988994060E+03  0.88470504115E+02 0.  0.
        254    2    1    2    0    0  0.24397855476E+03  0.24677733478E+03  0.58222817970E+03  0.11261957079E+04  0.89939008845E+03 0.  0.
        -24    2    4    4    0    0  0.34694644722E+03  0.53040712394E+03  0.47073202423E+03  0.79408502461E+03  0.85316078863E+02 0.  0.
         24    2    4    4    0    0 -0.10296789247E+03 -0.28362978916E+03  0.11149615547E+03  0.33211068333E+03  0.82570388853E+02 0.  0.
         13    1    3    3    0    0 -0.19660227259E+03 -0.16466897270E+03  0.13415320044E+03  0.28942253773E+03  0.00000000000E+00 0.  1.
        -13    1    3    3    0    0 -0.47376282166E+02 -0.82108362080E+02  0.10365710797E+03  0.14046740287E+03  0.00000000000E+00 0. -1.
          2    1    6    6  502    0 -0.36009069616E+02 -0.23390663825E+02  0.56873207632E+01  0.43314222448E+02  0.00000000000E+00 0. -1.
          1    1    5    5  503    0  0.16743959729E+03  0.18150086410E+03  0.19161490967E+03  0.31256176352E+03  0.00000000000E+00 0. -1.
         -2    1    5    5    0  503  0.17950684993E+03  0.34890625984E+03  0.27911711456E+03  0.48152326109E+03  0.00000000000E+00 0.  1.
         -1    1    6    6    0  502 -0.66958822849E+02 -0.26023912534E+03  0.10580883471E+03  0.28879646088E+03  0.00000000000E+00 0.  1.
<mgrwt>
<rscale>  0 0.13224747E+04</rscale>
<asrwt>0</asrwt>
<pdfrwt beam="1">  1        2 0.18277878E+00 0.13224747E+04</pdfrwt>
<pdfrwt beam="2">  1       -2 0.56619013E-01 0.13224747E+04</pdfrwt>
<totfact> 0.55140418E+01</totfact>
</mgrwt>
</event>
<event>
12    1  0.2083715E-007  0.2013986E+04  0.7818608E-02  0.8600109E-01
         -2   -1    0    0    0  501 -0.00000000000E+00  0.00000000000E+00  0.12935302898E+04  0.12935302898E+04  0.00000000000E+00 0. -1.
          2   -1    0    0  501    0  0.00000000000E+00 -0.00000000000E+00 -0.78392843498E+03  0.78392843498E+03  0.00000000000E+00 0.  1.
         23    2    1    2    0    0  0.60915475114E+03  0.46991886671E+03  0.44242361853E+03  0.89210892751E+03  0.90699659205E+02 0.  0.
        254    2    1    2    0    0 -0.60915475114E+03 -0.46991886671E+03  0.67178236315E+02  0.11853497973E+04  0.89924856095E+03 0.  0.
        -24    2    4    4    0    0 -0.62101504231E+03 -0.53166763446E+03 -0.24555960515E+03  0.85678957419E+03  0.73883005228E+02 0.  0.
         24    2    4    4    0    0  0.11860291168E+02  0.61748767748E+02  0.31273784147E+03  0.32856022310E+03  0.78697432564E+02 0.  0.
         13    1    3    3    0    0  0.28983208269E+03  0.22773599968E+03  0.16004547828E+03  0.40184683254E+03  0.00000000000E+00 0.  1.
        -13    1    3    3    0    0  0.31932266845E+03  0.24218286704E+03  0.28237814025E+03  0.49026209497E+03  0.00000000000E+00 0. -1.
          2    1    6    6  502    0 -0.31412674751E+02  0.33487409872E+02  0.10710671796E+03  0.11653330763E+03  0.00000000000E+00 0. -1.
          3    1    5    5  503    0 -0.14682298590E+03 -0.16697267524E+03 -0.76664885618E+02  0.23519006814E+03  0.00000000000E+00 0. -1.
         -4    1    5    5    0  503 -0.47419205640E+03 -0.36469495922E+03 -0.16889471953E+03  0.62159950605E+03  0.00000000000E+00 0.  1.
         -1    1    6    6    0  502  0.43272965919E+02  0.28261357876E+02  0.20563112351E+03  0.21202691547E+03  0.00000000000E+00 0.  1.
<mgrwt>
<rscale>  0 0.20139863E+04</rscale>
<asrwt>0</asrwt>
<pdfrwt beam="1">  1        2 0.12060437E+00 0.20139863E+04</pdfrwt>
<pdfrwt beam="2">  1       -2 0.19900466E+00 0.20139863E+04</pdfrwt>
<totfact> 0.44316326E+00</totfact>
</mgrwt>
</event>
<event>
12    1  0.2083715E-007  0.1888953E+04  0.7818608E-02  0.8660375E-01
         -1   -1    0    0    0  501 -0.00000000000E+00  0.00000000000E+00  0.42099370140E+03  0.42099370140E+03  0.00000000000E+00 0.  1.
          1   -1    0    0  501    0  0.00000000000E+00 -0.00000000000E+00 -0.21188809998E+04  0.21188809998E+04  0.00000000000E+00 0. -1.
         23    2    1    2    0    0  0.68071783317E+03 -0.24368399583E+03 -0.78341385208E+03  0.10700683465E+04  0.92468072231E+02 0.  0.
        254    2    1    2    0    0 -0.68071783317E+03  0.24368399583E+03 -0.91447344628E+03  0.14698063546E+04  0.89515941482E+03 0.  0.
        -24    2    4    4    0    0 -0.47586671763E+03  0.49886092402E+03 -0.89411383699E+03  0.11319163115E+04  0.80520980735E+02 0.  0.
         24    2    4    4    0    0 -0.20485111554E+03 -0.25517692819E+03 -0.20359609292E+02  0.33789004311E+03  0.81706323640E+02 0.  0.
         13    1    3    3    0    0  0.33454680768E+03 -0.15873751431E+03 -0.44039832763E+03  0.57538669776E+03  0.00000000000E+00 0. -1.
        -13    1    3    3    0    0  0.34617102549E+03 -0.84946481516E+02 -0.34301552445E+03  0.49468164877E+03  0.00000000000E+00 0.  1.
          2    1    6    6  502    0 -0.89966891581E+02 -0.65622145430E+02  0.18425474816E+02  0.11287074764E+03  0.00000000000E+00 0. -1.
          1    1    5    5  503    0 -0.71708341964E+02  0.38195286006E+02 -0.10073379267E+03  0.12941508090E+03  0.00000000000E+00 0. -1.
         -2    1    5    5    0  503 -0.40415837567E+03  0.46066563801E+03 -0.79338004432E+03  0.10025012306E+04  0.00000000000E+00 0.  1.
         -1    1    6    6    0  502 -0.11488422396E+03 -0.18955478276E+03 -0.38785084108E+02  0.22501929546E+03  0.00000000000E+00 0.  1.
<mgrwt>
<rscale>  0 0.18889527E+04</rscale>
<asrwt>0</asrwt>
<pdfrwt beam="1">  1        1 0.32598169E+00 0.18889527E+04</pdfrwt>
<pdfrwt beam="2">  1       -1 0.64768263E-01 0.18889527E+04</pdfrwt>
<totfact> 0.56011739E+00</totfact>
</mgrwt>
</event>
<event>
12    1  0.2083715E-007  0.1708681E+04  0.7818608E-02  0.8756429E-01
          1   -1    0    0  501    0  0.00000000000E+00  0.00000000000E+00  0.22646591530E+04  0.22646591530E+04  0.00000000000E+00 0. -1.
         -1   -1    0    0    0  501 -0.00000000000E+00 -0.00000000000E+00 -0.32229896359E+03  0.32229896359E+03  0.00000000000E+00 0.  1.
         23    2    1    2    0    0 -0.20836746044E+03 -0.57499240364E+03  0.77451423422E+03  0.99162522351E+03  0.97031036711E+02 0.  0.
        254    2    1    2    0    0  0.20836746044E+03  0.57499240364E+03  0.11678459552E+04  0.15953328930E+04  0.89843731101E+03 0.  0.
        -24    2    4    4    0    0 -0.34546407740E+03  0.21344496137E+03  0.36203801224E+03  0.54984216609E+03  0.79691310675E+02 0.  0.
         24    2    4    4    0    0  0.55383153784E+03  0.36154744226E+03  0.80580794293E+03  0.10454907270E+04  0.79236948168E+02 0.  0.
         13    1    3    3    0    0 -0.14931648995E+03 -0.45391401895E+03  0.53907628893E+03  0.72037253977E+03  0.00000000000E+00 0.  1.
        -13    1    3    3    0    0 -0.59050970495E+02 -0.12107838469E+03  0.23543794529E+03  0.27125268374E+03  0.00000000000E+00 0. -1.
          2    1    6    6  502    0  0.72862893199E+02  0.63263455129E+02  0.15943533555E+03  0.18636226062E+03  0.00000000000E+00 0. -1.
          1    1    5    5  503    0 -0.17414610964E+03  0.86236939617E+02  0.12575541439E+03  0.23146943968E+03  0.00000000000E+00 0. -1.
         -2    1    5    5    0  503 -0.17131796775E+03  0.12720802176E+03  0.23628259785E+03  0.31837272641E+03  0.00000000000E+00 0.  1.
         -1    1    6    6    0  502  0.48096864464E+03  0.29828398714E+03  0.64637260738E+03  0.85912846634E+03  0.00000000000E+00 0.  1.
<mgrwt>
<rscale>  0 0.17086805E+04</rscale>
<asrwt>0</asrwt>
<pdfrwt beam="1">  1        1 0.34840909E+00 0.17086805E+04</pdfrwt>
<pdfrwt beam="2">  1       -1 0.49584458E-01 0.17086805E+04</pdfrwt>
<totfact> 0.76372869E+00</totfact>
</mgrwt>
</event>
<event>
12    1  0.2083715E-007  0.1731389E+04  0.7818608E-02  0.8743662E-01
          1   -1    0    0  501    0  0.00000000000E+00  0.00000000000E+00  0.49819219472E+03  0.49819219472E+03  0.00000000000E+00 0. -1.
         -1   -1    0    0    0  501 -0.00000000000E+00 -0.00000000000E+00 -0.15042928635E+04  0.15042928635E+04  0.00000000000E+00 0.  1.
         23    2    1    2    0    0 -0.34794562077E+03 -0.40022632522E+03  0.21622589537E+02  0.53878266464E+03  0.92584863426E+02 0.  0.
        254    2    1    2    0    0  0.34794562077E+03  0.40022632522E+03 -0.10277232584E+04  0.14637023936E+04  0.89719693205E+03 0.  0.
        -24    2    4    4    0    0  0.42061841126E+03  0.62810015013E+03 -0.90981171081E+03  0.11853046829E+04  0.75895953537E+02 0.  0.
         24    2    4    4    0    0 -0.72672790498E+02 -0.22787382491E+03 -0.11791154755E+03  0.27839771068E+03  0.79964602853E+02 0.  0.
         11    1    3    3    0    0 -0.10282289837E+03 -0.10492445901E+03 -0.34541310478E+02  0.15091319577E+03  0.00000000000E+00 0.  1.
        -11    1    3    3    0    0 -0.24512272240E+03 -0.29530186621E+03  0.56163900015E+02  0.38786946888E+03  0.00000000000E+00 0. -1.
          4    1    6    6  502    0 -0.17708523907E+02 -0.52943471911E+02 -0.68745793724E+02  0.88558382955E+02  0.00000000000E+00 0. -1.
          3    1    5    5  503    0  0.19612515235E+03  0.33279090473E+03 -0.41606935704E+03  0.56773988015E+03  0.00000000000E+00 0. -1.
         -4    1    5    5    0  503  0.22449325891E+03  0.29530924540E+03 -0.49374235377E+03  0.61756480278E+03  0.00000000000E+00 0.  1.
         -3    1    6    6    0  502 -0.54964266591E+02 -0.17493035300E+03 -0.49165753823E+02  0.18983932772E+03  0.00000000000E+00 0.  1.
<mgrwt>
<rscale>  0 0.17313890E+04</rscale>
<asrwt>0</asrwt>
<pdfrwt beam="1">  1        1 0.76644953E-01 0.17313890E+04</pdfrwt>
<pdfrwt beam="2">  1       -1 0.23142967E+00 0.17313890E+04</pdfrwt>
<totfact> 0.39043273E+00</totfact>
</mgrwt>
</event>
<event>
12    1  0.2083715E-007  0.1239133E+04  0.7818608E-02  0.9079277E-01
         -1   -1    0    0    0  501 -0.00000000000E+00  0.00000000000E+00  0.40104959891E+03  0.40104959891E+03  0.00000000000E+00 0.  1.
          1   -1    0    0  501    0  0.00000000000E+00 -0.00000000000E+00 -0.95714529375E+03  0.95714529375E+03  0.00000000000E+00 0. -1.
         23    2    1    2    0    0 -0.25168082082E+03  0.12206745690E+03 -0.10437748666E+03  0.31274792937E+03  0.93128448953E+02 0.  0.
        254    2    1    2    0    0  0.25168082082E+03 -0.12206745690E+03 -0.45171820817E+03  0.10454469633E+04  0.90037009827E+03 0.  0.
        -24    2    4    4    0    0  0.16798016588E+01 -0.36388871911E+03  0.10232751899E+03  0.38617694897E+03  0.79018308891E+02 0.  0.
         24    2    4    4    0    0  0.25000101916E+03  0.24182126221E+03 -0.55404572716E+03  0.65927001432E+03  0.81806182895E+02 0.  0.
         13    1    3    3    0    0 -0.17106010637E+03  0.58411174415E+02 -0.10688582073E+03  0.20999524747E+03  0.00000000000E+00 0. -1.
        -13    1    3    3    0    0 -0.80620714444E+02  0.63656282489E+02  0.25083340688E+01  0.10275268190E+03  0.00000000000E+00 0.  1.
          4    1    6    6  502    0  0.38975151824E+02  0.48733395815E+02 -0.16489157158E+03  0.17630438652E+03  0.00000000000E+00 0. -1.
          1    1    5    5  503    0  0.36761366478E+02 -0.11220731022E+03  0.38111351812E+02  0.12407398466E+03  0.00000000000E+00 0. -1.
         -2    1    5    5    0  503 -0.35081564819E+02 -0.25168140889E+03  0.64216167181E+02  0.26210296431E+03  0.00000000000E+00 0.  1.
         -3    1    6    6    0  502  0.21102586733E+03  0.19308786639E+03 -0.38915415558E+03  0.48296562780E+03  0.00000000000E+00 0.  1.
<mgrwt>
<rscale>  0 0.12391331E+04</rscale>
<asrwt>0</asrwt>
<pdfrwt beam="1">  1        1 0.14725312E+00 0.12391331E+04</pdfrwt>
<pdfrwt beam="2">  1       -1 0.61699938E-01 0.12391331E+04</pdfrwt>
<totfact> 0.43016407E+01</totfact>
</mgrwt>
</event>
<event>
12    1  0.2083715E-007  0.2563922E+04  0.7818608E-02  0.8380560E-01
         -1   -1    0    0    0  501 -0.00000000000E+00  0.00000000000E+00  0.22015074460E+04  0.22015074460E+04  0.00000000000E+00 0.  1.
          1   -1    0    0  501    0  0.00000000000E+00 -0.00000000000E+00 -0.74649934870E+03  0.74649934870E+03  0.00000000000E+00 0. -1.
         23    2    1    2    0    0  0.85111895509E+02  0.87924662325E+03 -0.15725516793E+03  0.90173056734E+03  0.89834119185E+02 0.  0.
        254    2    1    2    0    0 -0.85111895509E+02 -0.87924662325E+03  0.16122632652E+04  0.20462762273E+04  0.89862945811E+03 0.  0.
        -24    2    4    4    0    0  0.57687369805E+02 -0.86484671718E+03  0.69358664100E+03  0.11128734066E+04  0.78339732797E+02 0.  0.
         24    2    4    4    0    0 -0.14279926531E+03 -0.14399906069E+02  0.91867662421E+03  0.93340282072E+03  0.81701275349E+02 0.  0.
         11    1    3    3    0    0  0.13560286411E+02  0.29803819177E+03 -0.13007054198E+02  0.29862991910E+03  0.00000000000E+00 0.  1.
        -11    1    3    3    0    0  0.71551609098E+02  0.58120843148E+03 -0.14424811373E+03  0.60310064824E+03  0.00000000000E+00 0. -1.
          4    1    6    6  502    0 -0.14445238218E+03  0.31502787956E+01  0.74868137811E+03  0.76249604648E+03  0.00000000000E+00 0. -1.
          3    1    5    5  503    0  0.50926749967E+02 -0.83642396182E+03  0.68527799965E+03  0.10824991984E+04  0.00000000000E+00 0. -1.
         -4    1    5    5    0  503  0.67606198377E+01 -0.28422755363E+02  0.83086413514E+01  0.30374208205E+02  0.00000000000E+00 0.  1.
         -3    1    6    6    0  502  0.16531168671E+01 -0.17550184864E+02  0.16999524610E+03  0.17090677424E+03  0.00000000000E+00 0.  1.
<mgrwt>
<rscale>  0 0.25639219E+04</rscale>
<asrwt>0</asrwt>
<pdfrwt beam="1">  1        1 0.11484605E+00 0.25639219E+04</pdfrwt>
<pdfrwt beam="2">  1       -1 0.33869345E+00 0.25639219E+04</pdfrwt>
<totfact> 0.40237679E-01</totfact>
</mgrwt>
</event>
<event>
12    1  0.2083715E-007  0.1397739E+04  0.7818608E-02  0.8955457E-01
         -1   -1    0    0    0  501 -0.00000000000E+00  0.00000000000E+00  0.51424529411E+03  0.51424529411E+03  0.00000000000E+00 0.  1.
          1   -1    0    0  501    0  0.00000000000E+00 -0.00000000000E+00 -0.94977735931E+03  0.94977735931E+03  0.00000000000E+00 0. -1.
         23    2    1    2    0    0  0.34398811048E+03  0.15838965444E+03 -0.27108696315E+03  0.47503026079E+03  0.93544130163E+02 0.  0.
        254    2    1    2    0    0 -0.34398811048E+03 -0.15838965444E+03 -0.16444510206E+03  0.98899239264E+03  0.89869274968E+03 0.  0.
        -24    2    4    4    0    0 -0.42681511195E+02  0.71388730242E+02  0.33618469753E+03  0.35586324419E+03  0.81856187951E+02 0.  0.
         24    2    4    4    0    0 -0.30130659929E+03 -0.22977838468E+03 -0.50062979959E+03  0.63312914845E+03  0.81477294665E+02 0.  0.
         13    1    3    3    0    0  0.86073027215E+02  0.96838048454E+01 -0.97453877899E+02  0.13038251573E+03  0.00000000000E+00 0.  1.
        -13    1    3    3    0    0  0.25791508327E+03  0.14870584960E+03 -0.17363308525E+03  0.34464774506E+03  0.00000000000E+00 0. -1.
          2    1    6    6  502    0 -0.17674513358E+03 -0.86505269202E+02 -0.23255185816E+03  0.30463481511E+03  0.00000000000E+00 0. -1.
          3    1    5    5  503    0  0.41411536957E+01 -0.13030314061E+02  0.14173010773E+02  0.19692954903E+02  0.00000000000E+00 0. -1.
         -4    1    5    5    0  503 -0.46822664891E+02  0.84419044302E+02  0.32201168676E+03  0.33617028928E+03  0.00000000000E+00 0.  1.
         -1    1    6    6    0  502 -0.12456146571E+03 -0.14327311548E+03 -0.26807794142E+03  0.32849433334E+03  0.00000000000E+00 0.  1.
<mgrwt>
<rscale>  0 0.13977389E+04</rscale>
<asrwt>0</asrwt>
<pdfrwt beam="1">  1        1 0.14611959E+00 0.13977389E+04</pdfrwt>
<pdfrwt beam="2">  1       -1 0.79114661E-01 0.13977389E+04</pdfrwt>
<totfact> 0.25836904E+01</totfact>
</mgrwt>
</event>
<event>
12    1  0.2083715E-007  0.2587053E+04  0.7818608E-02  0.8372612E-01
         -1   -1    0    0    0  501 -0.00000000000E+00  0.00000000000E+00  0.19175030280E+04  0.19175030280E+04  0.00000000000E+00 0.  1.
          1   -1    0    0  501    0  0.00000000000E+00 -0.00000000000E+00 -0.87259875770E+03  0.87259875770E+03  0.00000000000E+00 0. -1.
         23    2    1    2    0    0 -0.97706757807E+03 -0.56770911168E+03  0.56969109019E+03  0.12690064593E+04  0.94205986863E+02 0.  0.
        254    2    1    2    0    0  0.97706757807E+03  0.56770911168E+03  0.47521318009E+03  0.15210953264E+04  0.90052692227E+03 0.  0.
        -24    2    4    4    0    0  0.12707126977E+03 -0.85363796048E+02 -0.19053935480E+03  0.25675728573E+03  0.78644597860E+02 0.  0.
         24    2    4    4    0    0  0.84999630831E+03  0.65307290773E+03  0.66575253489E+03  0.12643380406E+04  0.79538018111E+02 0.  0.
         11    1    3    3    0    0 -0.40071039179E+03 -0.27312995707E+03  0.20948020394E+03  0.52825254129E+03  0.00000000000E+00 0. -1.
        -11    1    3    3    0    0 -0.57635718628E+03 -0.29457915461E+03  0.36021088625E+03  0.74075391803E+03  0.00000000000E+00 0.  1.
          4    1    6    6  502    0  0.27566918435E+03  0.24666863811E+03  0.19935808335E+03  0.42021727906E+03  0.00000000000E+00 0. -1.
          3    1    5    5  503    0  0.11150575916E+03 -0.98479669032E+02 -0.14928783178E+03  0.21075729230E+03  0.00000000000E+00 0. -1.
         -4    1    5    5    0  503  0.15565510607E+02  0.13115872984E+02 -0.41251523018E+02  0.45999993433E+02  0.00000000000E+00 0.  1.
         -3    1    6    6    0  502  0.57432712396E+03  0.40640426961E+03  0.46639445154E+03  0.84412076156E+03  0.00000000000E+00 0.  1.
<mgrwt>
<rscale>  0 0.25870530E+04</rscale>
<asrwt>0</asrwt>
<pdfrwt beam="1">  1        1 0.13424596E+00 0.25870530E+04</pdfrwt>
<pdfrwt beam="2">  1       -1 0.29500046E+00 0.25870530E+04</pdfrwt>
<totfact> 0.60153717E-01</totfact>
</mgrwt>
</event>
<event>
12    1  0.2083715E-007  0.1474278E+04  0.7818608E-02  0.8901741E-01
          2   -1    0    0  501    0  0.00000000000E+00  0.00000000000E+00  0.13370879107E+04  0.13370879107E+04  0.00000000000E+00 0. -1.
         -2   -1    0    0    0  501 -0.00000000000E+00 -0.00000000000E+00 -0.40638582665E+03  0.40638582665E+03  0.00000000000E+00 0.  1.
         23    2    1    2    0    0  0.27214434771E+03  0.17486309112E+03  0.67458295754E+03  0.75331293227E+03  0.88196149022E+02 0.  0.
        254    2    1    2    0    0 -0.27214434771E+03 -0.17486309112E+03  0.25611912651E+03  0.99016080508E+03  0.90010097563E+03 0.  0.
        -24    2    4    4    0    0 -0.49159777820E+03  0.12060974825E+03  0.32338963592E+03  0.60600543333E+03  0.80290981448E+02 0.  0.
         24    2    4    4    0    0  0.21945343049E+03 -0.29547283936E+03 -0.67270509407E+02  0.38415537176E+03  0.87097768391E+02 0.  0.
         13    1    3    3    0    0  0.45947298323E+02  0.41584279868E+02  0.66102466186E+02  0.90608733526E+02  0.00000000000E+00 0.  1.
        -13    1    3    3    0    0  0.22619704938E+03  0.13327881125E+03  0.60848049135E+03  0.66270419875E+03  0.00000000000E+00 0. -1.
          4    1    6    6  502    0  0.17338014536E+03 -0.26298153477E+03 -0.82771594904E+02  0.32568558359E+03  0.00000000000E+00 0. -1.
          1    1    5    5  503    0 -0.44524104058E+03  0.85197641509E+02  0.29722863214E+03  0.54207294906E+03  0.00000000000E+00 0. -1.
         -2    1    5    5    0  503 -0.46356737613E+02  0.35412106741E+02  0.26161003780E+02  0.63932484268E+02  0.00000000000E+00 0.  1.
         -3    1    6    6    0  502  0.46073285127E+02 -0.32491304593E+02  0.15501085498E+02  0.58469788165E+02  0.00000000000E+00 0.  1.
<mgrwt>
<rscale>  0 0.14742776E+04</rscale>
<asrwt>0</asrwt>
<pdfrwt beam="1">  1        2 0.20570583E+00 0.14742776E+04</pdfrwt>
<pdfrwt beam="2">  1       -2 0.62520897E-01 0.14742776E+04</pdfrwt>
<totfact> 0.36132288E+01</totfact>
</mgrwt>
</event>
<event>
12    1  0.2157060E-007  0.3517376E+04  0.7818608E-02  0.8109684E-01
         -2   -1    0    0    0  501 -0.00000000000E+00  0.00000000000E+00  0.23409500304E+04  0.23409500304E+04  0.00000000000E+00 0.  1.
          2   -1    0    0  501    0  0.00000000000E+00 -0.00000000000E+00 -0.13212511189E+04  0.13212511189E+04  0.00000000000E+00 0. -1.
         23    2    1    2    0    0 -0.43500704319E+03 -0.15780247358E+04  0.62494745181E+03  0.17545171783E+04  0.91531508615E+02 0.  0.
        254    2    1    2    0    0  0.43500704319E+03  0.15780247358E+04  0.39475145969E+03  0.19076839710E+04  0.89668066995E+03 0.  0.
        -24    2    4    4    0    0  0.69068939376E+03  0.12693026900E+04  0.22295010632E+03  0.14643361501E+04  0.79952818051E+02 0.  0.
         24    2    4    4    0    0 -0.25568235057E+03  0.30872204579E+03  0.17180135337E+03  0.44334782088E+03  0.79742205311E+02 0.  0.
         13    1    3    3    0    0 -0.22411855544E+03 -0.64334944033E+03  0.26108537962E+03  0.72958426841E+03  0.00000000000E+00 0.  1.
        -13    1    3    3    0    0 -0.21088848775E+03 -0.93467529550E+03  0.36386207219E+03  0.10249329099E+04  0.00000000000E+00 0. -1.
          2    1    6    6  502    0 -0.12977304867E+02  0.59218912692E+02  0.26347160724E+02  0.66101913288E+02  0.00000000000E+00 0. -1.
          1    1    5    5  503    0  0.26345639080E+03  0.48461823259E+03  0.45881470958E+02  0.55350628776E+03  0.00000000000E+00 0. -1.
         -2    1    5    5    0  503  0.42723300296E+03  0.78468445744E+03  0.17706863536E+03  0.91082986238E+03  0.00000000000E+00 0.  1.
         -1    1    6    6    0  502 -0.24270504571E+03  0.24950313310E+03  0.14545419265E+03  0.37724590759E+03  0.00000000000E+00 0.  1.
<mgrwt>
<rscale>  0 0.35173756E+04</rscale>
<asrwt>0</asrwt>
<pdfrwt beam="1">  1        2 0.20326940E+00 0.35173756E+04</pdfrwt>
<pdfrwt beam="2">  1       -2 0.36014616E+00 0.35173756E+04</pdfrwt>
<totfact> 0.17681701E-01</totfact>
</mgrwt>
</event>
<event>
12    1  0.2083715E-007  0.1740192E+04  0.7818608E-02  0.8738768E-01
         -2   -1    0    0    0  501 -0.00000000000E+00  0.00000000000E+00  0.40367963996E+03  0.40367963996E+03  0.00000000000E+00 0.  1.
          2   -1    0    0  501    0  0.00000000000E+00 -0.00000000000E+00 -0.18754148119E+04  0.18754148119E+04  0.00000000000E+00 0. -1.
         23    2    1    2    0    0  0.44458844258E+02  0.61950646809E+03 -0.69239016614E+03  0.93462393422E+03  0.91394219756E+02 0.  0.
        254    2    1    2    0    0 -0.44458844258E+02 -0.61950646809E+03 -0.77934500579E+03  0.13444705176E+04  0.90247298126E+03 0.  0.
        -24    2    4    4    0    0  0.27689307494E+03 -0.40571801898E+02 -0.57915825665E+03  0.64828379573E+03  0.80819227309E+02 0.  0.
         24    2    4    4    0    0 -0.32135191920E+03 -0.57893466619E+03 -0.20018674914E+03  0.69618672191E+03  0.78541794855E+02 0.  0.
         13    1    3    3    0    0  0.46363341200E+02  0.21412288801E+03 -0.28980075971E+03  0.36329416581E+03  0.00000000000E+00 0. -1.
        -13    1    3    3    0    0 -0.19044969418E+01  0.40538358008E+03 -0.40258940643E+03  0.57132976841E+03  0.00000000000E+00 0.  1.
          4    1    6    6  502    0 -0.18475924425E+03 -0.31699685725E+03 -0.70787964478E+02  0.37367622584E+03  0.00000000000E+00 0. -1.
          3    1    5    5  503    0  0.19825807848E+03 -0.64845948807E+02 -0.43019409780E+03  0.47809855107E+03  0.00000000000E+00 0. -1.
         -4    1    5    5    0  503  0.78634996459E+02  0.24274146909E+02 -0.14896415885E+03  0.17018524466E+03  0.00000000000E+00 0.  1.
         -3    1    6    6    0  502 -0.13659267495E+03 -0.26193780894E+03 -0.12939878466E+03  0.32251049607E+03  0.00000000000E+00 0.  1.
<mgrwt>
<rscale>  0 0.17401917E+04</rscale>
<asrwt>0</asrwt>
<pdfrwt beam="1">  1        2 0.28852536E+00 0.17401917E+04</pdfrwt>
<pdfrwt beam="2">  1       -2 0.62104559E-01 0.17401917E+04</pdfrwt>
<totfact> 0.17889689E+01</totfact>
</mgrwt>
</event>
<event>
12    1  0.2083715E-007  0.2144354E+04  0.7818608E-02  0.8541953E-01
         -1   -1    0    0    0  501 -0.00000000000E+00  0.00000000000E+00  0.86655382910E+03  0.86655382910E+03  0.00000000000E+00 0.  1.
          1   -1    0    0  501    0  0.00000000000E+00 -0.00000000000E+00 -0.13265919530E+04  0.13265919530E+04  0.00000000000E+00 0. -1.
         23    2    1    2    0    0 -0.35309624648E+03 -0.75612846906E+03  0.96540843166E+02  0.84526810647E+03  0.93545798482E+02 0.  0.
        254    2    1    2    0    0  0.35309624648E+03  0.75612846906E+03 -0.55657896708E+03  0.13478776756E+04  0.90032597478E+03 0.  0.
        -24    2    4    4    0    0  0.53332681939E+03  0.67098731253E+03 -0.68189780105E+03  0.10982887510E+04  0.81191746683E+02 0.  0.
         24    2    4    4    0    0 -0.18023057291E+03  0.85141156528E+02  0.12531883397E+03  0.24958892459E+03  0.82811503934E+02 0.  0.
         11    1    3    3    0    0 -0.13309109136E+03 -0.38861930542E+03  0.63638259978E+02  0.41567779743E+03  0.00000000000E+00 0.  1.
        -11    1    3    3    0    0 -0.22000515512E+03 -0.36750916365E+03  0.32902583188E+02  0.42959030904E+03  0.00000000000E+00 0. -1.
          2    1    6    6  502    0 -0.36166469828E+02  0.30690903830E+02 -0.51918134065E+01  0.47716873789E+02  0.00000000000E+00 0. -1.
          1    1    5    5  503    0  0.46323225135E+03  0.54723968296E+03 -0.54193533398E+03  0.89874873881E+03  0.00000000000E+00 0. -1.
         -2    1    5    5    0  503  0.70094568041E+02  0.12374762958E+03 -0.13996246707E+03  0.19954001223E+03  0.00000000000E+00 0.  1.
         -1    1    6    6    0  502 -0.14406410308E+03  0.54450252698E+02  0.13051064738E+03  0.20187205080E+03  0.00000000000E+00 0.  1.
<mgrwt>
<rscale>  0 0.21443538E+04</rscale>
<asrwt>0</asrwt>
<pdfrwt beam="1">  1        1 0.20409107E+00 0.21443538E+04</pdfrwt>
<pdfrwt beam="2">  1       -1 0.13331597E+00 0.21443538E+04</pdfrwt>
<totfact> 0.37737535E+00</totfact>
</mgrwt>
</event>
<event>
12    1  0.2083715E-007  0.2657970E+04  0.7818608E-02  0.8348773E-01
          2   -1    0    0  501    0  0.00000000000E+00  0.00000000000E+00  0.17214376351E+04  0.17214376351E+04  0.00000000000E+00 0. -1.
         -2   -1    0    0    0  501 -0.00000000000E+00 -0.00000000000E+00 -0.10260032820E+04  0.10260032820E+04  0.00000000000E+00 0.  1.
         23    2    1    2    0    0 -0.86697578695E+03 -0.75146721168E+03  0.54380994841E+02  0.11528672577E+04  0.98972904244E+02 0.  0.
        254    2    1    2    0    0  0.86697578695E+03  0.75146721168E+03  0.64105335829E+03  0.15945736594E+04  0.90297605829E+03 0.  0.
        -24    2    4    4    0    0  0.94916636550E+03  0.30943565607E+03  0.40558364768E+03  0.10807309878E+04  0.82547914069E+02 0.  0.
         24    2    4    4    0    0 -0.82190578553E+02  0.44203155561E+03  0.23546971061E+03  0.51384267163E+03  0.80256583610E+02 0.  0.
         11    1    3    3    0    0 -0.60617418032E+03 -0.46373372072E+03  0.32138243095E+02  0.76389067758E+03  0.00000000000E+00 0. -1.
        -11    1    3    3    0    0 -0.26080160663E+03 -0.28773349096E+03  0.22242751746E+02  0.38897658007E+03  0.00000000000E+00 0.  1.
          4    1    6    6  502    0 -0.52065768243E+02  0.21107501860E+03  0.70956497061E+02  0.22868828605E+03  0.00000000000E+00 0. -1.
          3    1    5    5  503    0  0.19713810838E+03  0.79354475937E+02  0.11997075456E+03  0.24403595755E+03  0.00000000000E+00 0. -1.
         -4    1    5    5    0  503  0.75202825712E+03  0.23008118014E+03  0.28561289312E+03  0.83669503027E+03  0.00000000000E+00 0.  1.
         -3    1    6    6    0  502 -0.30124810310E+02  0.23095653701E+03  0.16451321355E+03  0.28515438558E+03  0.00000000000E+00 0.  1.
<mgrwt>
<rscale>  0 0.26579696E+04</rscale>
<asrwt>0</asrwt>
<pdfrwt beam="1">  1        2 0.26483656E+00 0.26579696E+04</pdfrwt>
<pdfrwt beam="2">  1       -2 0.15784666E+00 0.26579696E+04</pdfrwt>
<totfact> 0.21955127E+00</totfact>
</mgrwt>
</event>
<event>
12    1  0.2083715E-007  0.4502809E+04  0.7818608E-02  0.7910145E-01
         -2   -1    0    0    0  501 -0.00000000000E+00  0.00000000000E+00  0.23895088740E+04  0.23895088740E+04  0.00000000000E+00 0.  1.
          2   -1    0    0  501    0  0.00000000000E+00 -0.00000000000E+00 -0.21212819882E+04  0.21212819882E+04  0.00000000000E+00 0. -1.
         23    2    1    2    0    0  0.57133499542E+03  0.10327774574E+04  0.19415824870E+04  0.22743141122E+04  0.98535140068E+02 0.  0.
        254    2    1    2    0    0 -0.57133499542E+03 -0.10327774574E+04 -0.16733556012E+04  0.22364767500E+04  0.89925320785E+03 0.  0.
        -24    2    4    4    0    0 -0.78885742076E+03 -0.61075113974E+03 -0.11800792152E+04  0.15472155729E+04  0.77305174665E+02 0.  0.
         24    2    4    4    0    0  0.21752242533E+03 -0.42202631767E+03 -0.49327638597E+03  0.68926117707E+03  0.79606274416E+02 0.  0.
         13    1    3    3    0    0  0.17582496759E+03  0.23189044435E+03  0.46177592241E+03  0.54582469707E+03  0.00000000000E+00 0. -1.
        -13    1    3    3    0    0  0.39551002783E+03  0.80088701306E+03  0.14798065645E+04  0.17284894152E+04  0.00000000000E+00 0.  1.
          4    1    6    6  502    0  0.20440389048E+03 -0.41776706282E+03 -0.46434982304E+03  0.65721459766E+03  0.00000000000E+00 0. -1.
          1    1    5    5  503    0 -0.77398644846E+03 -0.60879863406E+03 -0.11531598776E+04  0.15163998492E+04  0.00000000000E+00 0. -1.
         -2    1    5    5    0  503 -0.14870972297E+02 -0.19525056848E+01 -0.26919337579E+02  0.30815723766E+02  0.00000000000E+00 0.  1.
         -3    1    6    6    0  502  0.13118534857E+02 -0.42592548494E+01 -0.28926562935E+02  0.32046579411E+02  0.00000000000E+00 0.  1.
<mgrwt>
<rscale>  0 0.45028090E+04</rscale>
<asrwt>0</asrwt>
<pdfrwt beam="1">  1        2 0.32635108E+00 0.45028090E+04</pdfrwt>
<pdfrwt beam="2">  1       -2 0.36761675E+00 0.45028090E+04</pdfrwt>
<totfact> 0.52075950E-02</totfact>
</mgrwt>
</event>
<event>
12    1  0.2083715E-007  0.4089709E+04  0.7818608E-02  0.7986690E-01
         -2   -1    0    0    0  501 -0.00000000000E+00  0.00000000000E+00  0.13513336132E+04  0.13513336132E+04  0.00000000000E+00 0.  1.
          2   -1    0    0  501    0  0.00000000000E+00 -0.00000000000E+00 -0.30942993788E+04  0.30942993788E+04  0.00000000000E+00 0. -1.
         23    2    1    2    0    0  0.12352919290E+04  0.14996888423E+04 -0.74082101471E+03  0.20813380141E+04  0.90218509278E+02 0.  0.
        254    2    1    2    0    0 -0.12352919290E+04 -0.14996888423E+04 -0.10021447508E+04  0.23642949780E+04  0.90032431255E+03 0.  0.
        -24    2    4    4    0    0 -0.60596287277E+03 -0.19764107338E+03 -0.55368420209E+03  0.84779669788E+03  0.77071708291E+02 0.  0.
         24    2    4    4    0    0 -0.62932905624E+03 -0.13020477689E+04 -0.44846054875E+03  0.15164982801E+04  0.85245036696E+02 0.  0.
         11    1    3    3    0    0  0.45026253565E+03  0.59210390247E+03 -0.31887956977E+03  0.80932537483E+03  0.00000000000E+00 0. -1.
        -11    1    3    3    0    0  0.78502939336E+03  0.90758493981E+03 -0.42194144495E+03  0.12720126392E+04  0.00000000000E+00 0.  1.
          2    1    6    6  502    0 -0.11494223295E+03 -0.31417046695E+03 -0.89399720312E+02  0.34627605925E+03  0.00000000000E+00 0. -1.
          3    1    5    5  503    0 -0.28026916361E+03 -0.11211617529E+03 -0.21822418834E+03  0.37248172735E+03  0.00000000000E+00 0. -1.
         -4    1    5    5    0  503 -0.32569370916E+03 -0.85524898089E+02 -0.33546001375E+03  0.47531497053E+03  0.00000000000E+00 0.  1.
         -1    1    6    6    0  502 -0.51438682330E+03 -0.98787730195E+03 -0.35906082844E+03  0.11702222209E+04  0.00000000000E+00 0.  1.
<mgrwt>
<rscale>  0 0.40897094E+04</rscale>
<asrwt>0</asrwt>
<pdfrwt beam="1">  1        2 0.47604606E+00 0.40897094E+04</pdfrwt>
<pdfrwt beam="2">  1       -2 0.20789748E+00 0.40897094E+04</pdfrwt>
<totfact> 0.14030554E-01</totfact>
</mgrwt>
</event>
<event>
12    1  0.2083715E-007  0.1837859E+04  0.7818608E-02  0.8686422E-01
          1   -1    0    0  501    0  0.00000000000E+00  0.00000000000E+00  0.20192508193E+04  0.20192508193E+04  0.00000000000E+00 0. -1.
         -1   -1    0    0    0  501 -0.00000000000E+00 -0.00000000000E+00 -0.41819048092E+03  0.41819048092E+03  0.00000000000E+00 0.  1.
         23    2    1    2    0    0  0.68742928243E+03  0.10376118187E+03  0.61993143534E+03  0.93572722931E+03  0.89135076996E+02 0.  0.
        254    2    1    2    0    0 -0.68742928243E+03 -0.10376118187E+03  0.98112890300E+03  0.15017140709E+04  0.89955868355E+03 0.  0.
        -24    2    4    4    0    0 -0.44866318526E+03 -0.20002903646E+03  0.10979560900E+04  0.12054739146E+04  0.79683837585E+02 0.  0.
         24    2    4    4    0    0 -0.23876609717E+03  0.96267854594E+02 -0.11682718703E+03  0.29624015625E+03  0.88503613242E+02 0.  0.
         11    1    3    3    0    0  0.25475291027E+03  0.24022272479E+02  0.17499347748E+03  0.30999811616E+03  0.00000000000E+00 0.  1.
        -11    1    3    3    0    0  0.43267637216E+03  0.79738909388E+02  0.44493795786E+03  0.62572911315E+03  0.00000000000E+00 0. -1.
          4    1    6    6  502    0 -0.35923237172E+02  0.53987532669E+02 -0.32496759645E+02  0.72533937161E+02  0.00000000000E+00 0. -1.
          3    1    5    5  503    0 -0.45864389058E+02 -0.47753476627E+02  0.12407133289E+03  0.14063297038E+03  0.00000000000E+00 0. -1.
         -4    1    5    5    0  503 -0.40279879620E+03 -0.15227555983E+03  0.97388475714E+03  0.10648409442E+04  0.00000000000E+00 0.  1.
         -3    1    6    6    0  502 -0.20284286000E+03  0.42280321925E+02 -0.84330427386E+02  0.22370621909E+03  0.00000000000E+00 0.  1.
<mgrwt>
<rscale>  0 0.18378590E+04</rscale>
<asrwt>0</asrwt>
<pdfrwt beam="1">  1        1 0.31065397E+00 0.18378590E+04</pdfrwt>
<pdfrwt beam="2">  1       -1 0.64336998E-01 0.18378590E+04</pdfrwt>
<totfact> 0.66635420E+00</totfact>
</mgrwt>
</event>
<event>
12    1  0.2083715E-007  0.1961300E+04  0.7818608E-02  0.8624931E-01
          1   -1    0    0  501    0  0.00000000000E+00  0.00000000000E+00  0.22240594773E+04  0.22240594773E+04  0.00000000000E+00 0. -1.
         -1   -1    0    0    0  501 -0.00000000000E+00 -0.00000000000E+00 -0.43239584235E+03  0.43239584235E+03  0.00000000000E+00 0.  1.
         23    2    1    2    0    0 -0.41578341318E+03 -0.23713284654E+03 -0.11030566712E+03  0.49930621023E+03  0.89618735728E+02 0.  0.
        254    2    1    2    0    0  0.41578341318E+03  0.23713284654E+03  0.19019693021E+04  0.21571491094E+04  0.89816324832E+03 0.  0.
        -24    2    4    4    0    0  0.15639059805E+03 -0.56849228103E+02 -0.27265001327E+02  0.18695809124E+03  0.80747097105E+02 0.  0.
         24    2    4    4    0    0  0.25939281513E+03  0.29398207464E+03  0.19292343034E+04  0.19701910182E+04  0.77443901666E+02 0.  0.
         11    1    3    3    0    0 -0.30288740468E+03 -0.12690279171E+03 -0.87729571330E+02  0.33991407171E+03  0.00000000000E+00 0.  1.
        -11    1    3    3    0    0 -0.11289600850E+03 -0.11023005483E+03 -0.22576095793E+02  0.15939213853E+03  0.00000000000E+00 0. -1.
          4    1    6    6  502    0  0.71035091738E+02  0.75696195792E+02  0.69621948215E+03  0.70391580864E+03  0.00000000000E+00 0. -1.
          3    1    5    5  503    0  0.80267581113E+02  0.11782683412E+02 -0.92319655144E+00  0.81133029636E+02  0.00000000000E+00 0. -1.
         -4    1    5    5    0  503  0.76123016934E+02 -0.68631911516E+02 -0.26341804776E+02  0.10582506161E+03  0.00000000000E+00 0.  1.
         -3    1    6    6    0  502  0.18835772339E+03  0.21828587885E+03  0.12330148212E+04  0.12662752095E+04  0.00000000000E+00 0.  1.
<mgrwt>
<rscale>  0 0.19612996E+04</rscale>
<asrwt>0</asrwt>
<pdfrwt beam="1">  1        1 0.34216299E+00 0.19612996E+04</pdfrwt>
<pdfrwt beam="2">  1       -1 0.66522438E-01 0.19612996E+04</pdfrwt>
<totfact> 0.44711187E+00</totfact>
</mgrwt>
</event>
<event>
12    1  0.2083715E-007  0.2352944E+04  0.7818608E-02  0.8457334E-01
          1   -1    0    0  501    0  0.00000000000E+00  0.00000000000E+00  0.20849742813E+04  0.20849742813E+04  0.00000000000E+00 0. -1.
         -1   -1    0    0    0  501 -0.00000000000E+00 -0.00000000000E+00 -0.66383860828E+03  0.66383860828E+03  0.00000000000E+00 0.  1.
         23    2    1    2    0    0  0.88201092906E+03  0.30638567202E+03  0.18319417996E+03  0.95600544351E+03  0.92578839152E+02 0.  0.
        254    2    1    2    0    0 -0.88201092906E+03 -0.30638567202E+03  0.12379414931E+04  0.17928074461E+04  0.89991329553E+03 0.  0.
        -24    2    4    4    0    0 -0.24649103850E+03 -0.51383379911E+03  0.33136521485E+03  0.66356107991E+03  0.75679561212E+02 0.  0.
         24    2    4    4    0    0 -0.63551989055E+03  0.20744812709E+03  0.90657627824E+03  0.11292463662E+04  0.79978438111E+02 0.  0.
         13    1    3    3    0    0  0.48110499134E+03  0.13407269441E+03  0.13241439497E+03  0.51669243470E+03  0.00000000000E+00 0. -1.
        -13    1    3    3    0    0  0.40090593772E+03  0.17231297761E+03  0.50779784989E+02  0.43931300882E+03  0.00000000000E+00 0.  1.
          2    1    6    6  502    0 -0.32720904053E+03  0.14721112686E+03  0.46521135860E+03  0.58750189808E+03  0.00000000000E+00 0. -1.
          3    1    5    5  503    0 -0.24117199417E+03 -0.45730171176E+03  0.31045523811E+03  0.60305160742E+03  0.00000000000E+00 0. -1.
         -4    1    5    5    0  503 -0.53190443344E+01 -0.56532087348E+02  0.20909976745E+02  0.60509472482E+02  0.00000000000E+00 0.  1.
         -1    1    6    6    0  502 -0.30831085002E+03  0.60237000227E+02  0.44136491965E+03  0.54174446811E+03  0.00000000000E+00 0.  1.
<mgrwt>
<rscale>  0 0.23529440E+04</rscale>
<asrwt>0</asrwt>
<pdfrwt beam="1">  1        1 0.32076527E+00 0.23529440E+04</pdfrwt>
<pdfrwt beam="2">  1       -1 0.10212902E+00 0.23529440E+04</pdfrwt>
<totfact> 0.21311155E+00</totfact>
</mgrwt>
</event>
<event>
12    1  0.2083715E-007  0.3258730E+04  0.7818608E-02  0.8173477E-01
         -1   -1    0    0    0  501 -0.00000000000E+00  0.00000000000E+00  0.78024298335E+03  0.78024298335E+03  0.00000000000E+00 0.  1.
          1   -1    0    0  501    0  0.00000000000E+00 -0.00000000000E+00 -0.34025691835E+04  0.34025691835E+04  0.00000000000E+00 0. -1.
         23    2    1    2    0    0 -0.11481590351E+04  0.77092381808E+03 -0.45167314811E+03  0.14562633113E+04  0.64042922676E+02 0.  0.
        254    2    1    2    0    0  0.11481590351E+04 -0.77092381808E+03 -0.21706530520E+04  0.27265488555E+04  0.89985625858E+03 0.  0.
        -24    2    4    4    0    0  0.12172267465E+04 -0.43678420872E+03 -0.17866062290E+04  0.22070249264E+04  0.81091373370E+02 0.  0.
         24    2    4    4    0    0 -0.69067711390E+02 -0.33413960936E+03 -0.38404682308E+03  0.51952392918E+03  0.77417849161E+02 0.  0.
         13    1    3    3    0    0 -0.76606719710E+03  0.48198590223E+03 -0.31038642691E+03  0.95682239440E+03  0.00000000000E+00 0. -1.
        -13    1    3    3    0    0 -0.38209183801E+03  0.28893791585E+03 -0.14128672120E+03  0.49944091690E+03  0.00000000000E+00 0.  1.
          4    1    6    6  502    0 -0.71268748843E+02 -0.31670011593E+03 -0.33089275730E+03  0.46353879538E+03  0.00000000000E+00 0. -1.
          3    1    5    5  503    0  0.88273167715E+03 -0.27989307472E+03 -0.12967804366E+04  0.15934851264E+04  0.00000000000E+00 0. -1.
         -4    1    5    5    0  503  0.33449506935E+03 -0.15689113399E+03 -0.48982579233E+03  0.61353979999E+03  0.00000000000E+00 0.  1.
         -3    1    6    6    0  502  0.22010374528E+01 -0.17439493432E+02 -0.53154065779E+02  0.55985133793E+02  0.00000000000E+00 0.  1.
<mgrwt>
<rscale>  0 0.32587303E+04</rscale>
<asrwt>0</asrwt>
<pdfrwt beam="1">  1        1 0.52347219E+00 0.32587303E+04</pdfrwt>
<pdfrwt beam="2">  1       -1 0.12003738E+00 0.32587303E+04</pdfrwt>
<totfact> 0.15318610E-01</totfact>
</mgrwt>
</event>
<event>
12    1  0.2083715E-007  0.1611466E+04  0.7818608E-02  0.8813535E-01
         -2   -1    0    0    0  501 -0.00000000000E+00  0.00000000000E+00  0.52313415188E+03  0.52313415188E+03  0.00000000000E+00 0.  1.
          2   -1    0    0  501    0  0.00000000000E+00 -0.00000000000E+00 -0.12409930400E+04  0.12409930400E+04  0.00000000000E+00 0. -1.
         23    2    1    2    0    0 -0.41411742031E+03 -0.12309847441E+03 -0.62012828576E+03  0.76138098100E+03  0.92170685274E+02 0.  0.
        254    2    1    2    0    0  0.41411742031E+03  0.12309847441E+03 -0.97730602357E+02  0.10027462109E+04  0.89961226125E+03 0.  0.
        -24    2    4    4    0    0 -0.65068891656E+02  0.15218502361E+03 -0.39260988595E+03  0.43367632023E+03  0.80860287600E+02 0.  0.
         24    2    4    4    0    0  0.47918631197E+03 -0.29086549195E+02  0.29487928359E+03  0.56906989066E+03  0.80132388214E+02 0.  0.
         13    1    3    3    0    0 -0.10946342337E+03 -0.74399641966E+02 -0.16471732353E+03  0.21130391490E+03  0.00000000000E+00 0. -1.
        -13    1    3    3    0    0 -0.30465399694E+03 -0.48698832448E+02 -0.45541096223E+03  0.55007706610E+03  0.00000000000E+00 0.  1.
          4    1    6    6  502    0  0.29629119640E+03  0.12527138794E+01  0.22038394392E+03  0.36926836460E+03  0.00000000000E+00 0. -1.
          1    1    5    5  503    0 -0.63605406910E+02  0.59279162170E+02 -0.23688218230E+03  0.25233476801E+03  0.00000000000E+00 0. -1.
         -2    1    5    5    0  503 -0.14634847464E+01  0.92905861439E+02 -0.15572770365E+03  0.18134155222E+03  0.00000000000E+00 0.  1.
         -3    1    6    6    0  502  0.18289511557E+03 -0.30339263074E+02  0.74495339671E+02  0.19980152606E+03  0.00000000000E+00 0.  1.
<mgrwt>
<rscale>  0 0.16114662E+04</rscale>
<asrwt>0</asrwt>
<pdfrwt beam="1">  1        2 0.19092201E+00 0.16114662E+04</pdfrwt>
<pdfrwt beam="2">  1       -2 0.80482177E-01 0.16114662E+04</pdfrwt>
<totfact> 0.23397857E+01</totfact>
</mgrwt>
</event>
<event>
12    1  0.2083715E-007  0.1500633E+04  0.7818608E-02  0.8884032E-01
         -1   -1    0    0    0  501 -0.00000000000E+00  0.00000000000E+00  0.94548297133E+03  0.94548297133E+03  0.00000000000E+00 0.  1.
          1   -1    0    0  501    0  0.00000000000E+00 -0.00000000000E+00 -0.59543664820E+03  0.59543664820E+03  0.00000000000E+00 0. -1.
         23    2    1    2    0    0 -0.33664492955E+03 -0.32875533031E+03  0.45466993962E+02  0.48138777427E+03  0.90868398694E+02 0.  0.
        254    2    1    2    0    0  0.33664492955E+03  0.32875533031E+03  0.30457932916E+03  0.10595318453E+04  0.89912695853E+03 0.  0.
        -24    2    4    4    0    0  0.46194660798E+03  0.29880482083E+03  0.54294700085E+03  0.77681949864E+03  0.77318161882E+02 0.  0.
         24    2    4    4    0    0 -0.12530167844E+03  0.29950509484E+02 -0.23836767168E+03  0.28271234662E+03  0.80681970663E+02 0.  0.
         13    1    3    3    0    0 -0.19887493081E+03 -0.15758230276E+03  0.61464871895E+02  0.26107728880E+03  0.00000000000E+00 0.  1.
        -13    1    3    3    0    0 -0.13776999874E+03 -0.17117302754E+03 -0.15997877933E+02  0.22031048547E+03  0.00000000000E+00 0. -1.
          4    1    6    6  502    0 -0.97697591698E+02  0.36750677348E+02 -0.23077969141E+03  0.25328777640E+03  0.00000000000E+00 0. -1.
          1    1    5    5  503    0  0.32412407327E+03  0.24788528473E+03  0.38309981800E+03  0.55970438609E+03  0.00000000000E+00 0. -1.
         -2    1    5    5    0  503  0.13782253472E+03  0.50919536096E+02  0.15984718284E+03  0.21711511255E+03  0.00000000000E+00 0.  1.
         -3    1    6    6    0  502 -0.27604086741E+02 -0.68001678640E+01 -0.75879802748E+01  0.29424570217E+02  0.00000000000E+00 0.  1.
<mgrwt>
<rscale>  0 0.15006335E+04</rscale>
<asrwt>0</asrwt>
<pdfrwt beam="1">  1        1 0.91605638E-01 0.15006335E+04</pdfrwt>
<pdfrwt beam="2">  1       -1 0.14545892E+00 0.15006335E+04</pdfrwt>
<totfact> 0.12692653E+01</totfact>
</mgrwt>
</event>
<event>
12    1  0.2083715E-007  0.2518411E+04  0.7818608E-02  0.8396456E-01
          2   -1    0    0  501    0  0.00000000000E+00  0.00000000000E+00  0.19683937989E+04  0.19683937989E+04  0.00000000000E+00 0. -1.
         -2   -1    0    0    0  501 -0.00000000000E+00 -0.00000000000E+00 -0.80552923125E+03  0.80552923125E+03  0.00000000000E+00 0.  1.
         23    2    1    2    0    0  0.36760826621E+03 -0.56398945806E+03 -0.44502060488E+03  0.81208835335E+03  0.90687423004E+02 0.  0.
        254    2    1    2    0    0 -0.36760826621E+03  0.56398945806E+03  0.16078851726E+04  0.19618346768E+04  0.90015588920E+03 0.  0.
        -24    2    4    4    0    0 -0.14789910919E+02  0.11138868178E+02 -0.10076165690E+03  0.12978020860E+03  0.79669160868E+02 0.  0.
         24    2    4    4    0    0 -0.35281835529E+03  0.55285058988E+03  0.17086468295E+04  0.18320544682E+04  0.82613680188E+02 0.  0.
         11    1    3    3    0    0  0.17913354622E+03 -0.35277933996E+03 -0.24301134593E+03  0.46432381409E+03  0.00000000000E+00 0. -1.
        -11    1    3    3    0    0  0.18847471999E+03 -0.21121011810E+03 -0.20200925895E+03  0.34776453926E+03  0.00000000000E+00 0.  1.
          4    1    6    6  502    0 -0.18890788436E+03  0.29727659979E+03  0.80248661619E+03  0.87638138656E+03  0.00000000000E+00 0. -1.
          1    1    5    5  503    0  0.88611283157E+00 -0.29231732939E+02 -0.72211732164E+02  0.77909008906E+02  0.00000000000E+00 0. -1.
         -2    1    5    5    0  503 -0.15676023750E+02  0.40370601117E+02 -0.28549924737E+02  0.51871199693E+02  0.00000000000E+00 0.  1.
         -3    1    6    6    0  502 -0.16391047094E+03  0.25557399009E+03  0.90616021328E+03  0.95567308167E+03  0.00000000000E+00 0.  1.
<mgrwt>
<rscale>  0 0.25184112E+04</rscale>
<asrwt>0</asrwt>
<pdfrwt beam="1">  1        2 0.30282982E+00 0.25184112E+04</pdfrwt>
<pdfrwt beam="2">  1       -2 0.12392757E+00 0.25184112E+04</pdfrwt>
<totfact> 0.30357159E+00</totfact>
</mgrwt>
</event>
<event>
12    1  0.2083715E-007  0.1920056E+04  0.7818608E-02  0.8644937E-01
         -1   -1    0    0    0  501 -0.00000000000E+00  0.00000000000E+00  0.50933242880E+03  0.50933242880E+03  0.00000000000E+00 0.  1.
          1   -1    0    0  501    0  0.00000000000E+00 -0.00000000000E+00 -0.18095331781E+04  0.18095331781E+04  0.00000000000E+00 0. -1.
         23    2    1    2    0    0  0.26546005508E+03 -0.15688660388E+03  0.31149431388E+03  0.44770960851E+03  0.91283835680E+02 0.  0.
        254    2    1    2    0    0 -0.26546005508E+03  0.15688660388E+03 -0.16116950632E+04  0.18711559984E+04  0.89921151367E+03 0.  0.
        -24    2    4    4    0    0 -0.56811712205E+02  0.45174570279E+03 -0.42481970402E+03  0.62796175404E+03  0.81008845038E+02 0.  0.
         24    2    4    4    0    0 -0.20864834287E+03 -0.29485909891E+03 -0.11868753591E+04  0.12431942443E+04  0.79892376620E+02 0.  0.
         13    1    3    3    0    0  0.11696570133E+03 -0.56239548395E+02  0.71801022855E+02  0.14832143801E+03  0.00000000000E+00 0. -1.
        -13    1    3    3    0    0  0.14849435375E+03 -0.10064705548E+03  0.23969329102E+03  0.29938817050E+03  0.00000000000E+00 0.  1.
          4    1    6    6  502    0 -0.20533874755E+03 -0.26154536155E+03 -0.11213291681E+04  0.11695935536E+04  0.00000000000E+00 0. -1.
          3    1    5    5  503    0 -0.63275120706E+02  0.37856945928E+03 -0.31865027680E+03  0.49885526488E+03  0.00000000000E+00 0. -1.
         -4    1    5    5    0  503  0.64634085013E+01  0.73176243507E+02 -0.10616942723E+03  0.12910648915E+03  0.00000000000E+00 0.  1.
         -3    1    6    6    0  502 -0.33095953222E+01 -0.33313737353E+02 -0.65546191036E+02  0.73600690737E+02  0.00000000000E+00 0.  1.
<mgrwt>
<rscale>  0 0.19200562E+04</rscale>
<asrwt>0</asrwt>
<pdfrwt beam="1">  1        1 0.27838972E+00 0.19200562E+04</pdfrwt>
<pdfrwt beam="2">  1       -1 0.78358836E-01 0.19200562E+04</pdfrwt>
<totfact> 0.61108279E+00</totfact>
</mgrwt>
</event>
<event>
12    1  0.2083715E-007  0.1495761E+04  0.7818608E-02  0.8887277E-01
          1   -1    0    0  501    0  0.00000000000E+00  0.00000000000E+00  0.13323324019E+04  0.13323324019E+04  0.00000000000E+00 0. -1.
         -1   -1    0    0    0  501 -0.00000000000E+00 -0.00000000000E+00 -0.41980917939E+03  0.41980917939E+03  0.00000000000E+00 0.  1.
         23    2    1    2    0    0 -0.26227093038E+03  0.28640395305E+03 -0.21081797271E+02  0.39965462439E+03  0.92011474161E+02 0.  0.
        254    2    1    2    0    0  0.26227093038E+03 -0.28640395305E+03  0.93360501981E+03  0.13524869569E+04  0.89821454586E+03 0.  0.
        -24    2    4    4    0    0  0.48418177567E+03  0.67116313922E+02  0.72669968004E+03  0.87942182806E+03  0.79710320602E+02 0.  0.
         24    2    4    4    0    0 -0.22191084529E+03 -0.35352026697E+03  0.20690533977E+03  0.47306512886E+03  0.82217967065E+02 0.  0.
         13    1    3    3    0    0 -0.21207881780E+03  0.27206937183E+03 -0.31598734109E+02  0.34640676674E+03  0.00000000000E+00 0.  1.
        -13    1    3    3    0    0 -0.50192112573E+02  0.14334581217E+02  0.10516936838E+02  0.53247857644E+02  0.00000000000E+00 0. -1.
          2    1    6    6  502    0 -0.15352709455E+03 -0.19355113337E+03  0.15445853504E+03  0.29135896938E+03  0.00000000000E+00 0. -1.
          1    1    5    5  503    0  0.46875791920E+03  0.74659850099E+02  0.67687025645E+03  0.82671725765E+03  0.00000000000E+00 0. -1.
         -2    1    5    5    0  503  0.15423856463E+02 -0.75435361777E+01  0.49829423590E+02  0.52704570405E+02  0.00000000000E+00 0.  1.
         -1    1    6    6    0  502 -0.68383750736E+02 -0.15996913359E+03  0.52446804726E+02  0.18170615948E+03  0.00000000000E+00 0.  1.
<mgrwt>
<rscale>  0 0.14957612E+04</rscale>
<asrwt>0</asrwt>
<pdfrwt beam="1">  1        1 0.20497421E+00 0.14957612E+04</pdfrwt>
<pdfrwt beam="2">  1       -1 0.64586028E-01 0.14957612E+04</pdfrwt>
<totfact> 0.20176471E+01</totfact>
</mgrwt>
</event>
<event>
12    1  0.2083715E-007  0.2478315E+04  0.7818608E-02  0.8410752E-01
         -1   -1    0    0    0  501 -0.00000000000E+00  0.00000000000E+00  0.64172674365E+03  0.64172674365E+03  0.00000000000E+00 0.  1.
          1   -1    0    0  501    0  0.00000000000E+00 -0.00000000000E+00 -0.23927798966E+04  0.23927798966E+04  0.00000000000E+00 0. -1.
         23    2    1    2    0    0 -0.78145395919E+03 -0.55940056002E+03 -0.17611224767E+03  0.98128461054E+03  0.91130051183E+02 0.  0.
        254    2    1    2    0    0  0.78145395919E+03  0.55940056002E+03 -0.15749409053E+04  0.20532220297E+04  0.90093427685E+03 0.  0.
        -24    2    4    4    0    0  0.21686741400E+03 -0.18754813616E+03 -0.73345793516E+03  0.79143208075E+03  0.78730027064E+02 0.  0.
         24    2    4    4    0    0  0.56458654519E+03  0.74694869617E+03 -0.84148297009E+03  0.12617899489E+04  0.85615211932E+02 0.  0.
         11    1    3    3    0    0 -0.69325746232E+03 -0.46264335462E+03 -0.13694465185E+03  0.84462927981E+03  0.00000000000E+00 0. -1.
        -11    1    3    3    0    0 -0.88196496869E+02 -0.96757205400E+02 -0.39167595815E+02  0.13665533074E+03  0.00000000000E+00 0.  1.
          2    1    6    6  502    0  0.82502490504E+02  0.14215369976E+03 -0.11428940812E+03  0.20019091914E+03  0.00000000000E+00 0. -1.
          3    1    5    5  503    0  0.14791265997E+03 -0.95181412902E+02 -0.51846995760E+03  0.54749315363E+03  0.00000000000E+00 0. -1.
         -4    1    5    5    0  503  0.68954754037E+02 -0.92366723253E+02 -0.21498797756E+03  0.24393892712E+03  0.00000000000E+00 0.  1.
         -1    1    6    6    0  502  0.48208405469E+03  0.60479499641E+03 -0.72719356197E+03  0.10615990298E+04  0.00000000000E+00 0.  1.
<mgrwt>
<rscale>  0 0.24783146E+04</rscale>
<asrwt>0</asrwt>
<pdfrwt beam="1">  1        1 0.36811999E+00 0.24783146E+04</pdfrwt>
<pdfrwt beam="2">  1       -1 0.98727191E-01 0.24783146E+04</pdfrwt>
<totfact> 0.14033611E+00</totfact>
</mgrwt>
</event>
<event>
12    1  0.2083715E-007  0.1688075E+04  0.7818608E-02  0.8768195E-01
         -1   -1    0    0    0  501 -0.00000000000E+00  0.00000000000E+00  0.32535245674E+03  0.32535245674E+03  0.00000000000E+00 0.  1.
          1   -1    0    0  501    0  0.00000000000E+00 -0.00000000000E+00 -0.21896221131E+04  0.21896221131E+04  0.00000000000E+00 0. -1.
         23    2    1    2    0    0  0.29761882553E+03 -0.45732271058E+03 -0.10433829416E+04  0.11810164488E+04  0.91819728433E+02 0.  0.
        254    2    1    2    0    0 -0.29761882553E+03  0.45732271058E+03 -0.82088671470E+03  0.13339581210E+04  0.89881491050E+03 0.  0.
        -24    2    4    4    0    0 -0.58413804723E+03  0.23149760103E+03 -0.32121613589E+03  0.71015582605E+03  0.79580737618E+02 0.  0.
         24    2    4    4    0    0  0.28651922170E+03  0.22582510955E+03 -0.49967057881E+03  0.62380229497E+03  0.79802076290E+02 0.  0.
         13    1    3    3    0    0  0.18648259037E+03 -0.34759940187E+03 -0.79759441703E+03  0.88980781901E+03  0.00000000000E+00 0. -1.
        -13    1    3    3    0    0  0.11113623516E+03 -0.10972330871E+03 -0.24578852461E+03  0.29120862980E+03  0.00000000000E+00 0.  1.
          4    1    6    6  502    0  0.21426096220E+03  0.20158489232E+03 -0.36221103263E+03  0.46662732549E+03  0.00000000000E+00 0. -1.
          3    1    5    5  503    0 -0.33528256747E+03  0.92839167347E+02 -0.16144339677E+03  0.38353289482E+03  0.00000000000E+00 0. -1.
         -4    1    5    5    0  503 -0.24885547976E+03  0.13865843368E+03 -0.15977273912E+03  0.32662293123E+03  0.00000000000E+00 0.  1.
         -3    1    6    6    0  502  0.72258259500E+02  0.24240217235E+02 -0.13745954617E+03  0.15717496948E+03  0.00000000000E+00 0.  1.
<mgrwt>
<rscale>  0 0.16880746E+04</rscale>
<asrwt>0</asrwt>
<pdfrwt beam="1">  1        1 0.33686493E+00 0.16880746E+04</pdfrwt>
<pdfrwt beam="2">  1       -1 0.50054225E-01 0.16880746E+04</pdfrwt>
<totfact> 0.84545116E+00</totfact>
</mgrwt>
</event>
<event>
12    1  0.2083715E-007  0.1706854E+04  0.7818608E-02  0.8757465E-01
         -1   -1    0    0    0  501 -0.00000000000E+00  0.00000000000E+00  0.13896626657E+04  0.13896626657E+04  0.00000000000E+00 0.  1.
          1   -1    0    0  501    0  0.00000000000E+00 -0.00000000000E+00 -0.52411115276E+03  0.52411115276E+03  0.00000000000E+00 0. -1.
         23    2    1    2    0    0 -0.34072710511E+03 -0.40380748402E+03 -0.31892585877E+02  0.53602083208E+03  0.84532544555E+02 0.  0.
        254    2    1    2    0    0  0.34072710511E+03  0.40380748402E+03  0.89744409884E+03  0.13777529864E+04  0.90202102895E+03 0.  0.
        -24    2    4    4    0    0 -0.14401651061E+03 -0.69673643949E+01  0.68263871496E+03  0.70171427327E+03  0.74953363201E+02 0.  0.
         24    2    4    4    0    0  0.48474361572E+03  0.41077484841E+03  0.21480538387E+03  0.67603871311E+03  0.84703244422E+02 0.  0.
         13    1    3    3    0    0 -0.17473333390E+03 -0.21727097374E+03 -0.58566410465E+02  0.28490075191E+03  0.00000000000E+00 0. -1.
        -13    1    3    3    0    0 -0.16599377121E+03 -0.18653651028E+03  0.26673824587E+02  0.25112008017E+03  0.00000000000E+00 0.  1.
          2    1    6    6  502    0  0.45711282723E+03  0.35641213456E+03  0.18738235426E+03  0.60917476406E+03  0.00000000000E+00 0. -1.
          3    1    5    5  503    0 -0.14128738566E+03  0.13416923123E+02  0.59926452808E+03  0.61584098093E+03  0.00000000000E+00 0. -1.
         -4    1    5    5    0  503 -0.27291249591E+01 -0.20384287518E+02  0.83374186881E+02  0.85873292348E+02  0.00000000000E+00 0.  1.
         -1    1    6    6    0  502  0.27630788497E+02  0.54362713848E+02  0.27423029619E+02  0.66863949056E+02  0.00000000000E+00 0.  1.
<mgrwt>
<rscale>  0 0.17068541E+04</rscale>
<asrwt>0</asrwt>
<pdfrwt beam="1">  1        1 0.80632485E-01 0.17068541E+04</pdfrwt>
<pdfrwt beam="2">  1       -1 0.21379426E+00 0.17068541E+04</pdfrwt>
<totfact> 0.47829604E+00</totfact>
</mgrwt>
</event>
<event>
12    1  0.2083715E-007  0.3136779E+04  0.7818608E-02  0.8205716E-01
          1   -1    0    0  501    0  0.00000000000E+00  0.00000000000E+00  0.17469026224E+04  0.17469026224E+04  0.00000000000E+00 0. -1.
         -1   -1    0    0    0  501 -0.00000000000E+00 -0.00000000000E+00 -0.14081182230E+04  0.14081182230E+04  0.00000000000E+00 0.  1.
         23    2    1    2    0    0  0.75543598837E+02 -0.79077672209E+03 -0.10502779026E+04  0.13195141379E+04  0.83661388353E+02 0.  0.
        254    2    1    2    0    0 -0.75543598837E+02  0.79077672209E+03  0.13890623020E+04  0.18355067075E+04  0.89919749484E+03 0.  0.
        -24    2    4    4    0    0  0.53538539367E+02  0.69741084091E+03  0.35923512523E+03  0.79033314901E+03  0.79550958586E+02 0.  0.
         24    2    4    4    0    0 -0.12908213820E+03  0.93365881178E+02  0.10298271768E+04  0.10451735585E+04  0.80401287581E+02 0.  0.
         11    1    3    3    0    0 -0.16743920860E+02 -0.20001261654E+03 -0.25375499071E+03  0.32353825272E+03  0.00000000000E+00 0.  1.
        -11    1    3    3    0    0  0.92287519697E+02 -0.59076410554E+03 -0.79652291191E+03  0.99597588520E+03  0.00000000000E+00 0. -1.
          2    1    6    6  502    0 -0.89147052123E+02  0.93173356986E+02  0.61174088825E+03  0.62518428140E+03  0.00000000000E+00 0. -1.
          1    1    5    5  503    0  0.21274689022E+02  0.10236725570E+03  0.26687821366E+02  0.10790693787E+03  0.00000000000E+00 0. -1.
         -2    1    5    5    0  503  0.32263850345E+02  0.59504358521E+03  0.33254730386E+03  0.68242621114E+03  0.00000000000E+00 0.  1.
         -1    1    6    6    0  502 -0.39935086081E+02  0.19252419155E+00  0.41808628856E+03  0.41998927706E+03  0.00000000000E+00 0.  1.
<mgrwt>
<rscale>  0 0.31367789E+04</rscale>
<asrwt>0</asrwt>
<pdfrwt beam="1">  1        1 0.26875425E+00 0.31367789E+04</pdfrwt>
<pdfrwt beam="2">  1       -1 0.21663357E+00 0.31367789E+04</pdfrwt>
<totfact> 0.43181191E-01</totfact>
</mgrwt>
</event>
<event>
12    1  0.2083715E-007  0.3269901E+04  0.7818608E-02  0.8170596E-01
          2   -1    0    0  501    0  0.00000000000E+00  0.00000000000E+00  0.19967213879E+04  0.19967213879E+04  0.00000000000E+00 0. -1.
         -2   -1    0    0    0  501 -0.00000000000E+00 -0.00000000000E+00 -0.13387265594E+04  0.13387265594E+04  0.00000000000E+00 0.  1.
         23    2    1    2    0    0 -0.13466898043E+04 -0.14289798444E+03  0.98492760622E+03  0.16770892941E+04  0.92481609284E+02 0.  0.
        254    2    1    2    0    0  0.13466898043E+04  0.14289798444E+03 -0.32693277765E+03  0.16583586532E+04  0.89959719794E+03 0.  0.
        -24    2    4    4    0    0  0.37624649785E+03  0.99621894139E+02  0.30142763518E+03  0.49873814891E+03  0.79969825492E+02 0.  0.
         24    2    4    4    0    0  0.97044330643E+03  0.43276090300E+02 -0.62836041283E+03  0.11596205043E+04  0.79056147796E+02 0.  0.
         13    1    3    3    0    0 -0.68507059299E+03 -0.77678668453E+02  0.55817293264E+03  0.88708100850E+03  0.00000000000E+00 0. -1.
        -13    1    3    3    0    0 -0.66161921130E+03 -0.65219315985E+02  0.42675467358E+03  0.79000828562E+03  0.00000000000E+00 0.  1.
          4    1    6    6  502    0  0.31400936514E+03 -0.22978846699E+02 -0.20211881773E+03  0.37414158452E+03  0.00000000000E+00 0. -1.
          3    1    5    5  503    0  0.12844113796E+03 -0.33690442671E+01  0.10945468437E+03  0.16878626814E+03  0.00000000000E+00 0. -1.
         -4    1    5    5    0  503  0.24780535989E+03  0.10299093841E+03  0.19197295081E+03  0.32995188077E+03  0.00000000000E+00 0.  1.
         -3    1    6    6    0  502  0.65643394129E+03  0.66254936999E+02 -0.42624159510E+03  0.78547891974E+03  0.00000000000E+00 0.  1.
<mgrwt>
<rscale>  0 0.32699015E+04</rscale>
<asrwt>0</asrwt>
<pdfrwt beam="1">  1        2 0.30718791E+00 0.32699015E+04</pdfrwt>
<pdfrwt beam="2">  1       -2 0.20595793E+00 0.32699015E+04</pdfrwt>
<totfact> 0.68316408E-01</totfact>
</mgrwt>
</event>
<event>
12    1  0.2083715E-007  0.1099817E+04  0.7818608E-02  0.9205370E-01
         -1   -1    0    0    0  501 -0.00000000000E+00  0.00000000000E+00  0.62447326973E+03  0.62447326973E+03  0.00000000000E+00 0.  1.
          1   -1    0    0  501    0  0.00000000000E+00 -0.00000000000E+00 -0.48424690373E+03  0.48424690373E+03  0.00000000000E+00 0. -1.
         23    2    1    2    0    0  0.14145753467E+03  0.44970321392E+02  0.11775424304E+02  0.17475528380E+03  0.91477782413E+02 0.  0.
        254    2    1    2    0    0 -0.14145753467E+03 -0.44970321392E+02  0.12845094170E+03  0.93396488967E+03  0.91310361229E+03 0.  0.
        -24    2    4    4    0    0 -0.81346268984E+01 -0.41117387506E+03  0.28476616681E+03  0.50666099935E+03  0.80520002573E+02 0.  0.
         24    2    4    4    0    0 -0.13332290778E+03  0.36620355367E+03 -0.15631522512E+03  0.42730389032E+03  0.79209372064E+02 0.  0.
         11    1    3    3    0    0  0.10092677590E+03  0.73018489310E+02  0.14373936483E+02  0.12539746379E+03  0.00000000000E+00 0.  1.
        -11    1    3    3    0    0  0.40530758776E+02 -0.28048167918E+02 -0.25985121792E+01  0.49357820010E+02  0.00000000000E+00 0. -1.
          2    1    6    6  502    0 -0.38653798353E+02  0.17374049546E+03 -0.10540843591E+03  0.20685940696E+03  0.00000000000E+00 0. -1.
          1    1    5    5  503    0 -0.43522217394E+02 -0.26520270963E+03  0.17700509028E+03  0.32180345335E+03  0.00000000000E+00 0. -1.
         -2    1    5    5    0  503  0.35387590495E+02 -0.14597116543E+03  0.10776107654E+03  0.18485754600E+03  0.00000000000E+00 0.  1.
         -1    1    6    6    0  502 -0.94669109424E+02  0.19246305821E+03 -0.50906789207E+02  0.22044448335E+03  0.00000000000E+00 0.  1.
<mgrwt>
<rscale>  0 0.10998168E+04</rscale>
<asrwt>0</asrwt>
<pdfrwt beam="1">  1        1 0.74499523E-01 0.10998168E+04</pdfrwt>
<pdfrwt beam="2">  1       -1 0.96072811E-01 0.10998168E+04</pdfrwt>
<totfact> 0.48220550E+01</totfact>
</mgrwt>
</event>
<event>
12    1  0.2083715E-007  0.2028691E+04  0.7818608E-02  0.8593323E-01
         -2   -1    0    0    0  501 -0.00000000000E+00  0.00000000000E+00  0.38010356307E+03  0.38010356307E+03  0.00000000000E+00 0. -1.
          2   -1    0    0  501    0  0.00000000000E+00 -0.00000000000E+00 -0.27068856255E+04  0.27068856255E+04  0.00000000000E+00 0.  1.
         23    2    1    2    0    0 -0.32525157417E+03 -0.63537845796E+03 -0.15271786740E+04  0.16882601153E+04  0.91940977148E+02 0.  0.
        254    2    1    2    0    0  0.32525157417E+03  0.63537845796E+03 -0.79960338843E+03  0.13987290733E+04  0.89865625810E+03 0.  0.
        -24    2    4    4    0    0 -0.10621857873E+03  0.43994066998E+03 -0.79512247858E+03  0.91833656105E+03  0.79322782665E+02 0.  0.
         24    2    4    4    0    0  0.43147015291E+03  0.19543778798E+03 -0.44809098494E+01  0.48039251220E+03  0.79965401288E+02 0.  0.
         13    1    3    3    0    0 -0.16979545078E+03 -0.42575815845E+03 -0.99804836733E+03  0.10982718462E+04  0.00000000000E+00 0.  1.
        -13    1    3    3    0    0 -0.15545612339E+03 -0.20962029952E+03 -0.52913030669E+03  0.58998826915E+03  0.00000000000E+00 0. -1.
          4    1    6    6  502    0  0.19094484288E+03  0.10125412004E+03  0.35443879035E+02  0.21901734728E+03  0.00000000000E+00 0. -1.
          3    1    5    5  503    0 -0.72191909241E+02  0.40186142595E+03 -0.69999524320E+03  0.81036881599E+03  0.00000000000E+00 0. -1.
         -4    1    5    5    0  503 -0.34026669493E+02  0.38079244033E+02 -0.95127235377E+02  0.10796774506E+03  0.00000000000E+00 0.  1.
         -3    1    6    6    0  502  0.24052531003E+03  0.94183667944E+02 -0.39924788884E+02  0.26137516492E+03  0.00000000000E+00 0.  1.
<mgrwt>
<rscale>  0 0.20286911E+04</rscale>
<asrwt>0</asrwt>
<pdfrwt beam="1">  1        2 0.41644393E+00 0.20286911E+04</pdfrwt>
<pdfrwt beam="2">  1       -2 0.58477473E-01 0.20286911E+04</pdfrwt>
<totfact> 0.66741100E+00</totfact>
</mgrwt>
</event>
<event>
12    1  0.2083715E-007  0.1730500E+04  0.7818608E-02  0.8744158E-01
          2   -1    0    0  501    0  0.00000000000E+00  0.00000000000E+00  0.22564933790E+04  0.22564933790E+04  0.00000000000E+00 0. -1.
         -2   -1    0    0    0  501 -0.00000000000E+00 -0.00000000000E+00 -0.33177906938E+03  0.33177906938E+03  0.00000000000E+00 0.  1.
         23    2    1    2    0    0 -0.42134525304E+03 -0.43049587898E+03  0.45388200771E+03  0.76045703736E+03  0.97095337995E+02 0.  0.
        254    2    1    2    0    0  0.42134525304E+03  0.43049587898E+03  0.14708323019E+04  0.18278154111E+04  0.90260899198E+03 0.  0.
        -24    2    4    4    0    0  0.48930448389E+03  0.29705207094E+03  0.31268458656E+03  0.65724261574E+03  0.80854155552E+02 0.  0.
         24    2    4    4    0    0 -0.67959230850E+02  0.13344380804E+03  0.11581477154E+04  0.11705727953E+04  0.80677329726E+02 0.  0.
         13    1    3    3    0    0 -0.20530827879E+03 -0.24475156126E+03  0.18752541427E+03  0.37043298594E+03  0.00000000000E+00 0.  1.
        -13    1    3    3    0    0 -0.21603697426E+03 -0.18574431772E+03  0.26635659345E+03  0.39002405142E+03  0.00000000000E+00 0. -1.
          4    1    6    6  502    0 -0.34892079138E+02  0.17733978912E+02  0.49876587732E+03  0.50029926202E+03  0.00000000000E+00 0. -1.
          1    1    5    5  503    0  0.13867265571E+03  0.93078274559E+02  0.13337127199E+03  0.21373246555E+03  0.00000000000E+00 0. -1.
         -2    1    5    5    0  503  0.35063182818E+03  0.20397379638E+03  0.17931331457E+03  0.44351015019E+03  0.00000000000E+00 0.  1.
         -3    1    6    6    0  502 -0.33067151712E+02  0.11570982913E+03  0.65938183807E+03  0.67027353331E+03  0.00000000000E+00 0.  1.
<mgrwt>
<rscale>  0 0.17304997E+04</rscale>
<asrwt>0</asrwt>
<pdfrwt beam="1">  1        2 0.34715282E+00 0.17304997E+04</pdfrwt>
<pdfrwt beam="2">  1       -2 0.51042935E-01 0.17304997E+04</pdfrwt>
<totfact> 0.16533831E+01</totfact>
</mgrwt>
</event>
<event>
12    1  0.2083715E-007  0.2025694E+04  0.7818608E-02  0.8594701E-01
          1   -1    0    0  501    0  0.00000000000E+00  0.00000000000E+00  0.15724301370E+04  0.15724301370E+04  0.00000000000E+00 0. -1.
         -1   -1    0    0    0  501 -0.00000000000E+00 -0.00000000000E+00 -0.65240356059E+03  0.65240356059E+03  0.00000000000E+00 0.  1.
         23    2    1    2    0    0  0.66419271404E+03 -0.18889680968E+03 -0.92477878998E+02  0.70395808070E+03  0.10085065785E+03 0.  0.
        254    2    1    2    0    0 -0.66419271404E+03  0.18889680968E+03  0.10125044554E+04  0.15208756169E+04  0.90059058611E+03 0.  0.
        -24    2    4    4    0    0 -0.68565551293E+03  0.46888786713E+03  0.82339359511E+03  0.11721470701E+04  0.77281480061E+02 0.  0.
         24    2    4    4    0    0  0.21462798892E+02 -0.27999105745E+03  0.18911086033E+03  0.34872854681E+03  0.83624385659E+02 0.  0.
         13    1    3    3    0    0  0.27523253443E+03 -0.11662252361E+03 -0.73815653691E+02  0.30790016524E+03  0.00000000000E+00 0. -1.
        -13    1    3    3    0    0  0.38896017961E+03 -0.72274286070E+02 -0.18662225307E+02  0.39605791546E+03  0.00000000000E+00 0.  1.
          2    1    6    6  502    0 -0.42644448074E+01 -0.25568471233E+02  0.53096826345E+02  0.59086421271E+02  0.00000000000E+00 0. -1.
          1    1    5    5  503    0 -0.17454286709E+03  0.95705577593E+02  0.23557306943E+03  0.30841439829E+03  0.00000000000E+00 0. -1.
         -2    1    5    5    0  503 -0.51111264585E+03  0.37318228954E+03  0.58782052568E+03  0.86373267183E+03  0.00000000000E+00 0.  1.
         -1    1    6    6    0  502  0.25727243699E+02 -0.25442258622E+03  0.13601403399E+03  0.28964212554E+03  0.00000000000E+00 0.  1.
<mgrwt>
<rscale>  0 0.20256940E+04</rscale>
<asrwt>0</asrwt>
<pdfrwt beam="1">  1        1 0.24191233E+00 0.20256940E+04</pdfrwt>
<pdfrwt beam="2">  1       -1 0.10036978E+00 0.20256940E+04</pdfrwt>
<totfact> 0.50989696E+00</totfact>
</mgrwt>
</event>
<event>
12    1  0.2083715E-007  0.1837584E+04  0.7818608E-02  0.8686564E-01
         -2   -1    0    0    0  501 -0.00000000000E+00  0.00000000000E+00  0.92497083830E+03  0.92497083830E+03  0.00000000000E+00 0.  1.
          2   -1    0    0  501    0  0.00000000000E+00 -0.00000000000E+00 -0.91265478203E+03  0.91265478203E+03  0.00000000000E+00 0. -1.
         23    2    1    2    0    0 -0.40394887672E+03 -0.48006160508E+03  0.30811528221E+03  0.70458930878E+03  0.88753744997E+02 0.  0.
        254    2    1    2    0    0  0.40394887672E+03  0.48006160508E+03 -0.29579922593E+03  0.11330363115E+04  0.89590192631E+03 0.  0.
        -24    2    4    4    0    0  0.58445387095E+03  0.35021567021E+03 -0.47741919017E+03  0.83611312802E+03  0.83178944324E+02 0.  0.
         24    2    4    4    0    0 -0.18050499423E+03  0.12984593486E+03  0.18161996425E+03  0.29692318353E+03  0.75733386030E+02 0.  0.
         13    1    3    3    0    0 -0.79298176431E+02 -0.10665573881E+03  0.10640322162E+03  0.17025067688E+03  0.00000000000E+00 0.  1.
        -13    1    3    3    0    0 -0.32465070029E+03 -0.37340586627E+03  0.20171206059E+03  0.53433863190E+03  0.00000000000E+00 0. -1.
          2    1    6    6  502    0 -0.39633082489E+02  0.71352554799E+02  0.52219430222E+02  0.96896012285E+02  0.00000000000E+00 0. -1.
          3    1    5    5  503    0  0.31378156957E+03  0.13968388117E+03 -0.23499384285E+03  0.41616410974E+03  0.00000000000E+00 0. -1.
         -4    1    5    5    0  503  0.27067230138E+03  0.21053178904E+03 -0.24242534732E+03  0.41994901828E+03  0.00000000000E+00 0.  1.
         -1    1    6    6    0  502 -0.14087191174E+03  0.58493380063E+02  0.12940053403E+03  0.20002717124E+03  0.00000000000E+00 0.  1.
<mgrwt>
<rscale>  0 0.18375843E+04</rscale>
<asrwt>0</asrwt>
<pdfrwt beam="1">  1        2 0.14040843E+00 0.18375843E+04</pdfrwt>
<pdfrwt beam="2">  1       -2 0.14230321E+00 0.18375843E+04</pdfrwt>
<totfact> 0.93128027E+00</totfact>
</mgrwt>
</event>
<event>
12    1  0.2083715E-007  0.1961052E+04  0.7818608E-02  0.8625050E-01
          1   -1    0    0  501    0  0.00000000000E+00  0.00000000000E+00  0.28578906008E+04  0.28578906008E+04  0.00000000000E+00 0. -1.
         -1   -1    0    0    0  501 -0.00000000000E+00 -0.00000000000E+00 -0.33641285555E+03  0.33641285555E+03  0.00000000000E+00 0.  1.
         23    2    1    2    0    0 -0.66590736831E+03  0.30152134996E+03  0.13959017336E+04  0.15784973812E+04  0.93619361398E+02 0.  0.
        254    2    1    2    0    0  0.66590736831E+03 -0.30152134996E+03  0.11255760116E+04  0.16158060751E+04  0.89975561511E+03 0.  0.
        -24    2    4    4    0    0  0.15819937885E+03 -0.17706063573E+03  0.10521263802E+04  0.10817656993E+04  0.82883026831E+02 0.  0.
         24    2    4    4    0    0  0.50770798946E+03 -0.12446071423E+03  0.73449631441E+02  0.53404037585E+03  0.80909843235E+02 0.  0.
         13    1    3    3    0    0 -0.21356054737E+03  0.13467004360E+03  0.54095092744E+03  0.59696903934E+03  0.00000000000E+00 0. -1.
        -13    1    3    3    0    0 -0.45234682094E+03  0.16685130636E+03  0.85495080619E+03  0.98152834185E+03  0.00000000000E+00 0.  1.
          4    1    6    6  502    0  0.20521609004E+03 -0.68924939203E+02  0.66310894499E+02  0.22640986194E+03  0.00000000000E+00 0. -1.
          1    1    5    5  503    0  0.25350913246E+02  0.34019062840E+01  0.15375230390E+03  0.15586536730E+03  0.00000000000E+00 0. -1.
         -2    1    5    5    0  503  0.13284846560E+03 -0.18046254201E+03  0.89837407626E+03  0.92590033199E+03  0.00000000000E+00 0.  1.
         -3    1    6    6    0  502  0.30249189943E+03 -0.55535775029E+02  0.71387369422E+01  0.30763051392E+03  0.00000000000E+00 0.  1.
<mgrwt>
<rscale>  0 0.19610519E+04</rscale>
<asrwt>0</asrwt>
<pdfrwt beam="1">  1        1 0.43967546E+00 0.19610519E+04</pdfrwt>
<pdfrwt beam="2">  1       -1 0.51755826E-01 0.19610519E+04</pdfrwt>
<totfact> 0.26534833E+00</totfact>
</mgrwt>
</event>
<event>
12    1  0.2083715E-007  0.1841252E+04  0.7818608E-02  0.8684665E-01
          2   -1    0    0  501    0  0.00000000000E+00  0.00000000000E+00  0.10068477981E+04  0.10068477981E+04  0.00000000000E+00 0. -1.
         -2   -1    0    0    0  501 -0.00000000000E+00 -0.00000000000E+00 -0.84178757928E+03  0.84178757928E+03  0.00000000000E+00 0.  1.
         23    2    1    2    0    0 -0.18475920433E+03  0.41959290103E+03 -0.46411690923E+03  0.65883810248E+03  0.92027026851E+02 0.  0.
        254    2    1    2    0    0  0.18475920433E+03 -0.41959290103E+03  0.62917712803E+03  0.11897972749E+04  0.89975526153E+03 0.  0.
        -24    2    4    4    0    0 -0.26166859030E+03  0.12140987902E+03  0.13804037834E+03  0.32960608495E+03  0.79838683021E+02 0.  0.
         24    2    4    4    0    0  0.44642779463E+03 -0.54100278005E+03  0.49113674969E+03  0.86019118992E+03  0.82047501317E+02 0.  0.
         11    1    3    3    0    0 -0.75175347677E+02  0.28127205560E+03 -0.28846501266E+03  0.40985041867E+03  0.00000000000E+00 0.  1.
        -11    1    3    3    0    0 -0.10958385665E+03  0.13832084543E+03 -0.17565189657E+03  0.24898768381E+03  0.00000000000E+00 0. -1.
          2    1    6    6  502    0  0.10672558432E+03 -0.17670164690E+03  0.11757056358E+03  0.23756401198E+03  0.00000000000E+00 0. -1.
          1    1    5    5  503    0 -0.93945820061E+02  0.86162462744E+02  0.67810334844E+02  0.14438846424E+03  0.00000000000E+00 0. -1.
         -2    1    5    5    0  503 -0.16772277024E+03  0.35247416276E+02  0.70230043498E+02  0.18521762071E+03  0.00000000000E+00 0.  1.
         -1    1    6    6    0  502  0.33970221031E+03 -0.36430113315E+03  0.37356618610E+03  0.62262717793E+03  0.00000000000E+00 0.  1.
<mgrwt>
<rscale>  0 0.18412517E+04</rscale>
<asrwt>0</asrwt>
<pdfrwt beam="1">  1        2 0.15489966E+00 0.18412517E+04</pdfrwt>
<pdfrwt beam="2">  1       -2 0.12950578E+00 0.18412517E+04</pdfrwt>
<totfact> 0.10288740E+01</totfact>
</mgrwt>
</event>
<event>
12    1  0.2143873E-007  0.3334409E+04  0.7818608E-02  0.8154195E-01
         -1   -1    0    0    0  501 -0.00000000000E+00  0.00000000000E+00  0.16774409894E+04  0.16774409894E+04  0.00000000000E+00 0.  1.
          1   -1    0    0  501    0  0.00000000000E+00 -0.00000000000E+00 -0.16570304494E+04  0.16570304494E+04  0.00000000000E+00 0. -1.
         23    2    1    2    0    0  0.12337956829E+04 -0.21654604848E+02 -0.91855173866E+03  0.15410790508E+04  0.92014319832E+02 0.  0.
        254    2    1    2    0    0 -0.12337956829E+04  0.21654604848E+02  0.93896227869E+03  0.17933923881E+04  0.90104682886E+03 0.  0.
        -24    2    4    4    0    0 -0.48098044672E+03 -0.41957286409E+03  0.30302986577E+03  0.71071799137E+03  0.76872526384E+02 0.  0.
         24    2    4    4    0    0 -0.75281523619E+03  0.44122746894E+03  0.63593241292E+03  0.10826743967E+04  0.79758111313E+02 0.  0.
         13    1    3    3    0    0  0.51236112199E+03 -0.54354020541E+02 -0.38206935637E+03  0.64143999872E+03  0.00000000000E+00 0. -1.
        -13    1    3    3    0    0  0.72143456091E+03  0.32699415693E+02 -0.53648238229E+03  0.89963905205E+03  0.00000000000E+00 0.  1.
          4    1    6    6  502    0 -0.41453884573E+03  0.27051235304E+03  0.39900147844E+03  0.63578421462E+03  0.00000000000E+00 0. -1.
          1    1    5    5  503    0 -0.32068379216E+03 -0.25638439078E+03  0.15832554121E+03  0.44004321082E+03  0.00000000000E+00 0. -1.
         -2    1    5    5    0  503 -0.16029665456E+03 -0.16318847330E+03  0.14470432456E+03  0.27067478055E+03  0.00000000000E+00 0.  1.
         -3    1    6    6    0  502 -0.33827639046E+03  0.17071511590E+03  0.23693093448E+03  0.44689018209E+03  0.00000000000E+00 0.  1.
<mgrwt>
<rscale>  0 0.33344090E+04</rscale>
<asrwt>0</asrwt>
<pdfrwt beam="1">  1        1 0.25492776E+00 0.33344090E+04</pdfrwt>
<pdfrwt beam="2">  1       -1 0.25806784E+00 0.33344090E+04</pdfrwt>
<totfact> 0.26054921E-01</totfact>
</mgrwt>
</event>
<event>
12    1  0.2083715E-007  0.1888362E+04  0.7818608E-02  0.8660671E-01
         -2   -1    0    0    0  501 -0.00000000000E+00  0.00000000000E+00  0.50109628673E+03  0.50109628673E+03  0.00000000000E+00 0.  1.
          2   -1    0    0  501    0  0.00000000000E+00 -0.00000000000E+00 -0.17790555339E+04  0.17790555339E+04  0.00000000000E+00 0. -1.
         23    2    1    2    0    0  0.46585396649E+03 -0.51852707749E+03 -0.73951707173E+03  0.10213382121E+04  0.10176441366E+03 0.  0.
        254    2    1    2    0    0 -0.46585396649E+03  0.51852707749E+03 -0.53844217549E+03  0.12588136086E+04  0.89933390721E+03 0.  0.
        -24    2    4    4    0    0  0.92283131413E+01  0.23720533374E+03  0.20936583355E+03  0.32611774657E+03  0.78531523942E+02 0.  0.
         24    2    4    4    0    0 -0.47508227964E+03  0.28132174375E+03 -0.74780800903E+03  0.93269586203E+03  0.76548394722E+02 0.  0.
         13    1    3    3    0    0  0.38714417682E+03 -0.46801488255E+03 -0.67308673013E+03  0.90662246288E+03  0.00000000000E+00 0. -1.
        -13    1    3    3    0    0  0.78709789673E+02 -0.50512194939E+02 -0.66430341603E+02  0.11471574920E+03  0.00000000000E+00 0.  1.
          4    1    6    6  502    0 -0.48684663120E+02  0.46802082236E+02 -0.12751476111E+03  0.14429360909E+03  0.00000000000E+00 0. -1.
          3    1    5    5  503    0  0.38018504944E+01  0.40252345223E+02  0.26082488197E+01  0.40515531899E+02  0.00000000000E+00 0. -1.
         -4    1    5    5    0  503  0.54264626469E+01  0.19695298852E+03  0.20675758473E+03  0.28560221467E+03  0.00000000000E+00 0.  1.
         -3    1    6    6    0  502 -0.42639761652E+03  0.23451966151E+03 -0.62029324793E+03  0.78840225293E+03  0.00000000000E+00 0.  1.
<mgrwt>
<rscale>  0 0.18883624E+04</rscale>
<asrwt>0</asrwt>
<pdfrwt beam="1">  1        2 0.27370086E+00 0.18883624E+04</pdfrwt>
<pdfrwt beam="2">  1       -2 0.77091735E-01 0.18883624E+04</pdfrwt>
<totfact> 0.12477873E+01</totfact>
</mgrwt>
</event>
<event>
12    1  0.2083715E-007  0.1435389E+04  0.7818608E-02  0.8928593E-01
         -1   -1    0    0    0  501 -0.00000000000E+00  0.00000000000E+00  0.25939136593E+04  0.25939136593E+04  0.00000000000E+00 0.  1.
          1   -1    0    0  501    0  0.00000000000E+00 -0.00000000000E+00 -0.19857465603E+03  0.19857465603E+03  0.00000000000E+00 0. -1.
         23    2    1    2    0    0  0.17850612161E+03 -0.67265383889E+02 -0.12589469047E+02  0.21460033482E+03  0.97497393054E+02 0.  0.
        254    2    1    2    0    0 -0.17850612161E+03  0.67265383889E+02  0.24079284723E+04  0.25778879805E+04  0.90055418772E+03 0.  0.
        -24    2    4    4    0    0 -0.71007994539E+02 -0.10817865915E+03 -0.61813815289E+01  0.15370073480E+03  0.82710028511E+02 0.  0.
         24    2    4    4    0    0 -0.10749812707E+03  0.17544404303E+03  0.24141098539E+04  0.24241872457E+04  0.80130870147E+02 0.  0.
         11    1    3    3    0    0  0.89630504579E+02 -0.56781438336E+02 -0.50380730730E+02  0.11745627748E+03  0.00000000000E+00 0. -1.
        -11    1    3    3    0    0  0.88875617027E+02 -0.10483945552E+02  0.37791261683E+02  0.97144057337E+02  0.00000000000E+00 0.  1.
          2    1    6    6  502    0 -0.36731576832E+02  0.10599013207E+03  0.92441491339E+03  0.93119603141E+03  0.00000000000E+00 0. -1.
          3    1    5    5  503    0 -0.82645089327E+02 -0.87216850263E+02  0.15781895089E+02  0.12118604694E+03  0.00000000000E+00 0. -1.
         -4    1    5    5    0  503  0.11637094788E+02 -0.20961808883E+02 -0.21963276618E+02  0.32514687859E+02  0.00000000000E+00 0.  1.
         -1    1    6    6    0  502 -0.70766550234E+02  0.69453910963E+02  0.14896949405E+04  0.14929912143E+04  0.00000000000E+00 0.  1.
<mgrwt>
<rscale>  0 0.14353892E+04</rscale>
<asrwt>0</asrwt>
<pdfrwt beam="1">  1        1 0.30549949E-01 0.14353892E+04</pdfrwt>
<pdfrwt beam="2">  1       -1 0.39906362E+00 0.14353892E+04</pdfrwt>
<totfact> 0.10688232E+00</totfact>
</mgrwt>
</event>
<event>
12    1  0.2083715E-007  0.1319476E+04  0.7818608E-02  0.9014262E-01
         -2   -1    0    0    0  501 -0.00000000000E+00  0.00000000000E+00  0.25892377530E+03  0.25892377530E+03  0.00000000000E+00 0.  1.
          2   -1    0    0  501    0  0.00000000000E+00 -0.00000000000E+00 -0.16810120798E+04  0.16810120798E+04  0.00000000000E+00 0. -1.
         23    2    1    2    0    0  0.27851792484E+03  0.19627002011E+03 -0.28615733517E+03  0.45430604741E+03  0.91726817150E+02 0.  0.
        254    2    1    2    0    0 -0.27851792484E+03 -0.19627002011E+03 -0.11359309693E+04  0.14856298077E+04  0.89479752075E+03 0.  0.
        -24    2    4    4    0    0 -0.17776399234E+03 -0.54675628335E+03 -0.63120057381E+03  0.85770674935E+03  0.81879381713E+02 0.  0.
         24    2    4    4    0    0 -0.10075393250E+03  0.35048626324E+03 -0.50473039551E+03  0.62792305832E+03  0.80886459900E+02 0.  0.
         13    1    3    3    0    0  0.17319578794E+03  0.10483191685E+03 -0.22301938749E+03  0.30120451349E+03  0.00000000000E+00 0. -1.
        -13    1    3    3    0    0  0.10532213691E+03  0.91438103262E+02 -0.63137947680E+02  0.15310153392E+03  0.00000000000E+00 0.  1.
          2    1    6    6  502    0  0.19332322762E+01  0.72914241696E+02 -0.14316841114E+03  0.16067799469E+03  0.00000000000E+00 0. -1.
          1    1    5    5  503    0 -0.16705463831E+03 -0.40118798489E+03 -0.46291676543E+03  0.63494171632E+03  0.00000000000E+00 0. -1.
         -2    1    5    5    0  503 -0.10709354023E+02 -0.14556829846E+03 -0.16828380837E+03  0.22276503303E+03  0.00000000000E+00 0.  1.
         -1    1    6    6    0  502 -0.10268716478E+03  0.27757202154E+03 -0.36156198437E+03  0.46724506364E+03  0.00000000000E+00 0.  1.
<mgrwt>
<rscale>  0 0.13194756E+04</rscale>
<asrwt>0</asrwt>
<pdfrwt beam="1">  1        2 0.25861724E+00 0.13194756E+04</pdfrwt>
<pdfrwt beam="2">  1       -2 0.39834428E-01 0.13194756E+04</pdfrwt>
<totfact> 0.58638106E+01</totfact>
</mgrwt>
</event>
<event>
12    1  0.2083715E-007  0.1601603E+04  0.7818608E-02  0.8819564E-01
         -2   -1    0    0    0  501 -0.00000000000E+00  0.00000000000E+00  0.81706894969E+03  0.81706894969E+03  0.00000000000E+00 0.  1.
          2   -1    0    0  501    0  0.00000000000E+00 -0.00000000000E+00 -0.78485836111E+03  0.78485836111E+03  0.00000000000E+00 0. -1.
         23    2    1    2    0    0  0.10859107762E+03 -0.39027760444E+03 -0.34973593531E+03  0.54340630663E+03  0.94162407449E+02 0.  0.
        254    2    1    2    0    0 -0.10859107762E+03  0.39027760444E+03  0.38194652389E+03  0.10585210042E+04  0.90026381605E+03 0.  0.
        -24    2    4    4    0    0 -0.13028632394E+03 -0.24643343551E+03  0.28881953198E+03  0.40972458185E+03  0.82179964575E+02 0.  0.
         24    2    4    4    0    0  0.21695246318E+02  0.63671103995E+03  0.93126991908E+02  0.64879642232E+03  0.79953291898E+02 0.  0.
         11    1    3    3    0    0  0.13974940858E+02 -0.22288371854E+03 -0.19816354761E+03  0.29856530704E+03  0.00000000000E+00 0.  1.
        -11    1    3    3    0    0  0.94616136763E+02 -0.16739388589E+03 -0.15157238770E+03  0.24484099959E+03  0.00000000000E+00 0. -1.
          4    1    6    6  502    0 -0.59424743690E+01  0.35883375940E+01  0.58716263497E+01  0.90920385121E+01  0.00000000000E+00 0. -1.
          3    1    5    5  503    0  0.25190249786E+01 -0.63696876798E+01 -0.44231957481E+01  0.81537150188E+01  0.00000000000E+00 0. -1.
         -4    1    5    5    0  503 -0.13280534892E+03 -0.24006374783E+03  0.29324272773E+03  0.40157086683E+03  0.00000000000E+00 0.  1.
         -3    1    6    6    0  502  0.27637720687E+02  0.63312270235E+03  0.87255365558E+02  0.63970438381E+03  0.00000000000E+00 0.  1.
<mgrwt>
<rscale>  0 0.16016034E+04</rscale>
<asrwt>0</asrwt>
<pdfrwt beam="1">  1        2 0.12074744E+00 0.16016034E+04</pdfrwt>
<pdfrwt beam="2">  1       -2 0.12570292E+00 0.16016034E+04</pdfrwt>
<totfact> 0.16013390E+01</totfact>
</mgrwt>
</event>
<event>
12    1  0.2083715E-007  0.2425563E+04  0.7818608E-02  0.8429995E-01
         -2   -1    0    0    0  501 -0.00000000000E+00  0.00000000000E+00  0.58506611814E+03  0.58506611814E+03  0.00000000000E+00 0.  1.
          2   -1    0    0  501    0  0.00000000000E+00 -0.00000000000E+00 -0.25139705972E+04  0.25139705972E+04  0.00000000000E+00 0. -1.
         23    2    1    2    0    0 -0.92470010156E+03 -0.25443494925E+03 -0.30500932592E+03  0.10104506013E+04  0.90400816551E+02 0.  0.
        254    2    1    2    0    0  0.92470010156E+03  0.25443494925E+03 -0.16238951531E+04  0.20885861140E+04  0.89741242801E+03 0.  0.
        -24    2    4    4    0    0  0.15792055233E+03  0.14843210662E+03 -0.11597160568E+04  0.11825092074E+04  0.80098078746E+02 0.  0.
         24    2    4    4    0    0  0.76677954922E+03  0.10600284262E+03 -0.46417909637E+03  0.90607690655E+03  0.79533938178E+02 0.  0.
         13    1    3    3    0    0 -0.40367296253E+03 -0.84340719194E+02 -0.16945550448E+03  0.44584793999E+03  0.00000000000E+00 0. -1.
        -13    1    3    3    0    0 -0.52102713902E+03 -0.17009423005E+03 -0.13555382144E+03  0.56460266135E+03  0.00000000000E+00 0.  1.
          2    1    6    6  502    0  0.42719583799E+03  0.50562725107E+02 -0.21267555183E+03  0.47987890505E+03  0.00000000000E+00 0. -1.
          3    1    5    5  503    0  0.37557993491E+02  0.39378292925E+02 -0.14496585488E+03  0.15484299116E+03  0.00000000000E+00 0. -1.
         -4    1    5    5    0  503  0.12036255884E+03  0.10905381370E+03 -0.10147502019E+04  0.10276662163E+04  0.00000000000E+00 0.  1.
         -1    1    6    6    0  502  0.33958371124E+03  0.55440117517E+02 -0.25150354454E+03  0.42619800150E+03  0.00000000000E+00 0.  1.
<mgrwt>
<rscale>  0 0.24255630E+04</rscale>
<asrwt>0</asrwt>
<pdfrwt beam="1">  1        2 0.38676471E+00 0.24255630E+04</pdfrwt>
<pdfrwt beam="2">  1       -2 0.90010172E-01 0.24255630E+04</pdfrwt>
<totfact> 0.32389021E+00</totfact>
</mgrwt>
</event>
<event>
12    1  0.2083715E-007  0.1661401E+04  0.7818608E-02  0.8783690E-01
         -1   -1    0    0    0  501 -0.00000000000E+00  0.00000000000E+00  0.92286291662E+03  0.92286291662E+03  0.00000000000E+00 0.  1.
          1   -1    0    0  501    0  0.00000000000E+00 -0.00000000000E+00 -0.74774236582E+03  0.74774236582E+03  0.00000000000E+00 0. -1.
         23    2    1    2    0    0  0.29478708300E+03  0.47606961891E+03 -0.10692663377E+03  0.57418557568E+03  0.68659041335E+02 0.  0.
        254    2    1    2    0    0 -0.29478708300E+03 -0.47606961891E+03  0.28204718457E+03  0.10964197068E+04  0.89946865022E+03 0.  0.
        -24    2    4    4    0    0 -0.54012984282E+03 -0.36187157962E+03  0.42415232953E+03  0.78022449720E+03  0.78446033323E+02 0.  0.
         24    2    4    4    0    0  0.24534275983E+03 -0.11419803929E+03 -0.14210514496E+03  0.31619520957E+03  0.80939955231E+02 0.  0.
         11    1    3    3    0    0  0.27449917978E+03  0.40948957106E+03 -0.10756247472E+03  0.50458021610E+03  0.00000000000E+00 0. -1.
        -11    1    3    3    0    0  0.20287903211E+02  0.66580047851E+02  0.63584095544E+00  0.69605359580E+02  0.00000000000E+00 0.  1.
          4    1    6    6  502    0  0.10827036483E+03 -0.86613874039E+01 -0.42950794766E+02  0.11680009548E+03  0.00000000000E+00 0. -1.
          3    1    5    5  503    0 -0.13352406625E+03 -0.96638459726E+02  0.68843359374E+02  0.17862551972E+03  0.00000000000E+00 0. -1.
         -4    1    5    5    0  503 -0.40660577657E+03 -0.26523311989E+03  0.35530897016E+03  0.60159897748E+03  0.00000000000E+00 0.  1.
         -3    1    6    6    0  502  0.13707239500E+03 -0.10553665188E+03 -0.99154350199E+02  0.19939511409E+03  0.00000000000E+00 0.  1.
<mgrwt>
<rscale>  0 0.16614015E+04</rscale>
<asrwt>0</asrwt>
<pdfrwt beam="1">  1        1 0.11503729E+00 0.16614015E+04</pdfrwt>
<pdfrwt beam="2">  1       -1 0.14197891E+00 0.16614015E+04</pdfrwt>
<totfact> 0.94920514E+00</totfact>
</mgrwt>
</event>
<event>
12    1  0.2083715E-007  0.2055633E+04  0.7818608E-02  0.8581043E-01
          1   -1    0    0  501    0  0.00000000000E+00  0.00000000000E+00  0.14428466873E+04  0.14428466873E+04  0.00000000000E+00 0. -1.
         -1   -1    0    0    0  501 -0.00000000000E+00 -0.00000000000E+00 -0.73216818536E+03  0.73216818536E+03  0.00000000000E+00 0.  1.
         23    2    1    2    0    0  0.64989167522E+03  0.19980477270E+03 -0.21000613964E+03  0.71730179476E+03  0.90211691909E+02 0.  0.
        254    2    1    2    0    0 -0.64989167522E+03 -0.19980477270E+03  0.92068464152E+03  0.14577130779E+04  0.90276578995E+03 0.  0.
        -24    2    4    4    0    0 -0.95634744371E+01  0.15632475619E+02  0.75125941756E+03  0.75604014273E+03  0.82886371721E+02 0.  0.
         24    2    4    4    0    0 -0.64032820079E+03 -0.21543724832E+03  0.16942522397E+03  0.70167293513E+03  0.84891629068E+02 0.  0.
         11    1    3    3    0    0  0.15694330797E+03  0.39493858484E+02 -0.11542623817E+02  0.16224733878E+03  0.00000000000E+00 0. -1.
        -11    1    3    3    0    0  0.49294836725E+03  0.16031091422E+03 -0.19846351582E+03  0.55505445598E+03  0.00000000000E+00 0.  1.
          2    1    6    6  502    0 -0.62900619880E+03 -0.21346574442E+03  0.17759470240E+03  0.68757276014E+03  0.00000000000E+00 0. -1.
          3    1    5    5  503    0 -0.27056746671E+02  0.22472041884E+02  0.70807263687E+03  0.70894563917E+03  0.00000000000E+00 0. -1.
         -4    1    5    5    0  503  0.17493272234E+02 -0.68395662643E+01  0.43186780686E+02  0.47094503566E+02  0.00000000000E+00 0.  1.
         -1    1    6    6    0  502 -0.11322001986E+02 -0.19715039046E+01 -0.81694784373E+01  0.14100174983E+02  0.00000000000E+00 0.  1.
<mgrwt>
<rscale>  0 0.20556327E+04</rscale>
<asrwt>0</asrwt>
<pdfrwt beam="1">  1        1 0.22197641E+00 0.20556327E+04</pdfrwt>
<pdfrwt beam="2">  1       -1 0.11264126E+00 0.20556327E+04</pdfrwt>
<totfact> 0.47744260E+00</totfact>
</mgrwt>
</event>
<event>
12    1  0.2083715E-007  0.1806579E+04  0.7818608E-02  0.8702809E-01
          2   -1    0    0  501    0  0.00000000000E+00  0.00000000000E+00  0.13387116904E+04  0.13387116904E+04  0.00000000000E+00 0. -1.
         -2   -1    0    0    0  501 -0.00000000000E+00 -0.00000000000E+00 -0.60949049468E+03  0.60949049468E+03  0.00000000000E+00 0.  1.
         23    2    1    2    0    0  0.56371054925E+03 -0.24933862749E+03 -0.35086209618E+02  0.62313623364E+03  0.84429787866E+02 0.  0.
        254    2    1    2    0    0 -0.56371054925E+03  0.24933862749E+03  0.76430740538E+03  0.13250659515E+04  0.88977223566E+03 0.  0.
        -24    2    4    4    0    0  0.18853705936E+03  0.73809573394E+02  0.42588253847E+03  0.47798847054E+03  0.78121479225E+02 0.  0.
         24    2    4    4    0    0 -0.75224760861E+03  0.17552905409E+03  0.33842486691E+03  0.84707748094E+03  0.79510720546E+02 0.  0.
         11    1    3    3    0    0  0.32763507483E+03 -0.18946010919E+03 -0.27474470222E+02  0.37946636445E+03  0.00000000000E+00 0.  1.
        -11    1    3    3    0    0  0.23607547442E+03 -0.59878518296E+02 -0.76117393965E+01  0.24366986920E+03  0.00000000000E+00 0. -1.
          4    1    6    6  502    0 -0.32987761562E+03  0.10554655084E+03  0.18207296795E+03  0.39129257767E+03  0.00000000000E+00 0. -1.
          1    1    5    5  503    0  0.10629463094E+03  0.22875098380E+01  0.18042114981E+03  0.20941722127E+03  0.00000000000E+00 0. -1.
         -2    1    5    5    0  503  0.82242428423E+02  0.71522063555E+02  0.24546138866E+03  0.26857124926E+03  0.00000000000E+00 0.  1.
         -3    1    6    6    0  502 -0.42236999299E+03  0.69982503252E+02  0.15635189896E+03  0.45578490327E+03  0.00000000000E+00 0.  1.
<mgrwt>
<rscale>  0 0.18065791E+04</rscale>
<asrwt>0</asrwt>
<pdfrwt beam="1">  1        2 0.20595564E+00 0.18065791E+04</pdfrwt>
<pdfrwt beam="2">  1       -2 0.93767769E-01 0.18065791E+04</pdfrwt>
<totfact> 0.14232737E+01</totfact>
</mgrwt>
</event>
<event>
12    1  0.2083715E-007  0.4283371E+04  0.7818608E-02  0.7949700E-01
         -2   -1    0    0    0  501 -0.00000000000E+00  0.00000000000E+00  0.34340315807E+04  0.34340315807E+04  0.00000000000E+00 0.  1.
          2   -1    0    0  501    0  0.00000000000E+00 -0.00000000000E+00 -0.13356943701E+04  0.13356943701E+04  0.00000000000E+00 0. -1.
         23    2    1    2    0    0  0.15884649574E+04 -0.12896375586E+04  0.96292014471E+03  0.22625180348E+04  0.73394136417E+02 0.  0.
        254    2    1    2    0    0 -0.15884649574E+04  0.12896375586E+04  0.11354170658E+04  0.25072079160E+04  0.90029643297E+03 0.  0.
        -24    2    4    4    0    0 -0.10272238554E+04  0.53966021903E+03  0.19843586711E+03  0.11798704703E+04  0.79344390456E+02 0.  0.
         24    2    4    4    0    0 -0.56124110201E+03  0.74997733960E+03  0.93698119873E+03  0.13273374457E+04  0.80208125972E+02 0.  0.
         13    1    3    3    0    0  0.43735120719E+03 -0.35659584402E+03  0.30207882215E+03  0.64006897222E+03  0.00000000000E+00 0. -1.
        -13    1    3    3    0    0  0.11511137502E+04 -0.93304171461E+03  0.66084132256E+03  0.16224490626E+04  0.00000000000E+00 0.  1.
          4    1    6    6  502    0 -0.54619312066E+02  0.86552305879E+02  0.71144288250E+02  0.12464381515E+03  0.00000000000E+00 0. -1.
          1    1    5    5  503    0 -0.73339785644E+03  0.34419032316E+03  0.14055358543E+03  0.82224978247E+03  0.00000000000E+00 0. -1.
         -2    1    5    5    0  503 -0.29382599896E+03  0.19546989587E+03  0.57882281679E+02  0.35762068786E+03  0.00000000000E+00 0.  1.
         -3    1    6    6    0  502 -0.50662178995E+03  0.66342503372E+03  0.86583691048E+03  0.12026936306E+04  0.00000000000E+00 0.  1.
<mgrwt>
<rscale>  0 0.42833709E+04</rscale>
<asrwt>0</asrwt>
<pdfrwt beam="1">  1        2 0.20549144E+00 0.42833709E+04</pdfrwt>
<pdfrwt beam="2">  1       -2 0.52831255E+00 0.42833709E+04</pdfrwt>
<totfact> 0.13643037E-02</totfact>
</mgrwt>
</event>
<event>
12    1  0.2083715E-007  0.1517508E+04  0.7818608E-02  0.8872893E-01
          2   -1    0    0  501    0  0.00000000000E+00  0.00000000000E+00  0.53612086793E+03  0.53612086793E+03  0.00000000000E+00 0.  1.
         -2   -1    0    0    0  501 -0.00000000000E+00 -0.00000000000E+00 -0.10738391067E+04  0.10738391067E+04  0.00000000000E+00 0. -1.
         23    2    1    2    0    0  0.37758400616E+03 -0.23813183735E+03  0.29715125430E+02  0.45617381096E+03  0.89079197687E+02 0.  0.
        254    2    1    2    0    0 -0.37758400616E+03  0.23813183735E+03 -0.56743336416E+03  0.11537861636E+04  0.89998079698E+03 0.  0.
        -24    2    4    4    0    0 -0.57657499902E+03  0.41345948933E+03 -0.48911571563E+03  0.86535221012E+03  0.78821224674E+02 0.  0.
         24    2    4    4    0    0  0.19899099286E+03 -0.17532765198E+03 -0.78317648532E+02  0.28843395351E+03  0.81995674749E+02 0.  0.
         11    1    3    3    0    0  0.39654441856E+02 -0.11060003392E+02 -0.20438736376E+02  0.45962380036E+02  0.00000000000E+00 0. -1.
        -11    1    3    3    0    0  0.33792956431E+03 -0.22707183396E+03  0.50153861806E+02  0.41021143093E+03  0.00000000000E+00 0.  1.
          2    1    6    6  502    0  0.99780571622E+02 -0.72504280298E+02 -0.77273135814E+02  0.14554782943E+03  0.00000000000E+00 0. -1.
          1    1    5    5  503    0 -0.27740248835E+03  0.17462581258E+03 -0.18461393888E+03  0.37620289924E+03  0.00000000000E+00 0. -1.
         -2    1    5    5    0  503 -0.29917251066E+03  0.23883367675E+03 -0.30450177675E+03  0.48914931088E+03  0.00000000000E+00 0.  1.
         -1    1    6    6    0  502  0.99210421236E+02 -0.10282337168E+03 -0.10445127178E+01  0.14288612407E+03  0.00000000000E+00 0.  1.
<mgrwt>
<rscale>  0 0.15175079E+04</rscale>
<asrwt>0</asrwt>
<pdfrwt beam="1">  1        2 0.82480133E-01 0.15175079E+04</pdfrwt>
<pdfrwt beam="2">  1       -2 0.16520602E+00 0.15175079E+04</pdfrwt>
<totfact> 0.12620365E+01</totfact>
</mgrwt>
</event>
<event>
12    1  0.2083715E-007  0.2563742E+04  0.7818608E-02  0.8380623E-01
          2   -1    0    0  501    0  0.00000000000E+00  0.00000000000E+00  0.14612652042E+04  0.14612652042E+04  0.00000000000E+00 0. -1.
         -2   -1    0    0    0  501 -0.00000000000E+00 -0.00000000000E+00 -0.11245003045E+04  0.11245003045E+04  0.00000000000E+00 0.  1.
         23    2    1    2    0    0 -0.67365040142E+03  0.67780283235E+03  0.74323856166E+03  0.12140491548E+04  0.91050798766E+02 0.  0.
        254    2    1    2    0    0  0.67365040142E+03 -0.67780283235E+03 -0.40647366191E+03  0.13717163539E+04  0.89619382660E+03 0.  0.
        -24    2    4    4    0    0 -0.27208538971E+02  0.14116363584E+03 -0.21990133281E+03  0.27484256450E+03  0.80711600221E+02 0.  0.
         24    2    4    4    0    0  0.70085894039E+03 -0.81896646819E+03 -0.18657232910E+03  0.10968737894E+04  0.80084614800E+02 0.  0.
         13    1    3    3    0    0 -0.23054172454E+03  0.17284494751E+03  0.22141192772E+03  0.36338423792E+03  0.00000000000E+00 0. -1.
        -13    1    3    3    0    0 -0.44310867689E+03  0.50495788483E+03  0.52182663395E+03  0.85066491692E+03  0.00000000000E+00 0.  1.
          4    1    6    6  502    0  0.42635748980E+03 -0.52150152756E+03 -0.80203272328E+02  0.67836355831E+03  0.00000000000E+00 0. -1.
          3    1    5    5  503    0  0.17979796318E+02  0.64887299656E+02 -0.14061277812E+03  0.15590249550E+03  0.00000000000E+00 0. -1.
         -4    1    5    5    0  503 -0.45188335289E+02  0.76276336186E+02 -0.79288554691E+02  0.11894006900E+03  0.00000000000E+00 0.  1.
         -3    1    6    6    0  502  0.27450145059E+03 -0.29746494063E+03 -0.10636905677E+03  0.41851023108E+03  0.00000000000E+00 0.  1.
<mgrwt>
<rscale>  0 0.25637419E+04</rscale>
<asrwt>0</asrwt>
<pdfrwt beam="1">  1        2 0.22481003E+00 0.25637419E+04</pdfrwt>
<pdfrwt beam="2">  1       -2 0.17300005E+00 0.25637419E+04</pdfrwt>
<totfact> 0.24045181E+00</totfact>
</mgrwt>
</event>
<event>
12    1  0.2083715E-007  0.2777231E+04  0.7818608E-02  0.8310372E-01
          2   -1    0    0  501    0  0.00000000000E+00  0.00000000000E+00  0.25066065758E+04  0.25066065758E+04  0.00000000000E+00 0. -1.
         -2   -1    0    0    0  501 -0.00000000000E+00 -0.00000000000E+00 -0.76926838864E+03  0.76926838864E+03  0.00000000000E+00 0.  1.
         23    2    1    2    0    0 -0.10491204181E+04 -0.45286144188E+03  0.20857942520E+03  0.11654337498E+04  0.94833071555E+02 0.  0.
        254    2    1    2    0    0  0.10491204181E+04  0.45286144188E+03  0.15287587619E+04  0.21104412146E+04  0.90062291279E+03 0.  0.
        -24    2    4    4    0    0 -0.10337202006E+03 -0.99686064588E+02  0.10340358890E+03  0.19421930140E+03  0.80035922160E+02 0.  0.
         24    2    4    4    0    0  0.11524924381E+04  0.55254750646E+03  0.14253551730E+04  0.19162219132E+04  0.81984660513E+02 0.  0.
         13    1    3    3    0    0 -0.43898427997E+03 -0.22966167642E+03  0.11986366488E+03  0.50972441754E+03  0.00000000000E+00 0.  1.
        -13    1    3    3    0    0 -0.61013613808E+03 -0.22319976545E+03  0.88715760318E+02  0.65570933227E+03  0.00000000000E+00 0. -1.
          4    1    6    6  502    0  0.10848337142E+04  0.49797026658E+03  0.13214322801E+04  0.17807363209E+04  0.00000000000E+00 0. -1.
          3    1    5    5  503    0 -0.62770669554E+02 -0.90554338863E+01  0.27039227977E+02  0.68944018513E+02  0.00000000000E+00 0. -1.
         -4    1    5    5    0  503 -0.40601350508E+02 -0.90630630701E+02  0.76364360923E+02  0.12527528289E+03  0.00000000000E+00 0.  1.
         -3    1    6    6    0  502  0.67658723950E+02  0.54577239884E+02  0.10392289293E+03  0.13548559228E+03  0.00000000000E+00 0.  1.
<mgrwt>
<rscale>  0 0.27772311E+04</rscale>
<asrwt>0</asrwt>
<pdfrwt beam="1">  1        2 0.38563178E+00 0.27772311E+04</pdfrwt>
<pdfrwt beam="2">  1       -2 0.11834898E+00 0.27772311E+04</pdfrwt>
<totfact> 0.16528337E+00</totfact>
</mgrwt>
</event>
<event>
12    1  0.2083715E-007  0.3195900E+04  0.7818608E-02  0.8189901E-01
          1   -1    0    0  501    0  0.00000000000E+00  0.00000000000E+00  0.21827649961E+04  0.21827649961E+04  0.00000000000E+00 0. -1.
         -1   -1    0    0    0  501 -0.00000000000E+00 -0.00000000000E+00 -0.11698211043E+04  0.11698211043E+04  0.00000000000E+00 0.  1.
         23    2    1    2    0    0  0.12738321578E+04  0.13214726264E+03  0.12199130667E+04  0.17709995278E+04  0.90222900585E+02 0.  0.
        254    2    1    2    0    0 -0.12738321578E+04 -0.13214726264E+03 -0.20696917485E+03  0.15815865726E+04  0.90469253456E+03 0.  0.
        -24    2    4    4    0    0 -0.12380071862E+04  0.93175702114E+01 -0.42021650930E+03  0.13098442093E+04  0.79757932148E+02 0.  0.
         24    2    4    4    0    0 -0.35824971612E+02 -0.14146483285E+03  0.21324733445E+03  0.27174236333E+03  0.84105641040E+02 0.  0.
         11    1    3    3    0    0  0.30819149224E+03 -0.67156785194E+01  0.29473437328E+03  0.42649202457E+03  0.00000000000E+00 0. -1.
        -11    1    3    3    0    0  0.96564066558E+03  0.13886294116E+03  0.92517869338E+03  0.13445075032E+04  0.00000000000E+00 0.  1.
          2    1    6    6  502    0 -0.43122320769E+02 -0.24424802858E+02  0.81310051498E+02  0.95223054025E+02  0.00000000000E+00 0. -1.
          3    1    5    5  503    0 -0.22893291058E+03  0.18176024384E+02 -0.10605230637E+03  0.25295797495E+03  0.00000000000E+00 0. -1.
         -4    1    5    5    0  503 -0.10090742756E+04 -0.88584541727E+01 -0.31416420293E+03  0.10568862343E+04  0.00000000000E+00 0.  1.
         -1    1    6    6    0  502  0.72973491566E+01 -0.11704003000E+03  0.13193728295E+03  0.17651930931E+03  0.00000000000E+00 0.  1.
<mgrwt>
<rscale>  0 0.31959002E+04</rscale>
<asrwt>0</asrwt>
<pdfrwt beam="1">  1        1 0.33581000E+00 0.31959002E+04</pdfrwt>
<pdfrwt beam="2">  1       -1 0.17997248E+00 0.31959002E+04</pdfrwt>
<totfact> 0.39001788E-01</totfact>
</mgrwt>
</event>
<event>
12    1  0.2083715E-007  0.5188319E+04  0.7818608E-02  0.7800096E-01
          2   -1    0    0  501    0  0.00000000000E+00  0.00000000000E+00  0.29567884849E+04  0.29567884849E+04  0.00000000000E+00 0. -1.
         -2   -1    0    0    0  501 -0.00000000000E+00 -0.00000000000E+00 -0.22760039443E+04  0.22760039443E+04  0.00000000000E+00 0.  1.
         23    2    1    2    0    0  0.75385091213E+03  0.16771932297E+04 -0.14004221949E+04  0.23133002202E+04  0.94378268192E+02 0.  0.
        254    2    1    2    0    0 -0.75385091213E+03 -0.16771932297E+04  0.20812067355E+04  0.29194922090E+04  0.90041376874E+03 0.  0.
        -24    2    4    4    0    0  0.18710232300E+03 -0.46501311680E+03  0.44760560509E+03  0.67674898251E+03  0.79962050680E+02 0.  0.
         24    2    4    4    0    0 -0.94095323513E+03 -0.12121801129E+04  0.16336011304E+04  0.22427432265E+04  0.80441965349E+02 0.  0.
         13    1    3    3    0    0  0.53740367051E+03  0.10942090477E+04 -0.90689938587E+03  0.15193954855E+04  0.00000000000E+00 0. -1.
        -13    1    3    3    0    0  0.21644724162E+03  0.58298418204E+03 -0.49352280901E+03  0.79390473479E+03  0.00000000000E+00 0.  1.
          4    1    6    6  502    0 -0.26972449815E+03 -0.39375969342E+03  0.47288604141E+03  0.67187737663E+03  0.00000000000E+00 0. -1.
          1    1    5    5  503    0  0.33652122011E+02 -0.32463538979E+02  0.59610617311E+02  0.75761285464E+02  0.00000000000E+00 0. -1.
         -2    1    5    5    0  503  0.15345020099E+03 -0.43254957782E+03  0.38799498778E+03  0.60098769704E+03  0.00000000000E+00 0.  1.
         -3    1    6    6    0  502 -0.67122873698E+03 -0.81842041951E+03  0.11607150890E+04  0.15708658498E+04  0.00000000000E+00 0.  1.
<mgrwt>
<rscale>  0 0.51883185E+04</rscale>
<asrwt>0</asrwt>
<pdfrwt beam="1">  1        2 0.45489054E+00 0.51883185E+04</pdfrwt>
<pdfrwt beam="2">  1       -2 0.35015445E+00 0.51883185E+04</pdfrwt>
<totfact> 0.20623513E-02</totfact>
</mgrwt>
</event>
<event>
12    1  0.2529293E-007  0.1641328E+04  0.7818608E-02  0.8795553E-01
          2   -1    0    0  501    0  0.00000000000E+00  0.00000000000E+00  0.20798738113E+04  0.20798738113E+04  0.00000000000E+00 0. -1.
         -2   -1    0    0    0  501 -0.00000000000E+00 -0.00000000000E+00 -0.32381271696E+03  0.32381271696E+03  0.00000000000E+00 0.  1.
         23    2    1    2    0    0 -0.53619117773E+03 -0.14167541532E+03  0.80055775772E+03  0.97810309062E+03  0.90664381390E+02 0.  0.
        254    2    1    2    0    0  0.53619117773E+03  0.14167541532E+03  0.95550333659E+03  0.14255834376E+04  0.90095982649E+03 0.  0.
        -24    2    4    4    0    0  0.29475822196E+02 -0.24620458605E+03  0.67550959565E+03  0.72394306864E+03  0.79339968072E+02 0.  0.
         24    2    4    4    0    0  0.50671535553E+03  0.38788000137E+03  0.27999374094E+03  0.70164036896E+03  0.81800766433E+02 0.  0.
         11    1    3    3    0    0 -0.21036719394E+03 -0.17243909056E+02  0.34357279546E+03  0.40322943155E+03  0.00000000000E+00 0. -1.
        -11    1    3    3    0    0 -0.32582398379E+03 -0.12443150626E+03  0.45698496226E+03  0.57487365907E+03  0.00000000000E+00 0.  1.
          4    1    6    6  502    0  0.11845163455E+03  0.74489391784E+02  0.28174631439E+02  0.14273496094E+03  0.00000000000E+00 0. -1.
          1    1    5    5  503    0 -0.11853236870E+02 -0.34454707332E+02  0.17763478213E+03  0.18133323442E+03  0.00000000000E+00 0. -1.
         -2    1    5    5    0  503  0.41329059067E+02 -0.21174987872E+03  0.49787481352E+03  0.54260983422E+03  0.00000000000E+00 0.  1.
         -3    1    6    6    0  502  0.38826372098E+03  0.31339060959E+03  0.25181910950E+03  0.55890540802E+03  0.00000000000E+00 0.  1.
<mgrwt>
<rscale>  0 0.16413282E+04</rscale>
<asrwt>0</asrwt>
<pdfrwt beam="1">  1        2 0.31998058E+00 0.16413282E+04</pdfrwt>
<pdfrwt beam="2">  1       -2 0.49817342E-01 0.16413282E+04</pdfrwt>
<totfact> 0.21983851E+01</totfact>
</mgrwt>
</event>
<event>
12    1  0.2083715E-007  0.2493632E+04  0.7818608E-02  0.8405258E-01
         -2   -1    0    0    0  501 -0.00000000000E+00  0.00000000000E+00  0.86499411823E+03  0.86499411823E+03  0.00000000000E+00 0.  1.
          2   -1    0    0  501    0  0.00000000000E+00 -0.00000000000E+00 -0.17971801899E+04  0.17971801899E+04  0.00000000000E+00 0. -1.
         23    2    1    2    0    0 -0.10672754151E+04 -0.47856446245E+02 -0.58880782050E+03  0.12230699553E+04  0.88534824288E+02 0.  0.
        254    2    1    2    0    0  0.10672754151E+04  0.47856446245E+02 -0.34337825114E+03  0.14391043528E+04  0.90096929125E+03 0.  0.
        -24    2    4    4    0    0  0.76173658293E+03 -0.92311196094E+02  0.19832284928E+03  0.79655663586E+03  0.80040882568E+02 0.  0.
         24    2    4    4    0    0  0.30553883212E+03  0.14016764234E+03 -0.54170110041E+03  0.64254771691E+03  0.80165706050E+02 0.  0.
         13    1    3    3    0    0 -0.75509259939E+03 -0.29334071014E+02 -0.46133690905E+03  0.88535702686E+03  0.00000000000E+00 0. -1.
        -13    1    3    3    0    0 -0.31218281567E+03 -0.18522375232E+02 -0.12747091145E+03  0.33771292846E+03  0.00000000000E+00 0.  1.
          2    1    6    6  502    0  0.64104504690E+02  0.54141092893E+02 -0.88934193765E+02  0.12226993204E+03  0.00000000000E+00 0. -1.
          3    1    5    5  503    0  0.32244913818E+03 -0.43455054856E+02  0.43650761768E+02  0.32827911525E+03  0.00000000000E+00 0. -1.
         -4    1    5    5    0  503  0.43928744475E+03 -0.48856141238E+02  0.15467208751E+03  0.46827752061E+03  0.00000000000E+00 0.  1.
         -1    1    6    6    0  502  0.24143432743E+03  0.86026549446E+02 -0.45276690665E+03  0.52027778487E+03  0.00000000000E+00 0.  1.
<mgrwt>
<rscale>  0 0.24936321E+04</rscale>
<asrwt>0</asrwt>
<pdfrwt beam="1">  1        2 0.27648926E+00 0.24936321E+04</pdfrwt>
<pdfrwt beam="2">  1       -2 0.13307602E+00 0.24936321E+04</pdfrwt>
<totfact> 0.31628415E+00</totfact>
</mgrwt>
</event>
<event>
12    1  0.2083715E-007  0.3370557E+04  0.7818608E-02  0.8145171E-01
         -1   -1    0    0    0  501 -0.00000000000E+00  0.00000000000E+00  0.11793013085E+04  0.11793013085E+04  0.00000000000E+00 0.  1.
          1   -1    0    0  501    0  0.00000000000E+00 -0.00000000000E+00 -0.24083438508E+04  0.24083438508E+04  0.00000000000E+00 0. -1.
         23    2    1    2    0    0 -0.10362997475E+04  0.11446499503E+04 -0.30466407807E+03  0.15765111711E+04  0.91796497665E+02 0.  0.
        254    2    1    2    0    0  0.10362997475E+04 -0.11446499503E+04 -0.92437846423E+03  0.20111339881E+04  0.89779936391E+03 0.  0.
        -24    2    4    4    0    0  0.12790279115E+03 -0.38602035334E+03 -0.68559573077E+03  0.80111285759E+03  0.79808942920E+02 0.  0.
         24    2    4    4    0    0  0.90839695631E+03 -0.75862959696E+03 -0.23878273346E+03  0.12100211305E+04  0.80187573669E+02 0.  0.
         11    1    3    3    0    0 -0.93732552046E+03  0.99299695630E+03 -0.26105148123E+03  0.13902409728E+04  0.00000000000E+00 0. -1.
        -11    1    3    3    0    0 -0.98974226993E+02  0.15165299399E+03 -0.43612596841E+02  0.18627019837E+03  0.00000000000E+00 0.  1.
          4    1    6    6  502    0  0.58974402933E+03 -0.44690158543E+03 -0.16613670038E+03  0.75836696289E+03  0.00000000000E+00 0. -1.
          1    1    5    5  503    0  0.98984033573E+01 -0.13742428438E+03 -0.19791765319E+03  0.24115308369E+03  0.00000000000E+00 0. -1.
         -2    1    5    5    0  503  0.11800438779E+03 -0.24859606896E+03 -0.48767807758E+03  0.55995977391E+03  0.00000000000E+00 0.  1.
         -3    1    6    6    0  502  0.31865292698E+03 -0.31172801153E+03 -0.72646033082E+02  0.45165416766E+03  0.00000000000E+00 0.  1.
<mgrwt>
<rscale>  0 0.33705567E+04</rscale>
<asrwt>0</asrwt>
<pdfrwt beam="1">  1        1 0.37051444E+00 0.33705567E+04</pdfrwt>
<pdfrwt beam="2">  1       -1 0.18143097E+00 0.33705567E+04</pdfrwt>
<totfact> 0.26275731E-01</totfact>
</mgrwt>
</event>
<event>
12    1  0.2083715E-007  0.2023702E+04  0.7818608E-02  0.8595619E-01
         -1   -1    0    0    0  501 -0.00000000000E+00  0.00000000000E+00  0.48040024518E+03  0.48040024518E+03  0.00000000000E+00 0.  1.
          1   -1    0    0  501    0  0.00000000000E+00 -0.00000000000E+00 -0.21312271862E+04  0.21312271862E+04  0.00000000000E+00 0. -1.
         23    2    1    2    0    0 -0.65895714391E+03  0.43589625133E+03 -0.89096501347E+03  0.11937178124E+04  0.83147465517E+02 0.  0.
        254    2    1    2    0    0  0.65895714391E+03 -0.43589625133E+03 -0.75986192756E+03  0.14179096190E+04  0.89935948274E+03 0.  0.
        -24    2    4    4    0    0  0.70044085094E+03 -0.52650325449E+02 -0.20302407940E+03  0.73554645467E+03  0.80127197162E+02 0.  0.
         24    2    4    4    0    0 -0.41483707031E+02 -0.38324592588E+03 -0.55683784817E+03  0.68236316431E+03  0.83383218942E+02 0.  0.
         13    1    3    3    0    0 -0.37213758125E+03  0.19685242776E+03 -0.46389637455E+03  0.62644800583E+03  0.00000000000E+00 0.  1.
        -13    1    3    3    0    0 -0.28681956266E+03  0.23904382357E+03 -0.42706863892E+03  0.56726980658E+03  0.00000000000E+00 0. -1.
          4    1    6    6  502    0 -0.37075394277E+02 -0.56999769732E+02 -0.89608003000E+02  0.11248623388E+03  0.00000000000E+00 0. -1.
          3    1    5    5  503    0  0.19177260249E+02  0.71065679216E+01 -0.17582775828E+02  0.26970810594E+02  0.00000000000E+00 0. -1.
         -4    1    5    5    0  503  0.68126359069E+03 -0.59756893371E+02 -0.18544130357E+03  0.70857564407E+03  0.00000000000E+00 0.  1.
         -3    1    6    6    0  502 -0.44083127543E+01 -0.32624615615E+03 -0.46722984517E+03  0.56987693043E+03  0.00000000000E+00 0.  1.
<mgrwt>
<rscale>  0 0.20237016E+04</rscale>
<asrwt>0</asrwt>
<pdfrwt beam="1">  1        1 0.32788111E+00 0.20237016E+04</pdfrwt>
<pdfrwt beam="2">  1       -1 0.73907730E-01 0.20237016E+04</pdfrwt>
<totfact> 0.41417863E+00</totfact>
</mgrwt>
</event>
<event>
12    1  0.2083715E-007  0.1280083E+04  0.7818608E-02  0.9045510E-01
          1   -1    0    0  501    0  0.00000000000E+00  0.00000000000E+00  0.26684010278E+04  0.26684010278E+04  0.00000000000E+00 0. -1.
         -1   -1    0    0    0  501 -0.00000000000E+00 -0.00000000000E+00 -0.15352012461E+03  0.15352012461E+03  0.00000000000E+00 0.  1.
         23    2    1    2    0    0  0.26873722422E+03 -0.39331862445E+02  0.28217743103E+03  0.40239684279E+03  0.92371128713E+02 0.  0.
        254    2    1    2    0    0 -0.26873722422E+03  0.39331862445E+02  0.22327034721E+04  0.24195243096E+04  0.89183316776E+03 0.  0.
        -24    2    4    4    0    0  0.20172062188E+03  0.30131934190E+03  0.11373227064E+04  0.11962865264E+04  0.78191812323E+02 0.  0.
         24    2    4    4    0    0 -0.47045784611E+03 -0.26198747945E+03  0.10953807657E+04  0.12232377832E+04  0.80520979080E+02 0.  0.
         13    1    3    3    0    0  0.18288699645E+03  0.17357354969E+02  0.17210581895E+03  0.25173268393E+03  0.00000000000E+00 0. -1.
        -13    1    3    3    0    0  0.85850227774E+02 -0.56689217414E+02  0.11007161209E+03  0.15066415887E+03  0.00000000000E+00 0.  1.
          2    1    6    6  502    0 -0.21226533671E+03 -0.15378644665E+03  0.58723930332E+03  0.64308385433E+03  0.00000000000E+00 0. -1.
          3    1    5    5  503    0  0.26098959154E+02  0.96137081419E+02  0.26469647846E+03  0.28282100311E+03  0.00000000000E+00 0. -1.
         -4    1    5    5    0  503  0.17562166273E+03  0.20518226048E+03  0.87262622796E+03  0.91346552324E+03  0.00000000000E+00 0.  1.
         -1    1    6    6    0  502 -0.25819250940E+03 -0.10820103280E+03  0.50814146238E+03  0.58015392888E+03  0.00000000000E+00 0.  1.
<mgrwt>
<rscale>  0 0.12800832E+04</rscale>
<asrwt>0</asrwt>
<pdfrwt beam="1">  1        1 0.41052320E+00 0.12800832E+04</pdfrwt>
<pdfrwt beam="2">  1       -1 0.23618483E-01 0.12800832E+04</pdfrwt>
<totfact> 0.15798042E+01</totfact>
</mgrwt>
</event>
<event>
12    1  0.2083715E-007  0.1728853E+04  0.7818608E-02  0.8745078E-01
         -2   -1    0    0    0  501 -0.00000000000E+00  0.00000000000E+00  0.33156058795E+03  0.33156058795E+03  0.00000000000E+00 0.  1.
          2   -1    0    0  501    0  0.00000000000E+00 -0.00000000000E+00 -0.22536842291E+04  0.22536842291E+04  0.00000000000E+00 0. -1.
         23    2    1    2    0    0 -0.12825655348E+03 -0.60801509423E+03 -0.79521541413E+03  0.10135628334E+04  0.93861409051E+02 0.  0.
        254    2    1    2    0    0  0.12825655348E+03  0.60801509423E+03 -0.11269082270E+04  0.15716819836E+04  0.90229153114E+03 0.  0.
        -24    2    4    4    0    0 -0.21475003199E+03  0.68839503472E+03 -0.83740714333E+03  0.11084805484E+04  0.86447108030E+02 0.  0.
         24    2    4    4    0    0  0.34300658547E+03 -0.80379940488E+02 -0.28950108365E+03  0.46320143516E+03  0.81426283135E+02 0.  0.
         13    1    3    3    0    0 -0.12582452668E+03 -0.54935597595E+03 -0.75603260970E+03  0.94297884746E+03  0.00000000000E+00 0. -1.
        -13    1    3    3    0    0 -0.24320267968E+01 -0.58659118274E+02 -0.39182804423E+02  0.70583985957E+02  0.00000000000E+00 0.  1.
          4    1    6    6  502    0  0.20905513100E+03 -0.86755650771E+02 -0.19933903730E+03  0.30160676804E+03  0.00000000000E+00 0. -1.
          1    1    5    5  503    0 -0.47916022621E+02  0.28260006516E+03 -0.30426518375E+03  0.41801440656E+03  0.00000000000E+00 0. -1.
         -2    1    5    5    0  503 -0.16683400937E+03  0.40579496955E+03 -0.53314195958E+03  0.69046614187E+03  0.00000000000E+00 0.  1.
         -3    1    6    6    0  502  0.13395145447E+03  0.63757102838E+01 -0.90162046354E+02  0.16159466711E+03  0.00000000000E+00 0.  1.
<mgrwt>
<rscale>  0 0.17288526E+04</rscale>
<asrwt>0</asrwt>
<pdfrwt beam="1">  1        2 0.34672063E+00 0.17288526E+04</pdfrwt>
<pdfrwt beam="2">  1       -2 0.51009324E-01 0.17288526E+04</pdfrwt>
<totfact> 0.16618946E+01</totfact>
</mgrwt>
</event>
<event>
12    1  0.2083715E-007  0.3308071E+04  0.7818608E-02  0.8160845E-01
          1   -1    0    0  501    0  0.00000000000E+00  0.00000000000E+00  0.35612484344E+04  0.35612484344E+04  0.00000000000E+00 0. -1.
         -1   -1    0    0    0  501 -0.00000000000E+00 -0.00000000000E+00 -0.76822327839E+03  0.76822327839E+03  0.00000000000E+00 0.  1.
         23    2    1    2    0    0 -0.63551931127E+03  0.13907523213E+04  0.12760840303E+04  0.19948102348E+04  0.11313976328E+03 0.  0.
        254    2    1    2    0    0  0.63551931127E+03 -0.13907523213E+04  0.15169411256E+04  0.23346614780E+04  0.90080909396E+03 0.  0.
        -24    2    4    4    0    0  0.73520622850E+02 -0.84308144309E+03  0.33476676033E+03  0.91355402422E+03  0.79502010534E+02 0.  0.
         24    2    4    4    0    0  0.56199868842E+03 -0.54767087825E+03  0.11821743653E+04  0.14211074537E+04  0.78893906378E+02 0.  0.
         11    1    3    3    0    0 -0.29848821516E+03  0.77601467470E+03  0.66116714487E+03  0.10622786750E+04  0.00000000000E+00 0. -1.
        -11    1    3    3    0    0 -0.33703109611E+03  0.61473764664E+03  0.61491688548E+03  0.93253155978E+03  0.00000000000E+00 0.  1.
          2    1    6    6  502    0  0.20558183467E+03 -0.20167277759E+03  0.50394158912E+03  0.58042477998E+03  0.00000000000E+00 0. -1.
          3    1    5    5  503    0  0.11836567781E+01 -0.43001374573E+01 -0.40638528420E+01  0.60338317380E+01  0.00000000000E+00 0. -1.
         -4    1    5    5    0  503  0.72336966072E+02 -0.83878130563E+03  0.33883061317E+03  0.90752019248E+03  0.00000000000E+00 0.  1.
         -1    1    6    6    0  502  0.35641685375E+03 -0.34599810066E+03  0.67823277617E+03  0.84068267377E+03  0.00000000000E+00 0.  1.
<mgrwt>
<rscale>  0 0.33080713E+04</rscale>
<asrwt>0</asrwt>
<pdfrwt beam="1">  1        1 0.54788436E+00 0.33080713E+04</pdfrwt>
<pdfrwt beam="2">  1       -1 0.11818820E+00 0.33080713E+04</pdfrwt>
<totfact> 0.11885274E-01</totfact>
</mgrwt>
</event>
<event>
12    1  0.3254642E-007  0.3179222E+04  0.7818608E-02  0.8194326E-01
          1   -1    0    0  501    0  0.00000000000E+00  0.00000000000E+00  0.16068739188E+04  0.16068739188E+04  0.00000000000E+00 0. -1.
         -1   -1    0    0    0  501 -0.00000000000E+00 -0.00000000000E+00 -0.15725331338E+04  0.15725331338E+04  0.00000000000E+00 0.  1.
         23    2    1    2    0    0  0.37628587718E+03 -0.13006060456E+04  0.56650680923E+03  0.14705046767E+04  0.91032367965E+02 0.  0.
        254    2    1    2    0    0 -0.37628587718E+03  0.13006060456E+04 -0.53216602419E+03  0.17089023759E+04  0.89664904274E+03 0.  0.
        -24    2    4    4    0    0 -0.81638886380E+02  0.60412427151E+03 -0.69827393594E+03  0.93037406198E+03  0.79864650427E+02 0.  0.
         24    2    4    4    0    0 -0.29464699080E+03  0.69648177408E+03  0.16610791175E+03  0.77852831392E+03  0.81306742739E+02 0.  0.
         13    1    3    3    0    0  0.21500821736E+03 -0.60888899799E+03  0.24164950776E+03  0.68946996309E+03  0.00000000000E+00 0. -1.
        -13    1    3    3    0    0  0.16127765982E+03 -0.69171704759E+03  0.32485730147E+03  0.78103471358E+03  0.00000000000E+00 0.  1.
          2    1    6    6  502    0 -0.23584738546E+02  0.88076709077E+02 -0.33911337316E+01  0.91242788000E+02  0.00000000000E+00 0. -1.
          3    1    5    5  503    0 -0.50312800161E+02  0.16352235290E+03 -0.22982040340E+03  0.28651065526E+03  0.00000000000E+00 0. -1.
         -4    1    5    5    0  503 -0.31326086219E+02  0.44060191861E+03 -0.46845353254E+03  0.64386340672E+03  0.00000000000E+00 0.  1.
         -1    1    6    6    0  502 -0.27106225225E+03  0.60840506500E+03  0.16949904548E+03  0.68728552592E+03  0.00000000000E+00 0.  1.
<mgrwt>
<rscale>  0 0.31792216E+04</rscale>
<asrwt>0</asrwt>
<pdfrwt beam="1">  1        1 0.24721137E+00 0.31792216E+04</pdfrwt>
<pdfrwt beam="2">  1       -1 0.24192817E+00 0.31792216E+04</pdfrwt>
<totfact> 0.36430079E-01</totfact>
</mgrwt>
</event>
<event>
12    1  0.2083715E-007  0.1744781E+04  0.7818608E-02  0.8736228E-01
         -2   -1    0    0    0  501 -0.00000000000E+00  0.00000000000E+00  0.49261250910E+03  0.49261250910E+03  0.00000000000E+00 0.  1.
          2   -1    0    0  501    0  0.00000000000E+00 -0.00000000000E+00 -0.15449574912E+04  0.15449574912E+04  0.00000000000E+00 0. -1.
         23    2    1    2    0    0 -0.20976265263E+03 -0.59404430890E+03 -0.49610819663E+03  0.80687692054E+03  0.89654953963E+02 0.  0.
        254    2    1    2    0    0  0.20976265263E+03  0.59404430890E+03 -0.55623678551E+03  0.12306930798E+04  0.89906456039E+03 0.  0.
        -24    2    4    4    0    0 -0.14393725060E+03  0.66520051809E+03 -0.51766814605E+03  0.85891452842E+03  0.80896207085E+02 0.  0.
         24    2    4    4    0    0  0.35369990323E+03 -0.71156209193E+02 -0.38568639462E+02  0.37177855138E+03  0.81024216517E+02 0.  0.
         13    1    3    3    0    0 -0.15379002584E+02 -0.15998875311E+03 -0.12802699570E+03  0.20548437038E+03  0.00000000000E+00 0.  1.
        -13    1    3    3    0    0 -0.19438365004E+03 -0.43405555579E+03 -0.36808120093E+03  0.60139255016E+03  0.00000000000E+00 0. -1.
          2    1    6    6  502    0  0.29188462858E+03 -0.25670933244E+02 -0.29219774944E+02  0.29446464722E+03  0.00000000000E+00 0. -1.
          1    1    5    5  503    0 -0.13716809605E+03  0.49177449502E+03 -0.40871906931E+03  0.65399427990E+03  0.00000000000E+00 0. -1.
         -2    1    5    5    0  503 -0.67691545540E+01  0.17342602307E+03 -0.10894907674E+03  0.20492024852E+03  0.00000000000E+00 0.  1.
         -1    1    6    6    0  502  0.61815274655E+02 -0.45485275950E+02 -0.93488645187E+01  0.77313904162E+02  0.00000000000E+00 0.  1.
<mgrwt>
<rscale>  0 0.17447812E+04</rscale>
<asrwt>0</asrwt>
<pdfrwt beam="1">  1        2 0.23768576E+00 0.17447812E+04</pdfrwt>
<pdfrwt beam="2">  1       -2 0.75786541E-01 0.17447812E+04</pdfrwt>
<totfact> 0.17713707E+01</totfact>
</mgrwt>
</event>
<event>
12    1  0.2083715E-007  0.1409751E+04  0.7818608E-02  0.8946790E-01
         -2   -1    0    0    0  501 -0.00000000000E+00  0.00000000000E+00  0.17063689731E+03  0.17063689731E+03  0.00000000000E+00 0.  1.
          2   -1    0    0  501    0  0.00000000000E+00 -0.00000000000E+00 -0.29117358436E+04  0.29117358436E+04  0.00000000000E+00 0. -1.
         23    2    1    2    0    0  0.49404490047E+02 -0.32909613454E+03 -0.29484841352E+03  0.45375988940E+03  0.90649770341E+02 0.  0.
        254    2    1    2    0    0 -0.49404490047E+02  0.32909613454E+03 -0.24462505328E+04  0.26286128515E+04  0.90261774006E+03 0.  0.
        -24    2    4    4    0    0 -0.23951216842E+02  0.37337486861E+03 -0.31584282356E+03  0.49596914473E+03  0.79033221085E+02 0.  0.
         24    2    4    4    0    0 -0.25453273205E+02 -0.44278734071E+02 -0.21304077092E+04  0.21326437068E+04  0.83208756822E+02 0.  0.
         11    1    3    3    0    0  0.64028244855E+02 -0.19488877620E+03 -0.14016937200E+03  0.24845261938E+03  0.00000000000E+00 0. -1.
        -11    1    3    3    0    0 -0.14623754808E+02 -0.13420735834E+03 -0.15467904152E+03  0.20530727002E+03  0.00000000000E+00 0.  1.
          4    1    6    6  502    0 -0.43398278439E+02 -0.58206716382E+02 -0.17949191576E+04  0.17963869891E+04  0.00000000000E+00 0. -1.
          3    1    5    5  503    0  0.26665760012E+02  0.13126412608E+03 -0.93209503261E+02  0.16318500253E+03  0.00000000000E+00 0. -1.
         -4    1    5    5    0  503 -0.50616976854E+02  0.24211074253E+03 -0.22263332030E+03  0.33278414220E+03  0.00000000000E+00 0.  1.
         -3    1    6    6    0  502  0.17945005234E+02  0.13927982310E+02 -0.33548855168E+03  0.33625671772E+03  0.00000000000E+00 0.  1.
<mgrwt>
<rscale>  0 0.14097511E+04</rscale>
<asrwt>0</asrwt>
<pdfrwt beam="1">  1        2 0.44795930E+00 0.14097511E+04</pdfrwt>
<pdfrwt beam="2">  1       -2 0.26251834E-01 0.14097511E+04</pdfrwt>
<totfact> 0.25419550E+01</totfact>
</mgrwt>
</event>
<event>
12    1  0.2083715E-007  0.2597591E+04  0.7818608E-02  0.8369020E-01
          2   -1    0    0  501    0  0.00000000000E+00  0.00000000000E+00  0.22632474228E+04  0.22632474228E+04  0.00000000000E+00 0. -1.
         -2   -1    0    0    0  501 -0.00000000000E+00 -0.00000000000E+00 -0.74533134138E+03  0.74533134138E+03  0.00000000000E+00 0.  1.
         23    2    1    2    0    0  0.84421458995E+03  0.75892734715E+03  0.52852883498E+03  0.12545722562E+04  0.77070257396E+02 0.  0.
        254    2    1    2    0    0 -0.84421458995E+03 -0.75892734715E+03  0.98938724644E+03  0.17540065079E+04  0.89943466373E+03 0.  0.
        -24    2    4    4    0    0 -0.12827928697E+03  0.10834678846E+03 -0.78394616406E+02  0.20154588500E+03  0.79249137800E+02 0.  0.
         24    2    4    4    0    0 -0.71593530298E+03 -0.86727413562E+03  0.10677818628E+04  0.15524606229E+04  0.72443735284E+02 0.  0.
         13    1    3    3    0    0  0.87172332897E+02  0.10863285867E+03  0.52372552731E+02  0.14880523473E+03  0.00000000000E+00 0.  1.
        -13    1    3    3    0    0  0.75704225706E+03  0.65029448849E+03  0.47615628225E+03  0.11057670215E+04  0.00000000000E+00 0. -1.
          2    1    6    6  502    0 -0.65956131177E+03 -0.77214673926E+03  0.98033844116E+03  0.14114868650E+04  0.00000000000E+00 0. -1.
          3    1    5    5  503    0 -0.37999237238E+02  0.58937009313E+02 -0.68707404955E+02  0.98174439612E+02  0.00000000000E+00 0. -1.
         -4    1    5    5    0  503 -0.90280049735E+02  0.49409779152E+02 -0.96872114514E+01  0.10337144539E+03  0.00000000000E+00 0.  1.
         -1    1    6    6    0  502 -0.56373991214E+02 -0.95127396355E+02  0.87443421692E+02  0.14097375791E+03  0.00000000000E+00 0.  1.
<mgrwt>
<rscale>  0 0.25975906E+04</rscale>
<asrwt>0</asrwt>
<pdfrwt beam="1">  1        2 0.34819191E+00 0.25975906E+04</pdfrwt>
<pdfrwt beam="2">  1       -2 0.11466636E+00 0.25975906E+04</pdfrwt>
<totfact> 0.24986641E+00</totfact>
</mgrwt>
</event>
<event>
12    1  0.2083715E-007  0.1441996E+04  0.7818608E-02  0.8923968E-01
         -1   -1    0    0    0  501 -0.00000000000E+00  0.00000000000E+00  0.81349651566E+03  0.81349651566E+03  0.00000000000E+00 0.  1.
          1   -1    0    0  501    0  0.00000000000E+00 -0.00000000000E+00 -0.63901713621E+03  0.63901713621E+03  0.00000000000E+00 0. -1.
         23    2    1    2    0    0 -0.65086176734E+02 -0.39240114221E+03  0.22694655718E+03  0.46702436858E+03  0.91608701684E+02 0.  0.
        254    2    1    2    0    0  0.65086176734E+02  0.39240114221E+03 -0.52467177719E+02  0.98548928329E+03  0.90012302266E+03 0.  0.
        -24    2    4    4    0    0  0.23562085652E+03 -0.27951966111E+02 -0.35551582781E+03  0.43446984439E+03  0.77936136856E+02 0.  0.
         24    2    4    4    0    0 -0.17053467978E+03  0.42035310832E+03  0.30304865009E+03  0.55101943890E+03  0.77492741822E+02 0.  0.
         13    1    3    3    0    0 -0.28422344597E+02 -0.56234323713E+02  0.64739805120E+01  0.63340676185E+02  0.00000000000E+00 0. -1.
        -13    1    3    3    0    0 -0.36663832137E+02 -0.33616681850E+03  0.22047257667E+03  0.40368369240E+03  0.00000000000E+00 0.  1.
          4    1    6    6  502    0 -0.17183645830E+03  0.38393176243E+03  0.25952221835E+03  0.49425008692E+03  0.00000000000E+00 0. -1.
          1    1    5    5  503    0  0.20139367909E+03  0.47711415398E+01 -0.27219161254E+03  0.33863025811E+03  0.00000000000E+00 0. -1.
         -2    1    5    5    0  503  0.34227177425E+02 -0.32723107651E+02 -0.83324215264E+02  0.95839586279E+02  0.00000000000E+00 0.  1.
         -3    1    6    6    0  502  0.13017785128E+01  0.36421345892E+02  0.43526431738E+02  0.56769351975E+02  0.00000000000E+00 0.  1.
<mgrwt>
<rscale>  0 0.14419961E+04</rscale>
<asrwt>0</asrwt>
<pdfrwt beam="1">  1        1 0.98310329E-01 0.14419961E+04</pdfrwt>
<pdfrwt beam="2">  1       -1 0.12515331E+00 0.14419961E+04</pdfrwt>
<totfact> 0.16941070E+01</totfact>
</mgrwt>
</event>
<event>
12    1  0.2083715E-007  0.1568601E+04  0.7818608E-02  0.8840073E-01
         -2   -1    0    0    0  501 -0.00000000000E+00  0.00000000000E+00  0.31960782884E+03  0.31960782884E+03  0.00000000000E+00 0.  1.
          2   -1    0    0  501    0  0.00000000000E+00 -0.00000000000E+00 -0.19246315187E+04  0.19246315187E+04  0.00000000000E+00 0. -1.
         23    2    1    2    0    0 -0.46522308138E+03 -0.54547727913E+02 -0.21591461934E+03  0.52442269560E+03  0.94826529718E+02 0.  0.
        254    2    1    2    0    0  0.46522308138E+03  0.54547727913E+02 -0.13891090705E+04  0.17198166519E+04  0.89929824665E+03 0.  0.
        -24    2    4    4    0    0  0.15935769354E+03  0.28945468159E+03 -0.12607434000E+04  0.13056687429E+04  0.78218017909E+02 0.  0.
         24    2    4    4    0    0  0.30586538784E+03 -0.23490695367E+03 -0.12836567051E+03  0.41414790904E+03  0.79409274230E+02 0.  0.
         13    1    3    3    0    0 -0.92281774950E+02  0.78636625109E+01 -0.81460497540E+01  0.92973766744E+02  0.00000000000E+00 0.  1.
        -13    1    3    3    0    0 -0.37294130643E+03 -0.62411390424E+02 -0.20776856959E+03  0.43144892885E+03  0.00000000000E+00 0. -1.
          2    1    6    6  502    0  0.17908325184E+03 -0.12573418417E+03 -0.32201919862E+02  0.22117156192E+03  0.00000000000E+00 0. -1.
          3    1    5    5  503    0  0.14639675858E+03  0.21364081102E+03 -0.10453614994E+04  0.10769656780E+04  0.00000000000E+00 0. -1.
         -4    1    5    5    0  503  0.12960934962E+02  0.75813870567E+02 -0.21538190061E+03  0.22870306495E+03  0.00000000000E+00 0.  1.
         -1    1    6    6    0  502  0.12678213600E+03 -0.10917276950E+03 -0.96163750645E+02  0.19297634712E+03  0.00000000000E+00 0.  1.
<mgrwt>
<rscale>  0 0.15686010E+04</rscale>
<asrwt>0</asrwt>
<pdfrwt beam="1">  1        2 0.29609716E+00 0.15686010E+04</pdfrwt>
<pdfrwt beam="2">  1       -2 0.49170435E-01 0.15686010E+04</pdfrwt>
<totfact> 0.27697263E+01</totfact>
</mgrwt>
</event>
<event>
12    1  0.2083715E-007  0.2960531E+04  0.7818608E-02  0.8255092E-01
         -1   -1    0    0    0  501 -0.00000000000E+00  0.00000000000E+00  0.17801819623E+04  0.17801819623E+04  0.00000000000E+00 0.  1.
          1   -1    0    0  501    0  0.00000000000E+00 -0.00000000000E+00 -0.12308777149E+04  0.12308777149E+04  0.00000000000E+00 0. -1.
         23    2    1    2    0    0  0.63879527483E+03 -0.11775453806E+04  0.32373599742E+03  0.13817244033E+04  0.98411402138E+02 0.  0.
        254    2    1    2    0    0 -0.63879527483E+03  0.11775453806E+04  0.22556824998E+03  0.16293352738E+04  0.89954425826E+03 0.  0.
        -24    2    4    4    0    0  0.11511656876E+03  0.13635834172E+03  0.27995944803E+03  0.34024354424E+03  0.74451024814E+02 0.  0.
         24    2    4    4    0    0 -0.75391184359E+03  0.10411870389E+04 -0.54391198059E+02  0.12890917296E+04  0.79659067155E+02 0.  0.
         11    1    3    3    0    0  0.26483771762E+03 -0.40275823334E+03  0.14084305215E+03  0.50218520143E+03  0.00000000000E+00 0. -1.
        -11    1    3    3    0    0  0.37395755721E+03 -0.77478714729E+03  0.18289294527E+03  0.87953920187E+03  0.00000000000E+00 0.  1.
          2    1    6    6  502    0 -0.84818660207E+02  0.99457936278E+02  0.16202710032E+02  0.13171413751E+03  0.00000000000E+00 0. -1.
          3    1    5    5  503    0  0.89143550053E+00  0.13354635136E+02 -0.49321918029E+00  0.13393438768E+02  0.00000000000E+00 0. -1.
         -4    1    5    5    0  503  0.11422513326E+03  0.12300370659E+03  0.28045266721E+03  0.32685010548E+03  0.00000000000E+00 0.  1.
         -1    1    6    6    0  502 -0.66909318338E+03  0.94172910263E+03 -0.70593908091E+02  0.11573775921E+04  0.00000000000E+00 0.  1.
<mgrwt>
<rscale>  0 0.29605312E+04</rscale>
<asrwt>0</asrwt>
<pdfrwt beam="1">  1        1 0.18936580E+00 0.29605312E+04</pdfrwt>
<pdfrwt beam="2">  1       -1 0.27387415E+00 0.29605312E+04</pdfrwt>
<totfact> 0.42245387E-01</totfact>
</mgrwt>
</event>
<event>
12    1  0.2083715E-007  0.6089783E+04  0.7818608E-02  0.7679368E-01
          1   -1    0    0  501    0  0.00000000000E+00  0.00000000000E+00  0.32440969238E+04  0.32440969238E+04  0.00000000000E+00 0.  1.
         -1   -1    0    0    0  501 -0.00000000000E+00 -0.00000000000E+00 -0.28579183102E+04  0.28579183102E+04  0.00000000000E+00 0. -1.
         23    2    1    2    0    0  0.18621523917E+04  0.15877645821E+04 -0.15109466515E+04  0.28774893471E+04  0.91527377427E+02 0.  0.
        254    2    1    2    0    0 -0.18621523917E+04 -0.15877645821E+04  0.18971252651E+04  0.32245258869E+04  0.89993056728E+03 0.  0.
        -24    2    4    4    0    0 -0.24300465016E+03  0.80187620196E+02  0.30346057836E+03  0.40498611169E+03  0.80275236587E+02 0.  0.
         24    2    4    4    0    0 -0.16191477415E+04 -0.16679522023E+04  0.15936646868E+04  0.28195397752E+04  0.79582990400E+02 0.  0.
         11    1    3    3    0    0  0.67536894361E+03  0.63125696556E+03 -0.55420125675E+03  0.10778439588E+04  0.00000000000E+00 0.  1.
        -11    1    3    3    0    0  0.11867834480E+04  0.95650761653E+03 -0.95674539479E+03  0.17996453883E+04  0.00000000000E+00 0. -1.
          4    1    6    6  502    0 -0.11336819297E+04 -0.11524839068E+04  0.10654496608E+04  0.19361396780E+04  0.00000000000E+00 0. -1.
          1    1    5    5  503    0 -0.19054103842E+03  0.33726545676E+02  0.25353866287E+03  0.31894391478E+03  0.00000000000E+00 0. -1.
         -2    1    5    5    0  503 -0.52463611743E+02  0.46461074520E+02  0.49921915489E+02  0.86042196908E+02  0.00000000000E+00 0.  1.
         -3    1    6    6    0  502 -0.48546581184E+03 -0.51546829549E+03  0.52821502595E+03  0.88340009721E+03  0.00000000000E+00 0.  1.
<mgrwt>
<rscale>  0 0.60897829E+04</rscale>
<asrwt>0</asrwt>
<pdfrwt beam="1">  1        1 0.49909184E+00 0.60897829E+04</pdfrwt>
<pdfrwt beam="2">  1       -1 0.43967973E+00 0.60897829E+04</pdfrwt>
<totfact> 0.99894006E-04</totfact>
</mgrwt>
</event>
<event>
12    1  0.2083715E-007  0.1434848E+04  0.7818608E-02  0.8928973E-01
         -2   -1    0    0    0  501 -0.00000000000E+00  0.00000000000E+00  0.13642159062E+04  0.13642159062E+04  0.00000000000E+00 0.  1.
          2   -1    0    0  501    0  0.00000000000E+00 -0.00000000000E+00 -0.37728428845E+03  0.37728428845E+03  0.00000000000E+00 0. -1.
         23    2    1    2    0    0 -0.29633055162E+03  0.26236715722E+03  0.10227625778E+03  0.41904963501E+03  0.92162045763E+02 0.  0.
        254    2    1    2    0    0  0.29633055162E+03 -0.26236715722E+03  0.88465536002E+03  0.13224505597E+04  0.89978444963E+03 0.  0.
        -24    2    4    4    0    0 -0.28976884620E+03  0.60692545845E+02  0.23408789409E+03  0.38571149263E+03  0.79540203904E+02 0.  0.
         24    2    4    4    0    0  0.58609939782E+03 -0.32305970307E+03  0.65056746594E+03  0.93673906707E+03  0.79761996976E+02 0.  0.
         11    1    3    3    0    0 -0.23640952474E+03  0.25188268965E+03  0.90220879661E+02  0.35703523616E+03  0.00000000000E+00 0. -1.
        -11    1    3    3    0    0 -0.59921026880E+02  0.10484467576E+02  0.12055378117E+02  0.62014398846E+02  0.00000000000E+00 0.  1.
          2    1    6    6  502    0  0.15302637362E+03 -0.12191923297E+03  0.16850351350E+03  0.25821464802E+03  0.00000000000E+00 0. -1.
          1    1    5    5  503    0 -0.13173699094E+03  0.28338362444E+02  0.15709323819E+03  0.20696855571E+03  0.00000000000E+00 0. -1.
         -2    1    5    5    0  503 -0.15803185526E+03  0.32354183401E+02  0.76994655897E+02  0.17874293692E+03  0.00000000000E+00 0.  1.
         -1    1    6    6    0  502  0.43307302420E+03 -0.20114047010E+03  0.48206395244E+03  0.67852441904E+03  0.00000000000E+00 0.  1.
<mgrwt>
<rscale>  0 0.14348480E+04</rscale>
<asrwt>0</asrwt>
<pdfrwt beam="1">  1        2 0.58043737E-01 0.14348480E+04</pdfrwt>
<pdfrwt beam="2">  1       -2 0.20987937E+00 0.14348480E+04</pdfrwt>
<totfact> 0.94521564E+00</totfact>
</mgrwt>
</event>
<event>
12    1  0.2083715E-007  0.1759600E+04  0.7818608E-02  0.8728084E-01
          2   -1    0    0  501    0  0.00000000000E+00  0.00000000000E+00  0.16163604830E+04  0.16163604830E+04  0.00000000000E+00 0. -1.
         -2   -1    0    0    0  501 -0.00000000000E+00 -0.00000000000E+00 -0.47888346944E+03  0.47888346944E+03  0.00000000000E+00 0.  1.
         23    2    1    2    0    0  0.36635174299E+03 -0.48929883011E+03  0.66965877171E+03  0.91122066202E+03  0.90847562587E+02 0.  0.
        254    2    1    2    0    0 -0.36635174299E+03  0.48929883011E+03  0.46781824183E+03  0.11840232904E+04  0.89968344438E+03 0.  0.
        -24    2    4    4    0    0 -0.15470379187E+03  0.69546804925E+03  0.50276468588E+03  0.87577343879E+03  0.81226325674E+02 0.  0.
         24    2    4    4    0    0 -0.21164795112E+03 -0.20616921913E+03 -0.34946444048E+02  0.30824985161E+03  0.80598479745E+02 0.  0.
         11    1    3    3    0    0  0.17185095572E+03 -0.29932838225E+03  0.39929366871E+03  0.52779320313E+03  0.00000000000E+00 0. -1.
        -11    1    3    3    0    0  0.19450078727E+03 -0.18997044786E+03  0.27036510300E+03  0.38342745888E+03  0.00000000000E+00 0.  1.
          2    1    6    6  502    0 -0.79929119269E+02 -0.29503097103E+02 -0.45325150991E+00  0.85201539204E+02  0.00000000000E+00 0. -1.
          1    1    5    5  503    0 -0.64477843000E+02  0.46331590137E+03  0.33864232024E+03  0.57749254347E+03  0.00000000000E+00 0. -1.
         -2    1    5    5    0  503 -0.90225948872E+02  0.23215214787E+03  0.16412236564E+03  0.29828089532E+03  0.00000000000E+00 0.  1.
         -1    1    6    6    0  502 -0.13171883185E+03 -0.17666612203E+03 -0.34493192538E+02  0.22304831241E+03  0.00000000000E+00 0.  1.
<mgrwt>
<rscale>  0 0.17596003E+04</rscale>
<asrwt>0</asrwt>
<pdfrwt beam="1">  1        2 0.24867084E+00 0.17596003E+04</pdfrwt>
<pdfrwt beam="2">  1       -2 0.73674381E-01 0.17596003E+04</pdfrwt>
<totfact> 0.17177674E+01</totfact>
</mgrwt>
</event>
<event>
12    1  0.2083715E-007  0.1523049E+04  0.7818608E-02  0.8869269E-01
         -3   -1    0    0    0  501 -0.00000000000E+00  0.00000000000E+00  0.23633933964E+04  0.23633933964E+04  0.00000000000E+00 0.  1.
          3   -1    0    0  501    0  0.00000000000E+00 -0.00000000000E+00 -0.24537580184E+03  0.24537580184E+03  0.00000000000E+00 0. -1.
         23    2    1    2    0    0 -0.15486242500E+03 -0.46300834555E+03  0.63396062364E+03  0.80539131111E+03  0.91596904760E+02 0.  0.
        254    2    1    2    0    0  0.15486242500E+03  0.46300834555E+03  0.14840569709E+04  0.18033778871E+04  0.90077056574E+03 0.  0.
        -24    2    4    4    0    0 -0.30799820942E+03  0.43758136374E+03  0.65005003590E+03  0.84550139149E+03  0.77247698657E+02 0.  0.
         24    2    4    4    0    0  0.46286063442E+03  0.25426981817E+02  0.83400693504E+03  0.95787649565E+03  0.84103001798E+02 0.  0.
         11    1    3    3    0    0 -0.62510830660E+02 -0.12730371901E+03  0.12695384870E+03  0.19034474125E+03  0.00000000000E+00 0. -1.
        -11    1    3    3    0    0 -0.92351594341E+02 -0.33570462654E+03  0.50700677494E+03  0.61504656986E+03  0.00000000000E+00 0.  1.
          2    1    6    6  502    0  0.36194807624E+03  0.34306499682E+02  0.71067008850E+03  0.79827020519E+03  0.00000000000E+00 0. -1.
          1    1    5    5  503    0 -0.12503577111E+03  0.21153353666E+03  0.24623827255E+03  0.34787018851E+03  0.00000000000E+00 0. -1.
         -2    1    5    5    0  503 -0.18296243831E+03  0.22604782708E+03  0.40381176335E+03  0.49763120298E+03  0.00000000000E+00 0.  1.
         -1    1    6    6    0  502  0.10091255819E+03 -0.88795178646E+01  0.12333684654E+03  0.15960629045E+03  0.00000000000E+00 0.  1.
<mgrwt>
<rscale>  0 0.15230490E+04</rscale>
<asrwt>0</asrwt>
<pdfrwt beam="1">  1        3 0.37750125E-01 0.15230490E+04</pdfrwt>
<pdfrwt beam="2">  1       -3 0.36359897E+00 0.15230490E+04</pdfrwt>
<totfact> 0.29840479E-01</totfact>
</mgrwt>
</event>
<event>
12    1  0.2083715E-007  0.1672332E+04  0.7818608E-02  0.8777303E-01
         -1   -1    0    0    0  501 -0.00000000000E+00  0.00000000000E+00  0.12357239668E+04  0.12357239668E+04  0.00000000000E+00 0.  1.
          1   -1    0    0  501    0  0.00000000000E+00 -0.00000000000E+00 -0.56580095691E+03  0.56580095691E+03  0.00000000000E+00 0. -1.
         23    2    1    2    0    0  0.31244191794E+03  0.45068339992E+03  0.63275646108E+01  0.55604097758E+03  0.91684522318E+02 0.  0.
        254    2    1    2    0    0 -0.31244191794E+03 -0.45068339992E+03  0.66359544533E+03  0.12454839462E+04  0.90007547799E+03 0.  0.
        -24    2    4    4    0    0 -0.16898392234E+03  0.15092869989E+03  0.56544085037E+03  0.61464662590E+03  0.82049259605E+02 0.  0.
         24    2    4    4    0    0 -0.14345799559E+03 -0.60161209981E+03  0.98154594956E+02  0.63083732027E+03  0.76184545689E+02 0.  0.
         13    1    3    3    0    0  0.12237202085E+03  0.20084029423E+03 -0.40492610739E+02  0.23864489686E+03  0.00000000000E+00 0. -1.
        -13    1    3    3    0    0  0.19006989709E+03  0.24984310569E+03  0.46820175350E+02  0.31739608072E+03  0.00000000000E+00 0.  1.
          4    1    6    6  502    0 -0.82304745510E+02 -0.20912130138E+03  0.54265609575E+02  0.23119374171E+03  0.00000000000E+00 0. -1.
          1    1    5    5  503    0 -0.11613612186E+03  0.14554218264E+03  0.46771987767E+03  0.50342031117E+03  0.00000000000E+00 0. -1.
         -2    1    5    5    0  503 -0.52847800478E+02  0.53865172548E+01  0.97720972703E+02  0.11122631473E+03  0.00000000000E+00 0.  1.
         -3    1    6    6    0  502 -0.61153250084E+02 -0.39249079843E+03  0.43888985381E+02  0.39964357856E+03  0.00000000000E+00 0.  1.
<mgrwt>
<rscale>  0 0.16723323E+04</rscale>
<asrwt>0</asrwt>
<pdfrwt beam="1">  1        1 0.87046301E-01 0.16723323E+04</pdfrwt>
<pdfrwt beam="2">  1       -1 0.19011138E+00 0.16723323E+04</pdfrwt>
<totfact> 0.62675748E+00</totfact>
</mgrwt>
</event>
<event>
12    1  0.2083715E-007  0.2019534E+04  0.7818608E-02  0.8597542E-01
         -2   -1    0    0    0  501 -0.00000000000E+00  0.00000000000E+00  0.13319644966E+04  0.13319644966E+04  0.00000000000E+00 0. -1.
          2   -1    0    0  501    0  0.00000000000E+00 -0.00000000000E+00 -0.76550812218E+03  0.76550812218E+03  0.00000000000E+00 0.  1.
         23    2    1    2    0    0 -0.64891871046E+03 -0.47720361762E+03  0.20401313944E+03  0.83556224360E+03  0.87886952456E+02 0.  0.
        254    2    1    2    0    0  0.64891871046E+03  0.47720361762E+03  0.36244323497E+03  0.12619103752E+04  0.90124020713E+03 0.  0.
        -24    2    4    4    0    0  0.22695813732E+03 -0.18899292227E+03 -0.12593316420E+03  0.33068555679E+03  0.79154626314E+02 0.  0.
         24    2    4    4    0    0  0.42196057314E+03  0.66619653988E+03  0.48837639916E+03  0.93122481838E+03  0.82459687530E+02 0.  0.
         11    1    3    3    0    0 -0.20394621135E+03 -0.17385235585E+03  0.10592715997E+03  0.28816533792E+03  0.00000000000E+00 0. -1.
        -11    1    3    3    0    0 -0.44497249911E+03 -0.30335126177E+03  0.98085979471E+02  0.54739690568E+03  0.00000000000E+00 0.  1.
          4    1    6    6  502    0  0.39550898486E+03  0.64944947422E+03  0.47835991030E+03  0.89835415091E+03  0.00000000000E+00 0. -1.
          3    1    5    5  503    0  0.19088992413E+03 -0.11958605010E+03 -0.75295781962E+02  0.23750629738E+03  0.00000000000E+00 0. -1.
         -4    1    5    5    0  503  0.36068213192E+02 -0.69406872165E+02 -0.50637382233E+02  0.93179259419E+02  0.00000000000E+00 0.  1.
         -1    1    6    6    0  502  0.26451588281E+02  0.16747065660E+02  0.10016488866E+02  0.32870667471E+02  0.00000000000E+00 0.  1.
<mgrwt>
<rscale>  0 0.20195342E+04</rscale>
<asrwt>0</asrwt>
<pdfrwt beam="1">  1        2 0.11777048E+00 0.20195342E+04</pdfrwt>
<pdfrwt beam="2">  1       -2 0.20491762E+00 0.20195342E+04</pdfrwt>
<totfact> 0.41808604E+00</totfact>
</mgrwt>
</event>
<event>
12    1  0.2083715E-007  0.1536965E+04  0.7818608E-02  0.8860237E-01
         -2   -1    0    0    0  501 -0.00000000000E+00  0.00000000000E+00  0.35911331280E+03  0.35911331280E+03  0.00000000000E+00 0.  1.
          2   -1    0    0  501    0  0.00000000000E+00 -0.00000000000E+00 -0.16445099928E+04  0.16445099928E+04  0.00000000000E+00 0. -1.
         23    2    1    2    0    0 -0.70012680041E+02  0.28683784070E+03 -0.92178914034E+03  0.97201953826E+03  0.89157396231E+02 0.  0.
        254    2    1    2    0    0  0.70012680041E+02 -0.28683784070E+03 -0.36360753966E+03  0.10316037673E+04  0.91913990647E+03 0.  0.
        -24    2    4    4    0    0  0.26394494253E+03 -0.25528863104E+03  0.20237309782E+03  0.42709992583E+03  0.81364968506E+02 0.  0.
         24    2    4    4    0    0 -0.19393226249E+03 -0.31549209666E+02 -0.56598063748E+03  0.60450384151E+03  0.80534075591E+02 0.  0.
         11    1    3    3    0    0 -0.61362548422E+02  0.83628755738E+02 -0.27029303930E+03  0.28951244918E+03  0.00000000000E+00 0.  1.
        -11    1    3    3    0    0 -0.86501316193E+01  0.20320908496E+03 -0.65149610103E+03  0.68250708908E+03  0.00000000000E+00 0. -1.
          4    1    6    6  502    0 -0.11510570026E+03 -0.14597990782E+02 -0.21425231549E+03  0.24365237175E+03  0.00000000000E+00 0. -1.
          1    1    5    5  503    0  0.26740768411E+03 -0.24719172053E+03  0.18695550845E+03  0.40934457168E+03  0.00000000000E+00 0. -1.
         -2    1    5    5    0  503 -0.34627415874E+01 -0.80969105075E+01  0.15417589372E+02  0.17755354153E+02  0.00000000000E+00 0.  1.
         -3    1    6    6    0  502 -0.78826562221E+02 -0.16951218883E+02 -0.35172832199E+03  0.36085146976E+03  0.00000000000E+00 0.  1.
<mgrwt>
<rscale>  0 0.15369651E+04</rscale>
<asrwt>0</asrwt>
<pdfrwt beam="1">  1        2 0.25300153E+00 0.15369651E+04</pdfrwt>
<pdfrwt beam="2">  1       -2 0.55248203E-01 0.15369651E+04</pdfrwt>
<totfact> 0.31246812E+01</totfact>
</mgrwt>
</event>
<event>
12    1  0.2083715E-007  0.1572139E+04  0.7818608E-02  0.8837849E-01
         -2   -1    0    0    0  501 -0.00000000000E+00  0.00000000000E+00  0.45025314478E+03  0.45025314478E+03  0.00000000000E+00 0.  1.
          2   -1    0    0  501    0  0.00000000000E+00 -0.00000000000E+00 -0.13723504811E+04  0.13723504811E+04  0.00000000000E+00 0. -1.
         23    2    1    2    0    0 -0.33983826947E+03 -0.28799556698E+02  0.14425960939E+03  0.38563500228E+03  0.10762925356E+03 0.  0.
        254    2    1    2    0    0  0.33983826947E+03  0.28799556698E+02 -0.10663569457E+04  0.14369686236E+04  0.90080088016E+03 0.  0.
        -24    2    4    4    0    0  0.73694106977E+02  0.22743117076E+03 -0.10660977424E+04  0.10955295801E+04  0.80404637289E+02 0.  0.
         24    2    4    4    0    0  0.26614416249E+03 -0.19863161406E+03 -0.25920327891E+00  0.34143904347E+03  0.79330447386E+02 0.  0.
         13    1    3    3    0    0 -0.17951956186E+03 -0.41162275398E+02  0.25932813680E+02  0.18599493765E+03  0.00000000000E+00 0. -1.
        -13    1    3    3    0    0 -0.16031870761E+03  0.12362718700E+02  0.11832679570E+03  0.19964006463E+03  0.00000000000E+00 0.  1.
          4    1    6    6  502    0  0.70494341038E+02 -0.12921921132E+02  0.13159747269E+01  0.71680959491E+02  0.00000000000E+00 0. -1.
          1    1    5    5  503    0 -0.76039362775E+01  0.42529255778E+01 -0.11093817838E+03  0.11127976745E+03  0.00000000000E+00 0. -1.
         -2    1    5    5    0  503  0.81298043254E+02  0.22317824518E+03 -0.95515956407E+03  0.98424981270E+03  0.00000000000E+00 0.  1.
         -3    1    6    6    0  502  0.19564982145E+03 -0.18570969293E+03 -0.15751780058E+01  0.26975808397E+03  0.00000000000E+00 0.  1.
<mgrwt>
<rscale>  0 0.15721388E+04</rscale>
<asrwt>0</asrwt>
<pdfrwt beam="1">  1        2 0.21113084E+00 0.15721388E+04</pdfrwt>
<pdfrwt beam="2">  1       -2 0.69269715E-01 0.15721388E+04</pdfrwt>
<totfact> 0.27433210E+01</totfact>
</mgrwt>
</event>
<event>
12    1  0.2083715E-007  0.1423162E+04  0.7818608E-02  0.8937221E-01
         -1   -1    0    0    0  501 -0.00000000000E+00  0.00000000000E+00  0.47019375652E+03  0.47019375652E+03  0.00000000000E+00 0. -1.
          1   -1    0    0  501    0  0.00000000000E+00 -0.00000000000E+00 -0.10768918748E+04  0.10768918748E+04  0.00000000000E+00 0.  1.
         23    2    1    2    0    0 -0.14703424611E+03 -0.36330079056E+03 -0.35150463184E+03  0.53410907572E+03  0.90058117945E+02 0.  0.
        254    2    1    2    0    0  0.14703424611E+03  0.36330079056E+03 -0.25519348640E+03  0.10129765556E+04  0.89854952712E+03 0.  0.
        -24    2    4    4    0    0  0.28553117568E+03 -0.20949790025E+03  0.75367354951E+01  0.36286458129E+03  0.78717720270E+02 0.  0.
         24    2    4    4    0    0 -0.13849692957E+03  0.57279869080E+03 -0.26273022189E+03  0.65011197428E+03  0.79615764250E+02 0.  0.
         11    1    3    3    0    0 -0.42913068098E+02 -0.20823627593E+03 -0.15585212293E+03  0.26361669569E+03  0.00000000000E+00 0. -1.
        -11    1    3    3    0    0 -0.10412117801E+03 -0.15506451463E+03 -0.19565250891E+03  0.27049238002E+03  0.00000000000E+00 0.  1.
          4    1    6    6  502    0 -0.27545231539E+02  0.34755310569E+02 -0.29661658320E+02  0.53352463557E+02  0.00000000000E+00 0. -1.
          3    1    5    5  503    0  0.63639410068E+02 -0.25619688128E+02  0.27693288899E+02  0.73981492169E+02  0.00000000000E+00 0. -1.
         -4    1    5    5    0  503  0.22189176561E+03 -0.18387821212E+03 -0.20156553404E+02  0.28888308912E+03  0.00000000000E+00 0.  1.
         -3    1    6    6    0  502 -0.11095169803E+03  0.53804338023E+03 -0.23306856357E+03  0.59675951072E+03  0.00000000000E+00 0.  1.
<mgrwt>
<rscale>  0 0.14231624E+04</rscale>
<asrwt>0</asrwt>
<pdfrwt beam="1">  1        1 0.16567567E+00 0.14231624E+04</pdfrwt>
<pdfrwt beam="2">  1       -1 0.72337501E-01 0.14231624E+04</pdfrwt>
<totfact> 0.24771283E+01</totfact>
</mgrwt>
</event>
<event>
12    1  0.2083715E-007  0.2993862E+04  0.7818608E-02  0.8245486E-01
         -2   -1    0    0    0  501 -0.00000000000E+00  0.00000000000E+00  0.14333699814E+04  0.14333699814E+04  0.00000000000E+00 0.  1.
          2   -1    0    0  501    0  0.00000000000E+00 -0.00000000000E+00 -0.15633103320E+04  0.15633103320E+04  0.00000000000E+00 0. -1.
         23    2    1    2    0    0 -0.12427921663E+04  0.22679077748E+03  0.44516210738E+03  0.13425940155E+04  0.91776702523E+02 0.  0.
        254    2    1    2    0    0  0.12427921663E+04 -0.22679077748E+03 -0.57510245801E+03  0.16540862979E+04  0.89960670200E+03 0.  0.
        -24    2    4    4    0    0  0.41455107601E+03  0.32437631874E+03 -0.32955610784E+03  0.62612536620E+03  0.79706682262E+02 0.  0.
         24    2    4    4    0    0  0.82824109032E+03 -0.55116709623E+03 -0.24554635017E+03  0.10279609317E+04  0.81499664964E+02 0.  0.
         11    1    3    3    0    0 -0.72745240636E+03  0.89569316856E+02  0.24093482114E+03  0.77153046219E+03  0.00000000000E+00 0. -1.
        -11    1    3    3    0    0 -0.51533975997E+03  0.13722146063E+03  0.20422728624E+03  0.57106355330E+03  0.00000000000E+00 0.  1.
          4    1    6    6  502    0  0.37722777262E+03 -0.21118250999E+03 -0.82775849703E+02  0.44017120108E+03  0.00000000000E+00 0. -1.
          3    1    5    5  503    0  0.20532068730E+03  0.21019916241E+03 -0.17376142939E+03  0.34136975093E+03  0.00000000000E+00 0. -1.
         -4    1    5    5    0  503  0.20923038871E+03  0.11417715634E+03 -0.15579467846E+03  0.28475561527E+03  0.00000000000E+00 0.  1.
         -3    1    6    6    0  502  0.45101331769E+03 -0.33998458624E+03 -0.16277050046E+03  0.58778973063E+03  0.00000000000E+00 0.  1.
<mgrwt>
<rscale>  0 0.29938618E+04</rscale>
<asrwt>0</asrwt>
<pdfrwt beam="1">  1        2 0.24050928E+00 0.29938618E+04</pdfrwt>
<pdfrwt beam="2">  1       -2 0.22051846E+00 0.29938618E+04</pdfrwt>
<totfact> 0.98239328E-01</totfact>
</mgrwt>
</event>
<event>
12    1  0.2083715E-007  0.2531881E+04  0.7818608E-02  0.8391715E-01
         -1   -1    0    0    0  501 -0.00000000000E+00  0.00000000000E+00  0.12137161874E+04  0.12137161874E+04  0.00000000000E+00 0.  1.
          1   -1    0    0  501    0  0.00000000000E+00 -0.00000000000E+00 -0.13204115549E+04  0.13204115549E+04  0.00000000000E+00 0. -1.
         23    2    1    2    0    0  0.64152221093E+03 -0.24291237438E+03 -0.91212982895E+03  0.11449669498E+04  0.91713262634E+02 0.  0.
        254    2    1    2    0    0 -0.64152221093E+03  0.24291237438E+03  0.80543446146E+03  0.13891607925E+04  0.90026988569E+03 0.  0.
        -24    2    4    4    0    0 -0.84648977162E+03  0.15339060112E+03  0.48904643487E+03  0.99264257420E+03  0.78097725296E+02 0.  0.
         24    2    4    4    0    0  0.20496756069E+03  0.89521773263E+02  0.31638802659E+03  0.39651821834E+03  0.84258324697E+02 0.  0.
         11    1    3    3    0    0  0.55866410069E+03 -0.23059849925E+03 -0.83729885989E+03  0.10326425451E+04  0.00000000000E+00 0. -1.
        -11    1    3    3    0    0  0.82858110239E+02 -0.12313875131E+02 -0.74830969053E+02  0.11232440466E+03  0.00000000000E+00 0.  1.
          2    1    6    6  502    0  0.93324587751E+02  0.43838557374E+02  0.77791823494E+02  0.12916216781E+03  0.00000000000E+00 0. -1.
          3    1    5    5  503    0 -0.52108750168E+03  0.69287087268E+02  0.33135205163E+03  0.62139123504E+03  0.00000000000E+00 0. -1.
         -4    1    5    5    0  503 -0.32540226994E+03  0.84103513847E+02  0.15769438324E+03  0.37125133916E+03  0.00000000000E+00 0.  1.
         -1    1    6    6    0  502  0.11164297294E+03  0.45683215890E+02  0.23859620309E+03  0.26735605052E+03  0.00000000000E+00 0.  1.
<mgrwt>
<rscale>  0 0.25318806E+04</rscale>
<asrwt>0</asrwt>
<pdfrwt beam="1">  1        1 0.20314024E+00 0.25318806E+04</pdfrwt>
<pdfrwt beam="2">  1       -1 0.18672557E+00 0.25318806E+04</pdfrwt>
<totfact> 0.14441652E+00</totfact>
</mgrwt>
</event>
<event>
12    1  0.2083715E-007  0.1507779E+04  0.7818608E-02  0.8879296E-01
          2   -1    0    0  501    0  0.00000000000E+00  0.00000000000E+00  0.27223609198E+04  0.27223609198E+04  0.00000000000E+00 0.  1.
         -2   -1    0    0    0  501 -0.00000000000E+00 -0.00000000000E+00 -0.20877081178E+03  0.20877081178E+03  0.00000000000E+00 0. -1.
         23    2    1    2    0    0  0.17704966822E+03 -0.43896364843E+03  0.66472614404E+03  0.82110170231E+03  0.91167369740E+02 0.  0.
        254    2    1    2    0    0 -0.17704966822E+03  0.43896364843E+03  0.18488639640E+04  0.21100300293E+04  0.89994060776E+03 0.  0.
        -24    2    4    4    0    0 -0.25586824158E+03  0.69086393373E+03  0.13507770052E+04  0.15406977764E+04  0.79934900057E+02 0.  0.
         24    2    4    4    0    0  0.78818573362E+02 -0.25190028530E+03  0.49808695875E+03  0.56933225291E+03  0.79890390487E+02 0.  0.
         11    1    3    3    0    0  0.69734676556E+02 -0.77515510741E+02  0.16298010718E+03  0.19347892613E+03  0.00000000000E+00 0.  1.
        -11    1    3    3    0    0  0.10731499166E+03 -0.36144813769E+03  0.50174603686E+03  0.62762277618E+03  0.00000000000E+00 0. -1.
          2    1    6    6  502    0  0.59281902635E+02 -0.65943569182E+02  0.16801263513E+03  0.18997669294E+03  0.00000000000E+00 0. -1.
          3    1    5    5  503    0 -0.26067136893E+03  0.68412129458E+03  0.13274732058E+04  0.15159672227E+04  0.00000000000E+00 0. -1.
         -2    1    5    5    0  503  0.48031273493E+01  0.67426391565E+01  0.23303799428E+02  0.24730553631E+02  0.00000000000E+00 0.  1.
         -1    1    6    6    0  502  0.19536670726E+02 -0.18595671612E+03  0.33007432362E+03  0.37935555998E+03  0.00000000000E+00 0.  1.
<mgrwt>
<rscale>  0 0.15077792E+04</rscale>
<asrwt>0</asrwt>
<pdfrwt beam="1">  1        2 0.41882473E+00 0.15077792E+04</pdfrwt>
<pdfrwt beam="2">  1       -2 0.32118589E-01 0.15077792E+04</pdfrwt>
<totfact> 0.22531451E+01</totfact>
</mgrwt>
</event>
<event>
12    1  0.2083715E-007  0.2953409E+04  0.7818608E-02  0.8257162E-01
         -2   -1    0    0    0  501 -0.00000000000E+00  0.00000000000E+00  0.12949284129E+04  0.12949284129E+04  0.00000000000E+00 0.  1.
          2   -1    0    0  501    0  0.00000000000E+00 -0.00000000000E+00 -0.16839979142E+04  0.16839979142E+04  0.00000000000E+00 0. -1.
         23    2    1    2    0    0  0.11756756363E+03  0.69726735083E+03  0.96869318013E+03  0.12026359824E+04  0.89235298451E+02 0.  0.
        254    2    1    2    0    0 -0.11756756363E+03 -0.69726735083E+03 -0.13577626814E+04  0.17762903446E+04  0.90093506915E+03 0.  0.
        -24    2    4    4    0    0 -0.31339810796E+03  0.18072910743E+02 -0.15099963794E+03  0.35750631560E+03  0.80404420629E+02 0.  0.
         24    2    4    4    0    0  0.19583054434E+03 -0.71534026157E+03 -0.12067630435E+04  0.14187840290E+04  0.81300590479E+02 0.  0.
         11    1    3    3    0    0  0.11169582465E+03  0.55646248803E+03  0.82495145446E+03  0.10013347892E+04  0.00000000000E+00 0.  1.
        -11    1    3    3    0    0  0.58717389752E+01  0.14080486280E+03  0.14374172567E+03  0.20130119326E+03  0.00000000000E+00 0. -1.
          4    1    6    6  502    0  0.20633748819E+00 -0.75153758812E+02 -0.96235904701E+02  0.12210437909E+03  0.00000000000E+00 0. -1.
          1    1    5    5  503    0  0.41198713699E+01 -0.22175653644E+01  0.11713898063E+01  0.48231825933E+01  0.00000000000E+00 0. -1.
         -4    1    5    5    0  503 -0.31751797933E+03  0.20290476107E+02 -0.15217102775E+03  0.35268313301E+03  0.00000000000E+00 0.  1.
         -3    1    6    6    0  502  0.19562420685E+03 -0.64018650276E+03 -0.11105271388E+04  0.12966796499E+04  0.00000000000E+00 0.  1.
<mgrwt>
<rscale>  0 0.29534094E+04</rscale>
<asrwt>0</asrwt>
<pdfrwt beam="1">  1        2 0.25907660E+00 0.29534094E+04</pdfrwt>
<pdfrwt beam="2">  1       -2 0.19921976E+00 0.29534094E+04</pdfrwt>
<totfact> 0.11577656E+00</totfact>
</mgrwt>
</event>
<event>
12    1  0.2083715E-007  0.1403759E+04  0.7818608E-02  0.8951102E-01
          4   -1    0    0  501    0  0.00000000000E+00  0.00000000000E+00  0.11396795665E+04  0.11396795665E+04  0.00000000000E+00 0. -1.
         -4   -1    0    0    0  501 -0.00000000000E+00 -0.00000000000E+00 -0.43225703479E+03  0.43225703479E+03  0.00000000000E+00 0.  1.
         23    2    1    2    0    0 -0.33120215569E+03  0.32346269967E+02 -0.51588634690E+02  0.34901198176E+03  0.91688751043E+02 0.  0.
        254    2    1    2    0    0  0.33120215569E+03 -0.32346269967E+02  0.75901116644E+03  0.12229246196E+04  0.89928055982E+03 0.  0.
        -24    2    4    4    0    0  0.55498573143E+03 -0.11420374793E+03  0.19377344926E+03  0.60396042364E+03  0.78539070183E+02 0.  0.
         24    2    4    4    0    0 -0.22378357574E+03  0.81857477967E+02  0.56523771718E+03  0.61896419594E+03  0.82724019847E+02 0.  0.
         13    1    3    3    0    0 -0.27053713090E+03  0.10556415277E+02 -0.73698585198E+01  0.27084329771E+03  0.00000000000E+00 0. -1.
        -13    1    3    3    0    0 -0.60665024790E+02  0.21789854690E+02 -0.44218776170E+02  0.78168684050E+02  0.00000000000E+00 0.  1.
          4    1    6    6  502    0 -0.10097218345E+03 -0.55710554741E+01  0.21094323255E+03  0.23393047225E+03  0.00000000000E+00 0. -1.
          1    1    5    5  503    0  0.32423056908E+03 -0.30393611393E+02  0.12697969926E+03  0.34953265593E+03  0.00000000000E+00 0. -1.
         -2    1    5    5    0  503  0.23075516235E+03 -0.83810136541E+02  0.66793749997E+02  0.25442776770E+03  0.00000000000E+00 0.  1.
         -3    1    6    6    0  502 -0.12281139230E+03  0.87428533441E+02  0.35429448463E+03  0.38503372369E+03  0.00000000000E+00 0.  1.
<mgrwt>
<rscale>  0 0.14037585E+04</rscale>
<asrwt>0</asrwt>
<pdfrwt beam="1">  1        4 0.17533532E+00 0.14037585E+04</pdfrwt>
<pdfrwt beam="2">  1       -4 0.66501083E-01 0.14037585E+04</pdfrwt>
<totfact> 0.79013595E-01</totfact>
</mgrwt>
</event>
<event>
12    1  0.2083715E-007  0.1665828E+04  0.7818608E-02  0.8781098E-01
          1   -1    0    0  501    0  0.00000000000E+00  0.00000000000E+00  0.19324326804E+04  0.19324326804E+04  0.00000000000E+00 0. -1.
         -1   -1    0    0    0  501 -0.00000000000E+00 -0.00000000000E+00 -0.35900118507E+03  0.35900118507E+03  0.00000000000E+00 0.  1.
         23    2    1    2    0    0  0.18271241448E+03  0.55224217600E+03  0.47371957933E+03  0.75595360381E+03  0.93275741325E+02 0.  0.
        254    2    1    2    0    0 -0.18271241448E+03 -0.55224217600E+03  0.10997119160E+04  0.15354802617E+04  0.89998782681E+03 0.  0.
        -24    2    4    4    0    0  0.87303840905E+02 -0.57400077806E+02 -0.12742715175E+03  0.18273649182E+03  0.78982383296E+02 0.  0.
         24    2    4    4    0    0 -0.27001625538E+03 -0.49484209820E+03  0.12271390678E+04  0.13527437699E+04  0.79170290555E+02 0.  0.
         13    1    3    3    0    0  0.10766820436E+03  0.31470153423E+03  0.32909340340E+03  0.46790166279E+03  0.00000000000E+00 0.  1.
        -13    1    3    3    0    0  0.75044210111E+02  0.23754064178E+03  0.14462617593E+03  0.28805194103E+03  0.00000000000E+00 0. -1.
          2    1    6    6  502    0 -0.18373598688E+03 -0.26288056451E+03  0.65192228706E+03  0.72654509319E+03  0.00000000000E+00 0. -1.
          1    1    5    5  503    0  0.23213186972E+02  0.10809671211E+02 -0.12527538387E+01  0.25637285996E+02  0.00000000000E+00 0. -1.
         -4    1    5    5    0  503  0.64090653933E+02 -0.68209749017E+02 -0.12617439791E+03  0.15709920582E+03  0.00000000000E+00 0.  1.
         -1    1    6    6    0  502 -0.86280268502E+02 -0.23196153369E+03  0.57521678073E+03  0.62619867668E+03  0.00000000000E+00 0.  1.
<mgrwt>
<rscale>  0 0.16658279E+04</rscale>
<asrwt>0</asrwt>
<pdfrwt beam="1">  1        1 0.29729733E+00 0.16658279E+04</pdfrwt>
<pdfrwt beam="2">  1       -1 0.55230953E-01 0.16658279E+04</pdfrwt>
<totfact> 0.10476542E+01</totfact>
</mgrwt>
</event>
<event>
12    1  0.2083715E-007  0.1297028E+04  0.7818608E-02  0.9031925E-01
          2   -1    0    0  501    0  0.00000000000E+00  0.00000000000E+00  0.30103090103E+04  0.30103090103E+04  0.00000000000E+00 0. -1.
         -2   -1    0    0    0  501 -0.00000000000E+00 -0.00000000000E+00 -0.13971009935E+03  0.13971009935E+03  0.00000000000E+00 0.  1.
         23    2    1    2    0    0 -0.22647802077E+03 -0.22632045887E+03  0.90293368420E+03  0.96251937359E+03  0.92957315363E+02 0.  0.
        254    2    1    2    0    0  0.22647802077E+03  0.22632045887E+03  0.19676652268E+04  0.21874997361E+04  0.90051952048E+03 0.  0.
        -24    2    4    4    0    0  0.56405099300E+03  0.12550887836E+03  0.13745632155E+04  0.14930834678E+04  0.77254171368E+02 0.  0.
         24    2    4    4    0    0 -0.33757297223E+03  0.10081158050E+03  0.59310201128E+03  0.69441626835E+03  0.79532833645E+02 0.  0.
         11    1    3    3    0    0 -0.11565315874E+03 -0.77380627904E+02  0.28260226524E+03  0.31500389683E+03  0.00000000000E+00 0.  1.
        -11    1    3    3    0    0 -0.11082486203E+03 -0.14893983096E+03  0.62033141896E+03  0.64751547676E+03  0.00000000000E+00 0. -1.
          4    1    6    6  502    0 -0.14382757264E+03  0.27009966176E+02  0.31691062000E+03  0.34906768684E+03  0.00000000000E+00 0. -1.
          1    1    5    5  503    0  0.14312165607E+02  0.10845929105E+02  0.20881442295E+02  0.27541003882E+02  0.00000000000E+00 0. -1.
         -4    1    5    5    0  503  0.54973882739E+03  0.11466294926E+03  0.13536817732E+04  0.14655424639E+04  0.00000000000E+00 0.  1.
         -3    1    6    6    0  502 -0.19374539959E+03  0.73801614329E+02  0.27619139127E+03  0.34534858151E+03  0.00000000000E+00 0.  1.
<mgrwt>
<rscale>  0 0.12970283E+04</rscale>
<asrwt>0</asrwt>
<pdfrwt beam="1">  1        2 0.46312441E+00 0.12970283E+04</pdfrwt>
<pdfrwt beam="2">  1       -2 0.21493864E-01 0.12970283E+04</pdfrwt>
<totfact> 0.32019995E+01</totfact>
</mgrwt>
</event>
<event>
12    1  0.2083715E-007  0.1703435E+04  0.7818608E-02  0.8759408E-01
         -1   -1    0    0    0  501 -0.00000000000E+00  0.00000000000E+00  0.33244706060E+03  0.33244706060E+03  0.00000000000E+00 0.  1.
          1   -1    0    0  501    0  0.00000000000E+00 -0.00000000000E+00 -0.21820690586E+04  0.21820690586E+04  0.00000000000E+00 0. -1.
         23    2    1    2    0    0  0.41275613106E+03  0.44666342419E+03 -0.74031133222E+03  0.96213020868E+03  0.88078553640E+02 0.  0.
        254    2    1    2    0    0 -0.41275613106E+03 -0.44666342419E+03 -0.11093106658E+04  0.15523859105E+04  0.89969774022E+03 0.  0.
        -24    2    4    4    0    0 -0.69114888440E+03 -0.31329625426E+03 -0.84233174801E+03  0.11365642341E+04  0.80088458732E+02 0.  0.
         24    2    4    4    0    0  0.27839275334E+03 -0.13336716993E+03 -0.26697891779E+03  0.41582167643E+03  0.79627865199E+02 0.  0.
         11    1    3    3    0    0  0.14505794590E+03  0.11479696377E+03 -0.18073063556E+03  0.25861885699E+03  0.00000000000E+00 0.  1.
        -11    1    3    3    0    0  0.26769818515E+03  0.33186646042E+03 -0.55958069666E+03  0.70351135169E+03  0.00000000000E+00 0. -1.
          4    1    6    6  502    0  0.65121971988E+02 -0.16348381655E+02 -0.10117154648E+03  0.12142414354E+03  0.00000000000E+00 0. -1.
          1    1    5    5  503    0 -0.30661611560E+03 -0.18080510093E+03 -0.41114674149E+03  0.54382494417E+03  0.00000000000E+00 0. -1.
         -4    1    5    5    0  503 -0.38453276880E+03 -0.13249115333E+03 -0.43118500653E+03  0.59273928995E+03  0.00000000000E+00 0.  1.
         -3    1    6    6    0  502  0.21327078135E+03 -0.11701878827E+03 -0.16580737131E+03  0.29439753289E+03  0.00000000000E+00 0.  1.
<mgrwt>
<rscale>  0 0.17034347E+04</rscale>
<asrwt>0</asrwt>
<pdfrwt beam="1">  1        1 0.33570292E+00 0.17034347E+04</pdfrwt>
<pdfrwt beam="2">  1       -1 0.51145704E-01 0.17034347E+04</pdfrwt>
<totfact> 0.81988194E+00</totfact>
</mgrwt>
</event>
<event>
12    1  0.2083715E-007  0.1675993E+04  0.7818608E-02  0.8775176E-01
         -1   -1    0    0    0  501 -0.00000000000E+00  0.00000000000E+00  0.11228338021E+04  0.11228338021E+04  0.00000000000E+00 0.  1.
          1   -1    0    0  501    0  0.00000000000E+00 -0.00000000000E+00 -0.62541561724E+03  0.62541561724E+03  0.00000000000E+00 0. -1.
         23    2    1    2    0    0  0.34184782417E+03 -0.26823995919E+03 -0.24148441090E+03  0.50528153233E+03  0.90454936935E+02 0.  0.
        254    2    1    2    0    0 -0.34184782417E+03  0.26823995919E+03  0.73890259573E+03  0.12429678870E+04  0.90009972309E+03 0.  0.
        -24    2    4    4    0    0  0.14475057390E+03  0.41893833335E+03  0.18627309572E+03  0.48714725858E+03  0.78439336760E+02 0.  0.
         24    2    4    4    0    0 -0.48659839806E+03 -0.15069837416E+03  0.55262950001E+03  0.75582062842E+03  0.79858982474E+02 0.  0.
         13    1    3    3    0    0  0.26557373198E+03 -0.21527200056E+03 -0.22925469422E+03  0.41161773062E+03  0.00000000000E+00 0. -1.
        -13    1    3    3    0    0  0.76274092189E+02 -0.52967958632E+02 -0.12229716679E+02  0.93663801711E+02  0.00000000000E+00 0.  1.
          4    1    6    6  502    0 -0.44334657762E+03 -0.11870489572E+03  0.51681611278E+03  0.69119167717E+03  0.00000000000E+00 0. -1.
          1    1    5    5  503    0  0.12678796233E+03  0.31240130783E+03  0.17099026856E+03  0.37803099935E+03  0.00000000000E+00 0. -1.
         -2    1    5    5    0  503  0.17962611563E+02  0.10653702552E+03  0.15282827163E+02  0.10911625923E+03  0.00000000000E+00 0.  1.
         -3    1    6    6    0  502 -0.43251820446E+02 -0.31993478440E+02  0.35813387227E+02  0.64628951247E+02  0.00000000000E+00 0.  1.
<mgrwt>
<rscale>  0 0.16759926E+04</rscale>
<asrwt>0</asrwt>
<pdfrwt beam="1">  1        1 0.96217788E-01 0.16759926E+04</pdfrwt>
<pdfrwt beam="2">  1       -1 0.17274366E+00 0.16759926E+04</pdfrwt>
<totfact> 0.72211849E+00</totfact>
</mgrwt>
</event>
<event>
12    1  0.2083715E-007  0.4187597E+04  0.7818608E-02  0.7967736E-01
         -1   -1    0    0    0  501 -0.00000000000E+00  0.00000000000E+00  0.16180445664E+04  0.16180445664E+04  0.00000000000E+00 0.  1.
          1   -1    0    0  501    0  0.00000000000E+00 -0.00000000000E+00 -0.27094384158E+04  0.27094384158E+04  0.00000000000E+00 0. -1.
         23    2    1    2    0    0  0.76499311955E+03  0.16691096565E+04 -0.13288170654E+04  0.22683831192E+04  0.93089546737E+02 0.  0.
        254    2    1    2    0    0 -0.76499311955E+03 -0.16691096565E+04  0.23742321601E+03  0.20590998630E+04  0.90132177615E+03 0.  0.
        -24    2    4    4    0    0 -0.31102920722E+03 -0.42475944012E+02  0.17346805694E+03  0.36737951290E+03  0.79581192223E+02 0.  0.
         24    2    4    4    0    0 -0.45396391233E+03 -0.16266337125E+04  0.63955159069E+02  0.16917203502E+04  0.76203756349E+02 0.  0.
         11    1    3    3    0    0  0.77703489806E+02  0.12007224494E+03 -0.86609115629E+02  0.16720142118E+03  0.00000000000E+00 0. -1.
        -11    1    3    3    0    0  0.68728962974E+03  0.15490374115E+04 -0.12422079497E+04  0.21011816980E+04  0.00000000000E+00 0.  1.
          2    1    6    6  502    0 -0.13732318652E+03 -0.43531736546E+03  0.47543437367E+02  0.45893272346E+03  0.00000000000E+00 0. -1.
          3    1    5    5  503    0 -0.49752461090E+02  0.17256247735E+02  0.10476169884E+02  0.53692044158E+02  0.00000000000E+00 0. -1.
         -4    1    5    5    0  503 -0.26127674613E+03 -0.59732191747E+02  0.16299188705E+03  0.31368746874E+03  0.00000000000E+00 0.  1.
         -1    1    6    6    0  502 -0.31664072581E+03 -0.11913163470E+04  0.16411721702E+02  0.12327876267E+04  0.00000000000E+00 0.  1.
<mgrwt>
<rscale>  0 0.41875970E+04</rscale>
<asrwt>0</asrwt>
<pdfrwt beam="1">  1        1 0.41683667E+00 0.41875970E+04</pdfrwt>
<pdfrwt beam="2">  1       -1 0.24892994E+00 0.41875970E+04</pdfrwt>
<totfact> 0.52772487E-02</totfact>
</mgrwt>
</event>
<event>
12    1  0.2083715E-007  0.1888434E+04  0.7818608E-02  0.8660635E-01
         -1   -1    0    0    0  501 -0.00000000000E+00  0.00000000000E+00  0.63058517533E+03  0.63058517533E+03  0.00000000000E+00 0.  1.
          1   -1    0    0  501    0  0.00000000000E+00 -0.00000000000E+00 -0.14138394666E+04  0.14138394666E+04  0.00000000000E+00 0. -1.
         23    2    1    2    0    0  0.64714692688E+03  0.16229572548E+03 -0.61632438523E+03  0.91286396699E+03  0.91245969390E+02 0.  0.
        254    2    1    2    0    0 -0.64714692688E+03 -0.16229572548E+03 -0.16692990605E+03  0.11315606749E+04  0.89856826120E+03 0.  0.
        -24    2    4    4    0    0  0.14063620102E+03 -0.20380404449E+03 -0.21668765401E+03  0.33717147385E+03  0.73596425098E+02 0.  0.
         24    2    4    4    0    0 -0.78778312791E+03  0.41508319008E+02  0.49757747966E+02  0.79438920108E+03  0.79077001428E+02 0.  0.
         13    1    3    3    0    0  0.39151212772E+03  0.14379230336E+03 -0.37912105947E+03  0.56364062166E+03  0.00000000000E+00 0.  1.
        -13    1    3    3    0    0  0.25563479916E+03  0.18503422118E+02 -0.23720332576E+03  0.34922334533E+03  0.00000000000E+00 0. -1.
          2    1    6    6  502    0 -0.73338543653E+03  0.50674263872E+02  0.62454967647E+02  0.73778228667E+03  0.00000000000E+00 0. -1.
          1    1    5    5  503    0  0.14031397118E+03 -0.20715640501E+03 -0.20047277652E+03  0.32061054376E+03  0.00000000000E+00 0. -1.
         -2    1    5    5    0  503  0.32222984414E+00  0.33523605263E+01 -0.16214877492E+02  0.16560930084E+02  0.00000000000E+00 0.  1.
         -1    1    6    6    0  502 -0.54397691374E+02 -0.91659448642E+01 -0.12697219681E+02  0.56606914416E+02  0.00000000000E+00 0.  1.
<mgrwt>
<rscale>  0 0.18884345E+04</rscale>
<asrwt>0</asrwt>
<pdfrwt beam="1">  1        1 0.21751376E+00 0.18884345E+04</pdfrwt>
<pdfrwt beam="2">  1       -1 0.97013104E-01 0.18884345E+04</pdfrwt>
<totfact> 0.71855668E+00</totfact>
</mgrwt>
</event>
<event>
12    1  0.2083715E-007  0.4058628E+04  0.7818608E-02  0.7992823E-01
         -2   -1    0    0    0  501 -0.00000000000E+00  0.00000000000E+00  0.11894299442E+04  0.11894299442E+04  0.00000000000E+00 0.  1.
          2   -1    0    0  501    0  0.00000000000E+00 -0.00000000000E+00 -0.34622590962E+04  0.34622590962E+04  0.00000000000E+00 0. -1.
         23    2    1    2    0    0 -0.18841562116E+04 -0.84641729030E+01 -0.61176579246E+03  0.19829382169E+04  0.87580337017E+02 0.  0.
        254    2    1    2    0    0  0.18841562116E+04  0.84641729030E+01 -0.16610633595E+04  0.26687508235E+04  0.90165581117E+03 0.  0.
        -24    2    4    4    0    0  0.20893814057E+03 -0.30622963640E+03 -0.24191311838E+03  0.44935418418E+03  0.77236579413E+02 0.  0.
         24    2    4    4    0    0  0.16752180710E+04  0.31469380931E+03 -0.14191502412E+04  0.22193966393E+04  0.79663396319E+02 0.  0.
         13    1    3    3    0    0 -0.97864379942E+03  0.10990960762E+01 -0.36335883231E+03  0.10439226672E+04  0.00000000000E+00 0. -1.
        -13    1    3    3    0    0 -0.90551241216E+03 -0.95632689791E+01 -0.24840696014E+03  0.93901554967E+03  0.00000000000E+00 0.  1.
          4    1    6    6  502    0  0.21413704355E+03  0.61866608246E+02 -0.16457842844E+03  0.27707076667E+03  0.00000000000E+00 0. -1.
          1    1    5    5  503    0  0.15754231643E+03 -0.17331601949E+03 -0.17222644474E+03  0.29072318852E+03  0.00000000000E+00 0. -1.
         -2    1    5    5    0  503  0.51395824149E+02 -0.13291361691E+03 -0.69686673636E+02  0.15863099566E+03  0.00000000000E+00 0.  1.
         -3    1    6    6    0  502  0.14610810275E+04  0.25282720106E+03 -0.12545718127E+04  0.19423258727E+04  0.00000000000E+00 0.  1.
<mgrwt>
<rscale>  0 0.40586277E+04</rscale>
<asrwt>0</asrwt>
<pdfrwt beam="1">  1        2 0.53265524E+00 0.40586277E+04</pdfrwt>
<pdfrwt beam="2">  1       -2 0.18298923E+00 0.40586277E+04</pdfrwt>
<totfact> 0.11708404E-01</totfact>
</mgrwt>
</event>
<event>
12    1  0.2369853E-007  0.1740138E+04  0.7818608E-02  0.8738798E-01
          2   -1    0    0  501    0  0.00000000000E+00  0.00000000000E+00  0.88887209762E+03  0.88887209762E+03  0.00000000000E+00 0. -1.
         -2   -1    0    0    0  501 -0.00000000000E+00 -0.00000000000E+00 -0.85166366456E+03  0.85166366456E+03  0.00000000000E+00 0.  1.
         23    2    1    2    0    0  0.61715411746E+03  0.39017166553E+02  0.16844543613E+03  0.64776026663E+03  0.93903962070E+02 0.  0.
        254    2    1    2    0    0 -0.61715411746E+03 -0.39017166553E+02 -0.13123700307E+03  0.10927754956E+04  0.89136613618E+03 0.  0.
        -24    2    4    4    0    0 -0.17639758592E+03  0.40109916602E+03  0.22325322329E+02  0.44624543834E+03  0.81485716067E+02 0.  0.
         24    2    4    4    0    0 -0.44075653154E+03 -0.44011633257E+03 -0.15356232540E+03  0.64653005722E+03  0.80318247089E+02 0.  0.
         13    1    3    3    0    0  0.33055995425E+03  0.50322523297E+02  0.52823245756E+02  0.33851519168E+03  0.00000000000E+00 0.  1.
        -13    1    3    3    0    0  0.28659416321E+03 -0.11305356743E+02  0.11562219037E+03  0.30924507495E+03  0.00000000000E+00 0. -1.
          2    1    6    6  502    0 -0.74935217820E+02 -0.60261941834E+02 -0.52533255025E+02  0.10957431901E+03  0.00000000000E+00 0. -1.
          3    1    5    5  503    0 -0.67279733606E+02  0.72369842461E+02  0.13821304073E+02  0.99774671627E+02  0.00000000000E+00 0. -1.
         -4    1    5    5    0  503 -0.10911785231E+03  0.32872932356E+03  0.85040182558E+01  0.34647076671E+03  0.00000000000E+00 0.  1.
         -1    1    6    6    0  502 -0.36582131372E+03 -0.37985439074E+03 -0.10102907037E+03  0.53695573821E+03  0.00000000000E+00 0.  1.
<mgrwt>
<rscale>  0 0.17401380E+04</rscale>
<asrwt>0</asrwt>
<pdfrwt beam="1">  1        2 0.13674955E+00 0.17401380E+04</pdfrwt>
<pdfrwt beam="2">  1       -2 0.13102518E+00 0.17401380E+04</pdfrwt>
<totfact> 0.12047794E+01</totfact>
</mgrwt>
</event>
<event>
12    1  0.2083715E-007  0.2869899E+04  0.7818608E-02  0.8281890E-01
          2   -1    0    0  501    0  0.00000000000E+00  0.00000000000E+00  0.30189041004E+04  0.30189041004E+04  0.00000000000E+00 0. -1.
         -2   -1    0    0    0  501 -0.00000000000E+00 -0.00000000000E+00 -0.68206211742E+03  0.68206211742E+03  0.00000000000E+00 0.  1.
         23    2    1    2    0    0 -0.12012596936E+04 -0.47206609485E+03  0.11253735564E+04  0.17149175779E+04  0.92765340322E+02 0.  0.
        254    2    1    2    0    0  0.12012596936E+04  0.47206609485E+03  0.12114684266E+04  0.19860486399E+04  0.90047887382E+03 0.  0.
        -24    2    4    4    0    0  0.12113103417E+04  0.18073161875E+03  0.76459306738E+03  0.14459642408E+04  0.79204577421E+02 0.  0.
         24    2    4    4    0    0 -0.10050648174E+02  0.29133447610E+03  0.44687535922E+03  0.54008439909E+03  0.83766216120E+02 0.  0.
         13    1    3    3    0    0 -0.67206606685E+03 -0.30793693060E+03  0.61528070729E+03  0.96180471001E+03  0.00000000000E+00 0. -1.
        -13    1    3    3    0    0 -0.52919362670E+03 -0.16412916425E+03  0.51009284911E+03  0.75311286791E+03  0.00000000000E+00 0.  1.
          2    1    6    6  502    0 -0.38179681093E+02  0.12197159758E+03  0.14928097973E+03  0.19651862399E+03  0.00000000000E+00 0. -1.
          1    1    5    5  503    0  0.11066982045E+04  0.14508523267E+03  0.70826481965E+03  0.13219189443E+04  0.00000000000E+00 0. -1.
         -2    1    5    5    0  503  0.10461213720E+03  0.35646386079E+02  0.56328247738E+02  0.12404529650E+03  0.00000000000E+00 0.  1.
         -1    1    6    6    0  502  0.28129032919E+02  0.16936287852E+03  0.29759437950E+03  0.34356577510E+03  0.00000000000E+00 0.  1.
<mgrwt>
<rscale>  0 0.28698990E+04</rscale>
<asrwt>0</asrwt>
<pdfrwt beam="1">  1        2 0.46444678E+00 0.28698990E+04</pdfrwt>
<pdfrwt beam="2">  1       -2 0.10493263E+00 0.28698990E+04</pdfrwt>
<totfact> 0.10785982E+00</totfact>
</mgrwt>
</event>
<event>
12    1  0.2083715E-007  0.2484871E+04  0.7818608E-02  0.8408395E-01
          2   -1    0    0  501    0  0.00000000000E+00  0.00000000000E+00  0.19712096340E+04  0.19712096340E+04  0.00000000000E+00 0. -1.
         -2   -1    0    0    0  501 -0.00000000000E+00 -0.00000000000E+00 -0.78309587249E+03  0.78309587249E+03  0.00000000000E+00 0.  1.
         23    2    1    2    0    0 -0.82381878164E+03  0.61267571544E+03  0.87989160431E+03  0.13551816303E+04  0.90879583094E+02 0.  0.
        254    2    1    2    0    0  0.82381878164E+03 -0.61267571544E+03  0.30822215717E+03  0.13991238761E+04  0.89916506007E+03 0.  0.
        -24    2    4    4    0    0  0.90918922349E+03 -0.34095927555E+03  0.44546035454E+03  0.10713466633E+04  0.80439255794E+02 0.  0.
         24    2    4    4    0    0 -0.85370441849E+02 -0.27171643989E+03 -0.13723819737E+03  0.32777721278E+03  0.86519606740E+02 0.  0.
         11    1    3    3    0    0 -0.23069468824E+03  0.17308497683E+03  0.19494055608E+03  0.34810956436E+03  0.00000000000E+00 0.  1.
        -11    1    3    3    0    0 -0.59312409339E+03  0.43959073861E+03  0.68495104822E+03  0.10070720660E+04  0.00000000000E+00 0. -1.
          2    1    6    6  502    0  0.11972069149E+02 -0.20929812526E+02  0.31773486963E+01  0.24320424273E+02  0.00000000000E+00 0. -1.
          3    1    5    5  503    0  0.21733635839E+03 -0.95349094482E+02  0.74227573043E+02  0.24866900711E+03  0.00000000000E+00 0. -1.
         -4    1    5    5    0  503  0.69185286510E+03 -0.24561018107E+03  0.37123278150E+03  0.82267765622E+03  0.00000000000E+00 0.  1.
         -1    1    6    6    0  502 -0.97342510998E+02 -0.25078662736E+03 -0.14041554607E+03  0.30345678851E+03  0.00000000000E+00 0.  1.
<mgrwt>
<rscale>  0 0.24848711E+04</rscale>
<asrwt>0</asrwt>
<pdfrwt beam="1">  1        2 0.30326302E+00 0.24848711E+04</pdfrwt>
<pdfrwt beam="2">  1       -2 0.12047629E+00 0.24848711E+04</pdfrwt>
<totfact> 0.32549206E+00</totfact>
</mgrwt>
</event>
<event>
12    1  0.2083715E-007  0.2076763E+04  0.7818608E-02  0.8571549E-01
         -2   -1    0    0    0  501 -0.00000000000E+00  0.00000000000E+00  0.28794131412E+04  0.28794131412E+04  0.00000000000E+00 0.  1.
          2   -1    0    0  501    0  0.00000000000E+00 -0.00000000000E+00 -0.37446369005E+03  0.37446369005E+03  0.00000000000E+00 0. -1.
         23    2    1    2    0    0 -0.19450946483E+02 -0.72005548410E+03  0.16715574300E+04  0.18224463643E+04  0.91368864556E+02 0.  0.
        254    2    1    2    0    0  0.19450946483E+02  0.72005548410E+03  0.83339202110E+03  0.14314304669E+04  0.91410758737E+03 0.  0.
        -24    2    4    4    0    0 -0.43625701192E+03  0.27682487346E+03  0.35954461897E+03  0.63477885771E+03  0.81973618593E+02 0.  0.
         24    2    4    4    0    0  0.45570795841E+03  0.44323061063E+03  0.47384740213E+03  0.79665160921E+03  0.77455202468E+02 0.  0.
         11    1    3    3    0    0 -0.11469539303E+02 -0.49809692035E+03  0.12570314186E+04  0.13521686580E+04  0.00000000000E+00 0.  1.
        -11    1    3    3    0    0 -0.79814071798E+01 -0.22195856375E+03  0.41452601145E+03  0.47027770631E+03  0.00000000000E+00 0. -1.
          4    1    6    6  502    0 -0.13447832110E+00  0.11482622439E+02  0.30218730193E+01  0.11874359732E+02  0.00000000000E+00 0. -1.
          1    1    5    5  503    0 -0.89438144486E+02  0.34068852263E+02  0.37174535350E+02  0.10267333861E+03  0.00000000000E+00 0. -1.
         -4    1    5    5    0  503 -0.34681886744E+03  0.24275602120E+03  0.32237008362E+03  0.53210551910E+03  0.00000000000E+00 0.  1.
         -3    1    6    6    0  502  0.45584243673E+03  0.43174798820E+03  0.47082552911E+03  0.78477724947E+03  0.00000000000E+00 0.  1.
<mgrwt>
<rscale>  0 0.20767625E+04</rscale>
<asrwt>0</asrwt>
<pdfrwt beam="1">  1        2 0.57609800E-01 0.20767625E+04</pdfrwt>
<pdfrwt beam="2">  1       -2 0.44298662E+00 0.20767625E+04</pdfrwt>
<totfact> 0.30587860E-01</totfact>
</mgrwt>
</event>
<event>
12    1  0.2083715E-007  0.1710358E+04  0.7818608E-02  0.8755479E-01
          2   -1    0    0  501    0  0.00000000000E+00  0.00000000000E+00  0.16125369035E+04  0.16125369035E+04  0.00000000000E+00 0. -1.
         -2   -1    0    0    0  501 -0.00000000000E+00 -0.00000000000E+00 -0.45352822732E+03  0.45352822732E+03  0.00000000000E+00 0.  1.
         23    2    1    2    0    0 -0.37942449586E+03  0.47258930669E+03  0.53934007514E+03  0.81634502600E+03  0.90707684154E+02 0.  0.
        254    2    1    2    0    0  0.37942449586E+03 -0.47258930669E+03  0.61966860106E+03  0.12497201048E+04  0.90028193609E+03 0.  0.
        -24    2    4    4    0    0  0.26612342877E+03  0.23499727690E+03  0.20132246184E+03  0.41617795796E+03  0.81412281343E+02 0.  0.
         24    2    4    4    0    0  0.11330106709E+03 -0.70758658360E+03  0.41834613921E+03  0.83354214688E+03  0.79139834117E+02 0.  0.
         13    1    3    3    0    0 -0.36764971954E+03  0.42882883778E+03  0.51736491840E+03  0.76598103578E+03  0.00000000000E+00 0. -1.
        -13    1    3    3    0    0 -0.11774776320E+02  0.43760468915E+02  0.21975156746E+02  0.50363990222E+02  0.00000000000E+00 0.  1.
          4    1    6    6  502    0  0.21451392387E+02 -0.18097264800E+03  0.68566466474E+02  0.19471163777E+03  0.00000000000E+00 0. -1.
          3    1    5    5  503    0  0.18978911889E+03  0.18250092154E+03  0.18577183240E+03  0.32223852924E+03  0.00000000000E+00 0. -1.
         -4    1    5    5    0  503  0.76334309885E+02  0.52496355362E+02  0.15550629439E+02  0.93939428718E+02  0.00000000000E+00 0.  1.
         -3    1    6    6    0  502  0.91849674700E+02 -0.52661393560E+03  0.34977967274E+03  0.63883050911E+03  0.00000000000E+00 0.  1.
<mgrwt>
<rscale>  0 0.17103579E+04</rscale>
<asrwt>0</asrwt>
<pdfrwt beam="1">  1        2 0.24808260E+00 0.17103579E+04</pdfrwt>
<pdfrwt beam="2">  1       -2 0.69773574E-01 0.17103579E+04</pdfrwt>
<totfact> 0.19530236E+01</totfact>
</mgrwt>
</event>
<event>
12    1  0.2083715E-007  0.1620916E+04  0.7818608E-02  0.8807801E-01
          2   -1    0    0  501    0  0.00000000000E+00  0.00000000000E+00  0.19206355655E+04  0.19206355655E+04  0.00000000000E+00 0. -1.
         -2   -1    0    0    0  501 -0.00000000000E+00 -0.00000000000E+00 -0.34199200262E+03  0.34199200262E+03  0.00000000000E+00 0.  1.
         23    2    1    2    0    0 -0.44818590563E+03 -0.49499389162E+02  0.10019464030E+04  0.11025150453E+04  0.91225188639E+02 0.  0.
        254    2    1    2    0    0  0.44818590563E+03  0.49499389162E+02  0.57669715989E+03  0.11601125229E+04  0.89997814191E+03 0.  0.
        -24    2    4    4    0    0 -0.12491566823E+03  0.33147512427E+03  0.20547995307E+03  0.41707180618E+03  0.79039219475E+02 0.  0.
         24    2    4    4    0    0  0.57310157386E+03 -0.28197573511E+03  0.37121720683E+03  0.74304071668E+03  0.79696692806E+02 0.  0.
         11    1    3    3    0    0 -0.44548608458E+03 -0.45897391775E+02  0.94885516870E+03  0.10492333169E+04  0.00000000000E+00 0.  1.
        -11    1    3    3    0    0 -0.26998210470E+01 -0.36019973870E+01  0.53091234314E+02  0.53281728386E+02  0.00000000000E+00 0. -1.
          2    1    6    6  502    0  0.30249794069E+03 -0.19279888005E+03  0.21063127715E+03  0.41598310926E+03  0.00000000000E+00 0. -1.
          1    1    5    5  503    0 -0.55055770546E+02  0.16432996194E+03  0.55772141936E+02  0.18206044622E+03  0.00000000000E+00 0. -1.
         -2    1    5    5    0  503 -0.69859897683E+02  0.16714516233E+03  0.14970781113E+03  0.23501135995E+03  0.00000000000E+00 0.  1.
         -1    1    6    6    0  502  0.27060363317E+03 -0.89176855056E+02  0.16058592967E+03  0.32705760742E+03  0.00000000000E+00 0.  1.
<mgrwt>
<rscale>  0 0.16209158E+04</rscale>
<asrwt>0</asrwt>
<pdfrwt beam="1">  1        2 0.29548239E+00 0.16209158E+04</pdfrwt>
<pdfrwt beam="2">  1       -2 0.52614155E-01 0.16209158E+04</pdfrwt>
<totfact> 0.24134365E+01</totfact>
</mgrwt>
</event>
<event>
12    1  0.2083715E-007  0.1550528E+04  0.7818608E-02  0.8851530E-01
          2   -1    0    0  501    0  0.00000000000E+00  0.00000000000E+00  0.61062545483E+03  0.61062545483E+03  0.00000000000E+00 0. -1.
         -2   -1    0    0    0  501 -0.00000000000E+00 -0.00000000000E+00 -0.98429336323E+03  0.98429336323E+03  0.00000000000E+00 0.  1.
         23    2    1    2    0    0  0.16445558899E+03 -0.45548054963E+03 -0.28427430486E+03  0.56939356460E+03  0.94281382911E+02 0.  0.
        254    2    1    2    0    0 -0.16445558899E+03  0.45548054963E+03 -0.89393603547E+02  0.10255252535E+04  0.89955692277E+03 0.  0.
        -24    2    4    4    0    0 -0.39881491479E+03  0.44917336677E+03  0.20713206892E+03  0.64037759185E+03  0.79810503683E+02 0.  0.
         24    2    4    4    0    0  0.23435932580E+03  0.63071828583E+01 -0.29652567246E+03  0.38514766162E+03  0.73804963760E+02 0.  0.
         13    1    3    3    0    0  0.37435834593E+02 -0.22218489762E+03 -0.10260495225E+03  0.24757897057E+03  0.00000000000E+00 0. -1.
        -13    1    3    3    0    0  0.12701975439E+03 -0.23329565201E+03 -0.18166935261E+03  0.32181459403E+03  0.00000000000E+00 0.  1.
          4    1    6    6  502    0  0.19502492348E+03 -0.22995166162E+02 -0.22864022146E+03  0.30139649851E+03  0.00000000000E+00 0. -1.
          3    1    5    5  503    0 -0.35499065349E+03  0.38262355824E+03  0.20474030501E+03  0.56065831295E+03  0.00000000000E+00 0. -1.
         -4    1    5    5    0  503 -0.43824261297E+02  0.66549808530E+02  0.23917639063E+01  0.79719278899E+02  0.00000000000E+00 0.  1.
         -3    1    6    6    0  502  0.39334402317E+02  0.29302349021E+02 -0.67885451000E+02  0.83751163104E+02  0.00000000000E+00 0.  1.
<mgrwt>
<rscale>  0 0.15505284E+04</rscale>
<asrwt>0</asrwt>
<pdfrwt beam="1">  1        2 0.93942378E-01 0.15505284E+04</pdfrwt>
<pdfrwt beam="2">  1       -2 0.15142975E+00 0.15505284E+04</pdfrwt>
<totfact> 0.13642907E+01</totfact>
</mgrwt>
</event>
<event>
12    1  0.2083715E-007  0.1679664E+04  0.7818608E-02  0.8773048E-01
          2   -1    0    0  501    0  0.00000000000E+00  0.00000000000E+00  0.11953543952E+04  0.11953543952E+04  0.00000000000E+00 0. -1.
         -2   -1    0    0    0  501 -0.00000000000E+00 -0.00000000000E+00 -0.59004945103E+03  0.59004945103E+03  0.00000000000E+00 0.  1.
         23    2    1    2    0    0 -0.58029042971E+03 -0.10613883941E+03  0.13598550231E+03  0.61183202574E+03  0.88565991457E+02 0.  0.
        254    2    1    2    0    0  0.58029042971E+03  0.10613883941E+03  0.46931944182E+03  0.11735718204E+04  0.89944852172E+03 0.  0.
        -24    2    4    4    0    0  0.61209933035E+03  0.32960069032E+03  0.64046412109E+02  0.70271322720E+03  0.80010821212E+02 0.  0.
         24    2    4    4    0    0 -0.31808900635E+02 -0.22346185091E+03  0.40527302971E+03  0.47085859324E+03  0.80712955878E+02 0.  0.
         13    1    3    3    0    0 -0.34638450236E+02 -0.29388837386E+02  0.77253624782E+01  0.46078272788E+02  0.00000000000E+00 0.  1.
        -13    1    3    3    0    0 -0.54565197947E+03 -0.76750002025E+02  0.12826013983E+03  0.56575375296E+03  0.00000000000E+00 0. -1.
          4    1    6    6  502    0 -0.41096674979E+02 -0.86348179634E+02  0.22252665825E+03  0.24220457975E+03  0.00000000000E+00 0. -1.
          3    1    5    5  503    0  0.36924551678E+03  0.18390725969E+03  0.75115913658E+02  0.41929289562E+03  0.00000000000E+00 0. -1.
         -4    1    5    5    0  503  0.24285381357E+03  0.14569343063E+03 -0.11069501549E+02  0.28342033159E+03  0.00000000000E+00 0.  1.
         -3    1    6    6    0  502  0.92877743441E+01 -0.13711367127E+03  0.18274637146E+03  0.22865401349E+03  0.00000000000E+00 0.  1.
<mgrwt>
<rscale>  0 0.16796645E+04</rscale>
<asrwt>0</asrwt>
<pdfrwt beam="1">  1        2 0.18390068E+00 0.16796645E+04</pdfrwt>
<pdfrwt beam="2">  1       -2 0.90776839E-01 0.16796645E+04</pdfrwt>
<totfact> 0.18825223E+01</totfact>
</mgrwt>
</event>
<event>
12    1  0.2083715E-007  0.1367757E+04  0.7818608E-02  0.8977494E-01
          2   -1    0    0  501    0  0.00000000000E+00  0.00000000000E+00  0.56455500034E+03  0.56455500034E+03  0.00000000000E+00 0. -1.
         -2   -1    0    0    0  501 -0.00000000000E+00 -0.00000000000E+00 -0.82842180262E+03  0.82842180262E+03  0.00000000000E+00 0.  1.
         23    2    1    2    0    0 -0.53557618124E+02  0.29368624785E+03  0.16468851547E+03  0.35347476402E+03  0.93284891802E+02 0.  0.
        254    2    1    2    0    0  0.53557618124E+02 -0.29368624785E+03 -0.42855531776E+03  0.10395020389E+04  0.89876848963E+03 0.  0.
        -24    2    4    4    0    0 -0.36104807388E+02  0.16910336682E+03 -0.51790751978E+03  0.55208038660E+03  0.81639747906E+02 0.  0.
         24    2    4    4    0    0  0.89662425512E+02 -0.46278961466E+03  0.89352202025E+02  0.48742165234E+03  0.85921319658E+02 0.  0.
         11    1    3    3    0    0  0.11485113064E+00  0.19733808266E+03  0.13552879614E+03  0.23939587850E+03  0.00000000000E+00 0. -1.
        -11    1    3    3    0    0 -0.53672469255E+02  0.96348165184E+02  0.29159719331E+02  0.11407888552E+03  0.00000000000E+00 0.  1.
          2    1    6    6  502    0  0.30319750684E+02 -0.16346276595E+03 -0.98680788387E+01  0.16654351417E+03  0.00000000000E+00 0. -1.
          3    1    5    5  503    0 -0.31769879802E+02  0.10262310930E+03 -0.19756786906E+03  0.22488639512E+03  0.00000000000E+00 0. -1.
         -4    1    5    5    0  503 -0.43349275861E+01  0.66480257514E+02 -0.32033965072E+03  0.32719399148E+03  0.00000000000E+00 0.  1.
         -1    1    6    6    0  502  0.59342674828E+02 -0.29932684872E+03  0.99220280864E+02  0.32087813817E+03  0.00000000000E+00 0.  1.
<mgrwt>
<rscale>  0 0.13677568E+04</rscale>
<asrwt>0</asrwt>
<pdfrwt beam="1">  1        2 0.86854616E-01 0.13677568E+04</pdfrwt>
<pdfrwt beam="2">  1       -2 0.12744951E+00 0.13677568E+04</pdfrwt>
<totfact> 0.23762575E+01</totfact>
</mgrwt>
</event>
<event>
12    1  0.2083715E-007  0.4481190E+04  0.7818608E-02  0.7913938E-01
         -1   -1    0    0    0  501 -0.00000000000E+00  0.00000000000E+00  0.17432013459E+04  0.17432013459E+04  0.00000000000E+00 0.  1.
          1   -1    0    0  501    0  0.00000000000E+00 -0.00000000000E+00 -0.28799111822E+04  0.28799111822E+04  0.00000000000E+00 0. -1.
         23    2    1    2    0    0 -0.13174165219E+04  0.29262492241E+03 -0.22719300810E+04  0.26441083647E+04  0.91799312236E+02 0.  0.
        254    2    1    2    0    0  0.13174165219E+04 -0.29262492241E+03  0.11352202447E+04  0.19790041634E+04  0.89806282471E+03 0.  0.
        -24    2    4    4    0    0  0.10204845837E+04  0.13218536598E+03  0.10006749436E+04  0.14376443114E+04  0.81296166823E+02 0.  0.
         24    2    4    4    0    0  0.29693193821E+03 -0.42481028839E+03  0.13454530108E+03  0.54135985194E+03  0.79597074087E+02 0.  0.
         11    1    3    3    0    0 -0.74001284786E+03  0.19155026578E+03 -0.12131545112E+04  0.14338948313E+04  0.00000000000E+00 0. -1.
        -11    1    3    3    0    0 -0.57740367406E+03  0.10107465663E+03 -0.10587755699E+04  0.12102135334E+04  0.00000000000E+00 0.  1.
          2    1    6    6  502    0  0.31099746317E+02 -0.17838212793E+02 -0.35425452486E+01  0.36027013247E+02  0.00000000000E+00 0. -1.
          3    1    5    5  503    0  0.29816884588E+03  0.14325089032E+02  0.32954362432E+03  0.44464465493E+03  0.00000000000E+00 0. -1.
         -4    1    5    5    0  503  0.72231573784E+03  0.11786027695E+03  0.67113131932E+03  0.99299965649E+03  0.00000000000E+00 0.  1.
         -1    1    6    6    0  502  0.26583219189E+03 -0.40697207560E+03  0.13808784633E+03  0.50533283870E+03  0.00000000000E+00 0.  1.
<mgrwt>
<rscale>  0 0.44811896E+04</rscale>
<asrwt>0</asrwt>
<pdfrwt beam="1">  1        1 0.44306326E+00 0.44811896E+04</pdfrwt>
<pdfrwt beam="2">  1       -1 0.26818482E+00 0.44811896E+04</pdfrwt>
<totfact> 0.29180164E-02</totfact>
</mgrwt>
</event>
<event>
12    1  0.2083715E-007  0.1656119E+04  0.7818608E-02  0.8786795E-01
         -2   -1    0    0    0  501 -0.00000000000E+00  0.00000000000E+00  0.26994328456E+03  0.26994328456E+03  0.00000000000E+00 0.  1.
          2   -1    0    0  501    0  0.00000000000E+00 -0.00000000000E+00 -0.25400973525E+04  0.25400973525E+04  0.00000000000E+00 0. -1.
         23    2    1    2    0    0  0.47737992979E+03 -0.33357830136E+03 -0.83720059585E+03  0.10240573095E+04  0.92857174683E+02 0.  0.
        254    2    1    2    0    0 -0.47737992979E+03  0.33357830136E+03 -0.14329534721E+04  0.17859833276E+04  0.89286881049E+03 0.  0.
        -24    2    4    4    0    0  0.22129136577E+01 -0.23966378104E+03 -0.66446067058E+03  0.71096516292E+03  0.80745620351E+02 0.  0.
         24    2    4    4    0    0 -0.47959284345E+03  0.57324208241E+03 -0.76849280152E+03  0.10750181647E+04  0.80418206101E+02 0.  0.
         11    1    3    3    0    0  0.16648023530E+03 -0.15403691679E+03 -0.26803167159E+03  0.35111823856E+03  0.00000000000E+00 0.  1.
        -11    1    3    3    0    0  0.31089969450E+03 -0.17954138457E+03 -0.56916892426E+03  0.67293907091E+03  0.00000000000E+00 0. -1.
          2    1    6    6  502    0 -0.17448929218E+03  0.25472689773E+03 -0.27925375496E+03  0.41631113986E+03  0.00000000000E+00 0. -1.
          3    1    5    5  503    0 -0.29765480088E+02 -0.10623350963E+03 -0.22516961015E+03  0.25074468231E+03  0.00000000000E+00 0. -1.
         -4    1    5    5    0  503  0.31978393746E+02 -0.13343027142E+03 -0.43929106042E+03  0.46022048060E+03  0.00000000000E+00 0.  1.
         -1    1    6    6    0  502 -0.30510355127E+03  0.31851518468E+03 -0.48923904656E+03  0.65870702482E+03  0.00000000000E+00 0.  1.
<mgrwt>
<rscale>  0 0.16561186E+04</rscale>
<asrwt>0</asrwt>
<pdfrwt beam="1">  1        2 0.39078422E+00 0.16561186E+04</pdfrwt>
<pdfrwt beam="2">  1       -2 0.41529735E-01 0.16561186E+04</pdfrwt>
<totfact> 0.17339916E+01</totfact>
</mgrwt>
</event>
<event>
12    1  0.2083715E-007  0.3163574E+04  0.7818608E-02  0.8198504E-01
          1   -1    0    0  501    0  0.00000000000E+00  0.00000000000E+00  0.23881803775E+04  0.23881803775E+04  0.00000000000E+00 0. -1.
         -1   -1    0    0    0  501 -0.00000000000E+00 -0.00000000000E+00 -0.10476806840E+04  0.10476806840E+04  0.00000000000E+00 0.  1.
         23    2    1    2    0    0 -0.11531293456E+04 -0.64479796503E+03  0.12710674899E+04  0.18356204833E+04  0.91751247925E+02 0.  0.
        254    2    1    2    0    0  0.11531293456E+04  0.64479796503E+03  0.69432203653E+02  0.16002405782E+04  0.90026516858E+03 0.  0.
        -24    2    4    4    0    0  0.24334861044E+03 -0.13497272793E+03 -0.22129951489E+03  0.36463840990E+03  0.80941405909E+02 0.  0.
         24    2    4    4    0    0  0.90978073513E+03  0.77977069296E+03  0.29073171854E+03  0.12356021683E+04  0.80277434211E+02 0.  0.
         11    1    3    3    0    0 -0.97382113386E+03 -0.57532592856E+03  0.10608659712E+04  0.15507301937E+04  0.00000000000E+00 0.  1.
        -11    1    3    3    0    0 -0.17930821172E+03 -0.69472036468E+02  0.21020151870E+03  0.28489028959E+03  0.00000000000E+00 0. -1.
          4    1    6    6  502    0  0.73551923819E+03  0.64291965760E+03  0.20603062457E+03  0.99839013123E+03  0.00000000000E+00 0. -1.
          3    1    5    5  503    0  0.10678014915E+03 -0.85358717463E+02 -0.14945290322E+03  0.20254451654E+03  0.00000000000E+00 0. -1.
         -4    1    5    5    0  503  0.13656846129E+03 -0.49614010468E+02 -0.71846611667E+02  0.16209389335E+03  0.00000000000E+00 0.  1.
         -3    1    6    6    0  502  0.17426149694E+03  0.13685103536E+03  0.84701093969E+02  0.23721203703E+03  0.00000000000E+00 0.  1.
<mgrwt>
<rscale>  0 0.31635742E+04</rscale>
<asrwt>0</asrwt>
<pdfrwt beam="1">  1        1 0.36741237E+00 0.31635742E+04</pdfrwt>
<pdfrwt beam="2">  1       -1 0.16118164E+00 0.31635742E+04</pdfrwt>
<totfact> 0.38884332E-01</totfact>
</mgrwt>
</event>
<event>
12    1  0.2083715E-007  0.2258215E+04  0.7818608E-02  0.8494581E-01
         -1   -1    0    0    0  501 -0.00000000000E+00  0.00000000000E+00  0.15197677678E+04  0.15197677678E+04  0.00000000000E+00 0.  1.
          1   -1    0    0  501    0  0.00000000000E+00 -0.00000000000E+00 -0.83886763002E+03  0.83886763002E+03  0.00000000000E+00 0. -1.
         23    2    1    2    0    0 -0.69675065045E+03 -0.60848557741E+03  0.50140897785E+03  0.10580982027E+04  0.11155571089E+03 0.  0.
        254    2    1    2    0    0  0.69675065045E+03  0.60848557741E+03  0.17949115988E+03  0.13005371951E+04  0.89636139616E+03 0.  0.
        -24    2    4    4    0    0 -0.51796965889E+02  0.38220921465E+03  0.31293961060E+03  0.50311563389E+03  0.80170641381E+02 0.  0.
         24    2    4    4    0    0  0.74854761634E+03  0.22627636276E+03 -0.13344845072E+03  0.79742156120E+03  0.80920522730E+02 0.  0.
         11    1    3    3    0    0 -0.24941657025E+03 -0.26351728712E+03  0.14866826464E+03  0.39211253364E+03  0.00000000000E+00 0.  1.
        -11    1    3    3    0    0 -0.44733408020E+03 -0.34496829029E+03  0.35274071321E+03  0.66598566904E+03  0.00000000000E+00 0. -1.
          4    1    6    6  502    0  0.37296731813E+03  0.10385883787E+03 -0.25939606760E+02  0.38802595505E+03  0.00000000000E+00 0. -1.
          1    1    5    5  503    0 -0.64505411103E+02  0.36776767048E+03  0.30569649695E+03  0.48256020947E+03  0.00000000000E+00 0. -1.
         -2    1    5    5    0  503  0.12708445214E+02  0.14441544174E+02  0.72431136504E+01  0.20555424424E+02  0.00000000000E+00 0.  1.
         -3    1    6    6    0  502  0.37558029821E+03  0.12241752489E+03 -0.10750884396E+03  0.40939560615E+03  0.00000000000E+00 0.  1.
<mgrwt>
<rscale>  0 0.22582152E+04</rscale>
<asrwt>0</asrwt>
<pdfrwt beam="1">  1        1 0.12905656E+00 0.22582152E+04</pdfrwt>
<pdfrwt beam="2">  1       -1 0.23381043E+00 0.22582152E+04</pdfrwt>
<totfact> 0.16535197E+00</totfact>
</mgrwt>
</event>
<event>
12    1  0.2083715E-007  0.1694672E+04  0.7818608E-02  0.8764409E-01
         -2   -1    0    0    0  501 -0.00000000000E+00  0.00000000000E+00  0.51956638324E+03  0.51956638324E+03  0.00000000000E+00 0.  1.
          2   -1    0    0  501    0  0.00000000000E+00 -0.00000000000E+00 -0.13818796105E+04  0.13818796105E+04  0.00000000000E+00 0. -1.
         23    2    1    2    0    0  0.32338801807E+03 -0.20917739650E+03  0.21072871479E+03  0.44907567171E+03  0.94484783138E+02 0.  0.
        254    2    1    2    0    0 -0.32338801807E+03  0.20917739650E+03 -0.10730419420E+04  0.14523703220E+04  0.89979194786E+03 0.  0.
        -24    2    4    4    0    0  0.96620276693E+00 -0.51333685464E+02  0.13920296769E+03  0.16823731449E+03  0.79311077179E+02 0.  0.
         24    2    4    4    0    0 -0.32435422084E+03  0.26051108197E+03 -0.12122449097E+04  0.12841330075E+04  0.79926062196E+02 0.  0.
         11    1    3    3    0    0  0.21832146774E+03 -0.17515259411E+03  0.18551547068E+03  0.33579559908E+03  0.00000000000E+00 0.  1.
        -11    1    3    3    0    0  0.10506655034E+03 -0.34024802397E+02  0.25213244111E+02  0.11328007264E+03  0.00000000000E+00 0. -1.
          2    1    6    6  502    0 -0.25379073545E+03  0.22702495631E+03 -0.10544037829E+04  0.11080240998E+04  0.00000000000E+00 0. -1.
          3    1    5    5  503    0  0.23714664365E+02 -0.16606613904E+02  0.11823517618E+03  0.12172806504E+03  0.00000000000E+00 0. -1.
         -4    1    5    5    0  503 -0.22748461598E+02 -0.34727071560E+02  0.20967791509E+02  0.46509249456E+02  0.00000000000E+00 0.  1.
         -1    1    6    6    0  502 -0.70563485387E+02  0.33486125660E+02 -0.15784112680E+03  0.17610890775E+03  0.00000000000E+00 0.  1.
<mgrwt>
<rscale>  0 0.16946719E+04</rscale>
<asrwt>0</asrwt>
<pdfrwt beam="1">  1        2 0.21259686E+00 0.16946719E+04</pdfrwt>
<pdfrwt beam="2">  1       -2 0.79933289E-01 0.16946719E+04</pdfrwt>
<totfact> 0.19540395E+01</totfact>
</mgrwt>
</event>
<event>
12    1  0.2083715E-007  0.2352230E+04  0.7818608E-02  0.8457608E-01
         -2   -1    0    0    0  501 -0.00000000000E+00  0.00000000000E+00  0.64727708747E+03  0.64727708747E+03  0.00000000000E+00 0.  1.
          2   -1    0    0  501    0  0.00000000000E+00 -0.00000000000E+00 -0.21370230351E+04  0.21370230351E+04  0.00000000000E+00 0. -1.
         23    2    1    2    0    0  0.84908889804E+03  0.51430843912E+03 -0.79253857853E+03  0.12737425851E+04  0.94008762167E+02 0.  0.
        254    2    1    2    0    0 -0.84908889804E+03 -0.51430843912E+03 -0.69720736914E+03  0.15105575375E+04  0.90012267560E+03 0.  0.
        -24    2    4    4    0    0 -0.84311676746E+03 -0.42956448287E+03 -0.16271739742E+03  0.96337581162E+03  0.79021987374E+02 0.  0.
         24    2    4    4    0    0 -0.59721305893E+01 -0.84743956256E+02 -0.53448997172E+03  0.54718172586E+03  0.80691429436E+02 0.  0.
         13    1    3    3    0    0  0.12096760939E+03  0.95852335349E+02 -0.88798015211E+02  0.17806156300E+03  0.00000000000E+00 0.  1.
        -13    1    3    3    0    0  0.72812128866E+03  0.41845610377E+03 -0.70374056331E+03  0.10956810221E+04  0.00000000000E+00 0. -1.
          4    1    6    6  502    0 -0.29099214225E+02 -0.13244367805E+02 -0.28027077559E+03  0.28208843506E+03  0.00000000000E+00 0. -1.
          3    1    5    5  503    0 -0.76517699016E+03 -0.38940409418E+03 -0.12377970599E+03  0.86744036708E+03  0.00000000000E+00 0. -1.
         -4    1    5    5    0  503 -0.77939777299E+02 -0.40160388690E+02 -0.38937691432E+02  0.95935444540E+02  0.00000000000E+00 0.  1.
         -3    1    6    6    0  502  0.23127083636E+02 -0.71499588451E+02 -0.25421919613E+03  0.26509329080E+03  0.00000000000E+00 0.  1.
<mgrwt>
<rscale>  0 0.23522296E+04</rscale>
<asrwt>0</asrwt>
<pdfrwt beam="1">  1        2 0.32877278E+00 0.23522296E+04</pdfrwt>
<pdfrwt beam="2">  1       -2 0.99581089E-01 0.23522296E+04</pdfrwt>
<totfact> 0.42186393E+00</totfact>
</mgrwt>
</event>
<event>
12    1  0.2083715E-007  0.2489422E+04  0.7818608E-02  0.8406764E-01
          1   -1    0    0  501    0  0.00000000000E+00  0.00000000000E+00  0.16560729310E+04  0.16560729310E+04  0.00000000000E+00 0. -1.
         -1   -1    0    0    0  501 -0.00000000000E+00 -0.00000000000E+00 -0.93552967594E+03  0.93552967594E+03  0.00000000000E+00 0.  1.
         23    2    1    2    0    0  0.65742829511E+03 -0.42939210360E+03 -0.45743005408E+03  0.91335775298E+03  0.91600156674E+02 0.  0.
        254    2    1    2    0    0 -0.65742829511E+03  0.42939210360E+03  0.11779733092E+04  0.16782448540E+04  0.90127417081E+03 0.  0.
        -24    2    4    4    0    0  0.94414942409E+02 -0.15384108575E+03  0.54465805542E+02  0.20375105314E+03  0.77244460446E+02 0.  0.
         24    2    4    4    0    0 -0.75184323752E+03  0.58323318935E+03  0.11235075036E+04  0.14744938008E+04  0.80210043375E+02 0.  0.
         13    1    3    3    0    0  0.65178161996E+03 -0.41079670556E+03 -0.43985723431E+03  0.88715703232E+03  0.00000000000E+00 0. -1.
        -13    1    3    3    0    0  0.56466751550E+01 -0.18595398043E+02 -0.17572819766E+02  0.26200720662E+02  0.00000000000E+00 0.  1.
          2    1    6    6  502    0 -0.91013451673E+02  0.46658790618E+02  0.97051368173E+02  0.14099453604E+03  0.00000000000E+00 0. -1.
          1    1    5    5  503    0  0.74677580311E+02 -0.58064662198E+02  0.47134094803E+02  0.10568760046E+03  0.00000000000E+00 0. -1.
         -2    1    5    5    0  503  0.19737362098E+02 -0.95776423551E+02  0.73317107393E+01  0.98063452688E+02  0.00000000000E+00 0.  1.
         -1    1    6    6    0  502 -0.66082978585E+03  0.53657439873E+03  0.10264561354E+04  0.13334992648E+04  0.00000000000E+00 0.  1.
<mgrwt>
<rscale>  0 0.24894219E+04</rscale>
<asrwt>0</asrwt>
<pdfrwt beam="1">  1        1 0.25478045E+00 0.24894219E+04</pdfrwt>
<pdfrwt beam="2">  1       -1 0.14392764E+00 0.24894219E+04</pdfrwt>
<totfact> 0.17697209E+00</totfact>
</mgrwt>
</event>
<event>
12    1  0.2083715E-007  0.2215599E+04  0.7818608E-02  0.8511963E-01
          1   -1    0    0  501    0  0.00000000000E+00  0.00000000000E+00  0.87906232340E+03  0.87906232340E+03  0.00000000000E+00 0. -1.
         -1   -1    0    0    0  501 -0.00000000000E+00 -0.00000000000E+00 -0.13960560379E+04  0.13960560379E+04  0.00000000000E+00 0.  1.
         23    2    1    2    0    0  0.86748849147E+03  0.25343343940E+03 -0.93288901994E+02  0.91288857042E+03  0.88870308552E+02 0.  0.
        254    2    1    2    0    0 -0.86748849147E+03 -0.25343343940E+03 -0.42370481256E+03  0.13622297909E+04  0.92702720783E+03 0.  0.
        -24    2    4    4    0    0  0.10572436499E+03  0.16043500974E+03  0.26608900762E+02  0.21004025118E+03  0.80571954266E+02 0.  0.
         24    2    4    4    0    0 -0.97321285646E+03 -0.41386844914E+03 -0.45031371332E+03  0.11521895397E+04  0.79548336967E+02 0.  0.
         11    1    3    3    0    0  0.41904942214E+03  0.11180424740E+03 -0.13343006887E+01  0.43371002789E+03  0.00000000000E+00 0. -1.
        -11    1    3    3    0    0  0.44843906932E+03  0.14162919200E+03 -0.91954601305E+02  0.47917854253E+03  0.00000000000E+00 0.  1.
          2    1    6    6  502    0 -0.37015749435E+03 -0.18954523013E+03 -0.20426963170E+03  0.46332499105E+03  0.00000000000E+00 0. -1.
          1    1    5    5  503    0 -0.54877442827E+01  0.26763405958E+02 -0.15109517346E+02  0.31220069670E+02  0.00000000000E+00 0. -1.
         -2    1    5    5    0  503  0.11121210927E+03  0.13367160378E+03  0.41718418108E+02  0.17882018151E+03  0.00000000000E+00 0.  1.
         -1    1    6    6    0  502 -0.60305536210E+03 -0.22432321901E+03 -0.24604408161E+03  0.68886454869E+03  0.00000000000E+00 0.  1.
<mgrwt>
<rscale>  0 0.22155995E+04</rscale>
<asrwt>0</asrwt>
<pdfrwt beam="1">  1        1 0.13524036E+00 0.22155995E+04</pdfrwt>
<pdfrwt beam="2">  1       -1 0.21477785E+00 0.22155995E+04</pdfrwt>
<totfact> 0.20570943E+00</totfact>
</mgrwt>
</event>
<event>
12    1  0.2083715E-007  0.1259795E+04  0.7818608E-02  0.9062070E-01
         -2   -1    0    0    0  501 -0.00000000000E+00  0.00000000000E+00  0.21612653949E+03  0.21612653949E+03  0.00000000000E+00 0.  1.
          2   -1    0    0  501    0  0.00000000000E+00 -0.00000000000E+00 -0.18358256927E+04  0.18358256927E+04  0.00000000000E+00 0. -1.
         23    2    1    2    0    0 -0.23286264268E+03 -0.17200611520E+03 -0.50627243966E+03  0.59111664756E+03  0.96415734394E+02 0.  0.
        254    2    1    2    0    0  0.23286264268E+03  0.17200611520E+03 -0.11134267136E+04  0.14608355846E+04  0.90028353583E+03 0.  0.
        -24    2    4    4    0    0  0.26804633674E+02 -0.32193361462E+03 -0.71496653291E+03  0.78839189862E+03  0.77620242308E+02 0.  0.
         24    2    4    4    0    0  0.20605800900E+03  0.49393972982E+03 -0.39846018065E+03  0.67244368603E+03  0.83508296293E+02 0.  0.
         11    1    3    3    0    0 -0.74124182780E+02 -0.44207332797E+01 -0.12776810407E+03  0.14777897608E+03  0.00000000000E+00 0.  1.
        -11    1    3    3    0    0 -0.15873845990E+03 -0.16758538193E+03 -0.37850433560E+03  0.44333767148E+03  0.00000000000E+00 0. -1.
          2    1    6    6  502    0  0.13478384471E+03  0.24903171177E+03 -0.24726917159E+03  0.37593286831E+03  0.00000000000E+00 0. -1.
          3    1    5    5  503    0 -0.13688234448E+02 -0.99399183849E+01 -0.49337386027E+02  0.52156949678E+02  0.00000000000E+00 0. -1.
         -4    1    5    5    0  503  0.40492868122E+02 -0.31199369623E+03 -0.66562914688E+03  0.73623494894E+03  0.00000000000E+00 0.  1.
         -1    1    6    6    0  502  0.71274164295E+02  0.24490801805E+03 -0.15119100906E+03  0.29651081772E+03  0.00000000000E+00 0.  1.
<mgrwt>
<rscale>  0 0.12597947E+04</rscale>
<asrwt>0</asrwt>
<pdfrwt beam="1">  1        2 0.28243472E+00 0.12597947E+04</pdfrwt>
<pdfrwt beam="2">  1       -2 0.33250237E-01 0.12597947E+04</pdfrwt>
<totfact> 0.68457850E+01</totfact>
</mgrwt>
</event>
<event>
12    1  0.2083715E-007  0.1859418E+04  0.7818608E-02  0.8675325E-01
          2   -1    0    0  501    0  0.00000000000E+00  0.00000000000E+00  0.12468961865E+04  0.12468961865E+04  0.00000000000E+00 0. -1.
         -2   -1    0    0    0  501 -0.00000000000E+00 -0.00000000000E+00 -0.69320817947E+03  0.69320817947E+03  0.00000000000E+00 0.  1.
         23    2    1    2    0    0  0.68794973930E+03 -0.17266632349E+03  0.17889032004E+03  0.73593760266E+03  0.80708768683E+02 0.  0.
        254    2    1    2    0    0 -0.68794973930E+03  0.17266632349E+03  0.37479768701E+03  0.12041667633E+04  0.89802883286E+03 0.  0.
        -24    2    4    4    0    0 -0.45551815122E+03  0.48895032325E+03  0.43259757737E+03  0.80020240569E+03  0.81326634148E+02 0.  0.
         24    2    4    4    0    0 -0.23243158808E+03 -0.31628399976E+03 -0.57799890355E+02  0.40396435764E+03  0.76068148893E+02 0.  0.
         11    1    3    3    0    0  0.28273920545E+03 -0.10787949255E+03  0.57841255060E+02  0.30809909769E+03  0.00000000000E+00 0. -1.
        -11    1    3    3    0    0  0.40521053385E+03 -0.64786830944E+02  0.12104906498E+03  0.42783850498E+03  0.00000000000E+00 0.  1.
          2    1    6    6  502    0 -0.11524024274E+03 -0.10921072458E+03 -0.47847058445E+02  0.16582109912E+03  0.00000000000E+00 0. -1.
          1    1    5    5  503    0 -0.43319794120E+02  0.16914839521E+02  0.30752072384E+02  0.55753083453E+02  0.00000000000E+00 0. -1.
         -2    1    5    5    0  503 -0.41219835710E+03  0.47203548373E+03  0.40184550499E+03  0.74444932223E+03  0.00000000000E+00 0.  1.
         -1    1    6    6    0  502 -0.11719134533E+03 -0.20707327518E+03 -0.99528319103E+01  0.23814325852E+03  0.00000000000E+00 0.  1.
<mgrwt>
<rscale>  0 0.18594178E+04</rscale>
<asrwt>0</asrwt>
<pdfrwt beam="1">  1        2 0.19183018E+00 0.18594178E+04</pdfrwt>
<pdfrwt beam="2">  1       -2 0.10664741E+00 0.18594178E+04</pdfrwt>
<totfact> 0.11819352E+01</totfact>
</mgrwt>
</event>
<event>
12    1  0.2083715E-007  0.1578622E+04  0.7818608E-02  0.8833790E-01
          1   -1    0    0  501    0  0.00000000000E+00  0.00000000000E+00  0.94891824721E+03  0.94891824721E+03  0.00000000000E+00 0. -1.
         -1   -1    0    0    0  501 -0.00000000000E+00 -0.00000000000E+00 -0.65654932198E+03  0.65654932198E+03  0.00000000000E+00 0.  1.
         23    2    1    2    0    0 -0.30722637706E+03 -0.43251038269E+03  0.11343744242E+03  0.55014655048E+03  0.91323029773E+02 0.  0.
        254    2    1    2    0    0  0.30722637706E+03  0.43251038269E+03  0.17893148281E+03  0.10553210187E+04  0.89455726429E+03 0.  0.
        -24    2    4    4    0    0 -0.13191703258E+03  0.31468429169E+02  0.38814011681E+03  0.41882099430E+03  0.79786649695E+02 0.  0.
         24    2    4    4    0    0  0.43914340964E+03  0.40104195352E+03 -0.20920863400E+03  0.63650002441E+03  0.87649562615E+02 0.  0.
         11    1    3    3    0    0 -0.22372569089E+03 -0.36164297994E+03  0.11532112935E+03  0.44061070411E+03  0.00000000000E+00 0. -1.
        -11    1    3    3    0    0 -0.83500686167E+02 -0.70867402743E+02 -0.18836869227E+01  0.10953584636E+03  0.00000000000E+00 0.  1.
          4    1    6    6  502    0  0.33074443940E+03  0.27236564949E+03 -0.18431306889E+03  0.46641852298E+03  0.00000000000E+00 0. -1.
          1    1    5    5  503    0 -0.14267390690E+03  0.31441846671E+02  0.36892531816E+03  0.39680010561E+03  0.00000000000E+00 0. -1.
         -2    1    5    5    0  503  0.10756874314E+02  0.26582498210E-01  0.19214798648E+02  0.22020888690E+02  0.00000000000E+00 0.  1.
         -3    1    6    6    0  502  0.10839897024E+03  0.12867630403E+03 -0.24895565109E+02  0.17008150143E+03  0.00000000000E+00 0.  1.
<mgrwt>
<rscale>  0 0.15786217E+04</rscale>
<asrwt>0</asrwt>
<pdfrwt beam="1">  1        1 0.14598742E+00 0.15786217E+04</pdfrwt>
<pdfrwt beam="2">  1       -1 0.10100759E+00 0.15786217E+04</pdfrwt>
<totfact> 0.14872653E+01</totfact>
</mgrwt>
</event>
<event>
12    1  0.2256963E-007  0.2980591E+04  0.7818608E-02  0.8249295E-01
         -1   -1    0    0    0  501 -0.00000000000E+00  0.00000000000E+00  0.18569221524E+04  0.18569221524E+04  0.00000000000E+00 0.  1.
          1   -1    0    0  501    0  0.00000000000E+00 -0.00000000000E+00 -0.11960545148E+04  0.11960545148E+04  0.00000000000E+00 0. -1.
         23    2    1    2    0    0  0.78573612647E+03 -0.10929415644E+04  0.16455595803E+03  0.13589870773E+04  0.88683083606E+02 0.  0.
        254    2    1    2    0    0 -0.78573612647E+03  0.10929415644E+04  0.49631167955E+03  0.16939895899E+04  0.90076241243E+03 0.  0.
        -24    2    4    4    0    0 -0.53720794506E+03  0.18694411938E+03 -0.92036559889E+02  0.58248399469E+03  0.85301791908E+02 0.  0.
         24    2    4    4    0    0 -0.24852818140E+03  0.90599744505E+03  0.58834823944E+03  0.11115055952E+04  0.81813262287E+02 0.  0.
         13    1    3    3    0    0  0.21786993777E+03 -0.28204197591E+03  0.62612021697E+01  0.35644661398E+03  0.00000000000E+00 0. -1.
        -13    1    3    3    0    0  0.56786618869E+03 -0.81089958852E+03  0.15829475586E+03  0.10025404634E+04  0.00000000000E+00 0.  1.
          2    1    6    6  502    0 -0.36150460755E+02  0.10599376585E+03  0.10202656540E+03  0.15149572357E+03  0.00000000000E+00 0. -1.
          1    1    5    5  503    0 -0.74960791217E+02  0.50610572875E+02  0.61334782345E+01  0.90654122145E+02  0.00000000000E+00 0. -1.
         -2    1    5    5    0  503 -0.46224715385E+03  0.13633354651E+03 -0.98170038123E+02  0.49182987255E+03  0.00000000000E+00 0.  1.
         -1    1    6    6    0  502 -0.21237772065E+03  0.80000367920E+03  0.48632167404E+03  0.96000987161E+03  0.00000000000E+00 0.  1.
<mgrwt>
<rscale>  0 0.29805906E+04</rscale>
<asrwt>0</asrwt>
<pdfrwt beam="1">  1        1 0.18400839E+00 0.29805906E+04</pdfrwt>
<pdfrwt beam="2">  1       -1 0.28568033E+00 0.29805906E+04</pdfrwt>
<totfact> 0.37495433E-01</totfact>
</mgrwt>
</event>
<event>
12    1  0.2083715E-007  0.1407217E+04  0.7818608E-02  0.8948611E-01
          2   -1    0    0  501    0  0.00000000000E+00  0.00000000000E+00  0.20415485627E+04  0.20415485627E+04  0.00000000000E+00 0. -1.
         -2   -1    0    0    0  501 -0.00000000000E+00 -0.00000000000E+00 -0.24249489595E+03  0.24249489595E+03  0.00000000000E+00 0.  1.
         23    2    1    2    0    0  0.13533464231E+03 -0.36212881986E+03  0.31912979084E+03  0.50939054664E+03  0.90455281911E+02 0.  0.
        254    2    1    2    0    0 -0.13533464231E+03  0.36212881986E+03  0.14799238759E+04  0.17746529120E+04  0.89986973058E+03 0.  0.
        -24    2    4    4    0    0  0.24156190930E+03 -0.99021582297E+02  0.89642605161E+03  0.93696058603E+03  0.78473205528E+02 0.  0.
         24    2    4    4    0    0 -0.37689655161E+03  0.46115040216E+03  0.58349782431E+03  0.83769232598E+03  0.80919824549E+02 0.  0.
         11    1    3    3    0    0  0.26048152904E+02 -0.17547357064E+03  0.17687550816E+03  0.25050833449E+03  0.00000000000E+00 0. -1.
        -11    1    3    3    0    0  0.10928648940E+03 -0.18665524922E+03  0.14225428268E+03  0.25888221216E+03  0.00000000000E+00 0.  1.
          4    1    6    6  502    0 -0.17734242896E+03  0.20267585481E+03  0.20951176642E+03  0.34120817619E+03  0.00000000000E+00 0. -1.
          3    1    5    5  503    0  0.19306205875E+03 -0.45070869379E+02  0.70134083600E+03  0.72882323648E+03  0.00000000000E+00 0. -1.
         -4    1    5    5    0  503  0.48499850551E+02 -0.53950712918E+02  0.19508521561E+03  0.20813734955E+03  0.00000000000E+00 0.  1.
         -3    1    6    6    0  502 -0.19955412265E+03  0.25847454734E+03  0.37398605789E+03  0.49648414979E+03  0.00000000000E+00 0.  1.
<mgrwt>
<rscale>  0 0.14072173E+04</rscale>
<asrwt>0</asrwt>
<pdfrwt beam="1">  1        2 0.31408438E+00 0.14072173E+04</pdfrwt>
<pdfrwt beam="2">  1       -2 0.37306908E-01 0.14072173E+04</pdfrwt>
<totfact> 0.41777424E+01</totfact>
</mgrwt>
</event>
<event>
12    1  0.2083715E-007  0.1870818E+04  0.7818608E-02  0.8669520E-01
         -1   -1    0    0    0  501 -0.00000000000E+00  0.00000000000E+00  0.11849889436E+04  0.11849889436E+04  0.00000000000E+00 0.  1.
          1   -1    0    0  501    0  0.00000000000E+00 -0.00000000000E+00 -0.73839531088E+03  0.73839531088E+03  0.00000000000E+00 0. -1.
         23    2    1    2    0    0 -0.58368805485E+03  0.81448947974E+02  0.59062715181E+03  0.83898195053E+03  0.87889728404E+02 0.  0.
        254    2    1    2    0    0  0.58368805485E+03 -0.81448947974E+02 -0.14403351910E+03  0.10844023039E+04  0.89880867022E+03 0.  0.
        -24    2    4    4    0    0 -0.16768111861E+03 -0.11363599584E+03 -0.23891474656E+03  0.32239425470E+03  0.76339388586E+02 0.  0.
         24    2    4    4    0    0  0.75136917346E+03  0.32187047862E+02  0.94881227463E+02  0.76200804924E+03  0.77859995507E+02 0.  0.
         11    1    3    3    0    0 -0.54340126177E+03  0.97650860991E+02  0.55457922331E+03  0.78254631612E+03  0.00000000000E+00 0.  1.
        -11    1    3    3    0    0 -0.40286793083E+02 -0.16201913017E+02  0.36047928496E+02  0.56435634409E+02  0.00000000000E+00 0. -1.
          4    1    6    6  502    0  0.40144282084E+03 -0.21648429747E+02  0.48655201660E+02  0.40495965424E+03  0.00000000000E+00 0. -1.
          3    1    5    5  503    0 -0.47612542498E+02 -0.23359342902E+02 -0.19548216063E+02  0.56522082899E+02  0.00000000000E+00 0. -1.
         -4    1    5    5    0  503 -0.12006857612E+03 -0.90276652934E+02 -0.21936653050E+03  0.26587217180E+03  0.00000000000E+00 0.  1.
         -3    1    6    6    0  502  0.34992635262E+03  0.53835477608E+02  0.46226025804E+02  0.35704839500E+03  0.00000000000E+00 0.  1.
<mgrwt>
<rscale>  0 0.18708183E+04</rscale>
<asrwt>0</asrwt>
<pdfrwt beam="1">  1        1 0.11359928E+00 0.18708183E+04</pdfrwt>
<pdfrwt beam="2">  1       -1 0.18230599E+00 0.18708183E+04</pdfrwt>
<totfact> 0.47150565E+00</totfact>
</mgrwt>
</event>
<event>
12    1  0.2083715E-007  0.2132625E+04  0.7818608E-02  0.8547006E-01
         -2   -1    0    0    0  501 -0.00000000000E+00  0.00000000000E+00  0.77486759928E+03  0.77486759928E+03  0.00000000000E+00 0.  1.
          2   -1    0    0  501    0  0.00000000000E+00 -0.00000000000E+00 -0.14673765173E+04  0.14673765173E+04  0.00000000000E+00 0. -1.
         23    2    1    2    0    0  0.74189130620E+03  0.38455777011E+03 -0.20883116847E+02  0.84155791751E+03  0.97448628483E+02 0.  0.
        254    2    1    2    0    0 -0.74189130620E+03 -0.38455777011E+03 -0.67162580113E+03  0.14006861990E+04  0.90141734097E+03 0.  0.
        -24    2    4    4    0    0  0.17249538815E+03 -0.14692645124E+03 -0.29645791044E+03  0.38102061664E+03  0.77119236456E+02 0.  0.
         24    2    4    4    0    0 -0.91438669436E+03 -0.23763131887E+03 -0.37516789069E+03  0.10196655824E+04  0.79970514348E+02 0.  0.
         13    1    3    3    0    0  0.61445609933E+03  0.30033525313E+03 -0.51143031340E+02  0.68583756964E+03  0.00000000000E+00 0. -1.
        -13    1    3    3    0    0  0.12743520687E+03  0.84222516978E+02  0.30259914493E+02  0.15572034787E+03  0.00000000000E+00 0.  1.
          4    1    6    6  502    0 -0.22983690686E+03 -0.42371601970E+02 -0.60814089893E+02  0.24149267057E+03  0.00000000000E+00 0. -1.
          1    1    5    5  503    0  0.10508755541E+01 -0.65894254468E+01 -0.46617284535E+02  0.47092420670E+02  0.00000000000E+00 0. -1.
         -2    1    5    5    0  503  0.17144451260E+03 -0.14033702579E+03 -0.24984062591E+03  0.33392819597E+03  0.00000000000E+00 0.  1.
         -3    1    6    6    0  502 -0.68454978750E+03 -0.19525971690E+03 -0.31435380080E+03  0.77817291182E+03  0.00000000000E+00 0.  1.
<mgrwt>
<rscale>  0 0.21326252E+04</rscale>
<asrwt>0</asrwt>
<pdfrwt beam="1">  1        2 0.22575023E+00 0.21326252E+04</pdfrwt>
<pdfrwt beam="2">  1       -2 0.11921040E+00 0.21326252E+04</pdfrwt>
<totfact> 0.65724818E+00</totfact>
</mgrwt>
</event>
<event>
12    1  0.2083715E-007  0.2325246E+04  0.7818608E-02  0.8468033E-01
          1   -1    0    0  501    0  0.00000000000E+00  0.00000000000E+00  0.23663863006E+04  0.23663863006E+04  0.00000000000E+00 0. -1.
         -1   -1    0    0    0  501 -0.00000000000E+00 -0.00000000000E+00 -0.57120543406E+03  0.57120543406E+03  0.00000000000E+00 0.  1.
         23    2    1    2    0    0 -0.73827535452E+03  0.49786380235E+03  0.23007718715E+03  0.92440645911E+03  0.93128539239E+02 0.  0.
        254    2    1    2    0    0  0.73827535452E+03 -0.49786380235E+03  0.15651036793E+04  0.20131852755E+04  0.90024805559E+03 0.  0.
        -24    2    4    4    0    0  0.64953863751E+03  0.95151969073E+02  0.81773527685E+03  0.10516554289E+04  0.79585296232E+02 0.  0.
         24    2    4    4    0    0  0.88736717008E+02 -0.59301577142E+03  0.74736840250E+03  0.96152984656E+03  0.80238436356E+02 0.  0.
         11    1    3    3    0    0 -0.17885750896E+03  0.16664560495E+03  0.46231051582E+02  0.24879324004E+03  0.00000000000E+00 0.  1.
        -11    1    3    3    0    0 -0.55941784556E+03  0.33121819740E+03  0.18384613557E+03  0.67561321907E+03  0.00000000000E+00 0. -1.
          4    1    6    6  502    0  0.89771856016E+02 -0.58920126309E+03  0.74905219109E+03  0.95723367029E+03  0.00000000000E+00 0. -1.
          1    1    5    5  503    0  0.46690348181E+03  0.82982579341E+02  0.53585140527E+03  0.71555691481E+03  0.00000000000E+00 0. -1.
         -2    1    5    5    0  503  0.18263515570E+03  0.12169389732E+02  0.28188387158E+03  0.33609851413E+03  0.00000000000E+00 0.  1.
         -3    1    6    6    0  502 -0.10351390087E+01 -0.38145083298E+01 -0.16837885849E+01  0.42961762725E+01  0.00000000000E+00 0.  1.
<mgrwt>
<rscale>  0 0.23252464E+04</rscale>
<asrwt>0</asrwt>
<pdfrwt beam="1">  1        1 0.36405943E+00 0.23252464E+04</pdfrwt>
<pdfrwt beam="2">  1       -1 0.87877760E-01 0.23252464E+04</pdfrwt>
<totfact> 0.19237276E+00</totfact>
</mgrwt>
</event>
<event>
12    1  0.2083715E-007  0.1785385E+04  0.7818608E-02  0.8714110E-01
          1   -1    0    0  501    0  0.00000000000E+00  0.00000000000E+00  0.83079485377E+03  0.83079485377E+03  0.00000000000E+00 0. -1.
         -1   -1    0    0    0  501 -0.00000000000E+00 -0.00000000000E+00 -0.95920198718E+03  0.95920198718E+03  0.00000000000E+00 0.  1.
         23    2    1    2    0    0 -0.44623846672E+03  0.92697841813E+02 -0.53211836574E+03  0.70644456793E+03  0.90511398936E+02 0.  0.
        254    2    1    2    0    0  0.44623846672E+03 -0.92697841813E+02  0.40371123233E+03  0.10835522730E+04  0.89631529620E+03 0.  0.
        -24    2    4    4    0    0 -0.10949926394E+03 -0.44390237757E+02  0.49295687008E+03  0.51311600335E+03  0.79504560411E+02 0.  0.
         24    2    4    4    0    0  0.55573773066E+03 -0.48307604057E+02 -0.89245637753E+02  0.57043626966E+03  0.79086686593E+02 0.  0.
         13    1    3    3    0    0 -0.18127551168E+03  0.37455282051E+02 -0.15038313394E+03  0.23849275935E+03  0.00000000000E+00 0. -1.
        -13    1    3    3    0    0 -0.26496295504E+03  0.55242559762E+02 -0.38173523180E+03  0.46795180857E+03  0.00000000000E+00 0.  1.
          2    1    6    6  502    0  0.52742738530E+03 -0.44503395278E+02 -0.65593853973E+02  0.53335049699E+03  0.00000000000E+00 0. -1.
          1    1    5    5  503    0 -0.82720991166E+02  0.49824447311E+01  0.34614134782E+03  0.35592333417E+03  0.00000000000E+00 0. -1.
         -2    1    5    5    0  503 -0.26778272775E+02 -0.49372682488E+02  0.14681552226E+03  0.15719266918E+03  0.00000000000E+00 0.  1.
         -1    1    6    6    0  502  0.28310345361E+02 -0.38042087789E+01 -0.23651783781E+02  0.37085772675E+02  0.00000000000E+00 0.  1.
<mgrwt>
<rscale>  0 0.17853852E+04</rscale>
<asrwt>0</asrwt>
<pdfrwt beam="1">  1        1 0.12781459E+00 0.17853852E+04</pdfrwt>
<pdfrwt beam="2">  1       -1 0.14756954E+00 0.17853852E+04</pdfrwt>
<totfact> 0.71634530E+00</totfact>
</mgrwt>
</event>
<event>
12    1  0.2083715E-007  0.3044938E+04  0.7818608E-02  0.8231014E-01
          2   -1    0    0  501    0  0.00000000000E+00  0.00000000000E+00  0.14525559560E+04  0.14525559560E+04  0.00000000000E+00 0. -1.
         -2   -1    0    0    0  501 -0.00000000000E+00 -0.00000000000E+00 -0.15957466113E+04  0.15957466113E+04  0.00000000000E+00 0.  1.
         23    2    1    2    0    0  0.58372907815E+03  0.11924733072E+04 -0.47860171195E+03  0.14135916923E+04  0.80309706025E+02 0.  0.
        254    2    1    2    0    0 -0.58372907815E+03 -0.11924733072E+04  0.33541105669E+03  0.16347108750E+04  0.89277479960E+03 0.  0.
        -24    2    4    4    0    0 -0.17759509764E+03 -0.21807007483E+03  0.48448217266E+03  0.56571174527E+03  0.78817681209E+02 0.  0.
         24    2    4    4    0    0 -0.40613398051E+03 -0.97440323239E+03 -0.14907111597E+03  0.10689991297E+04  0.78297332868E+02 0.  0.
         13    1    3    3    0    0  0.29206563986E+03  0.57347647008E+03 -0.19073209483E+03  0.67123493035E+03  0.00000000000E+00 0. -1.
        -13    1    3    3    0    0  0.29166343828E+03  0.61899683714E+03 -0.28786961711E+03  0.74235676200E+03  0.00000000000E+00 0.  1.
          2    1    6    6  502    0 -0.39748411926E+03 -0.91500840519E+03 -0.13016207476E+03  0.10060696658E+04  0.00000000000E+00 0. -1.
          1    1    5    5  503    0 -0.42117883959E+02 -0.96769046987E+02  0.22869867500E+03  0.25187546239E+03  0.00000000000E+00 0. -1.
         -2    1    5    5    0  503 -0.13547721368E+03 -0.12130102785E+03  0.25578349766E+03  0.31383628289E+03  0.00000000000E+00 0.  1.
         -1    1    6    6    0  502 -0.86498612501E+01 -0.59394827197E+02 -0.18909041215E+02  0.62929463982E+02  0.00000000000E+00 0.  1.
<mgrwt>
<rscale>  0 0.30449376E+04</rscale>
<asrwt>0</asrwt>
<pdfrwt beam="1">  1        2 0.22347015E+00 0.30449376E+04</pdfrwt>
<pdfrwt beam="2">  1       -2 0.24549948E+00 0.30449376E+04</pdfrwt>
<totfact> 0.78898260E-01</totfact>
</mgrwt>
</event>
<event>
12    1  0.2083715E-007  0.1348758E+04  0.7818608E-02  0.8991769E-01
         -1   -1    0    0    0  501 -0.00000000000E+00  0.00000000000E+00  0.35471856976E+03  0.35471856976E+03  0.00000000000E+00 0.  1.
          1   -1    0    0  501    0  0.00000000000E+00 -0.00000000000E+00 -0.12821067761E+04  0.12821067761E+04  0.00000000000E+00 0. -1.
         23    2    1    2    0    0  0.13388698732E+03 -0.32028351500E+03 -0.12014232618E+03  0.37882119641E+03  0.92542233357E+02 0.  0.
        254    2    1    2    0    0 -0.13388698732E+03  0.32028351500E+03 -0.80724588014E+03  0.12580041494E+04  0.90023401049E+03 0.  0.
        -24    2    4    4    0    0 -0.37207176788E+03  0.11409831700E+02 -0.27515915119E+02  0.38242285355E+03  0.83201734491E+02 0.  0.
         24    2    4    4    0    0  0.23818478056E+03  0.30887368330E+03 -0.77972996502E+03  0.87558129589E+03  0.80801271251E+02 0.  0.
         13    1    3    3    0    0  0.28348559582E+02 -0.32049118996E+02  0.12296762590E+02  0.44519627457E+02  0.00000000000E+00 0. -1.
        -13    1    3    3    0    0  0.10553842773E+03 -0.28823439600E+03 -0.13243908877E+03  0.33430156895E+03  0.00000000000E+00 0.  1.
          2    1    6    6  502    0  0.17021261070E+03  0.27220983350E+03 -0.63397709658E+03  0.71063175083E+03  0.00000000000E+00 0. -1.
          1    1    5    5  503    0 -0.19099651853E+03 -0.32807342747E+02  0.13920951003E+01  0.19379868358E+03  0.00000000000E+00 0. -1.
         -2    1    5    5    0  503 -0.18107524935E+03  0.44217174447E+02 -0.28908010219E+02  0.18862416997E+03  0.00000000000E+00 0.  1.
         -1    1    6    6    0  502  0.67972169862E+02  0.36663849798E+02 -0.14575286844E+03  0.16494954506E+03  0.00000000000E+00 0.  1.
<mgrwt>
<rscale>  0 0.13487581E+04</rscale>
<asrwt>0</asrwt>
<pdfrwt beam="1">  1        1 0.19724720E+00 0.13487581E+04</pdfrwt>
<pdfrwt beam="2">  1       -1 0.54572087E-01 0.13487581E+04</pdfrwt>
<totfact> 0.30934018E+01</totfact>
</mgrwt>
</event>
<event>
12    1  0.2083715E-007  0.2173710E+04  0.7818608E-02  0.8529451E-01
          2   -1    0    0  501    0  0.00000000000E+00  0.00000000000E+00  0.37657224119E+04  0.37657224119E+04  0.00000000000E+00 0. -1.
         -2   -1    0    0    0  501 -0.00000000000E+00 -0.00000000000E+00 -0.31368592774E+03  0.31368592774E+03  0.00000000000E+00 0.  1.
         23    2    1    2    0    0 -0.71914710263E+03 -0.32456150354E+02  0.24421651266E+04  0.25475929477E+04  0.88506297637E+02 0.  0.
        254    2    1    2    0    0  0.71914710263E+03  0.32456150354E+02  0.10098713575E+04  0.15318153919E+04  0.89910637811E+03 0.  0.
        -24    2    4    4    0    0 -0.92826938684E+02 -0.33315193400E+02 -0.92725862354E+02  0.15861736844E+03  0.82671889817E+02 0.  0.
         24    2    4    4    0    0  0.81197404131E+03  0.65771343754E+02  0.11025972199E+04  0.13731980234E+04  0.79526529432E+02 0.  0.
         13    1    3    3    0    0 -0.69615745579E+03 -0.27491679076E+02  0.24025003238E+04  0.25014793227E+04  0.00000000000E+00 0. -1.
        -13    1    3    3    0    0 -0.22989646843E+02 -0.49644712778E+01  0.39664802783E+02  0.46113625067E+02  0.00000000000E+00 0.  1.
          2    1    6    6  502    0  0.74331047045E+03  0.52813512388E+02  0.10397968267E+04  0.12792486715E+04  0.00000000000E+00 0. -1.
          3    1    5    5  503    0 -0.95241135195E+02 -0.30109910964E-01 -0.66227414060E+02  0.11600407369E+03  0.00000000000E+00 0. -1.
         -2    1    5    5    0  503  0.24141965111E+01 -0.33285083489E+02 -0.26498448294E+02  0.42613294752E+02  0.00000000000E+00 0.  1.
         -1    1    6    6    0  502  0.68663570865E+02  0.12957831366E+02  0.62800393145E+02  0.93949351976E+02  0.00000000000E+00 0.  1.
<mgrwt>
<rscale>  0 0.21737103E+04</rscale>
<asrwt>0</asrwt>
<pdfrwt beam="1">  1        2 0.57934188E+00 0.21737103E+04</pdfrwt>
<pdfrwt beam="2">  1       -2 0.48259376E-01 0.21737103E+04</pdfrwt>
<totfact> 0.19534560E+00</totfact>
</mgrwt>
</event>
<event>
12    1  0.2083715E-007  0.1383160E+04  0.7818608E-02  0.8966099E-01
          2   -1    0    0  501    0  0.00000000000E+00  0.00000000000E+00  0.20741494140E+04  0.20741494140E+04  0.00000000000E+00 0. -1.
         -2   -1    0    0    0  501 -0.00000000000E+00 -0.00000000000E+00 -0.23059237234E+03  0.23059237234E+03  0.00000000000E+00 0.  1.
         23    2    1    2    0    0 -0.12845125938E+03  0.34802912147E+03  0.32966291968E+03  0.50461484117E+03  0.91293493136E+02 0.  0.
        254    2    1    2    0    0  0.12845125938E+03 -0.34802912147E+03  0.15138941220E+04  0.18001269451E+04  0.90053184880E+03 0.  0.
        -24    2    4    4    0    0 -0.34559669197E+03 -0.31790397689E+03  0.59465158503E+03  0.76185847665E+03  0.79484708162E+02 0.  0.
         24    2    4    4    0    0  0.47404795135E+03 -0.30125144576E+02  0.91924253692E+03  0.10382684685E+04  0.85822994986E+02 0.  0.
         13    1    3    3    0    0 -0.82259009445E+02  0.25513512658E+03  0.28619180901E+03  0.39213037245E+03  0.00000000000E+00 0. -1.
        -13    1    3    3    0    0 -0.46192249937E+02  0.92893994889E+02  0.43471110664E+02  0.11248446872E+03  0.00000000000E+00 0.  1.
          4    1    6    6  502    0  0.37432979347E+02  0.20524112929E+02  0.95024769396E+02  0.10417376807E+03  0.00000000000E+00 0. -1.
          3    1    5    5  503    0 -0.89838023136E+02 -0.13326428784E+03  0.19362934527E+03  0.25163975077E+03  0.00000000000E+00 0. -1.
         -4    1    5    5    0  503 -0.25575866883E+03 -0.18463968905E+03  0.40102223976E+03  0.51021872588E+03  0.00000000000E+00 0.  1.
         -3    1    6    6    0  502  0.43661497201E+03 -0.50649257505E+02  0.82421776752E+03  0.93409470043E+03  0.00000000000E+00 0.  1.
<mgrwt>
<rscale>  0 0.13831602E+04</rscale>
<asrwt>0</asrwt>
<pdfrwt beam="1">  1        2 0.31909990E+00 0.13831602E+04</pdfrwt>
<pdfrwt beam="2">  1       -2 0.35475751E-01 0.13831602E+04</pdfrwt>
<totfact> 0.44232613E+01</totfact>
</mgrwt>
</event>
<event>
12    1  0.2083715E-007  0.1244634E+04  0.7818608E-02  0.9074662E-01
          1   -1    0    0  501    0  0.00000000000E+00  0.00000000000E+00  0.75670764597E+03  0.75670764597E+03  0.00000000000E+00 0. -1.
         -1   -1    0    0    0  501 -0.00000000000E+00 -0.00000000000E+00 -0.51179363884E+03  0.51179363884E+03  0.00000000000E+00 0.  1.
         23    2    1    2    0    0  0.15741878233E+02  0.15579563423E+03 -0.17890040804E+03  0.26191300584E+03  0.10987711435E+03 0.  0.
        254    2    1    2    0    0 -0.15741878233E+02 -0.15579563423E+03  0.42381441517E+03  0.10065882790E+04  0.89948942099E+03 0.  0.
        -24    2    4    4    0    0 -0.24255961928E+02  0.33298359976E+03 -0.16967600738E+02  0.34317511640E+03  0.77555345680E+02 0.  0.
         24    2    4    4    0    0  0.85140836952E+01 -0.48877923399E+03  0.44078201591E+03  0.66341316257E+03  0.82768409004E+02 0.  0.
         13    1    3    3    0    0 -0.34701763278E+02  0.59061402411E+02 -0.24276526476E+02  0.72676071490E+02  0.00000000000E+00 0. -1.
        -13    1    3    3    0    0  0.50443641510E+02  0.96734231818E+02 -0.15462388156E+03  0.18923693435E+03  0.00000000000E+00 0.  1.
          4    1    6    6  502    0  0.36220288141E+01 -0.19531178148E+03  0.23164594926E+03  0.30301758511E+03  0.00000000000E+00 0. -1.
          1    1    5    5  503    0 -0.11828427684E+02  0.26295550091E+01 -0.16910677579E+01  0.12234621824E+02  0.00000000000E+00 0. -1.
         -4    1    5    5    0  503 -0.12427534244E+02  0.33035404475E+03 -0.15276532980E+02  0.33094049457E+03  0.00000000000E+00 0.  1.
         -3    1    6    6    0  502  0.48920548811E+01 -0.29346745250E+03  0.20913606665E+03  0.36039557746E+03  0.00000000000E+00 0.  1.
<mgrwt>
<rscale>  0 0.12446335E+04</rscale>
<asrwt>0</asrwt>
<pdfrwt beam="1">  1        1 0.11641656E+00 0.12446335E+04</pdfrwt>
<pdfrwt beam="2">  1       -1 0.78737483E-01 0.12446335E+04</pdfrwt>
<totfact> 0.38466360E+01</totfact>
</mgrwt>
</event>
<event>
12    1  0.2083715E-007  0.3057232E+04  0.7818608E-02  0.8227574E-01
         -2   -1    0    0    0  501 -0.00000000000E+00  0.00000000000E+00  0.16182399040E+04  0.16182399040E+04  0.00000000000E+00 0.  1.
          2   -1    0    0  501    0  0.00000000000E+00 -0.00000000000E+00 -0.14439562118E+04  0.14439562118E+04  0.00000000000E+00 0. -1.
         23    2    1    2    0    0 -0.19395737006E+03  0.12569851425E+04  0.65267917175E+03  0.14324311867E+04  0.90762842616E+02 0.  0.
        254    2    1    2    0    0  0.19395737006E+03 -0.12569851425E+04 -0.47839547952E+03  0.16297649291E+04  0.89980018868E+03 0.  0.
        -24    2    4    4    0    0  0.54549733507E+03 -0.83625785900E+03 -0.35603178749E+03  0.10630030594E+04  0.79513026055E+02 0.  0.
         24    2    4    4    0    0 -0.35153996501E+03 -0.42072728348E+03 -0.12236369203E+03  0.56676186971E+03  0.75195410511E+02 0.  0.
         11    1    3    3    0    0 -0.15014517075E+03  0.68696504456E+03  0.37299325306E+03  0.79598273322E+03  0.00000000000E+00 0. -1.
        -11    1    3    3    0    0 -0.43812199312E+02  0.57002009792E+03  0.27968591869E+03  0.63644845349E+03  0.00000000000E+00 0.  1.
          2    1    6    6  502    0 -0.10116571373E+03 -0.78955271573E+02 -0.45628481183E+02  0.13619983421E+03  0.00000000000E+00 0. -1.
          3    1    5    5  503    0  0.43035574274E+03 -0.71354187994E+03 -0.30039042776E+03  0.88576661081E+03  0.00000000000E+00 0. -1.
         -4    1    5    5    0  503  0.11514159233E+03 -0.12271597906E+03 -0.55641359735E+02  0.17723644861E+03  0.00000000000E+00 0.  1.
         -1    1    6    6    0  502 -0.25037425128E+03 -0.34177201191E+03 -0.76735210849E+02  0.43056203550E+03  0.00000000000E+00 0.  1.
<mgrwt>
<rscale>  0 0.30572324E+04</rscale>
<asrwt>0</asrwt>
<pdfrwt beam="1">  1        2 0.22214711E+00 0.30572324E+04</pdfrwt>
<pdfrwt beam="2">  1       -2 0.24895999E+00 0.30572324E+04</pdfrwt>
<totfact> 0.75891046E-01</totfact>
</mgrwt>
</event>
<event>
12    1  0.2083715E-007  0.1138254E+04  0.7818608E-02  0.9168689E-01
         -2   -1    0    0    0  501 -0.00000000000E+00  0.00000000000E+00  0.10760816084E+03  0.10760816084E+03  0.00000000000E+00 0.  1.
          2   -1    0    0  501    0  0.00000000000E+00 -0.00000000000E+00 -0.30100444429E+04  0.30100444429E+04  0.00000000000E+00 0. -1.
         23    2    1    2    0    0 -0.10616922397E+03  0.11516104167E+03 -0.21361660527E+03  0.27886168058E+03  0.87165435864E+02 0.  0.
        254    2    1    2    0    0  0.10616922397E+03 -0.11516104167E+03 -0.26888196768E+04  0.28387909231E+04  0.89691063182E+03 0.  0.
        -24    2    4    4    0    0 -0.21372495414E+03 -0.25224727413E+03 -0.41157746434E+03  0.53352119108E+03  0.77083129532E+02 0.  0.
         24    2    4    4    0    0  0.31989417811E+03  0.13708623246E+03 -0.22772422124E+04  0.23052697320E+04  0.85507444844E+02 0.  0.
         13    1    3    3    0    0  0.17192036000E+01 -0.12019258237E+02 -0.10535344575E+02  0.16075189420E+02  0.00000000000E+00 0. -1.
        -13    1    3    3    0    0 -0.10788842757E+03  0.12718029991E+03 -0.20308126070E+03  0.26278649116E+03  0.00000000000E+00 0.  1.
          2    1    6    6  502    0  0.55979651095E+02  0.21624766892E+00 -0.52618155268E+03  0.52915101293E+03  0.00000000000E+00 0. -1.
          1    1    5    5  503    0 -0.34436451611E+01  0.24241996979E+01  0.16552045174E+01  0.45249462058E+01  0.00000000000E+00 0. -1.
         -2    1    5    5    0  503 -0.21028130898E+03 -0.25467147383E+03 -0.41323266885E+03  0.52899624488E+03  0.00000000000E+00 0.  1.
         -1    1    6    6    0  502  0.26391452701E+03  0.13686998479E+03 -0.17510606597E+04  0.17761187191E+04  0.00000000000E+00 0.  1.
<mgrwt>
<rscale>  0 0.11382537E+04</rscale>
<asrwt>0</asrwt>
<pdfrwt beam="1">  1        2 0.46308374E+00 0.11382537E+04</pdfrwt>
<pdfrwt beam="2">  1       -2 0.16555102E-01 0.11382537E+04</pdfrwt>
<totfact> 0.51330012E+01</totfact>
</mgrwt>
</event>
<event>
12    1  0.2083715E-007  0.1341729E+04  0.7818608E-02  0.8997113E-01
         -3   -1    0    0    0  501 -0.00000000000E+00  0.00000000000E+00  0.24771652798E+04  0.24771652798E+04  0.00000000000E+00 0.  1.
          3   -1    0    0  501    0  0.00000000000E+00 -0.00000000000E+00 -0.18168310001E+03  0.18168310001E+03  0.00000000000E+00 0. -1.
         23    2    1    2    0    0  0.34635414850E+03  0.10497993078E+03  0.63973031973E+03  0.74068613841E+03  0.91537378158E+02 0.  0.
        254    2    1    2    0    0 -0.34635414850E+03 -0.10497993078E+03  0.16557518600E+04  0.19181622414E+04  0.89824839557E+03 0.  0.
        -24    2    4    4    0    0 -0.13365972405E+03  0.37909937083E+03  0.51313479597E+03  0.65667539811E+03  0.79586461465E+02 0.  0.
         24    2    4    4    0    0 -0.21269442445E+03 -0.48407930161E+03  0.11426170641E+04  0.12614868432E+04  0.78763012805E+02 0.  0.
         13    1    3    3    0    0  0.19270518098E+03  0.17450549811E+02  0.38072638294E+03  0.42707421736E+03  0.00000000000E+00 0.  1.
        -13    1    3    3    0    0  0.15364896752E+03  0.87529380966E+02  0.25900393679E+03  0.31361192105E+03  0.00000000000E+00 0. -1.
          2    1    6    6  502    0 -0.20586337812E+03 -0.42154400190E+03  0.96339660728E+03  0.10715465920E+04  0.00000000000E+00 0. -1.
          1    1    5    5  503    0  0.81114246617E+01  0.29852445418E+02  0.57936075894E+02  0.65677641534E+02  0.00000000000E+00 0. -1.
         -2    1    5    5    0  503 -0.14177114871E+03  0.34924692541E+03  0.45519872008E+03  0.59099775658E+03  0.00000000000E+00 0.  1.
         -1    1    6    6    0  502 -0.68310463224E+01 -0.62535299703E+02  0.17922045677E+03  0.18994025121E+03  0.00000000000E+00 0.  1.
<mgrwt>
<rscale>  0 0.13417288E+04</rscale>
<asrwt>0</asrwt>
<pdfrwt beam="1">  1        3 0.27951248E-01 0.13417288E+04</pdfrwt>
<pdfrwt beam="2">  1       -3 0.38110233E+00 0.13417288E+04</pdfrwt>
<totfact> 0.43305299E-01</totfact>
</mgrwt>
</event>
<event>
12    1  0.2083715E-007  0.1789742E+04  0.7818608E-02  0.8711774E-01
          3   -1    0    0  501    0  0.00000000000E+00  0.00000000000E+00  0.16925899065E+04  0.16925899065E+04  0.00000000000E+00 0. -1.
         -3   -1    0    0    0  501 -0.00000000000E+00 -0.00000000000E+00 -0.47311768684E+03  0.47311768684E+03  0.00000000000E+00 0.  1.
         23    2    1    2    0    0 -0.42034478261E+03  0.51762349934E+03  0.60845640797E+03  0.90658864893E+03  0.84023536195E+02 0.  0.
        254    2    1    2    0    0  0.42034478261E+03 -0.51762349934E+03  0.61101581170E+03  0.12591189444E+04  0.87602304236E+03 0.  0.
        -24    2    4    4    0    0  0.46379894433E+03  0.38383729639E+02  0.68201663431E+02  0.47678011119E+03  0.78006641135E+02 0.  0.
         24    2    4    4    0    0 -0.43454161720E+02 -0.55600722898E+03  0.54281414827E+03  0.78233883325E+03  0.79840763992E+02 0.  0.
         11    1    3    3    0    0 -0.38034565521E+03  0.46867039666E+03  0.51322285099E+03  0.79228306363E+03  0.00000000000E+00 0.  1.
        -11    1    3    3    0    0 -0.39999127402E+02  0.48953102677E+02  0.95233556988E+02  0.11430558530E+03  0.00000000000E+00 0. -1.
          2    1    6    6  502    0 -0.30703988766E+02 -0.54176797908E+03  0.53388915715E+03  0.76124431703E+03  0.00000000000E+00 0. -1.
          3    1    5    5  503    0  0.37213757329E+03  0.61775173091E+02  0.51805664906E+02  0.38077076093E+03  0.00000000000E+00 0. -1.
         -4    1    5    5    0  503  0.91661371044E+02 -0.23391443452E+02  0.16395998525E+02  0.96009350254E+02  0.00000000000E+00 0.  1.
         -1    1    6    6    0  502 -0.12750172954E+02 -0.14239249902E+02  0.89249911184E+01  0.21094516220E+02  0.00000000000E+00 0.  1.
<mgrwt>
<rscale>  0 0.17897421E+04</rscale>
<asrwt>0</asrwt>
<pdfrwt beam="1">  1        3 0.26039844E+00 0.17897421E+04</pdfrwt>
<pdfrwt beam="2">  1       -3 0.72787337E-01 0.17897421E+04</pdfrwt>
<totfact> 0.28564401E-01</totfact>
</mgrwt>
</event>
<event>
12    1  0.2083715E-007  0.1697284E+04  0.7818608E-02  0.8762915E-01
          2   -1    0    0  501    0  0.00000000000E+00  0.00000000000E+00  0.11381361009E+04  0.11381361009E+04  0.00000000000E+00 0. -1.
         -2   -1    0    0    0  501 -0.00000000000E+00 -0.00000000000E+00 -0.63278325575E+03  0.63278325575E+03  0.00000000000E+00 0.  1.
         23    2    1    2    0    0  0.46466993927E+02 -0.60354291214E+03  0.25436303199E+03  0.66325656555E+03  0.93730952155E+02 0.  0.
        254    2    1    2    0    0 -0.46466993927E+02  0.60354291214E+03  0.25098981317E+03  0.11076627911E+04  0.89302729195E+03 0.  0.
        -24    2    4    4    0    0 -0.33319165017E+02  0.37362945227E+03 -0.31185822291E+03  0.49433346610E+03  0.80005563232E+02 0.  0.
         24    2    4    4    0    0 -0.13147828910E+02  0.22991345987E+03  0.56284803608E+03  0.61332932500E+03  0.79635951424E+02 0.  0.
         11    1    3    3    0    0  0.43072058698E+01 -0.27698487925E+03  0.16354751559E+03  0.32169389987E+03  0.00000000000E+00 0. -1.
        -11    1    3    3    0    0  0.42159788057E+02 -0.32655803289E+03  0.90815516395E+02  0.34156266569E+03  0.00000000000E+00 0.  1.
          2    1    6    6  502    0 -0.41259193449E+01  0.17903857432E+03  0.33681268537E+03  0.38146378508E+03  0.00000000000E+00 0. -1.
          1    1    5    5  503    0 -0.54570295259E+02  0.29060801058E+03 -0.26275649878E+03  0.39556530509E+03  0.00000000000E+00 0. -1.
         -2    1    5    5    0  503  0.21251130242E+02  0.83021441695E+02 -0.49101724126E+02  0.98768161013E+02  0.00000000000E+00 0.  1.
         -1    1    6    6    0  502 -0.90219095650E+01  0.50874885544E+02  0.22603535071E+03  0.23186553992E+03  0.00000000000E+00 0.  1.
<mgrwt>
<rscale>  0 0.16972843E+04</rscale>
<asrwt>0</asrwt>
<pdfrwt beam="1">  1        2 0.17509786E+00 0.16972843E+04</pdfrwt>
<pdfrwt beam="2">  1       -2 0.97351270E-01 0.16972843E+04</pdfrwt>
<totfact> 0.17293450E+01</totfact>
</mgrwt>
</event>
<event>
12    1  0.2083715E-007  0.1470068E+04  0.7818608E-02  0.8904605E-01
         -2   -1    0    0    0  501 -0.00000000000E+00  0.00000000000E+00  0.29606496127E+03  0.29606496127E+03  0.00000000000E+00 0.  1.
          2   -1    0    0  501    0  0.00000000000E+00 -0.00000000000E+00 -0.18248517698E+04  0.18248517698E+04  0.00000000000E+00 0. -1.
         23    2    1    2    0    0 -0.30376948576E+03  0.31583018689E+03 -0.31062769316E+03  0.54441022768E+03  0.88703578374E+02 0.  0.
        254    2    1    2    0    0  0.30376948576E+03 -0.31583018689E+03 -0.12181591154E+04  0.15765065034E+04  0.89968689968E+03 0.  0.
        -24    2    4    4    0    0  0.30538051467E+03 -0.26974553767E+03 -0.65320349686E+02  0.42027785268E+03  0.79666878580E+02 0.  0.
         24    2    4    4    0    0 -0.16110289054E+01 -0.46084649215E+02 -0.11528387657E+04  0.11562286507E+04  0.75505514645E+02 0.  0.
         11    1    3    3    0    0 -0.34675252218E+02  0.50742110565E+02 -0.83395947574E+02  0.10359545826E+03  0.00000000000E+00 0.  1.
        -11    1    3    3    0    0 -0.26909423354E+03  0.26508807632E+03 -0.22723174558E+03  0.44081476942E+03  0.00000000000E+00 0. -1.
          2    1    6    6  502    0 -0.26862193375E+02 -0.40156639135E+02 -0.39463115698E+03  0.39757751843E+03  0.00000000000E+00 0. -1.
          3    1    5    5  503    0  0.22187269406E+02 -0.23212457608E+02  0.16343508071E+02  0.36030589337E+02  0.00000000000E+00 0. -1.
         -4    1    5    5    0  503  0.28319324526E+03 -0.24653308006E+03 -0.81663857757E+02  0.38424726335E+03  0.00000000000E+00 0.  1.
         -1    1    6    6    0  502  0.25251164470E+02 -0.59280100798E+01 -0.75820760872E+03  0.75865113229E+03  0.00000000000E+00 0.  1.
<mgrwt>
<rscale>  0 0.14700676E+04</rscale>
<asrwt>0</asrwt>
<pdfrwt beam="1">  1        2 0.28074642E+00 0.14700676E+04</pdfrwt>
<pdfrwt beam="2">  1       -2 0.45548457E-01 0.14700676E+04</pdfrwt>
<totfact> 0.36998964E+01</totfact>
</mgrwt>
</event>
<event>
12    1  0.2083715E-007  0.1833590E+04  0.7818608E-02  0.8688638E-01
          2   -1    0    0  501    0  0.00000000000E+00  0.00000000000E+00  0.68304322480E+03  0.68304322480E+03  0.00000000000E+00 0. -1.
         -2   -1    0    0    0  501 -0.00000000000E+00 -0.00000000000E+00 -0.12305419114E+04  0.12305419114E+04  0.00000000000E+00 0.  1.
         23    2    1    2    0    0 -0.22020478476E+03 -0.23216701710E+03  0.42560031912E+03  0.54089052657E+03  0.95053979598E+02 0.  0.
        254    2    1    2    0    0  0.22020478476E+03  0.23216701710E+03 -0.97309900573E+03  0.13726946096E+04  0.91377083852E+03 0.  0.
        -24    2    4    4    0    0 -0.83077041205E+02  0.49271239184E+03 -0.30571536006E+03  0.59105634436E+03  0.78856990713E+02 0.  0.
         24    2    4    4    0    0  0.30328182597E+03 -0.26054537474E+03 -0.66738364567E+03  0.78163826528E+03  0.75456537082E+02 0.  0.
         11    1    3    3    0    0 -0.85252526004E+02 -0.13429149642E+03  0.14909288096E+03  0.21801579382E+03  0.00000000000E+00 0.  1.
        -11    1    3    3    0    0 -0.13495225876E+03 -0.97875520677E+02  0.27650743816E+03  0.32287473275E+03  0.00000000000E+00 0. -1.
          2    1    6    6  502    0  0.13142357370E+03 -0.12300794356E+03 -0.37194915096E+03  0.41321819999E+03  0.00000000000E+00 0. -1.
          3    1    5    5  503    0  0.13435650778E+02  0.82744634467E+02 -0.38341736437E+02  0.92180692110E+02  0.00000000000E+00 0. -1.
         -4    1    5    5    0  503 -0.96512691982E+02  0.40996775737E+03 -0.26737362362E+03  0.49887565225E+03  0.00000000000E+00 0.  1.
         -1    1    6    6    0  502  0.17185825226E+03 -0.13753743118E+03 -0.29543449472E+03  0.36842006530E+03  0.00000000000E+00 0.  1.
<mgrwt>
<rscale>  0 0.18335903E+04</rscale>
<asrwt>0</asrwt>
<pdfrwt beam="1">  1        2 0.10508357E+00 0.18335903E+04</pdfrwt>
<pdfrwt beam="2">  1       -2 0.18931414E+00 0.18335903E+04</pdfrwt>
<totfact> 0.62289243E+00</totfact>
</mgrwt>
</event>
<event>
12    1  0.2083715E-007  0.2316704E+04  0.7818608E-02  0.8471364E-01
          2   -1    0    0  501    0  0.00000000000E+00  0.00000000000E+00  0.22018165796E+04  0.22018165796E+04  0.00000000000E+00 0.  1.
         -2   -1    0    0    0  501 -0.00000000000E+00 -0.00000000000E+00 -0.60939656623E+03  0.60939656623E+03  0.00000000000E+00 0. -1.
         23    2    1    2    0    0 -0.29643199587E+03  0.91756050973E+03  0.44385745252E+03  0.10646983561E+04  0.82364641544E+02 0.  0.
        254    2    1    2    0    0  0.29643199587E+03 -0.91756050973E+03  0.11485625609E+04  0.17465147897E+04  0.89516966958E+03 0.  0.
        -24    2    4    4    0    0  0.19094707088E+03 -0.10792915586E+04  0.10299238534E+04  0.15061501048E+04  0.80087090880E+02 0.  0.
         24    2    4    4    0    0  0.10548492499E+03  0.16173104886E+03  0.11863870751E+03  0.24036468494E+03  0.80100170319E+02 0.  0.
         11    1    3    3    0    0 -0.16980250990E+03  0.55352414092E+03  0.30953542410E+03  0.65653183146E+03  0.00000000000E+00 0.  1.
        -11    1    3    3    0    0 -0.12662948597E+03  0.36403636881E+03  0.13432202842E+03  0.40816652466E+03  0.00000000000E+00 0. -1.
          2    1    6    6  502    0  0.95020614138E+02  0.11057381055E+03  0.50013479226E+02  0.15413251699E+03  0.00000000000E+00 0. -1.
          1    1    5    5  503    0  0.17502260578E+03 -0.10400044042E+04  0.97095899161E+03  0.14335283174E+04  0.00000000000E+00 0. -1.
         -2    1    5    5    0  503  0.15924465096E+02 -0.39287154403E+02  0.58964861755E+02  0.72621787444E+02  0.00000000000E+00 0.  1.
         -1    1    6    6    0  502  0.10464310851E+02  0.51157238307E+02  0.68625228281E+02  0.86232167951E+02  0.00000000000E+00 0.  1.
<mgrwt>
<rscale>  0 0.23167041E+04</rscale>
<asrwt>0</asrwt>
<pdfrwt beam="1">  1        2 0.33874101E+00 0.23167041E+04</pdfrwt>
<pdfrwt beam="2">  1       -2 0.93753319E-01 0.23167041E+04</pdfrwt>
<totfact> 0.44826980E+00</totfact>
</mgrwt>
</event>
<event>
12    1  0.2083715E-007  0.2266457E+04  0.7818608E-02  0.8491265E-01
         -1   -1    0    0    0  501 -0.00000000000E+00  0.00000000000E+00  0.44274188488E+03  0.44274188488E+03  0.00000000000E+00 0.  1.
          1   -1    0    0  501    0  0.00000000000E+00 -0.00000000000E+00 -0.29005759362E+04  0.29005759362E+04  0.00000000000E+00 0. -1.
         23    2    1    2    0    0  0.26181372468E+03  0.65666317373E+03 -0.19783021737E+04  0.21027167058E+04  0.89359411743E+02 0.  0.
        254    2    1    2    0    0 -0.26181372468E+03 -0.65666317373E+03 -0.47953187762E+03  0.12406011152E+04  0.89965957743E+03 0.  0.
        -24    2    4    4    0    0  0.21679436929E+03 -0.19147791842E+03 -0.48339137765E+03  0.56887640253E+03  0.79306655298E+02 0.  0.
         24    2    4    4    0    0 -0.47860809396E+03 -0.46518525532E+03  0.38595000281E+01  0.67172471269E+03  0.75737471120E+02 0.  0.
         11    1    3    3    0    0  0.18658031920E+03  0.45330231221E+03 -0.12449929731E+04  0.13380219374E+04  0.00000000000E+00 0.  1.
        -11    1    3    3    0    0  0.75233405480E+02  0.20336086153E+03 -0.73330920056E+03  0.76469476847E+03  0.00000000000E+00 0. -1.
          2    1    6    6  502    0 -0.33467788737E+03 -0.27783919749E+03 -0.97150043753E+01  0.43508423238E+03  0.00000000000E+00 0. -1.
          3    1    5    5  503    0  0.22309043569E+03 -0.19074129741E+03 -0.47480254810E+03  0.55820161655E+03  0.00000000000E+00 0. -1.
         -4    1    5    5    0  503 -0.62960664061E+01 -0.73662100147E+00 -0.85888295494E+01  0.10674785980E+02  0.00000000000E+00 0.  1.
         -1    1    6    6    0  502 -0.14393020660E+03 -0.18734605783E+03  0.13574504403E+02  0.23664048032E+03  0.00000000000E+00 0.  1.
<mgrwt>
<rscale>  0 0.22664567E+04</rscale>
<asrwt>0</asrwt>
<pdfrwt beam="1">  1        1 0.44624245E+00 0.22664567E+04</pdfrwt>
<pdfrwt beam="2">  1       -1 0.68114136E-01 0.22664567E+04</pdfrwt>
<totfact> 0.13967584E+00</totfact>
</mgrwt>
</event>
<event>
12    1  0.2083715E-007  0.1816501E+04  0.7818608E-02  0.8697573E-01
         -4   -1    0    0    0  501 -0.00000000000E+00  0.00000000000E+00  0.97769883642E+03  0.97769883642E+03  0.00000000000E+00 0.  1.
          4   -1    0    0  501    0  0.00000000000E+00 -0.00000000000E+00 -0.84373501935E+03  0.84373501935E+03  0.00000000000E+00 0. -1.
         23    2    1    2    0    0  0.62929418254E+03  0.53921639451E+02 -0.20676300951E+03  0.67101529323E+03  0.92692341994E+02 0.  0.
        254    2    1    2    0    0 -0.62929418254E+03 -0.53921639451E+02  0.34072682658E+03  0.11504185625E+04  0.89913813582E+03 0.  0.
        -24    2    4    4    0    0 -0.27105142818E+03  0.25752704272E+03  0.51223097394E+03  0.63954090235E+03  0.82722068811E+02 0.  0.
         24    2    4    4    0    0 -0.35824275437E+03 -0.31144868217E+03 -0.17150414735E+03  0.51087766019E+03  0.79019987590E+02 0.  0.
         11    1    3    3    0    0  0.14492047026E+03  0.50368939915E+02 -0.61786539852E+02  0.16539815391E+03  0.00000000000E+00 0.  1.
        -11    1    3    3    0    0  0.48437371228E+03  0.35526995360E+01 -0.14497646965E+03  0.50561713933E+03  0.00000000000E+00 0. -1.
          4    1    6    6  502    0 -0.16674501704E+03 -0.19667090467E+03 -0.86090143822E+02  0.27183608722E+03  0.00000000000E+00 0. -1.
          3    1    5    5  503    0 -0.26858838276E+03  0.24016306627E+03  0.45916964986E+03  0.58365639301E+03  0.00000000000E+00 0. -1.
         -4    1    5    5    0  503 -0.24630454164E+01  0.17363976454E+02  0.53061324075E+02  0.55884509335E+02  0.00000000000E+00 0.  1.
         -3    1    6    6    0  502 -0.19149773733E+03 -0.11477777751E+03 -0.85414003530E+02  0.23904157297E+03  0.00000000000E+00 0.  1.
<mgrwt>
<rscale>  0 0.18165008E+04</rscale>
<asrwt>0</asrwt>
<pdfrwt beam="1">  1        4 0.12980539E+00 0.18165008E+04</pdfrwt>
<pdfrwt beam="2">  1       -4 0.15041521E+00 0.18165008E+04</pdfrwt>
<totfact> 0.24222350E-01</totfact>
</mgrwt>
</event>
<event>
12    1  0.2083715E-007  0.1590885E+04  0.7818608E-02  0.8826167E-01
         -1   -1    0    0    0  501 -0.00000000000E+00  0.00000000000E+00  0.14015622524E+03  0.14015622524E+03  0.00000000000E+00 0.  1.
          1   -1    0    0  501    0  0.00000000000E+00 -0.00000000000E+00 -0.45144527325E+04  0.45144527325E+04  0.00000000000E+00 0. -1.
         23    2    1    2    0    0  0.89464861889E+02 -0.51343254437E+03 -0.15481483217E+04  0.16359126932E+04  0.88488274623E+02 0.  0.
        254    2    1    2    0    0 -0.89464861889E+02  0.51343254437E+03 -0.28261481856E+04  0.30186962645E+04  0.92401116414E+03 0.  0.
        -24    2    4    4    0    0 -0.38914512254E+03  0.57285660945E+03 -0.14797942170E+04  0.16358257143E+04  0.80846900585E+02 0.  0.
         24    2    4    4    0    0  0.29968026065E+03 -0.59424065082E+02 -0.13463539686E+04  0.13828705503E+04  0.79513973440E+02 0.  0.
         13    1    3    3    0    0  0.47777300768E+02 -0.32021591808E+03 -0.10869000726E+04  0.11340955306E+04  0.00000000000E+00 0. -1.
        -13    1    3    3    0    0  0.41687561121E+02 -0.19321662629E+03 -0.46124824902E+03  0.50181716257E+03  0.00000000000E+00 0.  1.
          4    1    6    6  502    0  0.20157561832E+03 -0.16664008308E+02 -0.10043294330E+04  0.10244940356E+04  0.00000000000E+00 0. -1.
          1    1    5    5  503    0 -0.34567972963E+03  0.52110806424E+03 -0.12736051390E+04  0.14188439450E+04  0.00000000000E+00 0. -1.
         -2    1    5    5    0  503 -0.43465392914E+02  0.51748545218E+02 -0.20618907798E+03  0.21698176926E+03  0.00000000000E+00 0.  1.
         -3    1    6    6    0  502  0.98104642337E+02 -0.42760056775E+02 -0.34202453558E+03  0.35837651464E+03  0.00000000000E+00 0.  1.
<mgrwt>
<rscale>  0 0.15908849E+04</rscale>
<asrwt>0</asrwt>
<pdfrwt beam="1">  1        1 0.69453124E+00 0.15908849E+04</pdfrwt>
<pdfrwt beam="2">  1       -1 0.21562495E-01 0.15908849E+04</pdfrwt>
<totfact> 0.55305070E-01</totfact>
</mgrwt>
</event>
<event>
12    1  0.2083715E-007  0.2072752E+04  0.7818608E-02  0.8573342E-01
          1   -1    0    0  501    0  0.00000000000E+00  0.00000000000E+00  0.13565253376E+04  0.13565253376E+04  0.00000000000E+00 0. -1.
         -1   -1    0    0    0  501 -0.00000000000E+00 -0.00000000000E+00 -0.79178408420E+03  0.79178408420E+03  0.00000000000E+00 0.  1.
         23    2    1    2    0    0 -0.25092766661E+03  0.39238660405E+03 -0.49262788003E+03  0.68389074898E+03  0.89957698107E+02 0.  0.
        254    2    1    2    0    0  0.25092766661E+03 -0.39238660405E+03  0.10573691334E+04  0.14644186728E+04  0.89975586914E+03 0.  0.
        -24    2    4    4    0    0 -0.21268020932E+03 -0.12289980436E+03  0.84296570643E+03  0.88151242770E+03  0.78330994082E+02 0.  0.
         24    2    4    4    0    0  0.46360787593E+03 -0.26948679969E+03  0.21440342697E+03  0.58290624509E+03  0.79091486485E+02 0.  0.
         11    1    3    3    0    0 -0.40283332751E+02  0.47310658038E+02 -0.28468411703E+02  0.68348341065E+02  0.00000000000E+00 0. -1.
        -11    1    3    3    0    0 -0.21064433386E+03  0.34507594601E+03 -0.46415946833E+03  0.61554240791E+03  0.00000000000E+00 0.  1.
          4    1    6    6  502    0  0.25264913702E+03 -0.12625404922E+03  0.74678601963E+02  0.29214476715E+03  0.00000000000E+00 0. -1.
          1    1    5    5  503    0 -0.73256778530E+02 -0.32350593775E+02  0.40955804408E+03  0.41731392019E+03  0.00000000000E+00 0. -1.
         -2    1    5    5    0  503 -0.13942343079E+03 -0.90549210583E+02  0.43340766235E+03  0.46419850751E+03  0.00000000000E+00 0.  1.
         -3    1    6    6    0  502  0.21095873890E+03 -0.14323275047E+03  0.13972482501E+03  0.29076147793E+03  0.00000000000E+00 0.  1.
<mgrwt>
<rscale>  0 0.20727520E+04</rscale>
<asrwt>0</asrwt>
<pdfrwt beam="1">  1        1 0.20869621E+00 0.20727520E+04</pdfrwt>
<pdfrwt beam="2">  1       -1 0.12181294E+00 0.20727520E+04</pdfrwt>
<totfact> 0.45352464E+00</totfact>
</mgrwt>
</event>
<event>
12    1  0.2083715E-007  0.1469608E+04  0.7818608E-02  0.8904918E-01
         -1   -1    0    0    0  501 -0.00000000000E+00  0.00000000000E+00  0.32539382959E+03  0.32539382959E+03  0.00000000000E+00 0. -1.
          1   -1    0    0  501    0  0.00000000000E+00 -0.00000000000E+00 -0.16593340967E+04  0.16593340967E+04  0.00000000000E+00 0.  1.
         23    2    1    2    0    0 -0.10523516176E+03 -0.35483598334E+03 -0.77565426659E+03  0.86422348708E+03  0.90882781618E+02 0.  0.
        254    2    1    2    0    0  0.10523516176E+03  0.35483598334E+03 -0.55828600047E+03  0.11205044392E+04  0.89825604675E+03 0.  0.
        -24    2    4    4    0    0  0.33270630074E+03  0.33837860535E+03  0.33142712496E+02  0.48201470825E+03  0.77757163418E+02 0.  0.
         24    2    4    4    0    0 -0.22747113898E+03  0.16457377993E+02 -0.59142871297E+03  0.63848973092E+03  0.76597973893E+02 0.  0.
         13    1    3    3    0    0 -0.80503853841E+02 -0.17052201494E+03 -0.47032798331E+03  0.50672185659E+03  0.00000000000E+00 0. -1.
        -13    1    3    3    0    0 -0.24731307920E+02 -0.18431396841E+03 -0.30532628328E+03  0.35750163049E+03  0.00000000000E+00 0.  1.
          4    1    6    6  502    0 -0.94212601827E+02  0.40219046948E+02 -0.20772502206E+03  0.23161017005E+03  0.00000000000E+00 0. -1.
          1    1    5    5  503    0  0.18607120566E+03  0.13400153653E+03  0.12938472528E+02  0.22966564706E+03  0.00000000000E+00 0. -1.
         -2    1    5    5    0  503  0.14663509508E+03  0.20437706882E+03  0.20204239969E+02  0.25234906118E+03  0.00000000000E+00 0.  1.
         -3    1    6    6    0  502 -0.13325853715E+03 -0.23761668955E+02 -0.38370369091E+03  0.40687956087E+03  0.00000000000E+00 0.  1.
<mgrwt>
<rscale>  0 0.14696082E+04</rscale>
<asrwt>0</asrwt>
<pdfrwt beam="1">  1        1 0.25528217E+00 0.14696082E+04</pdfrwt>
<pdfrwt beam="2">  1       -1 0.50060588E-01 0.14696082E+04</pdfrwt>
<totfact> 0.19732237E+01</totfact>
</mgrwt>
</event>
<event>
12    1  0.2083715E-007  0.1592431E+04  0.7818608E-02  0.8825212E-01
         -2   -1    0    0    0  501 -0.00000000000E+00  0.00000000000E+00  0.23011440452E+03  0.23011440452E+03  0.00000000000E+00 0. -1.
          2   -1    0    0  501    0  0.00000000000E+00 -0.00000000000E+00 -0.27549719369E+04  0.27549719369E+04  0.00000000000E+00 0.  1.
         23    2    1    2    0    0  0.40496561156E+03  0.17225863595E+03 -0.14400473581E+04  0.15085661298E+04  0.91461413539E+02 0.  0.
        254    2    1    2    0    0 -0.40496561156E+03 -0.17225863595E+03 -0.10848101743E+04  0.14765202116E+04  0.89979366351E+03 0.  0.
        -24    2    4    4    0    0 -0.47506759359E+03 -0.41949516376E+03 -0.10138684575E+04  0.11982938246E+04  0.79457096203E+02 0.  0.
         24    2    4    4    0    0  0.70101982023E+02  0.24723652780E+03 -0.70941716801E+02  0.27822638701E+03  0.79605318179E+02 0.  0.
         11    1    3    3    0    0  0.25142400967E+03  0.59231212414E+02 -0.86410253706E+03  0.90188445142E+03  0.00000000000E+00 0.  1.
        -11    1    3    3    0    0  0.15354160190E+03  0.11302742354E+03 -0.57594482102E+03  0.60668167835E+03  0.00000000000E+00 0. -1.
          2    1    6    6  502    0  0.82034098125E+02  0.14935410194E+03 -0.46682801442E+02  0.17667915828E+03  0.00000000000E+00 0. -1.
          1    1    5    5  503    0 -0.40627944133E+03 -0.36192390865E+03 -0.81260958367E+03  0.97795001691E+03  0.00000000000E+00 0. -1.
         -2    1    5    5    0  503 -0.68788152256E+02 -0.57571255112E+02 -0.20125887382E+03  0.22034380771E+03  0.00000000000E+00 0.  1.
         -1    1    6    6    0  502 -0.11932116102E+02  0.97882425867E+02 -0.24258915360E+02  0.10154722873E+03  0.00000000000E+00 0.  1.
<mgrwt>
<rscale>  0 0.15924305E+04</rscale>
<asrwt>0</asrwt>
<pdfrwt beam="1">  1        2 0.42384182E+00 0.15924305E+04</pdfrwt>
<pdfrwt beam="2">  1       -2 0.35402218E-01 0.15924305E+04</pdfrwt>
<totfact> 0.17772062E+01</totfact>
</mgrwt>
</event>
<event>
12    1  0.2083715E-007  0.1089943E+04  0.7818608E-02  0.9215050E-01
         -2   -1    0    0    0  501 -0.00000000000E+00  0.00000000000E+00  0.15544345787E+03  0.15544345787E+03  0.00000000000E+00 0.  1.
          2   -1    0    0  501    0  0.00000000000E+00 -0.00000000000E+00 -0.19106223524E+04  0.19106223524E+04  0.00000000000E+00 0. -1.
         23    2    1    2    0    0 -0.10264710641E+03  0.80142156610E+02 -0.48631759581E+03  0.51154025031E+03  0.90605904720E+02 0.  0.
        254    2    1    2    0    0  0.10264710641E+03 -0.80142156610E+02 -0.12688612987E+04  0.15545255600E+04  0.88858400136E+03 0.  0.
        -24    2    4    4    0    0 -0.11131289876E+03 -0.33077449484E+03 -0.15510500867E+03  0.39035781749E+03  0.80742393402E+02 0.  0.
         24    2    4    4    0    0  0.21396000516E+03  0.25063233823E+03 -0.11137562900E+04  0.11641677425E+04  0.78981049838E+02 0.  0.
         13    1    3    3    0    0 -0.10746830868E+03  0.62914225080E+02 -0.47331895092E+03  0.48942667110E+03  0.00000000000E+00 0. -1.
        -13    1    3    3    0    0  0.48212022762E+01  0.17227931530E+02 -0.12998644892E+02  0.22113579204E+02  0.00000000000E+00 0.  1.
          4    1    6    6  502    0  0.10823800390E+03  0.18210782755E+03 -0.74157528564E+03  0.77124096793E+03  0.00000000000E+00 0. -1.
          3    1    5    5  503    0 -0.11297617023E+03 -0.33222616976E+03 -0.15948563000E+03  0.38545234347E+03  0.00000000000E+00 0. -1.
         -4    1    5    5    0  503  0.16632714738E+01  0.14516749185E+01  0.43806213299E+01  0.49054740139E+01  0.00000000000E+00 0.  1.
         -3    1    6    6    0  502  0.10572200127E+03  0.68524510683E+02 -0.37218100439E+03  0.39292677453E+03  0.00000000000E+00 0.  1.
<mgrwt>
<rscale>  0 0.10899427E+04</rscale>
<asrwt>0</asrwt>
<pdfrwt beam="1">  1        2 0.29394191E+00 0.10899427E+04</pdfrwt>
<pdfrwt beam="2">  1       -2 0.23914378E-01 0.10899427E+04</pdfrwt>
<totfact> 0.11586542E+02</totfact>
</mgrwt>
</event>
<event>
12    1  0.2083715E-007  0.2305755E+04  0.7818608E-02  0.8475656E-01
          2   -1    0    0  501    0  0.00000000000E+00  0.00000000000E+00  0.24270758070E+04  0.24270758070E+04  0.00000000000E+00 0. -1.
         -2   -1    0    0    0  501 -0.00000000000E+00 -0.00000000000E+00 -0.54762451171E+03  0.54762451171E+03  0.00000000000E+00 0.  1.
         23    2    1    2    0    0  0.43596468854E+03 -0.87002057499E+03  0.93817859977E+03  0.13550522746E+04  0.94797527430E+02 0.  0.
        254    2    1    2    0    0 -0.43596468854E+03  0.87002057499E+03  0.94127269552E+03  0.16196480441E+04  0.88896821596E+03 0.  0.
        -24    2    4    4    0    0 -0.34074356155E+03 -0.17953794140E+02  0.48845982033E+02  0.35451786960E+03  0.82876271906E+02 0.  0.
         24    2    4    4    0    0 -0.95221126993E+02  0.88797436913E+03  0.89242671349E+03  0.12651301745E+04  0.81014667347E+02 0.  0.
         11    1    3    3    0    0  0.38615443946E+03 -0.76869142563E+03  0.78360089931E+03  0.11636288619E+04  0.00000000000E+00 0. -1.
        -11    1    3    3    0    0  0.49810249074E+02 -0.10132914936E+03  0.15457770046E+03  0.19142341263E+03  0.00000000000E+00 0.  1.
          2    1    6    6  502    0  0.16813135431E+01  0.22047081769E+03  0.18662697929E+03  0.28885954661E+03  0.00000000000E+00 0. -1.
          1    1    5    5  503    0 -0.15996597300E+03 -0.95400655671E+01  0.64771497075E+02  0.17284522615E+03  0.00000000000E+00 0. -1.
         -2    1    5    5    0  503 -0.18077758855E+03 -0.84137285731E+01 -0.15925515042E+02  0.18167264345E+03  0.00000000000E+00 0.  1.
         -1    1    6    6    0  502 -0.96902440536E+02  0.66750355144E+03  0.70579973419E+03  0.97627062793E+03  0.00000000000E+00 0.  1.
<mgrwt>
<rscale>  0 0.23057547E+04</rscale>
<asrwt>0</asrwt>
<pdfrwt beam="1">  1        2 0.37339627E+00 0.23057547E+04</pdfrwt>
<pdfrwt beam="2">  1       -2 0.84249926E-01 0.23057547E+04</pdfrwt>
<totfact> 0.42731132E+00</totfact>
</mgrwt>
</event>
<event>
12    1  0.2083715E-007  0.1468684E+04  0.7818608E-02  0.8905549E-01
          1   -1    0    0  501    0  0.00000000000E+00  0.00000000000E+00  0.62283335307E+03  0.62283335307E+03  0.00000000000E+00 0. -1.
         -1   -1    0    0    0  501 -0.00000000000E+00 -0.00000000000E+00 -0.86581477893E+03  0.86581477893E+03  0.00000000000E+00 0.  1.
         23    2    1    2    0    0 -0.49758302911E+01  0.39001087901E+03  0.15821003236E+03  0.42956766317E+03  0.85817936791E+02 0.  0.
        254    2    1    2    0    0  0.49758302911E+01 -0.39001087901E+03 -0.40119145822E+03  0.10590804688E+04  0.89920165073E+03 0.  0.
        -24    2    4    4    0    0  0.20875774722E+03 -0.30028778846E+03  0.19177029597E+03  0.42081283001E+03  0.80963192654E+02 0.  0.
         24    2    4    4    0    0 -0.20378191692E+03 -0.89723090545E+02 -0.59296175419E+03  0.63826763881E+03  0.78769500312E+02 0.  0.
         11    1    3    3    0    0 -0.20367997966E+01  0.16217801262E+03  0.20877958747E+02  0.16352903562E+03  0.00000000000E+00 0. -1.
        -11    1    3    3    0    0 -0.29390304945E+01  0.22783286639E+03  0.13733207361E+03  0.26603862755E+03  0.00000000000E+00 0.  1.
          2    1    6    6  502    0 -0.88096710348E+01  0.10724337698E+02 -0.16915664932E+02  0.21880617973E+02  0.00000000000E+00 0. -1.
          1    1    5    5  503    0  0.36975247156E+02 -0.18244374333E+02  0.39720111541E+02  0.57251317521E+02  0.00000000000E+00 0. -1.
         -2    1    5    5    0  503  0.17178250006E+03 -0.28204341413E+03  0.15205018443E+03  0.36356151249E+03  0.00000000000E+00 0.  1.
         -1    1    6    6    0  502 -0.19497224589E+03 -0.10044742824E+03 -0.57604608926E+03  0.61638702084E+03  0.00000000000E+00 0.  1.
<mgrwt>
<rscale>  0 0.14686842E+04</rscale>
<asrwt>0</asrwt>
<pdfrwt beam="1">  1        1 0.95820516E-01 0.14686842E+04</pdfrwt>
<pdfrwt beam="2">  1       -1 0.13320227E+00 0.14686842E+04</pdfrwt>
<totfact> 0.14999075E+01</totfact>
</mgrwt>
</event>
<event>
12    1  0.2083715E-007  0.1565366E+04  0.7818608E-02  0.8842112E-01
         -2   -1    0    0    0  501 -0.00000000000E+00  0.00000000000E+00  0.56916278352E+03  0.56916278352E+03  0.00000000000E+00 0.  1.
          2   -1    0    0  501    0  0.00000000000E+00 -0.00000000000E+00 -0.10763052648E+04  0.10763052648E+04  0.00000000000E+00 0. -1.
         23    2    1    2    0    0  0.48779005039E+03 -0.78803836698E+02 -0.19752553867E+01  0.50180794843E+03  0.87510785228E+02 0.  0.
        254    2    1    2    0    0 -0.48779005039E+03  0.78803836698E+02 -0.50516722592E+03  0.11436600999E+04  0.89923040433E+03 0.  0.
        -24    2    4    4    0    0 -0.27284213977E+03 -0.40006517564E+03 -0.19036403976E+03  0.52644523762E+03  0.80069610881E+02 0.  0.
         24    2    4    4    0    0 -0.21494791062E+03  0.47886901233E+03 -0.31480318616E+03  0.61721486230E+03  0.79592744473E+02 0.  0.
         11    1    3    3    0    0  0.14464223963E+03 -0.39649080686E+02 -0.37546601549E+02  0.15460651465E+03  0.00000000000E+00 0. -1.
        -11    1    3    3    0    0  0.34314781076E+03 -0.39154756012E+02  0.35571346163E+02  0.34720143377E+03  0.00000000000E+00 0.  1.
          4    1    6    6  502    0 -0.15681259325E+03  0.25305215953E+03 -0.17402049163E+03  0.34483143179E+03  0.00000000000E+00 0. -1.
          3    1    5    5  503    0 -0.25505635425E+03 -0.39809505529E+03 -0.18106299573E+03  0.50627781436E+03  0.00000000000E+00 0. -1.
         -4    1    5    5    0  503 -0.17785785521E+02 -0.19701203421E+01 -0.93010440329E+01  0.20167423258E+02  0.00000000000E+00 0.  1.
         -3    1    6    6    0  502 -0.58135317370E+02  0.22581685280E+03 -0.14078269453E+03  0.27238343051E+03  0.00000000000E+00 0.  1.
<mgrwt>
<rscale>  0 0.15653663E+04</rscale>
<asrwt>0</asrwt>
<pdfrwt beam="1">  1        2 0.16558542E+00 0.15653663E+04</pdfrwt>
<pdfrwt beam="2">  1       -2 0.87563506E-01 0.15653663E+04</pdfrwt>
<totfact> 0.24397595E+01</totfact>
</mgrwt>
</event>
<event>
12    1  0.2083715E-007  0.2232278E+04  0.7818608E-02  0.8505112E-01
         -1   -1    0    0    0  501 -0.00000000000E+00  0.00000000000E+00  0.27664349065E+04  0.27664349065E+04  0.00000000000E+00 0.  1.
          1   -1    0    0  501    0  0.00000000000E+00 -0.00000000000E+00 -0.45031460897E+03  0.45031460897E+03  0.00000000000E+00 0. -1.
         23    2    1    2    0    0  0.65884067027E+03  0.65838594656E+03  0.96740072782E+03  0.13459204716E+04  0.89970351804E+02 0.  0.
        254    2    1    2    0    0 -0.65884067027E+03 -0.65838594656E+03  0.13487195697E+04  0.18708290439E+04  0.90189453395E+03 0.  0.
        -24    2    4    4    0    0 -0.69488460951E+03 -0.25776849191E+03  0.42006357899E+03  0.85563697192E+03  0.79699443931E+02 0.  0.
         24    2    4    4    0    0  0.36043939244E+02 -0.40061745465E+03  0.92865599073E+03  0.10151920720E+04  0.80121678627E+02 0.  0.
         13    1    3    3    0    0  0.29442089445E+03  0.29667408889E+03  0.49888821388E+03  0.65083686747E+03  0.00000000000E+00 0.  1.
        -13    1    3    3    0    0  0.36441977581E+03  0.36171185767E+03  0.46851251394E+03  0.69508360411E+03  0.00000000000E+00 0. -1.
          4    1    6    6  502    0 -0.10989947544E+02 -0.69741144146E+01  0.41317724414E+02  0.43319413312E+02  0.00000000000E+00 0. -1.
          1    1    5    5  503    0 -0.25092405012E+02 -0.27041885030E+02  0.24161551138E+02  0.44098445422E+02  0.00000000000E+00 0. -1.
         -2    1    5    5    0  503 -0.66979220450E+03 -0.23072660688E+03  0.39590202786E+03  0.81153852650E+03  0.00000000000E+00 0.  1.
         -3    1    6    6    0  502  0.47033886788E+02 -0.39364334024E+03  0.88733826632E+03  0.97187265868E+03  0.00000000000E+00 0.  1.
<mgrwt>
<rscale>  0 0.22322778E+04</rscale>
<asrwt>0</asrwt>
<pdfrwt beam="1">  1        1 0.69279172E-01 0.22322778E+04</pdfrwt>
<pdfrwt beam="2">  1       -1 0.42560536E+00 0.22322778E+04</pdfrwt>
<totfact> 0.22192133E-01</totfact>
</mgrwt>
</event>
<event>
12    1  0.2083715E-007  0.2465351E+04  0.7818608E-02  0.8415434E-01
          1   -1    0    0  501    0  0.00000000000E+00  0.00000000000E+00  0.74060350280E+03  0.74060350280E+03  0.00000000000E+00 0. -1.
         -1   -1    0    0    0  501 -0.00000000000E+00 -0.00000000000E+00 -0.20516902936E+04  0.20516902936E+04  0.00000000000E+00 0.  1.
         23    2    1    2    0    0 -0.11953342535E+03  0.59840858565E+03 -0.15586156231E+04  0.16765812184E+04  0.96233290690E+02 0.  0.
        254    2    1    2    0    0  0.11953342535E+03 -0.59840858565E+03  0.24752883237E+03  0.11157125779E+04  0.90064585632E+03 0.  0.
        -24    2    4    4    0    0 -0.21560356566E+02 -0.48269492339E+03  0.56069493810E+03  0.74449141598E+03  0.80183644329E+02 0.  0.
         24    2    4    4    0    0  0.14109378192E+03 -0.11571366226E+03 -0.31316610573E+03  0.37122116194E+03  0.80218665924E+02 0.  0.
         13    1    3    3    0    0 -0.81202862284E+02  0.52056080589E+03 -0.12627236338E+04  0.13682282094E+04  0.00000000000E+00 0. -1.
        -13    1    3    3    0    0 -0.38330563067E+02  0.77847779753E+02 -0.29589198930E+03  0.30835300908E+03  0.00000000000E+00 0.  1.
          4    1    6    6  502    0  0.14885325355E+03 -0.99271762978E+02 -0.29780815364E+03  0.34742174715E+03  0.00000000000E+00 0. -1.
          3    1    5    5  503    0 -0.35700239725E+02 -0.37389316067E+03  0.47330097976E+03  0.60422216125E+03  0.00000000000E+00 0. -1.
         -4    1    5    5    0  503  0.14139883159E+02 -0.10880176272E+03  0.87393958340E+02  0.14026925473E+03  0.00000000000E+00 0.  1.
         -3    1    6    6    0  502 -0.77594716286E+01 -0.16441899281E+02 -0.15357952085E+02  0.23799414786E+02  0.00000000000E+00 0.  1.
<mgrwt>
<rscale>  0 0.24653511E+04</rscale>
<asrwt>0</asrwt>
<pdfrwt beam="1">  1        1 0.11393900E+00 0.24653511E+04</pdfrwt>
<pdfrwt beam="2">  1       -1 0.31564465E+00 0.24653511E+04</pdfrwt>
<totfact> 0.58170914E-01</totfact>
</mgrwt>
</event>
<event>
12    1  0.2083715E-007  0.1438989E+04  0.7818608E-02  0.8926070E-01
         -2   -1    0    0    0  501 -0.00000000000E+00  0.00000000000E+00  0.22413130484E+03  0.22413130484E+03  0.00000000000E+00 0.  1.
          2   -1    0    0  501    0  0.00000000000E+00 -0.00000000000E+00 -0.23096840060E+04  0.23096840060E+04  0.00000000000E+00 0. -1.
         23    2    1    2    0    0  0.39191233917E+03 -0.17631438355E+03 -0.59407089313E+03  0.73908034633E+03  0.92938091375E+02 0.  0.
        254    2    1    2    0    0 -0.39191233917E+03  0.17631438355E+03 -0.14914818081E+04  0.17947349645E+04  0.90104026865E+03 0.  0.
        -24    2    4    4    0    0 -0.18035037276E+03 -0.33273000530E+03 -0.33404634637E+03  0.51023176204E+03  0.74256151858E+02 0.  0.
         24    2    4    4    0    0 -0.21156196641E+03  0.50904438885E+03 -0.11574354617E+04  0.12845032025E+04  0.80043574394E+02 0.  0.
         11    1    3    3    0    0  0.29045511484E+03 -0.17319800268E+03 -0.45785976380E+03  0.56920759410E+03  0.00000000000E+00 0. -1.
        -11    1    3    3    0    0  0.10145722433E+03 -0.31163808662E+01 -0.13621112933E+03  0.16987275223E+03  0.00000000000E+00 0.  1.
          4    1    6    6  502    0 -0.16742381702E+03  0.45625353654E+03 -0.97241852859E+03  0.10871043275E+04  0.00000000000E+00 0. -1.
          1    1    5    5  503    0 -0.16737454965E+03 -0.24338375613E+03 -0.25781009561E+03  0.39206624188E+03  0.00000000000E+00 0. -1.
         -2    1    5    5    0  503 -0.12975823111E+02 -0.89346249169E+02 -0.76236250756E+02  0.11816552016E+03  0.00000000000E+00 0.  1.
         -3    1    6    6    0  502 -0.44138149394E+02  0.52790852306E+02 -0.18501693311E+03  0.19739887501E+03  0.00000000000E+00 0.  1.
<mgrwt>
<rscale>  0 0.14389892E+04</rscale>
<asrwt>0</asrwt>
<pdfrwt beam="1">  1        2 0.35533605E+00 0.14389892E+04</pdfrwt>
<pdfrwt beam="2">  1       -2 0.34481735E-01 0.14389892E+04</pdfrwt>
<totfact> 0.34315724E+01</totfact>
</mgrwt>
</event>
<event>
12    1  0.2083715E-007  0.4596671E+04  0.7818608E-02  0.7893928E-01
         -2   -1    0    0    0  501 -0.00000000000E+00  0.00000000000E+00  0.18471928810E+04  0.18471928810E+04  0.00000000000E+00 0.  1.
          2   -1    0    0  501    0  0.00000000000E+00 -0.00000000000E+00 -0.28596613831E+04  0.28596613831E+04  0.00000000000E+00 0. -1.
         23    2    1    2    0    0  0.15300516166E+04 -0.15925938383E+04 -0.34033804481E+03  0.22364820200E+04  0.92783392258E+02 0.  0.
        254    2    1    2    0    0 -0.15300516166E+04  0.15925938383E+04 -0.67213045731E+03  0.24703722441E+04  0.87952634383E+03 0.  0.
        -24    2    4    4    0    0 -0.53725059280E+03  0.90590114267E+03 -0.68737455979E+03  0.12604974001E+04  0.84112011882E+02 0.  0.
         24    2    4    4    0    0 -0.99280102377E+03  0.68669269564E+03  0.15244102475E+02  0.12098748439E+04  0.79774835104E+02 0.  0.
         11    1    3    3    0    0  0.41833916906E+03 -0.39604404295E+03 -0.11941718702E+03  0.58831879868E+03  0.00000000000E+00 0. -1.
        -11    1    3    3    0    0  0.11117124475E+04 -0.11965497954E+04 -0.22092085778E+03  0.16481632213E+04  0.00000000000E+00 0.  1.
          2    1    6    6  502    0 -0.27241317945E+03  0.21452718152E+03 -0.24629748840E+02  0.34761685299E+03  0.00000000000E+00 0. -1.
          3    1    5    5  503    0 -0.41132773086E+02  0.53122917845E+02 -0.68035111588E+02  0.95617602098E+02  0.00000000000E+00 0. -1.
         -4    1    5    5    0  503 -0.49611781972E+03  0.85277822482E+03 -0.61933944820E+03  0.11648797980E+04  0.00000000000E+00 0.  1.
         -1    1    6    6    0  502 -0.72038784432E+03  0.47216551412E+03  0.39873851315E+02  0.86225799096E+03  0.00000000000E+00 0.  1.
<mgrwt>
<rscale>  0 0.45966710E+04</rscale>
<asrwt>0</asrwt>
<pdfrwt beam="1">  1        2 0.43994791E+00 0.45966710E+04</pdfrwt>
<pdfrwt beam="2">  1       -2 0.28418352E+00 0.45966710E+04</pdfrwt>
<totfact> 0.63479077E-02</totfact>
</mgrwt>
</event>
<event>
12    1  0.2083715E-007  0.1933928E+04  0.7818608E-02  0.8638150E-01
          2   -1    0    0  501    0  0.00000000000E+00  0.00000000000E+00  0.24018781848E+04  0.24018781848E+04  0.00000000000E+00 0. -1.
         -2   -1    0    0    0  501 -0.00000000000E+00 -0.00000000000E+00 -0.38928667393E+03  0.38928667393E+03  0.00000000000E+00 0.  1.
         23    2    1    2    0    0 -0.19034488020E+03  0.62378364313E+03  0.13385073852E+04  0.14915733434E+04  0.88610448506E+02 0.  0.
        254    2    1    2    0    0  0.19034488020E+03 -0.62378364313E+03  0.67408412568E+03  0.12995915154E+04  0.89956183304E+03 0.  0.
        -24    2    4    4    0    0  0.28440132864E+03  0.12061147022E+03  0.54998003312E+02  0.32346933593E+03  0.78590002174E+02 0.  0.
         24    2    4    4    0    0 -0.94056448432E+02 -0.74439511335E+03  0.61908612237E+03  0.97612217943E+03  0.81093661919E+02 0.  0.
         11    1    3    3    0    0 -0.31257831681E+02  0.29569716491E+02  0.86725524685E+02  0.96812895870E+02  0.00000000000E+00 0. -1.
        -11    1    3    3    0    0 -0.15908704852E+03  0.59421392664E+03  0.12517818605E+04  0.13947604475E+04  0.00000000000E+00 0.  1.
          4    1    6    6  502    0 -0.40885190195E+02 -0.14140957776E+03  0.92875045868E+02  0.17405183597E+03  0.00000000000E+00 0. -1.
          3    1    5    5  503    0  0.17761950063E+03  0.89852738104E+02  0.70712081824E+02  0.21124014785E+03  0.00000000000E+00 0. -1.
         -4    1    5    5    0  503  0.10678182801E+03  0.30758732119E+02 -0.15714078511E+02  0.11222918808E+03  0.00000000000E+00 0.  1.
         -3    1    6    6    0  502 -0.53171258238E+02 -0.60298553559E+03  0.52621107650E+03  0.80207034346E+03  0.00000000000E+00 0.  1.
<mgrwt>
<rscale>  0 0.19339278E+04</rscale>
<asrwt>0</asrwt>
<pdfrwt beam="1">  1        2 0.36951971E+00 0.19339278E+04</pdfrwt>
<pdfrwt beam="2">  1       -2 0.59890259E-01 0.19339278E+04</pdfrwt>
<totfact> 0.96349374E+00</totfact>
</mgrwt>
</event>
<event>
12    1  0.2083715E-007  0.2208291E+04  0.7818608E-02  0.8514985E-01
          2   -1    0    0  501    0  0.00000000000E+00  0.00000000000E+00  0.11019690961E+04  0.11019690961E+04  0.00000000000E+00 0. -1.
         -2   -1    0    0    0  501 -0.00000000000E+00 -0.00000000000E+00 -0.11063257939E+04  0.11063257939E+04  0.00000000000E+00 0.  1.
         23    2    1    2    0    0 -0.34644938581E+03 -0.55743408675E+03 -0.64371625879E+03  0.92409482253E+03  0.93918481599E+02 0.  0.
        254    2    1    2    0    0  0.34644938581E+03  0.55743408675E+03  0.63935956094E+03  0.12842000674E+04  0.89979399143E+03 0.  0.
        -24    2    4    4    0    0  0.54986189360E+02 -0.23443657467E+03  0.23381628018E+03  0.34454345830E+03  0.77821290252E+02 0.  0.
         24    2    4    4    0    0  0.29146319645E+03  0.79187066142E+03  0.40554328076E+03  0.93965660913E+03  0.80493796112E+02 0.  0.
         13    1    3    3    0    0 -0.34882270455E+03 -0.55794161544E+03 -0.63280696335E+03  0.91291882351E+03  0.00000000000E+00 0.  1.
        -13    1    3    3    0    0  0.23733187371E+01  0.50752868113E+00 -0.10909295437E+02  0.11175999021E+02  0.00000000000E+00 0. -1.
          4    1    6    6  502    0  0.77449164066E+02  0.17049842666E+03  0.12460156399E+03  0.22493029199E+03  0.00000000000E+00 0. -1.
          3    1    5    5  503    0 -0.32523431482E+00 -0.81771713172E+01 -0.60640428266E+01  0.10185505560E+02  0.00000000000E+00 0. -1.
         -4    1    5    5    0  503  0.55311423675E+02 -0.22625940335E+03  0.23988032300E+03  0.33435795274E+03  0.00000000000E+00 0.  1.
         -3    1    6    6    0  502  0.21401403238E+03  0.62137223476E+03  0.28094171678E+03  0.71472631714E+03  0.00000000000E+00 0.  1.
<mgrwt>
<rscale>  0 0.22082906E+04</rscale>
<asrwt>0</asrwt>
<pdfrwt beam="1">  1        2 0.16953371E+00 0.22082906E+04</pdfrwt>
<pdfrwt beam="2">  1       -2 0.17020397E+00 0.22082906E+04</pdfrwt>
<totfact> 0.42150960E+00</totfact>
</mgrwt>
</event>
<event>
12    1  0.2083715E-007  0.2650374E+04  0.7818608E-02  0.8351289E-01
          2   -1    0    0  501    0  0.00000000000E+00  0.00000000000E+00  0.26577442245E+04  0.26577442245E+04  0.00000000000E+00 0. -1.
         -2   -1    0    0    0  501 -0.00000000000E+00 -0.00000000000E+00 -0.66075588488E+03  0.66075588488E+03  0.00000000000E+00 0.  1.
         23    2    1    2    0    0  0.86495555424E+03 -0.30636778624E+03  0.17949319451E+04  0.20177978412E+04  0.87852771468E+02 0.  0.
        254    2    1    2    0    0 -0.86495555424E+03  0.30636778624E+03  0.20205639456E+03  0.13007022681E+04  0.89943886534E+03 0.  0.
        -24    2    4    4    0    0 -0.82886130310E+03 -0.12297326008E+03  0.76997628232E+02  0.84519778505E+03  0.79354764448E+02 0.  0.
         24    2    4    4    0    0 -0.36094251148E+02  0.42934104633E+03  0.12505876633E+03  0.45550448308E+03  0.78791560721E+02 0.  0.
         13    1    3    3    0    0  0.70275672957E+03 -0.27204801145E+03  0.14117012570E+04  0.16002429755E+04  0.00000000000E+00 0. -1.
        -13    1    3    3    0    0  0.16219882467E+03 -0.34319774796E+02  0.38323068806E+03  0.41755486578E+03  0.00000000000E+00 0.  1.
          2    1    6    6  502    0  0.61984574305E+01  0.31455181005E+03  0.10411011766E+03  0.33139127732E+03  0.00000000000E+00 0. -1.
          3    1    5    5  503    0 -0.58181642727E+03 -0.49589724555E+02  0.57387410260E+02  0.58673913342E+03  0.00000000000E+00 0. -1.
         -4    1    5    5    0  503 -0.24704487582E+03 -0.73383535529E+02  0.19610217972E+02  0.25845865164E+03  0.00000000000E+00 0.  1.
         -1    1    6    6    0  502 -0.42292708578E+02  0.11478923627E+03  0.20948648669E+02  0.12411320576E+03  0.00000000000E+00 0.  1.
<mgrwt>
<rscale>  0 0.26503737E+04</rscale>
<asrwt>0</asrwt>
<pdfrwt beam="1">  1        2 0.40888372E+00 0.26503737E+04</pdfrwt>
<pdfrwt beam="2">  1       -2 0.10165475E+00 0.26503737E+04</pdfrwt>
<totfact> 0.19682387E+00</totfact>
</mgrwt>
</event>
<event>
12    1  0.2083715E-007  0.2368823E+04  0.7818608E-02  0.8451269E-01
         -2   -1    0    0    0  501 -0.00000000000E+00  0.00000000000E+00  0.77440010680E+03  0.77440010680E+03  0.00000000000E+00 0.  1.
          2   -1    0    0  501    0  0.00000000000E+00 -0.00000000000E+00 -0.18115060330E+04  0.18115060330E+04  0.00000000000E+00 0. -1.
         23    2    1    2    0    0  0.10489838871E+03  0.14920422404E+03  0.64112079953E+03  0.67280081016E+03  0.91430181780E+02 0.  0.
        254    2    1    2    0    0 -0.10489838871E+03 -0.14920422404E+03 -0.16782267257E+04  0.19131053296E+04  0.90014525880E+03 0.  0.
        -24    2    4    4    0    0 -0.48687961707E+03 -0.16369149224E+03 -0.83143623487E+03  0.98063800635E+03  0.80734259682E+02 0.  0.
         24    2    4    4    0    0  0.38198122837E+03  0.14487268197E+02 -0.84679049084E+03  0.93246732328E+03  0.79508702935E+02 0.  0.
         11    1    3    3    0    0 -0.43103309267E+01  0.11739960056E+02  0.60185139667E+01  0.13879053469E+02  0.00000000000E+00 0. -1.
        -11    1    3    3    0    0  0.10920871963E+03  0.13746426399E+03  0.63510228556E+03  0.65892175669E+03  0.00000000000E+00 0.  1.
          2    1    6    6  502    0  0.36593023423E+03  0.23059457079E+02 -0.76042194026E+03  0.84420270203E+03  0.00000000000E+00 0. -1.
          1    1    5    5  503    0 -0.42067936796E+03 -0.11100453131E+03 -0.68387714985E+03  0.81054370190E+03  0.00000000000E+00 0. -1.
         -2    1    5    5    0  503 -0.66200249118E+02 -0.52686960933E+02 -0.14755908502E+03  0.17009430445E+03  0.00000000000E+00 0.  1.
         -1    1    6    6    0  502  0.16050994134E+02 -0.85721888824E+01 -0.86368550585E+02  0.88264621254E+02  0.00000000000E+00 0.  1.
<mgrwt>
<rscale>  0 0.23688229E+04</rscale>
<asrwt>0</asrwt>
<pdfrwt beam="1">  1        2 0.27869323E+00 0.23688229E+04</pdfrwt>
<pdfrwt beam="2">  1       -2 0.11913848E+00 0.23688229E+04</pdfrwt>
<totfact> 0.41442820E+00</totfact>
</mgrwt>
</event>
<event>
12    1  0.2083715E-007  0.1321034E+04  0.7818608E-02  0.9013049E-01
         -2   -1    0    0    0  501 -0.00000000000E+00  0.00000000000E+00  0.62836654182E+03  0.62836654182E+03  0.00000000000E+00 0.  1.
          2   -1    0    0  501    0  0.00000000000E+00 -0.00000000000E+00 -0.69431256610E+03  0.69431256610E+03  0.00000000000E+00 0. -1.
         23    2    1    2    0    0  0.66274121699E+01  0.31363311705E+03 -0.16118869953E+03  0.36386328802E+03  0.89470893659E+02 0.  0.
        254    2    1    2    0    0 -0.66274121699E+01 -0.31363311705E+03  0.95242675259E+02  0.95881581990E+03  0.90102550164E+03 0.  0.
        -24    2    4    4    0    0  0.12365048208E+03  0.15205233420E+03 -0.27351388744E+03  0.34561235531E+03  0.78922110138E+02 0.  0.
         24    2    4    4    0    0 -0.13027789425E+03 -0.46568545125E+03  0.36875656270E+03  0.61320346459E+03  0.78751617196E+02 0.  0.
         13    1    3    3    0    0  0.39424018951E+02  0.13380765277E+03 -0.97919150807E+02  0.17043151500E+03  0.00000000000E+00 0. -1.
        -13    1    3    3    0    0 -0.32796606781E+02  0.17982546428E+03 -0.63269548727E+02  0.19343177302E+03  0.00000000000E+00 0.  1.
          4    1    6    6  502    0 -0.44902653594E+02 -0.17474894707E+03  0.18623483273E+03  0.25930070521E+03  0.00000000000E+00 0. -1.
          3    1    5    5  503    0  0.12137688602E+03  0.11484480373E+03 -0.18347906441E+03  0.24816576009E+03  0.00000000000E+00 0. -1.
         -4    1    5    5    0  503  0.22735960558E+01  0.37207530473E+02 -0.90034823028E+02  0.97446595223E+02  0.00000000000E+00 0.  1.
         -3    1    6    6    0  502 -0.85375240652E+02 -0.29093650418E+03  0.18252172997E+03  0.35390275937E+03  0.00000000000E+00 0.  1.
<mgrwt>
<rscale>  0 0.13210341E+04</rscale>
<asrwt>0</asrwt>
<pdfrwt beam="1">  1        2 0.10681732E+00 0.13210341E+04</pdfrwt>
<pdfrwt beam="2">  1       -2 0.96671776E-01 0.13210341E+04</pdfrwt>
<totfact> 0.36261738E+01</totfact>
</mgrwt>
</event>
<event>
12    1  0.2083715E-007  0.1188043E+04  0.7818608E-02  0.9123388E-01
          1   -1    0    0  501    0  0.00000000000E+00  0.00000000000E+00  0.20321933041E+04  0.20321933041E+04  0.00000000000E+00 0. -1.
         -1   -1    0    0    0  501 -0.00000000000E+00 -0.00000000000E+00 -0.17363575178E+03  0.17363575178E+03  0.00000000000E+00 0.  1.
         23    2    1    2    0    0  0.58289268073E+02  0.22277928659E+03  0.52186012416E+03  0.57818768652E+03  0.94523871861E+02 0.  0.
        254    2    1    2    0    0 -0.58289268073E+02 -0.22277928659E+03  0.13366974282E+04  0.16276413694E+04  0.89968225698E+03 0.  0.
        -24    2    4    4    0    0 -0.43715823071E+03 -0.28856055048E+03  0.85825112464E+03  0.10085729216E+04  0.79055899454E+02 0.  0.
         24    2    4    4    0    0  0.37886896263E+03  0.65781263896E+02  0.47844630355E+03  0.61906844781E+03  0.80411517623E+02 0.  0.
         13    1    3    3    0    0  0.17174111985E+02  0.43656366015E+02  0.21867339310E+03  0.22364901356E+03  0.00000000000E+00 0. -1.
        -13    1    3    3    0    0  0.41115156088E+02  0.17912292057E+03  0.30318673106E+03  0.35453867296E+03  0.00000000000E+00 0.  1.
          2    1    6    6  502    0  0.64561884998E+01  0.60376470970E+01  0.38836944225E+02  0.39830186908E+02  0.00000000000E+00 0. -1.
          3    1    5    5  503    0 -0.33953015357E+02 -0.57269151962E+01  0.34027554898E+02  0.48409495988E+02  0.00000000000E+00 0. -1.
         -4    1    5    5    0  503 -0.40320521535E+03 -0.28283363529E+03  0.82422356974E+03  0.96016342560E+03  0.00000000000E+00 0.  1.
         -1    1    6    6    0  502  0.37241277413E+03  0.59743616799E+02  0.43960935932E+03  0.57923826090E+03  0.00000000000E+00 0.  1.
<mgrwt>
<rscale>  0 0.11880428E+04</rscale>
<asrwt>0</asrwt>
<pdfrwt beam="1">  1        1 0.31264511E+00 0.11880428E+04</pdfrwt>
<pdfrwt beam="2">  1       -1 0.26713194E-01 0.11880428E+04</pdfrwt>
<totfact> 0.35148206E+01</totfact>
</mgrwt>
</event>
<event>
12    1  0.2083715E-007  0.1571884E+04  0.7818608E-02  0.8838010E-01
          2   -1    0    0  501    0  0.00000000000E+00  0.00000000000E+00  0.65015447452E+03  0.65015447452E+03  0.00000000000E+00 0. -1.
         -2   -1    0    0    0  501 -0.00000000000E+00 -0.00000000000E+00 -0.95008883692E+03  0.95008883692E+03  0.00000000000E+00 0.  1.
         23    2    1    2    0    0 -0.42799241040E+03  0.74400999158E+02  0.19558438712E+03  0.48469060613E+03  0.89211653663E+02 0.  0.
        254    2    1    2    0    0  0.42799241040E+03 -0.74400999158E+02 -0.49551874953E+03  0.11155527053E+04  0.90011443448E+03 0.  0.
        -24    2    4    4    0    0  0.15162104030E+03  0.24709805204E+03 -0.60026744150E+03  0.67137997698E+03  0.79897966029E+02 0.  0.
         24    2    4    4    0    0  0.27637137009E+03 -0.32149905120E+03  0.10474869198E+03  0.44417272833E+03  0.81082365499E+02 0.  0.
         11    1    3    3    0    0 -0.36828382838E+03  0.30862379481E+02  0.16209808794E+03  0.40356072013E+03  0.00000000000E+00 0.  1.
        -11    1    3    3    0    0 -0.59708582012E+02  0.43538619677E+02  0.33486299183E+02  0.81129885999E+02  0.00000000000E+00 0. -1.
          2    1    6    6  502    0  0.79797590767E+02 -0.95106097482E+02 -0.66383267844E+01  0.12432575217E+03  0.00000000000E+00 0. -1.
          1    1    5    5  503    0  0.19895160889E+01  0.10779499286E+02 -0.22610060078E+01  0.11192315547E+02  0.00000000000E+00 0. -1.
         -2    1    5    5    0  503  0.14963152421E+03  0.23631855275E+03 -0.59800643549E+03  0.66018766143E+03  0.00000000000E+00 0.  1.
         -1    1    6    6    0  502  0.19657377933E+03 -0.22639295371E+03  0.11138701876E+03  0.31984697616E+03  0.00000000000E+00 0.  1.
<mgrwt>
<rscale>  0 0.15718836E+04</rscale>
<asrwt>0</asrwt>
<pdfrwt beam="1">  1        2 0.10002377E+00 0.15718836E+04</pdfrwt>
<pdfrwt beam="2">  1       -2 0.14616751E+00 0.15718836E+04</pdfrwt>
<totfact> 0.13850462E+01</totfact>
</mgrwt>
</event>
<event>
12    1  0.2083715E-007  0.1663654E+04  0.7818608E-02  0.8782370E-01
         -1   -1    0    0    0  501 -0.00000000000E+00  0.00000000000E+00  0.66884209983E+03  0.66884209983E+03  0.00000000000E+00 0.  1.
          1   -1    0    0  501    0  0.00000000000E+00 -0.00000000000E+00 -0.10345281916E+04  0.10345281916E+04  0.00000000000E+00 0. -1.
         23    2    1    2    0    0  0.17500037674E+03  0.38963891173E+03 -0.53805223414E+03  0.69322883936E+03  0.92856898873E+02 0.  0.
        254    2    1    2    0    0 -0.17500037674E+03 -0.38963891173E+03  0.17236614240E+03  0.10101414520E+04  0.89901727052E+03 0.  0.
        -24    2    4    4    0    0  0.28583267139E+03  0.90485673028E+02  0.13586834898E+03  0.33886258437E+03  0.80496396037E+02 0.  0.
         24    2    4    4    0    0 -0.46083304813E+03 -0.48012458476E+03  0.36497793420E+02  0.67127886767E+03  0.79978210237E+02 0.  0.
         11    1    3    3    0    0  0.15224936664E+03  0.23615737565E+03 -0.36841365938E+03  0.46333443659E+03  0.00000000000E+00 0. -1.
        -11    1    3    3    0    0  0.22751010100E+02  0.15348153608E+03 -0.16963857477E+03  0.22989440277E+03  0.00000000000E+00 0.  1.
          2    1    6    6  502    0 -0.18471214716E+03 -0.22870339455E+03 -0.14709763454E+02  0.29434706917E+03  0.00000000000E+00 0. -1.
          3    1    5    5  503    0  0.23731664388E+03  0.10139639863E+03  0.96816053449E+02  0.27563339298E+03  0.00000000000E+00 0. -1.
         -4    1    5    5    0  503  0.48516027510E+02 -0.10910725601E+02  0.39052295527E+02  0.63229191394E+02  0.00000000000E+00 0.  1.
         -1    1    6    6    0  502 -0.27612090097E+03 -0.25142119021E+03  0.51207556874E+02  0.37693179850E+03  0.00000000000E+00 0.  1.
<mgrwt>
<rscale>  0 0.16636538E+04</rscale>
<asrwt>0</asrwt>
<pdfrwt beam="1">  1        1 0.15915818E+00 0.16636538E+04</pdfrwt>
<pdfrwt beam="2">  1       -1 0.10289879E+00 0.16636538E+04</pdfrwt>
<totfact> 0.12117569E+01</totfact>
</mgrwt>
</event>
<event>
12    1  0.2083715E-007  0.2539001E+04  0.7818608E-02  0.8389221E-01
         -2   -1    0    0    0  501 -0.00000000000E+00  0.00000000000E+00  0.81219899046E+03  0.81219899046E+03  0.00000000000E+00 0.  1.
          2   -1    0    0  501    0  0.00000000000E+00 -0.00000000000E+00 -0.19842819147E+04  0.19842819147E+04  0.00000000000E+00 0. -1.
         23    2    1    2    0    0  0.10597835709E+04 -0.16913998400E+03 -0.81653253631E+03  0.13516546504E+04  0.92170276447E+02 0.  0.
        254    2    1    2    0    0 -0.10597835709E+04  0.16913998400E+03 -0.35555038791E+03  0.14448262547E+04  0.89964286064E+03 0.  0.
        -24    2    4    4    0    0 -0.10321704433E+03  0.28347505604E+03  0.15777525965E+03  0.35017918268E+03  0.81979032641E+02 0.  0.
         24    2    4    4    0    0 -0.95656652654E+03 -0.11433507203E+03 -0.51332564756E+03  0.10946470720E+04  0.81590216880E+02 0.  0.
         11    1    3    3    0    0  0.49980302810E+03 -0.12620513911E+03 -0.38559827943E+03  0.64375215505E+03  0.00000000000E+00 0. -1.
        -11    1    3    3    0    0  0.55998054277E+03 -0.42934844893E+02 -0.43093425688E+03  0.70790249536E+03  0.00000000000E+00 0.  1.
          4    1    6    6  502    0 -0.84747686768E+03 -0.90587309907E+02 -0.47981092493E+03  0.97808058239E+03  0.00000000000E+00 0. -1.
          1    1    5    5  503    0 -0.54540221487E+02  0.16251805698E+03  0.13413990986E+03  0.21767009446E+03  0.00000000000E+00 0. -1.
         -2    1    5    5    0  503 -0.48676822848E+02  0.12095699906E+03  0.23635349791E+02  0.13250908823E+03  0.00000000000E+00 0.  1.
         -3    1    6    6    0  502 -0.10908965886E+03 -0.23747762126E+02 -0.33514722631E+02  0.11656648965E+03  0.00000000000E+00 0.  1.
<mgrwt>
<rscale>  0 0.25390012E+04</rscale>
<asrwt>0</asrwt>
<pdfrwt beam="1">  1        2 0.30527414E+00 0.25390012E+04</pdfrwt>
<pdfrwt beam="2">  1       -2 0.12495369E+00 0.25390012E+04</pdfrwt>
<totfact> 0.29087059E+00</totfact>
</mgrwt>
</event>
<event>
12    1  0.2083715E-007  0.3791262E+04  0.7818608E-02  0.8048033E-01
         -1   -1    0    0    0  501 -0.00000000000E+00  0.00000000000E+00  0.15327372967E+04  0.15327372967E+04  0.00000000000E+00 0.  1.
          1   -1    0    0  501    0  0.00000000000E+00 -0.00000000000E+00 -0.23444441958E+04  0.23444441958E+04  0.00000000000E+00 0. -1.
         23    2    1    2    0    0 -0.75673972818E+03 -0.64699084404E+03 -0.19015526629E+04  0.21484238508E+04  0.92576154169E+02 0.  0.
        254    2    1    2    0    0  0.75673972818E+03  0.64699084404E+03  0.10898457638E+04  0.17287576417E+04  0.89977054094E+03 0.  0.
        -24    2    4    4    0    0  0.76084579415E+02  0.33588567157E+03 -0.55121813236E+02  0.35854887946E+03  0.83131444605E+02 0.  0.
         24    2    4    4    0    0  0.68065514877E+03  0.31110517247E+03  0.11449675771E+04  0.13702087623E+04  0.80271039028E+02 0.  0.
         11    1    3    3    0    0 -0.62385377559E+03 -0.57669791337E+03 -0.16129482046E+04  0.18230128709E+04  0.00000000000E+00 0. -1.
        -11    1    3    3    0    0 -0.13288595260E+03 -0.70292930672E+02 -0.28860445829E+03  0.32541097991E+03  0.00000000000E+00 0.  1.
          2    1    6    6  502    0  0.26472752209E+03  0.12578212507E+03  0.52067256494E+03  0.59749621239E+03  0.00000000000E+00 0. -1.
          1    1    5    5  503    0  0.79247533618E+02  0.20768264585E+03 -0.59899992882E+02  0.23021785795E+03  0.00000000000E+00 0. -1.
         -2    1    5    5    0  503 -0.31629542031E+01  0.12820302571E+03  0.47781796464E+01  0.12833102151E+03  0.00000000000E+00 0.  1.
         -1    1    6    6    0  502  0.41592762668E+03  0.18532304741E+03  0.62429501214E+03  0.77271254987E+03  0.00000000000E+00 0.  1.
<mgrwt>
<rscale>  0 0.37912621E+04</rscale>
<asrwt>0</asrwt>
<pdfrwt beam="1">  1        1 0.36068372E+00 0.37912621E+04</pdfrwt>
<pdfrwt beam="2">  1       -1 0.23580574E+00 0.37912621E+04</pdfrwt>
<totfact> 0.11936026E-01</totfact>
</mgrwt>
</event>
<event>
12    1  0.2083715E-007  0.2220916E+04  0.7818608E-02  0.8509772E-01
         -1   -1    0    0    0  501 -0.00000000000E+00  0.00000000000E+00  0.63647119818E+03  0.63647119818E+03  0.00000000000E+00 0.  1.
          1   -1    0    0  501    0  0.00000000000E+00 -0.00000000000E+00 -0.19374282771E+04  0.19374282771E+04  0.00000000000E+00 0. -1.
         23    2    1    2    0    0  0.59241449652E+03 -0.30272734562E+02  0.27863547342E+03  0.66171980314E+03  0.91454888761E+02 0.  0.
        254    2    1    2    0    0 -0.59241449652E+03  0.30272734562E+02 -0.15795925524E+04  0.19121796722E+04  0.89969277700E+03 0.  0.
        -24    2    4    4    0    0 -0.11629575925E+03  0.39914903149E+03 -0.93501664433E+03  0.10264687382E+04  0.80853524112E+02 0.  0.
         24    2    4    4    0    0 -0.47611873727E+03 -0.36887629692E+03 -0.64457590806E+03  0.88571093398E+03  0.79037857520E+02 0.  0.
         13    1    3    3    0    0  0.57275929504E+03 -0.45947810801E+02  0.26156999083E+03  0.63133451630E+03  0.00000000000E+00 0.  1.
        -13    1    3    3    0    0  0.19655201480E+02  0.15675076239E+02  0.17065482594E+02  0.30385286842E+02  0.00000000000E+00 0. -1.
          4    1    6    6  502    0 -0.18165238030E+03 -0.17140633110E+03 -0.22258173985E+03  0.33454498729E+03  0.00000000000E+00 0. -1.
          3    1    5    5  503    0 -0.11160377997E+03  0.31069855170E+03 -0.79456598545E+03  0.86042088478E+03  0.00000000000E+00 0. -1.
         -4    1    5    5    0  503 -0.46919792777E+01  0.88450479784E+02 -0.14045065889E+03  0.16604785342E+03  0.00000000000E+00 0.  1.
         -3    1    6    6    0  502 -0.29446635696E+03 -0.19746996583E+03 -0.42199416821E+03  0.55116594669E+03  0.00000000000E+00 0.  1.
<mgrwt>
<rscale>  0 0.22209163E+04</rscale>
<asrwt>0</asrwt>
<pdfrwt beam="1">  1        1 0.29806589E+00 0.22209163E+04</pdfrwt>
<pdfrwt beam="2">  1       -1 0.97918646E-01 0.22209163E+04</pdfrwt>
<totfact> 0.29899650E+00</totfact>
</mgrwt>
</event>
<event>
12    1  0.2083715E-007  0.1551959E+04  0.7818608E-02  0.8850618E-01
         -2   -1    0    0    0  501 -0.00000000000E+00  0.00000000000E+00  0.59010845579E+03  0.59010845579E+03  0.00000000000E+00 0.  1.
          2   -1    0    0  501    0  0.00000000000E+00 -0.00000000000E+00 -0.10203952146E+04  0.10203952146E+04  0.00000000000E+00 0. -1.
         23    2    1    2    0    0 -0.21475320038E+03 -0.31840436771E+03  0.20394483756E+03  0.44488233908E+03  0.93949563106E+02 0.  0.
        254    2    1    2    0    0  0.21475320038E+03  0.31840436771E+03 -0.63423159641E+03  0.11656213313E+04  0.89940151864E+03 0.  0.
        -24    2    4    4    0    0  0.10009257792E+03 -0.30934953928E+03 -0.20773359790E+03  0.39398636154E+03  0.79726681705E+02 0.  0.
         24    2    4    4    0    0  0.11466062246E+03  0.62775390699E+03 -0.42649799850E+03  0.77163496980E+03  0.79359673649E+02 0.  0.
         11    1    3    3    0    0 -0.32928502366E+02 -0.10214325416E+03  0.24203617425E+02  0.11001520684E+03  0.00000000000E+00 0. -1.
        -11    1    3    3    0    0 -0.18182469801E+03 -0.21626111355E+03  0.17974122014E+03  0.33486713224E+03  0.00000000000E+00 0.  1.
          4    1    6    6  502    0  0.57772181409E+02  0.20196835109E+03 -0.17818279802E+03  0.27545952388E+03  0.00000000000E+00 0. -1.
          1    1    5    5  503    0  0.18805748185E+02 -0.18659411582E+03 -0.11554954114E+03  0.22027872498E+03  0.00000000000E+00 0. -1.
         -2    1    5    5    0  503  0.81286829730E+02 -0.12275542346E+03 -0.92184056760E+02  0.17370763656E+03  0.00000000000E+00 0.  1.
         -3    1    6    6    0  502  0.56888441055E+02  0.42578555590E+03 -0.24831520048E+03  0.49617544592E+03  0.00000000000E+00 0.  1.
<mgrwt>
<rscale>  0 0.15519586E+04</rscale>
<asrwt>0</asrwt>
<pdfrwt beam="1">  1        2 0.15698388E+00 0.15519586E+04</pdfrwt>
<pdfrwt beam="2">  1       -2 0.90785916E-01 0.15519586E+04</pdfrwt>
<totfact> 0.24370797E+01</totfact>
</mgrwt>
</event>
<event>
12    1  0.2083715E-007  0.2113035E+04  0.7818608E-02  0.8555523E-01
          2   -1    0    0  501    0  0.00000000000E+00  0.00000000000E+00  0.15146217368E+04  0.15146217368E+04  0.00000000000E+00 0. -1.
         -2   -1    0    0    0  501 -0.00000000000E+00 -0.00000000000E+00 -0.73696911141E+03  0.73696911141E+03  0.00000000000E+00 0.  1.
         23    2    1    2    0    0  0.78698795392E+03  0.33140955316E+03  0.47550681916E+03  0.98241112296E+03  0.99209615992E+02 0.  0.
        254    2    1    2    0    0 -0.78698795392E+03 -0.33140955316E+03  0.30214580620E+03  0.12691797252E+04  0.88901223567E+03 0.  0.
        -24    2    4    4    0    0 -0.88041306119E+03 -0.10292666698E+03  0.25422559754E+02  0.89009184182E+03  0.76786217831E+02 0.  0.
         24    2    4    4    0    0  0.93425107270E+02 -0.22848288618E+03  0.27672324645E+03  0.37908788340E+03  0.78734924077E+02 0.  0.
         13    1    3    3    0    0  0.27575345014E+03  0.10525239485E+03  0.21796337708E+03  0.36691424834E+03  0.00000000000E+00 0. -1.
        -13    1    3    3    0    0  0.51123450378E+03  0.22615715831E+03  0.25754344208E+03  0.61549687462E+03  0.00000000000E+00 0.  1.
          4    1    6    6  502    0  0.10530993758E+03 -0.20966289845E+03  0.23662978847E+03  0.33323020681E+03  0.00000000000E+00 0. -1.
          1    1    5    5  503    0 -0.64328689395E+03 -0.96064014622E+02  0.45556020273E+02  0.65201355340E+03  0.00000000000E+00 0. -1.
         -2    1    5    5    0  503 -0.23712616724E+03 -0.68626523618E+01 -0.20133460519E+02  0.23807828842E+03  0.00000000000E+00 0.  1.
         -3    1    6    6    0  502 -0.11884830307E+02 -0.18819987732E+02  0.40093457976E+02  0.45857676589E+02  0.00000000000E+00 0.  1.
<mgrwt>
<rscale>  0 0.21130352E+04</rscale>
<asrwt>0</asrwt>
<pdfrwt beam="1">  1        2 0.23301873E+00 0.21130352E+04</pdfrwt>
<pdfrwt beam="2">  1       -2 0.11337986E+00 0.21130352E+04</pdfrwt>
<totfact> 0.69998303E+00</totfact>
</mgrwt>
</event>
<event>
12    1  0.2083715E-007  0.1380782E+04  0.7818608E-02  0.8967848E-01
         -2   -1    0    0    0  501 -0.00000000000E+00  0.00000000000E+00  0.73354251190E+03  0.73354251190E+03  0.00000000000E+00 0.  1.
          2   -1    0    0  501    0  0.00000000000E+00 -0.00000000000E+00 -0.64977781249E+03  0.64977781249E+03  0.00000000000E+00 0. -1.
         23    2    1    2    0    0  0.30203189671E+03 -0.22781502988E+03 -0.66946401419E+02  0.39564642407E+03  0.94505649304E+02 0.  0.
        254    2    1    2    0    0 -0.30203189671E+03  0.22781502988E+03  0.15071110083E+03  0.98767390031E+03  0.89981272662E+03 0.  0.
        -24    2    4    4    0    0 -0.37185658297E+03  0.42904247357E+03 -0.16695185241E+03  0.59720012457E+03  0.80126807901E+02 0.  0.
         24    2    4    4    0    0  0.69824686266E+02 -0.20122744369E+03  0.31766295323E+03  0.39047377574E+03  0.78689559535E+02 0.  0.
         11    1    3    3    0    0  0.18479006396E+03 -0.16865188805E+03 -0.44768651326E+01  0.25022164055E+03  0.00000000000E+00 0. -1.
        -11    1    3    3    0    0  0.11724183275E+03 -0.59163141832E+02 -0.62469536286E+02  0.14542478352E+03  0.00000000000E+00 0.  1.
          2    1    6    6  502    0  0.44981524974E+02 -0.19606511813E+03  0.28998455926E+03  0.35292479758E+03  0.00000000000E+00 0. -1.
          1    1    5    5  503    0 -0.27111031427E+03  0.25517249247E+03 -0.11451184023E+03  0.38952119965E+03  0.00000000000E+00 0. -1.
         -2    1    5    5    0  503 -0.10074626870E+03  0.17386998109E+03 -0.52440012175E+02  0.20767892493E+03  0.00000000000E+00 0.  1.
         -1    1    6    6    0  502  0.24843161292E+02 -0.51623255566E+01  0.27678393970E+02  0.37548978161E+02  0.00000000000E+00 0.  1.
<mgrwt>
<rscale>  0 0.13807819E+04</rscale>
<asrwt>0</asrwt>
<pdfrwt beam="1">  1        2 0.99965818E-01 0.13807819E+04</pdfrwt>
<pdfrwt beam="2">  1       -2 0.11285269E+00 0.13807819E+04</pdfrwt>
<totfact> 0.27066907E+01</totfact>
</mgrwt>
</event>
<event>
12    1  0.2083715E-007  0.1750317E+04  0.7818608E-02  0.8733176E-01
          2   -1    0    0  501    0  0.00000000000E+00  0.00000000000E+00  0.64362502302E+03  0.64362502302E+03  0.00000000000E+00 0. -1.
         -2   -1    0    0    0  501 -0.00000000000E+00 -0.00000000000E+00 -0.11899817399E+04  0.11899817399E+04  0.00000000000E+00 0.  1.
         23    2    1    2    0    0 -0.62593568304E+03 -0.13708570354E+03 -0.20469526270E+03  0.67889509563E+03  0.91708401304E+02 0.  0.
        254    2    1    2    0    0  0.62593568304E+03  0.13708570354E+03 -0.34166145413E+03  0.11547116672E+04  0.89779647795E+03 0.  0.
        -24    2    4    4    0    0  0.39791973027E+03  0.17619870424E+03  0.25424249852E+03  0.51040121081E+03  0.80523616602E+02 0.  0.
         24    2    4    4    0    0  0.22801595278E+03 -0.39113000702E+02 -0.59590395265E+03  0.64431045643E+03  0.80705278269E+02 0.  0.
         11    1    3    3    0    0 -0.22166514428E+03 -0.93568419404E+01 -0.92183272659E+02  0.24025141506E+03  0.00000000000E+00 0.  1.
        -11    1    3    3    0    0 -0.40427053877E+03 -0.12772886160E+03 -0.11251199004E+03  0.43864368057E+03  0.00000000000E+00 0. -1.
          2    1    6    6  502    0  0.20197473234E+02  0.18331373902E+02 -0.43798219570E+02  0.51597104877E+02  0.00000000000E+00 0. -1.
          1    1    5    5  503    0  0.18608323508E+02  0.19238679021E+02 -0.14024019957E+01  0.26802298514E+02  0.00000000000E+00 0. -1.
         -4    1    5    5    0  503  0.37931140676E+03  0.15696002522E+03  0.25564490052E+03  0.48359891230E+03  0.00000000000E+00 0.  1.
         -1    1    6    6    0  502  0.20781847954E+03 -0.57444374604E+02 -0.55210573308E+03  0.59271335156E+03  0.00000000000E+00 0.  1.
<mgrwt>
<rscale>  0 0.17503166E+04</rscale>
<asrwt>0</asrwt>
<pdfrwt beam="1">  1        2 0.99019235E-01 0.17503166E+04</pdfrwt>
<pdfrwt beam="2">  1       -2 0.18307411E+00 0.17503166E+04</pdfrwt>
<totfact> 0.74440065E+00</totfact>
</mgrwt>
</event>
<event>
12    1  0.2083715E-007  0.3240929E+04  0.7818608E-02  0.8178091E-01
         -2   -1    0    0    0  501 -0.00000000000E+00  0.00000000000E+00  0.27626268291E+04  0.27626268291E+04  0.00000000000E+00 0.  1.
          2   -1    0    0  501    0  0.00000000000E+00 -0.00000000000E+00 -0.95051025641E+03  0.95051025641E+03  0.00000000000E+00 0. -1.
         23    2    1    2    0    0  0.87834719304E+03  0.85186202323E+03  0.18194431143E+04  0.21945310912E+04  0.91819201619E+02 0.  0.
        254    2    1    2    0    0 -0.87834719304E+03 -0.85186202323E+03 -0.73265416760E+01  0.15186059943E+04  0.89941524867E+03 0.  0.
        -24    2    4    4    0    0 -0.81370812582E+02 -0.61200532940E+03  0.20650687178E+03  0.65570273170E+03  0.78289538983E+02 0.  0.
         24    2    4    4    0    0 -0.79697638046E+03 -0.23985669384E+03 -0.21383341345E+03  0.86290326259E+03  0.78579433063E+02 0.  0.
         13    1    3    3    0    0  0.54202250780E+03  0.50896690019E+03  0.10270967960E+04  0.12679761562E+04  0.00000000000E+00 0.  1.
        -13    1    3    3    0    0  0.33632468524E+03  0.34289512304E+03  0.79234631832E+03  0.92655493493E+03  0.00000000000E+00 0. -1.
          4    1    6    6  502    0 -0.78635185373E+03 -0.22538119864E+03 -0.21008706243E+03  0.84456053446E+03  0.00000000000E+00 0. -1.
          3    1    5    5  503    0 -0.85102277717E+02 -0.43599948860E+03  0.17166625051E+03  0.47624285117E+03  0.00000000000E+00 0. -1.
         -4    1    5    5    0  503  0.37314651351E+01 -0.17600584080E+03  0.34840621270E+02  0.17945988052E+03  0.00000000000E+00 0.  1.
         -3    1    6    6    0  502 -0.10624526723E+02 -0.14475495197E+02 -0.37463510221E+01  0.18342728131E+02  0.00000000000E+00 0.  1.
<mgrwt>
<rscale>  0 0.32409290E+04</rscale>
<asrwt>0</asrwt>
<pdfrwt beam="1">  1        2 0.14623235E+00 0.32409290E+04</pdfrwt>
<pdfrwt beam="2">  1       -2 0.42501951E+00 0.32409290E+04</pdfrwt>
<totfact> 0.11551601E-01</totfact>
</mgrwt>
</event>
<event>
12    1  0.2083715E-007  0.1903756E+04  0.7818608E-02  0.8652989E-01
         -2   -1    0    0    0  501 -0.00000000000E+00  0.00000000000E+00  0.40415262360E+03  0.40415262360E+03  0.00000000000E+00 0. -1.
          2   -1    0    0  501    0  0.00000000000E+00 -0.00000000000E+00 -0.22419049742E+04  0.22419049742E+04  0.00000000000E+00 0.  1.
         23    2    1    2    0    0 -0.58951215967E+03  0.48620508627E+02 -0.13241550591E+04  0.14531653516E+04  0.91729920692E+02 0.  0.
        254    2    1    2    0    0  0.58951215967E+03 -0.48620508627E+02 -0.51359729149E+03  0.11928922462E+04  0.89962280589E+03 0.  0.
        -24    2    4    4    0    0  0.67132919332E+03  0.57019384051E+02 -0.24110984706E+02  0.67931878529E+03  0.83418082591E+02 0.  0.
         24    2    4    4    0    0 -0.81817033641E+02 -0.10563989268E+03 -0.48948630679E+03  0.51357346088E+03  0.79416882789E+02 0.  0.
         13    1    3    3    0    0 -0.36489445784E+03  0.66946869643E+02 -0.88338878262E+03  0.95812608251E+03  0.00000000000E+00 0.  1.
        -13    1    3    3    0    0 -0.22461770183E+03 -0.18326361016E+02 -0.44076627646E+03  0.49503926910E+03  0.00000000000E+00 0. -1.
          2    1    6    6  502    0 -0.32096333432E+02 -0.39056393905E+02 -0.32887745925E+03  0.33274007833E+03  0.00000000000E+00 0. -1.
          3    1    5    5  503    0  0.44314797544E+03  0.19172936026E+02  0.19297756699E+02  0.44398213143E+03  0.00000000000E+00 0. -1.
         -4    1    5    5    0  503  0.22818121788E+03  0.37846448025E+02 -0.43408741404E+02  0.23533665386E+03  0.00000000000E+00 0.  1.
         -1    1    6    6    0  502 -0.49720700209E+02 -0.66583498772E+02 -0.16060884754E+03  0.18083338256E+03  0.00000000000E+00 0.  1.
<mgrwt>
<rscale>  0 0.19037561E+04</rscale>
<asrwt>0</asrwt>
<pdfrwt beam="1">  1        2 0.34490846E+00 0.19037561E+04</pdfrwt>
<pdfrwt beam="2">  1       -2 0.62177326E-01 0.19037561E+04</pdfrwt>
<totfact> 0.10995856E+01</totfact>
</mgrwt>
</event>
<event>
12    1  0.2083715E-007  0.3544799E+04  0.7818608E-02  0.8103255E-01
          2   -1    0    0  501    0  0.00000000000E+00  0.00000000000E+00  0.28573941417E+04  0.28573941417E+04  0.00000000000E+00 0. -1.
         -2   -1    0    0    0  501 -0.00000000000E+00 -0.00000000000E+00 -0.10993931941E+04  0.10993931941E+04  0.00000000000E+00 0.  1.
         23    2    1    2    0    0  0.16099128830E+04  0.28674992366E+02  0.12586100555E+04  0.20457882270E+04  0.92241268776E+02 0.  0.
        254    2    1    2    0    0 -0.16099128830E+04 -0.28674992366E+02  0.49939089207E+03  0.19109991088E+04  0.89993587817E+03 0.  0.
        -24    2    4    4    0    0 -0.76422845195E+03  0.11445168387E+03 -0.19917464045E+03  0.80195323989E+03  0.79461606222E+02 0.  0.
         24    2    4    4    0    0 -0.84568443107E+03 -0.14312667624E+03  0.69856553253E+03  0.11090458690E+04  0.79508073809E+02 0.  0.
         13    1    3    3    0    0  0.97597711977E+03 -0.43570759981E+01  0.71217827627E+03  0.12082004054E+04  0.00000000000E+00 0.  1.
        -13    1    3    3    0    0  0.63393576325E+03  0.33032068364E+02  0.54643177925E+03  0.83758782157E+03  0.00000000000E+00 0. -1.
          4    1    6    6  502    0 -0.23530155500E+03 -0.75053102919E+02  0.18861127193E+03  0.31076357886E+03  0.00000000000E+00 0. -1.
          1    1    5    5  503    0 -0.46136279082E+03  0.77062962640E+02 -0.81052894686E+02  0.47472507486E+03  0.00000000000E+00 0. -1.
         -2    1    5    5    0  503 -0.30286566112E+03  0.37388721234E+02 -0.11812174577E+03  0.32722816503E+03  0.00000000000E+00 0.  1.
         -3    1    6    6    0  502 -0.61038287607E+03 -0.68073573320E+02  0.50995426059E+03  0.79828229009E+03  0.00000000000E+00 0.  1.
<mgrwt>
<rscale>  0 0.35447988E+04</rscale>
<asrwt>0</asrwt>
<pdfrwt beam="1">  1        2 0.43959909E+00 0.35447988E+04</pdfrwt>
<pdfrwt beam="2">  1       -2 0.16913742E+00 0.35447988E+04</pdfrwt>
<totfact> 0.37745361E-01</totfact>
</mgrwt>
</event>
<event>
12    1  0.2083715E-007  0.1755277E+04  0.7818608E-02  0.8730451E-01
         -4   -1    0    0    0  501 -0.00000000000E+00  0.00000000000E+00  0.67266739794E+03  0.67266739794E+03  0.00000000000E+00 0.  1.
          4   -1    0    0  501    0  0.00000000000E+00 -0.00000000000E+00 -0.11450671258E+04  0.11450671258E+04  0.00000000000E+00 0. -1.
         23    2    1    2    0    0 -0.63265674337E+03 -0.50348060766E+02 -0.75695812712E+02  0.64627938829E+03  0.95695922148E+02 0.  0.
        254    2    1    2    0    0  0.63265674337E+03  0.50348060766E+02 -0.39670391516E+03  0.11714551355E+04  0.90119013308E+03 0.  0.
        -24    2    4    4    0    0  0.79918502002E+03 -0.10224639542E+03 -0.14215009087E+03  0.82211429060E+03  0.80710822618E+02 0.  0.
         24    2    4    4    0    0 -0.16652827665E+03  0.15259445618E+03 -0.25455382429E+03  0.34934084486E+03  0.78896396923E+02 0.  0.
         11    1    3    3    0    0 -0.25618688410E+03  0.20866682790E+02 -0.53131483916E+02  0.26246922223E+03  0.00000000000E+00 0.  1.
        -11    1    3    3    0    0 -0.37646985927E+03 -0.71214743556E+02 -0.22564328797E+02  0.38381016606E+03  0.00000000000E+00 0. -1.
          4    1    6    6  502    0 -0.11963509099E+02 -0.65500826510E+01 -0.33455374810E+02  0.36128814489E+02  0.00000000000E+00 0. -1.
          3    1    5    5  503    0  0.67767321613E+02 -0.42474660693E+01 -0.35101622116E+02  0.76436736729E+02  0.00000000000E+00 0. -1.
         -4    1    5    5    0  503  0.73141769840E+03 -0.97998929350E+02 -0.10704846875E+03  0.74567755388E+03  0.00000000000E+00 0.  1.
         -3    1    6    6    0  502 -0.15456476755E+03  0.15914453884E+03 -0.22109844948E+03  0.31321203038E+03  0.00000000000E+00 0.  1.
<mgrwt>
<rscale>  0 0.17552770E+04</rscale>
<asrwt>0</asrwt>
<pdfrwt beam="1">  1        4 0.17616417E+00 0.17552770E+04</pdfrwt>
<pdfrwt beam="2">  1       -4 0.10348729E+00 0.17552770E+04</pdfrwt>
<totfact> 0.27562447E-01</totfact>
</mgrwt>
</event>
<event>
12    1  0.2083715E-007  0.1929822E+04  0.7818608E-02  0.8640153E-01
          2   -1    0    0  501    0  0.00000000000E+00  0.00000000000E+00  0.11062145192E+04  0.11062145192E+04  0.00000000000E+00 0. -1.
         -2   -1    0    0    0  501 -0.00000000000E+00 -0.00000000000E+00 -0.84165733401E+03  0.84165733401E+03  0.00000000000E+00 0.  1.
         23    2    1    2    0    0  0.32892908242E+02 -0.37262007304E+03 -0.55436830647E+03  0.67514518444E+03  0.92569641954E+02 0.  0.
        254    2    1    2    0    0 -0.32892908242E+02  0.37262007304E+03  0.81892549171E+03  0.12727266688E+04  0.89959243566E+03 0.  0.
        -24    2    4    4    0    0  0.36299686413E+03 -0.21324317913E+02  0.15898667858E+03  0.40436286554E+03  0.77531368862E+02 0.  0.
         24    2    4    4    0    0 -0.39588977237E+03  0.39394439096E+03  0.65993881313E+03  0.86836380327E+03  0.81336109637E+02 0.  0.
         11    1    3    3    0    0  0.15826615361E+02 -0.34459322998E+03 -0.53636581164E+03  0.63771722557E+03  0.00000000000E+00 0.  1.
        -11    1    3    3    0    0  0.17066292881E+02 -0.28026843067E+02 -0.18002494832E+02  0.37427958870E+02  0.00000000000E+00 0. -1.
          4    1    6    6  502    0  0.12763889031E+01  0.12704454518E+02  0.79865463562E+01  0.15060453378E+02  0.00000000000E+00 0. -1.
          3    1    5    5  503    0  0.76472067933E+02 -0.38840458178E+01  0.73108515382E+00  0.76574130562E+02  0.00000000000E+00 0. -1.
         -4    1    5    5    0  503  0.28652479620E+03 -0.17440272096E+02  0.15825559343E+03  0.32778873497E+03  0.00000000000E+00 0.  1.
         -3    1    6    6    0  502 -0.39716616127E+03  0.38123993644E+03  0.65195226677E+03  0.85330334990E+03  0.00000000000E+00 0.  1.
<mgrwt>
<rscale>  0 0.19298223E+04</rscale>
<asrwt>0</asrwt>
<pdfrwt beam="1">  1        2 0.17018685E+00 0.19298223E+04</pdfrwt>
<pdfrwt beam="2">  1       -2 0.12948574E+00 0.19298223E+04</pdfrwt>
<totfact> 0.88518704E+00</totfact>
</mgrwt>
</event>
<event>
12    1  0.2083715E-007  0.3309500E+04  0.7818608E-02  0.8160482E-01
          1   -1    0    0  501    0  0.00000000000E+00  0.00000000000E+00  0.38872325404E+04  0.38872325404E+04  0.00000000000E+00 0. -1.
         -1   -1    0    0    0  501 -0.00000000000E+00 -0.00000000000E+00 -0.70440779254E+03  0.70440779254E+03  0.00000000000E+00 0.  1.
         23    2    1    2    0    0 -0.60442199650E+03  0.13054064412E+04  0.22009612214E+04  0.26310130897E+04  0.92669592514E+02 0.  0.
        254    2    1    2    0    0  0.60442199650E+03 -0.13054064412E+04  0.98186352646E+03  0.19606272433E+04  0.90032842664E+03 0.  0.
        -24    2    4    4    0    0  0.62862522415E+03 -0.58794119100E+03  0.87633690711E+03  0.12309395101E+04  0.80007414471E+02 0.  0.
         24    2    4    4    0    0 -0.24203227651E+02 -0.71746525021E+03  0.10552661935E+03  0.72968773311E+03  0.77240785667E+02 0.  0.
         13    1    3    3    0    0 -0.35886420851E+03  0.81106465285E+03  0.14331882161E+04  0.16854191924E+04  0.00000000000E+00 0. -1.
        -13    1    3    3    0    0 -0.24555778799E+03  0.49434178836E+03  0.76777300527E+03  0.94559389729E+03  0.00000000000E+00 0.  1.
          2    1    6    6  502    0  0.24593941132E-01 -0.14090034435E+03 -0.96573469704E+01  0.14123091727E+03  0.00000000000E+00 0. -1.
          1    1    5    5  503    0  0.28049611449E+03 -0.27181836875E+03  0.45382352007E+03  0.59876463089E+03  0.00000000000E+00 0. -1.
         -4    1    5    5    0  503  0.34812910966E+03 -0.31612282225E+03  0.42251338704E+03  0.63217487926E+03  0.00000000000E+00 0.  1.
         -1    1    6    6    0  502 -0.24227821592E+02 -0.57656490587E+03  0.11518396632E+03  0.58845681584E+03  0.00000000000E+00 0.  1.
<mgrwt>
<rscale>  0 0.33094996E+04</rscale>
<asrwt>0</asrwt>
<pdfrwt beam="1">  1        1 0.59803576E+00 0.33094996E+04</pdfrwt>
<pdfrwt beam="2">  1       -1 0.10837043E+00 0.33094996E+04</pdfrwt>
<totfact> 0.78636146E-02</totfact>
</mgrwt>
</event>
<event>
12    1  0.2083715E-007  0.1295860E+04  0.7818608E-02  0.9032855E-01
         -1   -1    0    0    0  501 -0.00000000000E+00  0.00000000000E+00  0.26844444557E+03  0.26844444557E+03  0.00000000000E+00 0.  1.
          1   -1    0    0  501    0  0.00000000000E+00 -0.00000000000E+00 -0.15638736337E+04  0.15638736337E+04  0.00000000000E+00 0. -1.
         23    2    1    2    0    0  0.15076319787E+03  0.18853113500E+03 -0.28738705351E+02  0.25976033241E+03  0.91520415273E+02 0.  0.
        254    2    1    2    0    0 -0.15076319787E+03 -0.18853113500E+03 -0.12666904828E+04  0.15725577469E+04  0.90008863860E+03 0.  0.
        -24    2    4    4    0    0 -0.15348748710E+03  0.14276056696E+03 -0.12057136434E+04  0.12268703321E+04  0.86755021232E+02 0.  0.
         24    2    4    4    0    0  0.27242892365E+01 -0.33129170196E+03 -0.60976839389E+02  0.34568741477E+03  0.77588660561E+02 0.  0.
         13    1    3    3    0    0  0.11626912953E+03  0.19092020720E+03 -0.26650984509E+02  0.22512065870E+03  0.00000000000E+00 0. -1.
        -13    1    3    3    0    0  0.34494068337E+02 -0.23890721952E+01 -0.20877208418E+01  0.34639673710E+02  0.00000000000E+00 0.  1.
          4    1    6    6  502    0  0.15963534860E+02 -0.28271899441E+03 -0.75923226502E+02  0.29317094087E+03  0.00000000000E+00 0. -1.
          1    1    5    5  503    0 -0.94661773757E+02  0.11564651694E+03 -0.62804528660E+03  0.64558179212E+03  0.00000000000E+00 0. -1.
         -2    1    5    5    0  503 -0.58825713348E+02  0.27114050024E+02 -0.57766835679E+03  0.58128853997E+03  0.00000000000E+00 0.  1.
         -3    1    6    6    0  502 -0.13239245623E+02 -0.48572707551E+02  0.14946387113E+02  0.52516473903E+02  0.00000000000E+00 0.  1.
<mgrwt>
<rscale>  0 0.12958599E+04</rscale>
<asrwt>0</asrwt>
<pdfrwt beam="1">  1        1 0.24059594E+00 0.12958599E+04</pdfrwt>
<pdfrwt beam="2">  1       -1 0.41299145E-01 0.12958599E+04</pdfrwt>
<totfact> 0.33352135E+01</totfact>
</mgrwt>
</event>
<event>
12    1  0.2256314E-007  0.1906008E+04  0.7818608E-02  0.8651872E-01
          1   -1    0    0  501    0  0.00000000000E+00  0.00000000000E+00  0.24965726149E+04  0.24965726149E+04  0.00000000000E+00 0. -1.
         -1   -1    0    0    0  501 -0.00000000000E+00 -0.00000000000E+00 -0.36378543516E+03  0.36378543516E+03  0.00000000000E+00 0.  1.
         23    2    1    2    0    0  0.61648071971E+03  0.17593957205E+03  0.13766167588E+04  0.15213743451E+04  0.92211641205E+02 0.  0.
        254    2    1    2    0    0 -0.61648071971E+03 -0.17593957205E+03  0.75617042100E+03  0.13389837049E+04  0.90004469093E+03 0.  0.
        -24    2    4    4    0    0 -0.14802887838E+03 -0.42022844005E+03  0.51812346530E+02  0.45529580592E+03  0.78136169473E+02 0.  0.
         24    2    4    4    0    0 -0.46845184134E+03  0.24428886800E+03  0.70435807447E+03  0.88368789901E+03  0.75231822413E+02 0.  0.
         11    1    3    3    0    0  0.24520043010E+03  0.45435836099E+02  0.44638324199E+03  0.51131757729E+03  0.00000000000E+00 0.  1.
        -11    1    3    3    0    0  0.37128028961E+03  0.13050373595E+03  0.93023351677E+03  0.10100567678E+04  0.00000000000E+00 0. -1.
          4    1    6    6  502    0 -0.23398187772E+03  0.90831755214E+02  0.29088716131E+03  0.38420472078E+03  0.00000000000E+00 0. -1.
          1    1    5    5  503    0 -0.38798255114E+02 -0.22585151012E+03  0.19283187434E+02  0.22996967309E+03  0.00000000000E+00 0. -1.
         -2    1    5    5    0  503 -0.10923062326E+03 -0.19437692993E+03  0.32529159096E+02  0.22532613284E+03  0.00000000000E+00 0.  1.
         -3    1    6    6    0  502 -0.23446996362E+03  0.15345711278E+03  0.41347091315E+03  0.49948317822E+03  0.00000000000E+00 0.  1.
<mgrwt>
<rscale>  0 0.19060081E+04</rscale>
<asrwt>0</asrwt>
<pdfrwt beam="1">  1        1 0.38408808E+00 0.19060081E+04</pdfrwt>
<pdfrwt beam="2">  1       -1 0.55966992E-01 0.19060081E+04</pdfrwt>
<totfact> 0.41169668E+00</totfact>
</mgrwt>
</event>
<event>
12    1  0.2083715E-007  0.1343833E+04  0.7818608E-02  0.8995510E-01
         -1   -1    0    0    0  501 -0.00000000000E+00  0.00000000000E+00  0.86653196769E+03  0.86653196769E+03  0.00000000000E+00 0.  1.
          1   -1    0    0  501    0  0.00000000000E+00 -0.00000000000E+00 -0.52100967494E+03  0.52100967494E+03  0.00000000000E+00 0. -1.
         23    2    1    2    0    0  0.35255711340E+03 -0.88952266351E+02  0.95920323666E+02  0.38692893414E+03  0.91127754726E+02 0.  0.
        254    2    1    2    0    0 -0.35255711340E+03  0.88952266351E+02  0.24960196908E+03  0.10006127085E+04  0.89817349412E+03 0.  0.
        -24    2    4    4    0    0 -0.61816368989E+03  0.17780206071E+03  0.28092665390E+03  0.70683890526E+03  0.83435800640E+02 0.  0.
         24    2    4    4    0    0  0.26560657649E+03 -0.88849794359E+02 -0.31324684813E+02  0.29377380324E+03  0.82949817115E+02 0.  0.
         13    1    3    3    0    0  0.31031595513E+03 -0.57596481733E+02  0.55207245813E+02  0.32040784433E+03  0.00000000000E+00 0. -1.
        -13    1    3    3    0    0  0.42241158268E+02 -0.31355784618E+02  0.40713077853E+02  0.66521089807E+02  0.00000000000E+00 0.  1.
          2    1    6    6  502    0  0.71577371368E+01  0.10958925508E+02  0.56672266413E+01  0.14263544686E+02  0.00000000000E+00 0. -1.
          1    1    5    5  503    0 -0.67724978681E+02 -0.65067600359E+01  0.33351312080E+02  0.75771503093E+02  0.00000000000E+00 0. -1.
         -2    1    5    5    0  503 -0.55043871121E+03  0.18430882075E+03  0.24757534182E+03  0.63106740216E+03  0.00000000000E+00 0.  1.
         -1    1    6    6    0  502  0.25844883935E+03 -0.99808719866E+02 -0.36991911454E+02  0.27951025855E+03  0.00000000000E+00 0.  1.
<mgrwt>
<rscale>  0 0.13438326E+04</rscale>
<asrwt>0</asrwt>
<pdfrwt beam="1">  1        1 0.80155334E-01 0.13438326E+04</pdfrwt>
<pdfrwt beam="2">  1       -1 0.13331261E+00 0.13438326E+04</pdfrwt>
<totfact> 0.19505097E+01</totfact>
</mgrwt>
</event>
<event>
12    1  0.2083715E-007  0.1752126E+04  0.7818608E-02  0.8732181E-01
         -1   -1    0    0    0  501 -0.00000000000E+00  0.00000000000E+00  0.68944116740E+03  0.68944116740E+03  0.00000000000E+00 0.  1.
          1   -1    0    0  501    0  0.00000000000E+00 -0.00000000000E+00 -0.11132012123E+04  0.11132012123E+04  0.00000000000E+00 0. -1.
         23    2    1    2    0    0  0.40757711642E+03 -0.44207413737E+03 -0.38738944671E+03  0.72109630362E+03  0.91436573189E+02 0.  0.
        254    2    1    2    0    0 -0.40757711642E+03  0.44207413737E+03 -0.36370598229E+02  0.10815460761E+04  0.89825967604E+03 0.  0.
        -24    2    4    4    0    0 -0.47554908768E+03  0.65740881289E+03  0.71669882201E+02  0.81866886920E+03  0.82151465711E+02 0.  0.
         24    2    4    4    0    0  0.67971971260E+02 -0.21533467552E+03 -0.10804048043E+03  0.26287720693E+03  0.80264993304E+02 0.  0.
         11    1    3    3    0    0  0.19829022245E+03 -0.24289532277E+03 -0.25079640456E+03  0.40151710634E+03  0.00000000000E+00 0. -1.
        -11    1    3    3    0    0  0.20928689396E+03 -0.19917881460E+03 -0.13659304214E+03  0.31957919728E+03  0.00000000000E+00 0.  1.
          4    1    6    6  502    0  0.46780955839E+02 -0.20674326616E+03 -0.79690718490E+02  0.22645495478E+03  0.00000000000E+00 0. -1.
          3    1    5    5  503    0 -0.36355534478E+03  0.45802221984E+03  0.25231995145E+02  0.58531486925E+03  0.00000000000E+00 0. -1.
         -4    1    5    5    0  503 -0.11199374289E+03  0.19938659305E+03  0.46437887056E+02  0.23335399995E+03  0.00000000000E+00 0.  1.
         -3    1    6    6    0  502  0.21191015421E+02 -0.85914093673E+01 -0.28349761940E+02  0.36422252148E+02  0.00000000000E+00 0.  1.
<mgrwt>
<rscale>  0 0.17521264E+04</rscale>
<asrwt>0</asrwt>
<pdfrwt beam="1">  1        1 0.17126172E+00 0.17521264E+04</pdfrwt>
<pdfrwt beam="2">  1       -1 0.10606787E+00 0.17521264E+04</pdfrwt>
<totfact> 0.97635834E+00</totfact>
</mgrwt>
</event>
<event>
12    1  0.2083715E-007  0.3899388E+04  0.7818608E-02  0.8025157E-01
         -1   -1    0    0    0  501 -0.00000000000E+00  0.00000000000E+00  0.14206750723E+04  0.14206750723E+04  0.00000000000E+00 0.  1.
          1   -1    0    0  501    0  0.00000000000E+00 -0.00000000000E+00 -0.26757040021E+04  0.26757040021E+04  0.00000000000E+00 0. -1.
         23    2    1    2    0    0 -0.92055996817E+03  0.70474633472E+03  0.91340095019E+03  0.14786261234E+04  0.89083475972E+02 0.  0.
        254    2    1    2    0    0  0.92055996817E+03 -0.70474633472E+03 -0.21684298800E+04  0.26177529510E+04  0.89802244772E+03 0.  0.
        -24    2    4    4    0    0  0.73416393265E+03 -0.38138680639E+03 -0.20561694697E+04  0.22177627213E+04  0.78651280362E+02 0.  0.
         24    2    4    4    0    0  0.18639603551E+03 -0.32335952833E+03 -0.11226041034E+03  0.39999022968E+03  0.89916169267E+02 0.  0.
         13    1    3    3    0    0 -0.76979672364E+03  0.56312421778E+03  0.78390370356E+03  0.12345853137E+04  0.00000000000E+00 0. -1.
        -13    1    3    3    0    0 -0.15076324453E+03  0.14162211695E+03  0.12949724663E+03  0.24404080969E+03  0.00000000000E+00 0.  1.
          2    1    6    6  502    0  0.47664772978E+02 -0.22715633528E+02 -0.14811885255E+02  0.54839060298E+02  0.00000000000E+00 0. -1.
          3    1    5    5  503    0  0.60876831852E+02 -0.20168398936E+02 -0.11568910036E+03  0.13227517119E+03  0.00000000000E+00 0. -1.
         -2    1    5    5    0  503  0.67328710080E+03 -0.36121840746E+03 -0.19404803693E+04  0.20854875501E+04  0.00000000000E+00 0.  1.
         -1    1    6    6    0  502  0.13873126253E+03 -0.30064389480E+03 -0.97448525084E+02  0.34515116938E+03  0.00000000000E+00 0.  1.
<mgrwt>
<rscale>  0 0.38993876E+04</rscale>
<asrwt>0</asrwt>
<pdfrwt beam="1">  1        1 0.41164676E+00 0.38993876E+04</pdfrwt>
<pdfrwt beam="2">  1       -1 0.21856540E+00 0.38993876E+04</pdfrwt>
<totfact> 0.90630811E-02</totfact>
</mgrwt>
</event>
<event>
12    1  0.2797492E-007  0.2639807E+04  0.7818608E-02  0.8354804E-01
          2   -1    0    0  501    0  0.00000000000E+00  0.00000000000E+00  0.13988289167E+04  0.13988289167E+04  0.00000000000E+00 0. -1.
         -2   -1    0    0    0  501 -0.00000000000E+00 -0.00000000000E+00 -0.12454316828E+04  0.12454316828E+04  0.00000000000E+00 0.  1.
         23    2    1    2    0    0  0.84728495632E+03  0.79568723566E+03 -0.17922735732E+01  0.11659086747E+04  0.91268019366E+02 0.  0.
        254    2    1    2    0    0 -0.84728495632E+03 -0.79568723566E+03  0.15518950746E+03  0.14783519247E+04  0.90023922148E+03 0.  0.
        -24    2    4    4    0    0  0.87823727209E+02 -0.40997096853E+03  0.18111983130E+03  0.46354747268E+03  0.79263257797E+02 0.  0.
         24    2    4    4    0    0 -0.93510868353E+03 -0.38571626713E+03 -0.25930323841E+02  0.10148044520E+04  0.77138871150E+02 0.  0.
         13    1    3    3    0    0  0.23736385745E+03  0.24406634770E+03 -0.39108028966E+02  0.34269435484E+03  0.00000000000E+00 0.  1.
        -13    1    3    3    0    0  0.60992109887E+03  0.55162088795E+03  0.37315755393E+02  0.82321431989E+03  0.00000000000E+00 0. -1.
          4    1    6    6  502    0 -0.61966295823E+03 -0.21576377445E+03 -0.15211798967E+02  0.65632887107E+03  0.00000000000E+00 0. -1.
          1    1    5    5  503    0  0.66939314556E+02 -0.35745923531E+03  0.12675171769E+03  0.38512851709E+03  0.00000000000E+00 0. -1.
         -2    1    5    5    0  503  0.20884412653E+02 -0.52511733227E+02  0.54368113607E+02  0.78418955589E+02  0.00000000000E+00 0.  1.
         -3    1    6    6    0  502 -0.31544572530E+03 -0.16995249268E+03 -0.10718524874E+02  0.35847558097E+03  0.00000000000E+00 0.  1.
<mgrwt>
<rscale>  0 0.26398075E+04</rscale>
<asrwt>0</asrwt>
<pdfrwt beam="1">  1        2 0.21520445E+00 0.26398075E+04</pdfrwt>
<pdfrwt beam="2">  1       -2 0.19160487E+00 0.26398075E+04</pdfrwt>
<totfact> 0.19323174E+00</totfact>
</mgrwt>
</event>
<event>
12    1  0.2083715E-007  0.2918134E+04  0.7818608E-02  0.8267502E-01
         -2   -1    0    0    0  501 -0.00000000000E+00  0.00000000000E+00  0.16884809640E+04  0.16884809640E+04  0.00000000000E+00 0.  1.
          2   -1    0    0  501    0  0.00000000000E+00 -0.00000000000E+00 -0.12608238203E+04  0.12608238203E+04  0.00000000000E+00 0. -1.
         23    2    1    2    0    0 -0.27499847316E+03 -0.81202874652E+03  0.12056006223E+04  0.14827026194E+04  0.99595942341E+02 0.  0.
        254    2    1    2    0    0  0.27499847316E+03  0.81202874652E+03 -0.77794347851E+03  0.14666021650E+04  0.90039491840E+03 0.  0.
        -24    2    4    4    0    0  0.31203548066E+03 -0.60631602228E+02 -0.38520597173E+03  0.50548482995E+03  0.78031662033E+02 0.  0.
         24    2    4    4    0    0 -0.37037007494E+02  0.87266034875E+03 -0.39273750678E+03  0.96111733501E+03  0.81215504763E+02 0.  0.
         11    1    3    3    0    0 -0.15592177148E+02 -0.19835480692E+02  0.15185313787E+02  0.29447513262E+02  0.00000000000E+00 0. -1.
        -11    1    3    3    0    0 -0.25940629601E+03 -0.79219326583E+03  0.11904153085E+04  0.14532551061E+04  0.00000000000E+00 0.  1.
          2    1    6    6  502    0 -0.45290768896E+01  0.75676360276E+03 -0.33473417661E+03  0.82750143926E+03  0.00000000000E+00 0. -1.
          3    1    5    5  503    0  0.24916459552E+03 -0.22551173705E+02 -0.32698163286E+03  0.41171414759E+03  0.00000000000E+00 0. -1.
         -4    1    5    5    0  503  0.62870885139E+02 -0.38080428524E+02 -0.58224338866E+02  0.93770682364E+02  0.00000000000E+00 0.  1.
         -1    1    6    6    0  502 -0.32507930604E+02  0.11589674599E+03 -0.58003330177E+02  0.13361589574E+03  0.00000000000E+00 0.  1.
<mgrwt>
<rscale>  0 0.29181343E+04</rscale>
<asrwt>0</asrwt>
<pdfrwt beam="1">  1        2 0.19397289E+00 0.29181343E+04</pdfrwt>
<pdfrwt beam="2">  1       -2 0.25976630E+00 0.29181343E+04</pdfrwt>
<totfact> 0.84079141E-01</totfact>
</mgrwt>
</event>
<event>
12    1  0.2083715E-007  0.5620072E+04  0.7818608E-02  0.7739380E-01
         -1   -1    0    0    0  501 -0.00000000000E+00  0.00000000000E+00  0.26126576079E+04  0.26126576079E+04  0.00000000000E+00 0.  1.
          1   -1    0    0  501    0  0.00000000000E+00 -0.00000000000E+00 -0.30223257161E+04  0.30223257161E+04  0.00000000000E+00 0. -1.
         23    2    1    2    0    0  0.22028388755E+04  0.15405364986E+04 -0.71787804647E+03  0.27838794056E+04  0.94254126022E+02 0.  0.
        254    2    1    2    0    0 -0.22028388755E+04 -0.15405364986E+04  0.30820993829E+03  0.28511039184E+04  0.89891510841E+03 0.  0.
        -24    2    4    4    0    0 -0.21845497557E+04 -0.13059711969E+04  0.41560227985E+03  0.25801901294E+04  0.82688851828E+02 0.  0.
         24    2    4    4    0    0 -0.18289119799E+02 -0.23456530174E+03 -0.10739234156E+03  0.27091378902E+03  0.80658498426E+02 0.  0.
         11    1    3    3    0    0  0.13099129991E+04  0.97029702102E+03 -0.44762043250E+03  0.16904769817E+04  0.00000000000E+00 0.  1.
        -11    1    3    3    0    0  0.89292587649E+03  0.57023947758E+03 -0.27025761397E+03  0.10934024239E+04  0.00000000000E+00 0. -1.
          4    1    6    6  502    0  0.59523529070E+01  0.39085425370E+01  0.20476413858E+01  0.74094564671E+01  0.00000000000E+00 0. -1.
          3    1    5    5  503    0 -0.66815059301E+03 -0.38543341348E+03  0.89494533248E+02  0.77652649835E+03  0.00000000000E+00 0. -1.
         -4    1    5    5    0  503 -0.15163991627E+04 -0.92053778338E+03  0.32610774660E+03  0.18036636310E+04  0.00000000000E+00 0.  1.
         -3    1    6    6    0  502 -0.24241472706E+02 -0.23847384428E+03 -0.10943998295E+03  0.26350433255E+03  0.00000000000E+00 0.  1.
<mgrwt>
<rscale>  0 0.56200720E+04</rscale>
<asrwt>0</asrwt>
<pdfrwt beam="1">  1        1 0.46497319E+00 0.56200720E+04</pdfrwt>
<pdfrwt beam="2">  1       -1 0.40194733E+00 0.56200720E+04</pdfrwt>
<totfact> 0.27485332E-03</totfact>
</mgrwt>
</event>
<event>
12    1  0.2083715E-007  0.1425057E+04  0.7818608E-02  0.8935878E-01
          1   -1    0    0  501    0  0.00000000000E+00  0.00000000000E+00  0.92429444615E+03  0.92429444615E+03  0.00000000000E+00 0. -1.
         -1   -1    0    0    0  501 -0.00000000000E+00 -0.00000000000E+00 -0.54928082224E+03  0.54928082224E+03  0.00000000000E+00 0.  1.
         23    2    1    2    0    0 -0.26616667611E+03  0.50478323918E+02 -0.21981882334E+03  0.35998890790E+03  0.88763382405E+02 0.  0.
        254    2    1    2    0    0  0.26616667611E+03 -0.50478323918E+02  0.59483244725E+03  0.11135863605E+04  0.90158537106E+03 0.  0.
        -24    2    4    4    0    0  0.23432560690E+03 -0.31341446021E+03  0.70894284150E+03  0.81367107643E+03  0.79520778370E+02 0.  0.
         24    2    4    4    0    0  0.31841069210E+02  0.26293613629E+03 -0.11411039425E+03  0.29991528406E+03  0.82333043660E+02 0.  0.
         11    1    3    3    0    0  0.23560683231E+01 -0.79470539114E+01 -0.34240644218E+00  0.82960210936E+01  0.00000000000E+00 0. -1.
        -11    1    3    3    0    0 -0.26852274444E+03  0.58425377830E+02 -0.21947641690E+03  0.35169288680E+03  0.00000000000E+00 0.  1.
          4    1    6    6  502    0 -0.15166275341E+02  0.15408977703E+03 -0.89447297075E+02  0.17881413324E+03  0.00000000000E+00 0. -1.
          3    1    5    5  503    0  0.16130021570E+03 -0.19098269720E+03  0.37628843858E+03  0.45175783250E+03  0.00000000000E+00 0. -1.
         -4    1    5    5    0  503  0.73025391200E+02 -0.12243176301E+03  0.33265440292E+03  0.36191324394E+03  0.00000000000E+00 0.  1.
         -3    1    6    6    0  502  0.47007344551E+02  0.10884635927E+03 -0.24663097172E+02  0.12110115082E+03  0.00000000000E+00 0.  1.
<mgrwt>
<rscale>  0 0.14250575E+04</rscale>
<asrwt>0</asrwt>
<pdfrwt beam="1">  1        1 0.14219915E+00 0.14250575E+04</pdfrwt>
<pdfrwt beam="2">  1       -1 0.84504742E-01 0.14250575E+04</pdfrwt>
<totfact> 0.23464632E+01</totfact>
</mgrwt>
</event>
<event>
12    1  0.2083715E-007  0.1863756E+04  0.7818608E-02  0.8673110E-01
          2   -1    0    0  501    0  0.00000000000E+00  0.00000000000E+00  0.17772190784E+04  0.17772190784E+04  0.00000000000E+00 0.  1.
         -2   -1    0    0    0  501 -0.00000000000E+00 -0.00000000000E+00 -0.48862684796E+03  0.48862684796E+03  0.00000000000E+00 0. -1.
         23    2    1    2    0    0 -0.64500072533E+02 -0.47728369961E+03 -0.14079978784E+03  0.51088046221E+03  0.95991026373E+02 0.  0.
        254    2    1    2    0    0  0.64500072533E+02  0.47728369961E+03  0.14293920182E+04  0.17549654641E+04  0.89709656625E+03 0.  0.
        -24    2    4    4    0    0 -0.26411075701E+03  0.35315516389E+03  0.23440228160E+03  0.50697204462E+03  0.87196116050E+02 0.  0.
         24    2    4    4    0    0  0.32861082954E+03  0.12412853572E+03  0.11949897366E+04  0.12479934195E+04  0.78064933066E+02 0.  0.
         13    1    3    3    0    0 -0.77204754719E+02 -0.27152483067E+03 -0.10746814730E+03  0.30205249627E+03  0.00000000000E+00 0.  1.
        -13    1    3    3    0    0  0.12704682186E+02 -0.20575886894E+03 -0.33331640544E+02  0.20882796594E+03  0.00000000000E+00 0. -1.
          4    1    6    6  502    0  0.27108132044E+02  0.37190450353E+02  0.15873982721E+03  0.16527647492E+03  0.00000000000E+00 0. -1.
          3    1    5    5  503    0 -0.16248836432E+03  0.14616029241E+03  0.12449873948E+03  0.25152581528E+03  0.00000000000E+00 0. -1.
         -4    1    5    5    0  503 -0.10162239269E+03  0.20699487148E+03  0.10990354212E+03  0.25544622934E+03  0.00000000000E+00 0.  1.
         -3    1    6    6    0  502  0.30150269750E+03  0.86938085364E+02  0.10362499094E+04  0.10827169446E+04  0.00000000000E+00 0.  1.
<mgrwt>
<rscale>  0 0.18637564E+04</rscale>
<asrwt>0</asrwt>
<pdfrwt beam="1">  1        2 0.27341832E+00 0.18637564E+04</pdfrwt>
<pdfrwt beam="2">  1       -2 0.75173362E-01 0.18637564E+04</pdfrwt>
<totfact> 0.13254959E+01</totfact>
</mgrwt>
</event>
<event>
12    1  0.2083715E-007  0.6355314E+04  0.7818608E-02  0.7647843E-01
         -2   -1    0    0    0  501 -0.00000000000E+00  0.00000000000E+00  0.30322833832E+04  0.30322833832E+04  0.00000000000E+00 0.  1.
          2   -1    0    0  501    0  0.00000000000E+00 -0.00000000000E+00 -0.33300004453E+04  0.33300004453E+04  0.00000000000E+00 0. -1.
         23    2    1    2    0    0  0.60569277705E+03 -0.27277897626E+04  0.12288018924E+04  0.30536360773E+04  0.83895609846E+02 0.  0.
        254    2    1    2    0    0 -0.60569277705E+03  0.27277897626E+04 -0.15265189544E+04  0.33086477512E+04  0.89954938394E+03 0.  0.
        -24    2    4    4    0    0 -0.50472298309E+03  0.84642577083E+03 -0.21504679293E+03  0.10116547052E+04  0.77577342891E+02 0.  0.
         24    2    4    4    0    0 -0.10096979396E+03  0.18813639917E+04 -0.13114721615E+04  0.22969930460E+04  0.80575767668E+02 0.  0.
         13    1    3    3    0    0  0.52945820123E+03 -0.22376006247E+04  0.10067476303E+04  0.25101241670E+04  0.00000000000E+00 0.  1.
        -13    1    3    3    0    0  0.76234575815E+02 -0.49018913787E+03  0.22205426204E+03  0.54351191038E+03  0.00000000000E+00 0. -1.
          4    1    6    6  502    0 -0.67917214689E+02  0.13901003960E+04 -0.10105561690E+04  0.17199464032E+04  0.00000000000E+00 0. -1.
          3    1    5    5  503    0 -0.24875352063E+03  0.47283211688E+03 -0.89650795767E+02  0.54174328788E+03  0.00000000000E+00 0. -1.
         -4    1    5    5    0  503 -0.25596946245E+03  0.37359365395E+03 -0.12539599716E+03  0.46991141727E+03  0.00000000000E+00 0.  1.
         -1    1    6    6    0  502 -0.33052579268E+02  0.49126359571E+03 -0.30091599249E+03  0.57704664283E+03  0.00000000000E+00 0.  1.
<mgrwt>
<rscale>  0 0.63553143E+04</rscale>
<asrwt>0</asrwt>
<pdfrwt beam="1">  1        2 0.51230776E+00 0.63553143E+04</pdfrwt>
<pdfrwt beam="2">  1       -2 0.46650514E+00 0.63553143E+04</pdfrwt>
<totfact> 0.18938404E-03</totfact>
</mgrwt>
</event>
<event>
12    1  0.2083715E-007  0.1420990E+04  0.7818608E-02  0.8938764E-01
          2   -1    0    0  501    0  0.00000000000E+00  0.00000000000E+00  0.25965910235E+04  0.25965910235E+04  0.00000000000E+00 0. -1.
         -2   -1    0    0    0  501 -0.00000000000E+00 -0.00000000000E+00 -0.19440986991E+03  0.19440986991E+03  0.00000000000E+00 0.  1.
         23    2    1    2    0    0  0.12249297935E+03  0.42365384552E+02  0.15065007923E+04  0.15147601498E+04  0.90301264310E+02 0.  0.
        254    2    1    2    0    0 -0.12249297935E+03 -0.42365384552E+02  0.89568036124E+03  0.12762407436E+04  0.89985986148E+03 0.  0.
        -24    2    4    4    0    0 -0.25331897145E+03  0.17234102695E+02 -0.85584441026E+02  0.28126729964E+03  0.85551631838E+02 0.  0.
         24    2    4    4    0    0  0.13082599210E+03 -0.59599487247E+02  0.98126480226E+03  0.99497344395E+03  0.80149877793E+02 0.  0.
         11    1    3    3    0    0  0.37699250435E+02  0.49910620027E+02  0.91871542478E+03  0.92084218800E+03  0.00000000000E+00 0.  1.
        -11    1    3    3    0    0  0.84793728919E+02 -0.75452354756E+01  0.58778536753E+03  0.59391796178E+03  0.00000000000E+00 0. -1.
          2    1    6    6  502    0  0.97864199052E+02 -0.79303145864E+02  0.77358886280E+03  0.78377682988E+03  0.00000000000E+00 0. -1.
          1    1    5    5  503    0 -0.18650577402E+03  0.21450875672E+02 -0.10011596593E+03  0.21276219223E+03  0.00000000000E+00 0. -1.
         -2    1    5    5    0  503 -0.66813197435E+02 -0.42167729766E+01  0.14531524903E+02  0.68505107414E+02  0.00000000000E+00 0.  1.
         -1    1    6    6    0  502  0.32961793046E+02  0.19703658617E+02  0.20767593946E+03  0.21119661407E+03  0.00000000000E+00 0.  1.
<mgrwt>
<rscale>  0 0.14209897E+04</rscale>
<asrwt>0</asrwt>
<pdfrwt beam="1">  1        2 0.39947552E+00 0.14209897E+04</pdfrwt>
<pdfrwt beam="2">  1       -2 0.29909213E-01 0.14209897E+04</pdfrwt>
<totfact> 0.30773214E+01</totfact>
</mgrwt>
</event>
<event>
12    1  0.2083715E-007  0.1141906E+04  0.7818608E-02  0.9165283E-01
          2   -1    0    0  501    0  0.00000000000E+00  0.00000000000E+00  0.24980755354E+04  0.24980755354E+04  0.00000000000E+00 0. -1.
         -2   -1    0    0    0  501 -0.00000000000E+00 -0.00000000000E+00 -0.13049546022E+03  0.13049546022E+03  0.00000000000E+00 0.  1.
         23    2    1    2    0    0 -0.19522286516E+03 -0.33102592506E+02  0.50607533677E+03  0.55100759507E+03  0.91046002767E+02 0.  0.
        254    2    1    2    0    0  0.19522286516E+03  0.33102592506E+02  0.18615047384E+04  0.20775634006E+04  0.90103387478E+03 0.  0.
        -24    2    4    4    0    0  0.67254050335E+02  0.25982642478E+03  0.17676721628E+04  0.17897178491E+04  0.79951399085E+02 0.  0.
         24    2    4    4    0    0  0.12796881482E+03 -0.22672383227E+03  0.93832575649E+02  0.28784555142E+03  0.79188354788E+02 0.  0.
         13    1    3    3    0    0 -0.16506595747E+03 -0.16651959067E+02  0.48005221604E+03  0.50791159485E+03  0.00000000000E+00 0. -1.
        -13    1    3    3    0    0 -0.30156907694E+02 -0.16450633439E+02  0.26023120730E+02  0.43096000217E+02  0.00000000000E+00 0.  1.
          2    1    6    6  502    0  0.58868274879E+02 -0.16720841965E+03  0.83862753256E+02  0.19610479538E+03  0.00000000000E+00 0. -1.
          1    1    5    5  503    0  0.47671874362E+02  0.15716251970E+03  0.81890056521E+03  0.83520704074E+03  0.00000000000E+00 0. -1.
         -2    1    5    5    0  503  0.19582175973E+02  0.10266390508E+03  0.94877159756E+03  0.95451080840E+03  0.00000000000E+00 0.  1.
         -1    1    6    6    0  502  0.69100539945E+02 -0.59515412624E+02  0.99698223932E+01  0.91740756041E+02  0.00000000000E+00 0.  1.
<mgrwt>
<rscale>  0 0.11419063E+04</rscale>
<asrwt>0</asrwt>
<pdfrwt beam="1">  1        2 0.38431928E+00 0.11419063E+04</pdfrwt>
<pdfrwt beam="2">  1       -2 0.20076226E-01 0.11419063E+04</pdfrwt>
<totfact> 0.73953061E+01</totfact>
</mgrwt>
</event>
<event>
12    1  0.2083715E-007  0.1693840E+04  0.7818608E-02  0.8764885E-01
          2   -1    0    0  501    0  0.00000000000E+00  0.00000000000E+00  0.31584417138E+04  0.31584417138E+04  0.00000000000E+00 0. -1.
         -2   -1    0    0    0  501 -0.00000000000E+00 -0.00000000000E+00 -0.22709730759E+03  0.22709730759E+03  0.00000000000E+00 0.  1.
         23    2    1    2    0    0  0.49181924705E+03  0.29026863615E+03  0.66521903333E+03  0.88148705143E+03  0.91438540200E+02 0.  0.
        254    2    1    2    0    0 -0.49181924705E+03 -0.29026863615E+03  0.22661253729E+04  0.25040519700E+04  0.89933865131E+03 0.  0.
        -24    2    4    4    0    0  0.22027976995E+03  0.60686528427E+02  0.32337079137E+03  0.40385560773E+03  0.79527676919E+02 0.  0.
         24    2    4    4    0    0 -0.71209901700E+03 -0.35095516458E+03  0.19427545816E+04  0.21001963623E+04  0.79214003781E+02 0.  0.
         13    1    3    3    0    0  0.37047298571E+03  0.17053718164E+03  0.47445563039E+03  0.62565270612E+03  0.00000000000E+00 0. -1.
        -13    1    3    3    0    0  0.12134626134E+03  0.11973145452E+03  0.19076340294E+03  0.25583434531E+03  0.00000000000E+00 0.  1.
          4    1    6    6  502    0 -0.10963653637E+03 -0.24318322352E+02  0.25695960041E+03  0.28042786444E+03  0.00000000000E+00 0. -1.
          3    1    5    5  503    0  0.63843050724E+01 -0.83552743507E+01  0.44286141639E+02  0.45517384613E+02  0.00000000000E+00 0. -1.
         -4    1    5    5    0  503  0.21389546488E+03  0.69041802778E+02  0.27908464973E+03  0.35833822311E+03  0.00000000000E+00 0.  1.
         -3    1    6    6    0  502 -0.60246248063E+03 -0.32663684223E+03  0.16857949811E+04  0.18197684978E+04  0.00000000000E+00 0.  1.
<mgrwt>
<rscale>  0 0.16938401E+04</rscale>
<asrwt>0</asrwt>
<pdfrwt beam="1">  1        2 0.48591408E+00 0.16938401E+04</pdfrwt>
<pdfrwt beam="2">  1       -2 0.34938050E-01 0.16938401E+04</pdfrwt>
<totfact> 0.10162985E+01</totfact>
</mgrwt>
</event>
<event>
12    1  0.2083715E-007  0.1268563E+04  0.7818608E-02  0.9054874E-01
         -2   -1    0    0    0  501 -0.00000000000E+00  0.00000000000E+00  0.23887202011E+03  0.23887202011E+03  0.00000000000E+00 0. -1.
          2   -1    0    0  501    0  0.00000000000E+00 -0.00000000000E+00 -0.16842187642E+04  0.16842187642E+04  0.00000000000E+00 0.  1.
         23    2    1    2    0    0  0.23082296913E+03  0.88826738535E+02 -0.92940033045E+02  0.27965446660E+03  0.91647904445E+02 0.  0.
        254    2    1    2    0    0 -0.23082296913E+03 -0.88826738535E+02 -0.13524067110E+04  0.16434363177E+04  0.90039412802E+03 0.  0.
        -24    2    4    4    0    0  0.92947711927E+02 -0.11188883613E+03  0.71640379755E+02  0.18067695006E+03  0.79708390211E+02 0.  0.
         24    2    4    4    0    0 -0.32377068105E+03  0.23062097596E+02 -0.14240470908E+04  0.14627593677E+04  0.79972098865E+02 0.  0.
         13    1    3    3    0    0  0.11466622467E+03  0.54405437638E+02  0.71080871293E-01  0.12691847689E+03  0.00000000000E+00 0. -1.
        -13    1    3    3    0    0  0.11615674446E+03  0.34421300897E+02 -0.93011113916E+02  0.15273598970E+03  0.00000000000E+00 0.  1.
          4    1    6    6  502    0 -0.22622635541E+03  0.30378318912E+01 -0.11263932516E+04  0.11488904863E+04  0.00000000000E+00 0. -1.
          1    1    5    5  503    0  0.23939452304E+02 -0.33040518935E+02  0.63631976717E+02  0.75589693273E+02  0.00000000000E+00 0. -1.
         -2    1    5    5    0  503  0.69008259623E+02 -0.78848317196E+02  0.80084030375E+01  0.10508725679E+03  0.00000000000E+00 0.  1.
         -3    1    6    6    0  502 -0.97544325641E+02  0.20024265705E+02 -0.29765383922E+03  0.31386888135E+03  0.00000000000E+00 0.  1.
<mgrwt>
<rscale>  0 0.12685626E+04</rscale>
<asrwt>0</asrwt>
<pdfrwt beam="1">  1        2 0.25911059E+00 0.12685626E+04</pdfrwt>
<pdfrwt beam="2">  1       -2 0.36749540E-01 0.12685626E+04</pdfrwt>
<totfact> 0.68546923E+01</totfact>
</mgrwt>
</event>
<event>
12    1  0.2083715E-007  0.2770018E+04  0.7818608E-02  0.8312637E-01
         -1   -1    0    0    0  501 -0.00000000000E+00  0.00000000000E+00  0.79752240998E+03  0.79752240998E+03  0.00000000000E+00 0.  1.
          1   -1    0    0  501    0  0.00000000000E+00 -0.00000000000E+00 -0.24052620009E+04  0.24052620009E+04  0.00000000000E+00 0. -1.
         23    2    1    2    0    0 -0.11733609083E+04 -0.33020562000E+03 -0.47673534347E+03  0.13120248990E+04  0.91220475951E+02 0.  0.
        254    2    1    2    0    0  0.11733609083E+04  0.33020562000E+03 -0.11310042475E+04  0.18907595119E+04  0.89999408423E+03 0.  0.
        -24    2    4    4    0    0  0.59583172637E+02  0.45531702326E+02  0.13763268159E+03  0.17686255676E+03  0.81940945595E+02 0.  0.
         24    2    4    4    0    0  0.11137777356E+04  0.28467391768E+03 -0.12686369291E+04  0.17138969552E+04  0.80392981069E+02 0.  0.
         11    1    3    3    0    0 -0.33573040603E+03 -0.52065506510E+02 -0.13337558141E+03  0.36498598359E+03  0.00000000000E+00 0. -1.
        -11    1    3    3    0    0 -0.83763050224E+03 -0.27814011349E+03 -0.34335976206E+03  0.94703891537E+03  0.00000000000E+00 0.  1.
          2    1    6    6  502    0  0.52404926209E+03  0.93504958425E+02 -0.57353189107E+03  0.78250216384E+03  0.00000000000E+00 0. -1.
          3    1    5    5  503    0 -0.16879161077E+02 -0.65953546990E+01  0.17229197781E+02  0.25005000269E+02  0.00000000000E+00 0. -1.
         -4    1    5    5    0  503  0.76462333714E+02  0.52127057025E+02  0.12040348381E+03  0.15185755649E+03  0.00000000000E+00 0.  1.
         -1    1    6    6    0  502  0.58972847355E+03  0.19116895925E+03 -0.69510503799E+03  0.93139479134E+03  0.00000000000E+00 0.  1.
<mgrwt>
<rscale>  0 0.27700183E+04</rscale>
<asrwt>0</asrwt>
<pdfrwt beam="1">  1        1 0.37004030E+00 0.27700183E+04</pdfrwt>
<pdfrwt beam="2">  1       -1 0.12269576E+00 0.27700183E+04</pdfrwt>
<totfact> 0.80114300E-01</totfact>
</mgrwt>
</event>
<event>
12    1  0.2083715E-007  0.4080017E+04  0.7818608E-02  0.7988596E-01
          2   -1    0    0  501    0  0.00000000000E+00  0.00000000000E+00  0.16228799767E+04  0.16228799767E+04  0.00000000000E+00 0. -1.
         -2   -1    0    0    0  501 -0.00000000000E+00 -0.00000000000E+00 -0.25643512251E+04  0.25643512251E+04  0.00000000000E+00 0.  1.
         23    2    1    2    0    0 -0.15923703771E+04 -0.90124572390E+03 -0.11190677248E+04  0.21468480599E+04  0.93577493173E+02 0.  0.
        254    2    1    2    0    0  0.15923703771E+04  0.90124572390E+03  0.17759647638E+03  0.20403831419E+04  0.88528841881E+03 0.  0.
        -24    2    4    4    0    0  0.12680716477E+04  0.36739901277E+03 -0.14900814601E+03  0.13311002509E+04  0.81466018424E+02 0.  0.
         24    2    4    4    0    0  0.32429872944E+03  0.53384671113E+03  0.32660462239E+03  0.70928289098E+03  0.79054811161E+02 0.  0.
         11    1    3    3    0    0 -0.23819972890E+03 -0.16533894443E+03 -0.20274827430E+03  0.35381201241E+03  0.00000000000E+00 0.  1.
        -11    1    3    3    0    0 -0.13541706482E+04 -0.73590677947E+03 -0.91631945045E+03  0.17930360475E+04  0.00000000000E+00 0. -1.
          4    1    6    6  502    0  0.14211064804E+03  0.30002852535E+03  0.15055119594E+03  0.36452464238E+03  0.00000000000E+00 0. -1.
          1    1    5    5  503    0  0.65655738496E+03  0.15603447727E+03 -0.51835174429E+02  0.67683176872E+03  0.00000000000E+00 0. -1.
         -2    1    5    5    0  503  0.61151426269E+03  0.21136453550E+03 -0.97172971583E+02  0.65426848216E+03  0.00000000000E+00 0.  1.
         -3    1    6    6    0  502  0.18218808140E+03  0.23381818578E+03  0.17605342645E+03  0.34475824859E+03  0.00000000000E+00 0.  1.
<mgrwt>
<rscale>  0 0.40800168E+04</rscale>
<asrwt>0</asrwt>
<pdfrwt beam="1">  1        2 0.24967384E+00 0.40800168E+04</pdfrwt>
<pdfrwt beam="2">  1       -2 0.39451557E+00 0.40800168E+04</pdfrwt>
<totfact> 0.68384321E-02</totfact>
</mgrwt>
</event>
<event>
12    1  0.2083715E-007  0.2993953E+04  0.7818608E-02  0.8245460E-01
         -1   -1    0    0    0  501 -0.00000000000E+00  0.00000000000E+00  0.18089150608E+04  0.18089150608E+04  0.00000000000E+00 0.  1.
          1   -1    0    0  501    0  0.00000000000E+00 -0.00000000000E+00 -0.12388301097E+04  0.12388301097E+04  0.00000000000E+00 0. -1.
         23    2    1    2    0    0  0.31573625753E+03 -0.13230469395E+04  0.26818439541E+03  0.13892577783E+04  0.89284468254E+02 0.  0.
        254    2    1    2    0    0 -0.31573625753E+03  0.13230469395E+04  0.30190055566E+03  0.16584873922E+04  0.89960763460E+03 0.  0.
        -24    2    4    4    0    0 -0.36140099717E+03  0.13632197608E+04  0.78901708658E+02  0.14142916674E+04  0.70828270295E+02 0.  0.
         24    2    4    4    0    0  0.45664739639E+02 -0.40172821277E+02  0.22299884701E+03  0.24419572485E+03  0.78765108087E+02 0.  0.
         11    1    3    3    0    0  0.25654110066E+03 -0.10174464308E+04  0.17081172071E+03  0.10631026384E+04  0.00000000000E+00 0. -1.
        -11    1    3    3    0    0  0.59195156867E+02 -0.30560050872E+03  0.97372674699E+02  0.32615513993E+03  0.00000000000E+00 0.  1.
          2    1    6    6  502    0 -0.15926961115E+02  0.67667567402E+01  0.77109759721E+02  0.79027666873E+02  0.00000000000E+00 0. -1.
          1    1    5    5  503    0 -0.94781706201E+02  0.39822953005E+03 -0.75252496128E+01  0.40942271531E+03  0.00000000000E+00 0. -1.
         -2    1    5    5    0  503 -0.26661929097E+03  0.96499023072E+03  0.86426958271E+02  0.10048689521E+04  0.00000000000E+00 0.  1.
         -1    1    6    6    0  502  0.61591700754E+02 -0.46939578017E+02  0.14588908729E+03  0.16516805797E+03  0.00000000000E+00 0.  1.
<mgrwt>
<rscale>  0 0.29939529E+04</rscale>
<asrwt>0</asrwt>
<pdfrwt beam="1">  1        1 0.19058925E+00 0.29939529E+04</pdfrwt>
<pdfrwt beam="2">  1       -1 0.27829462E+00 0.29939529E+04</pdfrwt>
<totfact> 0.38915692E-01</totfact>
</mgrwt>
</event>
<event>
12    1  0.2083715E-007  0.2906313E+04  0.7818608E-02  0.8271002E-01
          1   -1    0    0  501    0  0.00000000000E+00  0.00000000000E+00  0.17980716462E+04  0.17980716462E+04  0.00000000000E+00 0. -1.
         -1   -1    0    0    0  501 -0.00000000000E+00 -0.00000000000E+00 -0.11744049917E+04  0.11744049917E+04  0.00000000000E+00 0.  1.
         23    2    1    2    0    0  0.96363287260E+03  0.87852655956E+03  0.13910162990E+03  0.13144360984E+04  0.89419037580E+02 0.  0.
        254    2    1    2    0    0 -0.96363287260E+03 -0.87852655956E+03  0.48456502453E+03  0.16580405395E+04  0.90216292249E+03 0.  0.
        -24    2    4    4    0    0 -0.22176766194E+03 -0.45402895651E+03 -0.21079561180E+03  0.55333247397E+03  0.80117710698E+02 0.  0.
         24    2    4    4    0    0 -0.74186521066E+03 -0.42449760305E+03  0.69536063634E+03  0.11047080656E+04  0.79317650938E+02 0.  0.
         13    1    3    3    0    0  0.55377699158E+02  0.80741702298E+02  0.34281136508E+01  0.97967668224E+02  0.00000000000E+00 0. -1.
        -13    1    3    3    0    0  0.90825517344E+03  0.79778485726E+03  0.13567351625E+03  0.12164684302E+04  0.00000000000E+00 0.  1.
          4    1    6    6  502    0 -0.58037134560E+03 -0.34370123949E+03  0.50729773744E+03  0.84398603971E+03  0.00000000000E+00 0. -1.
          1    1    5    5  503    0 -0.51152143304E+01 -0.12485278453E+02 -0.23395928858E+02  0.27007722651E+02  0.00000000000E+00 0. -1.
         -2    1    5    5    0  503 -0.21665244761E+03 -0.44154367806E+03 -0.18739968295E+03  0.52632475132E+03  0.00000000000E+00 0.  1.
         -3    1    6    6    0  502 -0.16149386506E+03 -0.80796363563E+02  0.18806289890E+03  0.26072202584E+03  0.00000000000E+00 0.  1.
<mgrwt>
<rscale>  0 0.29063133E+04</rscale>
<asrwt>0</asrwt>
<pdfrwt beam="1">  1        1 0.27662641E+00 0.29063133E+04</pdfrwt>
<pdfrwt beam="2">  1       -1 0.18067769E+00 0.29063133E+04</pdfrwt>
<totfact> 0.72145460E-01</totfact>
</mgrwt>
</event>
<event>
12    1  0.2083715E-007  0.1563387E+04  0.7818608E-02  0.8843362E-01
          2   -1    0    0  501    0  0.00000000000E+00  0.00000000000E+00  0.16907577127E+04  0.16907577127E+04  0.00000000000E+00 0. -1.
         -2   -1    0    0    0  501 -0.00000000000E+00 -0.00000000000E+00 -0.36140270812E+03  0.36140270812E+03  0.00000000000E+00 0.  1.
         23    2    1    2    0    0 -0.48873306796E+03 -0.15708467512E+03  0.52805694369E+03  0.74298787541E+03  0.98240726582E+02 0.  0.
        254    2    1    2    0    0  0.48873306796E+03  0.15708467512E+03  0.80129806091E+03  0.13091725454E+04  0.89906538383E+03 0.  0.
        -24    2    4    4    0    0  0.11569910660E+03  0.32145131230E+03  0.82174125133E+03  0.89344244000E+03  0.79142150579E+02 0.  0.
         24    2    4    4    0    0  0.37303396137E+03 -0.16436663718E+03 -0.20443190418E+02  0.41573010543E+03  0.79011826812E+02 0.  0.
         13    1    3    3    0    0 -0.33104386260E+03 -0.76389352623E+02  0.29284186540E+03  0.44853286423E+03  0.00000000000E+00 0.  1.
        -13    1    3    3    0    0 -0.15768920536E+03 -0.80695322500E+02  0.23521507829E+03  0.29445501119E+03  0.00000000000E+00 0. -1.
          2    1    6    6  502    0  0.34882275572E+03 -0.14476835597E+03  0.14208521498E+01  0.37767341795E+03  0.00000000000E+00 0. -1.
          1    1    5    5  503    0  0.10418075770E+03  0.22832690050E+03  0.51906147881E+03  0.57655149167E+03  0.00000000000E+00 0. -1.
         -2    1    5    5    0  503  0.11518348900E+02  0.93124411796E+02  0.30267977252E+03  0.31689094832E+03  0.00000000000E+00 0.  1.
         -1    1    6    6    0  502  0.24211205643E+02 -0.19598281203E+02 -0.21864042568E+02  0.38056687483E+02  0.00000000000E+00 0.  1.
<mgrwt>
<rscale>  0 0.15633866E+04</rscale>
<asrwt>0</asrwt>
<pdfrwt beam="1">  1        2 0.26011657E+00 0.15633866E+04</pdfrwt>
<pdfrwt beam="2">  1       -2 0.55600418E-01 0.15633866E+04</pdfrwt>
<totfact> 0.29000857E+01</totfact>
</mgrwt>
</event>
<event>
12    1  0.2083715E-007  0.1393572E+04  0.7818608E-02  0.8958485E-01
         -2   -1    0    0    0  501 -0.00000000000E+00  0.00000000000E+00  0.89479193693E+03  0.89479193693E+03  0.00000000000E+00 0.  1.
          2   -1    0    0  501    0  0.00000000000E+00 -0.00000000000E+00 -0.54259629989E+03  0.54259629989E+03  0.00000000000E+00 0. -1.
         23    2    1    2    0    0 -0.39091787384E+03  0.69842411392E+02  0.10697176294E+03  0.41996401440E+03  0.85041571043E+02 0.  0.
        254    2    1    2    0    0  0.39091787384E+03 -0.69842411392E+02  0.24522387409E+03  0.10174242224E+04  0.90405893250E+03 0.  0.
        -24    2    4    4    0    0  0.43427964247E+03 -0.26084170332E+03  0.47933940502E+03  0.70203509320E+03  0.80310676905E+02 0.  0.
         24    2    4    4    0    0 -0.43361768633E+02  0.19099929193E+03 -0.23411553093E+03  0.31538912922E+03  0.79367805243E+02 0.  0.
         13    1    3    3    0    0 -0.25065034845E+03  0.55454433763E+02  0.27691407026E+02  0.25820070764E+03  0.00000000000E+00 0. -1.
        -13    1    3    3    0    0 -0.14026752539E+03  0.14387977629E+02  0.79280355917E+02  0.16176330676E+03  0.00000000000E+00 0.  1.
          4    1    6    6  502    0 -0.21106875850E+02  0.16967785948E+03 -0.22622790464E+03  0.28357563549E+03  0.00000000000E+00 0. -1.
          1    1    5    5  503    0  0.20929334823E+03 -0.14388631985E+03  0.29051385682E+03  0.38588246871E+03  0.00000000000E+00 0. -1.
         -2    1    5    5    0  503  0.22498629424E+03 -0.11695538348E+03  0.18882554820E+03  0.31615262450E+03  0.00000000000E+00 0.  1.
         -3    1    6    6    0  502 -0.22254892783E+02  0.21321432454E+02 -0.78876262872E+01  0.31813493727E+02  0.00000000000E+00 0.  1.
<mgrwt>
<rscale>  0 0.13935721E+04</rscale>
<asrwt>0</asrwt>
<pdfrwt beam="1">  1        2 0.83476354E-01 0.13935721E+04</pdfrwt>
<pdfrwt beam="2">  1       -2 0.13766030E+00 0.13935721E+04</pdfrwt>
<totfact> 0.20426895E+01</totfact>
</mgrwt>
</event>
<event>
12    1  0.2083715E-007  0.1994246E+04  0.7818608E-02  0.8609316E-01
         -2   -1    0    0    0  501 -0.00000000000E+00  0.00000000000E+00  0.93274262325E+03  0.93274262325E+03  0.00000000000E+00 0.  1.
          2   -1    0    0  501    0  0.00000000000E+00 -0.00000000000E+00 -0.10659466031E+04  0.10659466031E+04  0.00000000000E+00 0. -1.
         23    2    1    2    0    0 -0.72965317941E+03  0.25600389416E+03  0.11365873489E+03  0.78677773364E+03  0.90383284401E+02 0.  0.
        254    2    1    2    0    0  0.72965317941E+03 -0.25600389416E+03 -0.24686271472E+03  0.12119114927E+04  0.89992027988E+03 0.  0.
        -24    2    4    4    0    0  0.53213881382E+03 -0.32036986073E+03 -0.55185956904E+03  0.83472876936E+03  0.80091008317E+02 0.  0.
         24    2    4    4    0    0  0.19751436559E+03  0.64365966569E+02  0.30499685432E+03  0.37718272333E+03  0.78030912893E+02 0.  0.
         11    1    3    3    0    0 -0.41183285877E+03  0.13700766359E+03  0.10845948713E+03  0.44737105829E+03  0.00000000000E+00 0.  1.
        -11    1    3    3    0    0 -0.31782032064E+03  0.11899623057E+03  0.51992477611E+01  0.33940667536E+03  0.00000000000E+00 0. -1.
          4    1    6    6  502    0  0.93385045307E+02  0.55715926681E-02  0.89525387422E+02  0.12936599905E+03  0.00000000000E+00 0. -1.
          3    1    5    5  503    0  0.40316819252E+02 -0.31159732132E+02 -0.77443735317E+02  0.92703327669E+02  0.00000000000E+00 0. -1.
         -4    1    5    5    0  503  0.49182199457E+03 -0.28921012860E+03 -0.47441583372E+03  0.74202544169E+03  0.00000000000E+00 0.  1.
         -3    1    6    6    0  502  0.10412932028E+03  0.64360394977E+02  0.21547146690E+03  0.24781672427E+03  0.00000000000E+00 0.  1.
<mgrwt>
<rscale>  0 0.19942456E+04</rscale>
<asrwt>0</asrwt>
<pdfrwt beam="1">  1        2 0.16399179E+00 0.19942456E+04</pdfrwt>
<pdfrwt beam="2">  1       -2 0.14349886E+00 0.19942456E+04</pdfrwt>
<totfact> 0.71598845E+00</totfact>
</mgrwt>
</event>
<event>
12    1  0.2083715E-007  0.2156695E+04  0.7818608E-02  0.8536672E-01
         -2   -1    0    0    0  501 -0.00000000000E+00  0.00000000000E+00  0.84035109274E+03  0.84035109274E+03  0.00000000000E+00 0.  1.
          2   -1    0    0  501    0  0.00000000000E+00 -0.00000000000E+00 -0.13837473684E+04  0.13837473684E+04  0.00000000000E+00 0. -1.
         23    2    1    2    0    0  0.45813398558E+03 -0.22217684987E+03 -0.97578612759E+03  0.11042891166E+04  0.89702758040E+02 0.  0.
        254    2    1    2    0    0 -0.45813398558E+03  0.22217684987E+03  0.43238985197E+03  0.11198093445E+04  0.89875618645E+03 0.  0.
        -24    2    4    4    0    0  0.14973852887E+03 -0.19479015727E+03  0.24181008816E+03  0.35396640496E+03  0.80344661993E+02 0.  0.
         24    2    4    4    0    0 -0.60787251444E+03  0.41696700713E+03  0.19057976381E+03  0.76584293958E+03  0.82609217900E+02 0.  0.
         11    1    3    3    0    0  0.16774745980E+03 -0.82552460566E+02 -0.45462828145E+03  0.49156992718E+03  0.00000000000E+00 0. -1.
        -11    1    3    3    0    0  0.29038652578E+03 -0.13962438930E+03 -0.52115784615E+03  0.61271918939E+03  0.00000000000E+00 0.  1.
          2    1    6    6  502    0 -0.13454242890E+03  0.11993067619E+03  0.74914452786E+02  0.19518505962E+03  0.00000000000E+00 0. -1.
          1    1    5    5  503    0  0.44870232710E+01 -0.59765600939E+02  0.62748449090E+02  0.86772278388E+02  0.00000000000E+00 0. -1.
         -2    1    5    5    0  503  0.14525150560E+03 -0.13502455633E+03  0.17906163907E+03  0.26719412657E+03  0.00000000000E+00 0.  1.
         -1    1    6    6    0  502 -0.47333008555E+03  0.29703633095E+03  0.11566531102E+03  0.57065787996E+03  0.00000000000E+00 0.  1.
<mgrwt>
<rscale>  0 0.21566953E+04</rscale>
<asrwt>0</asrwt>
<pdfrwt beam="1">  1        2 0.21288421E+00 0.21566953E+04</pdfrwt>
<pdfrwt beam="2">  1       -2 0.12928478E+00 0.21566953E+04</pdfrwt>
<totfact> 0.59739276E+00</totfact>
</mgrwt>
</event>
<event>
12    1  0.2083715E-007  0.1852188E+04  0.7818608E-02  0.8679028E-01
          2   -1    0    0  501    0  0.00000000000E+00  0.00000000000E+00  0.26431662645E+04  0.26431662645E+04  0.00000000000E+00 0. -1.
         -2   -1    0    0    0  501 -0.00000000000E+00 -0.00000000000E+00 -0.32447836523E+03  0.32447836523E+03  0.00000000000E+00 0.  1.
         23    2    1    2    0    0 -0.22516471753E+03 -0.56931635458E+03  0.33158022430E+03  0.70237036408E+03  0.92511737500E+02 0.  0.
        254    2    1    2    0    0  0.22516471753E+03  0.56931635458E+03  0.19871076749E+04  0.22652742656E+04  0.89891619467E+03 0.  0.
        -24    2    4    4    0    0 -0.17131733128E+03 -0.12126528101E+03  0.17715405755E+03  0.28610995392E+03  0.80127705884E+02 0.  0.
         24    2    4    4    0    0  0.39648204881E+03  0.69058163560E+03  0.18099536174E+04  0.19791643117E+04  0.84013481930E+02 0.  0.
         13    1    3    3    0    0 -0.92287254021E+00 -0.80496625487E+02  0.56089815845E+02  0.98115370102E+02  0.00000000000E+00 0. -1.
        -13    1    3    3    0    0 -0.22424184499E+03 -0.48881972910E+03  0.27549040845E+03  0.60425499398E+03  0.00000000000E+00 0.  1.
          4    1    6    6  502    0  0.10623203180E+03  0.26561761117E+03  0.63913859177E+03  0.70024002987E+03  0.00000000000E+00 0. -1.
          1    1    5    5  503    0 -0.37659211190E+02 -0.73758957458E+02  0.65671358543E+02  0.10569449998E+03  0.00000000000E+00 0. -1.
         -2    1    5    5    0  503 -0.13365812009E+03 -0.47506323554E+02  0.11148269901E+03  0.18041545394E+03  0.00000000000E+00 0.  1.
         -3    1    6    6    0  502  0.29025001701E+03  0.42496402442E+03  0.11708150256E+04  0.12789242818E+04  0.00000000000E+00 0.  1.
<mgrwt>
<rscale>  0 0.18521882E+04</rscale>
<asrwt>0</asrwt>
<pdfrwt beam="1">  1        2 0.40664095E+00 0.18521882E+04</pdfrwt>
<pdfrwt beam="2">  1       -2 0.49919750E-01 0.18521882E+04</pdfrwt>
<totfact> 0.10260065E+01</totfact>
</mgrwt>
</event>
<event>
12    1  0.2083715E-007  0.2024361E+04  0.7818608E-02  0.8595315E-01
         -2   -1    0    0    0  501 -0.00000000000E+00  0.00000000000E+00  0.13802531225E+04  0.13802531225E+04  0.00000000000E+00 0.  1.
          2   -1    0    0  501    0  0.00000000000E+00 -0.00000000000E+00 -0.74226221362E+03  0.74226221362E+03  0.00000000000E+00 0. -1.
         23    2    1    2    0    0  0.17827314318E+03  0.61482147951E+03 -0.25979308543E+03  0.69869525016E+03  0.10438314091E+03 0.  0.
        254    2    1    2    0    0 -0.17827314318E+03 -0.61482147951E+03  0.89778399430E+03  0.14238200860E+04  0.90081117416E+03 0.  0.
        -24    2    4    4    0    0 -0.37581879115E+03 -0.63776731179E+03  0.94529474467E+03  0.12031283713E+04  0.77128566347E+02 0.  0.
         24    2    4    4    0    0  0.19754564797E+03  0.22945832281E+02 -0.47510750373E+02  0.22069171465E+03  0.83046777576E+02 0.  0.
         11    1    3    3    0    0  0.78174540026E+02  0.12506430025E+03 -0.41387741746E+02  0.15318382118E+03  0.00000000000E+00 0. -1.
        -11    1    3    3    0    0  0.10009860315E+03  0.48975717926E+03 -0.21840534368E+03  0.54551142898E+03  0.00000000000E+00 0.  1.
          4    1    6    6  502    0  0.17627093624E+03  0.39783826274E+02 -0.19596165580E+02  0.18176414801E+03  0.00000000000E+00 0. -1.
          1    1    5    5  503    0 -0.33391515874E+03 -0.50832649332E+03  0.76873503793E+03  0.98022890979E+03  0.00000000000E+00 0. -1.
         -2    1    5    5    0  503 -0.41903632409E+02 -0.12944081847E+03  0.17655970674E+03  0.22289946151E+03  0.00000000000E+00 0.  1.
         -3    1    6    6    0  502  0.21274711731E+02 -0.16837993993E+02 -0.27914584794E+02  0.38927566648E+02  0.00000000000E+00 0.  1.
<mgrwt>
<rscale>  0 0.20243614E+04</rscale>
<asrwt>0</asrwt>
<pdfrwt beam="1">  1        2 0.11419419E+00 0.20243614E+04</pdfrwt>
<pdfrwt beam="2">  1       -2 0.21234663E+00 0.20243614E+04</pdfrwt>
<totfact> 0.38955519E+00</totfact>
</mgrwt>
</event>
<event>
12    1  0.2083715E-007  0.1506377E+04  0.7818608E-02  0.8880224E-01
         -2   -1    0    0    0  501 -0.00000000000E+00  0.00000000000E+00  0.31064629002E+03  0.31064629002E+03  0.00000000000E+00 0.  1.
          2   -1    0    0  501    0  0.00000000000E+00 -0.00000000000E+00 -0.18261691434E+04  0.18261691434E+04  0.00000000000E+00 0. -1.
         23    2    1    2    0    0  0.43138786741E+03  0.20702980025E+03 -0.50925059555E+03  0.70471153783E+03  0.91243367679E+02 0.  0.
        254    2    1    2    0    0 -0.43138786741E+03 -0.20702980025E+03 -0.10062722578E+04  0.14321038955E+04  0.89965597899E+03 0.  0.
        -24    2    4    4    0    0 -0.51959344582E+03 -0.48365550603E+03 -0.75899439923E+03  0.10420893104E+04  0.77315169218E+02 0.  0.
         24    2    4    4    0    0  0.88205578416E+02  0.27662570578E+03 -0.24727785855E+03  0.39001458512E+03  0.81627398091E+02 0.  0.
         13    1    3    3    0    0  0.31575443386E+03  0.16814675396E+03 -0.32249210340E+03  0.48163819421E+03  0.00000000000E+00 0.  1.
        -13    1    3    3    0    0  0.11563343355E+03  0.38883046294E+02 -0.18675849215E+03  0.22307334362E+03  0.00000000000E+00 0. -1.
          4    1    6    6  502    0 -0.22492396432E+00 -0.35724506904E+01  0.25050984610E+01  0.43690402865E+01  0.00000000000E+00 0. -1.
          1    1    5    5  503    0 -0.49198031310E+02 -0.49529323075E+02 -0.44451269805E+02  0.82761799861E+02  0.00000000000E+00 0. -1.
         -2    1    5    5    0  503 -0.47039541451E+03 -0.43412618295E+03 -0.71454312942E+03  0.95932751056E+03  0.00000000000E+00 0.  1.
         -3    1    6    6    0  502  0.88430502380E+02  0.28019815647E+03 -0.24978295701E+03  0.38564554484E+03  0.00000000000E+00 0.  1.
<mgrwt>
<rscale>  0 0.15063767E+04</rscale>
<asrwt>0</asrwt>
<pdfrwt beam="1">  1        2 0.28094910E+00 0.15063767E+04</pdfrwt>
<pdfrwt beam="2">  1       -2 0.47791737E-01 0.15063767E+04</pdfrwt>
<totfact> 0.33432606E+01</totfact>
</mgrwt>
</event>
<event>
12    1  0.2083715E-007  0.1392244E+04  0.7818608E-02  0.8959452E-01
         -1   -1    0    0    0  501 -0.00000000000E+00  0.00000000000E+00  0.30833621842E+03  0.30833621842E+03  0.00000000000E+00 0.  1.
          1   -1    0    0  501    0  0.00000000000E+00 -0.00000000000E+00 -0.15716147687E+04  0.15716147687E+04  0.00000000000E+00 0. -1.
         23    2    1    2    0    0  0.24848208469E+03  0.15413579730E+02 -0.79112451759E+03  0.83457343220E+03  0.93026268089E+02 0.  0.
        254    2    1    2    0    0 -0.24848208469E+03 -0.15413579730E+02 -0.47215403271E+03  0.10453775549E+04  0.89883473281E+03 0.  0.
        -24    2    4    4    0    0 -0.28921231597E+03 -0.44527919450E+02 -0.71925689191E+03  0.78110796356E+03  0.84691645749E+02 0.  0.
         24    2    4    4    0    0  0.40730231285E+02  0.29114339720E+02  0.24710285919E+03  0.26426959137E+03  0.79195942982E+02 0.  0.
         13    1    3    3    0    0  0.13516558017E+03 -0.36961711322E+02 -0.38577739915E+03  0.41043891612E+03  0.00000000000E+00 0. -1.
        -13    1    3    3    0    0  0.11331650452E+03  0.52375291052E+02 -0.40534711844E+03  0.42413451609E+03  0.00000000000E+00 0.  1.
          4    1    6    6  502    0  0.62634608678E+02  0.16134018897E+02  0.20604028953E+03  0.21595370263E+03  0.00000000000E+00 0. -1.
          3    1    5    5  503    0 -0.12310890710E+03  0.21016395774E+02 -0.33019404779E+03  0.35302351352E+03  0.00000000000E+00 0. -1.
         -4    1    5    5    0  503 -0.16610340888E+03 -0.65544315224E+02 -0.38906284411E+03  0.42808445004E+03  0.00000000000E+00 0.  1.
         -3    1    6    6    0  502 -0.21904377393E+02  0.12980320823E+02  0.41062569661E+02  0.48315888741E+02  0.00000000000E+00 0.  1.
<mgrwt>
<rscale>  0 0.13922439E+04</rscale>
<asrwt>0</asrwt>
<pdfrwt beam="1">  1        1 0.24178689E+00 0.13922439E+04</pdfrwt>
<pdfrwt beam="2">  1       -1 0.47436341E-01 0.13922439E+04</pdfrwt>
<totfact> 0.25257743E+01</totfact>
</mgrwt>
</event>
<event>
12    1  0.2083715E-007  0.1618664E+04  0.7818608E-02  0.8809163E-01
          1   -1    0    0  501    0  0.00000000000E+00  0.00000000000E+00  0.14810530928E+04  0.14810530928E+04  0.00000000000E+00 0. -1.
         -1   -1    0    0    0  501 -0.00000000000E+00 -0.00000000000E+00 -0.44226549143E+03  0.44226549143E+03  0.00000000000E+00 0.  1.
         23    2    1    2    0    0 -0.28406693211E+03  0.47188071484E+03  0.44428407879E+03  0.71346080663E+03  0.90953553951E+02 0.  0.
        254    2    1    2    0    0  0.28406693211E+03 -0.47188071484E+03  0.59450352260E+03  0.12098577776E+04  0.89830728191E+03 0.  0.
        -24    2    4    4    0    0  0.17993598493E+03 -0.66440451115E+03  0.67107446653E+03  0.96473157082E+03  0.80967592265E+02 0.  0.
         24    2    4    4    0    0  0.10413094718E+03  0.19252379631E+03 -0.76570943927E+02  0.24512620680E+03  0.79467487080E+02 0.  0.
         13    1    3    3    0    0 -0.53161136823E+02  0.15926398889E+03  0.16008969991E+03  0.23199102707E+03  0.00000000000E+00 0.  1.
        -13    1    3    3    0    0 -0.23090579528E+03  0.31261672595E+03  0.28419437888E+03  0.48146977956E+03  0.00000000000E+00 0. -1.
          4    1    6    6  502    0  0.25142449367E+02  0.12765481724E+03 -0.51153216787E+02  0.13980181227E+03  0.00000000000E+00 0. -1.
          3    1    5    5  503    0  0.17870845769E+03 -0.63899410936E+03  0.62206955940E+03  0.90951675156E+03  0.00000000000E+00 0. -1.
         -4    1    5    5    0  503  0.12275272346E+01 -0.25410401790E+02  0.49004907130E+02  0.55214819252E+02  0.00000000000E+00 0.  1.
         -3    1    6    6    0  502  0.78988497810E+02  0.64868979063E+02 -0.25417727141E+02  0.10532439453E+03  0.00000000000E+00 0.  1.
<mgrwt>
<rscale>  0 0.16186645E+04</rscale>
<asrwt>0</asrwt>
<pdfrwt beam="1">  1        1 0.22785432E+00 0.16186645E+04</pdfrwt>
<pdfrwt beam="2">  1       -1 0.68040846E-01 0.16186645E+04</pdfrwt>
<totfact> 0.14126921E+01</totfact>
</mgrwt>
</event>
<event>
12    1  0.2083715E-007  0.1282021E+04  0.7818608E-02  0.9043945E-01
          1   -1    0    0  501    0  0.00000000000E+00  0.00000000000E+00  0.53519236354E+03  0.53519236354E+03  0.00000000000E+00 0. -1.
         -1   -1    0    0    0  501 -0.00000000000E+00 -0.00000000000E+00 -0.76775153184E+03  0.76775153184E+03  0.00000000000E+00 0.  1.
         23    2    1    2    0    0 -0.30918665753E+03 -0.30785005438E+02 -0.10715115287E+03  0.34135929652E+03  0.92199208260E+02 0.  0.
        254    2    1    2    0    0  0.30918665753E+03  0.30785005438E+02 -0.12540801543E+03  0.96158459885E+03  0.90131773790E+03 0.  0.
        -24    2    4    4    0    0  0.17533402575E+03 -0.46372004137E+02  0.37919341865E+03  0.42797297010E+03  0.80503608798E+02 0.  0.
         24    2    4    4    0    0  0.13385263178E+03  0.77157009575E+02 -0.50460143408E+03  0.53361162876E+03  0.79050818498E+02 0.  0.
         13    1    3    3    0    0 -0.35558565951E+01 -0.67380946987E+01  0.10509640207E+02  0.12980700042E+02  0.00000000000E+00 0. -1.
        -13    1    3    3    0    0 -0.30563080094E+03 -0.24046910739E+02 -0.11766079308E+03  0.32837859648E+03  0.00000000000E+00 0.  1.
          2    1    6    6  502    0 -0.80029426393E+01 -0.37033525819E+01 -0.13944219740E+02  0.16498581012E+02  0.00000000000E+00 0. -1.
          3    1    5    5  503    0  0.87065322682E+02  0.14303923664E+02  0.13443617906E+03  0.16080441190E+03  0.00000000000E+00 0. -1.
         -4    1    5    5    0  503  0.88268703068E+02 -0.60675927801E+02  0.24475723960E+03  0.26716855820E+03  0.00000000000E+00 0.  1.
         -1    1    6    6    0  502  0.14185557442E+03  0.80860362157E+02 -0.49065721434E+03  0.51711304774E+03  0.00000000000E+00 0.  1.
<mgrwt>
<rscale>  0 0.12820215E+04</rscale>
<asrwt>0</asrwt>
<pdfrwt beam="1">  1        1 0.82337287E-01 0.12820215E+04</pdfrwt>
<pdfrwt beam="2">  1       -1 0.11811562E+00 0.12820215E+04</pdfrwt>
<totfact> 0.25532745E+01</totfact>
</mgrwt>
</event>
<event>
12    1  0.2083715E-007  0.1452505E+04  0.7818608E-02  0.8916666E-01
         -2   -1    0    0    0  501 -0.00000000000E+00  0.00000000000E+00  0.53042678053E+03  0.53042678053E+03  0.00000000000E+00 0.  1.
          2   -1    0    0  501    0  0.00000000000E+00 -0.00000000000E+00 -0.99437374512E+03  0.99437374512E+03  0.00000000000E+00 0. -1.
         23    2    1    2    0    0  0.34054437120E+03  0.22686686572E+03  0.42675718944E+02  0.42150010798E+03  0.91662863369E+02 0.  0.
        254    2    1    2    0    0 -0.34054437120E+03 -0.22686686572E+03 -0.50662268354E+03  0.11033004177E+04  0.89059880116E+03 0.  0.
        -24    2    4    4    0    0 -0.34497375748E+03  0.25293756916E+03 -0.53872215491E+02  0.43889135762E+03  0.82092027299E+02 0.  0.
         24    2    4    4    0    0  0.44293862761E+01 -0.47980443488E+03 -0.45275046805E+03  0.66440906005E+03  0.78895485104E+02 0.  0.
         11    1    3    3    0    0  0.33916276299E+02  0.61332228573E+02  0.16878893875E+02  0.72089202508E+02  0.00000000000E+00 0.  1.
        -11    1    3    3    0    0  0.30662809491E+03  0.16553463714E+03  0.25796825068E+02  0.34941090547E+03  0.00000000000E+00 0. -1.
          2    1    6    6  502    0  0.24027404800E+02 -0.21178624428E+03 -0.15648784683E+03  0.26442234334E+03  0.00000000000E+00 0. -1.
          3    1    5    5  503    0 -0.15269716398E+03  0.90806122282E+02 -0.59390282497E+02  0.18732159883E+03  0.00000000000E+00 0. -1.
         -4    1    5    5    0  503 -0.19227659350E+03  0.16213144688E+03  0.55180670058E+01  0.25156975879E+03  0.00000000000E+00 0.  1.
         -1    1    6    6    0  502 -0.19598018524E+02 -0.26801819059E+03 -0.29626262121E+03  0.39998671671E+03  0.00000000000E+00 0.  1.
<mgrwt>
<rscale>  0 0.14525047E+04</rscale>
<asrwt>0</asrwt>
<pdfrwt beam="1">  1        2 0.15298057E+00 0.14525047E+04</pdfrwt>
<pdfrwt beam="2">  1       -2 0.81604121E-01 0.14525047E+04</pdfrwt>
<totfact> 0.32559749E+01</totfact>
</mgrwt>
</event>
<event>
12    1  0.2083715E-007  0.2558377E+04  0.7818608E-02  0.8382479E-01
          2   -1    0    0  501    0  0.00000000000E+00  0.00000000000E+00  0.15317813251E+04  0.15317813251E+04  0.00000000000E+00 0. -1.
         -2   -1    0    0    0  501 -0.00000000000E+00 -0.00000000000E+00 -0.10682486198E+04  0.10682486198E+04  0.00000000000E+00 0.  1.
         23    2    1    2    0    0 -0.10264015093E+04  0.34433284027E+03 -0.86937551996E+02  0.10881753243E+04  0.67098698145E+02 0.  0.
        254    2    1    2    0    0  0.10264015093E+04 -0.34433284027E+03  0.55047025728E+03  0.15118546207E+04  0.90034533746E+03 0.  0.
        -24    2    4    4    0    0  0.13034526547E+03 -0.11741228928E+03 -0.22933140333E+03  0.29987375781E+03  0.80968167603E+02 0.  0.
         24    2    4    4    0    0  0.89605624384E+03 -0.22692055099E+03  0.77980166061E+03  0.12119808629E+04  0.79982832220E+02 0.  0.
         11    1    3    3    0    0 -0.84828016468E+03  0.25726085284E+03 -0.71298771068E+02  0.88929516976E+03  0.00000000000E+00 0. -1.
        -11    1    3    3    0    0 -0.17812134462E+03  0.87071987427E+02 -0.15638780928E+02  0.19888015455E+03  0.00000000000E+00 0.  1.
          2    1    6    6  502    0  0.29020601867E+03 -0.87694394871E+02  0.21084607232E+03  0.36927754653E+03  0.00000000000E+00 0. -1.
          3    1    5    5  503    0  0.49490958975E+02 -0.33453563134E+02 -0.14253303367E+03  0.15454501478E+03  0.00000000000E+00 0. -1.
         -4    1    5    5    0  503  0.80854306495E+02 -0.83958726147E+02 -0.86798369666E+02  0.14532874303E+03  0.00000000000E+00 0.  1.
         -1    1    6    6    0  502  0.60585022517E+03 -0.13922615612E+03  0.56895558829E+03  0.84270331632E+03  0.00000000000E+00 0.  1.
<mgrwt>
<rscale>  0 0.25583771E+04</rscale>
<asrwt>0</asrwt>
<pdfrwt beam="1">  1        2 0.23565867E+00 0.25583771E+04</pdfrwt>
<pdfrwt beam="2">  1       -2 0.16434594E+00 0.25583771E+04</pdfrwt>
<totfact> 0.25309468E+00</totfact>
</mgrwt>
</event>
<event>
12    1  0.2083715E-007  0.1174392E+04  0.7818608E-02  0.9135571E-01
          1   -1    0    0  501    0  0.00000000000E+00  0.00000000000E+00  0.57499077368E+03  0.57499077368E+03  0.00000000000E+00 0. -1.
         -1   -1    0    0    0  501 -0.00000000000E+00 -0.00000000000E+00 -0.59966021468E+03  0.59966021468E+03  0.00000000000E+00 0.  1.
         23    2    1    2    0    0  0.13764740002E+03 -0.18161709706E+03 -0.17903663770E+02  0.24589909615E+03  0.90632486648E+02 0.  0.
        254    2    1    2    0    0 -0.13764740002E+03  0.18161709706E+03 -0.67657772257E+01  0.92875189221E+03  0.90033478488E+03 0.  0.
        -24    2    4    4    0    0 -0.38743198228E+03 -0.21717126899E+03 -0.48215465826E+01  0.45144644496E+03  0.80707771508E+02 0.  0.
         24    2    4    4    0    0  0.24978458226E+03  0.39878836605E+03 -0.19442306431E+01  0.47730544726E+03  0.79951307159E+02 0.  0.
         11    1    3    3    0    0  0.54442638648E+02 -0.11753298567E+02  0.18164348473E+01  0.55726478138E+02  0.00000000000E+00 0. -1.
        -11    1    3    3    0    0  0.83204761372E+02 -0.16986379849E+03 -0.19720098617E+02  0.19017261801E+03  0.00000000000E+00 0.  1.
          4    1    6    6  502    0  0.16514800009E+03  0.19608041924E+03 -0.18406933165E+02  0.25702180439E+03  0.00000000000E+00 0. -1.
          3    1    5    5  503    0 -0.11009739169E+03 -0.63405161886E+02  0.35162968902E+02  0.13182596327E+03  0.00000000000E+00 0. -1.
         -4    1    5    5    0  503 -0.27733459059E+03 -0.15376610711E+03 -0.39984515485E+02  0.31962048168E+03  0.00000000000E+00 0.  1.
         -3    1    6    6    0  502  0.84636582175E+02  0.20270794681E+03  0.16462702522E+02  0.22028364287E+03  0.00000000000E+00 0.  1.
<mgrwt>
<rscale>  0 0.11743919E+04</rscale>
<asrwt>0</asrwt>
<pdfrwt beam="1">  1        1 0.88460119E-01 0.11743919E+04</pdfrwt>
<pdfrwt beam="2">  1       -1 0.92255418E-01 0.11743919E+04</pdfrwt>
<totfact> 0.41304799E+01</totfact>
</mgrwt>
</event>
<event>
12    1  0.2083715E-007  0.3649677E+04  0.7818608E-02  0.8079206E-01
          2   -1    0    0  501    0  0.00000000000E+00  0.00000000000E+00  0.33975688833E+04  0.33975688833E+04  0.00000000000E+00 0. -1.
         -2   -1    0    0    0  501 -0.00000000000E+00 -0.00000000000E+00 -0.98012285647E+03  0.98012285647E+03  0.00000000000E+00 0.  1.
         23    2    1    2    0    0 -0.15143516300E+04  0.52789874021E+03  0.41651771207E+03  0.16594694479E+04  0.91727338622E+02 0.  0.
        254    2    1    2    0    0  0.15143516300E+04 -0.52789874021E+03  0.20009283148E+04  0.27182222919E+04  0.90170969174E+03 0.  0.
        -24    2    4    4    0    0  0.64960930599E+03 -0.60749065638E+03  0.13954017940E+04  0.16564937792E+04  0.76081047799E+02 0.  0.
         24    2    4    4    0    0  0.86474232403E+03  0.79591916171E+02  0.60552652079E+03  0.10617285127E+04  0.80566167046E+02 0.  0.
         11    1    3    3    0    0 -0.28565344511E+03  0.11947943763E+03  0.48704307506E+02  0.31344112093E+03  0.00000000000E+00 0.  1.
        -11    1    3    3    0    0 -0.12286981849E+04  0.40841930258E+03  0.36781340457E+03  0.13460283269E+04  0.00000000000E+00 0. -1.
          4    1    6    6  502    0  0.85054654340E+02  0.82385391099E+01  0.91095828982E+02  0.12490243316E+03  0.00000000000E+00 0. -1.
          1    1    5    5  503    0  0.54669248866E+02 -0.57883863225E+02  0.89312665033E+02  0.11964957388E+03  0.00000000000E+00 0. -1.
         -2    1    5    5    0  503  0.59494005713E+03 -0.54960679316E+03  0.13060891290E+04  0.15368442053E+04  0.00000000000E+00 0.  1.
         -3    1    6    6    0  502  0.77968766969E+03  0.71353377061E+02  0.51443069181E+03  0.93682607957E+03  0.00000000000E+00 0.  1.
<mgrwt>
<rscale>  0 0.36496767E+04</rscale>
<asrwt>0</asrwt>
<pdfrwt beam="1">  1        2 0.52270290E+00 0.36496767E+04</pdfrwt>
<pdfrwt beam="2">  1       -2 0.15078813E+00 0.36496767E+04</pdfrwt>
<totfact> 0.22921071E-01</totfact>
</mgrwt>
</event>
<event>
12    1  0.2083715E-007  0.2241734E+04  0.7818608E-02  0.8501256E-01
          2   -1    0    0  501    0  0.00000000000E+00  0.00000000000E+00  0.12768800872E+04  0.12768800872E+04  0.00000000000E+00 0. -1.
         -2   -1    0    0    0  501 -0.00000000000E+00 -0.00000000000E+00 -0.98391577017E+03  0.98391577017E+03  0.00000000000E+00 0.  1.
         23    2    1    2    0    0  0.61706034292E+03 -0.11002883557E+03  0.82458060653E+03  0.10418039767E+04  0.11203810856E+03 0.  0.
        254    2    1    2    0    0 -0.61706034292E+03  0.11002883557E+03 -0.53161628952E+03  0.12189918806E+04  0.90025302794E+03 0.  0.
        -24    2    4    4    0    0 -0.78040365590E+03  0.27113582981E+03 -0.51153285853E+03  0.97499247070E+03  0.79999676420E+02 0.  0.
         24    2    4    4    0    0  0.16334331298E+03 -0.16110699424E+03 -0.20083430999E+02  0.24399940993E+03  0.80596937646E+02 0.  0.
         11    1    3    3    0    0  0.19948414801E+03 -0.11728770093E+02  0.18938677350E+03  0.27531589008E+03  0.00000000000E+00 0.  1.
        -11    1    3    3    0    0  0.41757619491E+03 -0.98300065478E+02  0.63519383303E+03  0.76648808663E+03  0.00000000000E+00 0. -1.
          2    1    6    6  502    0  0.38981029680E+02 -0.28366948965E+02  0.28138070195E+02  0.55820744019E+02  0.00000000000E+00 0. -1.
          1    1    5    5  503    0 -0.25661592004E+03  0.56589263913E+02 -0.18706490344E+03  0.32256371976E+03  0.00000000000E+00 0. -1.
         -2    1    5    5    0  503 -0.52378773586E+03  0.21454656590E+03 -0.32446795508E+03  0.65242875094E+03  0.00000000000E+00 0.  1.
         -1    1    6    6    0  502  0.12436228330E+03 -0.13274004527E+03 -0.48221501195E+02  0.18817866591E+03  0.00000000000E+00 0.  1.
<mgrwt>
<rscale>  0 0.22417337E+04</rscale>
<asrwt>0</asrwt>
<pdfrwt beam="1">  1        2 0.19644309E+00 0.22417337E+04</pdfrwt>
<pdfrwt beam="2">  1       -2 0.15137166E+00 0.22417337E+04</pdfrwt>
<totfact> 0.45440509E+00</totfact>
</mgrwt>
</event>
<event>
12    1  0.2083715E-007  0.1219037E+04  0.7818608E-02  0.9096355E-01
         -3   -1    0    0    0  501 -0.00000000000E+00  0.00000000000E+00  0.54893425685E+03  0.54893425685E+03  0.00000000000E+00 0.  1.
          3   -1    0    0  501    0  0.00000000000E+00 -0.00000000000E+00 -0.67678916572E+03  0.67678916572E+03  0.00000000000E+00 0. -1.
         23    2    1    2    0    0 -0.11495117842E+03  0.12624281539E+03 -0.23157562677E+03  0.30205101697E+03  0.91959361038E+02 0.  0.
        254    2    1    2    0    0  0.11495117842E+03 -0.12624281539E+03  0.10372071790E+03  0.92367240560E+03  0.90181023708E+03 0.  0.
        -24    2    4    4    0    0  0.47731673474E+03 -0.42663197907E+02 -0.94503621414E+02  0.49506760617E+03  0.80682008519E+02 0.  0.
         24    2    4    4    0    0 -0.36236555632E+03 -0.83579617480E+02  0.19822433931E+03  0.42860479944E+03  0.78197420287E+02 0.  0.
         11    1    3    3    0    0 -0.33145903229E+02 -0.30017736017E+01 -0.14038501522E+02  0.36121199739E+02  0.00000000000E+00 0.  1.
        -11    1    3    3    0    0 -0.81805275190E+02  0.12924458899E+03 -0.21753712525E+03  0.26592981723E+03  0.00000000000E+00 0. -1.
          4    1    6    6  502    0 -0.15971623276E+03  0.19919350924E+01  0.74895910833E+02  0.17641609981E+03  0.00000000000E+00 0. -1.
          3    1    5    5  503    0  0.45729925367E+03 -0.56574948225E+02 -0.83363400891E+02  0.46826572455E+03  0.00000000000E+00 0. -1.
         -4    1    5    5    0  503  0.20017481065E+02  0.13911750318E+02 -0.11140220523E+02  0.26801881621E+02  0.00000000000E+00 0.  1.
         -3    1    6    6    0  502 -0.20264932356E+03 -0.85571552572E+02  0.12332842848E+03  0.25218869963E+03  0.00000000000E+00 0.  1.
<mgrwt>
<rscale>  0 0.12190369E+04</rscale>
<asrwt>0</asrwt>
<pdfrwt beam="1">  1        3 0.10412141E+00 0.12190369E+04</pdfrwt>
<pdfrwt beam="2">  1       -3 0.84451424E-01 0.12190369E+04</pdfrwt>
<totfact> 0.26471214E+00</totfact>
</mgrwt>
</event>
<event>
12    1  0.2083715E-007  0.1303067E+04  0.7818608E-02  0.9027137E-01
          1   -1    0    0  501    0  0.00000000000E+00  0.00000000000E+00  0.25291981736E+04  0.25291981736E+04  0.00000000000E+00 0. -1.
         -1   -1    0    0    0  501 -0.00000000000E+00 -0.00000000000E+00 -0.16783812978E+03  0.16783812978E+03  0.00000000000E+00 0.  1.
         23    2    1    2    0    0  0.22951083071E+03 -0.20890386714E+03  0.38070717557E+03  0.49957504710E+03  0.91220759860E+02 0.  0.
        254    2    1    2    0    0 -0.22951083071E+03  0.20890386714E+03  0.19806528682E+04  0.21974612562E+04  0.89974115234E+03 0.  0.
        -24    2    4    4    0    0 -0.15267234310E+03  0.60172520963E+02 -0.22329450296E+02  0.18589881653E+03  0.84440446527E+02 0.  0.
         24    2    4    4    0    0 -0.76838487607E+02  0.14873134618E+03  0.20029823185E+04  0.20115624397E+04  0.80125614421E+02 0.  0.
         11    1    3    3    0    0  0.32764977179E+02 -0.18847425429E+02  0.10321405729E+03  0.10991774560E+03  0.00000000000E+00 0. -1.
        -11    1    3    3    0    0  0.19674585353E+03 -0.19005644172E+03  0.27749311828E+03  0.38965730150E+03  0.00000000000E+00 0.  1.
          4    1    6    6  502    0  0.56898862852E+01  0.65943994379E+02  0.57300703364E+03  0.57681716844E+03  0.00000000000E+00 0. -1.
          3    1    5    5  503    0 -0.10811411907E+03  0.50186087615E+02  0.23182478577E+02  0.12142789402E+03  0.00000000000E+00 0. -1.
         -4    1    5    5    0  503 -0.44558224029E+02  0.99864333481E+01 -0.45511928874E+02  0.64470922511E+02  0.00000000000E+00 0.  1.
         -3    1    6    6    0  502 -0.82528373892E+02  0.82787351803E+02  0.14299752849E+04  0.14347452713E+04  0.00000000000E+00 0.  1.
<mgrwt>
<rscale>  0 0.13030670E+04</rscale>
<asrwt>0</asrwt>
<pdfrwt beam="1">  1        1 0.38910738E+00 0.13030670E+04</pdfrwt>
<pdfrwt beam="2">  1       -1 0.25821253E-01 0.13030670E+04</pdfrwt>
<totfact> 0.16908655E+01</totfact>
</mgrwt>
</event>
<event>
12    1  0.2083715E-007  0.2090974E+04  0.7818608E-02  0.8565230E-01
         -1   -1    0    0    0  501 -0.00000000000E+00  0.00000000000E+00  0.65982468583E+03  0.65982468583E+03  0.00000000000E+00 0.  1.
          1   -1    0    0  501    0  0.00000000000E+00 -0.00000000000E+00 -0.16565653481E+04  0.16565653481E+04  0.00000000000E+00 0. -1.
         23    2    1    2    0    0 -0.33454655783E+03  0.67166605300E+03  0.31519653118E+02  0.75748156823E+03  0.98631392390E+02 0.  0.
        254    2    1    2    0    0  0.33454655783E+03 -0.67166605300E+03 -0.10282603154E+04  0.15589084657E+04  0.89989979563E+03 0.  0.
        -24    2    4    4    0    0  0.12871921052E+03 -0.27021553746E+03  0.11281931506E+03  0.32932759543E+03  0.78379815134E+02 0.  0.
         24    2    4    4    0    0  0.20582734731E+03 -0.40145051555E+03 -0.11410796305E+04  0.12295808703E+04  0.79240016489E+02 0.  0.
         11    1    3    3    0    0 -0.26870901739E+03  0.53356223991E+03  0.64799828883E+02  0.60090949210E+03  0.00000000000E+00 0.  1.
        -11    1    3    3    0    0 -0.65837540442E+02  0.13810381310E+03 -0.33280175765E+02  0.15657207613E+03  0.00000000000E+00 0. -1.
          2    1    6    6  502    0  0.95362180747E+01 -0.71726701187E+02 -0.14269577390E+03  0.15999294675E+03  0.00000000000E+00 0. -1.
          1    1    5    5  503    0  0.57154710974E+02 -0.64105877217E+02  0.60228188150E+02  0.10489832758E+03  0.00000000000E+00 0. -1.
         -4    1    5    5    0  503  0.71564499547E+02 -0.20610966024E+03  0.52591126908E+02  0.22442926785E+03  0.00000000000E+00 0.  1.
         -1    1    6    6    0  502  0.19629112923E+03 -0.32972381436E+03 -0.99838385657E+03  0.10695879236E+04  0.00000000000E+00 0.  1.
<mgrwt>
<rscale>  0 0.20909737E+04</rscale>
<asrwt>0</asrwt>
<pdfrwt beam="1">  1        1 0.25485620E+00 0.20909737E+04</pdfrwt>
<pdfrwt beam="2">  1       -1 0.10151149E+00 0.20909737E+04</pdfrwt>
<totfact> 0.43245728E+00</totfact>
</mgrwt>
</event>
<event>
12    1  0.2083715E-007  0.3441927E+04  0.7818608E-02  0.8127692E-01
         -2   -1    0    0    0  501 -0.00000000000E+00  0.00000000000E+00  0.11702876714E+04  0.11702876714E+04  0.00000000000E+00 0. -1.
          2   -1    0    0  501    0  0.00000000000E+00 -0.00000000000E+00 -0.25307582987E+04  0.25307582987E+04  0.00000000000E+00 0.  1.
         23    2    1    2    0    0  0.41458530631E+03 -0.13977345929E+04 -0.13503508605E+04  0.19894488546E+04  0.94426320460E+02 0.  0.
        254    2    1    2    0    0 -0.41458530631E+03  0.13977345929E+04 -0.10119766809E+02  0.17115971156E+04  0.89661547386E+03 0.  0.
        -24    2    4    4    0    0 -0.17004343210E+03  0.11704306419E+04 -0.34246902616E+03  0.12341104183E+04  0.83191551786E+02 0.  0.
         24    2    4    4    0    0 -0.24454187420E+03  0.22730395096E+03  0.33234925935E+03  0.47748669727E+03  0.77908289178E+02 0.  0.
         13    1    3    3    0    0  0.33685169109E+03 -0.11382130060E+04 -0.10475836552E+04  0.15831706868E+04  0.00000000000E+00 0. -1.
        -13    1    3    3    0    0  0.77733615212E+02 -0.25952158692E+03 -0.30276720532E+03  0.40627816780E+03  0.00000000000E+00 0.  1.
          2    1    6    6  502    0 -0.42432267705E+02  0.64606304778E+02  0.41512102698E+02  0.87736689190E+02  0.00000000000E+00 0. -1.
          3    1    5    5  503    0 -0.13599327152E+03  0.87698739445E+03 -0.29299592865E+03  0.93458422527E+03  0.00000000000E+00 0. -1.
         -4    1    5    5    0  503 -0.34050160577E+02  0.29344324748E+03 -0.49473097507E+02  0.29952619302E+03  0.00000000000E+00 0.  1.
         -1    1    6    6    0  502 -0.20210960650E+03  0.16269764618E+03  0.29083715665E+03  0.38975000808E+03  0.00000000000E+00 0.  1.
<mgrwt>
<rscale>  0 0.34419269E+04</rscale>
<asrwt>0</asrwt>
<pdfrwt beam="1">  1        2 0.38934743E+00 0.34419269E+04</pdfrwt>
<pdfrwt beam="2">  1       -2 0.18004426E+00 0.34419269E+04</pdfrwt>
<totfact> 0.49969716E-01</totfact>
</mgrwt>
</event>
<event>
12    1  0.2083715E-007  0.1685299E+04  0.7818608E-02  0.8769793E-01
          1   -1    0    0  501    0  0.00000000000E+00  0.00000000000E+00  0.14034850526E+04  0.14034850526E+04  0.00000000000E+00 0.  1.
         -1   -1    0    0    0  501 -0.00000000000E+00 -0.00000000000E+00 -0.50592529101E+03  0.50592529101E+03  0.00000000000E+00 0. -1.
         23    2    1    2    0    0  0.44480477053E+03 -0.38445817561E+03  0.22133018315E+03  0.63488651254E+03  0.91839322492E+02 0.  0.
        254    2    1    2    0    0 -0.44480477053E+03  0.38445817561E+03  0.67622957844E+03  0.12745238311E+04  0.90634716337E+03 0.  0.
        -24    2    4    4    0    0 -0.59998875542E+03  0.33712736116E+01  0.59602081784E+03  0.84957499850E+03  0.80864025735E+02 0.  0.
         24    2    4    4    0    0  0.15518398489E+03  0.38108690200E+03  0.80208760600E+02  0.42494883257E+03  0.69561260691E+02 0.  0.
         13    1    3    3    0    0  0.15834088057E+03 -0.18554320864E+03  0.63313836588E+02  0.25200547342E+03  0.00000000000E+00 0.  1.
        -13    1    3    3    0    0  0.28646388996E+03 -0.19891496697E+03  0.15801634657E+03  0.38288103912E+03  0.00000000000E+00 0. -1.
          4    1    6    6  502    0  0.65446346365E+02  0.20672869123E+03  0.72720413275E+02  0.22870993537E+03  0.00000000000E+00 0. -1.
          1    1    5    5  503    0 -0.17753600780E+03  0.86215692081E+01  0.12779792909E+03  0.21891933720E+03  0.00000000000E+00 0. -1.
         -2    1    5    5    0  503 -0.42245274762E+03 -0.52502955965E+01  0.46822288875E+03  0.63065566130E+03  0.00000000000E+00 0.  1.
         -3    1    6    6    0  502  0.89737638528E+02  0.17435821077E+03  0.74883473245E+01  0.19623889720E+03  0.00000000000E+00 0.  1.
<mgrwt>
<rscale>  0 0.16852995E+04</rscale>
<asrwt>0</asrwt>
<pdfrwt beam="1">  1        1 0.21592078E+00 0.16852995E+04</pdfrwt>
<pdfrwt beam="2">  1       -1 0.77834661E-01 0.16852995E+04</pdfrwt>
<totfact> 0.12035913E+01</totfact>
</mgrwt>
</event>
<event>
12    1  0.2083715E-007  0.1095120E+04  0.7818608E-02  0.9209961E-01
         -1   -1    0    0    0  501 -0.00000000000E+00  0.00000000000E+00  0.33108175533E+03  0.33108175533E+03  0.00000000000E+00 0.  1.
          1   -1    0    0  501    0  0.00000000000E+00 -0.00000000000E+00 -0.90558336506E+03  0.90558336506E+03  0.00000000000E+00 0. -1.
         23    2    1    2    0    0  0.13780823536E+03 -0.37857381796E+01 -0.83171264723E+01  0.16800624068E+03  0.95663372132E+02 0.  0.
        254    2    1    2    0    0 -0.13780823536E+03  0.37857381796E+01 -0.56618448326E+03  0.10686588797E+04  0.89580214922E+03 0.  0.
        -24    2    4    4    0    0  0.16385314657E+03  0.14265199532E+03 -0.67221817833E+03  0.71094204939E+03  0.79773886028E+02 0.  0.
         24    2    4    4    0    0 -0.30166138193E+03 -0.13886625714E+03  0.10603369508E+03  0.35771683032E+03  0.80216952607E+02 0.  0.
         11    1    3    3    0    0  0.35668921427E+02 -0.22819694762E+02 -0.41149011049E+02  0.59044487762E+02  0.00000000000E+00 0. -1.
        -11    1    3    3    0    0  0.10213931393E+03  0.19033956583E+02  0.32831884576E+02  0.10896175292E+03  0.00000000000E+00 0.  1.
          4    1    6    6  502    0 -0.10754507472E+03 -0.57292256800E+02 -0.24799278025E+00  0.12185404091E+03  0.00000000000E+00 0. -1.
          3    1    5    5  503    0  0.34403235408E+02  0.65339533517E+02 -0.14693222068E+03  0.16444426023E+03  0.00000000000E+00 0. -1.
         -4    1    5    5    0  503  0.12944991116E+03  0.77312461805E+02 -0.52528595765E+03  0.54649778916E+03  0.00000000000E+00 0.  1.
         -3    1    6    6    0  502 -0.19411630720E+03 -0.81574000343E+02  0.10628168786E+03  0.23586278941E+03  0.00000000000E+00 0.  1.
<mgrwt>
<rscale>  0 0.10951203E+04</rscale>
<asrwt>0</asrwt>
<pdfrwt beam="1">  1        1 0.13932052E+00 0.10951203E+04</pdfrwt>
<pdfrwt beam="2">  1       -1 0.50935655E-01 0.10951203E+04</pdfrwt>
<totfact> 0.69513562E+01</totfact>
</mgrwt>
</event>
<event>
12    1  0.2083715E-007  0.1348359E+04  0.7818608E-02  0.8992071E-01
         -2   -1    0    0    0  501 -0.00000000000E+00  0.00000000000E+00  0.27759067404E+03  0.27759067404E+03  0.00000000000E+00 0.  1.
          2   -1    0    0  501    0  0.00000000000E+00 -0.00000000000E+00 -0.16373687541E+04  0.16373687541E+04  0.00000000000E+00 0. -1.
         23    2    1    2    0    0 -0.16005226822E+03 -0.32307450811E+03 -0.47424951102E+03  0.60247872616E+03  0.89856276507E+02 0.  0.
        254    2    1    2    0    0  0.16005226822E+03  0.32307450811E+03 -0.88552856905E+03  0.13124807020E+04  0.89913896596E+03 0.  0.
        -24    2    4    4    0    0  0.39208252204E+03  0.56020006617E+02 -0.85936471887E+03  0.94965764614E+03  0.80467257916E+02 0.  0.
         24    2    4    4    0    0 -0.23203025382E+03  0.26705450149E+03 -0.26163850179E+02  0.36282305584E+03  0.76156925740E+02 0.  0.
         13    1    3    3    0    0 -0.60297089240E+02 -0.18215234423E+03 -0.19084821354E+03  0.27062567523E+03  0.00000000000E+00 0.  1.
        -13    1    3    3    0    0 -0.99755178981E+02 -0.14092216388E+03 -0.28340129748E+03  0.33185305094E+03  0.00000000000E+00 0. -1.
          4    1    6    6  502    0 -0.48851303074E+02  0.53755557377E+02 -0.36871292694E+02  0.81459204426E+02  0.00000000000E+00 0. -1.
          1    1    5    5  503    0  0.14286739987E+03  0.23344899279E+02 -0.22768517920E+03  0.26980848596E+03  0.00000000000E+00 0. -1.
         -2    1    5    5    0  503  0.24921512217E+03  0.32675107339E+02 -0.63167953967E+03  0.67984916018E+03  0.00000000000E+00 0.  1.
         -3    1    6    6    0  502 -0.18317895074E+03  0.21329894412E+03  0.10707442515E+02  0.28136385141E+03  0.00000000000E+00 0.  1.
<mgrwt>
<rscale>  0 0.13483594E+04</rscale>
<asrwt>0</asrwt>
<pdfrwt beam="1">  1        2 0.25190289E+00 0.13483594E+04</pdfrwt>
<pdfrwt beam="2">  1       -2 0.42706257E-01 0.13483594E+04</pdfrwt>
<totfact> 0.53954997E+01</totfact>
</mgrwt>
</event>
<event>
12    1  0.2083715E-007  0.1558687E+04  0.7818608E-02  0.8846338E-01
         -2   -1    0    0    0  501 -0.00000000000E+00  0.00000000000E+00  0.18927246632E+03  0.18927246632E+03  0.00000000000E+00 0.  1.
          2   -1    0    0  501    0  0.00000000000E+00 -0.00000000000E+00 -0.32090036968E+04  0.32090036968E+04  0.00000000000E+00 0. -1.
         23    2    1    2    0    0 -0.14727952430E+03  0.49048865698E+03 -0.90377783263E+03  0.10428175429E+04  0.91562416614E+02 0.  0.
        254    2    1    2    0    0  0.14727952430E+03 -0.49048865698E+03 -0.21159533979E+04  0.23554586202E+04  0.89925310604E+03 0.  0.
        -24    2    4    4    0    0  0.11914636532E+03 -0.74793455249E+03 -0.14879004088E+04  0.16714622337E+04  0.79601639887E+02 0.  0.
         24    2    4    4    0    0  0.28133158985E+02  0.25744589550E+03 -0.62805298912E+03  0.68399638655E+03  0.79565293472E+02 0.  0.
         11    1    3    3    0    0 -0.44390441403E+02  0.25792599312E+03 -0.39200316473E+03  0.47134150080E+03  0.00000000000E+00 0. -1.
        -11    1    3    3    0    0 -0.10288908290E+03  0.23256266386E+03 -0.51177466789E+03  0.57147604210E+03  0.00000000000E+00 0.  1.
          4    1    6    6  502    0  0.29802685288E+02  0.31309934750E+02 -0.13023632999E+03  0.13722249711E+03  0.00000000000E+00 0. -1.
          1    1    5    5  503    0  0.94117019171E+01 -0.58143282233E+02 -0.16999732406E+03  0.17991195511E+03  0.00000000000E+00 0. -1.
         -2    1    5    5    0  503  0.10973466340E+03 -0.68979127025E+03 -0.13179030847E+04  0.14915502786E+04  0.00000000000E+00 0.  1.
         -3    1    6    6    0  502 -0.16695263032E+01  0.22613596075E+03 -0.49781665913E+03  0.54677388944E+03  0.00000000000E+00 0.  1.
<mgrwt>
<rscale>  0 0.15586867E+04</rscale>
<asrwt>0</asrwt>
<pdfrwt beam="1">  1        2 0.49369289E+00 0.15586867E+04</pdfrwt>
<pdfrwt beam="2">  1       -2 0.29118840E-01 0.15586867E+04</pdfrwt>
<totfact> 0.13458798E+01</totfact>
</mgrwt>
</event>
<event>
12    1  0.2083715E-007  0.2221453E+04  0.7818608E-02  0.8509552E-01
          2   -1    0    0  501    0  0.00000000000E+00  0.00000000000E+00  0.17300721778E+04  0.17300721778E+04  0.00000000000E+00 0.  1.
         -2   -1    0    0    0  501 -0.00000000000E+00 -0.00000000000E+00 -0.71309946290E+03  0.71309946290E+03  0.00000000000E+00 0. -1.
         23    2    1    2    0    0 -0.55894917116E+03 -0.64608071439E+03  0.81939323266E+03  0.11872116578E+04  0.90674060095E+02 0.  0.
        254    2    1    2    0    0  0.55894917116E+03  0.64608071439E+03  0.19757948224E+03  0.12559599829E+04  0.89919595275E+03 0.  0.
        -24    2    4    4    0    0 -0.15996924764E+03  0.40424592922E+03  0.21917034833E+03  0.49345479113E+03  0.80355820045E+02 0.  0.
         24    2    4    4    0    0  0.71891841880E+03  0.24183478517E+03 -0.21590866091E+02  0.76250519179E+03  0.74968298629E+02 0.  0.
         11    1    3    3    0    0 -0.39086583921E+03 -0.45706643364E+03  0.51788486387E+03  0.79365645039E+03  0.00000000000E+00 0. -1.
        -11    1    3    3    0    0 -0.16808333195E+03 -0.18901428075E+03  0.30150836879E+03  0.39355520738E+03  0.00000000000E+00 0.  1.
          4    1    6    6  502    0  0.26890076904E+03  0.81484006094E+02  0.27193363324E+02  0.28228840899E+03  0.00000000000E+00 0. -1.
          3    1    5    5  503    0 -0.10745727347E+03  0.16321978634E+03  0.94945615435E+02  0.21726121183E+03  0.00000000000E+00 0. -1.
         -4    1    5    5    0  503 -0.52511974176E+02  0.24102614288E+03  0.12422473290E+03  0.27619357930E+03  0.00000000000E+00 0.  1.
         -3    1    6    6    0  502  0.45001764976E+03  0.16035077907E+03 -0.48784229415E+02  0.48021678280E+03  0.00000000000E+00 0.  1.
<mgrwt>
<rscale>  0 0.22214532E+04</rscale>
<asrwt>0</asrwt>
<pdfrwt beam="1">  1        2 0.26616495E+00 0.22214532E+04</pdfrwt>
<pdfrwt beam="2">  1       -2 0.10970761E+00 0.22214532E+04</pdfrwt>
<totfact> 0.56938796E+00</totfact>
</mgrwt>
</event>
<event>
12    1  0.2083715E-007  0.2734334E+04  0.7818608E-02  0.8323950E-01
         -2   -1    0    0    0  501 -0.00000000000E+00  0.00000000000E+00  0.87981040209E+03  0.87981040209E+03  0.00000000000E+00 0.  1.
          2   -1    0    0  501    0  0.00000000000E+00 -0.00000000000E+00 -0.21244875494E+04  0.21244875494E+04  0.00000000000E+00 0. -1.
         23    2    1    2    0    0 -0.48461874945E+03 -0.92416711675E+03  0.13299009589E+03  0.10559838376E+04  0.92061434425E+02 0.  0.
        254    2    1    2    0    0  0.48461874945E+03  0.92416711675E+03 -0.13776672432E+04  0.19483141139E+04  0.89945575841E+03 0.  0.
        -24    2    4    4    0    0  0.51227825185E+03  0.81805466845E+03 -0.55860991267E+03  0.11180514645E+04  0.79696893184E+02 0.  0.
         24    2    4    4    0    0 -0.27659502405E+02  0.10611244830E+03 -0.81905733055E+03  0.83026264942E+03  0.80350834033E+02 0.  0.
         11    1    3    3    0    0 -0.26918160355E+03 -0.57306716880E+03  0.44801033383E+02  0.63472186684E+03  0.00000000000E+00 0. -1.
        -11    1    3    3    0    0 -0.21543714589E+03 -0.35109994795E+03  0.88189062502E+02  0.42126197078E+03  0.00000000000E+00 0.  1.
          2    1    6    6  502    0  0.23651260159E+02  0.31833041700E+02 -0.15049353746E+03  0.15563106845E+03  0.00000000000E+00 0. -1.
          3    1    5    5  503    0  0.25279490325E+03  0.38167376878E+03 -0.22104248912E+03  0.50836985639E+03  0.00000000000E+00 0. -1.
         -4    1    5    5    0  503  0.25948334860E+03  0.43638089967E+03 -0.33756742355E+03  0.60968160809E+03  0.00000000000E+00 0.  1.
         -3    1    6    6    0  502 -0.51310762563E+02  0.74279406599E+02 -0.66856379309E+03  0.67463158097E+03  0.00000000000E+00 0.  1.
<mgrwt>
<rscale>  0 0.27343345E+04</rscale>
<asrwt>0</asrwt>
<pdfrwt beam="1">  1        2 0.32684423E+00 0.27343345E+04</pdfrwt>
<pdfrwt beam="2">  1       -2 0.13535545E+00 0.27343345E+04</pdfrwt>
<totfact> 0.19517832E+00</totfact>
</mgrwt>
</event>
<event>
12    1  0.2083715E-007  0.1544940E+04  0.7818608E-02  0.8855106E-01
          1   -1    0    0  501    0  0.00000000000E+00  0.00000000000E+00  0.14682273670E+04  0.14682273670E+04  0.00000000000E+00 0. -1.
         -1   -1    0    0    0  501 -0.00000000000E+00 -0.00000000000E+00 -0.40641522597E+03  0.40641522597E+03  0.00000000000E+00 0.  1.
         23    2    1    2    0    0  0.26781980834E+03  0.38359482561E+03  0.58524133612E+03  0.75500582991E+03  0.93026564629E+02 0.  0.
        254    2    1    2    0    0 -0.26781980834E+03 -0.38359482561E+03  0.47657080487E+03  0.11196367630E+04  0.89866251121E+03 0.  0.
        -24    2    4    4    0    0 -0.30998394374E+03  0.92683385782E+02  0.53590902727E+03  0.63114650930E+03  0.80418749729E+02 0.  0.
         24    2    4    4    0    0  0.42164135400E+02 -0.47627821139E+03 -0.59338222405E+02  0.48849025371E+03  0.80516795597E+02 0.  0.
         11    1    3    3    0    0  0.12119818532E+03  0.99192163209E+02  0.20718944070E+03  0.25972206242E+03  0.00000000000E+00 0. -1.
        -11    1    3    3    0    0  0.14662162301E+03  0.28440266240E+03  0.37805189542E+03  0.49528376749E+03  0.00000000000E+00 0.  1.
          4    1    6    6  502    0 -0.66930727033E+01 -0.10835490540E+03 -0.43642892608E+02  0.11700549056E+03  0.00000000000E+00 0. -1.
          3    1    5    5  503    0 -0.12972653613E+03  0.10414978569E+02  0.26797030506E+03  0.29790188041E+03  0.00000000000E+00 0. -1.
         -4    1    5    5    0  503 -0.18025740761E+03  0.82268407213E+02  0.26793872221E+03  0.33324462889E+03  0.00000000000E+00 0.  1.
         -3    1    6    6    0  502  0.48857208103E+02 -0.36792330599E+03 -0.15695329797E+02  0.37148476315E+03  0.00000000000E+00 0.  1.
<mgrwt>
<rscale>  0 0.15449401E+04</rscale>
<asrwt>0</asrwt>
<pdfrwt beam="1">  1        1 0.22588113E+00 0.15449401E+04</pdfrwt>
<pdfrwt beam="2">  1       -1 0.62525420E-01 0.15449401E+04</pdfrwt>
<totfact> 0.17211043E+01</totfact>
</mgrwt>
</event>
<event>
12    1  0.2083715E-007  0.3191296E+04  0.7818608E-02  0.8191120E-01
         -2   -1    0    0    0  501 -0.00000000000E+00  0.00000000000E+00  0.97279388468E+03  0.97279388468E+03  0.00000000000E+00 0.  1.
          2   -1    0    0  501    0  0.00000000000E+00 -0.00000000000E+00 -0.26172995961E+04  0.26172995961E+04  0.00000000000E+00 0. -1.
         23    2    1    2    0    0 -0.43892593746E+03 -0.12141391651E+04  0.26196235021E+02  0.12944374302E+04  0.89956251670E+02 0.  0.
        254    2    1    2    0    0  0.43892593746E+03  0.12141391651E+04 -0.16707019465E+04  0.22956560505E+04  0.90111143465E+03 0.  0.
        -24    2    4    4    0    0  0.25347913388E+03  0.10097916944E+03 -0.85405694652E+03  0.90037538068E+03  0.82547527269E+02 0.  0.
         24    2    4    4    0    0  0.18544680358E+03  0.11131599957E+04 -0.81664499993E+03  0.13952806699E+04  0.79896175358E+02 0.  0.
         13    1    3    3    0    0 -0.20609835577E+03 -0.44210761984E+03  0.12383082510E+02  0.48794366530E+03  0.00000000000E+00 0. -1.
        -13    1    3    3    0    0 -0.23282758169E+03 -0.77203154528E+03  0.13813152511E+02  0.80649376494E+03  0.00000000000E+00 0.  1.
          2    1    6    6  502    0  0.94943973821E+02  0.62493624076E+03 -0.50476080390E+03  0.80891478682E+03  0.00000000000E+00 0. -1.
          1    1    5    5  503    0  0.24197330451E+03  0.90440682741E+02 -0.71105615633E+03  0.75652591142E+03  0.00000000000E+00 0. -1.
         -2    1    5    5    0  503  0.11505829365E+02  0.10538486699E+02 -0.14300079019E+03  0.14384946926E+03  0.00000000000E+00 0.  1.
         -1    1    6    6    0  502  0.90502829756E+02  0.48822375493E+03 -0.31188419603E+03  0.58636588305E+03  0.00000000000E+00 0.  1.
<mgrwt>
<rscale>  0 0.31912963E+04</rscale>
<asrwt>0</asrwt>
<pdfrwt beam="1">  1        2 0.40266147E+00 0.31912963E+04</pdfrwt>
<pdfrwt beam="2">  1       -2 0.14966060E+00 0.31912963E+04</pdfrwt>
<totfact> 0.75484805E-01</totfact>
</mgrwt>
</event>
<event>
12    1  0.2083715E-007  0.2063750E+04  0.7818608E-02  0.8577382E-01
         -2   -1    0    0    0  501 -0.00000000000E+00  0.00000000000E+00  0.46497846403E+03  0.46497846403E+03  0.00000000000E+00 0.  1.
          2   -1    0    0  501    0  0.00000000000E+00 -0.00000000000E+00 -0.22899247774E+04  0.22899247774E+04  0.00000000000E+00 0. -1.
         23    2    1    2    0    0 -0.10803451373E+02 -0.78816187533E+03 -0.10990628306E+04  0.13551880830E+04  0.85321616322E+02 0.  0.
        254    2    1    2    0    0  0.10803451373E+02  0.78816187533E+03 -0.72588348271E+03  0.13997151584E+04  0.90054418993E+03 0.  0.
        -24    2    4    4    0    0 -0.31526446586E+03  0.21315472719E+03  0.33464409849E+02  0.38998613981E+03  0.78375387435E+02 0.  0.
         24    2    4    4    0    0  0.32606791724E+03  0.57500714814E+03 -0.75934789256E+03  0.10097290186E+04  0.77394845274E+02 0.  0.
         11    1    3    3    0    0 -0.14598592356E+02 -0.39271215562E+03 -0.47662125798E+03  0.61774086771E+03  0.00000000000E+00 0. -1.
        -11    1    3    3    0    0  0.37951409835E+01 -0.39544971971E+03 -0.62244157266E+03  0.73744721526E+03  0.00000000000E+00 0.  1.
          4    1    6    6  502    0  0.16802507486E+03  0.24914610193E+03 -0.39125313704E+03  0.49334087924E+03  0.00000000000E+00 0. -1.
          1    1    5    5  503    0 -0.25364184194E+03  0.20224397682E+03  0.15046085827E+02  0.32475097358E+03  0.00000000000E+00 0. -1.
         -2    1    5    5    0  503 -0.61622623927E+02  0.10910750371E+02  0.18418324022E+02  0.65235166230E+02  0.00000000000E+00 0.  1.
         -3    1    6    6    0  502  0.15804284238E+03  0.32586104621E+03 -0.36809475552E+03  0.51638813940E+03  0.00000000000E+00 0.  1.
<mgrwt>
<rscale>  0 0.20637497E+04</rscale>
<asrwt>0</asrwt>
<pdfrwt beam="1">  1        2 0.35229611E+00 0.20637497E+04</pdfrwt>
<pdfrwt beam="2">  1       -2 0.71535149E-01 0.20637497E+04</pdfrwt>
<totfact> 0.75265527E+00</totfact>
</mgrwt>
</event>
<event>
12    1  0.2083715E-007  0.4518681E+04  0.7818608E-02  0.7907374E-01
          2   -1    0    0  501    0  0.00000000000E+00  0.00000000000E+00  0.25793401659E+04  0.25793401659E+04  0.00000000000E+00 0. -1.
         -2   -1    0    0    0  501 -0.00000000000E+00 -0.00000000000E+00 -0.19790411058E+04  0.19790411058E+04  0.00000000000E+00 0.  1.
         23    2    1    2    0    0 -0.15137380257E+04 -0.15292268832E+04  0.15464775965E+02  0.21536488572E+04  0.89591125467E+02 0.  0.
        254    2    1    2    0    0  0.15137380257E+04  0.15292268832E+04  0.58483428411E+03  0.24047324146E+04  0.90042721802E+03 0.  0.
        -24    2    4    4    0    0  0.75999001592E+03  0.13476028732E+04  0.45337895019E+03  0.16142770145E+04  0.81972426705E+02 0.  0.
         24    2    4    4    0    0  0.75374800982E+03  0.18162400998E+03  0.13145533392E+03  0.79045540010E+03  0.80099259856E+02 0.  0.
         11    1    3    3    0    0 -0.95966299909E+03 -0.10291949401E+04  0.17366973807E+02  0.14073012856E+04  0.00000000000E+00 0.  1.
        -11    1    3    3    0    0 -0.55407502665E+03 -0.50003194312E+03 -0.19021978418E+01  0.74634757161E+03  0.00000000000E+00 0. -1.
          2    1    6    6  502    0  0.46328137156E+03  0.13246441758E+03  0.11510663395E+03  0.49540487314E+03  0.00000000000E+00 0. -1.
          1    1    5    5  503    0  0.34100605590E+03  0.66843458354E+03  0.19221734942E+03  0.77462083114E+03  0.00000000000E+00 0. -1.
         -2    1    5    5    0  503  0.41898396002E+03  0.67916828971E+03  0.26116160077E+03  0.83965618334E+03  0.00000000000E+00 0.  1.
         -1    1    6    6    0  502  0.29046663826E+03  0.49159592398E+02  0.16348699976E+02  0.29505052696E+03  0.00000000000E+00 0.  1.
<mgrwt>
<rscale>  0 0.45186813E+04</rscale>
<asrwt>0</asrwt>
<pdfrwt beam="1">  1        2 0.39682156E+00 0.45186813E+04</pdfrwt>
<pdfrwt beam="2">  1       -2 0.30446786E+00 0.45186813E+04</pdfrwt>
<totfact> 0.70650146E-02</totfact>
</mgrwt>
</event>
<event>
12    1  0.2083715E-007  0.1629641E+04  0.7818608E-02  0.8802543E-01
         -1   -1    0    0    0  501 -0.00000000000E+00  0.00000000000E+00  0.10703691652E+04  0.10703691652E+04  0.00000000000E+00 0.  1.
          1   -1    0    0  501    0  0.00000000000E+00 -0.00000000000E+00 -0.62028335371E+03  0.62028335371E+03  0.00000000000E+00 0. -1.
         23    2    1    2    0    0 -0.29419572676E+03 -0.24441457698E+02  0.65683810087E+03  0.72607497320E+03  0.92736537833E+02 0.  0.
        254    2    1    2    0    0  0.29419572676E+03  0.24441457698E+02 -0.20675228936E+03  0.96457754574E+03  0.89471493901E+03 0.  0.
        -24    2    4    4    0    0  0.28066406119E+03  0.34176981513E+03  0.15636543721E+03  0.47604468845E+03  0.81175573114E+02 0.  0.
         24    2    4    4    0    0  0.13531665573E+02 -0.31732835743E+03 -0.36311772657E+03  0.48853285728E+03  0.77003096612E+02 0.  0.
         11    1    3    3    0    0 -0.73950605988E+02 -0.79666055888E+01  0.84339737187E+02  0.11245154601E+03  0.00000000000E+00 0. -1.
        -11    1    3    3    0    0 -0.22024512078E+03 -0.16474852109E+02  0.57249836368E+03  0.61362342719E+03  0.00000000000E+00 0.  1.
          2    1    6    6  502    0  0.35368601818E+02 -0.25370846552E+03 -0.31405629874E+03  0.40527803080E+03  0.00000000000E+00 0. -1.
          1    1    5    5  503    0  0.20892637627E+03  0.26264874486E+03  0.15390046825E+03  0.36921531388E+03  0.00000000000E+00 0. -1.
         -2    1    5    5    0  503  0.71737684923E+02  0.79121070274E+02  0.24649689585E+01  0.10682937457E+03  0.00000000000E+00 0.  1.
         -1    1    6    6    0  502 -0.21836936245E+02 -0.63619891909E+02 -0.49061427836E+02  0.83254826481E+02  0.00000000000E+00 0.  1.
<mgrwt>
<rscale>  0 0.16296407E+04</rscale>
<asrwt>0</asrwt>
<pdfrwt beam="1">  1        1 0.95428208E-01 0.16296407E+04</pdfrwt>
<pdfrwt beam="2">  1       -1 0.16467218E+00 0.16296407E+04</pdfrwt>
<totfact> 0.84172617E+00</totfact>
</mgrwt>
</event>
<event>
12    1  0.2269605E-007  0.1632677E+04  0.7818608E-02  0.8800721E-01
          2   -1    0    0  501    0  0.00000000000E+00  0.00000000000E+00  0.93308149551E+03  0.93308149551E+03  0.00000000000E+00 0. -1.
         -2   -1    0    0    0  501 -0.00000000000E+00 -0.00000000000E+00 -0.71420145347E+03  0.71420145347E+03  0.00000000000E+00 0.  1.
         23    2    1    2    0    0  0.34976683558E+03  0.24764562417E+03  0.44923178900E+03  0.62756666177E+03  0.91463218138E+02 0.  0.
        254    2    1    2    0    0 -0.34976683558E+03 -0.24764562417E+03 -0.23035174696E+03  0.10197162872E+04  0.89615522351E+03 0.  0.
        -24    2    4    4    0    0  0.25454761461E+03 -0.13702881688E+03  0.10105667633E+03  0.31672384179E+03  0.80809376744E+02 0.  0.
         24    2    4    4    0    0 -0.60431445020E+03 -0.11061680729E+03 -0.33140842329E+03  0.70299244541E+03  0.83275461620E+02 0.  0.
         11    1    3    3    0    0  0.24152331742E+03  0.11682570937E+03  0.26783277823E+03  0.37909913785E+03  0.00000000000E+00 0. -1.
        -11    1    3    3    0    0  0.10824351817E+03  0.13081991480E+03  0.18139901077E+03  0.24846752392E+03  0.00000000000E+00 0.  1.
          4    1    6    6  502    0 -0.47826827737E+03 -0.10347640571E+03 -0.29590982617E+03  0.57184835131E+03  0.00000000000E+00 0. -1.
          3    1    5    5  503    0  0.16853166652E+03 -0.81238293341E+02  0.10420175754E+03  0.21415085617E+03  0.00000000000E+00 0. -1.
         -4    1    5    5    0  503  0.86015948093E+02 -0.55790523540E+02 -0.31450812160E+01  0.10257298562E+03  0.00000000000E+00 0.  1.
         -3    1    6    6    0  502 -0.12604617283E+03 -0.71404015826E+01 -0.35498597114E+02  0.13114409410E+03  0.00000000000E+00 0.  1.
<mgrwt>
<rscale>  0 0.16326765E+04</rscale>
<asrwt>0</asrwt>
<pdfrwt beam="1">  1        2 0.14355100E+00 0.16326765E+04</pdfrwt>
<pdfrwt beam="2">  1       -2 0.10987715E+00 0.16326765E+04</pdfrwt>
<totfact> 0.17558229E+01</totfact>
</mgrwt>
</event>
<event>
12    1  0.2083715E-007  0.1675013E+04  0.7818608E-02  0.8775745E-01
          2   -1    0    0  501    0  0.00000000000E+00  0.00000000000E+00  0.48162718618E+03  0.48162718618E+03  0.00000000000E+00 0. -1.
         -2   -1    0    0    0  501 -0.00000000000E+00 -0.00000000000E+00 -0.14563482606E+04  0.14563482606E+04  0.00000000000E+00 0.  1.
         23    2    1    2    0    0 -0.14101679351E+03 -0.55078298319E+03 -0.15978974952E+03  0.59739295488E+03  0.89988598505E+02 0.  0.
        254    2    1    2    0    0  0.14101679351E+03  0.55078298319E+03 -0.81493132485E+03  0.13405824919E+04  0.89988928355E+03 0.  0.
        -24    2    4    4    0    0 -0.12673817887E+03  0.54974335299E+03 -0.88501842026E+03  0.10525762096E+04  0.79867094092E+02 0.  0.
         24    2    4    4    0    0  0.26775497238E+03  0.10396301999E+01  0.70087095410E+02  0.28800628224E+03  0.79634236370E+02 0.  0.
         13    1    3    3    0    0 -0.10479972200E+03 -0.35250812997E+03 -0.14495115701E+03  0.39529204564E+03  0.00000000000E+00 0.  1.
        -13    1    3    3    0    0 -0.36217071507E+02 -0.19827485322E+03 -0.14838592518E+02  0.20210090924E+03  0.00000000000E+00 0. -1.
          4    1    6    6  502    0  0.13516966635E+03  0.28930932835E+02  0.66172275063E+01  0.13838939727E+03  0.00000000000E+00 0. -1.
          1    1    5    5  503    0 -0.32141657547E+02  0.17502772431E+03 -0.34913275687E+03  0.39186920311E+03  0.00000000000E+00 0. -1.
         -2    1    5    5    0  503 -0.94596521325E+02  0.37471562868E+03 -0.53588566339E+03  0.66070700651E+03  0.00000000000E+00 0.  1.
         -3    1    6    6    0  502  0.13258530602E+03 -0.27891302635E+02  0.63469867904E+02  0.14961688497E+03  0.00000000000E+00 0.  1.
<mgrwt>
<rscale>  0 0.16750127E+04</rscale>
<asrwt>0</asrwt>
<pdfrwt beam="1">  1        2 0.74096491E-01 0.16750127E+04</pdfrwt>
<pdfrwt beam="2">  1       -2 0.22405358E+00 0.16750127E+04</pdfrwt>
<totfact> 0.57097798E+00</totfact>
</mgrwt>
</event>
<event>
12    1  0.2083715E-007  0.2651087E+04  0.7818608E-02  0.8351052E-01
         -2   -1    0    0    0  501 -0.00000000000E+00  0.00000000000E+00  0.94215359081E+03  0.94215359081E+03  0.00000000000E+00 0.  1.
          2   -1    0    0  501    0  0.00000000000E+00 -0.00000000000E+00 -0.18649457582E+04  0.18649457582E+04  0.00000000000E+00 0. -1.
         23    2    1    2    0    0  0.65241557046E+03  0.91796116437E+03 -0.68977069247E+02  0.11319448225E+04  0.90788045071E+02 0.  0.
        254    2    1    2    0    0 -0.65241557046E+03 -0.91796116437E+03 -0.85381509817E+03  0.16751545266E+04  0.89935737623E+03 0.  0.
        -24    2    4    4    0    0 -0.42463277345E+03 -0.10238138747E+04 -0.46316331010E+03  0.12035438248E+04  0.74092132832E+02 0.  0.
         24    2    4    4    0    0 -0.22778279701E+03  0.10585271032E+03 -0.39065178807E+03  0.47161070176E+03  0.81963623631E+02 0.  0.
         13    1    3    3    0    0  0.40247856653E+03  0.48859295066E+03 -0.36585420253E+02  0.63407457048E+03  0.00000000000E+00 0.  1.
        -13    1    3    3    0    0  0.24993700393E+03  0.42936821371E+03 -0.32391648994E+02  0.49787025198E+03  0.00000000000E+00 0. -1.
          4    1    6    6  502    0  0.39365576325E+01  0.77459999288E+01 -0.25197133441E+01  0.90468754953E+01  0.00000000000E+00 0. -1.
          3    1    5    5  503    0 -0.15007073678E+03 -0.45276770835E+03 -0.18652435247E+03  0.51216321405E+03  0.00000000000E+00 0. -1.
         -4    1    5    5    0  503 -0.27456203667E+03 -0.57104616634E+03 -0.27663895764E+03  0.69138061077E+03  0.00000000000E+00 0.  1.
         -3    1    6    6    0  502 -0.23171935465E+03  0.98106710389E+02 -0.38813207472E+03  0.46256382626E+03  0.00000000000E+00 0.  1.
<mgrwt>
<rscale>  0 0.26510868E+04</rscale>
<asrwt>0</asrwt>
<pdfrwt beam="1">  1        2 0.28691473E+00 0.26510868E+04</pdfrwt>
<pdfrwt beam="2">  1       -2 0.14494671E+00 0.26510868E+04</pdfrwt>
<totfact> 0.22946161E+00</totfact>
</mgrwt>
</event>
<event>
12    1  0.2083715E-007  0.3571256E+04  0.7818608E-02  0.8097108E-01
         -1   -1    0    0    0  501 -0.00000000000E+00  0.00000000000E+00  0.12138536884E+04  0.12138536884E+04  0.00000000000E+00 0.  1.
          1   -1    0    0  501    0  0.00000000000E+00 -0.00000000000E+00 -0.26267315929E+04  0.26267315929E+04  0.00000000000E+00 0. -1.
         23    2    1    2    0    0 -0.16457125626E+04 -0.18235539508E+03 -0.85117907981E+03  0.18640262320E+04  0.92003471026E+02 0.  0.
        254    2    1    2    0    0  0.16457125626E+04  0.18235539508E+03 -0.56169882475E+03  0.19765590493E+04  0.92176828811E+03 0.  0.
        -24    2    4    4    0    0  0.14388323942E+04  0.43884424970E+03 -0.27232170409E+03  0.15307668649E+04  0.79152700468E+02 0.  0.
         24    2    4    4    0    0  0.20688016843E+03 -0.25648885462E+03 -0.28937712066E+03  0.44579218448E+03  0.80035099472E+02 0.  0.
         11    1    3    3    0    0 -0.57754808853E+03 -0.20888074539E+02 -0.30707258718E+03  0.65443997435E+03  0.00000000000E+00 0. -1.
        -11    1    3    3    0    0 -0.10681644741E+04 -0.16146732054E+03 -0.54410649263E+03  0.12095862576E+04  0.00000000000E+00 0.  1.
          4    1    6    6  502    0  0.16969686020E+03 -0.15184787029E+03 -0.18509629225E+03  0.29345431924E+03  0.00000000000E+00 0. -1.
          3    1    5    5  503    0  0.13368826845E+04  0.41545661426E+03 -0.27220980713E+03  0.14261688853E+04  0.00000000000E+00 0. -1.
         -4    1    5    5    0  503  0.10194970972E+03  0.23387635445E+02 -0.11189695545E+00  0.10459797955E+03  0.00000000000E+00 0.  1.
         -3    1    6    6    0  502  0.37183308226E+02 -0.10464098433E+03 -0.10428082841E+03  0.15233786525E+03  0.00000000000E+00 0.  1.
<mgrwt>
<rscale>  0 0.35712563E+04</rscale>
<asrwt>0</asrwt>
<pdfrwt beam="1">  1        1 0.40411255E+00 0.35712563E+04</pdfrwt>
<pdfrwt beam="2">  1       -1 0.18674672E+00 0.35712563E+04</pdfrwt>
<totfact> 0.16691592E-01</totfact>
</mgrwt>
</event>
<event>
12    1  0.2083715E-007  0.1471060E+04  0.7818608E-02  0.8903929E-01
         -2   -1    0    0    0  501 -0.00000000000E+00  0.00000000000E+00  0.17780467636E+03  0.17780467636E+03  0.00000000000E+00 0.  1.
          2   -1    0    0  501    0  0.00000000000E+00 -0.00000000000E+00 -0.30426906907E+04  0.30426906907E+04  0.00000000000E+00 0. -1.
         23    2    1    2    0    0  0.19834878981E+03 -0.40592985862E+03 -0.10349251275E+04  0.11316085374E+04  0.73120242546E+02 0.  0.
        254    2    1    2    0    0 -0.19834878981E+03  0.40592985862E+03 -0.18299608869E+04  0.20888868297E+04  0.90031663717E+03 0.  0.
        -24    2    4    4    0    0  0.90019405423E+02 -0.20895120303E+03 -0.17275921520E+03  0.29639113617E+03  0.78980127665E+02 0.  0.
         24    2    4    4    0    0 -0.28836819523E+03  0.61488106165E+03 -0.16572016717E+04  0.17924956935E+04  0.74084375054E+02 0.  0.
         11    1    3    3    0    0  0.90575342011E+02 -0.23961115419E+03 -0.65014693842E+03  0.69879069780E+03  0.00000000000E+00 0. -1.
        -11    1    3    3    0    0  0.10777344780E+03 -0.16631870444E+03 -0.38477818907E+03  0.43281783960E+03  0.00000000000E+00 0.  1.
          4    1    6    6  502    0 -0.17320784251E+03  0.28899968089E+03 -0.85595018573E+03  0.91987634642E+03  0.00000000000E+00 0. -1.
          1    1    5    5  503    0  0.24576887094E+02 -0.27343549922E+02  0.83944674166E+00  0.36774961215E+02  0.00000000000E+00 0. -1.
         -2    1    5    5    0  503  0.65442518329E+02 -0.18160765311E+03 -0.17359866194E+03  0.25961617496E+03  0.00000000000E+00 0.  1.
         -3    1    6    6    0  502 -0.11516035272E+03  0.32588138076E+03 -0.80125148593E+03  0.87261934706E+03  0.00000000000E+00 0.  1.
<mgrwt>
<rscale>  0 0.14710603E+04</rscale>
<asrwt>0</asrwt>
<pdfrwt beam="1">  1        2 0.46810623E+00 0.14710603E+04</pdfrwt>
<pdfrwt beam="2">  1       -2 0.27354567E-01 0.14710603E+04</pdfrwt>
<totfact> 0.19446572E+01</totfact>
</mgrwt>
</event>
<event>
12    1  0.2083715E-007  0.1918540E+04  0.7818608E-02  0.8645682E-01
         -2   -1    0    0    0  501 -0.00000000000E+00  0.00000000000E+00  0.47526739523E+03  0.47526739523E+03  0.00000000000E+00 0. -1.
          2   -1    0    0  501    0  0.00000000000E+00 -0.00000000000E+00 -0.19361716376E+04  0.19361716376E+04  0.00000000000E+00 0.  1.
         23    2    1    2    0    0 -0.51377966335E+03 -0.12392364979E+03  0.88766318077E+02  0.54334296174E+03  0.89529332580E+02 0.  0.
        254    2    1    2    0    0  0.51377966335E+03  0.12392364979E+03 -0.15496705604E+04  0.18680960711E+04  0.89943174920E+03 0.  0.
        -24    2    4    4    0    0  0.50392952200E+03  0.40841849076E+03 -0.65208829917E+03  0.92299968922E+03  0.77192290172E+02 0.  0.
         24    2    4    4    0    0  0.98501413541E+01 -0.28449484097E+03 -0.89758226128E+03  0.94509638187E+03  0.80739800832E+02 0.  0.
         13    1    3    3    0    0 -0.14633310211E+03 -0.56936901139E+02  0.62220734139E+02  0.16889821562E+03  0.00000000000E+00 0. -1.
        -13    1    3    3    0    0 -0.36744656125E+03 -0.66986748647E+02  0.26545583938E+02  0.37444474612E+03  0.00000000000E+00 0.  1.
          2    1    6    6  502    0 -0.19405342543E+02 -0.16506766445E+02 -0.59519518271E+02  0.64742673044E+02  0.00000000000E+00 0. -1.
          3    1    5    5  503    0  0.21056982101E+03  0.18993418968E+03 -0.23546427335E+03  0.36858929712E+03  0.00000000000E+00 0. -1.
         -4    1    5    5    0  503  0.29335970099E+03  0.21848430108E+03 -0.41662402581E+03  0.55441039210E+03  0.00000000000E+00 0.  1.
         -1    1    6    6    0  502  0.29255483898E+02 -0.26798807453E+03 -0.83806274301E+03  0.88035370883E+03  0.00000000000E+00 0.  1.
<mgrwt>
<rscale>  0 0.19185403E+04</rscale>
<asrwt>0</asrwt>
<pdfrwt beam="1">  1        2 0.29787256E+00 0.19185403E+04</pdfrwt>
<pdfrwt beam="2">  1       -2 0.73118062E-01 0.19185403E+04</pdfrwt>
<totfact> 0.11452071E+01</totfact>
</mgrwt>
</event>
<event>
12    1  0.2083715E-007  0.1852588E+04  0.7818608E-02  0.8678823E-01
         -2   -1    0    0    0  501 -0.00000000000E+00  0.00000000000E+00  0.65544771169E+03  0.65544771169E+03  0.00000000000E+00 0.  1.
          2   -1    0    0  501    0  0.00000000000E+00 -0.00000000000E+00 -0.13090597577E+04  0.13090597577E+04  0.00000000000E+00 0. -1.
         23    2    1    2    0    0 -0.52672575700E+03 -0.46184027402E+03 -0.32214665337E+03  0.77636524326E+03  0.90708670314E+02 0.  0.
        254    2    1    2    0    0  0.52672575700E+03  0.46184027402E+03 -0.33146539261E+03  0.11881422261E+04  0.90059767995E+03 0.  0.
        -24    2    4    4    0    0  0.53212456574E+03  0.76470100619E+02  0.15256882634E+03  0.56426225209E+03  0.78169128253E+02 0.  0.
         24    2    4    4    0    0 -0.53988087328E+01  0.38537017340E+03 -0.48403421894E+03  0.62387997401E+03  0.79986118658E+02 0.  0.
         11    1    3    3    0    0 -0.28936576506E+03 -0.21429397798E+03 -0.20266557671E+03  0.41319219617E+03  0.00000000000E+00 0. -1.
        -11    1    3    3    0    0 -0.23735999194E+03 -0.24754629604E+03 -0.11948107666E+03  0.36317304709E+03  0.00000000000E+00 0.  1.
          4    1    6    6  502    0 -0.12287433911E+02  0.83004294084E+01 -0.31378703426E+02  0.34705924411E+02  0.00000000000E+00 0. -1.
          1    1    5    5  503    0  0.27651189551E+03  0.54666799842E+02  0.42273662250E+02  0.28501640283E+03  0.00000000000E+00 0. -1.
         -2    1    5    5    0  503  0.25561267023E+03  0.21803300777E+02  0.11029516409E+03  0.27924584925E+03  0.00000000000E+00 0.  1.
         -3    1    6    6    0  502  0.68886251784E+01  0.37706974399E+03 -0.45265551552E+03  0.58917404960E+03  0.00000000000E+00 0.  1.
<mgrwt>
<rscale>  0 0.18525876E+04</rscale>
<asrwt>0</asrwt>
<pdfrwt beam="1">  1        2 0.20139381E+00 0.18525876E+04</pdfrwt>
<pdfrwt beam="2">  1       -2 0.10083811E+00 0.18525876E+04</pdfrwt>
<totfact> 0.12434749E+01</totfact>
</mgrwt>
</event>
<event>
12    1  0.2083715E-007  0.2467426E+04  0.7818608E-02  0.8414683E-01
         -2   -1    0    0    0  501 -0.00000000000E+00  0.00000000000E+00  0.20950727210E+04  0.20950727210E+04  0.00000000000E+00 0.  1.
          2   -1    0    0  501    0  0.00000000000E+00 -0.00000000000E+00 -0.72648940472E+03  0.72648940472E+03  0.00000000000E+00 0. -1.
         23    2    1    2    0    0  0.83260418622E+03  0.53203940203E+03  0.10440878265E+04  0.14399195282E+04  0.83385861989E+02 0.  0.
        254    2    1    2    0    0 -0.83260418622E+03 -0.53203940203E+03  0.32449548977E+03  0.13816425975E+04  0.90958412924E+03 0.  0.
        -24    2    4    4    0    0 -0.34470236668E+03 -0.72924126115E+03  0.20117678281E+03  0.83527939778E+03  0.81283675123E+02 0.  0.
         24    2    4    4    0    0 -0.48790181954E+03  0.19720185913E+03  0.12331870696E+03  0.54636319974E+03  0.79802780594E+02 0.  0.
         13    1    3    3    0    0  0.21262351447E+03  0.16611521948E+03  0.24630941110E+03  0.36533731132E+03  0.00000000000E+00 0. -1.
        -13    1    3    3    0    0  0.61998067174E+03  0.36592418255E+03  0.79777841539E+03  0.10745822168E+04  0.00000000000E+00 0.  1.
          4    1    6    6  502    0 -0.45124741245E+03  0.19977961888E+03  0.10214434987E+03  0.50395395779E+03  0.00000000000E+00 0. -1.
          1    1    5    5  503    0 -0.34255694587E+03 -0.71551926721E+03  0.20755638986E+03  0.81999557187E+03  0.00000000000E+00 0. -1.
         -2    1    5    5    0  503 -0.21454208116E+01 -0.13721993940E+02 -0.63796070496E+01  0.15283825904E+02  0.00000000000E+00 0.  1.
         -3    1    6    6    0  502 -0.36654407092E+02 -0.25777597558E+01  0.21174357089E+02  0.42409241950E+02  0.00000000000E+00 0.  1.
<mgrwt>
<rscale>  0 0.24674263E+04</rscale>
<asrwt>0</asrwt>
<pdfrwt beam="1">  1        2 0.11176760E+00 0.24674263E+04</pdfrwt>
<pdfrwt beam="2">  1       -2 0.32231888E+00 0.24674263E+04</pdfrwt>
<totfact> 0.80984615E-01</totfact>
</mgrwt>
</event>
<event>
12    1  0.2083715E-007  0.1830226E+04  0.7818608E-02  0.8690389E-01
         -2   -1    0    0    0  501 -0.00000000000E+00  0.00000000000E+00  0.34912388650E+03  0.34912388650E+03  0.00000000000E+00 0.  1.
          2   -1    0    0  501    0  0.00000000000E+00 -0.00000000000E+00 -0.23986654302E+04  0.23986654302E+04  0.00000000000E+00 0. -1.
         23    2    1    2    0    0 -0.50241216096E+03  0.39843070057E+03 -0.40018919380E+03  0.76246831111E+03  0.10020744468E+03 0.  0.
        254    2    1    2    0    0  0.50241216096E+03 -0.39843070057E+03 -0.16493523499E+04  0.19853210056E+04  0.89998406568E+03 0.  0.
        -24    2    4    4    0    0  0.55922219162E+03 -0.58709459302E+03 -0.15491666312E+04  0.17503204387E+04  0.79340191090E+02 0.  0.
         24    2    4    4    0    0 -0.56810030660E+02  0.18866389245E+03 -0.10018571864E+03  0.23500056690E+03  0.79791254690E+02 0.  0.
         13    1    3    3    0    0 -0.39309082642E+03  0.32765299988E+03 -0.27116431383E+03  0.57914330803E+03  0.00000000000E+00 0.  1.
        -13    1    3    3    0    0 -0.10932133455E+03  0.70777700688E+02 -0.12902487996E+03  0.18332500307E+03  0.00000000000E+00 0. -1.
          4    1    6    6  502    0 -0.57445489952E+02  0.19029780733E+03 -0.79255256680E+02  0.21399681190E+03  0.00000000000E+00 0. -1.
          1    1    5    5  503    0  0.48911545293E+03 -0.50191211321E+03 -0.13897066332E+04  0.15564171106E+04  0.00000000000E+00 0. -1.
         -2    1    5    5    0  503  0.70106738695E+02 -0.85182479815E+02 -0.15945999802E+03  0.19390332809E+03  0.00000000000E+00 0.  1.
         -3    1    6    6    0  502  0.63545929246E+00 -0.16339148794E+01 -0.20930461959E+02  0.21003755001E+02  0.00000000000E+00 0.  1.
<mgrwt>
<rscale>  0 0.18302256E+04</rscale>
<asrwt>0</asrwt>
<pdfrwt beam="1">  1        2 0.36902546E+00 0.18302256E+04</pdfrwt>
<pdfrwt beam="2">  1       -2 0.53711366E-01 0.18302256E+04</pdfrwt>
<totfact> 0.12258150E+01</totfact>
</mgrwt>
</event>
<event>
12    1  0.2083715E-007  0.1579791E+04  0.7818608E-02  0.8833060E-01
         -3   -1    0    0    0  501 -0.00000000000E+00  0.00000000000E+00  0.36149397849E+03  0.36149397849E+03  0.00000000000E+00 0.  1.
          3   -1    0    0  501    0  0.00000000000E+00 -0.00000000000E+00 -0.17259903628E+04  0.17259903628E+04  0.00000000000E+00 0. -1.
         23    2    1    2    0    0 -0.11238600537E+03 -0.49312042358E+03 -0.61236709630E+03  0.79945181117E+03  0.91276346395E+02 0.  0.
        254    2    1    2    0    0  0.11238600537E+03  0.49312042358E+03 -0.75212928807E+03  0.12880325302E+04  0.91516717950E+03 0.  0.
        -24    2    4    4    0    0  0.31038451442E+03  0.20162729922E+03  0.74704310068E+02  0.38580460531E+03  0.79198137306E+02 0.  0.
         24    2    4    4    0    0 -0.19799850905E+03  0.29149312436E+03 -0.82683359813E+03  0.90222792485E+03  0.78675143772E+02 0.  0.
         13    1    3    3    0    0 -0.97738717746E+02 -0.41494805515E+03 -0.56169040665E+03  0.70514598371E+03  0.00000000000E+00 0. -1.
        -13    1    3    3    0    0 -0.14647287622E+02 -0.78172368428E+02 -0.50676689647E+02  0.94305827465E+02  0.00000000000E+00 0.  1.
          4    1    6    6  502    0 -0.10473347001E+03  0.90904541757E+02 -0.28400012211E+03  0.31605190209E+03  0.00000000000E+00 0. -1.
          1    1    5    5  503    0  0.80557615864E+02  0.17524277377E+02  0.18924626110E+01  0.82463393006E+02  0.00000000000E+00 0. -1.
         -2    1    5    5    0  503  0.22982689855E+03  0.18410302184E+03  0.72811847457E+02  0.30334121230E+03  0.00000000000E+00 0.  1.
         -3    1    6    6    0  502 -0.93265039038E+02  0.20058858260E+03 -0.54283347602E+03  0.58617602276E+03  0.00000000000E+00 0.  1.
<mgrwt>
<rscale>  0 0.15797913E+04</rscale>
<asrwt>0</asrwt>
<pdfrwt beam="1">  1        3 0.26553698E+00 0.15797913E+04</pdfrwt>
<pdfrwt beam="2">  1       -3 0.55614459E-01 0.15797913E+04</pdfrwt>
<totfact> 0.48352796E-01</totfact>
</mgrwt>
</event>
<event>
12    1  0.2083715E-007  0.1623054E+04  0.7818608E-02  0.8806509E-01
          1   -1    0    0  501    0  0.00000000000E+00  0.00000000000E+00  0.12217175912E+04  0.12217175912E+04  0.00000000000E+00 0. -1.
         -1   -1    0    0    0  501 -0.00000000000E+00 -0.00000000000E+00 -0.53905738315E+03  0.53905738315E+03  0.00000000000E+00 0.  1.
         23    2    1    2    0    0  0.54978765600E+03  0.61760058610E+02  0.15475156714E+03  0.58154889122E+03  0.90389677628E+02 0.  0.
        254    2    1    2    0    0 -0.54978765600E+03 -0.61760058610E+02  0.52790864092E+03  0.11792260831E+04  0.89766689281E+03 0.  0.
        -24    2    4    4    0    0  0.12024379365E+03 -0.16932017843E+03 -0.10709691983E+03  0.24658061265E+03  0.78767731716E+02 0.  0.
         24    2    4    4    0    0 -0.67003144965E+03  0.10756011982E+03  0.63500556075E+03  0.93264547048E+03  0.78001208481E+02 0.  0.
         13    1    3    3    0    0  0.43825849818E+03  0.65905841141E+02  0.15627625510E+03  0.46993229196E+03  0.00000000000E+00 0. -1.
        -13    1    3    3    0    0  0.11152915782E+03 -0.41457825307E+01 -0.15246879566E+01  0.11161659926E+03  0.00000000000E+00 0.  1.
          2    1    6    6  502    0 -0.69210077881E+02 -0.11548643562E+02  0.75225858830E+02  0.10287048112E+03  0.00000000000E+00 0. -1.
          3    1    5    5  503    0  0.61574665075E+02 -0.33770128645E+02 -0.57531208737E+02  0.90783814343E+02  0.00000000000E+00 0. -1.
         -4    1    5    5    0  503  0.58669128579E+02 -0.13555004979E+03 -0.49565711093E+02  0.15579679831E+03  0.00000000000E+00 0.  1.
         -1    1    6    6    0  502 -0.60082137177E+03  0.11910876339E+03  0.55977970192E+03  0.82977498936E+03  0.00000000000E+00 0.  1.
<mgrwt>
<rscale>  0 0.16230538E+04</rscale>
<asrwt>0</asrwt>
<pdfrwt beam="1">  1        1 0.18795655E+00 0.16230538E+04</pdfrwt>
<pdfrwt beam="2">  1       -1 0.82931906E-01 0.16230538E+04</pdfrwt>
<totfact> 0.14249315E+01</totfact>
</mgrwt>
</event>
<event>
12    1  0.2083715E-007  0.1219125E+04  0.7818608E-02  0.9096279E-01
          1   -1    0    0  501    0  0.00000000000E+00  0.00000000000E+00  0.13033289123E+04  0.13033289123E+04  0.00000000000E+00 0. -1.
         -1   -1    0    0    0  501 -0.00000000000E+00 -0.00000000000E+00 -0.28509032656E+03  0.28509032656E+03  0.00000000000E+00 0.  1.
         23    2    1    2    0    0  0.23143626856E+03 -0.79095422917E+02  0.10107321877E+03  0.28060785298E+03  0.93306694665E+02 0.  0.
        254    2    1    2    0    0 -0.23143626856E+03  0.79095422917E+02  0.91716536697E+03  0.13078113859E+04  0.89964408425E+03 0.  0.
        -24    2    4    4    0    0  0.73823810915E+01 -0.12579517663E+02  0.10184592144E+04  0.10211965711E+04  0.73283842462E+02 0.  0.
         24    2    4    4    0    0 -0.23881864965E+03  0.91674940581E+02 -0.10129384742E+03  0.28661481481E+03  0.80305456804E+02 0.  0.
         11    1    3    3    0    0  0.18124988114E+03 -0.77248743383E+02  0.11546498321E+03  0.22836604414E+03  0.00000000000E+00 0. -1.
        -11    1    3    3    0    0  0.50186387414E+02 -0.18466795343E+01 -0.14391764437E+02  0.52241808837E+02  0.00000000000E+00 0.  1.
          2    1    6    6  502    0 -0.13360673606E+03  0.60365841636E+02 -0.98838314229E+02  0.17681574341E+03  0.00000000000E+00 0. -1.
          1    1    5    5  503    0 -0.67726690611E+01  0.79859365576E+00  0.94990107851E+03  0.94992555801E+03  0.00000000000E+00 0. -1.
         -2    1    5    5    0  503  0.14155050153E+02 -0.13378111319E+02  0.68558135878E+02  0.71271013058E+02  0.00000000000E+00 0.  1.
         -1    1    6    6    0  502 -0.10521191358E+03  0.31309098945E+02 -0.24555331921E+01  0.10979907140E+03  0.00000000000E+00 0.  1.
<mgrwt>
<rscale>  0 0.12191250E+04</rscale>
<asrwt>0</asrwt>
<pdfrwt beam="1">  1        1 0.20051214E+00 0.12191250E+04</pdfrwt>
<pdfrwt beam="2">  1       -1 0.43860051E-01 0.12191250E+04</pdfrwt>
<totfact> 0.45664510E+01</totfact>
</mgrwt>
</event>
<event>
12    1  0.2083715E-007  0.2047307E+04  0.7818608E-02  0.8584817E-01
         -2   -1    0    0    0  501 -0.00000000000E+00  0.00000000000E+00  0.11324312480E+04  0.11324312480E+04  0.00000000000E+00 0.  1.
          2   -1    0    0  501    0  0.00000000000E+00 -0.00000000000E+00 -0.92532427748E+03  0.92532427748E+03  0.00000000000E+00 0. -1.
         23    2    1    2    0    0 -0.64585942486E+03 -0.39175803803E+03 -0.24310229088E+03  0.79897867466E+03  0.93056121131E+02 0.  0.
        254    2    1    2    0    0  0.64585942486E+03  0.39175803803E+03  0.45020926141E+03  0.12587768508E+04  0.90067864640E+03 0.  0.
        -24    2    4    4    0    0  0.71044088268E+03  0.56757418454E+03  0.19688567995E+03  0.93393612861E+03  0.81277417602E+02 0.  0.
         24    2    4    4    0    0 -0.64581457820E+02 -0.17581614651E+03  0.25332358146E+03  0.32484072222E+03  0.79161706806E+02 0.  0.
         13    1    3    3    0    0 -0.29102382921E+03 -0.16090754812E+03 -0.60729005688E+02  0.33804455379E+03  0.00000000000E+00 0. -1.
        -13    1    3    3    0    0 -0.35483559565E+03 -0.23085048991E+03 -0.18237328520E+03  0.46093412087E+03  0.00000000000E+00 0.  1.
          2    1    6    6  502    0  0.15269860773E+02 -0.79241915999E+01  0.17412957550E+02  0.24478001372E+02  0.00000000000E+00 0. -1.
          1    1    5    5  503    0  0.40883957604E+03  0.30903847414E+03  0.72055735028E+02  0.51753899021E+03  0.00000000000E+00 0. -1.
         -2    1    5    5    0  503  0.30160130664E+03  0.25853571039E+03  0.12482994492E+03  0.41639713840E+03  0.00000000000E+00 0.  1.
         -1    1    6    6    0  502 -0.79851318594E+02 -0.16789195491E+03  0.23591062391E+03  0.30036272085E+03  0.00000000000E+00 0.  1.
<mgrwt>
<rscale>  0 0.20473066E+04</rscale>
<asrwt>0</asrwt>
<pdfrwt beam="1">  1        2 0.14235758E+00 0.20473066E+04</pdfrwt>
<pdfrwt beam="2">  1       -2 0.17422019E+00 0.20473066E+04</pdfrwt>
<totfact> 0.51903489E+00</totfact>
</mgrwt>
</event>
<event>
12    1  0.2232123E-007  0.2405650E+04  0.7818608E-02  0.8437391E-01
         -2   -1    0    0    0  501 -0.00000000000E+00  0.00000000000E+00  0.81329593747E+03  0.81329593747E+03  0.00000000000E+00 0.  1.
          2   -1    0    0  501    0  0.00000000000E+00 -0.00000000000E+00 -0.17789197361E+04  0.17789197361E+04  0.00000000000E+00 0. -1.
         23    2    1    2    0    0  0.64170796957E+03  0.80839260106E+03 -0.39242455441E+03  0.11079850368E+04  0.91356965612E+02 0.  0.
        254    2    1    2    0    0 -0.64170796957E+03 -0.80839260106E+03 -0.57319924419E+03  0.14842306368E+04  0.89949735624E+03 0.  0.
        -24    2    4    4    0    0 -0.56315029674E+03 -0.68413196694E+03 -0.24395995862E+01  0.88950452319E+03  0.77701610125E+02 0.  0.
         24    2    4    4    0    0 -0.78557672827E+02 -0.12426063412E+03 -0.57075964460E+03  0.59472611356E+03  0.79501981706E+02 0.  0.
         11    1    3    3    0    0  0.31464449570E+03  0.32368084380E+03 -0.17418399944E+03  0.48384968015E+03  0.00000000000E+00 0. -1.
        -11    1    3    3    0    0  0.32706347387E+03  0.48471175726E+03 -0.21824055497E+03  0.62413535663E+03  0.00000000000E+00 0.  1.
          2    1    6    6  502    0  0.66723293282E+01 -0.18691044463E+02 -0.22842742726E+02  0.30259973843E+02  0.00000000000E+00 0. -1.
          3    1    5    5  503    0 -0.15800905372E+02 -0.60112171262E+01  0.61912551385E+01  0.18003749112E+02  0.00000000000E+00 0. -1.
         -4    1    5    5    0  503 -0.54734939137E+03 -0.67812074982E+03 -0.86308547247E+01  0.87150077408E+03  0.00000000000E+00 0.  1.
         -1    1    6    6    0  502 -0.85230002155E+02 -0.10556958965E+03 -0.54791690188E+03  0.56446613972E+03  0.00000000000E+00 0.  1.
<mgrwt>
<rscale>  0 0.24056502E+04</rscale>
<asrwt>0</asrwt>
<pdfrwt beam="1">  1        2 0.27367996E+00 0.24056502E+04</pdfrwt>
<pdfrwt beam="2">  1       -2 0.12512245E+00 0.24056502E+04</pdfrwt>
<totfact> 0.38113031E+00</totfact>
</mgrwt>
</event>
<event>
12    1  0.2083715E-007  0.1194879E+04  0.7818608E-02  0.9117351E-01
         -2   -1    0    0    0  501 -0.00000000000E+00  0.00000000000E+00  0.57735203899E+03  0.57735203899E+03  0.00000000000E+00 0.  1.
          2   -1    0    0  501    0  0.00000000000E+00 -0.00000000000E+00 -0.61822548218E+03  0.61822548218E+03  0.00000000000E+00 0. -1.
         23    2    1    2    0    0  0.18721949922E+03  0.14371548292E+03 -0.76129101420E+02  0.26373415126E+03  0.89748434745E+02 0.  0.
        254    2    1    2    0    0 -0.18721949922E+03 -0.14371548292E+03  0.35255658224E+02  0.93184336991E+03  0.90076846286E+03 0.  0.
        -24    2    4    4    0    0 -0.16018619699E+03 -0.25351771838E+02 -0.41827836782E+03  0.45571540897E+03  0.80108744465E+02 0.  0.
         24    2    4    4    0    0 -0.27033302232E+02 -0.11836371108E+03  0.45353402605E+03  0.47612796094E+03  0.79145150704E+02 0.  0.
         13    1    3    3    0    0  0.11425178494E+03  0.68215228886E+02 -0.85739383895E+02  0.15829728287E+03  0.00000000000E+00 0.  1.
        -13    1    3    3    0    0  0.72967714279E+02  0.75500254032E+02  0.96102824755E+01  0.10543686839E+03  0.00000000000E+00 0. -1.
          2    1    6    6  502    0 -0.34918711635E+01  0.68634163077E+01  0.36025435241E+01  0.85016449866E+01  0.00000000000E+00 0. -1.
          3    1    5    5  503    0 -0.78586483166E+02  0.19457165237E+02 -0.25753764629E+03  0.26996306390E+03  0.00000000000E+00 0. -1.
         -4    1    5    5    0  503 -0.81599713820E+02 -0.44808937074E+02 -0.16074072154E+03  0.18575234506E+03  0.00000000000E+00 0.  1.
         -1    1    6    6    0  502 -0.23541431068E+02 -0.12522712739E+03  0.44993148252E+03  0.46762631596E+03  0.00000000000E+00 0.  1.
<mgrwt>
<rscale>  0 0.11948786E+04</rscale>
<asrwt>0</asrwt>
<pdfrwt beam="1">  1        2 0.95111612E-01 0.11948786E+04</pdfrwt>
<pdfrwt beam="2">  1       -2 0.88823391E-01 0.11948786E+04</pdfrwt>
<totfact> 0.51446304E+01</totfact>
</mgrwt>
</event>
<event>
12    1  0.2083715E-007  0.2750723E+04  0.7818608E-02  0.8318732E-01
         -2   -1    0    0    0  501 -0.00000000000E+00  0.00000000000E+00  0.20287204613E+04  0.20287204613E+04  0.00000000000E+00 0.  1.
          2   -1    0    0  501    0  0.00000000000E+00 -0.00000000000E+00 -0.93242018732E+03  0.93242018732E+03  0.00000000000E+00 0. -1.
         23    2    1    2    0    0 -0.63756990533E+03  0.87602080005E+03  0.11063569818E+04  0.15512620973E+04  0.92089614039E+02 0.  0.
        254    2    1    2    0    0  0.63756990533E+03 -0.87602080005E+03 -0.10056707758E+02  0.14098785514E+04  0.90208013278E+03 0.  0.
        -24    2    4    4    0    0 -0.20749858629E+03 -0.55593430953E+02 -0.66712991578E+01  0.22920282285E+03  0.79643800082E+02 0.  0.
         24    2    4    4    0    0  0.84506849162E+03 -0.82042736909E+03 -0.33854086003E+01  0.11806757285E+04  0.82109021701E+02 0.  0.
         13    1    3    3    0    0 -0.42956069617E+03  0.65746951641E+03  0.81552460867E+03  0.11321965130E+04  0.00000000000E+00 0.  1.
        -13    1    3    3    0    0 -0.20800920917E+03  0.21855128363E+03  0.29083237309E+03  0.41906558426E+03  0.00000000000E+00 0. -1.
          2    1    6    6  502    0  0.76373669914E+03 -0.70568807234E+03  0.36785758241E+01  0.10398571695E+04  0.00000000000E+00 0. -1.
          1    1    5    5  503    0 -0.13284987188E+03 -0.64907253067E+02 -0.29117593555E+02  0.15069795690E+03  0.00000000000E+00 0. -1.
         -2    1    5    5    0  503 -0.74648714411E+02  0.93138221133E+01  0.22446294397E+02  0.78504865949E+02  0.00000000000E+00 0.  1.
         -1    1    6    6    0  502  0.81331792485E+02 -0.11473929675E+03 -0.70639844244E+01  0.14081855902E+03  0.00000000000E+00 0.  1.
<mgrwt>
<rscale>  0 0.27507235E+04</rscale>
<asrwt>0</asrwt>
<pdfrwt beam="1">  1        2 0.14344926E+00 0.27507235E+04</pdfrwt>
<pdfrwt beam="2">  1       -2 0.31211084E+00 0.27507235E+04</pdfrwt>
<totfact> 0.65255855E-01</totfact>
</mgrwt>
</event>
<event>
12    1  0.2083715E-007  0.1493124E+04  0.7818608E-02  0.8889038E-01
          2   -1    0    0  501    0  0.00000000000E+00  0.00000000000E+00  0.34123728379E+04  0.34123728379E+04  0.00000000000E+00 0. -1.
         -2   -1    0    0    0  501 -0.00000000000E+00 -0.00000000000E+00 -0.16333351794E+03  0.16333351794E+03  0.00000000000E+00 0.  1.
         23    2    1    2    0    0  0.54882240998E+02  0.76023712743E+02 -0.58568156005E+02  0.14648210439E+03  0.96099493926E+02 0.  0.
        254    2    1    2    0    0 -0.54882240998E+02 -0.76023712743E+02  0.33076074759E+04  0.34292242514E+04  0.90028889053E+03 0.  0.
        -24    2    4    4    0    0 -0.11957753076E+03  0.80599082300E+02  0.32159585756E+04  0.32202045767E+04  0.80826713656E+02 0.  0.
         24    2    4    4    0    0  0.64695289763E+02 -0.15662279504E+03  0.91648900288E+02  0.20901967472E+03  0.81077265924E+02 0.  0.
         13    1    3    3    0    0  0.40804912722E+02  0.12560987283E+02 -0.68506487055E+02  0.80721484577E+02  0.00000000000E+00 0.  1.
        -13    1    3    3    0    0  0.14077328276E+02  0.63462725461E+02  0.99383310498E+01  0.65760619814E+02  0.00000000000E+00 0. -1.
          4    1    6    6  502    0  0.31730462659E+01 -0.10370117443E+03  0.32924527997E+02  0.10884863961E+03  0.00000000000E+00 0. -1.
          3    1    5    5  503    0 -0.12152415013E+03  0.54830552528E+02  0.29450824472E+04  0.29480985617E+04  0.00000000000E+00 0. -1.
         -4    1    5    5    0  503  0.19466193641E+01  0.25768529771E+02  0.27087612841E+03  0.27210601500E+03  0.00000000000E+00 0.  1.
         -3    1    6    6    0  502  0.61522243497E+02 -0.52921620609E+02  0.58724372290E+02  0.10017103510E+03  0.00000000000E+00 0.  1.
<mgrwt>
<rscale>  0 0.14931241E+04</rscale>
<asrwt>0</asrwt>
<pdfrwt beam="1">  1        2 0.52498038E+00 0.14931241E+04</pdfrwt>
<pdfrwt beam="2">  1       -2 0.25128236E-01 0.14931241E+04</pdfrwt>
<totfact> 0.13014844E+01</totfact>
</mgrwt>
</event>
<event>
12    1  0.2083715E-007  0.2140108E+04  0.7818608E-02  0.8543778E-01
          1   -1    0    0  501    0  0.00000000000E+00  0.00000000000E+00  0.51995427874E+04  0.51995427874E+04  0.00000000000E+00 0. -1.
         -1   -1    0    0    0  501 -0.00000000000E+00 -0.00000000000E+00 -0.22021463377E+03  0.22021463377E+03  0.00000000000E+00 0.  1.
         23    2    1    2    0    0 -0.79320538386E+03  0.33087628449E+03  0.25050822667E+04  0.26499933738E+04  0.91508588555E+02 0.  0.
        254    2    1    2    0    0  0.79320538386E+03 -0.33087628449E+03  0.24742458869E+04  0.27697640474E+04  0.90058107481E+03 0.  0.
        -24    2    4    4    0    0 -0.75046226641E+02 -0.30156313618E+03  0.35870075417E+03  0.48140061277E+03  0.80672533709E+02 0.  0.
         24    2    4    4    0    0  0.86825161051E+03 -0.29313148310E+02  0.21155451328E+04  0.22883634346E+04  0.79723773800E+02 0.  0.
         13    1    3    3    0    0 -0.59497795094E+03  0.27247035038E+03  0.18006937737E+04  0.19159167311E+04  0.00000000000E+00 0. -1.
        -13    1    3    3    0    0 -0.19822743292E+03  0.58405934116E+02  0.70438849300E+03  0.73407664271E+03  0.00000000000E+00 0.  1.
          2    1    6    6  502    0  0.73057706196E+03 -0.50428619126E+02  0.18120194443E+04  0.19544053713E+04  0.00000000000E+00 0. -1.
          3    1    5    5  503    0 -0.84415107368E+02 -0.23057441742E+03  0.30683120390E+03  0.39298328210E+03  0.00000000000E+00 0. -1.
         -4    1    5    5    0  503  0.93688807269E+01 -0.70988718767E+02  0.51869550261E+02  0.88417330669E+02  0.00000000000E+00 0.  1.
         -1    1    6    6    0  502  0.13767454854E+03  0.21115470817E+02  0.30352568853E+03  0.33395806327E+03  0.00000000000E+00 0.  1.
<mgrwt>
<rscale>  0 0.21401079E+04</rscale>
<asrwt>0</asrwt>
<pdfrwt beam="1">  1        1 0.79992957E+00 0.21401079E+04</pdfrwt>
<pdfrwt beam="2">  1       -1 0.33879178E-01 0.21401079E+04</pdfrwt>
<totfact> 0.35648250E-02</totfact>
</mgrwt>
</event>
<event>
12    1  0.2083715E-007  0.2564890E+04  0.7818608E-02  0.8380226E-01
          1   -1    0    0  501    0  0.00000000000E+00  0.00000000000E+00  0.23601170963E+04  0.23601170963E+04  0.00000000000E+00 0. -1.
         -1   -1    0    0    0  501 -0.00000000000E+00 -0.00000000000E+00 -0.69685735659E+03  0.69685735659E+03  0.00000000000E+00 0.  1.
         23    2    1    2    0    0 -0.80163981103E+03  0.40081881042E+03 -0.75628890639E+02  0.90399799456E+03  0.90612028177E+02 0.  0.
        254    2    1    2    0    0  0.80163981103E+03 -0.40081881042E+03  0.17388886304E+04  0.21529764584E+04  0.89905053027E+03 0.  0.
        -24    2    4    4    0    0  0.90097979625E+03 -0.56116196750E+03  0.14519681328E+04  0.18004850374E+04  0.82870768553E+02 0.  0.
         24    2    4    4    0    0 -0.99339985218E+02  0.16034315708E+03  0.28692049758E+03  0.35249142094E+03  0.79677281699E+02 0.  0.
         11    1    3    3    0    0 -0.59117573075E+03  0.31900431541E+03 -0.23040582670E+02  0.67214832167E+03  0.00000000000E+00 0. -1.
        -11    1    3    3    0    0 -0.21046408029E+03  0.81814495015E+02 -0.52588307970E+02  0.23184967289E+03  0.00000000000E+00 0.  1.
          4    1    6    6  502    0 -0.51273184355E+02  0.14216937923E+03  0.23528455853E+03  0.27964244190E+03  0.00000000000E+00 0. -1.
          1    1    5    5  503    0  0.84342588112E+03 -0.51393869993E+03  0.13151681655E+04  0.16447393434E+04  0.00000000000E+00 0. -1.
         -2    1    5    5    0  503  0.57553915129E+02 -0.47223267575E+02  0.13679996733E+03  0.15574569403E+03  0.00000000000E+00 0.  1.
         -3    1    6    6    0  502 -0.48066800863E+02  0.18173777849E+02  0.51635939043E+02  0.72848979041E+02  0.00000000000E+00 0.  1.
<mgrwt>
<rscale>  0 0.25648898E+04</rscale>
<asrwt>0</asrwt>
<pdfrwt beam="1">  1        1 0.36309493E+00 0.25648898E+04</pdfrwt>
<pdfrwt beam="2">  1       -1 0.10720883E+00 0.25648898E+04</pdfrwt>
<totfact> 0.12119298E+00</totfact>
</mgrwt>
</event>
<event>
12    1  0.2083715E-007  0.1573263E+04  0.7818608E-02  0.8837144E-01
         -2   -1    0    0    0  501 -0.00000000000E+00  0.00000000000E+00  0.12779981609E+03  0.12779981609E+03  0.00000000000E+00 0.  1.
          2   -1    0    0  501    0  0.00000000000E+00 -0.00000000000E+00 -0.48418610174E+04  0.48418610174E+04  0.00000000000E+00 0. -1.
         23    2    1    2    0    0  0.37839795407E+03 -0.30521600003E+03 -0.97444986248E+03  0.10928605047E+04  0.91922412634E+02 0.  0.
        254    2    1    2    0    0 -0.37839795407E+03  0.30521600003E+03 -0.37396113389E+04  0.38768003288E+04  0.89919186240E+03 0.  0.
        -24    2    4    4    0    0  0.88283038021E+02  0.45733527281E+03 -0.24373342188E+04  0.24827700247E+04  0.81237028496E+02 0.  0.
         24    2    4    4    0    0 -0.46668099209E+03 -0.15211927277E+03 -0.13022771201E+04  0.13940303041E+04  0.80395085980E+02 0.  0.
         11    1    3    3    0    0  0.28446436970E+03 -0.26915390161E+03 -0.81695157516E+03  0.90596560450E+03  0.00000000000E+00 0. -1.
        -11    1    3    3    0    0  0.93933584373E+02 -0.36062098426E+02 -0.15749828732E+03  0.18689490021E+03  0.00000000000E+00 0.  1.
          2    1    6    6  502    0 -0.40599980800E+03 -0.14473124680E+03 -0.10628630796E+04  0.11469354401E+04  0.00000000000E+00 0. -1.
          1    1    5    5  503    0  0.40004487442E+02  0.19499705934E+03 -0.12575368741E+04  0.12731940943E+04  0.00000000000E+00 0. -1.
         -2    1    5    5    0  503  0.48278550579E+02  0.26233821347E+03 -0.11797973447E+04  0.12095759304E+04  0.00000000000E+00 0.  1.
         -1    1    6    6    0  502 -0.60681184090E+02 -0.73880259777E+01 -0.23941404052E+03  0.24709486403E+03  0.00000000000E+00 0.  1.
<mgrwt>
<rscale>  0 0.15732628E+04</rscale>
<asrwt>0</asrwt>
<pdfrwt beam="1">  1        2 0.74490178E+00 0.15732628E+04</pdfrwt>
<pdfrwt beam="2">  1       -2 0.19661508E-01 0.15732628E+04</pdfrwt>
<totfact> 0.11760580E+00</totfact>
</mgrwt>
</event>
<event>
12    1  0.2083715E-007  0.2409690E+04  0.7818608E-02  0.8435885E-01
          2   -1    0    0  501    0  0.00000000000E+00  0.00000000000E+00  0.10512325555E+04  0.10512325555E+04  0.00000000000E+00 0. -1.
         -2   -1    0    0    0  501 -0.00000000000E+00 -0.00000000000E+00 -0.13809036757E+04  0.13809036757E+04  0.00000000000E+00 0.  1.
         23    2    1    2    0    0  0.19767494636E+03  0.98675278256E+03  0.10133019183E+03  0.10154325350E+04  0.89883185499E+02 0.  0.
        254    2    1    2    0    0 -0.19767494636E+03 -0.98675278256E+03 -0.43100131200E+03  0.14167036962E+04  0.89918340381E+03 0.  0.
        -24    2    4    4    0    0 -0.41857189104E+03 -0.63272569733E+03 -0.58877746955E+03  0.96376857986E+03  0.81527485322E+02 0.  0.
         24    2    4    4    0    0  0.22089694467E+03 -0.35402708523E+03  0.15777615754E+03  0.45293511638E+03  0.78270470241E+02 0.  0.
         13    1    3    3    0    0  0.88882055212E+02  0.59308609545E+03  0.27118538379E+02  0.60032203980E+03  0.00000000000E+00 0.  1.
        -13    1    3    3    0    0  0.10879289115E+03  0.39366668711E+03  0.74211653447E+02  0.41511049519E+03  0.00000000000E+00 0. -1.
          2    1    6    6  502    0  0.79792685054E+02 -0.19253781303E+03  0.98007673351E+02  0.23031106372E+03  0.00000000000E+00 0. -1.
          3    1    5    5  503    0 -0.19261882366E+03 -0.35498862786E+03 -0.33780427454E+03  0.52652698414E+03  0.00000000000E+00 0. -1.
         -4    1    5    5    0  503 -0.22595306738E+03 -0.27773706947E+03 -0.25097319501E+03  0.43724159572E+03  0.00000000000E+00 0.  1.
         -1    1    6    6    0  502  0.14110425962E+03 -0.16148927220E+03  0.59768484194E+02  0.22262405266E+03  0.00000000000E+00 0.  1.
<mgrwt>
<rscale>  0 0.24096895E+04</rscale>
<asrwt>0</asrwt>
<pdfrwt beam="1">  1        2 0.16172809E+00 0.24096895E+04</pdfrwt>
<pdfrwt beam="2">  1       -2 0.21244672E+00 0.24096895E+04</pdfrwt>
<totfact> 0.23181930E+00</totfact>
</mgrwt>
</event>
<event>
12    1  0.2083715E-007  0.1620298E+04  0.7818608E-02  0.8808174E-01
          1   -1    0    0  501    0  0.00000000000E+00  0.00000000000E+00  0.13514617792E+04  0.13514617792E+04  0.00000000000E+00 0. -1.
         -1   -1    0    0    0  501 -0.00000000000E+00 -0.00000000000E+00 -0.48565316432E+03  0.48565316432E+03  0.00000000000E+00 0.  1.
         23    2    1    2    0    0 -0.53890365331E+02  0.24743458160E+03 -0.25882991609E+03  0.37453666892E+03  0.95690894305E+02 0.  0.
        254    2    1    2    0    0  0.53890365331E+02 -0.24743458160E+03  0.11246385309E+04  0.14625782746E+04  0.90010851586E+03 0.  0.
        -24    2    4    4    0    0 -0.39940424745E+03  0.15029979554E+01  0.56476800313E+03  0.69629397851E+03  0.79601477799E+02 0.  0.
         24    2    4    4    0    0  0.45329461278E+03 -0.24893757956E+03  0.55987052779E+03  0.76628429605E+03  0.79313870120E+02 0.  0.
         13    1    3    3    0    0 -0.69594024608E+02  0.10259239811E+03 -0.13550216762E+03  0.18365556306E+03  0.00000000000E+00 0.  1.
        -13    1    3    3    0    0  0.15703659276E+02  0.14484218349E+03 -0.12332774847E+03  0.19088110586E+03  0.00000000000E+00 0. -1.
          2    1    6    6  502    0  0.20744268279E+03 -0.75548166130E+02  0.26665515227E+03  0.34618631151E+03  0.00000000000E+00 0. -1.
          1    1    5    5  503    0 -0.13335115174E+03 -0.28263463683E+02  0.15054353229E+03  0.20308793210E+03  0.00000000000E+00 0. -1.
         -2    1    5    5    0  503 -0.26605309571E+03  0.29766461638E+02  0.41422447084E+03  0.49320604641E+03  0.00000000000E+00 0.  1.
         -1    1    6    6    0  502  0.24585192999E+03 -0.17338941343E+03  0.29321537552E+03  0.42009798454E+03  0.00000000000E+00 0.  1.
<mgrwt>
<rscale>  0 0.16202984E+04</rscale>
<asrwt>0</asrwt>
<pdfrwt beam="1">  1        1 0.20791720E+00 0.16202984E+04</pdfrwt>
<pdfrwt beam="2">  1       -1 0.74715872E-01 0.16202984E+04</pdfrwt>
<totfact> 0.14352266E+01</totfact>
</mgrwt>
</event>
<event>
12    1  0.2623940E-007  0.2337223E+04  0.7818608E-02  0.8463388E-01
          2   -1    0    0  501    0  0.00000000000E+00  0.00000000000E+00  0.16783420047E+04  0.16783420047E+04  0.00000000000E+00 0. -1.
         -2   -1    0    0    0  501 -0.00000000000E+00 -0.00000000000E+00 -0.81369132989E+03  0.81369132989E+03  0.00000000000E+00 0.  1.
         23    2    1    2    0    0  0.45933811928E+03  0.56281649279E+03  0.10896507839E+04  0.13129347716E+04  0.93300436201E+02 0.  0.
        254    2    1    2    0    0 -0.45933811928E+03 -0.56281649279E+03 -0.22500010909E+03  0.11790985629E+04  0.90105186290E+03 0.  0.
        -24    2    4    4    0    0  0.21512841526E+03 -0.34869821269E+03 -0.20920502538E+03  0.46679192692E+03  0.79102982259E+02 0.  0.
         24    2    4    4    0    0 -0.67446653455E+03 -0.21411828011E+03 -0.15795083702E+02  0.71230663601E+03  0.79871865779E+02 0.  0.
         13    1    3    3    0    0  0.29668349937E+03  0.29483179842E+03  0.59464705687E+03  0.72701582542E+03  0.00000000000E+00 0.  1.
        -13    1    3    3    0    0  0.16265461991E+03  0.26798469437E+03  0.49500372701E+03  0.58591894623E+03  0.00000000000E+00 0. -1.
          4    1    6    6  502    0 -0.37181085780E+03 -0.10865651776E+03 -0.47385378329E+02  0.39024982628E+03  0.00000000000E+00 0. -1.
          3    1    5    5  503    0  0.93023757463E+02 -0.19745415941E+03 -0.75890381762E+02  0.23108637901E+03  0.00000000000E+00 0. -1.
         -4    1    5    5    0  503  0.12210465780E+03 -0.15124405328E+03 -0.13331464362E+03  0.23570554790E+03  0.00000000000E+00 0.  1.
         -3    1    6    6    0  502 -0.30265567674E+03 -0.10546176235E+03  0.31590294627E+02  0.32205680974E+03  0.00000000000E+00 0.  1.
<mgrwt>
<rscale>  0 0.23372226E+04</rscale>
<asrwt>0</asrwt>
<pdfrwt beam="1">  1        2 0.25820646E+00 0.23372226E+04</pdfrwt>
<pdfrwt beam="2">  1       -2 0.12518328E+00 0.23372226E+04</pdfrwt>
<totfact> 0.43543955E+00</totfact>
</mgrwt>
</event>
<event>
12    1  0.2083715E-007  0.1863852E+04  0.7818608E-02  0.8673062E-01
          1   -1    0    0  501    0  0.00000000000E+00  0.00000000000E+00  0.36064453359E+04  0.36064453359E+04  0.00000000000E+00 0. -1.
         -1   -1    0    0    0  501 -0.00000000000E+00 -0.00000000000E+00 -0.24081491160E+03  0.24081491160E+03  0.00000000000E+00 0.  1.
         23    2    1    2    0    0 -0.45411684954E+03  0.52545246088E+03  0.16004171295E+04  0.17468500391E+04  0.88474115452E+02 0.  0.
        254    2    1    2    0    0  0.45411684954E+03 -0.52545246088E+03  0.17652132948E+04  0.21004102084E+04  0.90189947646E+03 0.  0.
        -24    2    4    4    0    0  0.60213704466E+03 -0.66012403197E+03  0.15765186616E+04  0.18138902052E+04  0.80335719986E+02 0.  0.
         24    2    4    4    0    0 -0.14802019512E+03  0.13467157109E+03  0.18869463323E+03  0.28652000323E+03  0.80259811976E+02 0.  0.
         13    1    3    3    0    0 -0.33532088555E+03  0.40710031148E+03  0.11190537623E+04  0.12371144178E+04  0.00000000000E+00 0.  1.
        -13    1    3    3    0    0 -0.11879596399E+03  0.11835214940E+03  0.48136336724E+03  0.50973562132E+03  0.00000000000E+00 0. -1.
          2    1    6    6  502    0 -0.84341180703E+02  0.12552942160E+03  0.13510536150E+03  0.20279183701E+03  0.00000000000E+00 0. -1.
          3    1    5    5  503    0  0.20736088431E+03 -0.25760110580E+03  0.51732825843E+03  0.61399136234E+03  0.00000000000E+00 0. -1.
         -4    1    5    5    0  503  0.39477616035E+03 -0.40252292617E+03  0.10591904032E+04  0.11998988428E+04  0.00000000000E+00 0.  1.
         -1    1    6    6    0  502 -0.63679014422E+02  0.91421494840E+01  0.53589271728E+02  0.83728166224E+02  0.00000000000E+00 0.  1.
<mgrwt>
<rscale>  0 0.18638517E+04</rscale>
<asrwt>0</asrwt>
<pdfrwt beam="1">  1        1 0.55483771E+00 0.18638517E+04</pdfrwt>
<pdfrwt beam="2">  1       -1 0.37048450E-01 0.18638517E+04</pdfrwt>
<totfact> 0.13600227E+00</totfact>
</mgrwt>
</event>
<event>
12    1  0.2083715E-007  0.1342714E+04  0.7818608E-02  0.8996362E-01
         -1   -1    0    0    0  501 -0.00000000000E+00  0.00000000000E+00  0.65105681640E+03  0.65105681640E+03  0.00000000000E+00 0.  1.
          1   -1    0    0  501    0  0.00000000000E+00 -0.00000000000E+00 -0.69228990448E+03  0.69228990448E+03  0.00000000000E+00 0. -1.
         23    2    1    2    0    0 -0.13737490953E+03  0.21869945996E+03  0.24336926544E+03  0.36829183505E+03  0.98534039043E+02 0.  0.
        254    2    1    2    0    0  0.13737490953E+03 -0.21869945996E+03 -0.28460235352E+03  0.97505488582E+03  0.89612064544E+03 0.  0.
        -24    2    4    4    0    0 -0.28900328637E+03 -0.22508460400E+03 -0.37762190958E+03  0.53157773351E+03  0.76096003059E+02 0.  0.
         24    2    4    4    0    0  0.42637819589E+03  0.63851440394E+01  0.93019556065E+02  0.44347715231E+03  0.78614316857E+02 0.  0.
         11    1    3    3    0    0  0.78364523058E+01  0.62955636618E+02  0.58676264570E+02  0.86416006565E+02  0.00000000000E+00 0.  1.
        -11    1    3    3    0    0 -0.14521136183E+03  0.15574382334E+03  0.18469300087E+03  0.28187582849E+03  0.00000000000E+00 0. -1.
          2    1    6    6  502    0  0.19818111343E+03  0.22651914605E+02  0.78097012669E+02  0.21421486023E+03  0.00000000000E+00 0. -1.
          1    1    5    5  503    0 -0.17982829715E+03 -0.17304234468E+03 -0.21842332778E+03  0.33164833729E+03  0.00000000000E+00 0. -1.
         -2    1    5    5    0  503 -0.10917498921E+03 -0.52042259313E+02 -0.15919858181E+03  0.19992939622E+03  0.00000000000E+00 0.  1.
         -1    1    6    6    0  502  0.22819708246E+03 -0.16266770566E+02  0.14922543396E+02  0.22926229208E+03  0.00000000000E+00 0.  1.
<mgrwt>
<rscale>  0 0.13427138E+04</rscale>
<asrwt>0</asrwt>
<pdfrwt beam="1">  1        1 0.10650614E+00 0.13427138E+04</pdfrwt>
<pdfrwt beam="2">  1       -1 0.10016259E+00 0.13427138E+04</pdfrwt>
<totfact> 0.25779420E+01</totfact>
</mgrwt>
</event>
<event>
12    1  0.2235489E-007  0.3183419E+04  0.7818608E-02  0.8193210E-01
         -1   -1    0    0    0  501 -0.00000000000E+00  0.00000000000E+00  0.11079898434E+04  0.11079898434E+04  0.00000000000E+00 0.  1.
          1   -1    0    0  501    0  0.00000000000E+00 -0.00000000000E+00 -0.22866092279E+04  0.22866092279E+04  0.00000000000E+00 0. -1.
         23    2    1    2    0    0  0.11362748022E+04 -0.17256604657E+03 -0.15051850559E+04  0.18959860942E+04  0.91004122281E+02 0.  0.
        254    2    1    2    0    0 -0.11362748022E+04  0.17256604657E+03  0.32656567133E+03  0.14986129771E+04  0.90459728653E+03 0.  0.
        -24    2    4    4    0    0 -0.11249150956E+04  0.61398480756E+02 -0.15781963000E+02  0.11295655332E+04  0.80408195014E+02 0.  0.
         24    2    4    4    0    0 -0.11359706632E+02  0.11116756582E+03  0.34234763434E+03  0.36904744384E+03  0.80665001353E+02 0.  0.
         13    1    3    3    0    0  0.74488316029E+03 -0.14449471977E+03 -0.94208913616E+03  0.12096534987E+04  0.00000000000E+00 0.  1.
        -13    1    3    3    0    0  0.39139164192E+03 -0.28071326806E+02 -0.56309591975E+03  0.68633259546E+03  0.00000000000E+00 0. -1.
          2    1    6    6  502    0 -0.41337427603E+02  0.95014521435E+02  0.26489014038E+03  0.28443510450E+03  0.00000000000E+00 0. -1.
          3    1    5    5  503    0 -0.62289772363E+03  0.25039688605E+02 -0.47694215157E+02  0.62522259897E+03  0.00000000000E+00 0. -1.
         -2    1    5    5    0  503 -0.50201737195E+03  0.36358792151E+02  0.31912252157E+02  0.50434293427E+03  0.00000000000E+00 0.  1.
         -1    1    6    6    0  502  0.29977720971E+02  0.16153044382E+02  0.77457493959E+02  0.84612339336E+02  0.00000000000E+00 0.  1.
<mgrwt>
<rscale>  0 0.31834194E+04</rscale>
<asrwt>0</asrwt>
<pdfrwt beam="1">  1        1 0.35178603E+00 0.31834194E+04</pdfrwt>
<pdfrwt beam="2">  1       -1 0.17045998E+00 0.31834194E+04</pdfrwt>
<totfact> 0.38879603E-01</totfact>
</mgrwt>
</event>
<event>
12    1  0.2083715E-007  0.2264423E+04  0.7818608E-02  0.8492082E-01
          1   -1    0    0  501    0  0.00000000000E+00  0.00000000000E+00  0.70955495706E+03  0.70955495706E+03  0.00000000000E+00 0. -1.
         -1   -1    0    0    0  501 -0.00000000000E+00 -0.00000000000E+00 -0.18066296277E+04  0.18066296277E+04  0.00000000000E+00 0.  1.
         23    2    1    2    0    0 -0.41384780196E+01  0.94305853224E+03 -0.32400757931E+03  0.10010808887E+04  0.88348808871E+02 0.  0.
        254    2    1    2    0    0  0.41384780196E+01 -0.94305853224E+03 -0.77306709132E+03  0.15151036960E+04  0.89918294015E+03 0.  0.
        -24    2    4    4    0    0 -0.26352391677E+03 -0.97049336454E+03 -0.51291944072E+03  0.11322139845E+04  0.86717522235E+02 0.  0.
         24    2    4    4    0    0  0.26766239479E+03  0.27434832293E+02 -0.26014765060E+03  0.38288971157E+03  0.80820192459E+02 0.  0.
         13    1    3    3    0    0 -0.29417307552E+02  0.58687224506E+03 -0.16603771414E+03  0.61061684592E+03  0.00000000000E+00 0. -1.
        -13    1    3    3    0    0  0.25278829532E+02  0.35618628719E+03 -0.15796986517E+03  0.39046404278E+03  0.00000000000E+00 0.  1.
          2    1    6    6  502    0  0.27081437829E+03  0.27521879064E+02 -0.24124722059E+03  0.36372806155E+03  0.00000000000E+00 0. -1.
          3    1    5    5  503    0 -0.19919724296E+03 -0.57239899665E+03 -0.30306725428E+03  0.67762077416E+03  0.00000000000E+00 0. -1.
         -4    1    5    5    0  503 -0.64326673811E+02 -0.39809436789E+03 -0.20985218644E+03  0.45459321032E+03  0.00000000000E+00 0.  1.
         -1    1    6    6    0  502 -0.31519835014E+01 -0.87046771072E-01 -0.18900430006E+02  0.19161650022E+02  0.00000000000E+00 0.  1.
<mgrwt>
<rscale>  0 0.22644231E+04</rscale>
<asrwt>0</asrwt>
<pdfrwt beam="1">  1        1 0.10916230E+00 0.22644231E+04</pdfrwt>
<pdfrwt beam="2">  1       -1 0.27794302E+00 0.22644231E+04</pdfrwt>
<totfact> 0.11104924E+00</totfact>
</mgrwt>
</event>
<event>
12    1  0.2083715E-007  0.3151091E+04  0.7818608E-02  0.8201855E-01
          1   -1    0    0  501    0  0.00000000000E+00  0.00000000000E+00  0.11452453424E+04  0.11452453424E+04  0.00000000000E+00 0. -1.
         -1   -1    0    0    0  501 -0.00000000000E+00 -0.00000000000E+00 -0.21675208280E+04  0.21675208280E+04  0.00000000000E+00 0.  1.
         23    2    1    2    0    0  0.13630371968E+04  0.44517734071E+03 -0.65943849149E+03  0.15808187712E+04  0.89864335974E+02 0.  0.
        254    2    1    2    0    0 -0.13630371968E+04 -0.44517734071E+03 -0.36283699409E+03  0.17319473992E+04  0.90107593728E+03 0.  0.
        -24    2    4    4    0    0 -0.11188330945E+04 -0.68783286241E+01 -0.46426646953E+03  0.12139765318E+04  0.79755002193E+02 0.  0.
         24    2    4    4    0    0 -0.24420410233E+03 -0.43829901209E+03  0.10142947543E+03  0.51797086738E+03  0.79146783713E+02 0.  0.
         13    1    3    3    0    0  0.23756516327E+03  0.79530087535E+02 -0.15359553244E+03  0.29386022053E+03  0.00000000000E+00 0.  1.
        -13    1    3    3    0    0  0.11254720335E+04  0.36564725318E+03 -0.50584295905E+03  0.12869585507E+04  0.00000000000E+00 0. -1.
          2    1    6    6  502    0 -0.85817894266E+01 -0.55859309070E+02  0.27060230198E+02  0.62659122065E+02  0.00000000000E+00 0. -1.
          3    1    5    5  503    0 -0.95446735769E+03 -0.33675065250E+02 -0.38964933955E+03  0.10314885141E+04  0.00000000000E+00 0. -1.
         -4    1    5    5    0  503 -0.16436573680E+03  0.26796736626E+02 -0.74617129975E+02  0.18248801773E+03  0.00000000000E+00 0.  1.
         -3    1    6    6    0  502 -0.23562231290E+03 -0.38243970302E+03  0.74369245237E+02  0.45531174531E+03  0.00000000000E+00 0.  1.
<mgrwt>
<rscale>  0 0.31510907E+04</rscale>
<asrwt>0</asrwt>
<pdfrwt beam="1">  1        1 0.17619159E+00 0.31510907E+04</pdfrwt>
<pdfrwt beam="2">  1       -1 0.33346474E+00 0.31510907E+04</pdfrwt>
<totfact> 0.19677574E-01</totfact>
</mgrwt>
</event>
<event>
12    1  0.2083715E-007  0.2478590E+04  0.7818608E-02  0.8410653E-01
         -1   -1    0    0    0  501 -0.00000000000E+00  0.00000000000E+00  0.21274763252E+04  0.21274763252E+04  0.00000000000E+00 0.  1.
          1   -1    0    0  501    0  0.00000000000E+00 -0.00000000000E+00 -0.72191251941E+03  0.72191251941E+03  0.00000000000E+00 0. -1.
         23    2    1    2    0    0 -0.70564059130E+02 -0.10221314620E+04  0.98049836276E+03  0.14209595520E+04  0.89537684038E+02 0.  0.
        254    2    1    2    0    0  0.70564059130E+02  0.10221314620E+04  0.42506544299E+03  0.14284292926E+04  0.89999866719E+03 0.  0.
        -24    2    4    4    0    0 -0.22779661902E+03  0.76355916485E+03  0.58798802767E+03  0.99333707924E+03  0.77940582773E+02 0.  0.
         24    2    4    4    0    0  0.29836067815E+03  0.25857229719E+03 -0.16292258469E+03  0.43509221334E+03  0.82962270740E+02 0.  0.
         13    1    3    3    0    0 -0.45732942864E+02 -0.28102760137E+03  0.23112607717E+03  0.36672507188E+03  0.00000000000E+00 0.  1.
        -13    1    3    3    0    0 -0.24831116265E+02 -0.74110386067E+03  0.74937228558E+03  0.10542344801E+04  0.00000000000E+00 0. -1.
          2    1    6    6  502    0  0.99255772045E+02  0.39658205307E+02 -0.54139431546E+02  0.11981468850E+03  0.00000000000E+00 0. -1.
          1    1    5    5  503    0 -0.17313605424E+03  0.58612091763E+03  0.40859196805E+03  0.73516067612E+03  0.00000000000E+00 0. -1.
         -2    1    5    5    0  503 -0.54660564778E+02  0.17743824722E+03  0.17939605962E+03  0.25817640312E+03  0.00000000000E+00 0.  1.
         -1    1    6    6    0  502  0.19910490611E+03  0.21891409189E+03 -0.10878315314E+03  0.31527752484E+03  0.00000000000E+00 0.  1.
<mgrwt>
<rscale>  0 0.24785898E+04</rscale>
<asrwt>0</asrwt>
<pdfrwt beam="1">  1        1 0.11106347E+00 0.24785898E+04</pdfrwt>
<pdfrwt beam="2">  1       -1 0.32730405E+00 0.24785898E+04</pdfrwt>
<totfact> 0.50726896E-01</totfact>
</mgrwt>
</event>
<event>
12    1  0.2083715E-007  0.1553574E+04  0.7818608E-02  0.8849588E-01
          2   -1    0    0  501    0  0.00000000000E+00  0.00000000000E+00  0.49658030340E+03  0.49658030340E+03  0.00000000000E+00 0. -1.
         -2   -1    0    0    0  501 -0.00000000000E+00 -0.00000000000E+00 -0.12151072467E+04  0.12151072467E+04  0.00000000000E+00 0.  1.
         23    2    1    2    0    0 -0.37722932452E+03 -0.31703533734E+03 -0.38242976242E+03  0.63012218087E+03  0.89376010434E+02 0.  0.
        254    2    1    2    0    0  0.37722932452E+03  0.31703533734E+03 -0.33609718090E+03  0.10815653693E+04  0.90222445354E+03 0.  0.
        -24    2    4    4    0    0  0.41341314164E+03  0.18470997894E+03  0.21518345075E+03  0.50803716433E+03  0.82277827315E+02 0.  0.
         24    2    4    4    0    0 -0.36183817119E+02  0.13232535840E+03 -0.55128063166E+03  0.57352820492E+03  0.78771809062E+02 0.  0.
         11    1    3    3    0    0 -0.13941175431E+03 -0.13922221886E+03 -0.10275447225E+03  0.22220923705E+03  0.00000000000E+00 0. -1.
        -11    1    3    3    0    0 -0.23781757021E+03 -0.17781311849E+03 -0.27967529017E+03  0.40791294382E+03  0.00000000000E+00 0.  1.
          2    1    6    6  502    0 -0.16052687235E+02  0.13665647689E+03 -0.47837316293E+03  0.49776858524E+03  0.00000000000E+00 0. -1.
          1    1    5    5  503    0  0.35106897600E+03  0.15159565817E+03  0.21231042534E+03  0.43738585505E+03  0.00000000000E+00 0. -1.
         -2    1    5    5    0  503  0.62344165636E+02  0.33114320769E+02  0.28730254119E+01  0.70651309286E+02  0.00000000000E+00 0.  1.
         -1    1    6    6    0  502 -0.20131129884E+02 -0.43311184850E+01 -0.72907468728E+02  0.75759619680E+02  0.00000000000E+00 0.  1.
<mgrwt>
<rscale>  0 0.15535744E+04</rscale>
<asrwt>0</asrwt>
<pdfrwt beam="1">  1        2 0.76396970E-01 0.15535744E+04</pdfrwt>
<pdfrwt beam="2">  1       -2 0.18693957E+00 0.15535744E+04</pdfrwt>
<totfact> 0.96991720E+00</totfact>
</mgrwt>
</event>
<event>
12    1  0.2083715E-007  0.2036089E+04  0.7818608E-02  0.8589932E-01
         -2   -1    0    0    0  501 -0.00000000000E+00  0.00000000000E+00  0.53235447012E+03  0.53235447012E+03  0.00000000000E+00 0.  1.
          2   -1    0    0  501    0  0.00000000000E+00 -0.00000000000E+00 -0.19468496971E+04  0.19468496971E+04  0.00000000000E+00 0. -1.
         23    2    1    2    0    0  0.26993218087E+02 -0.68938526168E+03 -0.42651794113E+02  0.69724548291E+03  0.91386076890E+02 0.  0.
        254    2    1    2    0    0 -0.26993218087E+02  0.68938526168E+03 -0.13718434329E+04  0.17819586844E+04  0.90412481189E+03 0.  0.
        -24    2    4    4    0    0 -0.42935203363E+02  0.88954600999E+03 -0.92965161235E+03  0.12898610876E+04  0.79711790341E+02 0.  0.
         24    2    4    4    0    0  0.15941985276E+02 -0.20016074830E+03 -0.44219182056E+03  0.49209759670E+03  0.79422707423E+02 0.  0.
         11    1    3    3    0    0  0.45016656178E+02 -0.40168089501E+03 -0.59173602859E+02  0.40850404652E+03  0.00000000000E+00 0. -1.
        -11    1    3    3    0    0 -0.18023438091E+02 -0.28770436667E+03  0.16521808746E+02  0.28874143639E+03  0.00000000000E+00 0.  1.
          2    1    6    6  502    0 -0.23509558671E+01  0.45556266019E+00  0.27682500799E+01  0.36602922467E+01  0.00000000000E+00 0. -1.
          3    1    5    5  503    0  0.21689520456E+02  0.25000565778E+03 -0.27854422020E+03  0.37491351913E+03  0.00000000000E+00 0. -1.
         -4    1    5    5    0  503 -0.64624723820E+02  0.63954035221E+03 -0.65110739215E+03  0.91494756852E+03  0.00000000000E+00 0.  1.
         -1    1    6    6    0  502  0.18292941143E+02 -0.20061631096E+03 -0.44496007064E+03  0.48843730445E+03  0.00000000000E+00 0.  1.
<mgrwt>
<rscale>  0 0.20360885E+04</rscale>
<asrwt>0</asrwt>
<pdfrwt beam="1">  1        2 0.29951534E+00 0.20360885E+04</pdfrwt>
<pdfrwt beam="2">  1       -2 0.81900688E-01 0.20360885E+04</pdfrwt>
<totfact> 0.86843902E+00</totfact>
</mgrwt>
</event>
<event>
12    1  0.2254117E-007  0.2498980E+04  0.7818608E-02  0.8403349E-01
          3   -1    0    0  501    0  0.00000000000E+00  0.00000000000E+00  0.14757109781E+04  0.14757109781E+04  0.00000000000E+00 0. -1.
         -3   -1    0    0    0  501 -0.00000000000E+00 -0.00000000000E+00 -0.10579482287E+04  0.10579482287E+04  0.00000000000E+00 0.  1.
         23    2    1    2    0    0  0.12039752566E+02 -0.10809540324E+04  0.80521859407E+02  0.10872420274E+04  0.83695164209E+02 0.  0.
        254    2    1    2    0    0 -0.12039752566E+02  0.10809540324E+04  0.33724089006E+03  0.14464171794E+04  0.89988036039E+03 0.  0.
        -24    2    4    4    0    0  0.26171296922E+03  0.14683781541E+03  0.35201878121E+03  0.46957998542E+03  0.80827706242E+02 0.  0.
         24    2    4    4    0    0 -0.27375272178E+03  0.93411621699E+03 -0.14777891150E+02  0.97683719394E+03  0.80491352761E+02 0.  0.
         11    1    3    3    0    0 -0.10565520897E+02 -0.37052466827E+03  0.64683680805E+02  0.37627667824E+03  0.00000000000E+00 0. -1.
        -11    1    3    3    0    0  0.22605273463E+02 -0.71042936414E+03  0.15838178602E+02  0.71096534917E+03  0.00000000000E+00 0.  1.
          4    1    6    6  502    0 -0.22233010327E+03  0.80025009934E+03 -0.38656608211E+02  0.83145969816E+03  0.00000000000E+00 0. -1.
          3    1    5    5  503    0  0.22216326699E+03  0.11837526737E+03  0.33260674661E+03  0.41712883983E+03  0.00000000000E+00 0. -1.
         -4    1    5    5    0  503  0.39549702229E+02  0.28462548037E+02  0.19412034597E+02  0.52451145596E+02  0.00000000000E+00 0.  1.
         -3    1    6    6    0  502 -0.51422618510E+02  0.13386611766E+03  0.23878717060E+02  0.14537749578E+03  0.00000000000E+00 0.  1.
<mgrwt>
<rscale>  0 0.24989804E+04</rscale>
<asrwt>0</asrwt>
<pdfrwt beam="1">  1        3 0.22703246E+00 0.24989804E+04</pdfrwt>
<pdfrwt beam="2">  1       -3 0.16276127E+00 0.24989804E+04</pdfrwt>
<totfact> 0.60806065E-02</totfact>
</mgrwt>
</event>
<event>
12    1  0.2083715E-007  0.2066332E+04  0.7818608E-02  0.8576221E-01
         -3   -1    0    0    0  501 -0.00000000000E+00  0.00000000000E+00  0.40456050933E+04  0.40456050933E+04  0.00000000000E+00 0.  1.
          3   -1    0    0  501    0  0.00000000000E+00 -0.00000000000E+00 -0.26384966246E+03  0.26384966246E+03  0.00000000000E+00 0. -1.
         23    2    1    2    0    0  0.68056014775E+03 -0.36216779669E+03  0.88453574008E+03  0.11772899245E+04  0.96335160825E+02 0.  0.
        254    2    1    2    0    0 -0.68056014775E+03  0.36216779669E+03  0.28972196907E+04  0.31321648312E+04  0.90677834443E+03 0.  0.
        -24    2    4    4    0    0 -0.37509886801E+03  0.63838423516E+03  0.21508071011E+04  0.22758483589E+04  0.72670310703E+02 0.  0.
         24    2    4    4    0    0 -0.30546127974E+03 -0.27621643847E+03  0.74641258961E+03  0.85631647231E+03  0.80895194676E+02 0.  0.
         13    1    3    3    0    0  0.55335294461E+03 -0.25451662490E+03  0.72059625734E+03  0.94352379925E+03  0.00000000000E+00 0.  1.
        -13    1    3    3    0    0  0.12720720314E+03 -0.10765117179E+03  0.16393948274E+03  0.23376612526E+03  0.00000000000E+00 0. -1.
          4    1    6    6  502    0 -0.21830778190E+03 -0.19707516310E+03  0.60198925257E+03  0.66999102065E+03  0.00000000000E+00 0. -1.
          1    1    5    5  503    0 -0.73772182443E+02  0.18771025063E+03  0.60499095738E+03  0.63772371103E+03  0.00000000000E+00 0. -1.
         -2    1    5    5    0  503 -0.30132668557E+03  0.45067398453E+03  0.15458161438E+04  0.16381246479E+04  0.00000000000E+00 0.  1.
         -3    1    6    6    0  502 -0.87153497841E+02 -0.79141275369E+02  0.14442333704E+03  0.18632545166E+03  0.00000000000E+00 0.  1.
<mgrwt>
<rscale>  0 0.20663316E+04</rscale>
<asrwt>0</asrwt>
<pdfrwt beam="1">  1        3 0.40592259E-01 0.20663316E+04</pdfrwt>
<pdfrwt beam="2">  1       -3 0.62240074E+00 0.20663316E+04</pdfrwt>
<totfact> 0.10071585E-02</totfact>
</mgrwt>
</event>
<event>
12    1  0.2083715E-007  0.2950924E+04  0.7818608E-02  0.8257885E-01
         -1   -1    0    0    0  501 -0.00000000000E+00  0.00000000000E+00  0.12048281132E+04  0.12048281132E+04  0.00000000000E+00 0.  1.
          1   -1    0    0  501    0  0.00000000000E+00 -0.00000000000E+00 -0.18068874062E+04  0.18068874062E+04  0.00000000000E+00 0. -1.
         23    2    1    2    0    0 -0.88780030451E+03 -0.31777730181E+03 -0.12419995449E+04  0.15621427641E+04  0.92495143753E+02 0.  0.
        254    2    1    2    0    0  0.88780030451E+03  0.31777730181E+03  0.63994025192E+03  0.14495727553E+04  0.89586039804E+03 0.  0.
        -24    2    4    4    0    0  0.75027761615E+03 -0.18094863593E+03  0.35606635613E+03  0.85385935643E+03  0.81447163615E+02 0.  0.
         24    2    4    4    0    0  0.13752268836E+03  0.49872593773E+03  0.28387389579E+03  0.59571339891E+03  0.81547618907E+02 0.  0.
         13    1    3    3    0    0 -0.10798833809E+03 -0.62690994593E+02 -0.20178539041E+03  0.23729514481E+03  0.00000000000E+00 0. -1.
        -13    1    3    3    0    0 -0.77981196642E+03 -0.25508630721E+03 -0.10402141545E+04  0.13248476193E+04  0.00000000000E+00 0.  1.
          4    1    6    6  502    0 -0.13208972615E+01  0.25866363032E+02  0.35210976272E+02  0.43710712144E+02  0.00000000000E+00 0. -1.
          1    1    5    5  503    0  0.50490843785E+02 -0.28505439206E+02  0.11610516900E+02  0.59132812153E+02  0.00000000000E+00 0. -1.
         -2    1    5    5    0  503  0.69978677236E+03 -0.15244319672E+03  0.34445583923E+03  0.79472654428E+03  0.00000000000E+00 0.  1.
         -3    1    6    6    0  502  0.13884358562E+03  0.47285957470E+03  0.24866291952E+03  0.55200268677E+03  0.00000000000E+00 0.  1.
<mgrwt>
<rscale>  0 0.29509244E+04</rscale>
<asrwt>0</asrwt>
<pdfrwt beam="1">  1        1 0.27798268E+00 0.29509244E+04</pdfrwt>
<pdfrwt beam="2">  1       -1 0.18535817E+00 0.29509244E+04</pdfrwt>
<totfact> 0.65637417E-01</totfact>
</mgrwt>
</event>
<event>
12    1  0.2083715E-007  0.3155185E+04  0.7818608E-02  0.8200754E-01
         -1   -1    0    0    0  501 -0.00000000000E+00  0.00000000000E+00  0.12587023989E+04  0.12587023989E+04  0.00000000000E+00 0.  1.
          1   -1    0    0  501    0  0.00000000000E+00 -0.00000000000E+00 -0.19772725111E+04  0.19772725111E+04  0.00000000000E+00 0. -1.
         23    2    1    2    0    0  0.11575672972E+04 -0.86303928348E+03 -0.23133318211E+03  0.14652562393E+04  0.93069615668E+02 0.  0.
        254    2    1    2    0    0 -0.11575672972E+04  0.86303928348E+03 -0.48723693009E+03  0.17707186707E+04  0.90180149265E+03 0.  0.
        -24    2    4    4    0    0 -0.12485498275E+04  0.62387916166E+03 -0.53666962141E+03  0.14974678684E+04  0.79333815250E+02 0.  0.
         24    2    4    4    0    0  0.90982530290E+02  0.23916012182E+03  0.49432691318E+02  0.27325080225E+03  0.82140278010E+02 0.  0.
         13    1    3    3    0    0  0.60232495363E+03 -0.43229570447E+03 -0.16384909957E+03  0.75929009825E+03  0.00000000000E+00 0.  1.
        -13    1    3    3    0    0  0.55524234359E+03 -0.43074357901E+03 -0.67484082543E+02  0.70596614110E+03  0.00000000000E+00 0. -1.
          2    1    6    6  502    0  0.93355179107E+01  0.13509019410E+03  0.12913275615E+02  0.13602670739E+03  0.00000000000E+00 0. -1.
          3    1    5    5  503    0 -0.86760698046E+03  0.41611106890E+03 -0.40522730169E+03  0.10440782826E+04  0.00000000000E+00 0. -1.
         -4    1    5    5    0  503 -0.38094284705E+03  0.20776809276E+03 -0.13144231972E+03  0.45338958579E+03  0.00000000000E+00 0.  1.
         -1    1    6    6    0  502  0.81647012379E+02  0.10406992772E+03  0.36519415703E+02  0.13722409486E+03  0.00000000000E+00 0.  1.
<mgrwt>
<rscale>  0 0.31551847E+04</rscale>
<asrwt>0</asrwt>
<pdfrwt beam="1">  1        1 0.30419577E+00 0.31551847E+04</pdfrwt>
<pdfrwt beam="2">  1       -1 0.19364652E+00 0.31551847E+04</pdfrwt>
<totfact> 0.43206292E-01</totfact>
</mgrwt>
</event>
<event>
12    1  0.2083715E-007  0.1235479E+04  0.7818608E-02  0.9082357E-01
         -1   -1    0    0    0  501 -0.00000000000E+00  0.00000000000E+00  0.21423999773E+03  0.21423999773E+03  0.00000000000E+00 0.  1.
          1   -1    0    0  501    0  0.00000000000E+00 -0.00000000000E+00 -0.17811888084E+04  0.17811888084E+04  0.00000000000E+00 0. -1.
         23    2    1    2    0    0  0.15988593960E+03 -0.15271586626E+03 -0.94560490143E+02  0.25575665485E+03  0.87086914698E+02 0.  0.
        254    2    1    2    0    0 -0.15988593960E+03  0.15271586626E+03 -0.14723883205E+04  0.17396721513E+04  0.89980341077E+03 0.  0.
        -24    2    4    4    0    0 -0.13367178327E+03 -0.27365200023E+01  0.80880353589E+02  0.17608768614E+03  0.81176396997E+02 0.  0.
         24    2    4    4    0    0 -0.26214156337E+02  0.15545238627E+03 -0.15532686741E+04  0.15635844651E+04  0.85441086575E+02 0.  0.
         13    1    3    3    0    0  0.14656766436E+03 -0.11439659661E+03 -0.44235108924E+02  0.19111621180E+03  0.00000000000E+00 0.  1.
        -13    1    3    3    0    0  0.13318275241E+02 -0.38319269654E+02 -0.50325381218E+02  0.64640443045E+02  0.00000000000E+00 0. -1.
          2    1    6    6  502    0  0.90849277901E+01  0.33975517304E+02 -0.12897384711E+03  0.13368292684E+03  0.00000000000E+00 0. -1.
          3    1    5    5  503    0 -0.44640849619E+02 -0.61932046051E+01 -0.12752282435E+02  0.46837826010E+02  0.00000000000E+00 0. -1.
         -4    1    5    5    0  503 -0.89030933648E+02  0.34566846027E+01  0.93632636024E+02  0.12924986013E+03  0.00000000000E+00 0.  1.
         -3    1    6    6    0  502 -0.35299084127E+02  0.12147686896E+03 -0.14242948270E+04  0.14299015383E+04  0.00000000000E+00 0.  1.
<mgrwt>
<rscale>  0 0.12354787E+04</rscale>
<asrwt>0</asrwt>
<pdfrwt beam="1">  1        1 0.27402904E+00 0.12354787E+04</pdfrwt>
<pdfrwt beam="2">  1       -1 0.32960000E-01 0.12354787E+04</pdfrwt>
<totfact> 0.35805219E+01</totfact>
</mgrwt>
</event>
<event>
12    1  0.2083715E-007  0.1339741E+04  0.7818608E-02  0.8998630E-01
          1   -1    0    0  501    0  0.00000000000E+00  0.00000000000E+00  0.74570728173E+03  0.74570728173E+03  0.00000000000E+00 0. -1.
         -1   -1    0    0    0  501 -0.00000000000E+00 -0.00000000000E+00 -0.60174629367E+03  0.60174629367E+03  0.00000000000E+00 0.  1.
         23    2    1    2    0    0  0.22146343006E+03  0.59581394756E+02  0.31896277283E+03  0.40291558388E+03  0.89485886184E+02 0.  0.
        254    2    1    2    0    0 -0.22146343006E+03 -0.59581394756E+02 -0.17500178478E+03  0.94453799152E+03  0.89940558110E+03 0.  0.
        -24    2    4    4    0    0 -0.32791196763E+03 -0.24287565316E+03  0.23406140713E+03  0.47704209011E+03  0.79180629032E+02 0.  0.
         24    2    4    4    0    0  0.10644853758E+03  0.18329425840E+03 -0.40906319191E+03  0.46749590142E+03  0.79319900101E+02 0.  0.
         13    1    3    3    0    0  0.99452801313E+02 -0.78291855386E+01  0.87383224945E+02  0.13261969626E+03  0.00000000000E+00 0.  1.
        -13    1    3    3    0    0  0.12201062874E+03  0.67410580294E+02  0.23157954789E+03  0.27029588762E+03  0.00000000000E+00 0. -1.
          4    1    6    6  502    0 -0.99421161800E+01  0.28223270730E+02 -0.81884163774E+02  0.87180358807E+02  0.00000000000E+00 0. -1.
          1    1    5    5  503    0 -0.16697530498E+03 -0.11734607729E+03  0.16208461692E+03  0.26061902726E+03  0.00000000000E+00 0. -1.
         -2    1    5    5    0  503 -0.16093666265E+03 -0.12552957587E+03  0.71976790212E+02  0.21642306285E+03  0.00000000000E+00 0.  1.
         -3    1    6    6    0  502  0.11639065376E+03  0.15507098767E+03 -0.32717902813E+03  0.38031554261E+03  0.00000000000E+00 0.  1.
<mgrwt>
<rscale>  0 0.13397412E+04</rscale>
<asrwt>0</asrwt>
<pdfrwt beam="1">  1        1 0.11472420E+00 0.13397412E+04</pdfrwt>
<pdfrwt beam="2">  1       -1 0.92576353E-01 0.13397412E+04</pdfrwt>
<totfact> 0.27479310E+01</totfact>
</mgrwt>
</event>
<event>
12    1  0.2083715E-007  0.1703222E+04  0.7818608E-02  0.8759529E-01
          2   -1    0    0  501    0  0.00000000000E+00  0.00000000000E+00  0.10356482890E+04  0.10356482890E+04  0.00000000000E+00 0. -1.
         -2   -1    0    0    0  501 -0.00000000000E+00 -0.00000000000E+00 -0.70027793315E+03  0.70027793315E+03  0.00000000000E+00 0.  1.
         23    2    1    2    0    0  0.47430541733E+03 -0.14685946626E+03  0.48372562540E+03  0.69921690167E+03  0.91544869789E+02 0.  0.
        254    2    1    2    0    0 -0.47430541733E+03  0.14685946626E+03 -0.14835526953E+03  0.10367093205E+04  0.89789954753E+03 0.  0.
        -24    2    4    4    0    0 -0.51230487521E+03  0.44392202073E+03 -0.22253893656E+03  0.71785303327E+03  0.79160302153E+02 0.  0.
         24    2    4    4    0    0  0.37999457881E+02 -0.29706255446E+03  0.74183667025E+02  0.31885628723E+03  0.80473569491E+02 0.  0.
         13    1    3    3    0    0  0.36438908729E+03 -0.15025794342E+03  0.36186254757E+03  0.53507135957E+03  0.00000000000E+00 0.  1.
        -13    1    3    3    0    0  0.10991633004E+03  0.33984771571E+01  0.12186307782E+03  0.16414554210E+03  0.00000000000E+00 0. -1.
          4    1    6    6  502    0 -0.63954550818E+01 -0.15134802173E+03  0.50301174440E+01  0.15156657814E+03  0.00000000000E+00 0. -1.
          3    1    5    5  503    0 -0.28534984896E+03  0.25073707244E+03 -0.83280644139E+02  0.38888209201E+03  0.00000000000E+00 0. -1.
         -4    1    5    5    0  503 -0.22695502625E+03  0.19318494828E+03 -0.13925829242E+03  0.32897094126E+03  0.00000000000E+00 0.  1.
         -3    1    6    6    0  502  0.44394912963E+02 -0.14571453273E+03  0.69153549581E+02  0.16728970909E+03  0.00000000000E+00 0.  1.
<mgrwt>
<rscale>  0 0.17032224E+04</rscale>
<asrwt>0</asrwt>
<pdfrwt beam="1">  1        2 0.15933051E+00 0.17032224E+04</pdfrwt>
<pdfrwt beam="2">  1       -2 0.10773507E+00 0.17032224E+04</pdfrwt>
<totfact> 0.15713193E+01</totfact>
</mgrwt>
</event>
<event>
12    1  0.2083715E-007  0.1794398E+04  0.7818608E-02  0.8709284E-01
         -2   -1    0    0    0  501 -0.00000000000E+00  0.00000000000E+00  0.15156653858E+03  0.15156653858E+03  0.00000000000E+00 0.  1.
          2   -1    0    0  501    0  0.00000000000E+00 -0.00000000000E+00 -0.53109738657E+04  0.53109738657E+04  0.00000000000E+00 0. -1.
         23    2    1    2    0    0 -0.12263445899E+03  0.63517622327E+03 -0.14338793484E+04  0.15756063421E+04  0.89651068934E+02 0.  0.
        254    2    1    2    0    0  0.12263445899E+03 -0.63517622327E+03 -0.37255279787E+04  0.38869340622E+04  0.90011645851E+03 0.  0.
        -24    2    4    4    0    0  0.57358680379E+02 -0.67083677593E+03 -0.37155145734E+04  0.37768875603E+04  0.80740941818E+02 0.  0.
         24    2    4    4    0    0  0.65275778613E+02  0.35660552655E+02 -0.10013405218E+02  0.11004650187E+03  0.80482060116E+02 0.  0.
         13    1    3    3    0    0 -0.12331563307E+03  0.48381779504E+03 -0.11550675526E+04  0.12583590327E+04  0.00000000000E+00 0. -1.
        -13    1    3    3    0    0  0.68117407594E+00  0.15135842823E+03 -0.27881179588E+03  0.31724730939E+03  0.00000000000E+00 0.  1.
          4    1    6    6  502    0  0.11168760654E+02  0.23664443436E+02  0.31390742997E+02  0.40867173178E+02  0.00000000000E+00 0. -1.
          3    1    5    5  503    0  0.11702666490E+02 -0.51313385073E+03 -0.28847324132E+04  0.29300382928E+04  0.00000000000E+00 0. -1.
         -4    1    5    5    0  503  0.45656013889E+02 -0.15770292520E+03 -0.83078216019E+03  0.84684926753E+03  0.00000000000E+00 0.  1.
         -3    1    6    6    0  502  0.54107017959E+02  0.11996109220E+02 -0.41404148215E+02  0.69179328692E+02  0.00000000000E+00 0.  1.
<mgrwt>
<rscale>  0 0.17943979E+04</rscale>
<asrwt>0</asrwt>
<pdfrwt beam="1">  1        2 0.81707281E+00 0.17943979E+04</pdfrwt>
<pdfrwt beam="2">  1       -2 0.23317932E-01 0.17943979E+04</pdfrwt>
<totfact> 0.20128955E-01</totfact>
</mgrwt>
</event>
<event>
12    1  0.2083715E-007  0.1542431E+04  0.7818608E-02  0.8856717E-01
          1   -1    0    0  501    0  0.00000000000E+00  0.00000000000E+00  0.17991459576E+04  0.17991459576E+04  0.00000000000E+00 0. -1.
         -1   -1    0    0    0  501 -0.00000000000E+00 -0.00000000000E+00 -0.33058647777E+03  0.33058647777E+03  0.00000000000E+00 0.  1.
         23    2    1    2    0    0 -0.30792444707E+03 -0.12868681822E+03 -0.34299009819E+02  0.34801976588E+03  0.92539575762E+02 0.  0.
        254    2    1    2    0    0  0.30792444707E+03  0.12868681822E+03  0.15028584896E+04  0.17817126695E+04  0.89696077641E+03 0.  0.
        -24    2    4    4    0    0  0.21525718645E+02  0.43826624986E+03  0.11245559687E+04  0.12095235676E+04  0.76029412193E+02 0.  0.
         24    2    4    4    0    0  0.28639872842E+03 -0.30957943164E+03  0.37830252090E+03  0.57218910184E+03  0.80149328172E+02 0.  0.
         11    1    3    3    0    0  0.23139147429E+01 -0.10629567411E+02  0.78466382237E+01  0.13413114336E+02  0.00000000000E+00 0. -1.
        -11    1    3    3    0    0 -0.31023836181E+03 -0.11805725081E+03 -0.42145648043E+02  0.33460665154E+03  0.00000000000E+00 0.  1.
          2    1    6    6  502    0  0.10963881583E+03 -0.12558193926E+03  0.98983723145E+02  0.19387952665E+03  0.00000000000E+00 0. -1.
          3    1    5    5  503    0  0.20826257815E+02  0.28504586890E+02  0.10112640335E+03  0.10711112894E+03  0.00000000000E+00 0. -1.
         -4    1    5    5    0  503  0.69946082957E+00  0.40976166297E+03  0.10234295654E+04  0.11024124387E+04  0.00000000000E+00 0.  1.
         -1    1    6    6    0  502  0.17675991259E+03 -0.18399749237E+03  0.27931879775E+03  0.37830957519E+03  0.00000000000E+00 0.  1.
<mgrwt>
<rscale>  0 0.15424310E+04</rscale>
<asrwt>0</asrwt>
<pdfrwt beam="1">  1        1 0.27679168E+00 0.15424310E+04</pdfrwt>
<pdfrwt beam="2">  1       -1 0.50859459E-01 0.15424310E+04</pdfrwt>
<totfact> 0.15282428E+01</totfact>
</mgrwt>
</event>
<event>
12    1  0.2083715E-007  0.1686777E+04  0.7818608E-02  0.8768942E-01
          3   -1    0    0  501    0  0.00000000000E+00  0.00000000000E+00  0.90999797412E+03  0.90999797412E+03  0.00000000000E+00 0. -1.
         -3   -1    0    0    0  501 -0.00000000000E+00 -0.00000000000E+00 -0.78165454431E+03  0.78165454431E+03  0.00000000000E+00 0.  1.
         23    2    1    2    0    0 -0.88182059816E+02  0.58989262445E+03  0.77163555507E+02  0.60801274338E+03  0.89307881843E+02 0.  0.
        254    2    1    2    0    0  0.88182059816E+02 -0.58989262445E+03  0.51179874303E+02  0.10836397751E+04  0.90327537247E+03 0.  0.
        -24    2    4    4    0    0  0.43129789432E+03 -0.49760008875E+03  0.19588395569E+03  0.69165193381E+03  0.79925912398E+02 0.  0.
         24    2    4    4    0    0 -0.34311583451E+03 -0.92292535698E+02 -0.14470408138E+03  0.39198784125E+03  0.80428903307E+02 0.  0.
         13    1    3    3    0    0 -0.46638846521E+02  0.51775202189E+03  0.66175291093E+02  0.52404342122E+03  0.00000000000E+00 0. -1.
        -13    1    3    3    0    0 -0.41543213294E+02  0.72140602561E+02  0.10988264414E+02  0.83969322157E+02  0.00000000000E+00 0.  1.
          4    1    6    6  502    0 -0.68377503073E+02 -0.52679300697E+02 -0.26548022471E+02  0.90307193211E+02  0.00000000000E+00 0. -1.
          1    1    5    5  503    0  0.11872415983E+03 -0.17589341401E+03  0.91606424570E+02  0.23113990621E+03  0.00000000000E+00 0. -1.
         -2    1    5    5    0  503  0.31257373450E+03 -0.32170667474E+03  0.10427753112E+03  0.46051202760E+03  0.00000000000E+00 0.  1.
         -3    1    6    6    0  502 -0.27473833143E+03 -0.39613235001E+02 -0.11815605891E+03  0.30168064804E+03  0.00000000000E+00 0.  1.
<mgrwt>
<rscale>  0 0.16867769E+04</rscale>
<asrwt>0</asrwt>
<pdfrwt beam="1">  1        3 0.13999969E+00 0.16867769E+04</pdfrwt>
<pdfrwt beam="2">  1       -3 0.12025455E+00 0.16867769E+04</pdfrwt>
<totfact> 0.54157891E-01</totfact>
</mgrwt>
</event>
<event>
12    1  0.2083715E-007  0.2446892E+04  0.7818608E-02  0.8422154E-01
         -3   -1    0    0    0  501 -0.00000000000E+00  0.00000000000E+00  0.14003664719E+04  0.14003664719E+04  0.00000000000E+00 0.  1.
          3   -1    0    0  501    0  0.00000000000E+00 -0.00000000000E+00 -0.10688772578E+04  0.10688772578E+04  0.00000000000E+00 0. -1.
         23    2    1    2    0    0 -0.73956540816E+03 -0.69804747499E+03 -0.14384127311E+03  0.10311428530E+04  0.91312656065E+02 0.  0.
        254    2    1    2    0    0  0.73956540816E+03  0.69804747499E+03  0.47533048720E+03  0.14381008766E+04  0.89887028484E+03 0.  0.
        -24    2    4    4    0    0 -0.84699129134E+02 -0.12076339539E+03  0.16099361353E+03  0.23224490299E+03  0.79126551969E+02 0.  0.
         24    2    4    4    0    0  0.82426453730E+03  0.81881087038E+03  0.31433687367E+03  0.12058559736E+04  0.73604959591E+02 0.  0.
         13    1    3    3    0    0 -0.46839710206E+03 -0.49033582960E+03 -0.12086926688E+03  0.68879202281E+03  0.00000000000E+00 0. -1.
        -13    1    3    3    0    0 -0.27116830610E+03 -0.20771164539E+03 -0.22972006234E+02  0.34235083019E+03  0.00000000000E+00 0.  1.
          4    1    6    6  502    0  0.82238661456E+03  0.81308432520E+03  0.30732400174E+03  0.11966093371E+04  0.00000000000E+00 0. -1.
          3    1    5    5  503    0 -0.62499875730E+02 -0.91054599556E+02  0.16090222585E+03  0.19515814318E+03  0.00000000000E+00 0. -1.
         -4    1    5    5    0  503 -0.22199253404E+02 -0.29708795832E+02  0.91387678972E-01  0.37086759810E+02  0.00000000000E+00 0.  1.
         -3    1    6    6    0  502  0.18779227374E+01  0.57265451802E+01  0.70128719281E+01  0.92466364798E+01  0.00000000000E+00 0.  1.
<mgrwt>
<rscale>  0 0.24468918E+04</rscale>
<asrwt>0</asrwt>
<pdfrwt beam="1">  1        3 0.16444266E+00 0.24468918E+04</pdfrwt>
<pdfrwt beam="2">  1       -3 0.21544100E+00 0.24468918E+04</pdfrwt>
<totfact> 0.69554351E-02</totfact>
</mgrwt>
</event>
<event>
12    1  0.2083715E-007  0.1477521E+04  0.7818608E-02  0.8899540E-01
          2   -1    0    0  501    0  0.00000000000E+00  0.00000000000E+00  0.23636768015E+04  0.23636768015E+04  0.00000000000E+00 0.  1.
         -2   -1    0    0    0  501 -0.00000000000E+00 -0.00000000000E+00 -0.23089758318E+03  0.23089758318E+03  0.00000000000E+00 0. -1.
         23    2    1    2    0    0 -0.15976173962E+03 -0.43087003549E+03  0.69419845479E+03  0.83670614543E+03  0.83623431112E+02 0.  0.
        254    2    1    2    0    0  0.15976173962E+03  0.43087003549E+03  0.14385807636E+04  0.17578682393E+04  0.89967401457E+03 0.  0.
        -24    2    4    4    0    0 -0.29858917878E+03  0.22336189766E+03  0.10503390273E+04  0.11173592877E+04  0.78953596673E+02 0.  0.
         24    2    4    4    0    0  0.45835091840E+03  0.20750813784E+03  0.38824173623E+03  0.64050895160E+03  0.79842843557E+02 0.  0.
         13    1    3    3    0    0 -0.11620292948E+03 -0.21625038491E+03  0.41062874514E+03  0.47841751236E+03  0.00000000000E+00 0.  1.
        -13    1    3    3    0    0 -0.43558810142E+02 -0.21461965058E+03  0.28356970964E+03  0.35828863307E+03  0.00000000000E+00 0. -1.
          2    1    6    6  502    0  0.28652712774E+02  0.35729874187E+02  0.46255151192E+02  0.65093324316E+02  0.00000000000E+00 0. -1.
          1    1    5    5  503    0 -0.46784059681E+02  0.60442618098E+01  0.16462643755E+03  0.17125170155E+03  0.00000000000E+00 0. -1.
         -2    1    5    5    0  503 -0.25180511910E+03  0.21731763585E+03  0.88571258978E+03  0.94610758614E+03  0.00000000000E+00 0.  1.
         -1    1    6    6    0  502  0.42969820563E+03  0.17177826365E+03  0.34198658504E+03  0.57541562729E+03  0.00000000000E+00 0.  1.
<mgrwt>
<rscale>  0 0.14775212E+04</rscale>
<asrwt>0</asrwt>
<pdfrwt beam="1">  1        2 0.36364257E+00 0.14775212E+04</pdfrwt>
<pdfrwt beam="2">  1       -2 0.35522707E-01 0.14775212E+04</pdfrwt>
<totfact> 0.30115800E+01</totfact>
</mgrwt>
</event>
<event>
12    1  0.2083715E-007  0.2726239E+04  0.7818608E-02  0.8326541E-01
          2   -1    0    0  501    0  0.00000000000E+00  0.00000000000E+00  0.26346914803E+04  0.26346914803E+04  0.00000000000E+00 0. -1.
         -2   -1    0    0    0  501 -0.00000000000E+00 -0.00000000000E+00 -0.70524180823E+03  0.70524180823E+03  0.00000000000E+00 0.  1.
         23    2    1    2    0    0  0.78648383751E+03 -0.85417935534E+03  0.44182897888E+03  0.12456793362E+04  0.91241243014E+02 0.  0.
        254    2    1    2    0    0 -0.78648383751E+03  0.85417935534E+03  0.14876206932E+04  0.20942539523E+04  0.90813275027E+03 0.  0.
        -24    2    4    4    0    0 -0.42235345073E+03  0.17790890522E+02  0.11723793932E+03  0.44615220205E+03  0.81290219872E+02 0.  0.
         24    2    4    4    0    0 -0.36413038678E+03  0.83638846481E+03  0.13703827539E+04  0.16481017502E+04  0.78446697710E+02 0.  0.
         11    1    3    3    0    0  0.23478861002E+03 -0.31714246127E+03  0.13947989824E+03  0.41852081686E+03  0.00000000000E+00 0. -1.
        -11    1    3    3    0    0  0.55169522749E+03 -0.53703689407E+03  0.30234908065E+03  0.82715851939E+03  0.00000000000E+00 0.  1.
          2    1    6    6  502    0 -0.21136575444E+03  0.47594416997E+03  0.71203362361E+03  0.88215090332E+03  0.00000000000E+00 0. -1.
          1    1    5    5  503    0 -0.71997357713E+02 -0.29811453191E+01 -0.10165105432E+02  0.72772495584E+02  0.00000000000E+00 0. -1.
         -2    1    5    5    0  503 -0.35035609302E+03  0.20772035841E+02  0.12740304475E+03  0.37337970646E+03  0.00000000000E+00 0.  1.
         -1    1    6    6    0  502 -0.15276463235E+03  0.36044429485E+03  0.65834913025E+03  0.76595084691E+03  0.00000000000E+00 0.  1.
<mgrwt>
<rscale>  0 0.27262389E+04</rscale>
<asrwt>0</asrwt>
<pdfrwt beam="1">  1        2 0.40533715E+00 0.27262389E+04</pdfrwt>
<pdfrwt beam="2">  1       -2 0.10849874E+00 0.27262389E+04</pdfrwt>
<totfact> 0.17258763E+00</totfact>
</mgrwt>
</event>
<event>
12    1  0.2083715E-007  0.2380565E+04  0.7818608E-02  0.8446816E-01
         -2   -1    0    0    0  501 -0.00000000000E+00  0.00000000000E+00  0.72003122253E+03  0.72003122253E+03  0.00000000000E+00 0.  1.
          2   -1    0    0  501    0  0.00000000000E+00 -0.00000000000E+00 -0.19676545992E+04  0.19676545992E+04  0.00000000000E+00 0. -1.
         23    2    1    2    0    0  0.52234709167E+03  0.53782215683E+03 -0.13127981288E+04  0.15145223840E+04  0.90774270007E+02 0.  0.
        254    2    1    2    0    0 -0.52234709167E+03 -0.53782215683E+03  0.65174752061E+02  0.11731634378E+04  0.89998085921E+03 0.  0.
        -24    2    4    4    0    0 -0.26286377789E+03 -0.59341503417E+03 -0.29636215983E+03  0.71791696679E+03  0.79595684007E+02 0.  0.
         24    2    4    4    0    0 -0.25948331378E+03  0.55592877337E+02  0.36153691189E+03  0.45524647102E+03  0.78219259605E+02 0.  0.
         11    1    3    3    0    0  0.14366036480E+03  0.12705562207E+03 -0.26549966241E+03  0.32752328505E+03  0.00000000000E+00 0.  1.
        -11    1    3    3    0    0  0.37868672687E+03  0.41076653477E+03 -0.10472984664E+04  0.11869990989E+04  0.00000000000E+00 0. -1.
          2    1    6    6  502    0  0.10662727768E+01  0.12355793251E+02  0.19444605250E+02  0.23062854070E+02  0.00000000000E+00 0. -1.
          3    1    5    5  503    0 -0.62854270814E+02 -0.75246367428E+02 -0.35433944517E+02  0.10425084937E+03  0.00000000000E+00 0. -1.
         -4    1    5    5    0  503 -0.20000950707E+03 -0.51816866674E+03 -0.26092821532E+03  0.61366611741E+03  0.00000000000E+00 0.  1.
         -1    1    6    6    0  502 -0.26054958656E+03  0.43237084086E+02  0.34209230664E+03  0.43218361695E+03  0.00000000000E+00 0.  1.
<mgrwt>
<rscale>  0 0.23805653E+04</rscale>
<asrwt>0</asrwt>
<pdfrwt beam="1">  1        2 0.30271609E+00 0.23805653E+04</pdfrwt>
<pdfrwt beam="2">  1       -2 0.11077404E+00 0.23805653E+04</pdfrwt>
<totfact> 0.40513094E+00</totfact>
</mgrwt>
</event>
<event>
12    1  0.2083715E-007  0.3054043E+04  0.7818608E-02  0.8228465E-01
         -1   -1    0    0    0  501 -0.00000000000E+00  0.00000000000E+00  0.56404291866E+03  0.56404291866E+03  0.00000000000E+00 0.  1.
          1   -1    0    0  501    0  0.00000000000E+00 -0.00000000000E+00 -0.41340728680E+04  0.41340728680E+04  0.00000000000E+00 0. -1.
         23    2    1    2    0    0 -0.12725712481E+04  0.31526627993E+02 -0.24989490151E+04  0.28059419445E+04  0.90180411141E+02 0.  0.
        254    2    1    2    0    0  0.12725712481E+04 -0.31526627993E+02 -0.10710809342E+04  0.18921738421E+04  0.90148542491E+03 0.  0.
        -24    2    4    4    0    0  0.18382723564E+03 -0.15664831194E+03  0.11133384508E+03  0.27797034798E+03  0.80877333644E+02 0.  0.
         24    2    4    4    0    0  0.10887440124E+04  0.12512168395E+03 -0.11824147793E+04  0.16142034941E+04  0.80803772520E+02 0.  0.
         11    1    3    3    0    0 -0.68826585959E+03  0.50789803344E+02 -0.14179547746E+04  0.15769861256E+04  0.00000000000E+00 0.  1.
        -11    1    3    3    0    0 -0.58430538847E+03 -0.19263175352E+02 -0.10809942405E+04  0.12289558189E+04  0.00000000000E+00 0. -1.
          4    1    6    6  502    0  0.22220705682E+03  0.10835447418E+02 -0.19872762216E+03  0.29830529802E+03  0.00000000000E+00 0. -1.
          1    1    5    5  503    0 -0.85311629502E+00 -0.31416023862E+02  0.10798136039E+02  0.33230920911E+02  0.00000000000E+00 0. -1.
         -2    1    5    5    0  503  0.18468035193E+03 -0.12523228808E+03  0.10053570905E+03  0.24473942706E+03  0.00000000000E+00 0.  1.
         -3    1    6    6    0  502  0.86653695560E+03  0.11428623653E+03 -0.98368715718E+03  0.13158981961E+04  0.00000000000E+00 0.  1.
<mgrwt>
<rscale>  0 0.30540429E+04</rscale>
<asrwt>0</asrwt>
<pdfrwt beam="1">  1        1 0.63601121E+00 0.30540429E+04</pdfrwt>
<pdfrwt beam="2">  1       -1 0.86775834E-01 0.30540429E+04</pdfrwt>
<totfact> 0.80581122E-02</totfact>
</mgrwt>
</event>
<event>
12    1  0.2083715E-007  0.2412148E+04  0.7818608E-02  0.8434970E-01
         -2   -1    0    0    0  501 -0.00000000000E+00  0.00000000000E+00  0.46593474282E+03  0.46593474282E+03  0.00000000000E+00 0.  1.
          2   -1    0    0  501    0  0.00000000000E+00 -0.00000000000E+00 -0.31219271325E+04  0.31219271325E+04  0.00000000000E+00 0. -1.
         23    2    1    2    0    0  0.45749745815E+02  0.82679362115E+03 -0.20735854482E+04  0.22342762977E+04  0.80952037062E+02 0.  0.
        254    2    1    2    0    0 -0.45749745815E+02 -0.82679362115E+03 -0.58240694145E+03  0.13535855776E+04  0.89850728387E+03 0.  0.
        -24    2    4    4    0    0  0.34080797697E+03 -0.12150572655E+03 -0.25519791177E+02  0.37162303034E+03  0.80862217341E+02 0.  0.
         24    2    4    4    0    0 -0.38655772278E+03 -0.70528789460E+03 -0.55688715028E+03  0.98196254724E+03  0.85259947912E+02 0.  0.
         11    1    3    3    0    0  0.57511590037E+02  0.32337770074E+03 -0.81998669029E+03  0.88332264353E+03  0.00000000000E+00 0. -1.
        -11    1    3    3    0    0 -0.11761844221E+02  0.50341592041E+03 -0.12535987580E+04  0.13509536542E+04  0.00000000000E+00 0.  1.
          4    1    6    6  502    0 -0.10388140941E+03 -0.21664844810E+03 -0.12267292462E+03  0.26977128039E+03  0.00000000000E+00 0. -1.
          3    1    5    5  503    0  0.16055246097E+02 -0.26740149332E+02 -0.10797149266E+02  0.33005831997E+02  0.00000000000E+00 0. -1.
         -4    1    5    5    0  503  0.32475273087E+03 -0.94765577215E+02 -0.14722641910E+02  0.33861719835E+03  0.00000000000E+00 0.  1.
         -3    1    6    6    0  502 -0.28267631337E+03 -0.48863944650E+03 -0.43421422565E+03  0.71219126685E+03  0.00000000000E+00 0.  1.
<mgrwt>
<rscale>  0 0.24121479E+04</rscale>
<asrwt>0</asrwt>
<pdfrwt beam="1">  1        2 0.48029647E+00 0.24121479E+04</pdfrwt>
<pdfrwt beam="2">  1       -2 0.71682269E-01 0.24121479E+04</pdfrwt>
<totfact> 0.23111284E+00</totfact>
</mgrwt>
</event>
<event>
12    1  0.2083715E-007  0.2809540E+04  0.7818608E-02  0.8300313E-01
          2   -1    0    0  501    0  0.00000000000E+00  0.00000000000E+00  0.18049718912E+04  0.18049718912E+04  0.00000000000E+00 0.  1.
         -2   -1    0    0    0  501 -0.00000000000E+00 -0.00000000000E+00 -0.10933015276E+04  0.10933015276E+04  0.00000000000E+00 0. -1.
         23    2    1    2    0    0 -0.79387304622E+03  0.25667973593E+03  0.12919778339E+04  0.15408328819E+04  0.94023115910E+02 0.  0.
        254    2    1    2    0    0  0.79387304622E+03 -0.25667973593E+03 -0.58030747038E+03  0.13574405369E+04  0.89987174123E+03 0.  0.
        -24    2    4    4    0    0  0.47810961838E+03 -0.38837550362E+03  0.62611271812E+02  0.62447621617E+03  0.81400455756E+02 0.  0.
         24    2    4    4    0    0  0.31576342784E+03  0.13169576769E+03 -0.64291874220E+03  0.73296432073E+03  0.82715589854E+02 0.  0.
         13    1    3    3    0    0 -0.55620463657E+03  0.18288739975E+03  0.98222811745E+03  0.11434961624E+04  0.00000000000E+00 0. -1.
        -13    1    3    3    0    0 -0.23766840965E+03  0.73792336182E+02  0.30974971649E+03  0.39733671953E+03  0.00000000000E+00 0.  1.
          2    1    6    6  502    0  0.28214858225E+03  0.11690977406E+03 -0.61559243714E+03  0.68718976010E+03  0.00000000000E+00 0. -1.
          1    1    5    5  503    0  0.31767845478E+03 -0.21841111708E+03  0.14110051304E+02  0.38577468844E+03  0.00000000000E+00 0. -1.
         -4    1    5    5    0  503  0.16043116360E+03 -0.16996438654E+03  0.48501220508E+02  0.23870152772E+03  0.00000000000E+00 0.  1.
         -1    1    6    6    0  502  0.33614845596E+02  0.14785993633E+02 -0.27326305061E+02  0.45774560625E+02  0.00000000000E+00 0.  1.
<mgrwt>
<rscale>  0 0.28095398E+04</rscale>
<asrwt>0</asrwt>
<pdfrwt beam="1">  1        2 0.27768798E+00 0.28095398E+04</pdfrwt>
<pdfrwt beam="2">  1       -2 0.16820024E+00 0.28095398E+04</pdfrwt>
<totfact> 0.16368862E+00</totfact>
</mgrwt>
</event>
<event>
12    1  0.2083715E-007  0.2468646E+04  0.7818608E-02  0.8414241E-01
         -2   -1    0    0    0  501 -0.00000000000E+00  0.00000000000E+00  0.26032146548E+04  0.26032146548E+04  0.00000000000E+00 0.  1.
          2   -1    0    0  501    0  0.00000000000E+00 -0.00000000000E+00 -0.58525856732E+03  0.58525856732E+03  0.00000000000E+00 0. -1.
         23    2    1    2    0    0  0.29617116418E+03 -0.59232414433E+03 -0.20732397459E+03  0.69988573554E+03  0.91058014045E+02 0.  0.
        254    2    1    2    0    0 -0.29617116418E+03  0.59232414433E+03  0.22252800621E+04  0.24885874866E+04  0.89589679839E+03 0.  0.
        -24    2    4    4    0    0 -0.25261492558E+03  0.63466052624E+03  0.78125232826E+03  0.10407774860E+04  0.79084074356E+02 0.  0.
         24    2    4    4    0    0 -0.43556238597E+02 -0.42336381911E+02  0.14440277339E+04  0.14478100006E+04  0.85136282329E+02 0.  0.
         13    1    3    3    0    0  0.23361129505E+03 -0.51840569437E+03 -0.15293530139E+03  0.58881907878E+03  0.00000000000E+00 0.  1.
        -13    1    3    3    0    0  0.62559869130E+02 -0.73918449965E+02 -0.54388673199E+02  0.11106665676E+03  0.00000000000E+00 0. -1.
          2    1    6    6  502    0  0.19709572153E+02  0.61372877946E+01  0.16244495805E+03  0.16375132955E+03  0.00000000000E+00 0. -1.
          3    1    5    5  503    0 -0.42132545691E+02  0.48547776769E+02  0.86425155083E+02  0.10770954213E+03  0.00000000000E+00 0. -1.
         -4    1    5    5    0  503 -0.21048237989E+03  0.58611274947E+03  0.69482717318E+03  0.93306794389E+03  0.00000000000E+00 0.  1.
         -1    1    6    6    0  502 -0.63265810750E+02 -0.48473669705E+02  0.12815827758E+04  0.12840586711E+04  0.00000000000E+00 0.  1.
<mgrwt>
<rscale>  0 0.24686463E+04</rscale>
<asrwt>0</asrwt>
<pdfrwt beam="1">  1        2 0.90039781E-01 0.24686463E+04</pdfrwt>
<pdfrwt beam="2">  1       -2 0.40049456E+00 0.24686463E+04</pdfrwt>
<totfact> 0.33683973E-01</totfact>
</mgrwt>
</event>
<event>
12    1  0.2083715E-007  0.1610632E+04  0.7818608E-02  0.8814043E-01
         -1   -1    0    0    0  501 -0.00000000000E+00  0.00000000000E+00  0.31036620465E+03  0.31036620465E+03  0.00000000000E+00 0.  1.
          1   -1    0    0  501    0  0.00000000000E+00 -0.00000000000E+00 -0.20895775784E+04  0.20895775784E+04  0.00000000000E+00 0. -1.
         23    2    1    2    0    0 -0.38879742373E+01 -0.49949397100E+03 -0.27722067783E+03  0.57853894183E+03  0.91360054619E+02 0.  0.
        254    2    1    2    0    0  0.38879742373E+01  0.49949397100E+03 -0.15019906960E+04  0.18214048413E+04  0.90112718396E+03 0.  0.
        -24    2    4    4    0    0  0.39359537718E+03  0.14273170513E+02 -0.53574720291E+03  0.66932633768E+03  0.76495990394E+02 0.  0.
         24    2    4    4    0    0 -0.38970740294E+03  0.48522080049E+03 -0.96624349305E+03  0.11520785036E+04  0.79669978501E+02 0.  0.
         11    1    3    3    0    0  0.39303704890E+02 -0.14288466173E+03 -0.91335986095E+02  0.17407777035E+03  0.00000000000E+00 0.  1.
        -11    1    3    3    0    0 -0.43191679128E+02 -0.35660930927E+03 -0.18588469174E+03  0.40446117147E+03  0.00000000000E+00 0. -1.
          2    1    6    6  502    0 -0.13316625205E+01  0.19518110352E+01 -0.24254811161E+02  0.24369627733E+02  0.00000000000E+00 0. -1.
          1    1    5    5  503    0  0.14771929799E+03 -0.28266619542E+02 -0.17596112608E+03  0.23147853177E+03  0.00000000000E+00 0. -1.
         -2    1    5    5    0  503  0.24587607919E+03  0.42539790056E+02 -0.35978607683E+03  0.43784780591E+03  0.00000000000E+00 0.  1.
         -1    1    6    6    0  502 -0.38837574042E+03  0.48326898945E+03 -0.94198868188E+03  0.11277088759E+04  0.00000000000E+00 0.  1.
<mgrwt>
<rscale>  0 0.16106325E+04</rscale>
<asrwt>0</asrwt>
<pdfrwt beam="1">  1        1 0.32147348E+00 0.16106325E+04</pdfrwt>
<pdfrwt beam="2">  1       -1 0.47748646E-01 0.16106325E+04</pdfrwt>
<totfact> 0.10885792E+01</totfact>
</mgrwt>
</event>
<event>
12    1  0.2083715E-007  0.1171677E+04  0.7818608E-02  0.9138016E-01
         -1   -1    0    0    0  501 -0.00000000000E+00  0.00000000000E+00  0.12023563733E+03  0.12023563733E+03  0.00000000000E+00 0.  1.
          1   -1    0    0  501    0  0.00000000000E+00 -0.00000000000E+00 -0.28544494416E+04  0.28544494416E+04  0.00000000000E+00 0. -1.
         23    2    1    2    0    0  0.70439953500E+01 -0.20504809723E+03 -0.32933385231E+03  0.39882414291E+03  0.92225650696E+02 0.  0.
        254    2    1    2    0    0 -0.70439953500E+01  0.20504809723E+03 -0.24048799520E+04  0.25758609360E+04  0.89973198135E+03 0.  0.
        -24    2    4    4    0    0  0.23492833255E+03  0.40374699561E+03 -0.20128137610E+04  0.20675642477E+04  0.72109113268E+02 0.  0.
         24    2    4    4    0    0 -0.24197232790E+03 -0.19869889838E+03 -0.39206619101E+03  0.50829668830E+03  0.81349649804E+02 0.  0.
         13    1    3    3    0    0 -0.29444433529E+02 -0.11999412345E+03 -0.13164558714E+03  0.18054396955E+03  0.00000000000E+00 0.  1.
        -13    1    3    3    0    0  0.36488428879E+02 -0.85053973786E+02 -0.19768826517E+03  0.21828017337E+03  0.00000000000E+00 0. -1.
          2    1    6    6  502    0  0.53323567340E+01 -0.11872257121E+02 -0.10577265102E+02  0.16770899037E+02  0.00000000000E+00 0. -1.
          3    1    5    5  503    0  0.24174501390E+02  0.99569612552E+02 -0.41626564706E+03  0.42869056811E+03  0.00000000000E+00 0. -1.
         -2    1    5    5    0  503  0.21075383116E+03  0.30417738306E+03 -0.15965481139E+04  0.16388736796E+04  0.00000000000E+00 0.  1.
         -1    1    6    6    0  502 -0.24730468463E+03 -0.18682664126E+03 -0.38148892591E+03  0.49152578927E+03  0.00000000000E+00 0.  1.
<mgrwt>
<rscale>  0 0.11716767E+04</rscale>
<asrwt>0</asrwt>
<pdfrwt beam="1">  1        1 0.43914606E+00 0.11716767E+04</pdfrwt>
<pdfrwt beam="2">  1       -1 0.18497791E-01 0.11716767E+04</pdfrwt>
<totfact> 0.17816640E+01</totfact>
</mgrwt>
</event>
<event>
12    1  0.2083715E-007  0.2062934E+04  0.7818608E-02  0.8577749E-01
          1   -1    0    0  501    0  0.00000000000E+00  0.00000000000E+00  0.15066668211E+04  0.15066668211E+04  0.00000000000E+00 0. -1.
         -1   -1    0    0    0  501 -0.00000000000E+00 -0.00000000000E+00 -0.70614447964E+03  0.70614447964E+03  0.00000000000E+00 0.  1.
         23    2    1    2    0    0 -0.35185434718E+03 -0.61014834359E+03 -0.15051436178E+03  0.72615901308E+03  0.92573518692E+02 0.  0.
        254    2    1    2    0    0  0.35185434718E+03  0.61014834359E+03  0.95103670327E+03  0.14866522877E+04  0.89976759815E+03 0.  0.
        -24    2    4    4    0    0  0.38007083473E+03 -0.97574008552E+02  0.50987896157E+03  0.64832239796E+03  0.79817602591E+02 0.  0.
         24    2    4    4    0    0 -0.28216487549E+02  0.70772235214E+03  0.44115774170E+03  0.83832988972E+03  0.80683040672E+02 0.  0.
         11    1    3    3    0    0 -0.86430084562E+02 -0.23648150829E+03 -0.62895111785E+02  0.25951774191E+03  0.00000000000E+00 0.  1.
        -11    1    3    3    0    0 -0.26542426262E+03 -0.37366683530E+03 -0.87619249999E+02  0.46664127117E+03  0.00000000000E+00 0. -1.
          2    1    6    6  502    0  0.12636454476E+02  0.34747801690E+03  0.25179015961E+03  0.42930052025E+03  0.00000000000E+00 0. -1.
          1    1    5    5  503    0  0.26159823019E+03 -0.78696850745E+02  0.29383965387E+03  0.40120888642E+03  0.00000000000E+00 0. -1.
         -2    1    5    5    0  503  0.11847260455E+03 -0.18877157807E+02  0.21603930770E+03  0.24711351154E+03  0.00000000000E+00 0.  1.
         -1    1    6    6    0  502 -0.40852942025E+02  0.36024433524E+03  0.18936758209E+03  0.40902936948E+03  0.00000000000E+00 0.  1.
<mgrwt>
<rscale>  0 0.20629343E+04</rscale>
<asrwt>0</asrwt>
<pdfrwt beam="1">  1        1 0.23179490E+00 0.20629343E+04</pdfrwt>
<pdfrwt beam="2">  1       -1 0.10863761E+00 0.20629343E+04</pdfrwt>
<totfact> 0.46935124E+00</totfact>
</mgrwt>
</event>
<event>
12    1  0.2083715E-007  0.1539205E+04  0.7818608E-02  0.8858792E-01
          2   -1    0    0  501    0  0.00000000000E+00  0.00000000000E+00  0.30630233294E+04  0.30630233294E+04  0.00000000000E+00 0. -1.
         -2   -1    0    0    0  501 -0.00000000000E+00 -0.00000000000E+00 -0.19336719097E+03  0.19336719097E+03  0.00000000000E+00 0.  1.
         23    2    1    2    0    0 -0.21061555596E+03  0.40242139743E+03  0.13974968947E+04  0.14727602896E+04  0.98607334657E+02 0.  0.
        254    2    1    2    0    0  0.21061555596E+03 -0.40242139743E+03  0.14721592437E+04  0.17836302308E+04  0.89876697072E+03 0.  0.
        -24    2    4    4    0    0 -0.32760029232E+03 -0.45017400080E+02  0.66264402337E+03  0.74485347328E+03  0.79756360949E+02 0.  0.
         24    2    4    4    0    0  0.53821584829E+03 -0.35740399735E+03  0.80951522035E+03  0.10387767575E+04  0.79550884436E+02 0.  0.
         11    1    3    3    0    0 -0.51265819643E+02  0.12477705582E+03  0.28842670461E+03  0.31841397873E+03  0.00000000000E+00 0.  1.
        -11    1    3    3    0    0 -0.15934973632E+03  0.27764434162E+03  0.11090701901E+04  0.11543463109E+04  0.00000000000E+00 0. -1.
          4    1    6    6  502    0  0.44295143445E+03 -0.26718600545E+03  0.60763439938E+03  0.79800620179E+03  0.00000000000E+00 0. -1.
          3    1    5    5  503    0 -0.29987556160E+03 -0.50810941536E+02  0.54783365185E+03  0.62660100090E+03  0.00000000000E+00 0. -1.
         -4    1    5    5    0  503 -0.27724730716E+02  0.57935414565E+01  0.11481037153E+03  0.11825247239E+03  0.00000000000E+00 0.  1.
         -3    1    6    6    0  502  0.95264413838E+02 -0.90217991903E+02  0.20188082097E+03  0.24077055568E+03  0.00000000000E+00 0.  1.
<mgrwt>
<rscale>  0 0.15392053E+04</rscale>
<asrwt>0</asrwt>
<pdfrwt beam="1">  1        2 0.47123432E+00 0.15392053E+04</pdfrwt>
<pdfrwt beam="2">  1       -2 0.29748801E-01 0.15392053E+04</pdfrwt>
<totfact> 0.16062264E+01</totfact>
</mgrwt>
</event>
<event>
12    1  0.2083715E-007  0.1394101E+04  0.7818608E-02  0.8958100E-01
         -2   -1    0    0    0  501 -0.00000000000E+00  0.00000000000E+00  0.20109181258E+03  0.20109181258E+03  0.00000000000E+00 0.  1.
          2   -1    0    0  501    0  0.00000000000E+00 -0.00000000000E+00 -0.24162050679E+04  0.24162050679E+04  0.00000000000E+00 0. -1.
         23    2    1    2    0    0 -0.75125485409E+02  0.36736955784E+03 -0.39471898138E+03  0.55263818467E+03  0.94877069494E+02 0.  0.
        254    2    1    2    0    0  0.75125485409E+02 -0.36736955784E+03 -0.18203942740E+04  0.20646586958E+04  0.89909731786E+03 0.  0.
        -24    2    4    4    0    0  0.31055188947E+03 -0.50773476155E+03 -0.77107965698E+03  0.97726541924E+03  0.79036688228E+02 0.  0.
         24    2    4    4    0    0 -0.23542640407E+03  0.14036520371E+03 -0.10493146170E+04  0.10873932766E+04  0.78961955438E+02 0.  0.
         13    1    3    3    0    0 -0.87624139675E+01  0.79207617668E+02 -0.14560813418E+03  0.16598902173E+03  0.00000000000E+00 0. -1.
        -13    1    3    3    0    0 -0.66363071441E+02  0.28816194017E+03 -0.24911084720E+03  0.38664916294E+03  0.00000000000E+00 0.  1.
          2    1    6    6  502    0 -0.11214225582E+03  0.10557146738E+03 -0.49187635771E+03  0.51542562174E+03  0.00000000000E+00 0. -1.
          1    1    5    5  503    0  0.13222706493E+03 -0.29126127029E+03 -0.40351442756E+03  0.51491845715E+03  0.00000000000E+00 0. -1.
         -2    1    5    5    0  503  0.17832482454E+03 -0.21647349126E+03 -0.36756522942E+03  0.46234696208E+03  0.00000000000E+00 0.  1.
         -1    1    6    6    0  502 -0.12328414824E+03  0.34793736332E+02 -0.55743825930E+03  0.57196765488E+03  0.00000000000E+00 0.  1.
<mgrwt>
<rscale>  0 0.13941005E+04</rscale>
<asrwt>0</asrwt>
<pdfrwt beam="1">  1        2 0.37172387E+00 0.13941005E+04</pdfrwt>
<pdfrwt beam="2">  1       -2 0.30937201E-01 0.13941005E+04</pdfrwt>
<totfact> 0.36790714E+01</totfact>
</mgrwt>
</event>
<event>
12    1  0.2083715E-007  0.1915155E+04  0.7818608E-02  0.8647350E-01
          2   -1    0    0  501    0  0.00000000000E+00  0.00000000000E+00  0.21048392744E+04  0.21048392744E+04  0.00000000000E+00 0. -1.
         -2   -1    0    0    0  501 -0.00000000000E+00 -0.00000000000E+00 -0.43564099477E+03  0.43564099477E+03  0.00000000000E+00 0.  1.
         23    2    1    2    0    0 -0.17218352247E+03 -0.56421619780E+03  0.12511878766E+04  0.13863880825E+04  0.92810180571E+02 0.  0.
        254    2    1    2    0    0  0.17218352247E+03  0.56421619780E+03  0.41801040303E+03  0.11540921866E+04  0.89956044540E+03 0.  0.
        -24    2    4    4    0    0 -0.15162813465E+03  0.68578858200E+03  0.18841786007E+03  0.73158934825E+03  0.80153690255E+02 0.  0.
         24    2    4    4    0    0  0.32381165712E+03 -0.12157238421E+03  0.22959254296E+03  0.42250283838E+03  0.78498909324E+02 0.  0.
         13    1    3    3    0    0 -0.51945671499E+02 -0.27761944782E+03  0.67534739577E+03  0.73202801556E+03  0.00000000000E+00 0.  1.
        -13    1    3    3    0    0 -0.12023785097E+03 -0.28659674998E+03  0.57584048080E+03  0.65436006696E+03  0.00000000000E+00 0. -1.
          4    1    6    6  502    0  0.25510943785E+03 -0.12777628356E+03  0.17704459786E+03  0.33578623193E+03  0.00000000000E+00 0. -1.
          3    1    5    5  503    0 -0.88182798391E+02  0.45824158619E+03  0.16163420476E+03  0.49384934281E+03  0.00000000000E+00 0. -1.
         -4    1    5    5    0  503 -0.63445336254E+02  0.22754699581E+03  0.26783655311E+02  0.23774000544E+03  0.00000000000E+00 0.  1.
         -3    1    6    6    0  502  0.68702219269E+02  0.62038993539E+01  0.52547945104E+02  0.86716606451E+02  0.00000000000E+00 0.  1.
<mgrwt>
<rscale>  0 0.19151546E+04</rscale>
<asrwt>0</asrwt>
<pdfrwt beam="1">  1        2 0.32382142E+00 0.19151546E+04</pdfrwt>
<pdfrwt beam="2">  1       -2 0.67021693E-01 0.19151546E+04</pdfrwt>
<totfact> 0.11161876E+01</totfact>
</mgrwt>
</event>
<event>
12    1  0.2083715E-007  0.1640311E+04  0.7818608E-02  0.8796159E-01
          1   -1    0    0  501    0  0.00000000000E+00  0.00000000000E+00  0.14552520313E+04  0.14552520313E+04  0.00000000000E+00 0. -1.
         -1   -1    0    0    0  501 -0.00000000000E+00 -0.00000000000E+00 -0.46222577135E+03  0.46222577135E+03  0.00000000000E+00 0.  1.
         23    2    1    2    0    0  0.68569995032E+02  0.53613491975E+03  0.56251253563E+03  0.78792829767E+03  0.11076169528E+03 0.  0.
        254    2    1    2    0    0 -0.68569995032E+02 -0.53613491975E+03  0.43051372432E+03  0.11295495050E+04  0.89353092895E+03 0.  0.
        -24    2    4    4    0    0 -0.78934683649E+02 -0.69662421062E+03  0.49116100168E+02  0.70733207883E+03  0.79939372928E+02 0.  0.
         24    2    4    4    0    0  0.10364688617E+02  0.16048929087E+03  0.38139762416E+03  0.42221742615E+03  0.83301668531E+02 0.  0.
         11    1    3    3    0    0  0.60392831149E+02  0.17006326441E+03  0.13713161254E+03  0.22665808415E+03  0.00000000000E+00 0.  1.
        -11    1    3    3    0    0  0.81771638827E+01  0.36607165534E+03  0.42538092309E+03  0.56127021352E+03  0.00000000000E+00 0. -1.
          2    1    6    6  502    0 -0.13320606754E+02 -0.35255770727E+01  0.16814203200E+02  0.21739036024E+02  0.00000000000E+00 0. -1.
          3    1    5    5  503    0 -0.21069460674E+01 -0.81954040065E+02 -0.18973969682E+02  0.84148175442E+02  0.00000000000E+00 0. -1.
         -4    1    5    5    0  503 -0.76827737581E+02 -0.61467017056E+03  0.68090069850E+02  0.62318390339E+03  0.00000000000E+00 0.  1.
         -1    1    6    6    0  502  0.23685295371E+02  0.16401486794E+03  0.36458342096E+03  0.40047839013E+03  0.00000000000E+00 0.  1.
<mgrwt>
<rscale>  0 0.16403109E+04</rscale>
<asrwt>0</asrwt>
<pdfrwt beam="1">  1        1 0.22388493E+00 0.16403109E+04</pdfrwt>
<pdfrwt beam="2">  1       -1 0.71111658E-01 0.16403109E+04</pdfrwt>
<totfact> 0.13423578E+01</totfact>
</mgrwt>
</event>
<event>
12    1  0.2083715E-007  0.1546339E+04  0.7818608E-02  0.8854209E-01
         -2   -1    0    0    0  501 -0.00000000000E+00  0.00000000000E+00  0.48274031635E+03  0.48274031635E+03  0.00000000000E+00 0.  1.
          2   -1    0    0  501    0  0.00000000000E+00 -0.00000000000E+00 -0.12383288313E+04  0.12383288313E+04  0.00000000000E+00 0. -1.
         23    2    1    2    0    0  0.24586994273E+02 -0.50566358084E+03 -0.22067592084E+03  0.55968647539E+03  0.90834527697E+02 0.  0.
        254    2    1    2    0    0 -0.24586994273E+02  0.50566358084E+03 -0.53491259406E+03  0.11613826722E+04  0.89798555155E+03 0.  0.
        -24    2    4    4    0    0  0.88630186943E+02  0.74548231444E+03 -0.37832544280E+03  0.84430213419E+03  0.78209730450E+02 0.  0.
         24    2    4    4    0    0 -0.11321718122E+03 -0.23981873361E+03 -0.15658715126E+03  0.31708053804E+03  0.75427956023E+02 0.  0.
         13    1    3    3    0    0  0.50636857619E+02 -0.27286429845E+03 -0.14741543232E+03  0.31424564660E+03  0.00000000000E+00 0. -1.
        -13    1    3    3    0    0 -0.26049863346E+02 -0.23279928239E+03 -0.73260488521E+02  0.24544082879E+03  0.00000000000E+00 0.  1.
          4    1    6    6  502    0 -0.11803132648E+02  0.34617468209E+00 -0.18821397610E+02  0.22218883527E+02  0.00000000000E+00 0. -1.
          1    1    5    5  503    0 -0.10742454256E+02  0.43755479945E+02 -0.33470369148E+02  0.56126713422E+02  0.00000000000E+00 0. -1.
         -2    1    5    5    0  503  0.99372641199E+02  0.70172683450E+03 -0.34485507365E+03  0.78817542077E+03  0.00000000000E+00 0.  1.
         -3    1    6    6    0  502 -0.10141404857E+03 -0.24016490829E+03 -0.13776575365E+03  0.29486165451E+03  0.00000000000E+00 0.  1.
<mgrwt>
<rscale>  0 0.15463392E+04</rscale>
<asrwt>0</asrwt>
<pdfrwt beam="1">  1        2 0.19051213E+00 0.15463392E+04</pdfrwt>
<pdfrwt beam="2">  1       -2 0.74267742E-01 0.15463392E+04</pdfrwt>
<totfact> 0.28240138E+01</totfact>
</mgrwt>
</event>
<event>
12    1  0.2083715E-007  0.3404482E+04  0.7818608E-02  0.8136807E-01
          2   -1    0    0  501    0  0.00000000000E+00  0.00000000000E+00  0.47164754639E+04  0.47164754639E+04  0.00000000000E+00 0. -1.
         -2   -1    0    0    0  501 -0.00000000000E+00 -0.00000000000E+00 -0.61436230285E+03  0.61436230285E+03  0.00000000000E+00 0.  1.
         23    2    1    2    0    0  0.59353200885E+03 -0.39562468281E+03 -0.30082420861E+03  0.78046458464E+03  0.99149524493E+02 0.  0.
        254    2    1    2    0    0 -0.59353200885E+03  0.39562468281E+03  0.44029373696E+04  0.45503731821E+04  0.90068833685E+03 0.  0.
        -24    2    4    4    0    0 -0.78865751766E+03  0.38597964303E+03  0.39909356771E+04  0.40871358451E+04  0.78427495616E+02 0.  0.
         24    2    4    4    0    0  0.19512550881E+03  0.96450397811E+01  0.41200169248E+03  0.46323733699E+03  0.81709514715E+02 0.  0.
         11    1    3    3    0    0  0.29486095099E+03 -0.17130899969E+03 -0.95065645460E+02  0.35401586227E+03  0.00000000000E+00 0.  1.
        -11    1    3    3    0    0  0.29867105786E+03 -0.22431568312E+03 -0.20575856315E+03  0.42644872236E+03  0.00000000000E+00 0. -1.
          4    1    6    6  502    0  0.11326179221E+03  0.55048336200E+01  0.14582427574E+03  0.18472481199E+03  0.00000000000E+00 0. -1.
          1    1    5    5  503    0 -0.55279132421E+03  0.30889783169E+03  0.29014938537E+04  0.29697916933E+04  0.00000000000E+00 0. -1.
         -2    1    5    5    0  503 -0.23586619345E+03  0.77081811344E+02  0.10894418235E+04  0.11173441518E+04  0.00000000000E+00 0.  1.
         -3    1    6    6    0  502  0.81863716601E+02  0.41402061611E+01  0.26617741674E+03  0.27851252501E+03  0.00000000000E+00 0.  1.
<mgrwt>
<rscale>  0 0.34044822E+04</rscale>
<asrwt>0</asrwt>
<pdfrwt beam="1">  1        2 0.72561159E+00 0.34044822E+04</pdfrwt>
<pdfrwt beam="2">  1       -2 0.94517280E-01 0.34044822E+04</pdfrwt>
<totfact> 0.57241078E-02</totfact>
</mgrwt>
</event>
<event>
12    1  0.2143434E-007  0.2182518E+04  0.7818608E-02  0.8525740E-01
         -1   -1    0    0    0  501 -0.00000000000E+00  0.00000000000E+00  0.11036379898E+04  0.11036379898E+04  0.00000000000E+00 0.  1.
          1   -1    0    0  501    0  0.00000000000E+00 -0.00000000000E+00 -0.10790193415E+04  0.10790193415E+04  0.00000000000E+00 0. -1.
         23    2    1    2    0    0  0.57152659408E+03 -0.62951417514E+03  0.31522018091E+03  0.91104423527E+03  0.87790043408E+02 0.  0.
        254    2    1    2    0    0 -0.57152659408E+03  0.62951417514E+03 -0.29060153266E+03  0.12716130961E+04  0.89978879236E+03 0.  0.
        -24    2    4    4    0    0  0.21248037221E+03  0.46454418889E+02 -0.16158801997E+03  0.28273800941E+03  0.80772347756E+02 0.  0.
         24    2    4    4    0    0 -0.78400696628E+03  0.58305975625E+03 -0.12901351269E+03  0.98887508665E+03  0.81264063449E+02 0.  0.
         11    1    3    3    0    0  0.36653247657E+03 -0.42424214505E+03  0.24913136584E+03  0.61350948767E+03  0.00000000000E+00 0. -1.
        -11    1    3    3    0    0  0.20499411751E+03 -0.20527203009E+03  0.66088815071E+02  0.29753474760E+03  0.00000000000E+00 0.  1.
          4    1    6    6  502    0 -0.13425400705E+03  0.68390618682E+02 -0.49670899430E+01  0.15075174001E+03  0.00000000000E+00 0. -1.
          3    1    5    5  503    0  0.43387638002E+01  0.21690838105E+02 -0.11472098646E+02  0.24918394337E+02  0.00000000000E+00 0. -1.
         -4    1    5    5    0  503  0.20814160841E+03  0.24763580784E+02 -0.15011592132E+03  0.25781961508E+03  0.00000000000E+00 0.  1.
         -3    1    6    6    0  502 -0.64975295924E+03  0.51466913757E+03 -0.12404642275E+03  0.83812334665E+03  0.00000000000E+00 0.  1.
<mgrwt>
<rscale>  0 0.21825185E+04</rscale>
<asrwt>0</asrwt>
<pdfrwt beam="1">  1        1 0.16600298E+00 0.21825185E+04</pdfrwt>
<pdfrwt beam="2">  1       -1 0.16979046E+00 0.21825185E+04</pdfrwt>
<totfact> 0.29654434E+00</totfact>
</mgrwt>
</event>
<event>
12    1  0.2083715E-007  0.2994909E+04  0.7818608E-02  0.8245186E-01
          2   -1    0    0  501    0  0.00000000000E+00  0.00000000000E+00  0.25701088763E+04  0.25701088763E+04  0.00000000000E+00 0. -1.
         -2   -1    0    0    0  501 -0.00000000000E+00 -0.00000000000E+00 -0.87248070877E+03  0.87248070877E+03  0.00000000000E+00 0.  1.
         23    2    1    2    0    0 -0.13174790478E+04  0.32718872972E+03  0.67955487687E+03  0.15207724614E+04  0.90280355804E+02 0.  0.
        254    2    1    2    0    0  0.13174790478E+04 -0.32718872972E+03  0.10180732907E+04  0.19218171236E+04  0.90227729961E+03 0.  0.
        -24    2    4    4    0    0  0.20958392299E+03 -0.28292082945E+03 -0.68231354277E+02  0.36749947103E+03  0.80191813751E+02 0.  0.
         24    2    4    4    0    0  0.11078951248E+04 -0.44267900273E+02  0.10863046450E+04  0.15543176526E+04  0.80338839105E+02 0.  0.
         13    1    3    3    0    0 -0.65512693966E+02 -0.23264237459E+01  0.40189743260E+02  0.76893047680E+02  0.00000000000E+00 0. -1.
        -13    1    3    3    0    0 -0.12519663538E+04  0.32951515347E+03  0.63936513361E+03  0.14438794138E+04  0.00000000000E+00 0.  1.
          4    1    6    6  502    0  0.10228401390E+04 -0.59268671822E+02  0.98578458911E+03  0.14217897107E+04  0.00000000000E+00 0. -1.
          3    1    5    5  503    0  0.21285948190E+03 -0.25210251164E+03 -0.65519763986E+02  0.33638917176E+03  0.00000000000E+00 0. -1.
         -4    1    5    5    0  503 -0.32755589065E+01 -0.30818317809E+02 -0.27115902915E+01  0.31110299270E+02  0.00000000000E+00 0.  1.
         -3    1    6    6    0  502  0.85054985789E+02  0.15000771549E+02  0.10052005585E+03  0.13252794189E+03  0.00000000000E+00 0.  1.
<mgrwt>
<rscale>  0 0.29949093E+04</rscale>
<asrwt>0</asrwt>
<pdfrwt beam="1">  1        2 0.39540136E+00 0.29949093E+04</pdfrwt>
<pdfrwt beam="2">  1       -2 0.13422780E+00 0.29949093E+04</pdfrwt>
<totfact> 0.10860370E+00</totfact>
</mgrwt>
</event>
<event>
12    1  0.2083715E-007  0.1639720E+04  0.7818608E-02  0.8796511E-01
         -1   -1    0    0    0  501 -0.00000000000E+00  0.00000000000E+00  0.65430386995E+03  0.65430386995E+03  0.00000000000E+00 0.  1.
          1   -1    0    0  501    0  0.00000000000E+00 -0.00000000000E+00 -0.10273058227E+04  0.10273058227E+04  0.00000000000E+00 0. -1.
         23    2    1    2    0    0 -0.17367138438E+03 -0.43235173375E+03 -0.46339232140E+03  0.66364421672E+03  0.92743902348E+02 0.  0.
        254    2    1    2    0    0  0.17367138438E+03  0.43235173375E+03  0.90390368608E+02  0.10179654760E+04  0.90055178646E+03 0.  0.
        -24    2    4    4    0    0 -0.80222571149E+02  0.34138377238E+03  0.44047668777E+03  0.56869567966E+03  0.80103199902E+02 0.  0.
         24    2    4    4    0    0  0.25389395553E+03  0.90967961376E+02 -0.35008631916E+03  0.44926979631E+03  0.80904934082E+02 0.  0.
         13    1    3    3    0    0 -0.62652280257E+02 -0.12688117398E+03 -0.86019983030E+02  0.16560065825E+03  0.00000000000E+00 0. -1.
        -13    1    3    3    0    0 -0.11101910412E+03 -0.30547055977E+03 -0.37737233837E+03  0.49804355847E+03  0.00000000000E+00 0.  1.
          4    1    6    6  502    0  0.17869862282E+03  0.99175899963E+02 -0.27559997042E+03  0.34310989584E+03  0.00000000000E+00 0. -1.
          1    1    5    5  503    0 -0.61625804458E+01  0.19757469826E+03  0.25348027550E+03  0.32144360136E+03  0.00000000000E+00 0. -1.
         -2    1    5    5    0  503 -0.74059990704E+02  0.14380907411E+03  0.18699641227E+03  0.24725207830E+03  0.00000000000E+00 0.  1.
         -3    1    6    6    0  502  0.75195332714E+02 -0.82079385873E+01 -0.74486348739E+02  0.10615990046E+03  0.00000000000E+00 0.  1.
<mgrwt>
<rscale>  0 0.16397197E+04</rscale>
<asrwt>0</asrwt>
<pdfrwt beam="1">  1        1 0.15804705E+00 0.16397197E+04</pdfrwt>
<pdfrwt beam="2">  1       -1 0.10066213E+00 0.16397197E+04</pdfrwt>
<totfact> 0.12939105E+01</totfact>
</mgrwt>
</event>
<event>
12    1  0.2083715E-007  0.1928885E+04  0.7818608E-02  0.8640610E-01
         -2   -1    0    0    0  501 -0.00000000000E+00  0.00000000000E+00  0.16535690685E+04  0.16535690685E+04  0.00000000000E+00 0.  1.
          2   -1    0    0  501    0  0.00000000000E+00 -0.00000000000E+00 -0.56251024991E+03  0.56251024991E+03  0.00000000000E+00 0. -1.
         23    2    1    2    0    0 -0.53546766290E+03  0.45541510155E+02  0.10282897853E+04  0.11638335095E+04  0.91262850931E+02 0.  0.
        254    2    1    2    0    0  0.53546766290E+03 -0.45541510155E+02  0.62769033283E+02  0.10522458090E+04  0.90248636767E+03 0.  0.
        -24    2    4    4    0    0  0.54095895704E+03 -0.34543041787E+03  0.24517259759E+03  0.69162858933E+03  0.79257404572E+02 0.  0.
         24    2    4    4    0    0 -0.54912941391E+01  0.29988890771E+03 -0.18240356430E+03  0.36061721965E+03  0.82523981720E+02 0.  0.
         13    1    3    3    0    0 -0.25044536074E+03 -0.30639023557E+01  0.56023843849E+03  0.61367692981E+03  0.00000000000E+00 0.  1.
        -13    1    3    3    0    0 -0.28502230216E+03  0.48605412511E+02  0.46805134684E+03  0.55015657965E+03  0.00000000000E+00 0. -1.
          2    1    6    6  502    0 -0.19198912472E+02  0.89052062008E+02 -0.96019742522E+02  0.13235807094E+03  0.00000000000E+00 0. -1.
          1    1    5    5  503    0  0.37097802879E+03 -0.21599532062E+03  0.19844889460E+03  0.47292773247E+03  0.00000000000E+00 0. -1.
         -4    1    5    5    0  503  0.16998092825E+03 -0.12943509725E+03  0.46723702983E+02  0.21870085685E+03  0.00000000000E+00 0.  1.
         -1    1    6    6    0  502  0.13707618333E+02  0.21083684571E+03 -0.86383821781E+02  0.22825914872E+03  0.00000000000E+00 0.  1.
<mgrwt>
<rscale>  0 0.19288852E+04</rscale>
<asrwt>0</asrwt>
<pdfrwt beam="1">  1        2 0.86540039E-01 0.19288852E+04</pdfrwt>
<pdfrwt beam="2">  1       -2 0.25439524E+00 0.19288852E+04</pdfrwt>
<totfact> 0.30240013E+00</totfact>
</mgrwt>
</event>
<event>
12    1  0.2083715E-007  0.4565796E+04  0.7818608E-02  0.7899218E-01
         -2   -1    0    0    0  501 -0.00000000000E+00  0.00000000000E+00  0.12531007195E+04  0.12531007195E+04  0.00000000000E+00 0.  1.
          2   -1    0    0  501    0  0.00000000000E+00 -0.00000000000E+00 -0.41589827532E+04  0.41589827532E+04  0.00000000000E+00 0. -1.
         23    2    1    2    0    0 -0.31054210890E+02 -0.15924348431E+04 -0.31852259493E+04  0.35623588925E+04  0.89013693069E+02 0.  0.
        254    2    1    2    0    0  0.31054210890E+02  0.15924348431E+04  0.27934391557E+03  0.18497245801E+04  0.89812855746E+03 0.  0.
        -24    2    4    4    0    0 -0.39313630244E+02  0.14464288644E+04 -0.75942380016E+02  0.14510951560E+04  0.78790134508E+02 0.  0.
         24    2    4    4    0    0  0.70367841133E+02  0.14600597865E+03  0.35528629559E+03  0.39862942414E+03  0.80048029912E+02 0.  0.
         11    1    3    3    0    0 -0.32933208532E+02 -0.26150238754E+03 -0.56727631239E+03  0.62551619445E+03  0.00000000000E+00 0.  1.
        -11    1    3    3    0    0  0.18789976427E+01 -0.13309324556E+04 -0.26179496369E+04  0.29368426980E+04  0.00000000000E+00 0. -1.
          2    1    6    6  502    0  0.48203440304E+02  0.10135639896E+03  0.14978666020E+03  0.18717033644E+03  0.00000000000E+00 0. -1.
          1    1    5    5  503    0 -0.53629915516E+02  0.56174380407E+03 -0.27271103293E+02  0.56495661986E+03  0.00000000000E+00 0. -1.
         -2    1    5    5    0  503  0.14316285272E+02  0.88468506037E+03 -0.48671276723E+02  0.88613853614E+03  0.00000000000E+00 0.  1.
         -1    1    6    6    0  502  0.22164400829E+02  0.44649579695E+02  0.20549963538E+03  0.21145908771E+03  0.00000000000E+00 0.  1.
<mgrwt>
<rscale>  0 0.45657964E+04</rscale>
<asrwt>0</asrwt>
<pdfrwt beam="1">  1        2 0.63984349E+00 0.45657964E+04</pdfrwt>
<pdfrwt beam="2">  1       -2 0.19278473E+00 0.45657964E+04</pdfrwt>
<totfact> 0.28077145E-02</totfact>
</mgrwt>
</event>
<event>
12    1  0.2083715E-007  0.1425476E+04  0.7818608E-02  0.8935581E-01
          2   -1    0    0  501    0  0.00000000000E+00  0.00000000000E+00  0.22273169848E+04  0.22273169848E+04  0.00000000000E+00 0. -1.
         -2   -1    0    0    0  501 -0.00000000000E+00 -0.00000000000E+00 -0.22807518345E+03  0.22807518345E+03  0.00000000000E+00 0.  1.
         23    2    1    2    0    0  0.84862494854E+02  0.41308119110E+03  0.59203843778E+03  0.73237169741E+03  0.89560470562E+02 0.  0.
        254    2    1    2    0    0 -0.84862494854E+02 -0.41308119110E+03  0.14072033635E+04  0.17230204708E+04  0.90041130767E+03 0.  0.
        -24    2    4    4    0    0  0.27976105251E+03 -0.31097749118E+03  0.22789535347E+03  0.48189965478E+03  0.72922826457E+02 0.  0.
         24    2    4    4    0    0 -0.36462354737E+03 -0.10210369992E+03  0.11793080100E+04  0.12411208160E+04  0.78981013725E+02 0.  0.
         13    1    3    3    0    0  0.55673878161E+02  0.18313230283E+03  0.19927389120E+03  0.27630979853E+03  0.00000000000E+00 0.  1.
        -13    1    3    3    0    0  0.29188616693E+02  0.22994888827E+03  0.39276454659E+03  0.45606189889E+03  0.00000000000E+00 0. -1.
          2    1    6    6  502    0 -0.20921384462E+03 -0.69516592561E+02  0.80227424768E+03  0.83201379671E+03  0.00000000000E+00 0. -1.
          1    1    5    5  503    0  0.99374237533E+02 -0.16471799788E+03  0.10232838316E+03  0.21789528657E+03  0.00000000000E+00 0. -1.
         -2    1    5    5    0  503  0.18038681498E+03 -0.14625949331E+03  0.12556697032E+03  0.26400436821E+03  0.00000000000E+00 0.  1.
         -1    1    6    6    0  502 -0.15540970274E+03 -0.32587107354E+02  0.37703376237E+03  0.40910701930E+03  0.00000000000E+00 0.  1.
<mgrwt>
<rscale>  0 0.14254764E+04</rscale>
<asrwt>0</asrwt>
<pdfrwt beam="1">  1        2 0.34266414E+00 0.14254764E+04</pdfrwt>
<pdfrwt beam="2">  1       -2 0.35088491E-01 0.14254764E+04</pdfrwt>
<totfact> 0.36972598E+01</totfact>
</mgrwt>
</event>
<event>
12    1  0.2083715E-007  0.1351840E+04  0.7818608E-02  0.8989437E-01
         -1   -1    0    0    0  501 -0.00000000000E+00  0.00000000000E+00  0.16013791330E+03  0.16013791330E+03  0.00000000000E+00 0.  1.
          1   -1    0    0  501    0  0.00000000000E+00 -0.00000000000E+00 -0.28529642990E+04  0.28529642990E+04  0.00000000000E+00 0. -1.
         23    2    1    2    0    0  0.24337120927E+03  0.20500423062E+02 -0.14522314349E+03  0.29866769801E+03  0.91993584467E+02 0.  0.
        254    2    1    2    0    0 -0.24337120927E+03 -0.20500423062E+02 -0.25476032422E+04  0.27144345143E+04  0.90455659841E+03 0.  0.
        -24    2    4    4    0    0  0.93194273223E+02  0.37129723270E+03 -0.80258425640E+03  0.89284822771E+03  0.80558435557E+02 0.  0.
         24    2    4    4    0    0 -0.33656548250E+03 -0.39179765576E+03 -0.17450189858E+04  0.18215862866E+04  0.79395286333E+02 0.  0.
         11    1    3    3    0    0  0.26764608571E+01  0.70816824497E+01 -0.30993687040E+02  0.31904894693E+02  0.00000000000E+00 0. -1.
        -11    1    3    3    0    0  0.24069474842E+03  0.13418740612E+02 -0.11422945645E+03  0.26676280332E+03  0.00000000000E+00 0.  1.
          4    1    6    6  502    0 -0.32683356869E+03 -0.39302185164E+03 -0.16868909886E+04  0.17626365379E+04  0.00000000000E+00 0. -1.
          3    1    5    5  503    0  0.84565087494E+02  0.35478214613E+03 -0.70772384067E+03  0.79617501838E+03  0.00000000000E+00 0. -1.
         -4    1    5    5    0  503  0.86291857291E+01  0.16515086564E+02 -0.94860415730E+02  0.96673209335E+02  0.00000000000E+00 0.  1.
         -3    1    6    6    0  502 -0.97319138050E+01  0.12241958841E+01 -0.58127997267E+02  0.58949748669E+02  0.00000000000E+00 0.  1.
<mgrwt>
<rscale>  0 0.13518399E+04</rscale>
<asrwt>0</asrwt>
<pdfrwt beam="1">  1        1 0.43891754E+00 0.13518399E+04</pdfrwt>
<pdfrwt beam="2">  1       -1 0.24636605E-01 0.13518399E+04</pdfrwt>
<totfact> 0.10814629E+01</totfact>
</mgrwt>
</event>
<event>
12    1  0.2083715E-007  0.1444658E+04  0.7818608E-02  0.8922112E-01
          2   -1    0    0  501    0  0.00000000000E+00  0.00000000000E+00  0.23635618716E+04  0.23635618716E+04  0.00000000000E+00 0. -1.
         -2   -1    0    0    0  501 -0.00000000000E+00 -0.00000000000E+00 -0.22075117515E+03  0.22075117515E+03  0.00000000000E+00 0.  1.
         23    2    1    2    0    0 -0.18892069652E+03 -0.11426159579E+03 -0.11077317353E+02  0.23895480624E+03  0.90719075275E+02 0.  0.
        254    2    1    2    0    0  0.18892069652E+03  0.11426159579E+03  0.21538880138E+04  0.23453582405E+04  0.90151259472E+03 0.  0.
        -24    2    4    4    0    0  0.66816577460E+02 -0.36781751959E+02  0.21312888267E+04  0.21340492378E+04  0.77179880800E+02 0.  0.
         24    2    4    4    0    0  0.12210411906E+03  0.15104334775E+03  0.22599187095E+02  0.21130900275E+03  0.80107818560E+02 0.  0.
         11    1    3    3    0    0 -0.13590570032E+03 -0.30233722994E+02 -0.27973417776E+01  0.13925610402E+03  0.00000000000E+00 0.  1.
        -11    1    3    3    0    0 -0.53014996201E+02 -0.84027872795E+02 -0.82799755756E+01  0.99698702219E+02  0.00000000000E+00 0. -1.
          4    1    6    6  502    0  0.91433032018E+02  0.11231227826E+03 -0.19842932933E+02  0.14617725261E+03  0.00000000000E+00 0. -1.
          3    1    5    5  503    0  0.15109811163E+02 -0.69924535702E+01  0.14647156374E+04  0.14648102605E+04  0.00000000000E+00 0. -1.
         -4    1    5    5    0  503  0.51706766296E+02 -0.29789298389E+02  0.66657318929E+03  0.66923897725E+03  0.00000000000E+00 0.  1.
         -1    1    6    6    0  502  0.30671087047E+02  0.38731069484E+02  0.42442120028E+02  0.65131750141E+02  0.00000000000E+00 0.  1.
<mgrwt>
<rscale>  0 0.14446578E+04</rscale>
<asrwt>0</asrwt>
<pdfrwt beam="1">  1        2 0.36362489E+00 0.14446578E+04</pdfrwt>
<pdfrwt beam="2">  1       -2 0.33961721E-01 0.14446578E+04</pdfrwt>
<totfact> 0.32911335E+01</totfact>
</mgrwt>
</event>
<event>
12    1  0.2083715E-007  0.1181310E+04  0.7818608E-02  0.9129375E-01
         -2   -1    0    0    0  501 -0.00000000000E+00  0.00000000000E+00  0.34188252852E+03  0.34188252852E+03  0.00000000000E+00 0.  1.
          2   -1    0    0  501    0  0.00000000000E+00 -0.00000000000E+00 -0.10204487684E+04  0.10204487684E+04  0.00000000000E+00 0. -1.
         23    2    1    2    0    0 -0.20807229608E+03  0.91178289121E+02 -0.10407538499E+03  0.26895246190E+03  0.99479546623E+02 0.  0.
        254    2    1    2    0    0  0.20807229608E+03 -0.91178289121E+02 -0.57449085490E+03  0.10933788350E+04  0.90212525391E+03 0.  0.
        -24    2    4    4    0    0  0.38306404280E+03  0.20826052734E+03 -0.58884183535E+03  0.73698064316E+03  0.79342631659E+02 0.  0.
         24    2    4    4    0    0 -0.17499174672E+03 -0.29943881646E+03  0.14350980454E+02  0.35639819187E+03  0.80796066163E+02 0.  0.
         11    1    3    3    0    0 -0.51940684256E+02 -0.33694589446E+01  0.10970663418E+02  0.53193452515E+02  0.00000000000E+00 0.  1.
        -11    1    3    3    0    0 -0.15613161182E+03  0.94547748066E+02 -0.11504604841E+03  0.21575900938E+03  0.00000000000E+00 0. -1.
          2    1    6    6  502    0 -0.51670608752E+02 -0.42572558650E+02  0.24473440130E+02  0.71282703586E+02  0.00000000000E+00 0. -1.
          3    1    5    5  503    0  0.24437660603E+03  0.91820218485E+02 -0.37215109611E+03  0.45458477365E+03  0.00000000000E+00 0. -1.
         -2    1    5    5    0  503  0.13868743677E+03  0.11644030886E+03 -0.21669073924E+03  0.28239586951E+03  0.00000000000E+00 0.  1.
         -1    1    6    6    0  502 -0.12332113797E+03 -0.25686625781E+03 -0.10122459676E+02  0.28511548829E+03  0.00000000000E+00 0.  1.
<mgrwt>
<rscale>  0 0.11813105E+04</rscale>
<asrwt>0</asrwt>
<pdfrwt beam="1">  1        2 0.15699212E+00 0.11813105E+04</pdfrwt>
<pdfrwt beam="2">  1       -2 0.52597312E-01 0.11813105E+04</pdfrwt>
<totfact> 0.82338608E+01</totfact>
</mgrwt>
</event>
<event>
12    1  0.2083715E-007  0.1894449E+04  0.7818608E-02  0.8657625E-01
          2   -1    0    0  501    0  0.00000000000E+00  0.00000000000E+00  0.24486751227E+04  0.24486751227E+04  0.00000000000E+00 0. -1.
         -2   -1    0    0    0  501 -0.00000000000E+00 -0.00000000000E+00 -0.36641607183E+03  0.36641607183E+03  0.00000000000E+00 0.  1.
         23    2    1    2    0    0  0.46612192366E+03 -0.25602637917E+02  0.16415307176E+04  0.17092458012E+04  0.94725759303E+02 0.  0.
        254    2    1    2    0    0 -0.46612192366E+03  0.25602637917E+02  0.44072833334E+03  0.11058453934E+04  0.90040403566E+03 0.  0.
        -24    2    4    4    0    0  0.12687100050E+03  0.11552985096E+03  0.46315244101E+03  0.50039623018E+03  0.80267093761E+02 0.  0.
         24    2    4    4    0    0 -0.59299292415E+03 -0.89927213042E+02 -0.22424107662E+02  0.60544916318E+03  0.79613672501E+02 0.  0.
         11    1    3    3    0    0  0.34605174289E+03  0.22911980723E+02  0.12033968822E+04  0.12523740750E+04  0.00000000000E+00 0.  1.
        -11    1    3    3    0    0  0.12007018077E+03 -0.48514618640E+02  0.43813383535E+03  0.45687172621E+03  0.00000000000E+00 0. -1.
          2    1    6    6  502    0 -0.10931737134E+03 -0.59825246065E+01  0.24870056066E+02  0.11227020070E+03  0.00000000000E+00 0. -1.
          3    1    5    5  503    0  0.53576917255E+02  0.44519795203E+02  0.91568431033E+02  0.11505336062E+03  0.00000000000E+00 0. -1.
         -4    1    5    5    0  503  0.73294083242E+02  0.71010055756E+02  0.37158400997E+03  0.38534286956E+03  0.00000000000E+00 0.  1.
         -1    1    6    6    0  502 -0.48367555282E+03 -0.83944688435E+02 -0.47294163728E+02  0.49317896248E+03  0.00000000000E+00 0.  1.
<mgrwt>
<rscale>  0 0.18944486E+04</rscale>
<asrwt>0</asrwt>
<pdfrwt beam="1">  1        2 0.37671924E+00 0.18944486E+04</pdfrwt>
<pdfrwt beam="2">  1       -2 0.56371705E-01 0.18944486E+04</pdfrwt>
<totfact> 0.10321072E+01</totfact>
</mgrwt>
</event>
<event>
12    1  0.2083715E-007  0.1466706E+04  0.7818608E-02  0.8906900E-01
          1   -1    0    0  501    0  0.00000000000E+00  0.00000000000E+00  0.23427645985E+04  0.23427645985E+04  0.00000000000E+00 0. -1.
         -1   -1    0    0    0  501 -0.00000000000E+00 -0.00000000000E+00 -0.22956064339E+03  0.22956064339E+03  0.00000000000E+00 0.  1.
         23    2    1    2    0    0  0.26678451983E+03  0.36173364429E+03  0.64602680866E+03  0.79261188805E+03  0.94115663584E+02 0.  0.
        254    2    1    2    0    0 -0.26678451983E+03 -0.36173364429E+03  0.14671771465E+04  0.17797133539E+04  0.90152406144E+03 0.  0.
        -24    2    4    4    0    0 -0.44102357858E+03 -0.46210008936E+03  0.14190249141E+04  0.15581331947E+04  0.78160450713E+02 0.  0.
         24    2    4    4    0    0  0.17423905875E+03  0.10036644508E+03  0.48152232380E+02  0.22158015920E+03  0.79664650727E+02 0.  0.
         11    1    3    3    0    0  0.10310346179E+03  0.14311642361E+03  0.17709904347E+03  0.24995340713E+03  0.00000000000E+00 0.  1.
        -11    1    3    3    0    0  0.16368105804E+03  0.21861722068E+03  0.46892776520E+03  0.54265848092E+03  0.00000000000E+00 0. -1.
          2    1    6    6  502    0  0.36626418205E+02  0.23272038582E+02  0.46821152954E+02  0.63838097201E+02  0.00000000000E+00 0. -1.
          1    1    5    5  503    0 -0.29033313558E+03 -0.29812337142E+03  0.83155076341E+03  0.92986426231E+03  0.00000000000E+00 0. -1.
         -2    1    5    5    0  503 -0.15069044300E+03 -0.16397671794E+03  0.58747415069E+03  0.62826893236E+03  0.00000000000E+00 0.  1.
         -1    1    6    6    0  502  0.13761264054E+03  0.77094406496E+02  0.13310794258E+01  0.15774206199E+03  0.00000000000E+00 0.  1.
<mgrwt>
<rscale>  0 0.14667059E+04</rscale>
<asrwt>0</asrwt>
<pdfrwt beam="1">  1        1 0.36042531E+00 0.14667059E+04</pdfrwt>
<pdfrwt beam="2">  1       -1 0.35317024E-01 0.14667059E+04</pdfrwt>
<totfact> 0.12908929E+01</totfact>
</mgrwt>
</event>
<event>
12    1  0.2083715E-007  0.1050851E+04  0.7818608E-02  0.9254466E-01
         -2   -1    0    0    0  501 -0.00000000000E+00  0.00000000000E+00  0.12381494281E+03  0.12381494281E+03  0.00000000000E+00 0. -1.
          2   -1    0    0  501    0  0.00000000000E+00 -0.00000000000E+00 -0.22297138891E+04  0.22297138891E+04  0.00000000000E+00 0.  1.
         23    2    1    2    0    0 -0.10800203375E+03 -0.10188236075E+01 -0.21918992271E+03  0.26068519494E+03  0.90813387481E+02 0.  0.
        254    2    1    2    0    0  0.10800203375E+03  0.10188236075E+01 -0.18867090236E+04  0.20928436370E+04  0.89925417535E+03 0.  0.
        -24    2    4    4    0    0  0.34661349224E+03  0.33053421504E+03 -0.91761481302E+03  0.10387930961E+04  0.87637726328E+02 0.  0.
         24    2    4    4    0    0 -0.23861145849E+03 -0.32951539143E+03 -0.96909421058E+03  0.10540505409E+04  0.79769245416E+02 0.  0.
         13    1    3    3    0    0 -0.56622030097E+02  0.35448310340E+02 -0.61212388047E+02  0.90606806856E+02  0.00000000000E+00 0. -1.
        -13    1    3    3    0    0 -0.51380003654E+02 -0.36467133948E+02 -0.15797753466E+03  0.17007838808E+03  0.00000000000E+00 0.  1.
          4    1    6    6  502    0 -0.55464836921E+02 -0.98543614580E+02 -0.36065137433E+03  0.37796376270E+03  0.00000000000E+00 0. -1.
          3    1    5    5  503    0  0.79482641580E+02  0.55417166195E+02 -0.12380769172E+03  0.15721608426E+03  0.00000000000E+00 0. -1.
         -4    1    5    5    0  503  0.26713085066E+03  0.27511704884E+03 -0.79380712130E+03  0.88157701182E+03  0.00000000000E+00 0.  1.
         -3    1    6    6    0  502 -0.18314662157E+03 -0.23097177685E+03 -0.60844283625E+03  0.67608677821E+03  0.00000000000E+00 0.  1.
<mgrwt>
<rscale>  0 0.10508509E+04</rscale>
<asrwt>0</asrwt>
<pdfrwt beam="1">  1        2 0.34303289E+00 0.10508509E+04</pdfrwt>
<pdfrwt beam="2">  1       -2 0.19048454E-01 0.10508509E+04</pdfrwt>
<totfact> 0.11584413E+02</totfact>
</mgrwt>
</event>
<event>
12    1  0.2083715E-007  0.1947050E+04  0.7818608E-02  0.8631784E-01
          1   -1    0    0  501    0  0.00000000000E+00  0.00000000000E+00  0.16060009843E+04  0.16060009843E+04  0.00000000000E+00 0. -1.
         -1   -1    0    0    0  501 -0.00000000000E+00 -0.00000000000E+00 -0.59013116036E+03  0.59013116036E+03  0.00000000000E+00 0.  1.
         23    2    1    2    0    0 -0.48562969279E+03 -0.50759024765E+03  0.73246536932E+03  0.10191656109E+04  0.93321847550E+02 0.  0.
        254    2    1    2    0    0  0.48562969279E+03  0.50759024765E+03  0.28340445462E+03  0.11769665337E+04  0.90080412886E+03 0.  0.
        -24    2    4    4    0    0  0.50920701014E+03  0.59030814205E+03 -0.87301072186E+02  0.78853107892E+03  0.80026892152E+02 0.  0.
         24    2    4    4    0    0 -0.23577317354E+02 -0.82717894399E+02  0.37070552681E+03  0.38843545480E+03  0.77854832814E+02 0.  0.
         11    1    3    3    0    0 -0.38745419060E+03 -0.34601757946E+03  0.54541408257E+03  0.75321008794E+03  0.00000000000E+00 0. -1.
        -11    1    3    3    0    0 -0.98175502187E+02 -0.16157266819E+03  0.18705128675E+03  0.26595552299E+03  0.00000000000E+00 0.  1.
          4    1    6    6  502    0 -0.26481344756E+02 -0.96102467558E+02  0.29198321367E+03  0.30853061916E+03  0.00000000000E+00 0. -1.
          1    1    5    5  503    0  0.48577801266E+03  0.55096633354E+03 -0.64457180090E+02  0.73735941463E+03  0.00000000000E+00 0. -1.
         -2    1    5    5    0  503  0.23428997477E+02  0.39341808513E+02 -0.22843892096E+02  0.51171664288E+02  0.00000000000E+00 0.  1.
         -3    1    6    6    0  502  0.29040274020E+01  0.13384573159E+02  0.78722313135E+02  0.79904835643E+02  0.00000000000E+00 0.  1.
<mgrwt>
<rscale>  0 0.19470503E+04</rscale>
<asrwt>0</asrwt>
<pdfrwt beam="1">  1        1 0.24707707E+00 0.19470503E+04</pdfrwt>
<pdfrwt beam="2">  1       -1 0.90789410E-01 0.19470503E+04</pdfrwt>
<totfact> 0.61022903E+00</totfact>
</mgrwt>
</event>
<event>
12    1  0.2083715E-007  0.1823205E+04  0.7818608E-02  0.8694056E-01
          4   -1    0    0  501    0  0.00000000000E+00  0.00000000000E+00  0.42181818352E+03  0.42181818352E+03  0.00000000000E+00 0. -1.
         -4   -1    0    0    0  501 -0.00000000000E+00 -0.00000000000E+00 -0.19700883796E+04  0.19700883796E+04  0.00000000000E+00 0.  1.
         23    2    1    2    0    0 -0.28616637912E+02 -0.44686865109E+03  0.93728042931E+02  0.46658632757E+03  0.91691612211E+02 0.  0.
        254    2    1    2    0    0  0.28616637912E+02  0.44686865109E+03 -0.16419982390E+04  0.19253202355E+04  0.90010515453E+03 0.  0.
        -24    2    4    4    0    0  0.27329286740E+03 -0.99584234926E+01 -0.10969617095E+03  0.30542198708E+03  0.80381457449E+02 0.  0.
         24    2    4    4    0    0 -0.24467622948E+03  0.45682707458E+03 -0.15323020680E+04  0.16198982485E+04  0.86967087261E+02 0.  0.
         13    1    3    3    0    0 -0.12449026604E+02 -0.35666256119E+03  0.11013136923E+03  0.37348638436E+03  0.00000000000E+00 0. -1.
        -13    1    3    3    0    0 -0.16167611308E+02 -0.90206089904E+02 -0.16403326302E+02  0.93099943206E+02  0.00000000000E+00 0.  1.
          2    1    6    6  502    0 -0.28009771743E+02  0.11621115359E+02 -0.85347083024E+02  0.90574401549E+02  0.00000000000E+00 0. -1.
          1    1    5    5  503    0  0.16149347083E+03  0.56071987136E+01 -0.23271439718E+02  0.16325789937E+03  0.00000000000E+00 0. -1.
         -2    1    5    5    0  503  0.11179939656E+03 -0.15565622206E+02 -0.86424731229E+02  0.14216408771E+03  0.00000000000E+00 0.  1.
         -1    1    6    6    0  502 -0.21666645774E+03  0.44520595922E+03 -0.14469549850E+04  0.15293238469E+04  0.00000000000E+00 0.  1.
<mgrwt>
<rscale>  0 0.18232050E+04</rscale>
<asrwt>0</asrwt>
<pdfrwt beam="1">  1        4 0.64895106E-01 0.18232050E+04</pdfrwt>
<pdfrwt beam="2">  1       -4 0.30309051E+00 0.18232050E+04</pdfrwt>
<totfact> 0.12357070E-01</totfact>
</mgrwt>
</event>
<event>
12    1  0.2083715E-007  0.1366948E+04  0.7818608E-02  0.8978097E-01
          2   -1    0    0  501    0  0.00000000000E+00  0.00000000000E+00  0.24364943305E+04  0.24364943305E+04  0.00000000000E+00 0. -1.
         -2   -1    0    0    0  501 -0.00000000000E+00 -0.00000000000E+00 -0.19172496019E+03  0.19172496019E+03  0.00000000000E+00 0.  1.
         23    2    1    2    0    0  0.20068801552E+03  0.32117277752E+03  0.71358772746E+03  0.81305236398E+03  0.91755485892E+02 0.  0.
        254    2    1    2    0    0 -0.20068801552E+03 -0.32117277752E+03  0.15311816429E+04  0.18151669267E+04  0.89826839854E+03 0.  0.
        -24    2    4    4    0    0 -0.35717651389E+03 -0.30289152294E+03  0.28175545510E+03  0.55309097514E+03  0.84883175943E+02 0.  0.
         24    2    4    4    0    0  0.15648849836E+03 -0.18281254584E+02  0.12494261878E+04  0.12620759516E+04  0.83348992228E+02 0.  0.
         13    1    3    3    0    0  0.20684279825E+03  0.31770894425E+03  0.71055934060E+03  0.80536792396E+03  0.00000000000E+00 0. -1.
        -13    1    3    3    0    0 -0.61547827234E+01  0.34638332786E+01  0.30283868651E+01  0.76844400160E+01  0.00000000000E+00 0.  1.
          2    1    6    6  502    0  0.22811946086E+02 -0.29101783916E+02  0.14956084938E+03  0.15406409828E+03  0.00000000000E+00 0. -1.
          3    1    5    5  503    0 -0.11660510488E+02 -0.24664257375E+02 -0.51827720763E+00  0.27286658058E+02  0.00000000000E+00 0. -1.
         -4    1    5    5    0  503 -0.34551600340E+03 -0.27822726557E+03  0.28227373231E+03  0.52580431708E+03  0.00000000000E+00 0.  1.
         -1    1    6    6    0  502  0.13367655228E+03  0.10820529332E+02  0.10998653384E+04  0.11080118533E+04  0.00000000000E+00 0.  1.
<mgrwt>
<rscale>  0 0.13669481E+04</rscale>
<asrwt>0</asrwt>
<pdfrwt beam="1">  1        2 0.37484526E+00 0.13669481E+04</pdfrwt>
<pdfrwt beam="2">  1       -2 0.29496149E-01 0.13669481E+04</pdfrwt>
<totfact> 0.39249188E+01</totfact>
</mgrwt>
</event>
<event>
12    1  0.2083715E-007  0.1840166E+04  0.7818608E-02  0.8685227E-01
         -1   -1    0    0    0  501 -0.00000000000E+00  0.00000000000E+00  0.50590780567E+03  0.50590780567E+03  0.00000000000E+00 0.  1.
          1   -1    0    0  501    0  0.00000000000E+00 -0.00000000000E+00 -0.16733335587E+04  0.16733335587E+04  0.00000000000E+00 0. -1.
         23    2    1    2    0    0 -0.60857155861E+03 -0.10542257197E+03 -0.82459256679E+03  0.10344700865E+04  0.93285573023E+02 0.  0.
        254    2    1    2    0    0  0.60857155861E+03  0.10542257197E+03 -0.34283318626E+03  0.11447712778E+04  0.90082929810E+03 0.  0.
        -24    2    4    4    0    0 -0.11524983148E+03  0.29806635317E+03 -0.40174474979E+02  0.33283466662E+03  0.83897868358E+02 0.  0.
         24    2    4    4    0    0  0.72382139009E+03 -0.19264378121E+03 -0.30265871128E+03  0.81193661122E+03  0.81300270194E+02 0.  0.
         11    1    3    3    0    0 -0.37109454603E+03 -0.18011761231E+02 -0.49726340846E+03  0.62073060423E+03  0.00000000000E+00 0. -1.
        -11    1    3    3    0    0 -0.23747701259E+03 -0.87410810735E+02 -0.32732915832E+03  0.41373948232E+03  0.00000000000E+00 0.  1.
          2    1    6    6  502    0  0.59013465156E+03 -0.17923605052E+03 -0.22353761957E+03  0.65601336582E+03  0.00000000000E+00 0. -1.
          1    1    5    5  503    0 -0.37979293394E+02  0.15100120358E+03  0.18163935743E+02  0.15676006752E+03  0.00000000000E+00 0. -1.
         -2    1    5    5    0  503 -0.77270538082E+02  0.14706514960E+03 -0.58338410723E+02  0.17607459910E+03  0.00000000000E+00 0.  1.
         -1    1    6    6    0  502  0.13368673853E+03 -0.13407730687E+02 -0.79121091705E+02  0.15592324539E+03  0.00000000000E+00 0.  1.
<mgrwt>
<rscale>  0 0.18401658E+04</rscale>
<asrwt>0</asrwt>
<pdfrwt beam="1">  1        1 0.25743593E+00 0.18401658E+04</pdfrwt>
<pdfrwt beam="2">  1       -1 0.77831969E-01 0.18401658E+04</pdfrwt>
<totfact> 0.77283955E+00</totfact>
</mgrwt>
</event>
<event>
12    1  0.2083715E-007  0.1971193E+04  0.7818608E-02  0.8620208E-01
         -1   -1    0    0    0  501 -0.00000000000E+00  0.00000000000E+00  0.11854145293E+04  0.11854145293E+04  0.00000000000E+00 0.  1.
          1   -1    0    0  501    0  0.00000000000E+00 -0.00000000000E+00 -0.81946091298E+03  0.81946091298E+03  0.00000000000E+00 0. -1.
         23    2    1    2    0    0 -0.68957966532E+03 -0.34607498585E+03  0.24062384299E+03  0.81347124473E+03  0.92453347861E+02 0.  0.
        254    2    1    2    0    0  0.68957966532E+03  0.34607498585E+03  0.12532977337E+03  0.11914041976E+04  0.89913758640E+03 0.  0.
        -24    2    4    4    0    0 -0.13669698111E+03  0.13174721729E+03  0.25124506999E+03  0.32476991534E+03  0.79423037004E+02 0.  0.
         24    2    4    4    0    0  0.82627664644E+03  0.21432776856E+03 -0.12591529662E+03  0.86663428224E+03  0.80813541040E+02 0.  0.
         13    1    3    3    0    0 -0.33833611147E+02 -0.21550918410E+01  0.25409654143E+02  0.42367536956E+02  0.00000000000E+00 0.  1.
        -13    1    3    3    0    0 -0.65574605418E+03 -0.34391989401E+03  0.21521418885E+03  0.77110370777E+03  0.00000000000E+00 0. -1.
          2    1    6    6  502    0  0.49500641783E+03  0.16466296664E+03 -0.58499520437E+02  0.52494517825E+03  0.00000000000E+00 0. -1.
          3    1    5    5  503    0 -0.11923442515E+03  0.70802207589E+02  0.19936722225E+03  0.24285199206E+03  0.00000000000E+00 0. -1.
         -4    1    5    5    0  503 -0.17462555959E+02  0.60945009699E+02  0.51877847741E+02  0.81917923277E+02  0.00000000000E+00 0.  1.
         -1    1    6    6    0  502  0.33127022861E+03  0.49664801923E+02 -0.67415776181E+02  0.34168910400E+03  0.00000000000E+00 0.  1.
<mgrwt>
<rscale>  0 0.19711934E+04</rscale>
<asrwt>0</asrwt>
<pdfrwt beam="1">  1        1 0.12607091E+00 0.19711934E+04</pdfrwt>
<pdfrwt beam="2">  1       -1 0.18237147E+00 0.19711934E+04</pdfrwt>
<totfact> 0.39574688E+00</totfact>
</mgrwt>
</event>
<event>
12    1  0.2083715E-007  0.1027765E+04  0.7818608E-02  0.9278607E-01
          2   -1    0    0  501    0  0.00000000000E+00  0.00000000000E+00  0.57247169991E+03  0.57247169991E+03  0.00000000000E+00 0.  1.
         -2   -1    0    0    0  501 -0.00000000000E+00 -0.00000000000E+00 -0.46128915830E+03  0.46128915830E+03  0.00000000000E+00 0. -1.
         23    2    1    2    0    0  0.66229222972E+02 -0.35886449267E+02  0.42829215228E+02  0.12528214747E+03  0.90482747425E+02 0.  0.
        254    2    1    2    0    0 -0.66229222972E+02  0.35886449267E+02  0.68353326383E+02  0.90847871073E+03  0.90276643902E+03 0.  0.
        -24    2    4    4    0    0  0.40867993089E+03  0.31605250452E+02  0.85684602331E+02  0.42633717378E+03  0.80020977884E+02 0.  0.
         24    2    4    4    0    0 -0.47490915387E+03  0.42811988147E+01 -0.17331275948E+02  0.48214153695E+03  0.81259186797E+02 0.  0.
         11    1    3    3    0    0  0.38094682283E+02 -0.27961714864E+02  0.70605508527E+02  0.84959991471E+02  0.00000000000E+00 0.  1.
        -11    1    3    3    0    0  0.28134540689E+02 -0.79247344035E+01 -0.27776293299E+02  0.40322156001E+02  0.00000000000E+00 0. -1.
          4    1    6    6  502    0 -0.37066587508E+03 -0.25789671583E+02  0.39363346621E+01  0.37158282097E+03  0.00000000000E+00 0. -1.
          3    1    5    5  503    0  0.36153713188E+03  0.35179946549E+02  0.10032417969E+03  0.37684435434E+03  0.00000000000E+00 0. -1.
         -2    1    5    5    0  503  0.47142799010E+02 -0.35746960968E+01 -0.14639577363E+02  0.49492819439E+02  0.00000000000E+00 0.  1.
         -3    1    6    6    0  502 -0.10424327879E+03  0.30070870397E+02 -0.21267610611E+02  0.11055871598E+03  0.00000000000E+00 0.  1.
<mgrwt>
<rscale>  0 0.10277645E+04</rscale>
<asrwt>0</asrwt>
<pdfrwt beam="1">  1        2 0.88072569E-01 0.10277645E+04</pdfrwt>
<pdfrwt beam="2">  1       -2 0.70967563E-01 0.10277645E+04</pdfrwt>
<totfact> 0.94454063E+01</totfact>
</mgrwt>
</event>
<event>
12    1  0.2083715E-007  0.4072769E+04  0.7818608E-02  0.7990025E-01
          1   -1    0    0  501    0  0.00000000000E+00  0.00000000000E+00  0.22568952539E+04  0.22568952539E+04  0.00000000000E+00 0. -1.
         -1   -1    0    0    0  501 -0.00000000000E+00 -0.00000000000E+00 -0.18374189149E+04  0.18374189149E+04  0.00000000000E+00 0.  1.
         23    2    1    2    0    0 -0.15961750602E+04  0.94741962591E+03  0.75180857028E+03  0.20047089021E+04  0.90900414015E+02 0.  0.
        254    2    1    2    0    0  0.15961750602E+04 -0.94741962591E+03 -0.33233223135E+03  0.20896052668E+04  0.90034809300E+03 0.  0.
        -24    2    4    4    0    0  0.16043910401E+04 -0.89709388129E+03 -0.10468436056E+03  0.18428396301E+04  0.79063554357E+02 0.  0.
         24    2    4    4    0    0 -0.82159798756E+01 -0.50325744619E+02 -0.22764787079E+03  0.24676563667E+03  0.80433472302E+02 0.  0.
         11    1    3    3    0    0 -0.10691639450E+04  0.66435556614E+03  0.47282800532E+03  0.13446360779E+04  0.00000000000E+00 0.  1.
        -11    1    3    3    0    0 -0.52701111524E+03  0.28306405977E+03  0.27898056496E+03  0.66007282412E+03  0.00000000000E+00 0. -1.
          2    1    6    6  502    0  0.60238050837E+01 -0.45845921243E+02 -0.48549289355E+02  0.67046015685E+02  0.00000000000E+00 0. -1.
          1    1    5    5  503    0  0.59622251387E+03 -0.29547878945E+03 -0.56587170285E+02  0.66782565756E+03  0.00000000000E+00 0. -1.
         -2    1    5    5    0  503  0.10081685262E+04 -0.60161509184E+03 -0.48097190276E+02  0.11750139725E+04  0.00000000000E+00 0.  1.
         -1    1    6    6    0  502 -0.14239784959E+02 -0.44798233756E+01 -0.17909858144E+03  0.17971962098E+03  0.00000000000E+00 0.  1.
<mgrwt>
<rscale>  0 0.40727691E+04</rscale>
<asrwt>0</asrwt>
<pdfrwt beam="1">  1        1 0.34721465E+00 0.40727691E+04</pdfrwt>
<pdfrwt beam="2">  1       -1 0.28267983E+00 0.40727691E+04</pdfrwt>
<totfact> 0.66280894E-02</totfact>
</mgrwt>
</event>
<event>
12    1  0.2083715E-007  0.1337372E+04  0.7818608E-02  0.9000443E-01
         -3   -1    0    0    0  501 -0.00000000000E+00  0.00000000000E+00  0.35663337065E+03  0.35663337065E+03  0.00000000000E+00 0.  1.
          3   -1    0    0  501    0  0.00000000000E+00 -0.00000000000E+00 -0.12537826682E+04  0.12537826682E+04  0.00000000000E+00 0. -1.
         23    2    1    2    0    0  0.34347799893E+03 -0.30937076791E+02 -0.21176933228E+03  0.41497770537E+03  0.91793286199E+02 0.  0.
        254    2    1    2    0    0 -0.34347799893E+03  0.30937076791E+02 -0.68537996530E+03  0.11954383335E+04  0.91672944423E+03 0.  0.
        -24    2    4    4    0    0 -0.35668547192E+03  0.14291023009E+03  0.93718105403E+02  0.40413886938E+03  0.83049880898E+02 0.  0.
         24    2    4    4    0    0  0.13207472986E+02 -0.11197315330E+03 -0.77909807070E+03  0.79129946414E+03  0.80303261251E+02 0.  0.
         13    1    3    3    0    0  0.19812834587E+03 -0.41828796496E+02 -0.16707093945E+03  0.26252083434E+03  0.00000000000E+00 0. -1.
        -13    1    3    3    0    0  0.14534965307E+03  0.10891719705E+02 -0.44698392828E+02  0.15245687104E+03  0.00000000000E+00 0.  1.
          2    1    6    6  502    0  0.15912174014E+02 -0.12332576192E+03 -0.65848264638E+03  0.67012076256E+03  0.00000000000E+00 0. -1.
          3    1    5    5  503    0 -0.12244407822E+03  0.73400806933E+02  0.88913576278E+00  0.14276211441E+03  0.00000000000E+00 0. -1.
         -4    1    5    5    0  503 -0.23424139370E+03  0.69509423158E+02  0.92828969640E+02  0.26137675496E+03  0.00000000000E+00 0.  1.
         -1    1    6    6    0  502 -0.27047010279E+01  0.11352608624E+02 -0.12061542432E+03  0.12117870157E+03  0.00000000000E+00 0.  1.
<mgrwt>
<rscale>  0 0.13373717E+04</rscale>
<asrwt>0</asrwt>
<pdfrwt beam="1">  1        3 0.19288964E+00 0.13373717E+04</pdfrwt>
<pdfrwt beam="2">  1       -3 0.54866674E-01 0.13373717E+04</pdfrwt>
<totfact> 0.13729214E+00</totfact>
</mgrwt>
</event>
<event>
12    1  0.2083715E-007  0.2654958E+04  0.7818608E-02  0.8349769E-01
          2   -1    0    0  501    0  0.00000000000E+00  0.00000000000E+00  0.11552421642E+04  0.11552421642E+04  0.00000000000E+00 0. -1.
         -2   -1    0    0    0  501 -0.00000000000E+00 -0.00000000000E+00 -0.15253949997E+04  0.15253949997E+04  0.00000000000E+00 0.  1.
         23    2    1    2    0    0  0.46401368486E+03  0.97506656357E+03  0.30083769290E+03  0.11246128231E+04  0.90483044288E+02 0.  0.
        254    2    1    2    0    0 -0.46401368486E+03 -0.97506656357E+03 -0.67099052841E+03  0.15560243407E+04  0.89717331472E+03 0.  0.
        -24    2    4    4    0    0 -0.70485761851E+02 -0.31801316183E+03 -0.70981742319E+03  0.78497321419E+03  0.79003537992E+02 0.  0.
         24    2    4    4    0    0 -0.39352792301E+03 -0.65705340174E+03  0.38826894783E+02  0.77105112655E+03  0.80180503061E+02 0.  0.
         11    1    3    3    0    0  0.29921258214E+03  0.71557949123E+03  0.19830525170E+03  0.80056676825E+03  0.00000000000E+00 0. -1.
        -11    1    3    3    0    0  0.16480110272E+03  0.25948707234E+03  0.10253244120E+03  0.32404605485E+03  0.00000000000E+00 0.  1.
          2    1    6    6  502    0 -0.15924192542E+03 -0.24287093366E+03 -0.22355420655E+02  0.29128001315E+03  0.00000000000E+00 0. -1.
          3    1    5    5  503    0  0.10417665276E+02 -0.85077586029E+02 -0.23103982619E+03  0.24642671259E+03  0.00000000000E+00 0. -1.
         -4    1    5    5    0  503 -0.80903427127E+02 -0.23293557580E+03 -0.47877759700E+03  0.53854650160E+03  0.00000000000E+00 0.  1.
         -1    1    6    6    0  502 -0.23428599759E+03 -0.41418246808E+03  0.61182315438E+02  0.47977111340E+03  0.00000000000E+00 0.  1.
<mgrwt>
<rscale>  0 0.26549581E+04</rscale>
<asrwt>0</asrwt>
<pdfrwt beam="1">  1        2 0.17772956E+00 0.26549581E+04</pdfrwt>
<pdfrwt beam="2">  1       -2 0.23467615E+00 0.26549581E+04</pdfrwt>
<totfact> 0.14185674E+00</totfact>
</mgrwt>
</event>
<event>
12    1  0.2083715E-007  0.2482650E+04  0.7818608E-02  0.8409193E-01
         -2   -1    0    0    0  501 -0.00000000000E+00  0.00000000000E+00  0.18229499673E+04  0.18229499673E+04  0.00000000000E+00 0.  1.
          2   -1    0    0  501    0  0.00000000000E+00 -0.00000000000E+00 -0.84527155833E+03  0.84527155833E+03  0.00000000000E+00 0. -1.
         23    2    1    2    0    0 -0.45917571714E+03 -0.60255175661E+03  0.12465737517E+04  0.14615058137E+04  0.90233954459E+02 0.  0.
        254    2    1    2    0    0  0.45917571714E+03  0.60255175661E+03 -0.26889534276E+03  0.12067157119E+04  0.89997063581E+03 0.  0.
        -24    2    4    4    0    0  0.23866460105E+03 -0.17767434569E+03 -0.24177829629E+03  0.39168528446E+03  0.80197584725E+02 0.  0.
         24    2    4    4    0    0  0.22051111609E+03  0.78022610230E+03 -0.27117046462E+02  0.81503042741E+03  0.78494205905E+02 0.  0.
         13    1    3    3    0    0 -0.28021825323E+03 -0.36130730476E+03  0.83480060414E+03  0.95181788520E+03  0.00000000000E+00 0.  1.
        -13    1    3    3    0    0 -0.17895746391E+03 -0.24124445185E+03  0.41177314756E+03  0.50968792853E+03  0.00000000000E+00 0. -1.
          4    1    6    6  502    0  0.10425052944E+03  0.28474014757E+03 -0.40464395894E+02  0.30591255591E+03  0.00000000000E+00 0. -1.
          3    1    5    5  503    0 -0.54059785803E+01 -0.46524444812E+01 -0.13840200080E+02  0.15569874191E+02  0.00000000000E+00 0. -1.
         -4    1    5    5    0  503  0.24407057963E+03 -0.17302190121E+03 -0.22793809621E+03  0.37611541027E+03  0.00000000000E+00 0.  1.
         -3    1    6    6    0  502  0.11626058665E+03  0.49548595474E+03  0.13347349432E+02  0.50911787150E+03  0.00000000000E+00 0.  1.
<mgrwt>
<rscale>  0 0.24826500E+04</rscale>
<asrwt>0</asrwt>
<pdfrwt beam="1">  1        2 0.13004178E+00 0.24826500E+04</pdfrwt>
<pdfrwt beam="2">  1       -2 0.28045384E+00 0.24826500E+04</pdfrwt>
<totfact> 0.11953171E+00</totfact>
</mgrwt>
</event>
<event>
12    1  0.2083715E-007  0.2191403E+04  0.7818608E-02  0.8522015E-01
         -2   -1    0    0    0  501 -0.00000000000E+00  0.00000000000E+00  0.97822845505E+03  0.97822845505E+03  0.00000000000E+00 0.  1.
          2   -1    0    0  501    0  0.00000000000E+00 -0.00000000000E+00 -0.12272812640E+04  0.12272812640E+04  0.00000000000E+00 0. -1.
         23    2    1    2    0    0 -0.37735732988E+03 -0.81617068793E+03  0.29892612455E+02  0.90389572976E+03  0.87182428032E+02 0.  0.
        254    2    1    2    0    0  0.37735732988E+03  0.81617068793E+03 -0.27894542143E+03  0.13016139893E+04  0.89880770067E+03 0.  0.
        -24    2    4    4    0    0  0.34954142328E+03  0.99597715540E+03 -0.16161976089E+03  0.10708494170E+04  0.80298357104E+02 0.  0.
         24    2    4    4    0    0  0.27815906601E+02 -0.17980646748E+03 -0.11732566055E+03  0.23076457229E+03  0.79892970872E+02 0.  0.
         11    1    3    3    0    0 -0.10461945478E+03 -0.22264091566E+03  0.47144029474E+02  0.25047308669E+03  0.00000000000E+00 0.  1.
        -11    1    3    3    0    0 -0.27273787511E+03 -0.59352977227E+03 -0.17251417018E+02  0.65342264307E+03  0.00000000000E+00 0. -1.
          2    1    6    6  502    0 -0.22711131794E+00 -0.16514996165E+03 -0.10954976560E+03  0.19818100957E+03  0.00000000000E+00 0. -1.
          1    1    5    5  503    0  0.14032941189E+03  0.28864990885E+03 -0.46806107708E+02  0.32434846298E+03  0.00000000000E+00 0. -1.
         -2    1    5    5    0  503  0.20921201140E+03  0.70732724655E+03 -0.11481365318E+03  0.74650095404E+03  0.00000000000E+00 0.  1.
         -1    1    6    6    0  502  0.28043017919E+02 -0.14656505826E+02 -0.77758949488E+01  0.32583562716E+02  0.00000000000E+00 0.  1.
<mgrwt>
<rscale>  0 0.21914027E+04</rscale>
<asrwt>0</asrwt>
<pdfrwt beam="1">  1        2 0.18881250E+00 0.21914027E+04</pdfrwt>
<pdfrwt beam="2">  1       -2 0.15049669E+00 0.21914027E+04</pdfrwt>
<totfact> 0.49568005E+00</totfact>
</mgrwt>
</event>
<event>
12    1  0.2083715E-007  0.2387571E+04  0.7818608E-02  0.8444172E-01
         -2   -1    0    0    0  501 -0.00000000000E+00  0.00000000000E+00  0.16226388681E+04  0.16226388681E+04  0.00000000000E+00 0.  1.
          2   -1    0    0  501    0  0.00000000000E+00 -0.00000000000E+00 -0.87827536025E+03  0.87827536025E+03  0.00000000000E+00 0. -1.
         23    2    1    2    0    0 -0.14547491293E+03 -0.10008277656E+04  0.16939037512E+03  0.10296061428E+04  0.92609629216E+02 0.  0.
        254    2    1    2    0    0  0.14547491293E+03  0.10008277656E+04  0.57497313270E+03  0.14713080856E+04  0.90074092430E+03 0.  0.
        -24    2    4    4    0    0  0.97520005244E+02 -0.10586543929E+03  0.27706702788E+03  0.32203629759E+03  0.78889773532E+02 0.  0.
         24    2    4    4    0    0  0.47954907681E+02  0.11066932048E+04  0.29790610482E+03  0.11492717880E+04  0.70767736387E+02 0.  0.
         13    1    3    3    0    0 -0.14777282701E+03 -0.75383682830E+03  0.11588607467E+03  0.77687602254E+03  0.00000000000E+00 0. -1.
        -13    1    3    3    0    0  0.22979140849E+01 -0.24699093726E+03  0.53504300457E+02  0.25273012022E+03  0.00000000000E+00 0.  1.
          4    1    6    6  502    0  0.63245880021E+02  0.75250227864E+03  0.18996161220E+03  0.77868166461E+03  0.00000000000E+00 0. -1.
          1    1    5    5  503    0  0.84104237346E+02 -0.11057447831E+03  0.27440864952E+03  0.30757169071E+03  0.00000000000E+00 0. -1.
         -2    1    5    5    0  503  0.13415767898E+02  0.47090390167E+01  0.26583783586E+01  0.14464606882E+02  0.00000000000E+00 0.  1.
         -3    1    6    6    0  502 -0.15290972340E+02  0.35419092621E+03  0.10794449262E+03  0.37059012336E+03  0.00000000000E+00 0.  1.
<mgrwt>
<rscale>  0 0.23875709E+04</rscale>
<asrwt>0</asrwt>
<pdfrwt beam="1">  1        2 0.13511929E+00 0.23875709E+04</pdfrwt>
<pdfrwt beam="2">  1       -2 0.24963675E+00 0.23875709E+04</pdfrwt>
<totfact> 0.17637549E+00</totfact>
</mgrwt>
</event>
<event>
12    1  0.2083715E-007  0.1350811E+04  0.7818608E-02  0.8990214E-01
         -2   -1    0    0    0  501 -0.00000000000E+00  0.00000000000E+00  0.36763563767E+03  0.36763563767E+03  0.00000000000E+00 0.  1.
          2   -1    0    0  501    0  0.00000000000E+00 -0.00000000000E+00 -0.12408286549E+04  0.12408286549E+04  0.00000000000E+00 0. -1.
         23    2    1    2    0    0 -0.20984140729E+03 -0.30197228491E+03 -0.23004418512E+03  0.44320179774E+03  0.91032023769E+02 0.  0.
        254    2    1    2    0    0  0.20984140729E+03  0.30197228491E+03 -0.64314883208E+03  0.11652624948E+04  0.89943070021E+03 0.  0.
        -24    2    4    4    0    0  0.33814445784E+03  0.56352992565E+03 -0.51009208660E+03  0.83562123478E+03  0.78493692345E+02 0.  0.
         24    2    4    4    0    0 -0.12830305055E+03 -0.26155764074E+03 -0.13305674548E+03  0.32964126001E+03  0.78007631494E+02 0.  0.
         11    1    3    3    0    0 -0.19046640386E+03 -0.21040613832E+03 -0.15598247132E+03  0.32384985008E+03  0.00000000000E+00 0. -1.
        -11    1    3    3    0    0 -0.19375003431E+02 -0.91566146591E+02 -0.74061713801E+02  0.11935194766E+03  0.00000000000E+00 0.  1.
          4    1    6    6  502    0 -0.11153338147E+03 -0.21647638327E+03 -0.76188746691E+02  0.25515964575E+03  0.00000000000E+00 0. -1.
          3    1    5    5  503    0  0.28887542589E+03  0.51420387216E+03 -0.43294240555E+03  0.73163772480E+03  0.00000000000E+00 0. -1.
         -4    1    5    5    0  503  0.49269031950E+02  0.49326053487E+02 -0.77149681051E+02  0.10398350998E+03  0.00000000000E+00 0.  1.
         -3    1    6    6    0  502 -0.16769669074E+02 -0.45081257467E+02 -0.56867998789E+02  0.74481614254E+02  0.00000000000E+00 0.  1.
<mgrwt>
<rscale>  0 0.13508114E+04</rscale>
<asrwt>0</asrwt>
<pdfrwt beam="1">  1        2 0.19089672E+00 0.13508114E+04</pdfrwt>
<pdfrwt beam="2">  1       -2 0.56559328E-01 0.13508114E+04</pdfrwt>
<totfact> 0.51297573E+01</totfact>
</mgrwt>
</event>
<event>
12    1  0.2083715E-007  0.1308582E+04  0.7818608E-02  0.9022787E-01
         -1   -1    0    0    0  501 -0.00000000000E+00  0.00000000000E+00  0.64182426973E+03  0.64182426973E+03  0.00000000000E+00 0.  1.
          1   -1    0    0  501    0  0.00000000000E+00 -0.00000000000E+00 -0.66700007960E+03  0.66700007960E+03  0.00000000000E+00 0. -1.
         23    2    1    2    0    0  0.10848032467E+03  0.17726132833E+03  0.25616830649E+03  0.34228133223E+03  0.91349601956E+02 0.  0.
        254    2    1    2    0    0 -0.10848032467E+03 -0.17726132833E+03 -0.28134411636E+03  0.96654301711E+03  0.90103348037E+03 0.  0.
        -24    2    4    4    0    0  0.29533480016E+03 -0.29024799284E+03 -0.33289498908E+03  0.53649641903E+03  0.74449931778E+02 0.  0.
         24    2    4    4    0    0 -0.40381512483E+03  0.11298666452E+03  0.51550872725E+02  0.43004659807E+03  0.80311534894E+02 0.  0.
         13    1    3    3    0    0  0.11211724238E+03  0.15081403954E+03  0.25334772824E+03  0.31543655775E+03  0.00000000000E+00 0.  1.
        -13    1    3    3    0    0 -0.36369177149E+01  0.26447288793E+02  0.28205782528E+01  0.26844774475E+02  0.00000000000E+00 0. -1.
          2    1    6    6  502    0 -0.56305140832E+02  0.34589502837E+00  0.30725266992E+02  0.64143827133E+02  0.00000000000E+00 0. -1.
          3    1    5    5  503    0  0.66376675057E+02 -0.11087200233E+03 -0.11631490796E+03  0.17386092634E+03  0.00000000000E+00 0. -1.
         -4    1    5    5    0  503  0.22895812510E+03 -0.17937599051E+03 -0.21658008112E+03  0.36263549269E+03  0.00000000000E+00 0.  1.
         -1    1    6    6    0  502 -0.34750998400E+03  0.11264076949E+03  0.20825605733E+02  0.36590277094E+03  0.00000000000E+00 0.  1.
<mgrwt>
<rscale>  0 0.13085822E+04</rscale>
<asrwt>0</asrwt>
<pdfrwt beam="1">  1        1 0.10261540E+00 0.13085822E+04</pdfrwt>
<pdfrwt beam="2">  1       -1 0.98742196E-01 0.13085822E+04</pdfrwt>
<totfact> 0.28245220E+01</totfact>
</mgrwt>
</event>
<event>
12    1  0.2083715E-007  0.1738581E+04  0.7818608E-02  0.8739661E-01
         -2   -1    0    0    0  501 -0.00000000000E+00  0.00000000000E+00  0.25389718398E+03  0.25389718398E+03  0.00000000000E+00 0. -1.
          2   -1    0    0  501    0  0.00000000000E+00 -0.00000000000E+00 -0.29762689156E+04  0.29762689156E+04  0.00000000000E+00 0.  1.
         23    2    1    2    0    0 -0.45275031455E+03 -0.40555611786E+03 -0.13241697700E+04  0.14600308924E+04  0.93840370192E+02 0.  0.
        254    2    1    2    0    0  0.45275031455E+03  0.40555611786E+03 -0.13982019616E+04  0.17701352072E+04  0.89941720798E+03 0.  0.
        -24    2    4    4    0    0  0.68335643558E+03  0.25854098610E+03 -0.69559757326E+03  0.10118541052E+04  0.78570266530E+02 0.  0.
         24    2    4    4    0    0 -0.23060612103E+03  0.14701513176E+03 -0.70260438839E+03  0.75828110194E+03  0.80899140650E+02 0.  0.
         11    1    3    3    0    0 -0.10498957677E+03 -0.10482325232E+03 -0.42475829014E+03  0.44992258279E+03  0.00000000000E+00 0.  1.
        -11    1    3    3    0    0 -0.34776073778E+03 -0.30073286554E+03 -0.89941147982E+03  0.10101083096E+04  0.00000000000E+00 0. -1.
          2    1    6    6  502    0 -0.20924425248E+03  0.15678488391E+03 -0.65277334239E+03  0.70319107898E+03  0.00000000000E+00 0. -1.
          1    1    5    5  503    0  0.44760551373E+03  0.20106212838E+03 -0.43458868379E+03  0.65547234836E+03  0.00000000000E+00 0. -1.
         -2    1    5    5    0  503  0.23575092185E+03  0.57478857719E+02 -0.26100888947E+03  0.35638175685E+03  0.00000000000E+00 0.  1.
         -1    1    6    6    0  502 -0.21361868549E+02 -0.97697521498E+01 -0.49831045995E+02  0.55090022962E+02  0.00000000000E+00 0.  1.
<mgrwt>
<rscale>  0 0.17385814E+04</rscale>
<asrwt>0</asrwt>
<pdfrwt beam="1">  1        2 0.45788751E+00 0.17385814E+04</pdfrwt>
<pdfrwt beam="2">  1       -2 0.39061106E-01 0.17385814E+04</pdfrwt>
<totfact> 0.10635175E+01</totfact>
</mgrwt>
</event>
<event>
12    1  0.2083715E-007  0.2526804E+04  0.7818608E-02  0.8393498E-01
         -2   -1    0    0    0  501 -0.00000000000E+00  0.00000000000E+00  0.87825270917E+03  0.87825270917E+03  0.00000000000E+00 0.  1.
          2   -1    0    0  501    0  0.00000000000E+00 -0.00000000000E+00 -0.18174552700E+04  0.18174552700E+04  0.00000000000E+00 0. -1.
         23    2    1    2    0    0  0.75315949007E+03 -0.46419390681E+03 -0.11112203410E+04  0.14230432243E+04  0.86695855458E+02 0.  0.
        254    2    1    2    0    0 -0.75315949007E+03  0.46419390681E+03  0.17201778013E+03  0.12726647549E+04  0.89853228162E+03 0.  0.
        -24    2    4    4    0    0 -0.48557584430E+03 -0.76427033493E+02  0.38309185832E+03  0.62836325529E+03  0.80349341405E+02 0.  0.
         24    2    4    4    0    0 -0.26758364576E+03  0.54062094031E+03 -0.21107407819E+03  0.64430149963E+03  0.81854427835E+02 0.  0.
         11    1    3    3    0    0  0.34816991389E+03 -0.25699586166E+03 -0.50340605131E+03  0.66384246200E+03  0.00000000000E+00 0.  1.
        -11    1    3    3    0    0  0.40498957618E+03 -0.20719804515E+03 -0.60781428964E+03  0.75920076226E+03  0.00000000000E+00 0. -1.
          4    1    6    6  502    0 -0.12290573998E+03  0.32819441656E+03 -0.10108382964E+03  0.36474009458E+03  0.00000000000E+00 0. -1.
          3    1    5    5  503    0 -0.28770808515E+03 -0.43446574738E+02  0.17605676383E+03  0.34008753462E+03  0.00000000000E+00 0. -1.
         -4    1    5    5    0  503 -0.19786775915E+03 -0.32980458756E+02  0.20703509449E+03  0.28827572066E+03  0.00000000000E+00 0.  1.
         -3    1    6    6    0  502 -0.14467790579E+03  0.21242652375E+03 -0.10999024855E+03  0.27956140504E+03  0.00000000000E+00 0.  1.
<mgrwt>
<rscale>  0 0.25268043E+04</rscale>
<asrwt>0</asrwt>
<pdfrwt beam="1">  1        2 0.27960850E+00 0.25268043E+04</pdfrwt>
<pdfrwt beam="2">  1       -2 0.13511580E+00 0.25268043E+04</pdfrwt>
<totfact> 0.29564233E+00</totfact>
</mgrwt>
</event>
<event>
12    1  0.2083715E-007  0.1828998E+04  0.7818608E-02  0.8691029E-01
         -2   -1    0    0    0  501 -0.00000000000E+00  0.00000000000E+00  0.10092232790E+04  0.10092232790E+04  0.00000000000E+00 0.  1.
          2   -1    0    0  501    0  0.00000000000E+00 -0.00000000000E+00 -0.82866518156E+03  0.82866518156E+03  0.00000000000E+00 0. -1.
         23    2    1    2    0    0  0.59627247441E+03 -0.72543800291E+02  0.41007407681E+03  0.73241555071E+03  0.86419463923E+02 0.  0.
        254    2    1    2    0    0 -0.59627247441E+03  0.72543800291E+02 -0.22951597942E+03  0.11054729098E+04  0.89921593782E+03 0.  0.
        -24    2    4    4    0    0 -0.71285208773E+03  0.18062378356E+02  0.11717767050E+03  0.72710666792E+03  0.80431036160E+02 0.  0.
         24    2    4    4    0    0  0.11657961332E+03  0.54481421935E+02 -0.34669364992E+03  0.37836624190E+03  0.80034333504E+02 0.  0.
         11    1    3    3    0    0  0.38196590390E+03 -0.60557135945E+02  0.21558788259E+03  0.44276771966E+03  0.00000000000E+00 0. -1.
        -11    1    3    3    0    0  0.21430657051E+03 -0.11986664346E+02  0.19448619422E+03  0.28964783105E+03  0.00000000000E+00 0.  1.
          4    1    6    6  502    0  0.21431396205E+02 -0.14276986658E+02 -0.24869209349E+02  0.35799646157E+02  0.00000000000E+00 0. -1.
          1    1    5    5  503    0 -0.24521590207E+03  0.44494027560E+02  0.40908651863E+02  0.25255509283E+03  0.00000000000E+00 0. -1.
         -2    1    5    5    0  503 -0.46763618566E+03 -0.26431649204E+02  0.76269018637E+02  0.47455157509E+03  0.00000000000E+00 0.  1.
         -3    1    6    6    0  502  0.95148217110E+02  0.68758408593E+02 -0.32182444057E+03  0.34256659574E+03  0.00000000000E+00 0.  1.
<mgrwt>
<rscale>  0 0.18289977E+04</rscale>
<asrwt>0</asrwt>
<pdfrwt beam="1">  1        2 0.12748695E+00 0.18289977E+04</pdfrwt>
<pdfrwt beam="2">  1       -2 0.15526512E+00 0.18289977E+04</pdfrwt>
<totfact> 0.84532819E+00</totfact>
</mgrwt>
</event>
<event>
12    1  0.2083715E-007  0.2248935E+04  0.7818608E-02  0.8498332E-01
         -1   -1    0    0    0  501 -0.00000000000E+00  0.00000000000E+00  0.39449622244E+03  0.39449622244E+03  0.00000000000E+00 0.  1.
          1   -1    0    0  501    0  0.00000000000E+00 -0.00000000000E+00 -0.32051704919E+04  0.32051704919E+04  0.00000000000E+00 0. -1.
         23    2    1    2    0    0  0.62214631575E+03 -0.54043137206E+03 -0.19091123203E+04  0.20820080377E+04  0.10447732411E+03 0.  0.
        254    2    1    2    0    0 -0.62214631575E+03  0.54043137206E+03 -0.90156194917E+03  0.15176586767E+04  0.90074513855E+03 0.  0.
        -24    2    4    4    0    0 -0.41752324903E+03 -0.18248542422E+03 -0.28919062094E+03  0.54510111685E+03  0.76664325615E+02 0.  0.
         24    2    4    4    0    0 -0.20462306673E+03  0.72291679628E+03 -0.61237132823E+03  0.97255755983E+03  0.79939162934E+02 0.  0.
         13    1    3    3    0    0  0.54567947502E+03 -0.42327284792E+03 -0.15706334254E+04  0.17157550380E+04  0.00000000000E+00 0.  1.
        -13    1    3    3    0    0  0.76466840735E+02 -0.11715852413E+03 -0.33847889487E+03  0.36625299969E+03  0.00000000000E+00 0. -1.
          4    1    6    6  502    0 -0.14933300960E+03  0.38402446623E+03 -0.32441052874E+03  0.52442094693E+03  0.00000000000E+00 0. -1.
          3    1    5    5  503    0 -0.26210705199E+03 -0.11245479470E+03 -0.13626211802E+03  0.31609105074E+03  0.00000000000E+00 0. -1.
         -2    1    5    5    0  503 -0.15541619704E+03 -0.70030629525E+02 -0.15292850292E+03  0.22901006611E+03  0.00000000000E+00 0.  1.
         -3    1    6    6    0  502 -0.55290057129E+02  0.33889233005E+03 -0.28796079949E+03  0.44813661291E+03  0.00000000000E+00 0.  1.
<mgrwt>
<rscale>  0 0.22489354E+04</rscale>
<asrwt>0</asrwt>
<pdfrwt beam="1">  1        1 0.49310317E+00 0.22489354E+04</pdfrwt>
<pdfrwt beam="2">  1       -1 0.60691725E-01 0.22489354E+04</pdfrwt>
<totfact> 0.10543780E+00</totfact>
</mgrwt>
</event>
<event>
12    1  0.2083715E-007  0.1718516E+04  0.7818608E-02  0.8750874E-01
          2   -1    0    0  501    0  0.00000000000E+00  0.00000000000E+00  0.94952548563E+03  0.94952548563E+03  0.00000000000E+00 0. -1.
         -2   -1    0    0    0  501 -0.00000000000E+00 -0.00000000000E+00 -0.77757195432E+03  0.77757195432E+03  0.00000000000E+00 0.  1.
         23    2    1    2    0    0  0.58974860789E+03 -0.18144542935E+03  0.10790661266E+03  0.63370352071E+03  0.95971093433E+02 0.  0.
        254    2    1    2    0    0 -0.58974860789E+03  0.18144542935E+03  0.64046918644E+02  0.10933939192E+04  0.90037902602E+03 0.  0.
        -24    2    4    4    0    0 -0.16020592046E+03 -0.35611234664E+03  0.15564819105E+02  0.39893211046E+03  0.80141280176E+02 0.  0.
         24    2    4    4    0    0 -0.42954268743E+03  0.53755777598E+03  0.48482099539E+02  0.69446180878E+03  0.80320651339E+02 0.  0.
         11    1    3    3    0    0  0.27289448779E+03 -0.36336345957E+02  0.33342641489E+02  0.27731473680E+03  0.00000000000E+00 0.  1.
        -11    1    3    3    0    0  0.31685412009E+03 -0.14510908339E+03  0.74563971172E+02  0.35638878392E+03  0.00000000000E+00 0. -1.
          2    1    6    6  502    0 -0.39432232427E+03  0.52080507947E+03  0.39488553475E+02  0.65443668302E+03  0.00000000000E+00 0. -1.
          3    1    5    5  503    0 -0.15734533860E+03 -0.29416148662E+03 -0.48711844008E+01  0.33363492657E+03  0.00000000000E+00 0. -1.
         -2    1    5    5    0  503 -0.28605818611E+01 -0.61950860013E+02  0.20436003506E+02  0.65297183892E+02  0.00000000000E+00 0.  1.
         -1    1    6    6    0  502 -0.35220363156E+02  0.16752696509E+02  0.89935460639E+01  0.40025125758E+02  0.00000000000E+00 0.  1.
<mgrwt>
<rscale>  0 0.17185161E+04</rscale>
<asrwt>0</asrwt>
<pdfrwt beam="1">  1        2 0.14608084E+00 0.17185161E+04</pdfrwt>
<pdfrwt beam="2">  1       -2 0.11962645E+00 0.17185161E+04</pdfrwt>
<totfact> 0.13815377E+01</totfact>
</mgrwt>
</event>
<event>
12    1  0.2083715E-007  0.1685161E+04  0.7818608E-02  0.8769873E-01
          2   -1    0    0  501    0  0.00000000000E+00  0.00000000000E+00  0.70349160757E+03  0.70349160757E+03  0.00000000000E+00 0. -1.
         -2   -1    0    0    0  501 -0.00000000000E+00 -0.00000000000E+00 -0.10091685089E+04  0.10091685089E+04  0.00000000000E+00 0.  1.
         23    2    1    2    0    0  0.51414689632E+03 -0.71462261611E+02  0.19313855745E+03  0.56160063085E+03  0.92945577480E+02 0.  0.
        254    2    1    2    0    0 -0.51414689632E+03  0.71462261611E+02 -0.49881545880E+03  0.11510594856E+04  0.89814653133E+03 0.  0.
        -24    2    4    4    0    0 -0.61313882364E+03  0.33969652076E+03 -0.20810089929E+03  0.73553186002E+03  0.79800937020E+02 0.  0.
         24    2    4    4    0    0  0.98991927320E+02 -0.26823425915E+03 -0.29071455951E+03  0.41552762563E+03  0.79995206690E+02 0.  0.
         11    1    3    3    0    0  0.34133353387E+03 -0.91464383331E+02  0.13020989796E+03  0.37660182194E+03  0.00000000000E+00 0.  1.
        -11    1    3    3    0    0  0.17281336245E+03  0.20002121720E+02  0.62928659483E+02  0.18499880891E+03  0.00000000000E+00 0. -1.
          4    1    6    6  502    0 -0.54596699756E+01 -0.84402862571E+02 -0.68943467960E+02  0.10911852721E+03  0.00000000000E+00 0. -1.
          3    1    5    5  503    0 -0.27649717850E+03  0.19819011364E+03 -0.93737442315E+02  0.35286926609E+03  0.00000000000E+00 0. -1.
         -4    1    5    5    0  503 -0.33664164514E+03  0.14150640712E+03 -0.11436345697E+03  0.38266259392E+03  0.00000000000E+00 0.  1.
         -3    1    6    6    0  502  0.10445159730E+03 -0.18383139658E+03 -0.22177109155E+03  0.30640909842E+03  0.00000000000E+00 0.  1.
<mgrwt>
<rscale>  0 0.16851606E+04</rscale>
<asrwt>0</asrwt>
<pdfrwt beam="1">  1        2 0.10822948E+00 0.16851606E+04</pdfrwt>
<pdfrwt beam="2">  1       -2 0.15525669E+00 0.16851606E+04</pdfrwt>
<totfact> 0.10594338E+01</totfact>
</mgrwt>
</event>
<event>
12    1  0.2083715E-007  0.1294149E+04  0.7818608E-02  0.9034218E-01
          1   -1    0    0  501    0  0.00000000000E+00  0.00000000000E+00  0.22859168144E+04  0.22859168144E+04  0.00000000000E+00 0. -1.
         -1   -1    0    0    0  501 -0.00000000000E+00 -0.00000000000E+00 -0.18316743767E+03  0.18316743767E+03  0.00000000000E+00 0.  1.
         23    2    1    2    0    0 -0.45690051677E+02  0.30893260347E+03  0.37630077334E+03  0.49740576059E+03  0.91012550451E+02 0.  0.
        254    2    1    2    0    0  0.45690051677E+02 -0.30893260347E+03  0.17264486033E+04  0.19716784914E+04  0.89964679696E+03 0.  0.
        -24    2    4    4    0    0  0.24536877437E+02 -0.47837497620E+02  0.16932375737E+04  0.16959077059E+04  0.78479177648E+02 0.  0.
         24    2    4    4    0    0  0.21153174240E+02 -0.26109510585E+03  0.33211029599E+02  0.27577078551E+03  0.79551508943E+02 0.  0.
         13    1    3    3    0    0  0.23881757636E+02  0.82605555977E+02  0.12896992288E+03  0.15500728123E+03  0.00000000000E+00 0.  1.
        -13    1    3    3    0    0 -0.69571809313E+02  0.22632704749E+03  0.24733085046E+03  0.34239847936E+03  0.00000000000E+00 0. -1.
          2    1    6    6  502    0 -0.20094269670E+02 -0.11667091445E+03  0.41217852336E+02  0.12535865867E+03  0.00000000000E+00 0. -1.
          3    1    5    5  503    0 -0.32327595999E+01  0.17808512606E+01  0.31170121764E+01  0.48309347699E+01  0.00000000000E+00 0. -1.
         -4    1    5    5    0  503  0.27769637037E+02 -0.49618348881E+02  0.16901205616E+04  0.16910767712E+04  0.00000000000E+00 0.  1.
         -1    1    6    6    0  502  0.41247443909E+02 -0.14442419140E+03 -0.80068227378E+01  0.15041212684E+03  0.00000000000E+00 0.  1.
<mgrwt>
<rscale>  0 0.12941492E+04</rscale>
<asrwt>0</asrwt>
<pdfrwt beam="1">  1        1 0.35167949E+00 0.12941492E+04</pdfrwt>
<pdfrwt beam="2">  1       -1 0.28179607E-01 0.12941492E+04</pdfrwt>
<totfact> 0.21362195E+01</totfact>
</mgrwt>
</event>
<event>
12    1  0.2083715E-007  0.2270014E+04  0.7818608E-02  0.8489839E-01
         -2   -1    0    0    0  501 -0.00000000000E+00  0.00000000000E+00  0.86000255531E+03  0.86000255531E+03  0.00000000000E+00 0.  1.
          2   -1    0    0  501    0  0.00000000000E+00 -0.00000000000E+00 -0.14979500139E+04  0.14979500139E+04  0.00000000000E+00 0. -1.
         23    2    1    2    0    0 -0.55642526611E+03 -0.73061795431E+03  0.26804254029E+01  0.92261994867E+03  0.88366923000E+02 0.  0.
        254    2    1    2    0    0  0.55642526611E+03  0.73061795431E+03 -0.64062788401E+03  0.14353326206E+04  0.89797771352E+03 0.  0.
        -24    2    4    4    0    0  0.68960137849E+03  0.34710785326E+03 -0.14490671031E+03  0.78967445875E+03  0.80955994855E+02 0.  0.
         24    2    4    4    0    0 -0.13317611239E+03  0.38351010105E+03 -0.49572117370E+03  0.64565816182E+03  0.79492800569E+02 0.  0.
         11    1    3    3    0    0 -0.11682225295E+03 -0.14111080683E+03 -0.34059809378E+02  0.18633241587E+03  0.00000000000E+00 0. -1.
        -11    1    3    3    0    0 -0.43960301316E+03 -0.58950714748E+03  0.36740234781E+02  0.73628753280E+03  0.00000000000E+00 0.  1.
          4    1    6    6  502    0 -0.33521563157E+01  0.92150506237E+02 -0.14244750397E+03  0.16968866827E+03  0.00000000000E+00 0. -1.
          1    1    5    5  503    0  0.31331870356E+03  0.18270165201E+03 -0.33742989319E+02  0.36426239578E+03  0.00000000000E+00 0. -1.
         -2    1    5    5    0  503  0.37628267493E+03  0.16440620125E+03 -0.11116372099E+03  0.42541206298E+03  0.00000000000E+00 0.  1.
         -3    1    6    6    0  502 -0.12982395607E+03  0.29135959482E+03 -0.35327366974E+03  0.47596949355E+03  0.00000000000E+00 0.  1.
<mgrwt>
<rscale>  0 0.22700140E+04</rscale>
<asrwt>0</asrwt>
<pdfrwt beam="1">  1        2 0.23045385E+00 0.22700140E+04</pdfrwt>
<pdfrwt beam="2">  1       -2 0.13230809E+00 0.22700140E+04</pdfrwt>
<totfact> 0.48049807E+00</totfact>
</mgrwt>
</event>
<event>
12    1  0.2083715E-007  0.1399262E+04  0.7818608E-02  0.8954353E-01
          1   -1    0    0  501    0  0.00000000000E+00  0.00000000000E+00  0.14273578433E+04  0.14273578433E+04  0.00000000000E+00 0. -1.
         -1   -1    0    0    0  501 -0.00000000000E+00 -0.00000000000E+00 -0.34292970252E+03  0.34292970252E+03  0.00000000000E+00 0.  1.
         23    2    1    2    0    0 -0.32909680355E+03 -0.11626909425E+03  0.43142030368E+02  0.36358213175E+03  0.92236236700E+02 0.  0.
        254    2    1    2    0    0  0.32909680355E+03  0.11626909425E+03  0.10412861104E+04  0.14067054141E+04  0.87904502153E+03 0.  0.
        -24    2    4    4    0    0  0.22018723358E+03  0.43973799012E+03  0.89993897171E+03  0.10286654680E+04  0.80066063620E+02 0.  0.
         24    2    4    4    0    0  0.10890956996E+03 -0.32346889586E+03  0.14134713872E+03  0.37803994606E+03  0.80260614070E+02 0.  0.
         13    1    3    3    0    0 -0.11511928330E+03 -0.73252578153E+02 -0.16180656453E+02  0.13740525186E+03  0.00000000000E+00 0.  1.
        -13    1    3    3    0    0 -0.21397752025E+03 -0.43016516099E+02  0.59322686821E+02  0.22617687990E+03  0.00000000000E+00 0. -1.
          2    1    6    6  502    0  0.11330339914E+03 -0.32626513758E+03  0.13987268769E+03  0.37262711793E+03  0.00000000000E+00 0. -1.
          1    1    5    5  503    0  0.58622637353E+02  0.19904992416E+03  0.34572883574E+03  0.40321943626E+03  0.00000000000E+00 0. -1.
         -2    1    5    5    0  503  0.16156459623E+03  0.24068806596E+03  0.55421013597E+03  0.62544603177E+03  0.00000000000E+00 0.  1.
         -1    1    6    6    0  502 -0.43938291744E+01  0.27962417129E+01  0.14744510320E+01  0.54128281311E+01  0.00000000000E+00 0.  1.
<mgrwt>
<rscale>  0 0.13992618E+04</rscale>
<asrwt>0</asrwt>
<pdfrwt beam="1">  1        1 0.21959351E+00 0.13992618E+04</pdfrwt>
<pdfrwt beam="2">  1       -1 0.52758416E-01 0.13992618E+04</pdfrwt>
<totfact> 0.25953435E+01</totfact>
</mgrwt>
</event>
<event>
12    1  0.2083715E-007  0.2515637E+04  0.7818608E-02  0.8397436E-01
         -2   -1    0    0    0  501 -0.00000000000E+00  0.00000000000E+00  0.11776329337E+04  0.11776329337E+04  0.00000000000E+00 0.  1.
          2   -1    0    0  501    0  0.00000000000E+00 -0.00000000000E+00 -0.13434641084E+04  0.13434641084E+04  0.00000000000E+00 0. -1.
         23    2    1    2    0    0 -0.69805964801E+03  0.55410681205E+03 -0.71321943261E+03  0.11451385307E+04  0.91316286628E+02 0.  0.
        254    2    1    2    0    0  0.69805964801E+03 -0.55410681205E+03  0.54738825790E+03  0.13759585113E+04  0.89403931045E+03 0.  0.
        -24    2    4    4    0    0  0.24823753390E+03  0.23450127137E+03  0.17382169308E+03  0.39099200483E+03  0.77769192783E+02 0.  0.
         24    2    4    4    0    0  0.44982211410E+03 -0.78860808342E+03  0.37356656482E+03  0.98496650648E+03  0.79777170668E+02 0.  0.
         13    1    3    3    0    0 -0.20739909565E+03  0.21554777604E+03 -0.21774840839E+03  0.36998594296E+03  0.00000000000E+00 0. -1.
        -13    1    3    3    0    0 -0.49066055236E+03  0.33855903601E+03 -0.49547102422E+03  0.77515258778E+03  0.00000000000E+00 0.  1.
          4    1    6    6  502    0  0.88859755931E+02 -0.13376656920E+03  0.97630722534E+02  0.18793964255E+03  0.00000000000E+00 0. -1.
          3    1    5    5  503    0  0.10298073495E+02  0.38864503618E+02  0.74361025377E+01  0.40887596898E+02  0.00000000000E+00 0. -1.
         -4    1    5    5    0  503  0.23793946041E+03  0.19563676775E+03  0.16638559054E+03  0.35010440794E+03  0.00000000000E+00 0.  1.
         -3    1    6    6    0  502  0.36096235817E+03 -0.65484151422E+03  0.27593584229E+03  0.79702686393E+03  0.00000000000E+00 0.  1.
<mgrwt>
<rscale>  0 0.25156372E+04</rscale>
<asrwt>0</asrwt>
<pdfrwt beam="1">  1        2 0.20668679E+00 0.25156372E+04</pdfrwt>
<pdfrwt beam="2">  1       -2 0.18117430E+00 0.25156372E+04</pdfrwt>
<totfact> 0.24727864E+00</totfact>
</mgrwt>
</event>
<event>
12    1  0.2083715E-007  0.2094628E+04  0.7818608E-02  0.8563613E-01
         -1   -1    0    0    0  501 -0.00000000000E+00  0.00000000000E+00  0.88823255190E+03  0.88823255190E+03  0.00000000000E+00 0.  1.
          1   -1    0    0  501    0  0.00000000000E+00 -0.00000000000E+00 -0.12348868740E+04  0.12348868740E+04  0.00000000000E+00 0. -1.
         23    2    1    2    0    0  0.16334279772E+03 -0.76666627934E+03 -0.47652862829E+03  0.92189063526E+03  0.91349637943E+02 0.  0.
        254    2    1    2    0    0 -0.16334279772E+03  0.76666627934E+03  0.12987430624E+03  0.12012287906E+04  0.90090244671E+03 0.  0.
        -24    2    4    4    0    0 -0.30418035531E+03  0.89830352679E+03  0.21597348049E+03  0.97596313893E+03  0.79903626130E+02 0.  0.
         24    2    4    4    0    0  0.14083755760E+03 -0.13163724746E+03 -0.86099174250E+02  0.22526565167E+03  0.78536383077E+02 0.  0.
         13    1    3    3    0    0  0.11390376140E+03 -0.65557354432E+03 -0.37714130375E+03  0.76484397224E+03  0.00000000000E+00 0.  1.
        -13    1    3    3    0    0  0.49439036316E+02 -0.11109273502E+03 -0.99387324546E+02  0.15704666302E+03  0.00000000000E+00 0. -1.
          2    1    6    6  502    0  0.95229691518E+02 -0.59928917262E+02 -0.83723686655E+02  0.14024915322E+03  0.00000000000E+00 0. -1.
          1    1    5    5  503    0 -0.24049232873E+03  0.67771120015E+03  0.19681178289E+03  0.74556281350E+03  0.00000000000E+00 0. -1.
         -2    1    5    5    0  503 -0.63688026577E+02  0.22059232664E+03  0.19161697594E+02  0.23040032543E+03  0.00000000000E+00 0.  1.
         -1    1    6    6    0  502  0.45607866077E+02 -0.71708330193E+02 -0.23754875943E+01  0.85016498448E+02  0.00000000000E+00 0.  1.
<mgrwt>
<rscale>  0 0.20946281E+04</rscale>
<asrwt>0</asrwt>
<pdfrwt beam="1">  1        1 0.18998260E+00 0.20946281E+04</pdfrwt>
<pdfrwt beam="2">  1       -1 0.13665116E+00 0.20946281E+04</pdfrwt>
<totfact> 0.41401290E+00</totfact>
</mgrwt>
</event>
<event>
12    1  0.2083715E-007  0.2269525E+04  0.7818608E-02  0.8490035E-01
          2   -1    0    0  501    0  0.00000000000E+00  0.00000000000E+00  0.19040828646E+04  0.19040828646E+04  0.00000000000E+00 0. -1.
         -2   -1    0    0    0  501 -0.00000000000E+00 -0.00000000000E+00 -0.67627630490E+03  0.67627630490E+03  0.00000000000E+00 0.  1.
         23    2    1    2    0    0  0.48123291250E+03  0.82351266043E+03  0.51257018092E+03  0.10867132593E+04  0.91974450959E+02 0.  0.
        254    2    1    2    0    0 -0.48123291250E+03 -0.82351266043E+03  0.71523637880E+03  0.14936459102E+04  0.89980931843E+03 0.  0.
        -24    2    4    4    0    0  0.21365579265E+03 -0.30982035154E+03  0.43714887158E+03  0.58233531459E+03  0.79861346952E+02 0.  0.
         24    2    4    4    0    0 -0.69488870515E+03 -0.51369230890E+03  0.27808750722E+03  0.91131059561E+03  0.80026490889E+02 0.  0.
         11    1    3    3    0    0  0.91653738641E+02  0.23722914346E+03  0.13610277233E+03  0.28844763641E+03  0.00000000000E+00 0. -1.
        -11    1    3    3    0    0  0.38957917386E+03  0.58628351697E+03  0.37646740859E+03  0.79826562290E+03  0.00000000000E+00 0.  1.
          2    1    6    6  502    0 -0.66901109687E+03 -0.47660170935E+03  0.27395591166E+03  0.86589657502E+03  0.00000000000E+00 0. -1.
          1    1    5    5  503    0  0.19331059137E+03 -0.30435466118E+03  0.39252328480E+03  0.53298712332E+03  0.00000000000E+00 0. -1.
         -2    1    5    5    0  503  0.20345201278E+02 -0.54656903607E+01  0.44625586778E+02  0.49348191268E+02  0.00000000000E+00 0.  1.
         -1    1    6    6    0  502 -0.25877608274E+02 -0.37090599551E+02  0.41315955649E+01  0.45414020598E+02  0.00000000000E+00 0.  1.
<mgrwt>
<rscale>  0 0.22695252E+04</rscale>
<asrwt>0</asrwt>
<pdfrwt beam="1">  1        2 0.29293582E+00 0.22695252E+04</pdfrwt>
<pdfrwt beam="2">  1       -2 0.10404251E+00 0.22695252E+04</pdfrwt>
<totfact> 0.51588357E+00</totfact>
</mgrwt>
</event>
<event>
12    1  0.2371994E-007  0.2899644E+04  0.7818608E-02  0.8272983E-01
          2   -1    0    0  501    0  0.00000000000E+00  0.00000000000E+00  0.17459778269E+04  0.17459778269E+04  0.00000000000E+00 0. -1.
         -2   -1    0    0    0  501 -0.00000000000E+00 -0.00000000000E+00 -0.12039005562E+04  0.12039005562E+04  0.00000000000E+00 0.  1.
         23    2    1    2    0    0  0.78694276233E+03 -0.93772252996E+03  0.71491042699E+03  0.14204010953E+04  0.88543202042E+02 0.  0.
        254    2    1    2    0    0 -0.78694276233E+03  0.93772252996E+03 -0.17283315634E+03  0.15294772877E+04  0.90045933798E+03 0.  0.
        -24    2    4    4    0    0 -0.33334551968E+03 -0.46400067235E+02 -0.26972486024E+03  0.43863911315E+03  0.79878467848E+02 0.  0.
         24    2    4    4    0    0 -0.45359724266E+03  0.98412259719E+03  0.96891703906E+02  0.10908381746E+04  0.79323237214E+02 0.  0.
         11    1    3    3    0    0  0.33521127876E+03 -0.46498412210E+03  0.31861467085E+03  0.65581410757E+03  0.00000000000E+00 0.  1.
        -11    1    3    3    0    0  0.45173148358E+03 -0.47273840785E+03  0.39629575614E+03  0.76458698776E+03  0.00000000000E+00 0. -1.
          4    1    6    6  502    0 -0.44345899376E+03  0.95922560331E+03  0.81618704440E+02  0.10599203980E+04  0.00000000000E+00 0. -1.
          3    1    5    5  503    0 -0.26116159136E+03 -0.58841054108E+02 -0.24017516040E+03  0.35965504879E+03  0.00000000000E+00 0. -1.
         -4    1    5    5    0  503 -0.72183928316E+02  0.12440986873E+02 -0.29549699843E+02  0.78984064357E+02  0.00000000000E+00 0.  1.
         -3    1    6    6    0  502 -0.10138248904E+02  0.24896993885E+02  0.15272999466E+02  0.30917776570E+02  0.00000000000E+00 0.  1.
<mgrwt>
<rscale>  0 0.28996439E+04</rscale>
<asrwt>0</asrwt>
<pdfrwt beam="1">  1        2 0.26861197E+00 0.28996439E+04</pdfrwt>
<pdfrwt beam="2">  1       -2 0.18521547E+00 0.28996439E+04</pdfrwt>
<totfact> 0.13327668E+00</totfact>
</mgrwt>
</event>
<event>
12    1  0.2083715E-007  0.1706470E+04  0.7818608E-02  0.8757683E-01
          3   -1    0    0  501    0  0.00000000000E+00  0.00000000000E+00  0.63852647086E+03  0.63852647086E+03  0.00000000000E+00 0. -1.
         -3   -1    0    0    0  501 -0.00000000000E+00 -0.00000000000E+00 -0.11401408785E+04  0.11401408785E+04  0.00000000000E+00 0.  1.
         23    2    1    2    0    0  0.48314378225E+03  0.20127956951E+03  0.14737441556E+03  0.55126330653E+03  0.90722849028E+02 0.  0.
        254    2    1    2    0    0 -0.48314378225E+03 -0.20127956951E+03 -0.64898882323E+03  0.12274040429E+04  0.90077345227E+03 0.  0.
        -24    2    4    4    0    0 -0.59434181810E+03 -0.41039624525E+03 -0.65402161550E+03  0.97774847086E+03  0.81120428202E+02 0.  0.
         24    2    4    4    0    0  0.11119803585E+03  0.20911667574E+03  0.50327922711E+01  0.24965557199E+03  0.78789519470E+02 0.  0.
         11    1    3    3    0    0  0.17957119262E+03  0.66718667275E+02  0.99206403221E+02  0.21572923821E+03  0.00000000000E+00 0. -1.
        -11    1    3    3    0    0  0.30357258964E+03  0.13456090223E+03  0.48168012335E+02  0.33553406832E+03  0.00000000000E+00 0.  1.
          4    1    6    6  502    0  0.88474961453E+02  0.16139169792E+03  0.37207122669E+02  0.18777504877E+03  0.00000000000E+00 0. -1.
          3    1    5    5  503    0 -0.50318637122E+03 -0.37423829783E+03 -0.54196059070E+03  0.82883780658E+03  0.00000000000E+00 0. -1.
         -4    1    5    5    0  503 -0.91155446884E+02 -0.36157947423E+02 -0.11206102480E+03  0.14891066428E+03  0.00000000000E+00 0.  1.
         -3    1    6    6    0  502  0.22723074396E+02  0.47724977819E+02 -0.32174330398E+02  0.61880523223E+02  0.00000000000E+00 0.  1.
<mgrwt>
<rscale>  0 0.17064702E+04</rscale>
<asrwt>0</asrwt>
<pdfrwt beam="1">  1        3 0.98234842E-01 0.17064702E+04</pdfrwt>
<pdfrwt beam="2">  1       -3 0.17540629E+00 0.17064702E+04</pdfrwt>
<totfact> 0.48191534E-01</totfact>
</mgrwt>
</event>
<event>
12    1  0.2083715E-007  0.1685638E+04  0.7818608E-02  0.8769598E-01
          2   -1    0    0  501    0  0.00000000000E+00  0.00000000000E+00  0.13152275806E+04  0.13152275806E+04  0.00000000000E+00 0. -1.
         -2   -1    0    0    0  501 -0.00000000000E+00 -0.00000000000E+00 -0.54009190857E+03  0.54009190857E+03  0.00000000000E+00 0.  1.
         23    2    1    2    0    0  0.30358497547E+03 -0.40564012519E+03  0.62800305877E+03  0.81184764559E+03  0.89448361226E+02 0.  0.
        254    2    1    2    0    0 -0.30358497547E+03  0.40564012519E+03  0.14713261329E+03  0.10434718436E+04  0.90026536866E+03 0.  0.
        -24    2    4    4    0    0  0.70511126511E+02  0.20309778047E+03 -0.32840443953E+03  0.40025432148E+03  0.78316783436E+02 0.  0.
         24    2    4    4    0    0 -0.37409610199E+03  0.20254234472E+03  0.47553705283E+03  0.64321752212E+03  0.81375655029E+02 0.  0.
         11    1    3    3    0    0  0.15898114785E+03 -0.22889110167E+03  0.41275460576E+03  0.49802862003E+03  0.00000000000E+00 0. -1.
        -11    1    3    3    0    0  0.14460382762E+03 -0.17674902351E+03  0.21524845301E+03  0.31381902555E+03  0.00000000000E+00 0.  1.
          4    1    6    6  502    0 -0.42999028139E+02  0.40074141942E+02  0.10552348301E+03  0.12078931551E+03  0.00000000000E+00 0. -1.
          1    1    5    5  503    0  0.14678566400E+02  0.39784218201E+02 -0.13272490743E+03  0.13933465248E+03  0.00000000000E+00 0. -1.
         -2    1    5    5    0  503  0.55832560111E+02  0.16331356227E+03 -0.19567953211E+03  0.26091966901E+03  0.00000000000E+00 0.  1.
         -3    1    6    6    0  502 -0.33109707385E+03  0.16246820278E+03  0.37001356981E+03  0.52242820662E+03  0.00000000000E+00 0.  1.
<mgrwt>
<rscale>  0 0.16856379E+04</rscale>
<asrwt>0</asrwt>
<pdfrwt beam="1">  1        2 0.20234270E+00 0.16856379E+04</pdfrwt>
<pdfrwt beam="2">  1       -2 0.83091063E-01 0.16856379E+04</pdfrwt>
<totfact> 0.19578153E+01</totfact>
</mgrwt>
</event>
<event>
12    1  0.2083715E-007  0.1920142E+04  0.7818608E-02  0.8644895E-01
          1   -1    0    0  501    0  0.00000000000E+00  0.00000000000E+00  0.41189450932E+04  0.41189450932E+04  0.00000000000E+00 0. -1.
         -1   -1    0    0    0  501 -0.00000000000E+00 -0.00000000000E+00 -0.22377963729E+03  0.22377963729E+03  0.00000000000E+00 0.  1.
         23    2    1    2    0    0 -0.13905872359E+03 -0.47376128984E+03  0.25876387940E+03  0.56430043926E+03  0.87687810513E+02 0.  0.
        254    2    1    2    0    0  0.13905872359E+03  0.47376128984E+03  0.36364015765E+04  0.37784242912E+04  0.89960358518E+03 0.  0.
        -24    2    4    4    0    0 -0.11441468697E+03  0.59035987055E+03  0.14340858766E+04  0.15570431598E+04  0.78521350783E+02 0.  0.
         24    2    4    4    0    0  0.25347341056E+03 -0.11659858071E+03  0.22023156999E+04  0.22213811315E+04  0.80595845166E+02 0.  0.
         13    1    3    3    0    0 -0.55685991183E+02 -0.28043854073E+03  0.18802885029E+03  0.34220104220E+03  0.00000000000E+00 0.  1.
        -13    1    3    3    0    0 -0.83372732411E+02 -0.19332274911E+03  0.70735029109E+02  0.22209939707E+03  0.00000000000E+00 0. -1.
          2    1    6    6  502    0  0.46901595847E+02 -0.57178318276E+02  0.66826638307E+03  0.67234595152E+03  0.00000000000E+00 0. -1.
          3    1    5    5  503    0 -0.74866882655E+02  0.50602475831E+03  0.11672671885E+04  0.12744327348E+04  0.00000000000E+00 0. -1.
         -4    1    5    5    0  503 -0.39547804315E+02  0.84335112237E+02  0.26681868812E+03  0.28261042499E+03  0.00000000000E+00 0.  1.
         -1    1    6    6    0  502  0.20657181472E+03 -0.59420262432E+02  0.15340493169E+04  0.15490351800E+04  0.00000000000E+00 0.  1.
<mgrwt>
<rscale>  0 0.19201417E+04</rscale>
<asrwt>0</asrwt>
<pdfrwt beam="1">  1        1 0.63368380E+00 0.19201417E+04</pdfrwt>
<pdfrwt beam="2">  1       -1 0.34427640E-01 0.19201417E+04</pdfrwt>
<totfact> 0.56667688E-01</totfact>
</mgrwt>
</event>
<event>
12    1  0.2083715E-007  0.2944052E+04  0.7818608E-02  0.8259890E-01
         -2   -1    0    0    0  501 -0.00000000000E+00  0.00000000000E+00  0.11896021614E+04  0.11896021614E+04  0.00000000000E+00 0.  1.
          2   -1    0    0  501    0  0.00000000000E+00 -0.00000000000E+00 -0.18215006556E+04  0.18215006556E+04  0.00000000000E+00 0. -1.
         23    2    1    2    0    0  0.11457732156E+03  0.13156635559E+04 -0.47339617755E+03  0.14058262076E+04  0.90248712730E+02 0.  0.
        254    2    1    2    0    0 -0.11457732156E+03 -0.13156635559E+04 -0.15850231664E+03  0.16052766094E+04  0.89871655905E+03 0.  0.
        -24    2    4    4    0    0  0.11088486140E+03 -0.10893017143E+04 -0.42939943180E+03  0.11789476649E+04  0.81609112735E+02 0.  0.
         24    2    4    4    0    0 -0.22546218297E+03 -0.22636184157E+03  0.27089711516E+03  0.42632894452E+03  0.79361468383E+02 0.  0.
         11    1    3    3    0    0  0.10456455323E+03  0.11774849617E+04 -0.45227524736E+03  0.12656845895E+04  0.00000000000E+00 0. -1.
        -11    1    3    3    0    0  0.10012768327E+02  0.13817859415E+03 -0.21120930193E+02  0.14014161803E+03  0.00000000000E+00 0.  1.
          4    1    6    6  502    0 -0.16783468644E+02 -0.27056390262E+02  0.20050314176E+01  0.31902244822E+02  0.00000000000E+00 0. -1.
          1    1    5    5  503    0 -0.22889342911E+01 -0.21136009285E+03 -0.59696694323E+02  0.21964066878E+03  0.00000000000E+00 0. -1.
         -2    1    5    5    0  503  0.11317379570E+03 -0.87794162144E+03 -0.36970273748E+03  0.95930699611E+03  0.00000000000E+00 0.  1.
         -3    1    6    6    0  502 -0.20867871432E+03 -0.19930545130E+03  0.26889208374E+03  0.39442669969E+03  0.00000000000E+00 0.  1.
<mgrwt>
<rscale>  0 0.29440524E+04</rscale>
<asrwt>0</asrwt>
<pdfrwt beam="1">  1        2 0.28023087E+00 0.29440524E+04</pdfrwt>
<pdfrwt beam="2">  1       -2 0.18301572E+00 0.29440524E+04</pdfrwt>
<totfact> 0.12480992E+00</totfact>
</mgrwt>
</event>
<event>
12    1  0.2083715E-007  0.2660885E+04  0.7818608E-02  0.8347809E-01
          1   -1    0    0  501    0  0.00000000000E+00  0.00000000000E+00  0.10808803228E+04  0.10808803228E+04  0.00000000000E+00 0. -1.
         -1   -1    0    0    0  501 -0.00000000000E+00 -0.00000000000E+00 -0.16376250593E+04  0.16376250593E+04  0.00000000000E+00 0.  1.
         23    2    1    2    0    0 -0.82151945435E+03  0.32489186211E+03  0.54529383110E+03  0.10421778230E+04  0.91325333644E+02 0.  0.
        254    2    1    2    0    0  0.82151945435E+03 -0.32489186211E+03 -0.11020385676E+04  0.16763275591E+04  0.90284890478E+03 0.  0.
        -24    2    4    4    0    0  0.34300290316E+03 -0.45188510687E+02  0.84062847713E+02  0.36466469203E+03  0.78871935310E+02 0.  0.
         24    2    4    4    0    0  0.47851655120E+03 -0.27970335142E+03 -0.11861014153E+04  0.13116628670E+04  0.80067813715E+02 0.  0.
         11    1    3    3    0    0 -0.37237121598E+03  0.14526728309E+03  0.19368943259E+03  0.44416044660E+03  0.00000000000E+00 0. -1.
        -11    1    3    3    0    0 -0.44914823837E+03  0.17962457902E+03  0.35160439850E+03  0.59801737639E+03  0.00000000000E+00 0.  1.
          2    1    6    6  502    0  0.19750651940E+03 -0.72777313673E+02 -0.41825632108E+03  0.46823467697E+03  0.00000000000E+00 0. -1.
          1    1    5    5  503    0  0.51481446147E+02 -0.34586724725E+02  0.39331742617E+01  0.62145399543E+02  0.00000000000E+00 0. -1.
         -2    1    5    5    0  503  0.29152145701E+03 -0.10601785961E+02  0.80129673451E+02  0.30251929249E+03  0.00000000000E+00 0.  1.
         -1    1    6    6    0  502  0.28101003179E+03 -0.20692603775E+03 -0.76784509421E+03  0.84342819005E+03  0.00000000000E+00 0.  1.
<mgrwt>
<rscale>  0 0.26608846E+04</rscale>
<asrwt>0</asrwt>
<pdfrwt beam="1">  1        1 0.16628928E+00 0.26608846E+04</pdfrwt>
<pdfrwt beam="2">  1       -1 0.25194232E+00 0.26608846E+04</pdfrwt>
<totfact> 0.77756543E-01</totfact>
</mgrwt>
</event>
<event>
12    1  0.2083715E-007  0.1326204E+04  0.7818608E-02  0.9009040E-01
          1   -1    0    0  501    0  0.00000000000E+00  0.00000000000E+00  0.21497636350E+04  0.21497636350E+04  0.00000000000E+00 0. -1.
         -1   -1    0    0    0  501 -0.00000000000E+00 -0.00000000000E+00 -0.20453597490E+03  0.20453597490E+03  0.00000000000E+00 0.  1.
         23    2    1    2    0    0 -0.25086922603E+03  0.12284860508E+03  0.15658025803E+03  0.33283998303E+03  0.90763036297E+02 0.  0.
        254    2    1    2    0    0  0.25086922603E+03 -0.12284860508E+03  0.17886474021E+04  0.20214596269E+04  0.89945113589E+03 0.  0.
        -24    2    4    4    0    0 -0.18699732446E+03  0.21777972494E+03  0.10656938124E+04  0.11065763620E+04  0.80074559400E+02 0.  0.
         24    2    4    4    0    0  0.43786655049E+03 -0.34062833002E+03  0.72295358962E+03  0.91488326490E+03  0.81207883831E+02 0.  0.
         13    1    3    3    0    0 -0.22556614025E+03  0.91392392257E+02  0.99511112934E+02  0.26293557117E+03  0.00000000000E+00 0.  1.
        -13    1    3    3    0    0 -0.25303085784E+02  0.31456212819E+02  0.57069145098E+02  0.69904411859E+02  0.00000000000E+00 0. -1.
          4    1    6    6  502    0  0.16057154217E+03 -0.86097580513E+02  0.27356355541E+03  0.32868378781E+03  0.00000000000E+00 0. -1.
          3    1    5    5  503    0 -0.14280788662E+03  0.10789478505E+03  0.60696697234E+03  0.63280667082E+03  0.00000000000E+00 0. -1.
         -4    1    5    5    0  503 -0.44189437838E+02  0.10988493990E+03  0.45872684009E+03  0.47376969115E+03  0.00000000000E+00 0.  1.
         -3    1    6    6    0  502  0.27729500832E+03 -0.25453074951E+03  0.44939003422E+03  0.58619947709E+03  0.00000000000E+00 0.  1.
<mgrwt>
<rscale>  0 0.13262036E+04</rscale>
<asrwt>0</asrwt>
<pdfrwt beam="1">  1        1 0.33073285E+00 0.13262036E+04</pdfrwt>
<pdfrwt beam="2">  1       -1 0.31467075E-01 0.13262036E+04</pdfrwt>
<totfact> 0.21723819E+01</totfact>
</mgrwt>
</event>
<event>
12    1  0.2083715E-007  0.4772602E+04  0.7818608E-02  0.7864576E-01
         -2   -1    0    0    0  501 -0.00000000000E+00  0.00000000000E+00  0.26689519162E+04  0.26689519162E+04  0.00000000000E+00 0.  1.
          2   -1    0    0  501    0  0.00000000000E+00 -0.00000000000E+00 -0.21335840773E+04  0.21335840773E+04  0.00000000000E+00 0. -1.
         23    2    1    2    0    0 -0.11888175638E+04  0.18334053724E+04 -0.46248797060E+03  0.22353165431E+04  0.89902531674E+02 0.  0.
        254    2    1    2    0    0  0.11888175638E+04 -0.18334053724E+04  0.99785580949E+03  0.25672194504E+04  0.90566938238E+03 0.  0.
        -24    2    4    4    0    0 -0.12298672693E+03 -0.36638906238E+03  0.13901431024E+03  0.41852997247E+03  0.80471605997E+02 0.  0.
         24    2    4    4    0    0  0.13118042907E+04 -0.14670163100E+04  0.85884149924E+03  0.21486894779E+04  0.79312044887E+02 0.  0.
         13    1    3    3    0    0 -0.84997747747E+03  0.13826980850E+04 -0.34752448522E+03  0.16598460695E+04  0.00000000000E+00 0.  1.
        -13    1    3    3    0    0 -0.33884008634E+03  0.45070728739E+03 -0.11496348538E+03  0.57547047360E+03  0.00000000000E+00 0. -1.
          4    1    6    6  502    0  0.84755164565E+03 -0.96394561435E+03  0.52041165928E+03  0.13850499033E+04  0.00000000000E+00 0. -1.
          3    1    5    5  503    0 -0.10949723461E+03 -0.31291779426E+03  0.14728397226E+03  0.36276681055E+03  0.00000000000E+00 0. -1.
         -4    1    5    5    0  503 -0.13489492317E+02 -0.53471268120E+02 -0.82696620199E+01  0.55763161919E+02  0.00000000000E+00 0.  1.
         -3    1    6    6    0  502  0.46425264509E+03 -0.50307069568E+03  0.33842983996E+03  0.76363957461E+03  0.00000000000E+00 0.  1.
<mgrwt>
<rscale>  0 0.47726024E+04</rscale>
<asrwt>0</asrwt>
<pdfrwt beam="1">  1        2 0.32824370E+00 0.47726024E+04</pdfrwt>
<pdfrwt beam="2">  1       -2 0.41060799E+00 0.47726024E+04</pdfrwt>
<totfact> 0.26393038E-02</totfact>
</mgrwt>
</event>
<event>
12    1  0.2083715E-007  0.3404065E+04  0.7818608E-02  0.8136909E-01
          2   -1    0    0  501    0  0.00000000000E+00  0.00000000000E+00  0.17469894372E+04  0.17469894372E+04  0.00000000000E+00 0. -1.
         -2   -1    0    0    0  501 -0.00000000000E+00 -0.00000000000E+00 -0.16582320860E+04  0.16582320860E+04  0.00000000000E+00 0.  1.
         23    2    1    2    0    0 -0.12279925064E+04  0.81313556417E+03 -0.52947854474E+03  0.15679513506E+04  0.94704101895E+02 0.  0.
        254    2    1    2    0    0  0.12279925064E+04 -0.81313556417E+03  0.61823589597E+03  0.18372701727E+04  0.90784966978E+03 0.  0.
        -24    2    4    4    0    0  0.29922353304E+03 -0.54382848892E+03  0.60039091473E+03  0.86700807586E+03  0.77133682781E+02 0.  0.
         24    2    4    4    0    0  0.92876897334E+03 -0.26930707524E+03  0.17844981244E+02  0.97026209682E+03  0.77149119042E+02 0.  0.
         13    1    3    3    0    0 -0.10016362840E+04  0.63915016435E+03 -0.39285456001E+03  0.12514483143E+04  0.00000000000E+00 0.  1.
        -13    1    3    3    0    0 -0.22635622237E+03  0.17398539981E+03 -0.13662398473E+03  0.31650303625E+03  0.00000000000E+00 0. -1.
          4    1    6    6  502    0  0.14658342124E+03 -0.57605637526E+02 -0.21620575283E+02  0.15897345103E+03  0.00000000000E+00 0. -1.
          3    1    5    5  503    0 -0.29803167011E+00 -0.14319034285E+01  0.13486662152E+02  0.13565737220E+02  0.00000000000E+00 0. -1.
         -4    1    5    5    0  503  0.29952156471E+03 -0.54239658549E+03  0.58690425258E+03  0.85344233864E+03  0.00000000000E+00 0.  1.
         -3    1    6    6    0  502  0.78218555210E+03 -0.21170143772E+03  0.39465556527E+02  0.81128864579E+03  0.00000000000E+00 0.  1.
<mgrwt>
<rscale>  0 0.34040646E+04</rscale>
<asrwt>0</asrwt>
<pdfrwt beam="1">  1        2 0.26876760E+00 0.34040646E+04</pdfrwt>
<pdfrwt beam="2">  1       -2 0.25511263E+00 0.34040646E+04</pdfrwt>
<totfact> 0.45715028E-01</totfact>
</mgrwt>
</event>
<event>
12    1  0.2083715E-007  0.2420753E+04  0.7818608E-02  0.8431775E-01
          2   -1    0    0  501    0  0.00000000000E+00  0.00000000000E+00  0.13283196764E+04  0.13283196764E+04  0.00000000000E+00 0. -1.
         -2   -1    0    0    0  501 -0.00000000000E+00 -0.00000000000E+00 -0.11029053487E+04  0.11029053487E+04  0.00000000000E+00 0.  1.
         23    2    1    2    0    0  0.53983897226E+03 -0.83033697557E+03  0.42856466214E+03  0.10830597385E+04  0.92006078832E+02 0.  0.
        254    2    1    2    0    0 -0.53983897226E+03  0.83033697557E+03 -0.20315033439E+03  0.13481652866E+04  0.89184862649E+03 0.  0.
        -24    2    4    4    0    0 -0.48725619022E+03  0.88707042367E+03  0.10480902059E+03  0.10207185192E+04  0.81048339030E+02 0.  0.
         24    2    4    4    0    0 -0.52582782046E+02 -0.56733448093E+02 -0.30795935498E+03  0.32744676733E+03  0.79992424767E+02 0.  0.
         13    1    3    3    0    0  0.82389655629E+02 -0.12017423748E+03  0.28904280376E+02  0.14854413531E+03  0.00000000000E+00 0. -1.
        -13    1    3    3    0    0  0.45744931664E+03 -0.71016273809E+03  0.39966038176E+03  0.93451560319E+03  0.00000000000E+00 0.  1.
          4    1    6    6  502    0  0.75976459062E+01 -0.34287052172E+02 -0.46837160349E+02  0.58540975048E+02  0.00000000000E+00 0. -1.
          3    1    5    5  503    0 -0.11066080432E+03  0.22625811638E+03 -0.69252062428E+01  0.25196528992E+03  0.00000000000E+00 0. -1.
         -4    1    5    5    0  503 -0.37659538590E+03  0.66081230728E+03  0.11173422683E+03  0.76875322932E+03  0.00000000000E+00 0.  1.
         -3    1    6    6    0  502 -0.60180427952E+02 -0.22446395921E+02 -0.26112219463E+03  0.26890579229E+03  0.00000000000E+00 0.  1.
<mgrwt>
<rscale>  0 0.24207527E+04</rscale>
<asrwt>0</asrwt>
<pdfrwt beam="1">  1        2 0.20435687E+00 0.24207527E+04</pdfrwt>
<pdfrwt beam="2">  1       -2 0.16967774E+00 0.24207527E+04</pdfrwt>
<totfact> 0.30615812E+00</totfact>
</mgrwt>
</event>
<event>
12    1  0.2083715E-007  0.1152211E+04  0.7818608E-02  0.9155747E-01
         -2   -1    0    0    0  501 -0.00000000000E+00  0.00000000000E+00  0.94561243624E+03  0.94561243624E+03  0.00000000000E+00 0. -1.
          2   -1    0    0  501    0  0.00000000000E+00 -0.00000000000E+00 -0.35098665501E+03  0.35098665501E+03  0.00000000000E+00 0.  1.
         23    2    1    2    0    0  0.19734412462E+03  0.67410247258E+02  0.85902223287E+02  0.24206838238E+03  0.87915100106E+02 0.  0.
        254    2    1    2    0    0 -0.19734412462E+03 -0.67410247258E+02  0.50872355795E+03  0.10545307089E+04  0.89985916264E+03 0.  0.
        -24    2    4    4    0    0 -0.31443846192E+03 -0.38826130648E+03  0.99989349970E+02  0.51570061926E+03  0.79566765383E+02 0.  0.
         24    2    4    4    0    0  0.11709433730E+03  0.32085105922E+03  0.40873420798E+03  0.53883008962E+03  0.81349411040E+02 0.  0.
         13    1    3    3    0    0  0.25228006819E+02 -0.18757609914E+02  0.25051420262E+02  0.40197934212E+02  0.00000000000E+00 0. -1.
        -13    1    3    3    0    0  0.17211611780E+03  0.86167857171E+02  0.60850803025E+02  0.20187044817E+03  0.00000000000E+00 0.  1.
          2    1    6    6  502    0  0.73419420773E+02  0.20180144045E+03  0.19372607267E+03  0.28921276588E+03  0.00000000000E+00 0. -1.
          3    1    5    5  503    0 -0.22741221073E+02 -0.20548319477E+02  0.26706762613E+02  0.40652770367E+02  0.00000000000E+00 0. -1.
         -4    1    5    5    0  503 -0.29169724084E+03 -0.36771298700E+03  0.73282587357E+02  0.47504784889E+03  0.00000000000E+00 0.  1.
         -1    1    6    6    0  502  0.43674916526E+02  0.11904961877E+03  0.21500813531E+03  0.24961732374E+03  0.00000000000E+00 0.  1.
<mgrwt>
<rscale>  0 0.11522107E+04</rscale>
<asrwt>0</asrwt>
<pdfrwt beam="1">  1        2 0.53997947E-01 0.11522107E+04</pdfrwt>
<pdfrwt beam="2">  1       -2 0.14547884E+00 0.11522107E+04</pdfrwt>
<totfact> 0.29587259E+01</totfact>
</mgrwt>
</event>
<event>
12    1  0.2083715E-007  0.2128506E+04  0.7818608E-02  0.8548789E-01
         -1   -1    0    0    0  501 -0.00000000000E+00  0.00000000000E+00  0.22203908281E+04  0.22203908281E+04  0.00000000000E+00 0.  1.
          1   -1    0    0  501    0  0.00000000000E+00 -0.00000000000E+00 -0.51010587193E+03  0.51010587193E+03  0.00000000000E+00 0. -1.
         23    2    1    2    0    0 -0.28425072976E+03 -0.49034077337E+03 -0.14491903862E+03  0.59205566937E+03  0.91081482654E+02 0.  0.
        254    2    1    2    0    0  0.28425072976E+03  0.49034077337E+03  0.18552039948E+04  0.21384410307E+04  0.89995312539E+03 0.  0.
        -24    2    4    4    0    0 -0.13404318877E+03  0.58002249320E+03  0.13151870458E+04  0.14458898368E+04  0.80540583348E+02 0.  0.
         24    2    4    4    0    0  0.41829391854E+03 -0.89681719824E+02  0.54001694899E+03  0.69255119388E+03  0.70684070326E+02 0.  0.
         13    1    3    3    0    0 -0.23774178723E+02 -0.11100752787E+03 -0.20300035609E+02  0.11532551436E+03  0.00000000000E+00 0. -1.
        -13    1    3    3    0    0 -0.26047655104E+03 -0.37933324550E+03 -0.12461900301E+03  0.47673015501E+03  0.00000000000E+00 0.  1.
          2    1    6    6  502    0  0.14513196473E+03 -0.23142701038E+02  0.23971660865E+03  0.28118130140E+03  0.00000000000E+00 0. -1.
          3    1    5    5  503    0 -0.56378230773E+02  0.24437985618E+03  0.46019874047E+03  0.52410199365E+03  0.00000000000E+00 0. -1.
         -2    1    5    5    0  503 -0.77664957998E+02  0.33564263702E+03  0.85498830536E+03  0.92178784315E+03  0.00000000000E+00 0.  1.
         -1    1    6    6    0  502  0.27316195381E+03 -0.66539018786E+02  0.30030034034E+03  0.41136989248E+03  0.00000000000E+00 0.  1.
<mgrwt>
<rscale>  0 0.21285060E+04</rscale>
<asrwt>0</asrwt>
<pdfrwt beam="1">  1        1 0.78477828E-01 0.21285060E+04</pdfrwt>
<pdfrwt beam="2">  1       -1 0.34159858E+00 0.21285060E+04</pdfrwt>
<totfact> 0.69914055E-01</totfact>
</mgrwt>
</event>
<event>
12    1  0.2083715E-007  0.2542279E+04  0.7818608E-02  0.8388076E-01
          2   -1    0    0  501    0  0.00000000000E+00  0.00000000000E+00  0.13057873552E+04  0.13057873552E+04  0.00000000000E+00 0. -1.
         -2   -1    0    0    0  501 -0.00000000000E+00 -0.00000000000E+00 -0.12374107109E+04  0.12374107109E+04  0.00000000000E+00 0.  1.
         23    2    1    2    0    0 -0.78115885088E+03  0.61919303259E+03 -0.45756830504E+03  0.11005224017E+04  0.90397128880E+02 0.  0.
        254    2    1    2    0    0  0.78115885088E+03 -0.61919303259E+03  0.52594494929E+03  0.14426756644E+04  0.90060303196E+03 0.  0.
        -24    2    4    4    0    0  0.17925917894E+03 -0.17327343638E+03 -0.24960155091E+03  0.36177591587E+03  0.80145755355E+02 0.  0.
         24    2    4    4    0    0  0.60189967194E+03 -0.44591959621E+03  0.77554650020E+03  0.10808997486E+04  0.75791761510E+02 0.  0.
         13    1    3    3    0    0 -0.37975712817E+03  0.34542912506E+03 -0.20337781405E+03  0.55217686667E+03  0.00000000000E+00 0.  1.
        -13    1    3    3    0    0 -0.40140172270E+03  0.27376390754E+03 -0.25419049099E+03  0.54834553501E+03  0.00000000000E+00 0. -1.
          4    1    6    6  502    0  0.32829347033E+03 -0.22438938734E+03  0.46093405134E+03  0.60875890096E+03  0.00000000000E+00 0. -1.
          1    1    5    5  503    0  0.13218851021E+03 -0.15855404105E+03 -0.22905287786E+03  0.30834786689E+03  0.00000000000E+00 0. -1.
         -2    1    5    5    0  503  0.47070668730E+02 -0.14719395332E+02 -0.20548673055E+02  0.53428048981E+02  0.00000000000E+00 0.  1.
         -3    1    6    6    0  502  0.27360620161E+03 -0.22153020887E+03  0.31461244886E+03  0.47214084761E+03  0.00000000000E+00 0.  1.
<mgrwt>
<rscale>  0 0.25422787E+04</rscale>
<asrwt>0</asrwt>
<pdfrwt beam="1">  1        2 0.20089036E+00 0.25422787E+04</pdfrwt>
<pdfrwt beam="2">  1       -2 0.19037088E+00 0.25422787E+04</pdfrwt>
<totfact> 0.22469555E+00</totfact>
</mgrwt>
</event>
<event>
12    1  0.2083715E-007  0.1685199E+04  0.7818608E-02  0.8769851E-01
          1   -1    0    0  501    0  0.00000000000E+00  0.00000000000E+00  0.86261932656E+03  0.86261932656E+03  0.00000000000E+00 0.  1.
         -1   -1    0    0    0  501 -0.00000000000E+00 -0.00000000000E+00 -0.82304402148E+03  0.82304402148E+03  0.00000000000E+00 0. -1.
         23    2    1    2    0    0 -0.19758529856E+02  0.56515672635E+03  0.20797094528E+03  0.60939918817E+03  0.91230102590E+02 0.  0.
        254    2    1    2    0    0  0.19758529856E+02 -0.56515672635E+03 -0.16839564020E+03  0.10762641599E+04  0.90010828535E+03 0.  0.
        -24    2    4    4    0    0  0.82179402208E+02 -0.15459417236E+03  0.35460562603E+03  0.40358972032E+03  0.80540052544E+02 0.  0.
         24    2    4    4    0    0 -0.62420872353E+02 -0.41056255399E+03 -0.52300126623E+03  0.67267443955E+03  0.80638707277E+02 0.  0.
         13    1    3    3    0    0 -0.36401407882E+02  0.54003811140E+03  0.20621656776E+03  0.57921627833E+03  0.00000000000E+00 0.  1.
        -13    1    3    3    0    0  0.16642878027E+02  0.25118614943E+02  0.17543775241E+01  0.30182909836E+02  0.00000000000E+00 0. -1.
          4    1    6    6  502    0 -0.36896213690E+02 -0.36189537991E+03 -0.41771567373E+03  0.55390972249E+03  0.00000000000E+00 0. -1.
          3    1    5    5  503    0  0.51705020591E+02 -0.21253203071E+02  0.99444801099E+02  0.11408056916E+03  0.00000000000E+00 0. -1.
         -4    1    5    5    0  503  0.30474381617E+02 -0.13334096929E+03  0.25516082493E+03  0.28950915116E+03  0.00000000000E+00 0.  1.
         -3    1    6    6    0  502 -0.25524658662E+02 -0.48667174077E+02 -0.10528559250E+03  0.11876471707E+03  0.00000000000E+00 0.  1.
<mgrwt>
<rscale>  0 0.16851987E+04</rscale>
<asrwt>0</asrwt>
<pdfrwt beam="1">  1        1 0.13271067E+00 0.16851987E+04</pdfrwt>
<pdfrwt beam="2">  1       -1 0.12662216E+00 0.16851987E+04</pdfrwt>
<totfact> 0.10092662E+01</totfact>
</mgrwt>
</event>
<event>
12    1  0.2083715E-007  0.2041881E+04  0.7818608E-02  0.8587286E-01
          2   -1    0    0  501    0  0.00000000000E+00  0.00000000000E+00  0.10229196964E+04  0.10229196964E+04  0.00000000000E+00 0. -1.
         -2   -1    0    0    0  501 -0.00000000000E+00 -0.00000000000E+00 -0.10189652922E+04  0.10189652922E+04  0.00000000000E+00 0.  1.
         23    2    1    2    0    0 -0.16343001044E+03 -0.79590143153E+03  0.91697476070E+02  0.82339630722E+03  0.96977289074E+02 0.  0.
        254    2    1    2    0    0  0.16343001044E+03  0.79590143153E+03 -0.87743071792E+02  0.12184886814E+04  0.90379608487E+03 0.  0.
        -24    2    4    4    0    0  0.21216531442E+02  0.94525050170E+03 -0.19908881315E+03  0.96945312720E+03  0.79084500089E+02 0.  0.
         24    2    4    4    0    0  0.14221347899E+03 -0.14934907016E+03  0.11134574136E+03  0.24903555420E+03  0.84208163307E+02 0.  0.
         11    1    3    3    0    0 -0.81204897669E+02 -0.24232165816E+03  0.61872556125E+02  0.26294911033E+03  0.00000000000E+00 0.  1.
        -11    1    3    3    0    0 -0.82225112768E+02 -0.55357977337E+03  0.29824919944E+02  0.56044719689E+03  0.00000000000E+00 0. -1.
          2    1    6    6  502    0  0.12625857489E+03 -0.15676038504E+03  0.87690096785E+02  0.21955545797E+03  0.00000000000E+00 0. -1.
          1    1    5    5  503    0  0.38113133238E+02  0.23456248270E+03 -0.40020375725E+02  0.24098506113E+03  0.00000000000E+00 0. -1.
         -2    1    5    5    0  503 -0.16896601796E+02  0.71068801899E+03 -0.15906843743E+03  0.72846806607E+03  0.00000000000E+00 0.  1.
         -1    1    6    6    0  502  0.15954904102E+02  0.74113148722E+01  0.23655644579E+02  0.29480096226E+02  0.00000000000E+00 0.  1.
<mgrwt>
<rscale>  0 0.20418812E+04</rscale>
<asrwt>0</asrwt>
<pdfrwt beam="1">  1        2 0.15737226E+00 0.20418812E+04</pdfrwt>
<pdfrwt beam="2">  1       -2 0.15676389E+00 0.20418812E+04</pdfrwt>
<totfact> 0.60029206E+00</totfact>
</mgrwt>
</event>
<event>
12    1  0.2083715E-007  0.1712546E+04  0.7818608E-02  0.8754241E-01
         -2   -1    0    0    0  501 -0.00000000000E+00  0.00000000000E+00  0.41054848973E+03  0.41054848973E+03  0.00000000000E+00 0.  1.
          2   -1    0    0  501    0  0.00000000000E+00 -0.00000000000E+00 -0.17859110985E+04  0.17859110985E+04  0.00000000000E+00 0. -1.
         23    2    1    2    0    0  0.16151731644E+03  0.52493341595E+03 -0.15661664504E+03  0.57849699270E+03  0.92125253709E+02 0.  0.
        254    2    1    2    0    0 -0.16151731644E+03 -0.52493341595E+03 -0.12187459637E+04  0.16179625955E+04  0.91149234867E+03 0.  0.
        -24    2    4    4    0    0 -0.99925537338E+02 -0.62755361314E+03 -0.33606291374E+03  0.72333472067E+03  0.80412597001E+02 0.  0.
         24    2    4    4    0    0 -0.61591779098E+02  0.10262019719E+03 -0.88268304995E+03  0.89462787481E+03  0.83097626926E+02 0.  0.
         13    1    3    3    0    0  0.97005935831E+02  0.16725231126E+03 -0.59422994804E+02  0.20227352649E+03  0.00000000000E+00 0. -1.
        -13    1    3    3    0    0  0.64511380605E+02  0.35768110469E+03 -0.97193650238E+02  0.37622346621E+03  0.00000000000E+00 0.  1.
          4    1    6    6  502    0 -0.20295433982E+02  0.10084650963E+03 -0.68386244770E+03  0.69155605017E+03  0.00000000000E+00 0. -1.
          3    1    5    5  503    0 -0.70742304676E+02 -0.40171968962E+03 -0.25784766364E+03  0.48256460743E+03  0.00000000000E+00 0. -1.
         -4    1    5    5    0  503 -0.29183232662E+02 -0.22583392353E+03 -0.78215250105E+02  0.24077011325E+03  0.00000000000E+00 0.  1.
         -3    1    6    6    0  502 -0.41296345115E+02  0.17736875656E+01 -0.19882060224E+03  0.20307182464E+03  0.00000000000E+00 0.  1.
<mgrwt>
<rscale>  0 0.17125456E+04</rscale>
<asrwt>0</asrwt>
<pdfrwt beam="1">  1        2 0.27475555E+00 0.17125456E+04</pdfrwt>
<pdfrwt beam="2">  1       -2 0.63161307E-01 0.17125456E+04</pdfrwt>
<totfact> 0.19389445E+01</totfact>
</mgrwt>
</event>
<event>
12    1  0.2083715E-007  0.3257360E+04  0.7818608E-02  0.8173831E-01
          2   -1    0    0  501    0  0.00000000000E+00  0.00000000000E+00  0.38077872566E+04  0.38077872566E+04  0.00000000000E+00 0. -1.
         -2   -1    0    0    0  501 -0.00000000000E+00 -0.00000000000E+00 -0.69662447559E+03  0.69662447559E+03  0.00000000000E+00 0.  1.
         23    2    1    2    0    0 -0.16135931833E+02  0.13255687867E+04  0.45962335601E+03  0.14062815712E+04  0.94769465980E+02 0.  0.
        254    2    1    2    0    0  0.16135931833E+02 -0.13255687867E+04  0.26515394250E+04  0.30981301610E+04  0.90019786471E+03 0.  0.
        -24    2    4    4    0    0  0.41113667257E+03 -0.34558383075E+03  0.90872611397E+03  0.10585185788E+04  0.78847217792E+02 0.  0.
         24    2    4    4    0    0 -0.39500074074E+03 -0.97998495590E+03  0.17428133111E+04  0.20396115822E+04  0.78873761593E+02 0.  0.
         11    1    3    3    0    0 -0.53207446180E+02  0.64745552557E+03  0.23930103492E+03  0.69231111159E+03  0.00000000000E+00 0. -1.
        -11    1    3    3    0    0  0.37071514347E+02  0.67811326108E+03  0.22032232109E+03  0.71397045962E+03  0.00000000000E+00 0.  1.
          4    1    6    6  502    0 -0.17527478871E+03 -0.44330740622E+03  0.86206118348E+03  0.98508486539E+03  0.00000000000E+00 0. -1.
          1    1    5    5  503    0  0.10710044731E+03 -0.48240957335E+02  0.20570885124E+03  0.23688357322E+03  0.00000000000E+00 0. -1.
         -2    1    5    5    0  503  0.30403622526E+03 -0.29734287341E+03  0.70301726273E+03  0.82163500554E+03  0.00000000000E+00 0.  1.
         -3    1    6    6    0  502 -0.21972595203E+03 -0.53667754968E+03  0.88075212758E+03  0.10545267169E+04  0.00000000000E+00 0.  1.
<mgrwt>
<rscale>  0 0.32573595E+04</rscale>
<asrwt>0</asrwt>
<pdfrwt beam="1">  1        2 0.58581341E+00 0.32573595E+04</pdfrwt>
<pdfrwt beam="2">  1       -2 0.10717300E+00 0.32573595E+04</pdfrwt>
<totfact> 0.28361272E-01</totfact>
</mgrwt>
</event>
<event>
12    1  0.2083715E-007  0.1367589E+04  0.7818608E-02  0.8977619E-01
         -2   -1    0    0    0  501 -0.00000000000E+00  0.00000000000E+00  0.47846352485E+03  0.47846352485E+03  0.00000000000E+00 0.  1.
          2   -1    0    0  501    0  0.00000000000E+00 -0.00000000000E+00 -0.97724320123E+03  0.97724320123E+03  0.00000000000E+00 0. -1.
         23    2    1    2    0    0  0.31723236010E+03  0.11326917397E+03 -0.32946163443E+03  0.47997676447E+03  0.91468299457E+02 0.  0.
        254    2    1    2    0    0 -0.31723236010E+03 -0.11326917397E+03 -0.16931804195E+03  0.97572996160E+03  0.89995226683E+03 0.  0.
        -24    2    4    4    0    0 -0.23029580418E+02 -0.30663978788E+02 -0.50638993976E+03  0.51393111751E+03  0.78890945509E+02 0.  0.
         24    2    4    4    0    0 -0.29420277968E+03 -0.82605195184E+02  0.33707189781E+03  0.46179884409E+03  0.79131626182E+02 0.  0.
         13    1    3    3    0    0  0.19077994458E+03  0.86352462885E+02 -0.14497398618E+03  0.25469823668E+03  0.00000000000E+00 0.  1.
        -13    1    3    3    0    0  0.12645241552E+03  0.26916711088E+02 -0.18448764825E+03  0.22527852779E+03  0.00000000000E+00 0. -1.
          4    1    6    6  502    0 -0.21107001773E+03 -0.21083477747E+02  0.22063894926E+03  0.30606635122E+03  0.00000000000E+00 0. -1.
          3    1    5    5  503    0 -0.20050614790E+02 -0.52545005614E+02 -0.23466448727E+03  0.24130981405E+03  0.00000000000E+00 0. -1.
         -4    1    5    5    0  503 -0.29789656277E+01  0.21881026826E+02 -0.27172545249E+03  0.27262130346E+03  0.00000000000E+00 0.  1.
         -3    1    6    6    0  502 -0.83132761949E+02 -0.61521717437E+02  0.11643294855E+03  0.15573249287E+03  0.00000000000E+00 0.  1.
<mgrwt>
<rscale>  0 0.13675895E+04</rscale>
<asrwt>0</asrwt>
<pdfrwt beam="1">  1        2 0.15034511E+00 0.13675895E+04</pdfrwt>
<pdfrwt beam="2">  1       -2 0.73609773E-01 0.13675895E+04</pdfrwt>
<totfact> 0.42320469E+01</totfact>
</mgrwt>
</event>
<event>
12    1  0.2083715E-007  0.2243120E+04  0.7818608E-02  0.8500692E-01
          2   -1    0    0  501    0  0.00000000000E+00  0.00000000000E+00  0.10717522604E+04  0.10717522604E+04  0.00000000000E+00 0. -1.
         -2   -1    0    0    0  501 -0.00000000000E+00 -0.00000000000E+00 -0.11736822313E+04  0.11736822313E+04  0.00000000000E+00 0.  1.
         23    2    1    2    0    0  0.47387401126E+03 -0.65088073368E+03  0.44005903636E+03  0.92194633739E+03  0.90170868484E+02 0.  0.
        254    2    1    2    0    0 -0.47387401126E+03  0.65088073368E+03 -0.54198900724E+03  0.13234881544E+04  0.89981470465E+03 0.  0.
        -24    2    4    4    0    0 -0.56874908129E+03  0.72781377773E+03 -0.19630849722E+03  0.94779998683E+03  0.81236546114E+02 0.  0.
         24    2    4    4    0    0  0.94875070030E+02 -0.76933044051E+02 -0.34568051002E+03  0.37568816752E+03  0.82015925452E+02 0.  0.
         11    1    3    3    0    0  0.42249507053E+03 -0.58920325891E+03  0.42456978234E+03  0.84019168349E+03  0.00000000000E+00 0. -1.
        -11    1    3    3    0    0  0.51378940724E+02 -0.61677474774E+02  0.15489254027E+02  0.81754653902E+02  0.00000000000E+00 0.  1.
          4    1    6    6  502    0 -0.33593431910E+01 -0.29389190675E+02 -0.32060776166E+02  0.43622277377E+02  0.00000000000E+00 0. -1.
          1    1    5    5  503    0  0.27453053462E+01  0.55121248324E+01 -0.56497684027E+00  0.61838030727E+01  0.00000000000E+00 0. -1.
         -2    1    5    5    0  503 -0.57149438663E+03  0.72230165290E+03 -0.19574352038E+03  0.94161618375E+03  0.00000000000E+00 0.  1.
         -3    1    6    6    0  502  0.98234413221E+02 -0.47543853377E+02 -0.31361973386E+03  0.33206589015E+03  0.00000000000E+00 0.  1.
<mgrwt>
<rscale>  0 0.22431198E+04</rscale>
<asrwt>0</asrwt>
<pdfrwt beam="1">  1        2 0.16488496E+00 0.22431198E+04</pdfrwt>
<pdfrwt beam="2">  1       -2 0.18056650E+00 0.22431198E+04</pdfrwt>
<totfact> 0.37124548E+00</totfact>
</mgrwt>
</event>
<event>
12    1  0.2083715E-007  0.1487179E+04  0.7818608E-02  0.8893023E-01
          1   -1    0    0  501    0  0.00000000000E+00  0.00000000000E+00  0.19673173508E+04  0.19673173508E+04  0.00000000000E+00 0.  1.
         -1   -1    0    0    0  501 -0.00000000000E+00 -0.00000000000E+00 -0.28105566298E+03  0.28105566298E+03  0.00000000000E+00 0. -1.
         23    2    1    2    0    0 -0.17029333230E+03  0.24815648293E+02 -0.10911148875E+03  0.22224112162E+03  0.88713943294E+02 0.  0.
        254    2    1    2    0    0  0.17029333230E+03 -0.24815648293E+02  0.17953731766E+04  0.20261318922E+04  0.92316302238E+03 0.  0.
        -24    2    4    4    0    0 -0.36056530894E+03  0.13356312736E+02  0.48627013477E+03  0.61066919488E+03  0.79199043594E+02 0.  0.
         24    2    4    4    0    0  0.53085864124E+03 -0.38171961029E+02  0.13091030418E+04  0.14154626973E+04  0.80720987265E+02 0.  0.
         11    1    3    3    0    0 -0.15457532868E+03  0.38399020607E+02 -0.62294940115E+02  0.17102244468E+03  0.00000000000E+00 0.  1.
        -11    1    3    3    0    0 -0.15718003620E+02 -0.13583372313E+02 -0.46816548636E+02  0.51218676939E+02  0.00000000000E+00 0. -1.
          2    1    6    6  502    0  0.26840789501E+03 -0.35022211025E+02  0.76221634154E+03  0.80885295616E+03  0.00000000000E+00 0. -1.
          3    1    5    5  503    0 -0.31827867895E+03  0.35744281687E+02  0.43894804987E+03  0.54337313297E+03  0.00000000000E+00 0. -1.
         -4    1    5    5    0  503 -0.42286629983E+02 -0.22387968951E+02  0.47322084901E+02  0.67296061909E+02  0.00000000000E+00 0.  1.
         -1    1    6    6    0  502  0.26245074623E+03 -0.31497500044E+01  0.54688670028E+03  0.60660974115E+03  0.00000000000E+00 0.  1.
<mgrwt>
<rscale>  0 0.14871795E+04</rscale>
<asrwt>0</asrwt>
<pdfrwt beam="1">  1        1 0.30266420E+00 0.14871795E+04</pdfrwt>
<pdfrwt beam="2">  1       -1 0.43239334E-01 0.14871795E+04</pdfrwt>
<totfact> 0.16030920E+01</totfact>
</mgrwt>
</event>
<event>
12    1  0.2083715E-007  0.1220350E+04  0.7818608E-02  0.9095228E-01
          1   -1    0    0  501    0  0.00000000000E+00  0.00000000000E+00  0.11714377923E+04  0.11714377923E+04  0.00000000000E+00 0. -1.
         -1   -1    0    0    0  501 -0.00000000000E+00 -0.00000000000E+00 -0.31782628174E+03  0.31782628174E+03  0.00000000000E+00 0.  1.
         23    2    1    2    0    0 -0.90093853249E+02  0.25128552828E+03  0.23570803694E+03  0.36687886743E+03  0.88207174157E+02 0.  0.
        254    2    1    2    0    0  0.90093853249E+02 -0.25128552828E+03  0.61790347364E+03  0.11223852066E+04  0.89815507023E+03 0.  0.
        -24    2    4    4    0    0 -0.24951175691E+02 -0.52494999138E+03  0.61707511237E+03  0.81455090050E+03  0.80724349420E+02 0.  0.
         24    2    4    4    0    0  0.11504502894E+03  0.27366446310E+03  0.82836127098E+00  0.30783430611E+03  0.81447386625E+02 0.  0.
         13    1    3    3    0    0 -0.45892754890E+00  0.78482190454E+02  0.11008247186E+03  0.13519547124E+03  0.00000000000E+00 0.  1.
        -13    1    3    3    0    0 -0.89634925700E+02  0.17280333783E+03  0.12562556508E+03  0.23168339619E+03  0.00000000000E+00 0. -1.
          4    1    6    6  502    0  0.29735867448E+00  0.95950152918E+02 -0.64640039237E+01  0.96168100813E+02  0.00000000000E+00 0. -1.
          1    1    5    5  503    0 -0.81751839530E+01 -0.20828770884E+02  0.80677750419E+01  0.23785716792E+02  0.00000000000E+00 0. -1.
         -2    1    5    5    0  503 -0.16775991738E+02 -0.50412122050E+03  0.60900733732E+03  0.79076518371E+03  0.00000000000E+00 0.  1.
         -3    1    6    6    0  502  0.11474767027E+03  0.17771431019E+03  0.72923651947E+01  0.21166620530E+03  0.00000000000E+00 0.  1.
<mgrwt>
<rscale>  0 0.12203503E+04</rscale>
<asrwt>0</asrwt>
<pdfrwt beam="1">  1        1 0.18022120E+00 0.12203503E+04</pdfrwt>
<pdfrwt beam="2">  1       -1 0.48896352E-01 0.12203503E+04</pdfrwt>
<totfact> 0.46404169E+01</totfact>
</mgrwt>
</event>
<event>
12    1  0.2083715E-007  0.3035415E+04  0.7818608E-02  0.8233690E-01
          2   -1    0    0  501    0  0.00000000000E+00  0.00000000000E+00  0.25799863612E+04  0.25799863612E+04  0.00000000000E+00 0. -1.
         -2   -1    0    0    0  501 -0.00000000000E+00 -0.00000000000E+00 -0.89280952426E+03  0.89280952426E+03  0.00000000000E+00 0.  1.
         23    2    1    2    0    0  0.46313559190E+03  0.11164424636E+04  0.24099312339E+01  0.12120387486E+04  0.89965378725E+02 0.  0.
        254    2    1    2    0    0 -0.46313559190E+03 -0.11164424636E+04  0.16847669057E+04  0.22607571369E+04  0.90091339997E+03 0.  0.
        -24    2    4    4    0    0 -0.74827966585E+02 -0.11027497346E+04  0.11794318083E+04  0.16183922700E+04  0.80485698296E+02 0.  0.
         24    2    4    4    0    0 -0.38830762532E+03 -0.13692728989E+02  0.50533509746E+03  0.64236486682E+03  0.79364719455E+02 0.  0.
         13    1    3    3    0    0  0.61154059884E+02  0.10496601353E+03 -0.21397192322E+02  0.12335121757E+03  0.00000000000E+00 0.  1.
        -13    1    3    3    0    0  0.40198153202E+03  0.10114764501E+04  0.23807123556E+02  0.10886875310E+04  0.00000000000E+00 0. -1.
          4    1    6    6  502    0 -0.10213688354E+03 -0.63747517717E+01  0.19460343277E+03  0.21987059031E+03  0.00000000000E+00 0. -1.
          1    1    5    5  503    0  0.27847030462E+01 -0.18999320930E+03  0.16606984546E+03  0.25235761871E+03  0.00000000000E+00 0. -1.
         -2    1    5    5    0  503 -0.77612669632E+02 -0.91275652531E+03  0.10133619628E+04  0.13660346513E+04  0.00000000000E+00 0.  1.
         -3    1    6    6    0  502 -0.28617074177E+03 -0.73179772177E+01  0.31073166469E+03  0.42249427650E+03  0.00000000000E+00 0.  1.
<mgrwt>
<rscale>  0 0.30354152E+04</rscale>
<asrwt>0</asrwt>
<pdfrwt beam="1">  1        2 0.39692098E+00 0.30354152E+04</pdfrwt>
<pdfrwt beam="2">  1       -2 0.13735531E+00 0.30354152E+04</pdfrwt>
<totfact> 0.10068310E+00</totfact>
</mgrwt>
</event>
<event>
12    1  0.2083715E-007  0.1928193E+04  0.7818608E-02  0.8640949E-01
          2   -1    0    0  501    0  0.00000000000E+00  0.00000000000E+00  0.20731101137E+04  0.20731101137E+04  0.00000000000E+00 0.  1.
         -2   -1    0    0    0  501 -0.00000000000E+00 -0.00000000000E+00 -0.44835136890E+03  0.44835136890E+03  0.00000000000E+00 0. -1.
         23    2    1    2    0    0 -0.23744256505E+03  0.71161225993E+03  0.68980355349E+03  0.10231902760E+04  0.91205363811E+02 0.  0.
        254    2    1    2    0    0  0.23744256505E+03 -0.71161225993E+03  0.93495519133E+03  0.14982712066E+04  0.89883503410E+03 0.  0.
        -24    2    4    4    0    0 -0.19757146807E+03 -0.61172895546E+03  0.79159930016E+03  0.10226624928E+04  0.77216075120E+02 0.  0.
         24    2    4    4    0    0  0.43501403312E+03 -0.99883304470E+02  0.14335589118E+03  0.47560871378E+03  0.80242467344E+02 0.  0.
         13    1    3    3    0    0 -0.18800023972E+03  0.52037671245E+03  0.45498638021E+03  0.71634392520E+03  0.00000000000E+00 0. -1.
        -13    1    3    3    0    0 -0.49442325334E+02  0.19123554748E+03  0.23481717329E+03  0.30684635084E+03  0.00000000000E+00 0.  1.
          2    1    6    6  502    0  0.61250124728E+02  0.12566468605E+02  0.28740421885E+02  0.68815011172E+02  0.00000000000E+00 0. -1.
          1    1    5    5  503    0 -0.82350126962E+02 -0.27625851985E+03  0.29569622565E+03  0.41296073792E+03  0.00000000000E+00 0. -1.
         -2    1    5    5    0  503 -0.11522134111E+03 -0.33547043561E+03  0.49590307451E+03  0.60970175490E+03  0.00000000000E+00 0.  1.
         -1    1    6    6    0  502  0.37376390839E+03 -0.11244977308E+03  0.11461546929E+03  0.40679370261E+03  0.00000000000E+00 0.  1.
<mgrwt>
<rscale>  0 0.19281927E+04</rscale>
<asrwt>0</asrwt>
<pdfrwt beam="1">  1        2 0.31894001E+00 0.19281927E+04</pdfrwt>
<pdfrwt beam="2">  1       -2 0.68977135E-01 0.19281927E+04</pdfrwt>
<totfact> 0.10910888E+01</totfact>
</mgrwt>
</event>
<event>
12    1  0.2083715E-007  0.1652646E+04  0.7818608E-02  0.8788843E-01
          2   -1    0    0  501    0  0.00000000000E+00  0.00000000000E+00  0.53641823899E+03  0.53641823899E+03  0.00000000000E+00 0. -1.
         -2   -1    0    0    0  501 -0.00000000000E+00 -0.00000000000E+00 -0.12729058855E+04  0.12729058855E+04  0.00000000000E+00 0.  1.
         23    2    1    2    0    0 -0.52581809996E+03  0.95121870041E+02 -0.49743935351E+03  0.73559043674E+03  0.90080718300E+02 0.  0.
        254    2    1    2    0    0  0.52581809996E+03 -0.95121870041E+02 -0.23904829303E+03  0.10737336878E+04  0.90012615864E+03 0.  0.
        -24    2    4    4    0    0  0.64563867832E+03  0.18671733306E+03  0.76902576656E+00  0.67675618455E+03  0.79282258552E+02 0.  0.
         24    2    4    4    0    0 -0.11982057836E+03 -0.28183920310E+03 -0.23981731879E+03  0.39697750323E+03  0.79299963895E+02 0.  0.
         13    1    3    3    0    0 -0.17352357122E+03  0.27349874050E+02 -0.22313379681E+03  0.28398439510E+03  0.00000000000E+00 0.  1.
        -13    1    3    3    0    0 -0.35229452873E+03  0.67771995990E+02 -0.27430555670E+03  0.45160604165E+03  0.00000000000E+00 0. -1.
          2    1    6    6  502    0 -0.18997578460E+02 -0.14555437833E+03 -0.10821936525E+03  0.18236890100E+03  0.00000000000E+00 0. -1.
          3    1    5    5  503    0  0.18305767584E+03  0.79830518230E+02  0.25580093351E+02  0.20133893191E+03  0.00000000000E+00 0. -1.
         -4    1    5    5    0  503  0.46258100248E+03  0.10688681483E+03 -0.24811067584E+02  0.47541725265E+03  0.00000000000E+00 0.  1.
         -1    1    6    6    0  502 -0.10082299990E+03 -0.13628482477E+03 -0.13159795355E+03  0.21460860223E+03  0.00000000000E+00 0.  1.
<mgrwt>
<rscale>  0 0.16526463E+04</rscale>
<asrwt>0</asrwt>
<pdfrwt beam="1">  1        2 0.82525884E-01 0.16526463E+04</pdfrwt>
<pdfrwt beam="2">  1       -2 0.19583167E+00 0.16526463E+04</pdfrwt>
<totfact> 0.76668687E+00</totfact>
</mgrwt>
</event>
<event>
12    1  0.2083715E-007  0.2762421E+04  0.7818608E-02  0.8315031E-01
         -1   -1    0    0    0  501 -0.00000000000E+00  0.00000000000E+00  0.11101807351E+04  0.11101807351E+04  0.00000000000E+00 0.  1.
          1   -1    0    0  501    0  0.00000000000E+00 -0.00000000000E+00 -0.17184073057E+04  0.17184073057E+04  0.00000000000E+00 0. -1.
         23    2    1    2    0    0 -0.83532337294E+03  0.80406370572E+03 -0.70006695545E+03  0.13575778569E+04  0.92953295308E+02 0.  0.
        254    2    1    2    0    0  0.83532337294E+03 -0.80406370572E+03  0.91840384867E+02  0.14710101839E+04  0.90064017490E+03 0.  0.
        -24    2    4    4    0    0  0.63693381705E+03 -0.82812259214E+01 -0.51470284638E+01  0.64135807981E+03  0.74568281675E+02 0.  0.
         24    2    4    4    0    0  0.19838955589E+03 -0.79578247980E+03  0.96987413331E+02  0.82965210410E+03  0.79296181838E+02 0.  0.
         13    1    3    3    0    0 -0.65237710881E+03  0.59868935741E+03 -0.57235501563E+03  0.10543315905E+04  0.00000000000E+00 0. -1.
        -13    1    3    3    0    0 -0.18294626413E+03  0.20537434831E+03 -0.12771193982E+03  0.30324626638E+03  0.00000000000E+00 0.  1.
          4    1    6    6  502    0  0.19370696793E+03 -0.68027149424E+03  0.97806942084E+02  0.71404334128E+03  0.00000000000E+00 0. -1.
          1    1    5    5  503    0  0.63189566159E+03 -0.47226026469E+01  0.20011908281E+01  0.63191647777E+03  0.00000000000E+00 0. -1.
         -2    1    5    5    0  503  0.50381554590E+01 -0.35586232745E+01 -0.71482192920E+01  0.94416020401E+01  0.00000000000E+00 0.  1.
         -3    1    6    6    0  502  0.46825879601E+01 -0.11551098556E+03 -0.81952875246E+00  0.11560876282E+03  0.00000000000E+00 0.  1.
<mgrwt>
<rscale>  0 0.27624212E+04</rscale>
<asrwt>0</asrwt>
<pdfrwt beam="1">  1        1 0.26437035E+00 0.27624212E+04</pdfrwt>
<pdfrwt beam="2">  1       -1 0.17079704E+00 0.27624212E+04</pdfrwt>
<totfact> 0.97625760E-01</totfact>
</mgrwt>
</event>
<event>
12    1  0.2083715E-007  0.1935122E+04  0.7818608E-02  0.8637569E-01
          1   -1    0    0  501    0  0.00000000000E+00  0.00000000000E+00  0.28055276276E+04  0.28055276276E+04  0.00000000000E+00 0. -1.
         -1   -1    0    0    0  501 -0.00000000000E+00 -0.00000000000E+00 -0.33368935967E+03  0.33368935967E+03  0.00000000000E+00 0.  1.
         23    2    1    2    0    0  0.58736372224E+03 -0.44727329597E+03  0.12264348335E+04  0.14344892415E+04  0.92560463723E+02 0.  0.
        254    2    1    2    0    0 -0.58736372224E+03  0.44727329597E+03  0.12454034344E+04  0.17047277458E+04  0.90000968299E+03 0.  0.
        -24    2    4    4    0    0 -0.12227984602E+03  0.31940319002E+03 -0.16261201187E+02  0.35165408425E+03  0.80158653725E+02 0.  0.
         24    2    4    4    0    0 -0.46508387622E+03  0.12787010595E+03  0.12616646356E+04  0.13530736616E+04  0.79730201467E+02 0.  0.
         11    1    3    3    0    0  0.20129809044E+03 -0.14406393343E+03  0.33104324685E+03  0.41335816118E+03  0.00000000000E+00 0.  1.
        -11    1    3    3    0    0  0.38606563180E+03 -0.30320936254E+03  0.89539158669E+03  0.10211310803E+04  0.00000000000E+00 0. -1.
          4    1    6    6  502    0 -0.46329068970E+03  0.12853871972E+03  0.12193447652E+04  0.13107105409E+04  0.00000000000E+00 0. -1.
          1    1    5    5  503    0 -0.98196036382E+02  0.16311204659E+03 -0.30748118918E+02  0.19285602952E+03  0.00000000000E+00 0. -1.
         -2    1    5    5    0  503 -0.24083809636E+02  0.15629114343E+03  0.14486917731E+02  0.15879805473E+03  0.00000000000E+00 0.  1.
         -3    1    6    6    0  502 -0.17931865238E+01 -0.66861377546E+00  0.42319870432E+02  0.42363120702E+02  0.00000000000E+00 0.  1.
<mgrwt>
<rscale>  0 0.19351224E+04</rscale>
<asrwt>0</asrwt>
<pdfrwt beam="1">  1        1 0.43161962E+00 0.19351224E+04</pdfrwt>
<pdfrwt beam="2">  1       -1 0.51336827E-01 0.19351224E+04</pdfrwt>
<totfact> 0.29445343E+00</totfact>
</mgrwt>
</event>
<event>
12    1  0.2083715E-007  0.1512342E+04  0.7818608E-02  0.8876287E-01
          2   -1    0    0  501    0  0.00000000000E+00  0.00000000000E+00  0.23982376600E+04  0.23982376600E+04  0.00000000000E+00 0. -1.
         -2   -1    0    0    0  501 -0.00000000000E+00 -0.00000000000E+00 -0.23842270233E+03  0.23842270233E+03  0.00000000000E+00 0.  1.
         23    2    1    2    0    0 -0.10520939438E+02 -0.39888248623E+03  0.22796497043E+03  0.46802353063E+03  0.88657032934E+02 0.  0.
        254    2    1    2    0    0  0.10520939438E+02  0.39888248623E+03  0.19318499872E+04  0.21686368317E+04  0.90095693939E+03 0.  0.
        -24    2    4    4    0    0 -0.41678716778E+03  0.48398183255E+02  0.80977120528E+03  0.91546412625E+03  0.79317300695E+02 0.  0.
         24    2    4    4    0    0  0.42730810721E+03  0.35048430298E+03  0.11220787819E+04  0.12531727054E+04  0.77133466409E+02 0.  0.
         11    1    3    3    0    0  0.24724320891E+02 -0.35405305229E+02  0.30540326759E+02  0.52891769117E+02  0.00000000000E+00 0.  1.
        -11    1    3    3    0    0 -0.35245260328E+02 -0.36347718100E+03  0.19742464367E+03  0.41513176151E+03  0.00000000000E+00 0. -1.
          2    1    6    6  502    0  0.21287827973E+03  0.21203262573E+03  0.66313002291E+03  0.72802226864E+03  0.00000000000E+00 0. -1.
          3    1    5    5  503    0  0.27615545720E+01  0.25342834350E+01  0.24438387476E+01  0.44744970675E+01  0.00000000000E+00 0. -1.
         -4    1    5    5    0  503 -0.41954872235E+03  0.45863899820E+02  0.80732736653E+03  0.91098962919E+03  0.00000000000E+00 0.  1.
         -1    1    6    6    0  502  0.21442982748E+03  0.13845167725E+03  0.45894875904E+03  0.52515043680E+03  0.00000000000E+00 0.  1.
<mgrwt>
<rscale>  0 0.15123416E+04</rscale>
<asrwt>0</asrwt>
<pdfrwt beam="1">  1        2 0.36895962E+00 0.15123416E+04</pdfrwt>
<pdfrwt beam="2">  1       -2 0.36680417E-01 0.15123416E+04</pdfrwt>
<totfact> 0.26981040E+01</totfact>
</mgrwt>
</event>
<event>
12    1  0.2083715E-007  0.9872698E+03  0.7818608E-02  0.9322618E-01
         -2   -1    0    0    0  501 -0.00000000000E+00  0.00000000000E+00  0.15383852826E+04  0.15383852826E+04  0.00000000000E+00 0.  1.
          2   -1    0    0  501    0  0.00000000000E+00 -0.00000000000E+00 -0.15839686951E+03  0.15839686951E+03  0.00000000000E+00 0. -1.
         23    2    1    2    0    0 -0.16786214927E+02 -0.17201439707E+02  0.13679747341E+03  0.16516174383E+03  0.89371059941E+02 0.  0.
        254    2    1    2    0    0  0.16786214927E+02  0.17201439707E+02  0.12431909397E+04  0.15316204083E+04  0.89429284689E+03 0.  0.
        -24    2    4    4    0    0  0.36217949131E+03  0.26946675985E+03  0.66719839040E+03  0.80967641412E+03  0.81460940533E+02 0.  0.
         24    2    4    4    0    0 -0.34539327638E+03 -0.25226532014E+03  0.57599254927E+03  0.72194399415E+03  0.80631301373E+02 0.  0.
         11    1    3    3    0    0  0.32530173830E+02 -0.24251980230E+02  0.79348093596E+02  0.89120652555E+02  0.00000000000E+00 0. -1.
        -11    1    3    3    0    0 -0.49316388758E+02  0.70505405230E+01  0.57449379816E+02  0.76041091279E+02  0.00000000000E+00 0.  1.
          4    1    6    6  502    0 -0.35082781017E+02 -0.48756103075E+02  0.49611392948E+02  0.77905387626E+02  0.00000000000E+00 0. -1.
          3    1    5    5  503    0  0.38697703705E+02  0.66164251755E+02  0.11285902010E+03  0.13642719268E+03  0.00000000000E+00 0. -1.
         -4    1    5    5    0  503  0.32348178760E+03  0.20330250809E+03  0.55433937030E+03  0.67324922144E+03  0.00000000000E+00 0.  1.
         -3    1    6    6    0  502 -0.31031049537E+03 -0.20350921707E+03  0.52638115632E+03  0.64403860652E+03  0.00000000000E+00 0.  1.
<mgrwt>
<rscale>  0 0.98726980E+03</rscale>
<asrwt>0</asrwt>
<pdfrwt beam="1">  1        2 0.24368750E-01 0.98726980E+03</pdfrwt>
<pdfrwt beam="2">  1       -2 0.23667465E+00 0.98726980E+03</pdfrwt>
<totfact> 0.17627667E+01</totfact>
</mgrwt>
</event>
<event>
12    1  0.2083715E-007  0.3200914E+04  0.7818608E-02  0.8188576E-01
          2   -1    0    0  501    0  0.00000000000E+00  0.00000000000E+00  0.14719866528E+04  0.14719866528E+04  0.00000000000E+00 0. -1.
         -2   -1    0    0    0  501 -0.00000000000E+00 -0.00000000000E+00 -0.17401398854E+04  0.17401398854E+04  0.00000000000E+00 0.  1.
         23    2    1    2    0    0  0.68333264153E+03  0.11420343854E+04  0.50800435080E+03  0.14274489450E+04  0.91411343807E+02 0.  0.
        254    2    1    2    0    0 -0.68333264153E+03 -0.11420343854E+04 -0.77615758346E+03  0.17846775932E+04  0.90081489825E+03 0.  0.
        -24    2    4    4    0    0 -0.31314710457E+03  0.56167603239E+02 -0.28716250072E+03  0.43628964268E+03  0.81672772336E+02 0.  0.
         24    2    4    4    0    0 -0.37018553696E+03 -0.11982019886E+04 -0.48899508275E+03  0.13483879505E+04  0.79426297998E+02 0.  0.
         13    1    3    3    0    0  0.35854885864E+03  0.68703397270E+03  0.29648750714E+03  0.82974562703E+03  0.00000000000E+00 0.  1.
        -13    1    3    3    0    0  0.32478378289E+03  0.45500041270E+03  0.21151684366E+03  0.59770331799E+03  0.00000000000E+00 0. -1.
          4    1    6    6  502    0 -0.86867154935E+02 -0.39917921506E+03 -0.17305649173E+03  0.44366484836E+03  0.00000000000E+00 0. -1.
          3    1    5    5  503    0 -0.14144855944E+03  0.37471447499E+02 -0.80678248907E+02  0.16709513515E+03  0.00000000000E+00 0. -1.
         -4    1    5    5    0  503 -0.17169854513E+03  0.18696155741E+02 -0.20648425181E+03  0.26919450753E+03  0.00000000000E+00 0.  1.
         -3    1    6    6    0  502 -0.28331838202E+03 -0.79902277357E+03 -0.31593859102E+03  0.90472310216E+03  0.00000000000E+00 0.  1.
<mgrwt>
<rscale>  0 0.32009140E+04</rscale>
<asrwt>0</asrwt>
<pdfrwt beam="1">  1        2 0.22645948E+00 0.32009140E+04</pdfrwt>
<pdfrwt beam="2">  1       -2 0.26771383E+00 0.32009140E+04</pdfrwt>
<totfact> 0.55484880E-01</totfact>
</mgrwt>
</event>
<event>
12    1  0.2083715E-007  0.1581346E+04  0.7818608E-02  0.8832091E-01
         -1   -1    0    0    0  501 -0.00000000000E+00  0.00000000000E+00  0.74060167518E+03  0.74060167518E+03  0.00000000000E+00 0.  1.
          1   -1    0    0  501    0  0.00000000000E+00 -0.00000000000E+00 -0.84412956141E+03  0.84412956141E+03  0.00000000000E+00 0. -1.
         23    2    1    2    0    0  0.15999490942E+03 -0.49753385565E+03  0.50011484803E+02  0.53310848337E+03  0.92548354204E+02 0.  0.
        254    2    1    2    0    0 -0.15999490942E+03  0.49753385565E+03 -0.15353937103E+03  0.10516227532E+04  0.89955420519E+03 0.  0.
        -24    2    4    4    0    0  0.94529630892E+02  0.28303745560E+03 -0.48415284394E+03  0.57570826556E+03  0.89386678782E+02 0.  0.
         24    2    4    4    0    0 -0.25452454031E+03  0.21449640006E+03  0.33061347291E+03  0.47591448767E+03  0.79986772945E+02 0.  0.
         13    1    3    3    0    0  0.10652780133E+03 -0.18349918851E+03  0.22490713393E+02  0.21336812515E+03  0.00000000000E+00 0. -1.
        -13    1    3    3    0    0  0.53467108084E+02 -0.31403466715E+03  0.27520771410E+02  0.31974035822E+03  0.00000000000E+00 0.  1.
          2    1    6    6  502    0 -0.29592662131E+02  0.62519958197E+02  0.87204537334E+02  0.11130634374E+03  0.00000000000E+00 0. -1.
          1    1    5    5  503    0  0.81784178635E+01  0.25219913065E+01  0.10670142369E+01  0.86247016343E+01  0.00000000000E+00 0. -1.
         -2    1    5    5    0  503  0.86351213029E+02  0.28051546429E+03 -0.48521985818E+03  0.56708356392E+03  0.00000000000E+00 0.  1.
         -1    1    6    6    0  502 -0.22493187818E+03  0.15197644186E+03  0.24340893558E+03  0.36460814393E+03  0.00000000000E+00 0.  1.
<mgrwt>
<rscale>  0 0.15813460E+04</rscale>
<asrwt>0</asrwt>
<pdfrwt beam="1">  1        1 0.12986609E+00 0.15813460E+04</pdfrwt>
<pdfrwt beam="2">  1       -1 0.11393872E+00 0.15813460E+04</pdfrwt>
<totfact> 0.13667513E+01</totfact>
</mgrwt>
</event>
<event>
12    1  0.2083715E-007  0.1280867E+04  0.7818608E-02  0.9044877E-01
          2   -1    0    0  501    0  0.00000000000E+00  0.00000000000E+00  0.19537777753E+04  0.19537777753E+04  0.00000000000E+00 0. -1.
         -2   -1    0    0    0  501 -0.00000000000E+00 -0.00000000000E+00 -0.20992916349E+03  0.20992916349E+03  0.00000000000E+00 0.  1.
         23    2    1    2    0    0 -0.60976874562E+02 -0.29616523985E+03  0.60225344391E+03  0.67901782489E+03  0.83210379710E+02 0.  0.
        254    2    1    2    0    0  0.60976874562E+02  0.29616523985E+03  0.11415951679E+04  0.14846891139E+04  0.89979453713E+03 0.  0.
        -24    2    4    4    0    0  0.24554886822E+03 -0.24754021817E+03  0.32441528960E+03  0.48280014077E+03  0.79248277676E+02 0.  0.
         24    2    4    4    0    0 -0.18457199366E+03  0.54370545801E+03  0.81717987830E+03  0.10018889731E+04  0.79473989808E+02 0.  0.
         13    1    3    3    0    0 -0.41959680367E+02 -0.14868296353E+03  0.39328869452E+03  0.42254376774E+03  0.00000000000E+00 0. -1.
        -13    1    3    3    0    0 -0.19017194195E+02 -0.14748227631E+03  0.20896474940E+03  0.25647405715E+03  0.00000000000E+00 0.  1.
          2    1    6    6  502    0 -0.15851325438E+03  0.52052426328E+03  0.77849068720E+03  0.94979982655E+03  0.00000000000E+00 0. -1.
          3    1    5    5  503    0  0.16049951065E+03 -0.20917062434E+03  0.25170787861E+03  0.36451241290E+03  0.00000000000E+00 0. -1.
         -2    1    5    5    0  503  0.85049357565E+02 -0.38369593832E+02  0.72707410986E+02  0.11828772787E+03  0.00000000000E+00 0.  1.
         -1    1    6    6    0  502 -0.26058739278E+02  0.23181194738E+02  0.38689191109E+02  0.52089146575E+02  0.00000000000E+00 0.  1.
<mgrwt>
<rscale>  0 0.12808668E+04</rscale>
<asrwt>0</asrwt>
<pdfrwt beam="1">  1        2 0.30058118E+00 0.12808668E+04</pdfrwt>
<pdfrwt beam="2">  1       -2 0.32296796E-01 0.12808668E+04</pdfrwt>
<totfact> 0.62151797E+01</totfact>
</mgrwt>
</event>
<event>
12    1  0.2083715E-007  0.1767325E+04  0.7818608E-02  0.8723871E-01
          1   -1    0    0  501    0  0.00000000000E+00  0.00000000000E+00  0.39819974307E+04  0.39819974307E+04  0.00000000000E+00 0. -1.
         -1   -1    0    0    0  501 -0.00000000000E+00 -0.00000000000E+00 -0.19609743567E+03  0.19609743567E+03  0.00000000000E+00 0.  1.
         23    2    1    2    0    0  0.13827228469E+03  0.54077142478E+03  0.21907997489E+04  0.22625700756E+04  0.89815636490E+02 0.  0.
        254    2    1    2    0    0 -0.13827228469E+03 -0.54077142478E+03  0.15951002461E+04  0.19155247908E+04  0.90185224419E+03 0.  0.
        -24    2    4    4    0    0  0.26592597789E+02 -0.73858576572E+03  0.13894061444E+04  0.15757952636E+04  0.80406337848E+02 0.  0.
         24    2    4    4    0    0 -0.16486488248E+03  0.19781434094E+03  0.20569410175E+03  0.33972952719E+03  0.82432670649E+02 0.  0.
         13    1    3    3    0    0  0.73938443793E+02  0.14813346081E+03  0.73161546743E+03  0.75011439651E+03  0.00000000000E+00 0.  1.
        -13    1    3    3    0    0  0.64333840902E+02  0.39263796397E+03  0.14591842815E+04  0.15124556791E+04  0.00000000000E+00 0. -1.
          2    1    6    6  502    0 -0.89250696453E+02  0.45165668471E+02  0.75293352093E+02  0.12519869526E+03  0.00000000000E+00 0. -1.
          1    1    5    5  503    0 -0.27550858170E+01 -0.18253574969E+03  0.41778529168E+03  0.45592920542E+03  0.00000000000E+00 0. -1.
         -2    1    5    5    0  503  0.29347683606E+02 -0.55605001603E+03  0.97162085269E+03  0.11198660582E+04  0.00000000000E+00 0.  1.
         -1    1    6    6    0  502 -0.75614186031E+02  0.15264867247E+03  0.13040074965E+03  0.21453083192E+03  0.00000000000E+00 0.  1.
<mgrwt>
<rscale>  0 0.17673251E+04</rscale>
<asrwt>0</asrwt>
<pdfrwt beam="1">  1        1 0.61261493E+00 0.17673251E+04</pdfrwt>
<pdfrwt beam="2">  1       -1 0.30168839E-01 0.17673251E+04</pdfrwt>
<totfact> 0.96295129E-01</totfact>
</mgrwt>
</event>
<event>
12    1  0.2083715E-007  0.2272313E+04  0.7818608E-02  0.8488918E-01
          2   -1    0    0  501    0  0.00000000000E+00  0.00000000000E+00  0.26655294688E+04  0.26655294688E+04  0.00000000000E+00 0. -1.
         -2   -1    0    0    0  501 -0.00000000000E+00 -0.00000000000E+00 -0.48427604237E+03  0.48427604237E+03  0.00000000000E+00 0.  1.
         23    2    1    2    0    0 -0.70652186966E+03  0.63514015262E+03  0.10696845557E+04  0.14329905357E+04  0.81612871054E+02 0.  0.
        254    2    1    2    0    0  0.70652186966E+03 -0.63514015262E+03  0.11115688707E+04  0.17168149755E+04  0.89960665854E+03 0.  0.
        -24    2    4    4    0    0 -0.15801384220E+03 -0.35311332608E+03  0.30748854648E+03  0.50018745152E+03  0.77336182106E+02 0.  0.
         24    2    4    4    0    0  0.86453571185E+03 -0.28202682654E+03  0.80408032420E+03  0.12166275240E+04  0.81708239509E+02 0.  0.
         13    1    3    3    0    0 -0.53558510951E+03  0.46908040784E+03  0.85098697798E+03  0.11095344408E+04  0.00000000000E+00 0. -1.
        -13    1    3    3    0    0 -0.17093676014E+03  0.16605974478E+03  0.21869757775E+03  0.32345609489E+03  0.00000000000E+00 0.  1.
          4    1    6    6  502    0  0.85379607093E+03 -0.26749274331E+03  0.79191431973E+03  0.11948424115E+04  0.00000000000E+00 0. -1.
          1    1    5    5  503    0 -0.32528678664E+02 -0.15628857358E+03  0.14613162266E+03  0.21642246719E+03  0.00000000000E+00 0. -1.
         -2    1    5    5    0  503 -0.12548516353E+03 -0.19682475250E+03  0.16135692383E+03  0.28376498433E+03  0.00000000000E+00 0.  1.
         -3    1    6    6    0  502  0.10739640925E+02 -0.14534083235E+02  0.12166004465E+02  0.21785112516E+02  0.00000000000E+00 0.  1.
<mgrwt>
<rscale>  0 0.22723134E+04</rscale>
<asrwt>0</asrwt>
<pdfrwt beam="1">  1        2 0.41008145E+00 0.22723134E+04</pdfrwt>
<pdfrwt beam="2">  1       -2 0.74504008E-01 0.22723134E+04</pdfrwt>
<totfact> 0.40999644E+00</totfact>
</mgrwt>
</event>
<event>
12    1  0.2425981E-007  0.3010372E+04  0.7818608E-02  0.8240775E-01
          2   -1    0    0  501    0  0.00000000000E+00  0.00000000000E+00  0.16417628972E+04  0.16417628972E+04  0.00000000000E+00 0. -1.
         -2   -1    0    0    0  501 -0.00000000000E+00 -0.00000000000E+00 -0.13799707138E+04  0.13799707138E+04  0.00000000000E+00 0.  1.
         23    2    1    2    0    0 -0.13012910403E+04  0.40789735441E+03 -0.94076760104E+01  0.13666367593E+04  0.88706844466E+02 0.  0.
        254    2    1    2    0    0  0.13012910403E+04 -0.40789735441E+03  0.27119985936E+03  0.16550968516E+04  0.89780710691E+03 0.  0.
        -24    2    4    4    0    0  0.68299429725E+03 -0.36903458641E+03  0.56588552306E+03  0.96437889002E+03  0.84454024583E+02 0.  0.
         24    2    4    4    0    0  0.61829674308E+03 -0.38862767995E+02 -0.29468566370E+03  0.69071796162E+03  0.80314910654E+02 0.  0.
         11    1    3    3    0    0 -0.56828779697E+03  0.20851772639E+03 -0.37362641021E+02  0.60648712216E+03  0.00000000000E+00 0. -1.
        -11    1    3    3    0    0 -0.73300324335E+03  0.19937962802E+03  0.27954965011E+02  0.76014963718E+03  0.00000000000E+00 0.  1.
          4    1    6    6  502    0  0.44296118637E+03 -0.53681885356E+02 -0.23886465227E+03  0.50611528286E+03  0.00000000000E+00 0. -1.
          1    1    5    5  503    0  0.53764282711E+03 -0.25860073636E+03  0.40527844689E+03  0.72123835859E+03  0.00000000000E+00 0. -1.
         -2    1    5    5    0  503  0.14535147014E+03 -0.11043385005E+03  0.16060707617E+03  0.24314053143E+03  0.00000000000E+00 0.  1.
         -3    1    6    6    0  502  0.17533555671E+03  0.14819117360E+02 -0.55821011432E+02  0.18460267876E+03  0.00000000000E+00 0.  1.
<mgrwt>
<rscale>  0 0.30103719E+04</rscale>
<asrwt>0</asrwt>
<pdfrwt beam="1">  1        2 0.25257891E+00 0.30103719E+04</pdfrwt>
<pdfrwt beam="2">  1       -2 0.21230319E+00 0.30103719E+04</pdfrwt>
<totfact> 0.10004010E+00</totfact>
</mgrwt>
</event>
<event>
12    1  0.2083715E-007  0.1532577E+04  0.7818608E-02  0.8863074E-01
         -2   -1    0    0    0  501 -0.00000000000E+00  0.00000000000E+00  0.30264266963E+04  0.30264266963E+04  0.00000000000E+00 0.  1.
          2   -1    0    0  501    0  0.00000000000E+00 -0.00000000000E+00 -0.19402357134E+03  0.19402357134E+03  0.00000000000E+00 0. -1.
         23    2    1    2    0    0 -0.16705254743E+03  0.16212329827E+03  0.13339322669E+02  0.25000216964E+03  0.90181094734E+02 0.  0.
        254    2    1    2    0    0  0.16705254743E+03 -0.16212329827E+03  0.28190638023E+04  0.29704480980E+04  0.90678038360E+03 0.  0.
        -24    2    4    4    0    0 -0.25659663120E+03 -0.23665238814E+02  0.21232866850E+04  0.21403168900E+04  0.78791931381E+02 0.  0.
         24    2    4    4    0    0  0.42364917863E+03 -0.13845805946E+03  0.69577711730E+03  0.83013120797E+03  0.79766939854E+02 0.  0.
         11    1    3    3    0    0 -0.16660175388E+03  0.13150482396E+03  0.31234284743E+02  0.21453494742E+03  0.00000000000E+00 0. -1.
        -11    1    3    3    0    0 -0.45079355108E+00  0.30618474316E+02 -0.17894962074E+02  0.35467222218E+02  0.00000000000E+00 0.  1.
          2    1    6    6  502    0  0.29839861831E+03 -0.93900090626E+02  0.55076181660E+03  0.63340156382E+03  0.00000000000E+00 0. -1.
          3    1    5    5  503    0 -0.22671457438E+03 -0.58941095433E+01  0.19765058501E+04  0.19894747081E+04  0.00000000000E+00 0. -1.
         -4    1    5    5    0  503 -0.29882056814E+02 -0.17771129271E+02  0.14678083493E+03  0.15084218196E+03  0.00000000000E+00 0.  1.
         -1    1    6    6    0  502  0.12525056032E+03 -0.44557968832E+02  0.14501530071E+03  0.19672964415E+03  0.00000000000E+00 0.  1.
<mgrwt>
<rscale>  0 0.15325771E+04</rscale>
<asrwt>0</asrwt>
<pdfrwt beam="1">  1        2 0.29849782E-01 0.15325771E+04</pdfrwt>
<pdfrwt beam="2">  1       -2 0.46560407E+00 0.15325771E+04</pdfrwt>
<totfact> 0.47613178E-01</totfact>
</mgrwt>
</event>
<event>
12    1  0.2083715E-007  0.2110522E+04  0.7818608E-02  0.8556623E-01
          2   -1    0    0  501    0  0.00000000000E+00  0.00000000000E+00  0.10555748242E+04  0.10555748242E+04  0.00000000000E+00 0.  1.
         -2   -1    0    0    0  501 -0.00000000000E+00 -0.00000000000E+00 -0.10549470329E+04  0.10549470329E+04  0.00000000000E+00 0. -1.
         23    2    1    2    0    0  0.53547639953E+03 -0.65482139789E+03 -0.15824172126E+03  0.86566511320E+03  0.93859513524E+02 0.  0.
        254    2    1    2    0    0 -0.53547639953E+03  0.65482139789E+03  0.15886951262E+03  0.12448567439E+04  0.89939021184E+03 0.  0.
        -24    2    4    4    0    0 -0.27095852866E+03  0.83860464152E+03  0.20918493439E+03  0.90930712800E+03  0.80030289458E+02 0.  0.
         24    2    4    4    0    0 -0.26451787087E+03 -0.18378324363E+03 -0.50315421774E+02  0.33554961588E+03  0.79472752553E+02 0.  0.
         11    1    3    3    0    0  0.23182800237E+03 -0.22930531820E+03 -0.30250780983E+02  0.32747558900E+03  0.00000000000E+00 0.  1.
        -11    1    3    3    0    0  0.30364839716E+03 -0.42551607968E+03 -0.12799094028E+03  0.53818952420E+03  0.00000000000E+00 0. -1.
          2    1    6    6  502    0 -0.26707201443E+03 -0.17076011706E+03 -0.41699731685E+02  0.31972698681E+03  0.00000000000E+00 0. -1.
          1    1    5    5  503    0 -0.25397472935E+03  0.79444845569E+03  0.21583725143E+03  0.86153190945E+03  0.00000000000E+00 0. -1.
         -2    1    5    5    0  503 -0.16983799313E+02  0.44156185829E+02 -0.66523170334E+01  0.47775218555E+02  0.00000000000E+00 0.  1.
         -1    1    6    6    0  502  0.25541435611E+01 -0.13023126567E+02 -0.86156900892E+01  0.15822629068E+02  0.00000000000E+00 0.  1.
<mgrwt>
<rscale>  0 0.21105218E+04</rscale>
<asrwt>0</asrwt>
<pdfrwt beam="1">  1        2 0.16239613E+00 0.21105218E+04</pdfrwt>
<pdfrwt beam="2">  1       -2 0.16229954E+00 0.21105218E+04</pdfrwt>
<totfact> 0.51790290E+00</totfact>
</mgrwt>
</event>
<event>
12    1  0.2083715E-007  0.1172722E+04  0.7818608E-02  0.9137074E-01
         -2   -1    0    0    0  501 -0.00000000000E+00  0.00000000000E+00  0.18682414837E+03  0.18682414837E+03  0.00000000000E+00 0.  1.
          2   -1    0    0  501    0  0.00000000000E+00 -0.00000000000E+00 -0.18403359915E+04  0.18403359915E+04  0.00000000000E+00 0. -1.
         23    2    1    2    0    0  0.93434131879E+02 -0.15859647795E+03 -0.56946565391E+03  0.60551038601E+03  0.92026717672E+02 0.  0.
        254    2    1    2    0    0 -0.93434131879E+02  0.15859647795E+03 -0.10840461892E+04  0.14216497538E+04  0.90113767119E+03 0.  0.
        -24    2    4    4    0    0 -0.39708008029E+02 -0.34535728983E+03 -0.22569580703E+03  0.42170193645E+03  0.77753085785E+02 0.  0.
         24    2    4    4    0    0 -0.53726123850E+02  0.50395376779E+03 -0.85835038217E+03  0.99994781739E+03  0.79210873487E+02 0.  0.
         13    1    3    3    0    0 -0.13032639433E+00 -0.51143828580E+01 -0.13805133152E+03  0.13814609670E+03  0.00000000000E+00 0. -1.
        -13    1    3    3    0    0  0.93564458273E+02 -0.15348209510E+03 -0.43141432238E+03  0.46736428931E+03  0.00000000000E+00 0.  1.
          4    1    6    6  502    0 -0.66642580535E+02  0.39775701816E+03 -0.71747598019E+03  0.82305750782E+03  0.00000000000E+00 0. -1.
          1    1    5    5  503    0  0.19022271053E+02 -0.15256615867E+03 -0.11288522145E+03  0.19073896506E+03  0.00000000000E+00 0. -1.
         -2    1    5    5    0  503 -0.58730279082E+02 -0.19279113116E+03 -0.11281058558E+03  0.23096297139E+03  0.00000000000E+00 0.  1.
         -3    1    6    6    0  502  0.12916456686E+02  0.10619674963E+03 -0.14087440198E+03  0.17689030956E+03  0.00000000000E+00 0.  1.
<mgrwt>
<rscale>  0 0.11727220E+04</rscale>
<asrwt>0</asrwt>
<pdfrwt beam="1">  1        2 0.28312861E+00 0.11727220E+04</pdfrwt>
<pdfrwt beam="2">  1       -2 0.28742177E-01 0.11727220E+04</pdfrwt>
<totfact> 0.90009356E+01</totfact>
</mgrwt>
</event>
<event>
12    1  0.2083715E-007  0.1099258E+04  0.7818608E-02  0.9205915E-01
          2   -1    0    0  501    0  0.00000000000E+00  0.00000000000E+00  0.98460847717E+03  0.98460847717E+03  0.00000000000E+00 0. -1.
         -2   -1    0    0    0  501 -0.00000000000E+00 -0.00000000000E+00 -0.30681443987E+03  0.30681443987E+03  0.00000000000E+00 0.  1.
         23    2    1    2    0    0 -0.74990176049E+01 -0.13038974981E+02 -0.72323109974E+02  0.11967561408E+03  0.94156095048E+02 0.  0.
        254    2    1    2    0    0  0.74990176049E+01  0.13038974981E+02  0.75011714727E+03  0.11717473030E+04  0.90004986376E+03 0.  0.
        -24    2    4    4    0    0 -0.19990331716E+03  0.16026959434E+02  0.88572120548E+03  0.91146723003E+03  0.77796259152E+02 0.  0.
         24    2    4    4    0    0  0.20740233476E+03 -0.29879844530E+01 -0.13560405821E+03  0.26028007294E+03  0.79577630342E+02 0.  0.
         11    1    3    3    0    0 -0.10598554160E+02  0.75963248327E+01  0.20631970078E+02  0.24407205710E+02  0.00000000000E+00 0. -1.
        -11    1    3    3    0    0  0.30995365555E+01 -0.20635299814E+02 -0.92955080052E+02  0.95268408367E+02  0.00000000000E+00 0.  1.
          4    1    6    6  502    0  0.76015962005E+02 -0.45490905472E+01 -0.70841209853E+01  0.76480752314E+02  0.00000000000E+00 0. -1.
          3    1    5    5  503    0 -0.12963400769E+03  0.41180843320E+02  0.47821233030E+03  0.49717991780E+03  0.00000000000E+00 0. -1.
         -4    1    5    5    0  503 -0.70269309465E+02 -0.25153883885E+02  0.40750887517E+03  0.41428731223E+03  0.00000000000E+00 0.  1.
         -3    1    6    6    0  502  0.13138637276E+03  0.15611060942E+01 -0.12851993722E+03  0.18379932063E+03  0.00000000000E+00 0.  1.
<mgrwt>
<rscale>  0 0.10992581E+04</rscale>
<asrwt>0</asrwt>
<pdfrwt beam="1">  1        2 0.15147823E+00 0.10992581E+04</pdfrwt>
<pdfrwt beam="2">  1       -2 0.47202222E-01 0.10992581E+04</pdfrwt>
<totfact> 0.10881910E+02</totfact>
</mgrwt>
</event>
<event>
12    1  0.2083715E-007  0.1573064E+04  0.7818608E-02  0.8837269E-01
         -2   -1    0    0    0  501 -0.00000000000E+00  0.00000000000E+00  0.17141535160E+04  0.17141535160E+04  0.00000000000E+00 0. -1.
          2   -1    0    0  501    0  0.00000000000E+00 -0.00000000000E+00 -0.36089669261E+03  0.36089669261E+03  0.00000000000E+00 0.  1.
         23    2    1    2    0    0 -0.19314657963E+03 -0.38492222859E+03  0.85251701101E+03  0.95948872306E+03  0.91447429368E+02 0.  0.
        254    2    1    2    0    0  0.19314657963E+03  0.38492222859E+03  0.50073981235E+03  0.11155614855E+04  0.89903634242E+03 0.  0.
        -24    2    4    4    0    0 -0.30142553525E+03  0.59755342429E+02  0.39923264866E+03  0.50975598269E+03  0.77694271851E+02 0.  0.
         24    2    4    4    0    0  0.49457211488E+03  0.32516688616E+03  0.10150716369E+03  0.60580550282E+03  0.79759151788E+02 0.  0.
         13    1    3    3    0    0 -0.14412861012E+03 -0.31899478821E+03  0.75342253955E+03  0.83076847212E+03  0.00000000000E+00 0. -1.
        -13    1    3    3    0    0 -0.49017969506E+02 -0.65927440385E+02  0.99094471460E+02  0.12872025095E+03  0.00000000000E+00 0.  1.
          4    1    6    6  502    0  0.11514792943E+02 -0.16948051697E+01 -0.54101219331E+01  0.12834805819E+02  0.00000000000E+00 0. -1.
          1    1    5    5  503    0 -0.12041290656E+03  0.27094119098E+01  0.20784545176E+03  0.24022144117E+03  0.00000000000E+00 0. -1.
         -2    1    5    5    0  503 -0.18101262869E+03  0.57045930520E+02  0.19138719690E+03  0.26953454152E+03  0.00000000000E+00 0.  1.
         -3    1    6    6    0  502  0.48305732194E+03  0.32686169133E+03  0.10691728562E+03  0.59297069700E+03  0.00000000000E+00 0.  1.
<mgrwt>
<rscale>  0 0.15730637E+04</rscale>
<asrwt>0</asrwt>
<pdfrwt beam="1">  1        2 0.55522569E-01 0.15730637E+04</pdfrwt>
<pdfrwt beam="2">  1       -2 0.26371592E+00 0.15730637E+04</pdfrwt>
<totfact> 0.45472306E+00</totfact>
</mgrwt>
</event>
<event>
12    1  0.2083715E-007  0.2204057E+04  0.7818608E-02  0.8516742E-01
          1   -1    0    0  501    0  0.00000000000E+00  0.00000000000E+00  0.12741978325E+04  0.12741978325E+04  0.00000000000E+00 0. -1.
         -1   -1    0    0    0  501 -0.00000000000E+00 -0.00000000000E+00 -0.95312243250E+03  0.95312243250E+03  0.00000000000E+00 0.  1.
         23    2    1    2    0    0 -0.51740320168E+03  0.60433182722E+03 -0.32388674562E+03  0.86382726461E+03  0.91498025012E+02 0.  0.
        254    2    1    2    0    0  0.51740320168E+03 -0.60433182722E+03  0.64496214563E+03  0.13634930004E+04  0.90011886013E+03 0.  0.
        -24    2    4    4    0    0  0.54326276933E+03  0.40463750215E+02  0.31974048223E+03  0.63647949229E+03  0.78105163157E+02 0.  0.
         24    2    4    4    0    0 -0.25859567643E+02 -0.64479557744E+03  0.32522166341E+03  0.72701350812E+03  0.79683478316E+02 0.  0.
         11    1    3    3    0    0 -0.39120432628E+03  0.47993607054E+03 -0.28866256450E+03  0.68315849760E+03  0.00000000000E+00 0. -1.
        -11    1    3    3    0    0 -0.12619887541E+03  0.12439575668E+03 -0.35224181116E+02  0.18066876700E+03  0.00000000000E+00 0.  1.
          4    1    6    6  502    0  0.22046367066E+02 -0.14781011924E+03  0.54651521994E+02  0.15912467598E+03  0.00000000000E+00 0. -1.
          3    1    5    5  503    0  0.42410247452E+03  0.57887936708E+02  0.27069300909E+03  0.50644706266E+03  0.00000000000E+00 0. -1.
         -4    1    5    5    0  503  0.11916029480E+03 -0.17424186493E+02  0.49047473141E+02  0.13003242963E+03  0.00000000000E+00 0.  1.
         -3    1    6    6    0  502 -0.47905934709E+02 -0.49698545820E+03  0.27057014141E+03  0.56788883214E+03  0.00000000000E+00 0.  1.
<mgrwt>
<rscale>  0 0.22040567E+04</rscale>
<asrwt>0</asrwt>
<pdfrwt beam="1">  1        1 0.19603044E+00 0.22040567E+04</pdfrwt>
<pdfrwt beam="2">  1       -1 0.14663422E+00 0.22040567E+04</pdfrwt>
<totfact> 0.31906233E+00</totfact>
</mgrwt>
</event>
<event>
12    1  0.2083715E-007  0.1119334E+04  0.7818608E-02  0.9186550E-01
         -2   -1    0    0    0  501 -0.00000000000E+00  0.00000000000E+00  0.36989538178E+03  0.36989538178E+03  0.00000000000E+00 0.  1.
          2   -1    0    0  501    0  0.00000000000E+00 -0.00000000000E+00 -0.84679923865E+03  0.84679923865E+03  0.00000000000E+00 0. -1.
         23    2    1    2    0    0 -0.11574913973E+03  0.13567787690E+03 -0.11729944601E+03  0.23221234774E+03  0.91416983005E+02 0.  0.
        254    2    1    2    0    0  0.11574913973E+03 -0.13567787690E+03 -0.35960441086E+03  0.98448227268E+03  0.89893473806E+03 0.  0.
        -24    2    4    4    0    0 -0.24783894509E+03  0.13708591563E+02  0.17665189608E+03  0.31484239541E+03  0.79421491882E+02 0.  0.
         24    2    4    4    0    0  0.36358808482E+03 -0.14938646847E+03 -0.53625630694E+03  0.66963987727E+03  0.79587223364E+02 0.  0.
         13    1    3    3    0    0 -0.66661339481E+02  0.12416094321E+03 -0.11473831593E+03  0.18172659449E+03  0.00000000000E+00 0. -1.
        -13    1    3    3    0    0 -0.49087800245E+02  0.11516933690E+02 -0.25611300779E+01  0.50485753256E+02  0.00000000000E+00 0.  1.
          2    1    6    6  502    0  0.29598738650E+03 -0.13486463394E+03 -0.38979645515E+03  0.50767930714E+03  0.00000000000E+00 0. -1.
          3    1    5    5  503    0 -0.24732459502E+03  0.25485615356E+02  0.17105738034E+03  0.30179396823E+03  0.00000000000E+00 0. -1.
         -4    1    5    5    0  503 -0.51435006743E+00 -0.11777023793E+02  0.55945157397E+01  0.13048427176E+02  0.00000000000E+00 0.  1.
         -3    1    6    6    0  502  0.67600698314E+02 -0.14521834529E+02 -0.14645985179E+03  0.16196057013E+03  0.00000000000E+00 0.  1.
<mgrwt>
<rscale>  0 0.11193340E+04</rscale>
<asrwt>0</asrwt>
<pdfrwt beam="1">  1        2 0.13027680E+00 0.11193340E+04</pdfrwt>
<pdfrwt beam="2">  1       -2 0.56906982E-01 0.11193340E+04</pdfrwt>
<totfact> 0.91623451E+01</totfact>
</mgrwt>
</event>
<event>
12    1  0.2083715E-007  0.1873229E+04  0.7818608E-02  0.8668298E-01
          1   -1    0    0  501    0  0.00000000000E+00  0.00000000000E+00  0.10761131238E+04  0.10761131238E+04  0.00000000000E+00 0. -1.
         -1   -1    0    0    0  501 -0.00000000000E+00 -0.00000000000E+00 -0.81519938553E+03  0.81519938553E+03  0.00000000000E+00 0.  1.
         23    2    1    2    0    0 -0.59844982352E+03  0.18569356278E+03  0.43662782837E+03  0.76899585216E+03  0.89924799717E+02 0.  0.
        254    2    1    2    0    0  0.59844982352E+03 -0.18569356278E+03 -0.17571409006E+03  0.11223166572E+04  0.91438227622E+03 0.  0.
        -24    2    4    4    0    0 -0.11760210923E+03 -0.33162601107E+03 -0.13698160944E+03  0.38614060409E+03  0.80836486108E+02 0.  0.
         24    2    4    4    0    0  0.71605193275E+03  0.14593244830E+03 -0.38732480620E+02  0.73617605312E+03  0.80176843743E+02 0.  0.
         13    1    3    3    0    0 -0.30275709279E+03  0.68598809849E+02  0.16968551643E+03  0.35378076324E+03  0.00000000000E+00 0.  1.
        -13    1    3    3    0    0 -0.29569273073E+03  0.11709475293E+03  0.26694231193E+03  0.41521508893E+03  0.00000000000E+00 0. -1.
          4    1    6    6  502    0  0.36302873049E+03  0.10010580671E+03 -0.50784077298E+02  0.37998691320E+03  0.00000000000E+00 0. -1.
          1    1    5    5  503    0 -0.30412072757E+02 -0.73927626495E+02  0.33929069810E+01  0.80010623959E+02  0.00000000000E+00 0. -1.
         -2    1    5    5    0  503 -0.87190036469E+02 -0.25769838458E+03 -0.14037451642E+03  0.30612998013E+03  0.00000000000E+00 0.  1.
         -3    1    6    6    0  502  0.35302320226E+03  0.45826641584E+02  0.12051596678E+02  0.35618913992E+03  0.00000000000E+00 0.  1.
<mgrwt>
<rscale>  0 0.18732290E+04</rscale>
<asrwt>0</asrwt>
<pdfrwt beam="1">  1        1 0.16555587E+00 0.18732290E+04</pdfrwt>
<pdfrwt beam="2">  1       -1 0.12541529E+00 0.18732290E+04</pdfrwt>
<totfact> 0.68804304E+00</totfact>
</mgrwt>
</event>
<event>
12    1  0.2083715E-007  0.2394230E+04  0.7818608E-02  0.8441667E-01
          2   -1    0    0  501    0  0.00000000000E+00  0.00000000000E+00  0.38310161299E+04  0.38310161299E+04  0.00000000000E+00 0.  1.
         -2   -1    0    0    0  501 -0.00000000000E+00 -0.00000000000E+00 -0.37407408798E+03  0.37407408798E+03  0.00000000000E+00 0. -1.
         23    2    1    2    0    0  0.58355011836E+03  0.17110601558E+03  0.29234931281E+04  0.29874881685E+04  0.92008029315E+02 0.  0.
        254    2    1    2    0    0 -0.58355011836E+03 -0.17110601558E+03  0.53344891383E+03  0.12176020494E+04  0.91004340440E+03 0.  0.
        -24    2    4    4    0    0 -0.22771144968E+01 -0.43425781920E+03  0.13635863739E+03  0.46177818777E+03  0.77848429178E+02 0.  0.
         24    2    4    4    0    0 -0.58127300386E+03  0.26315180361E+03  0.39709027644E+03  0.75582386165E+03  0.80385604652E+02 0.  0.
         13    1    3    3    0    0  0.21625948520E+03  0.11024669616E+03  0.11509148422E+04  0.11762344465E+04  0.00000000000E+00 0.  1.
        -13    1    3    3    0    0  0.36729063316E+03  0.60859319424E+02  0.17725782859E+04  0.18112537220E+04  0.00000000000E+00 0. -1.
          4    1    6    6  502    0 -0.36835516515E+03  0.15159360608E+03  0.20416522673E+03  0.44760427713E+03  0.00000000000E+00 0. -1.
          3    1    5    5  503    0  0.10065551731E+02 -0.25430155588E+03  0.11781711162E+03  0.28044869128E+03  0.00000000000E+00 0. -1.
         -4    1    5    5    0  503 -0.12342666227E+02 -0.17995626332E+03  0.18541525771E+02  0.18132949649E+03  0.00000000000E+00 0.  1.
         -3    1    6    6    0  502 -0.21291783871E+03  0.11155819754E+03  0.19292504971E+03  0.30821958453E+03  0.00000000000E+00 0.  1.
<mgrwt>
<rscale>  0 0.23942296E+04</rscale>
<asrwt>0</asrwt>
<pdfrwt beam="1">  1        2 0.58938707E+00 0.23942296E+04</pdfrwt>
<pdfrwt beam="2">  1       -2 0.57549862E-01 0.23942296E+04</pdfrwt>
<totfact> 0.11873915E+00</totfact>
</mgrwt>
</event>
<event>
12    1  0.2083715E-007  0.2972972E+04  0.7818608E-02  0.8251491E-01
          2   -1    0    0  501    0  0.00000000000E+00  0.00000000000E+00  0.10604947729E+04  0.10604947729E+04  0.00000000000E+00 0. -1.
         -2   -1    0    0    0  501 -0.00000000000E+00 -0.00000000000E+00 -0.20835947013E+04  0.20835947013E+04  0.00000000000E+00 0.  1.
         23    2    1    2    0    0  0.54785740040E+03 -0.12018138006E+04 -0.74097068735E+03  0.15168598016E+04  0.85568427242E+02 0.  0.
        254    2    1    2    0    0 -0.54785740040E+03  0.12018138006E+04 -0.28212924099E+03  0.16272296726E+04  0.90762071173E+03 0.  0.
        -24    2    4    4    0    0 -0.21925536685E+03 -0.37736759834E+02 -0.24598233931E+03  0.34186070772E+03  0.82851996330E+02 0.  0.
         24    2    4    4    0    0 -0.32860203354E+03  0.12395505604E+04 -0.36146901686E+02  0.12853689649E+04  0.80011806199E+02 0.  0.
         13    1    3    3    0    0  0.20839409405E+03 -0.39432472672E+03 -0.21481527644E+03  0.49504110085E+03  0.00000000000E+00 0. -1.
        -13    1    3    3    0    0  0.33946330635E+03 -0.80748907385E+03 -0.52615541091E+03  0.10218187007E+04  0.00000000000E+00 0.  1.
          2    1    6    6  502    0 -0.12094308477E+03  0.60669019463E+03 -0.68371106217E+01  0.61866547349E+03  0.00000000000E+00 0. -1.
          1    1    5    5  503    0 -0.59928318586E+02  0.17242204011E+02 -0.33956830482E+02  0.71005375177E+02  0.00000000000E+00 0. -1.
         -2    1    5    5    0  503 -0.15932704827E+03 -0.54978963845E+02 -0.21202550882E+03  0.27085533254E+03  0.00000000000E+00 0.  1.
         -1    1    6    6    0  502 -0.20765894877E+03  0.63286036578E+03 -0.29309791065E+02  0.66670349139E+03  0.00000000000E+00 0.  1.
<mgrwt>
<rscale>  0 0.29729724E+04</rscale>
<asrwt>0</asrwt>
<pdfrwt beam="1">  1        2 0.16315304E+00 0.29729724E+04</pdfrwt>
<pdfrwt beam="2">  1       -2 0.32055303E+00 0.29729724E+04</pdfrwt>
<totfact> 0.46984305E-01</totfact>
</mgrwt>
</event>
<event>
12    1  0.2083715E-007  0.2352702E+04  0.7818608E-02  0.8457427E-01
         -2   -1    0    0    0  501 -0.00000000000E+00  0.00000000000E+00  0.81629496253E+03  0.81629496253E+03  0.00000000000E+00 0.  1.
          2   -1    0    0  501    0  0.00000000000E+00 -0.00000000000E+00 -0.16952220717E+04  0.16952220717E+04  0.00000000000E+00 0. -1.
         23    2    1    2    0    0 -0.91774096658E+03  0.33137053460E+03 -0.62635234975E+03  0.11628599392E+04  0.88718989576E+02 0.  0.
        254    2    1    2    0    0  0.91774096658E+03 -0.33137053460E+03 -0.25257475945E+03  0.13486570951E+04  0.89611775907E+03 0.  0.
        -24    2    4    4    0    0  0.31917704271E+03  0.10691489541E+03 -0.45878728646E+03  0.57453831694E+03  0.79395994638E+02 0.  0.
         24    2    4    4    0    0  0.59856392388E+03 -0.43828543001E+03  0.20621252701E+03  0.77411877817E+03  0.79770842360E+02 0.  0.
         11    1    3    3    0    0 -0.19121669735E+03  0.10773870063E+03 -0.14778316532E+03  0.26459651719E+03  0.00000000000E+00 0. -1.
        -11    1    3    3    0    0 -0.72652426923E+03  0.22363183397E+03 -0.47856918443E+03  0.89826342196E+03  0.00000000000E+00 0.  1.
          4    1    6    6  502    0  0.61185252632E+02 -0.49356884036E+02 -0.26580264994E+01  0.78656228273E+02  0.00000000000E+00 0. -1.
          1    1    5    5  503    0 -0.43850554754E+01  0.11578047423E+01 -0.22522088414E+01  0.50637602638E+01  0.00000000000E+00 0. -1.
         -2    1    5    5    0  503  0.32356209818E+03  0.10575709067E+03 -0.45653507761E+03  0.56947455667E+03  0.00000000000E+00 0.  1.
         -3    1    6    6    0  502  0.53737867124E+03 -0.38892854597E+03  0.20887055351E+03  0.69546254989E+03  0.00000000000E+00 0.  1.
<mgrwt>
<rscale>  0 0.23527016E+04</rscale>
<asrwt>0</asrwt>
<pdfrwt beam="1">  1        2 0.26080339E+00 0.23527016E+04</pdfrwt>
<pdfrwt beam="2">  1       -2 0.12558384E+00 0.23527016E+04</pdfrwt>
<totfact> 0.42216859E+00</totfact>
</mgrwt>
</event>
<event>
12    1  0.2083715E-007  0.1316672E+04  0.7818608E-02  0.9016448E-01
         -2   -1    0    0    0  501 -0.00000000000E+00  0.00000000000E+00  0.13352250881E+03  0.13352250881E+03  0.00000000000E+00 0.  1.
          2   -1    0    0  501    0  0.00000000000E+00 -0.00000000000E+00 -0.32459424417E+04  0.32459424417E+04  0.00000000000E+00 0. -1.
         23    2    1    2    0    0 -0.20464656304E+03 -0.97004544474E+02 -0.14953416644E+04  0.15150858097E+04  0.90267491320E+02 0.  0.
        254    2    1    2    0    0  0.20464656304E+03  0.97004544474E+02 -0.16170782684E+04  0.18643791408E+04  0.89982073597E+03 0.  0.
        -24    2    4    4    0    0 -0.46799511586E+02  0.44544515150E+03 -0.56617183298E+03  0.72632190495E+03  0.79883589526E+02 0.  0.
         24    2    4    4    0    0  0.25144607463E+03 -0.34844060703E+03 -0.10509064354E+04  0.11380572358E+04  0.78319543118E+02 0.  0.
         11    1    3    3    0    0 -0.12627668510E+01 -0.26595275106E+02 -0.11333787428E+03  0.11642326651E+03  0.00000000000E+00 0.  1.
        -11    1    3    3    0    0 -0.20338379619E+03 -0.70409269369E+02 -0.13820037902E+04  0.13986625432E+04  0.00000000000E+00 0. -1.
          4    1    6    6  502    0 -0.37174923065E+01 -0.15449196399E+02 -0.24201542683E+02  0.28951892627E+02  0.00000000000E+00 0. -1.
          3    1    5    5  503    0 -0.29863120108E+01  0.14300863826E+03 -0.12695997248E+03  0.19125695618E+03  0.00000000000E+00 0. -1.
         -4    1    5    5    0  503 -0.43813199575E+02  0.30243651324E+03 -0.43921186050E+03  0.53506494877E+03  0.00000000000E+00 0.  1.
         -3    1    6    6    0  502  0.25516356693E+03 -0.33299141063E+03 -0.10267048928E+04  0.11091053432E+04  0.00000000000E+00 0.  1.
<mgrwt>
<rscale>  0 0.13166721E+04</rscale>
<asrwt>0</asrwt>
<pdfrwt beam="1">  1        2 0.49937578E+00 0.13166721E+04</pdfrwt>
<pdfrwt beam="2">  1       -2 0.20541924E-01 0.13166721E+04</pdfrwt>
<totfact> 0.24521544E+01</totfact>
</mgrwt>
</event>
<event>
12    1  0.2083715E-007  0.1492344E+04  0.7818608E-02  0.8889560E-01
         -2   -1    0    0    0  501 -0.00000000000E+00  0.00000000000E+00  0.61315869920E+03  0.61315869920E+03  0.00000000000E+00 0. -1.
          2   -1    0    0  501    0  0.00000000000E+00 -0.00000000000E+00 -0.90804049910E+03  0.90804049910E+03  0.00000000000E+00 0.  1.
         23    2    1    2    0    0 -0.27537159138E+03 -0.10311845676E+03  0.27760542627E+03  0.41406685314E+03  0.89014924069E+02 0.  0.
        254    2    1    2    0    0  0.27537159138E+03  0.10311845676E+03 -0.57248722617E+03  0.11071323452E+04  0.90085374846E+03 0.  0.
        -24    2    4    4    0    0  0.53551510365E+03  0.10190999213E+03 -0.62259397940E+03  0.83115297525E+03  0.77652638957E+02 0.  0.
         24    2    4    4    0    0 -0.26014351227E+03  0.12084646387E+01  0.50106753234E+02  0.27597936992E+03  0.77316353615E+02 0.  0.
         11    1    3    3    0    0 -0.15591671926E+02 -0.31633004327E+02  0.16739981232E+02  0.39038111735E+02  0.00000000000E+00 0.  1.
        -11    1    3    3    0    0 -0.25977991946E+03 -0.71485452437E+02  0.26086544504E+03  0.37502874140E+03  0.00000000000E+00 0. -1.
          2    1    6    6  502    0 -0.69030547520E+02  0.80352937519E+01 -0.19970476094E+02  0.72309075171E+02  0.00000000000E+00 0. -1.
          1    1    5    5  503    0  0.10941813320E+03 -0.87628257064E+01 -0.10884675894E+03  0.15458567825E+03  0.00000000000E+00 0. -1.
         -2    1    5    5    0  503  0.42609697046E+03  0.11067281783E+03 -0.51374722046E+03  0.67656729700E+03  0.00000000000E+00 0.  1.
         -1    1    6    6    0  502 -0.19111296475E+03 -0.68268291133E+01  0.70077229327E+02  0.20367029475E+03  0.00000000000E+00 0.  1.
<mgrwt>
<rscale>  0 0.14923444E+04</rscale>
<asrwt>0</asrwt>
<pdfrwt beam="1">  1        2 0.13969854E+00 0.14923444E+04</pdfrwt>
<pdfrwt beam="2">  1       -2 0.94332108E-01 0.14923444E+04</pdfrwt>
<totfact> 0.26530913E+01</totfact>
</mgrwt>
</event>
<event>
12    1  0.2083715E-007  0.1167195E+04  0.7818608E-02  0.9142065E-01
         -2   -1    0    0    0  501 -0.00000000000E+00  0.00000000000E+00  0.33499499833E+03  0.33499499833E+03  0.00000000000E+00 0.  1.
          2   -1    0    0  501    0  0.00000000000E+00 -0.00000000000E+00 -0.10166899116E+04  0.10166899116E+04  0.00000000000E+00 0. -1.
         23    2    1    2    0    0  0.12428405352E+03 -0.10124793947E+03 -0.30749972905E+03  0.35886845082E+03  0.92373212666E+02 0.  0.
        254    2    1    2    0    0 -0.12428405352E+03  0.10124793947E+03 -0.37419518418E+03  0.99281645909E+03  0.90551908559E+03 0.  0.
        -24    2    4    4    0    0  0.12340606929E+02 -0.57745389528E+02 -0.63852385008E+03  0.64617338587E+03  0.79627362651E+02 0.  0.
         24    2    4    4    0    0 -0.13662466045E+03  0.15899332900E+03  0.26432866590E+03  0.34664307322E+03  0.79665551426E+02 0.  0.
         11    1    3    3    0    0  0.25041495443E+02 -0.29834018651E+01 -0.50340843919E+01  0.25716126970E+02  0.00000000000E+00 0.  1.
        -11    1    3    3    0    0  0.99242558076E+02 -0.98264537609E+02 -0.30246564466E+03  0.33315232385E+03  0.00000000000E+00 0. -1.
          2    1    6    6  502    0 -0.14267796615E+03  0.16162842078E+03  0.26270368649E+03  0.33984404559E+03  0.00000000000E+00 0. -1.
          3    1    5    5  503    0  0.42878561736E+02 -0.44651690840E+02 -0.32092818028E+03  0.32684436885E+03  0.00000000000E+00 0. -1.
         -4    1    5    5    0  503 -0.30537954807E+02 -0.13093698688E+02 -0.31759566981E+03  0.31932901702E+03  0.00000000000E+00 0.  1.
         -1    1    6    6    0  502  0.60533057072E+01 -0.26350917737E+01  0.16249794178E+01  0.67990276326E+01  0.00000000000E+00 0.  1.
<mgrwt>
<rscale>  0 0.11671950E+04</rscale>
<asrwt>0</asrwt>
<pdfrwt beam="1">  1        2 0.15641383E+00 0.11671950E+04</pdfrwt>
<pdfrwt beam="2">  1       -2 0.51537694E-01 0.11671950E+04</pdfrwt>
<totfact> 0.86412221E+01</totfact>
</mgrwt>
</event>
<event>
12    1  0.2083715E-007  0.2450781E+04  0.7818608E-02  0.8420733E-01
          2   -1    0    0  501    0  0.00000000000E+00  0.00000000000E+00  0.27004471419E+04  0.27004471419E+04  0.00000000000E+00 0. -1.
         -2   -1    0    0    0  501 -0.00000000000E+00 -0.00000000000E+00 -0.55604939858E+03  0.55604939858E+03  0.00000000000E+00 0.  1.
         23    2    1    2    0    0 -0.72857862516E+03 -0.68811466731E+03  0.13647496938E+04  0.16956808925E+04  0.91996489152E+02 0.  0.
        254    2    1    2    0    0  0.72857862516E+03  0.68811466731E+03  0.77964804954E+03  0.15608156480E+04  0.90772561796E+03 0.  0.
        -24    2    4    4    0    0  0.87720725954E+03  0.56091991414E+03  0.84227803021E+03  0.13413830311E+04  0.75844773892E+02 0.  0.
         24    2    4    4    0    0 -0.14862863438E+03  0.12719475317E+03 -0.62629980674E+02  0.21943261689E+03  0.77195742648E+02 0.  0.
         13    1    3    3    0    0 -0.31947036062E+03 -0.34326540485E+03  0.69587836159E+03  0.83912999208E+03  0.00000000000E+00 0.  1.
        -13    1    3    3    0    0 -0.40910826454E+03 -0.34484926247E+03  0.66887133216E+03  0.85655090037E+03  0.00000000000E+00 0. -1.
          4    1    6    6  502    0 -0.40201985200E+02  0.38767655625E+02  0.17085179087E+02  0.58404058773E+02  0.00000000000E+00 0. -1.
          1    1    5    5  503    0  0.22896361708E+03  0.11339456139E+03  0.18474276532E+03  0.31529756396E+03  0.00000000000E+00 0. -1.
         -2    1    5    5    0  503  0.64824364245E+03  0.44752535275E+03  0.65753526489E+03  0.10260854672E+04  0.00000000000E+00 0.  1.
         -3    1    6    6    0  502 -0.10842664918E+03  0.88427097546E+02 -0.79715159761E+02  0.16102855812E+03  0.00000000000E+00 0.  1.
<mgrwt>
<rscale>  0 0.24507811E+04</rscale>
<asrwt>0</asrwt>
<pdfrwt beam="1">  1        2 0.41545340E+00 0.24507811E+04</pdfrwt>
<pdfrwt beam="2">  1       -2 0.85546063E-01 0.24507811E+04</pdfrwt>
<totfact> 0.28218425E+00</totfact>
</mgrwt>
</event>
<event>
12    1  0.2083715E-007  0.1130887E+04  0.7818608E-02  0.9175599E-01
         -2   -1    0    0    0  501 -0.00000000000E+00  0.00000000000E+00  0.88022296531E+02  0.88022296531E+02  0.00000000000E+00 0.  1.
          2   -1    0    0  501    0  0.00000000000E+00 -0.00000000000E+00 -0.36323349757E+04  0.36323349757E+04  0.00000000000E+00 0. -1.
         23    2    1    2    0    0  0.70446435754E+02 -0.17763903232E+03 -0.60720895335E+03  0.64341911900E+03  0.93632919168E+02 0.  0.
        254    2    1    2    0    0 -0.70446435754E+02  0.17763903232E+03 -0.29371037258E+04  0.30769381532E+04  0.89691235718E+03 0.  0.
        -24    2    4    4    0    0  0.98828346780E+01 -0.19513409184E+03 -0.24205123887E+04  0.24296832336E+04  0.79406596885E+02 0.  0.
         24    2    4    4    0    0 -0.80329270432E+02  0.37277312416E+03 -0.51659133708E+03  0.64725491958E+03  0.81607154017E+02 0.  0.
         13    1    3    3    0    0  0.69377144583E+02 -0.16117114916E+03 -0.60048899991E+03  0.62560080444E+03  0.00000000000E+00 0. -1.
        -13    1    3    3    0    0  0.10692911706E+01 -0.16467883157E+02 -0.67199534428E+01  0.17818314555E+02  0.00000000000E+00 0.  1.
          2    1    6    6  502    0 -0.29062810837E+02  0.39855451621E+02 -0.39279210990E+02  0.63055217180E+02  0.00000000000E+00 0. -1.
          3    1    5    5  503    0 -0.29043438555E+02 -0.79201652661E+02 -0.12357099962E+04  0.12385861366E+04  0.00000000000E+00 0. -1.
         -4    1    5    5    0  503  0.38926273233E+02 -0.11593243918E+03 -0.11848023926E+04  0.11910970970E+04  0.00000000000E+00 0.  1.
         -1    1    6    6    0  502 -0.51266459595E+02  0.33291767254E+03 -0.47731212609E+03  0.58419970240E+03  0.00000000000E+00 0.  1.
<mgrwt>
<rscale>  0 0.11308872E+04</rscale>
<asrwt>0</asrwt>
<pdfrwt beam="1">  1        2 0.55882061E+00 0.11308872E+04</pdfrwt>
<pdfrwt beam="2">  1       -2 0.13541896E-01 0.11308872E+04</pdfrwt>
<totfact> 0.27975078E+01</totfact>
</mgrwt>
</event>
<event>
12    1  0.2083715E-007  0.1233122E+04  0.7818608E-02  0.9084349E-01
         -1   -1    0    0    0  501 -0.00000000000E+00  0.00000000000E+00  0.93172485461E+02  0.93172485461E+02  0.00000000000E+00 0.  1.
          1   -1    0    0  501    0  0.00000000000E+00 -0.00000000000E+00 -0.40800429526E+04  0.40800429526E+04  0.00000000000E+00 0. -1.
         23    2    1    2    0    0  0.23270404262E+03 -0.15076848956E+03 -0.88003108621E+03  0.92718508013E+03  0.91297049384E+02 0.  0.
        254    2    1    2    0    0 -0.23270404262E+03  0.15076848956E+03 -0.31068393809E+04  0.32460303579E+04  0.89854317470E+03 0.  0.
        -24    2    4    4    0    0 -0.78332781460E+02  0.45413750068E+03 -0.92724123555E+03  0.10385404549E+04  0.80081666832E+02 0.  0.
         24    2    4    4    0    0 -0.15437126116E+03 -0.30336901111E+03 -0.21795981453E+04  0.22074899030E+04  0.80624769875E+02 0.  0.
         13    1    3    3    0    0  0.13824811928E+03 -0.88062692965E+02 -0.36963330081E+03  0.40434682816E+03  0.00000000000E+00 0.  1.
        -13    1    3    3    0    0  0.94455923333E+02 -0.62705796599E+02 -0.51039778540E+03  0.52283825197E+03  0.00000000000E+00 0. -1.
          4    1    6    6  502    0 -0.12605802630E+03 -0.26974698777E+03 -0.20246944576E+04  0.20464705495E+04  0.00000000000E+00 0. -1.
          3    1    5    5  503    0 -0.49361668226E+02  0.41431948716E+03 -0.80390572389E+03  0.90573816560E+03  0.00000000000E+00 0. -1.
         -4    1    5    5    0  503 -0.28971113234E+02  0.39818013519E+02 -0.12333551166E+03  0.13280228928E+03  0.00000000000E+00 0.  1.
         -3    1    6    6    0  502 -0.28313234856E+02 -0.33622023337E+02 -0.15490368773E+03  0.16101935348E+03  0.00000000000E+00 0.  1.
<mgrwt>
<rscale>  0 0.12331224E+04</rscale>
<asrwt>0</asrwt>
<pdfrwt beam="1">  1        1 0.62769868E+00 0.12331224E+04</pdfrwt>
<pdfrwt beam="2">  1       -1 0.14334234E-01 0.12331224E+04</pdfrwt>
<totfact> 0.29483359E+00</totfact>
</mgrwt>
</event>
<event>
12    1  0.2083715E-007  0.2691815E+04  0.7818608E-02  0.8337666E-01
          2   -1    0    0  501    0  0.00000000000E+00  0.00000000000E+00  0.12647135543E+04  0.12647135543E+04  0.00000000000E+00 0. -1.
         -2   -1    0    0    0  501 -0.00000000000E+00 -0.00000000000E+00 -0.14323137891E+04  0.14323137891E+04  0.00000000000E+00 0.  1.
         23    2    1    2    0    0  0.10154521588E+04  0.49429475535E+03  0.31313594723E+03  0.11756002477E+04  0.92257406488E+02 0.  0.
        254    2    1    2    0    0 -0.10154521588E+04 -0.49429475535E+03 -0.48073618209E+03  0.15214270957E+04  0.89897871990E+03 0.  0.
        -24    2    4    4    0    0 -0.36723421852E+03  0.24126894781E+03 -0.54665361967E+02  0.44938611961E+03  0.76732693625E+02 0.  0.
         24    2    4    4    0    0 -0.64821794023E+03 -0.73556370316E+03 -0.42607082012E+03  0.10720409761E+04  0.80591880331E+02 0.  0.
         11    1    3    3    0    0  0.49928171535E+03  0.29259800961E+03  0.14763301000E+03  0.59723641228E+03  0.00000000000E+00 0. -1.
        -11    1    3    3    0    0  0.51617044340E+03  0.20169674574E+03  0.16550293723E+03  0.57836383541E+03  0.00000000000E+00 0.  1.
          4    1    6    6  502    0 -0.46033685099E+03 -0.55701136683E+03 -0.34279543271E+03  0.79980021746E+03  0.00000000000E+00 0. -1.
          1    1    5    5  503    0 -0.15722467720E+03  0.14444295962E+03 -0.43313146200E+02  0.21785177607E+03  0.00000000000E+00 0. -1.
         -2    1    5    5    0  503 -0.21000954133E+03  0.96825988189E+02 -0.11352215766E+02  0.23153434354E+03  0.00000000000E+00 0.  1.
         -3    1    6    6    0  502 -0.18788108924E+03 -0.17855233633E+03 -0.83275387413E+02  0.27224075861E+03  0.00000000000E+00 0.  1.
<mgrwt>
<rscale>  0 0.26918148E+04</rscale>
<asrwt>0</asrwt>
<pdfrwt beam="1">  1        2 0.19457132E+00 0.26918148E+04</pdfrwt>
<pdfrwt beam="2">  1       -2 0.22035597E+00 0.26918148E+04</pdfrwt>
<totfact> 0.14965521E+00</totfact>
</mgrwt>
</event>
<event>
12    1  0.2083715E-007  0.3341762E+04  0.7818608E-02  0.8152350E-01
          2   -1    0    0  501    0  0.00000000000E+00  0.00000000000E+00  0.19183893130E+04  0.19183893130E+04  0.00000000000E+00 0. -1.
         -2   -1    0    0    0  501 -0.00000000000E+00 -0.00000000000E+00 -0.14553057355E+04  0.14553057355E+04  0.00000000000E+00 0.  1.
         23    2    1    2    0    0 -0.31006389582E+03 -0.14352377165E+04 -0.28181901901E+03  0.14975482362E+04  0.84745725530E+02 0.  0.
        254    2    1    2    0    0  0.31006389582E+03  0.14352377165E+04  0.74490259652E+03  0.18761468122E+04  0.89944430642E+03 0.  0.
        -24    2    4    4    0    0  0.30938063772E+03  0.55377376248E+03 -0.10630053736E+03  0.64814182724E+03  0.80039146485E+02 0.  0.
         24    2    4    4    0    0  0.68325809845E+00  0.88146395400E+03  0.85120313388E+03  0.12280049850E+04  0.80438168331E+02 0.  0.
         13    1    3    3    0    0 -0.20007839220E+03 -0.95267406621E+03 -0.14628421969E+03  0.98438727764E+03  0.00000000000E+00 0.  1.
        -13    1    3    3    0    0 -0.10998550362E+03 -0.48256365028E+03 -0.13553479933E+03  0.51316095858E+03  0.00000000000E+00 0. -1.
          2    1    6    6  502    0  0.16289431324E+01  0.79467054981E+03  0.79803601474E+03  0.11262173045E+04  0.00000000000E+00 0. -1.
          1    1    5    5  503    0  0.22279741924E+03  0.40867492576E+03 -0.11321548727E+03  0.47903197338E+03  0.00000000000E+00 0. -1.
         -2    1    5    5    0  503  0.86583218486E+02  0.14509883673E+03  0.69149499120E+01  0.16910985387E+03  0.00000000000E+00 0.  1.
         -3    1    6    6    0  502 -0.94568503397E+00  0.86793404195E+02  0.53167119141E+02  0.10178768044E+03  0.00000000000E+00 0.  1.
<mgrwt>
<rscale>  0 0.33417618E+04</rscale>
<asrwt>0</asrwt>
<pdfrwt beam="1">  1        2 0.29513682E+00 0.33417618E+04</pdfrwt>
<pdfrwt beam="2">  1       -2 0.22389319E+00 0.33417618E+04</pdfrwt>
<totfact> 0.57661032E-01</totfact>
</mgrwt>
</event>
<event>
12    1  0.2083715E-007  0.2710334E+04  0.7818608E-02  0.8331660E-01
         -1   -1    0    0    0  501 -0.00000000000E+00  0.00000000000E+00  0.75467195141E+03  0.75467195141E+03  0.00000000000E+00 0.  1.
          1   -1    0    0  501    0  0.00000000000E+00 -0.00000000000E+00 -0.24334774296E+04  0.24334774296E+04  0.00000000000E+00 0. -1.
         23    2    1    2    0    0 -0.11852642625E+04  0.19726525210E+03 -0.64942363968E+03  0.13688685405E+04  0.91022336445E+02 0.  0.
        254    2    1    2    0    0  0.11852642625E+04 -0.19726525210E+03 -0.10293818385E+04  0.18192808405E+04  0.89799268132E+03 0.  0.
        -24    2    4    4    0    0  0.71715675089E+03 -0.53590845759E+02 -0.11011468030E+04  0.13176852897E+04  0.81144666074E+02 0.  0.
         24    2    4    4    0    0  0.46810751157E+03 -0.14367440634E+03  0.71764964516E+02  0.50159555083E+03  0.81736827973E+02 0.  0.
         11    1    3    3    0    0 -0.83329604185E+03  0.10093606265E+03 -0.43087929485E+03  0.94351860015E+03  0.00000000000E+00 0. -1.
        -11    1    3    3    0    0 -0.35196822061E+03  0.96329189456E+02 -0.21854434483E+03  0.42534994031E+03  0.00000000000E+00 0.  1.
          4    1    6    6  502    0  0.27888093982E+03 -0.12247465159E+03  0.25563649276E+02  0.30566013649E+03  0.00000000000E+00 0. -1.
          1    1    5    5  503    0  0.12787177677E+03 -0.27597129588E+01 -0.25538275135E+03  0.28562065226E+03  0.00000000000E+00 0. -1.
         -2    1    5    5    0  503  0.58928497413E+03 -0.50831132800E+02 -0.84576405162E+03  0.10320646374E+04  0.00000000000E+00 0.  1.
         -3    1    6    6    0  502  0.18922657176E+03 -0.21199754748E+02  0.46201315240E+02  0.19593541433E+03  0.00000000000E+00 0.  1.
<mgrwt>
<rscale>  0 0.27103337E+04</rscale>
<asrwt>0</asrwt>
<pdfrwt beam="1">  1        1 0.37438115E+00 0.27103337E+04</pdfrwt>
<pdfrwt beam="2">  1       -1 0.11610338E+00 0.27103337E+04</pdfrwt>
<totfact> 0.88118139E-01</totfact>
</mgrwt>
</event>
<event>
12    1  0.2083715E-007  0.2080800E+04  0.7818608E-02  0.8569749E-01
          2   -1    0    0  501    0  0.00000000000E+00  0.00000000000E+00  0.24429217969E+04  0.24429217969E+04  0.00000000000E+00 0.  1.
         -2   -1    0    0    0  501 -0.00000000000E+00 -0.00000000000E+00 -0.44308906491E+03  0.44308906491E+03  0.00000000000E+00 0. -1.
         23    2    1    2    0    0  0.24911058156E+03 -0.78805786987E+03  0.10483899249E+04  0.13380529121E+04  0.90403942883E+02 0.  0.
        254    2    1    2    0    0 -0.24911058156E+03  0.78805786987E+03  0.95144280703E+03  0.15479579496E+04  0.89879870422E+03 0.  0.
        -24    2    4    4    0    0  0.27612739157E+03  0.45170944592E+02  0.12656563660E+03  0.31678664316E+03  0.77769957578E+02 0.  0.
         24    2    4    4    0    0 -0.52523797313E+03  0.74288692528E+03  0.82487717043E+03  0.12311713065E+04  0.87203941714E+02 0.  0.
         11    1    3    3    0    0  0.13713340980E+02 -0.20817774532E+02  0.13191687340E+02  0.28203830807E+02  0.00000000000E+00 0. -1.
        -11    1    3    3    0    0  0.23539724058E+03 -0.76724009534E+03  0.10351982376E+04  0.13098490813E+04  0.00000000000E+00 0.  1.
          4    1    6    6  502    0 -0.38436993891E+03  0.48170106017E+03  0.52992069793E+03  0.81276817569E+03  0.00000000000E+00 0. -1.
          3    1    5    5  503    0  0.10576749693E+03  0.44563874507E+02  0.80875967961E+02  0.14040521540E+03  0.00000000000E+00 0. -1.
         -4    1    5    5    0  503  0.17035989464E+03  0.60707008421E+00  0.45689668638E+02  0.17638142775E+03  0.00000000000E+00 0.  1.
         -3    1    6    6    0  502 -0.14086803422E+03  0.26118586510E+03  0.29495647250E+03  0.41840313080E+03  0.00000000000E+00 0.  1.
<mgrwt>
<rscale>  0 0.20807998E+04</rscale>
<asrwt>0</asrwt>
<pdfrwt beam="1">  1        2 0.37583412E+00 0.20807998E+04</pdfrwt>
<pdfrwt beam="2">  1       -2 0.68167550E-01 0.20807998E+04</pdfrwt>
<totfact> 0.68297009E+00</totfact>
</mgrwt>
</event>
<event>
12    1  0.2083715E-007  0.2092130E+04  0.7818608E-02  0.8564718E-01
          1   -1    0    0  501    0  0.00000000000E+00  0.00000000000E+00  0.14661243954E+04  0.14661243954E+04  0.00000000000E+00 0. -1.
         -1   -1    0    0    0  501 -0.00000000000E+00 -0.00000000000E+00 -0.74635661593E+03  0.74635661593E+03  0.00000000000E+00 0.  1.
         23    2    1    2    0    0  0.39231345126E+03  0.16994408003E+03  0.10702148860E+04  0.11560651778E+04  0.91301471491E+02 0.  0.
        254    2    1    2    0    0 -0.39231345126E+03 -0.16994408003E+03 -0.35044710660E+03  0.10564158335E+04  0.90022797353E+03 0.  0.
        -24    2    4    4    0    0  0.15583856747E+03  0.22388790745E+03  0.18902689534E+02  0.28283598640E+03  0.72300963465E+02 0.  0.
         24    2    4    4    0    0 -0.54815201873E+03 -0.39383198748E+03 -0.36934979613E+03  0.77357984708E+03  0.80201233775E+02 0.  0.
         11    1    3    3    0    0  0.33410550962E+03  0.17489898458E+03  0.88941405455E+03  0.96606081941E+03  0.00000000000E+00 0. -1.
        -11    1    3    3    0    0  0.58207941637E+02 -0.49549045494E+01  0.18080083147E+03  0.19000435840E+03  0.00000000000E+00 0.  1.
          4    1    6    6  502    0 -0.29952675066E+03 -0.17234049537E+03 -0.21073457739E+03  0.40475496639E+03  0.00000000000E+00 0. -1.
          3    1    5    5  503    0  0.33745018595E+01  0.89177943641E+01 -0.14318384181E+02  0.17202629004E+02  0.00000000000E+00 0. -1.
         -4    1    5    5    0  503  0.15246406561E+03  0.21497011309E+03  0.33221073715E+02  0.26563335740E+03  0.00000000000E+00 0.  1.
         -3    1    6    6    0  502 -0.24862526807E+03 -0.22149149211E+03 -0.15861521874E+03  0.36882488069E+03  0.00000000000E+00 0.  1.
<mgrwt>
<rscale>  0 0.20921297E+04</rscale>
<asrwt>0</asrwt>
<pdfrwt beam="1">  1        1 0.22555760E+00 0.20921297E+04</pdfrwt>
<pdfrwt beam="2">  1       -1 0.11482410E+00 0.20921297E+04</pdfrwt>
<totfact> 0.43787552E+00</totfact>
</mgrwt>
</event>
<event>
12    1  0.2083715E-007  0.1457267E+04  0.7818608E-02  0.8913378E-01
         -1   -1    0    0    0  501 -0.00000000000E+00  0.00000000000E+00  0.35454535014E+03  0.35454535014E+03  0.00000000000E+00 0.  1.
          1   -1    0    0  501    0  0.00000000000E+00 -0.00000000000E+00 -0.14974292522E+04  0.14974292522E+04  0.00000000000E+00 0. -1.
         23    2    1    2    0    0 -0.15069920484E+03 -0.38377973111E+03 -0.14448847386E+03  0.44611406030E+03  0.90242469872E+02 0.  0.
        254    2    1    2    0    0  0.15069920484E+03  0.38377973111E+03 -0.99839542818E+03  0.14058605420E+04  0.89980736841E+03 0.  0.
        -24    2    4    4    0    0 -0.65429528018E+02  0.24862556209E+03  0.90826146338E+02  0.28433719550E+03  0.80638443854E+02 0.  0.
         24    2    4    4    0    0  0.21612873285E+03  0.13515416902E+03 -0.10892215745E+04  0.11215233465E+04  0.80204113444E+02 0.  0.
         13    1    3    3    0    0 -0.25768475338E+02 -0.43092824200E+02 -0.50621769666E+02  0.71299154153E+02  0.00000000000E+00 0. -1.
        -13    1    3    3    0    0 -0.12493072950E+03 -0.34068690691E+03 -0.93866704194E+02  0.37481490615E+03  0.00000000000E+00 0.  1.
          4    1    6    6  502    0  0.20511695325E+03  0.12531224877E+03 -0.89417744138E+03  0.92592085022E+03  0.00000000000E+00 0. -1.
          1    1    5    5  503    0 -0.61008054825E+02  0.24827938640E+03  0.72878084519E+02  0.26584930255E+03  0.00000000000E+00 0. -1.
         -2    1    5    5    0  503 -0.44214731927E+01  0.34617569246E+00  0.17948061819E+02  0.18487892953E+02  0.00000000000E+00 0.  1.
         -3    1    6    6    0  502  0.11011779599E+02  0.98419202510E+01 -0.19504413313E+03  0.19560249629E+03  0.00000000000E+00 0.  1.
<mgrwt>
<rscale>  0 0.14572667E+04</rscale>
<asrwt>0</asrwt>
<pdfrwt beam="1">  1        1 0.23037373E+00 0.14572667E+04</pdfrwt>
<pdfrwt beam="2">  1       -1 0.54545438E-01 0.14572667E+04</pdfrwt>
<totfact> 0.21647258E+01</totfact>
</mgrwt>
</event>
<event>
12    1  0.2083715E-007  0.1703905E+04  0.7818608E-02  0.8759140E-01
         -2   -1    0    0    0  501 -0.00000000000E+00  0.00000000000E+00  0.29406276593E+03  0.29406276593E+03  0.00000000000E+00 0. -1.
          2   -1    0    0  501    0  0.00000000000E+00 -0.00000000000E+00 -0.24682583829E+04  0.24682583829E+04  0.00000000000E+00 0.  1.
         23    2    1    2    0    0 -0.57145075420E+03  0.56116617126E+02 -0.11216246379E+04  0.12633229586E+04  0.90763596312E+02 0.  0.
        254    2    1    2    0    0  0.57145075420E+03 -0.56116617126E+02 -0.10525709791E+04  0.14989981902E+04  0.89965819560E+03 0.  0.
        -24    2    4    4    0    0  0.61681473684E+03  0.27855248239E+03 -0.49643630522E+03  0.84311024777E+03  0.79586303616E+02 0.  0.
         24    2    4    4    0    0 -0.45363982641E+02 -0.33466909951E+03 -0.55613467393E+03  0.65588794244E+03  0.82715901764E+02 0.  0.
         13    1    3    3    0    0 -0.39812755451E+03  0.70663119372E+02 -0.84122414460E+03  0.93335785610E+03  0.00000000000E+00 0. -1.
        -13    1    3    3    0    0 -0.17332319969E+03 -0.14546502246E+02 -0.28040049326E+03  0.32996510254E+03  0.00000000000E+00 0.  1.
          2    1    6    6  502    0 -0.47192737733E+02 -0.33638842318E+03 -0.55764643097E+03  0.65295778402E+03  0.00000000000E+00 0. -1.
          1    1    5    5  503    0  0.39550845886E+03  0.20050506663E+03 -0.28405862865E+03  0.52661041320E+03  0.00000000000E+00 0. -1.
         -2    1    5    5    0  503  0.22130627798E+03  0.78047415756E+02 -0.21237767657E+03  0.31649983457E+03  0.00000000000E+00 0.  1.
         -1    1    6    6    0  502  0.18287550924E+01  0.17193236616E+01  0.15117570380E+01  0.29301584230E+01  0.00000000000E+00 0.  1.
<mgrwt>
<rscale>  0 0.17039048E+04</rscale>
<asrwt>0</asrwt>
<pdfrwt beam="1">  1        2 0.37973206E+00 0.17039048E+04</pdfrwt>
<pdfrwt beam="2">  1       -2 0.45240426E-01 0.17039048E+04</pdfrwt>
<totfact> 0.16030182E+01</totfact>
</mgrwt>
</event>
<event>
12    1  0.2083715E-007  0.1971193E+04  0.7818608E-02  0.8620209E-01
         -1   -1    0    0    0  501 -0.00000000000E+00  0.00000000000E+00  0.58855661992E+03  0.58855661992E+03  0.00000000000E+00 0.  1.
          1   -1    0    0  501    0  0.00000000000E+00 -0.00000000000E+00 -0.16504786403E+04  0.16504786403E+04  0.00000000000E+00 0. -1.
         23    2    1    2    0    0  0.30908856585E+03  0.22878914634E+03  0.34630556989E+03  0.52534039743E+03  0.90414437003E+02 0.  0.
        254    2    1    2    0    0 -0.30908856585E+03 -0.22878914634E+03 -0.14082275903E+04  0.17136948628E+04  0.89764409523E+03 0.  0.
        -24    2    4    4    0    0 -0.35106034380E+02  0.30709119293E+03 -0.76868274949E+03  0.83230393971E+03  0.79493674374E+02 0.  0.
         24    2    4    4    0    0 -0.27398253147E+03 -0.53588033927E+03 -0.63954484078E+03  0.88139092307E+03  0.74821055467E+02 0.  0.
         13    1    3    3    0    0  0.14631230217E+03  0.88064302656E+02  0.98457241285E+02  0.19712036813E+03  0.00000000000E+00 0. -1.
        -13    1    3    3    0    0  0.16277626368E+03  0.14072484368E+03  0.24784832860E+03  0.32822002931E+03  0.00000000000E+00 0.  1.
          2    1    6    6  502    0 -0.17257731411E+03 -0.25951667345E+03 -0.31188118950E+03  0.44091009231E+03  0.00000000000E+00 0. -1.
          1    1    5    5  503    0  0.75064175424E+01  0.22555528247E+03 -0.58081630792E+03  0.62312046612E+03  0.00000000000E+00 0. -1.
         -2    1    5    5    0  503 -0.42612451922E+02  0.81535910461E+02 -0.18786644157E+03  0.20918347358E+03  0.00000000000E+00 0.  1.
         -1    1    6    6    0  502 -0.10140521737E+03 -0.27636366582E+03 -0.32766365128E+03  0.44048083076E+03  0.00000000000E+00 0.  1.
<mgrwt>
<rscale>  0 0.19711927E+04</rscale>
<asrwt>0</asrwt>
<pdfrwt beam="1">  1        1 0.25391979E+00 0.19711927E+04</pdfrwt>
<pdfrwt beam="2">  1       -1 0.90547173E-01 0.19711927E+04</pdfrwt>
<totfact> 0.57102579E+00</totfact>
</mgrwt>
</event>
<event>
12    1  0.2083715E-007  0.3570407E+04  0.7818608E-02  0.8097304E-01
          2   -1    0    0  501    0  0.00000000000E+00  0.00000000000E+00  0.31060511115E+04  0.31060511115E+04  0.00000000000E+00 0.  1.
         -2   -1    0    0    0  501 -0.00000000000E+00 -0.00000000000E+00 -0.10260462399E+04  0.10260462399E+04  0.00000000000E+00 0. -1.
         23    2    1    2    0    0 -0.12929883150E+03  0.14659567180E+04  0.18885938092E+04  0.23959742111E+04  0.90324731811E+02 0.  0.
        254    2    1    2    0    0  0.12929883150E+03 -0.14659567180E+04  0.19141106242E+03  0.17361231402E+04  0.90096508050E+03 0.  0.
        -24    2    4    4    0    0 -0.16770908535E+03  0.10641835954E+02 -0.82013954098E+02  0.20322470475E+03  0.79588981467E+02 0.  0.
         24    2    4    4    0    0  0.29700791685E+03 -0.14765985540E+04  0.27342501651E+03  0.15328984355E+04  0.80370277919E+02 0.  0.
         13    1    3    3    0    0  0.29683142369E+01  0.43337748222E+03  0.55048958712E+03  0.70061661307E+03  0.00000000000E+00 0. -1.
        -13    1    3    3    0    0 -0.13226714573E+03  0.10325792358E+04  0.13381042221E+04  0.16953575981E+04  0.00000000000E+00 0.  1.
          2    1    6    6  502    0  0.17331323906E+03 -0.85092516957E+03  0.11728268477E+03  0.87627983611E+03  0.00000000000E+00 0. -1.
          1    1    5    5  503    0 -0.17390280753E+03  0.17623060223E+02 -0.70680214286E+02  0.18854296967E+03  0.00000000000E+00 0. -1.
         -2    1    5    5    0  503  0.61937221835E+01 -0.69812242688E+01 -0.11333739812E+02  0.14681735078E+02  0.00000000000E+00 0.  1.
         -1    1    6    6    0  502  0.12369467779E+03 -0.62567338442E+03  0.15614233175E+03  0.65661859938E+03  0.00000000000E+00 0.  1.
<mgrwt>
<rscale>  0 0.35704073E+04</rscale>
<asrwt>0</asrwt>
<pdfrwt beam="1">  1        2 0.47785401E+00 0.35704073E+04</pdfrwt>
<pdfrwt beam="2">  1       -2 0.15785327E+00 0.35704073E+04</pdfrwt>
<totfact> 0.31814860E-01</totfact>
</mgrwt>
</event>
<event>
12    1  0.2083715E-007  0.1355958E+04  0.7818608E-02  0.8986330E-01
         -2   -1    0    0    0  501 -0.00000000000E+00  0.00000000000E+00  0.32092098767E+03  0.32092098767E+03  0.00000000000E+00 0.  1.
          2   -1    0    0  501    0  0.00000000000E+00 -0.00000000000E+00 -0.14323008814E+04  0.14323008814E+04  0.00000000000E+00 0. -1.
         23    2    1    2    0    0  0.10192937801E+02  0.62939372728E+02  0.15941203680E+03  0.19426524970E+03  0.90892954301E+02 0.  0.
        254    2    1    2    0    0 -0.10192937801E+02 -0.62939372728E+02 -0.12707919306E+04  0.15589566194E+04  0.90075987354E+03 0.  0.
        -24    2    4    4    0    0 -0.25932698022E+03 -0.39314165333E+03 -0.59482784996E+03  0.76284867025E+03  0.79417128861E+02 0.  0.
         24    2    4    4    0    0  0.24913404242E+03  0.33020228060E+03 -0.67596408059E+03  0.79610794915E+03  0.75888808379E+02 0.  0.
         11    1    3    3    0    0  0.42635210127E+02  0.89286259631E+01  0.39472289659E+02  0.58783868154E+02  0.00000000000E+00 0. -1.
        -11    1    3    3    0    0 -0.32442272326E+02  0.54010746765E+02  0.11993974714E+03  0.13548138154E+03  0.00000000000E+00 0.  1.
          4    1    6    6  502    0  0.30023054155E+01  0.21684112584E+02 -0.15919018779E+02  0.27067133857E+02  0.00000000000E+00 0. -1.
          1    1    5    5  503    0 -0.16098462861E+03 -0.22853078392E+03 -0.41218393190E+03  0.49803409880E+03  0.00000000000E+00 0. -1.
         -2    1    5    5    0  503 -0.98342351611E+02 -0.16461086941E+03 -0.18264391806E+03  0.26481457145E+03  0.00000000000E+00 0.  1.
         -3    1    6    6    0  502  0.24613173701E+03  0.30851816802E+03 -0.66004506181E+03  0.76904081529E+03  0.00000000000E+00 0.  1.
<mgrwt>
<rscale>  0 0.13559578E+04</rscale>
<asrwt>0</asrwt>
<pdfrwt beam="1">  1        2 0.22035398E+00 0.13559578E+04</pdfrwt>
<pdfrwt beam="2">  1       -2 0.49372460E-01 0.13559578E+04</pdfrwt>
<totfact> 0.52564760E+01</totfact>
</mgrwt>
</event>
<event>
12    1  0.2083715E-007  0.1999670E+04  0.7818608E-02  0.8606775E-01
          2   -1    0    0  501    0  0.00000000000E+00  0.00000000000E+00  0.11370130034E+04  0.11370130034E+04  0.00000000000E+00 0. -1.
         -2   -1    0    0    0  501 -0.00000000000E+00 -0.00000000000E+00 -0.87920678944E+03  0.87920678944E+03  0.00000000000E+00 0.  1.
         23    2    1    2    0    0  0.69677446445E+03 -0.14050116706E+03 -0.25288368651E+03  0.76015715790E+03  0.93024263248E+02 0.  0.
        254    2    1    2    0    0 -0.69677446445E+03  0.14050116706E+03  0.51068990050E+03  0.12560626350E+04  0.90091838489E+03 0.  0.
        -24    2    4    4    0    0  0.18704176507E+03  0.15343623590E+03  0.16622896124E+03  0.30402245650E+03  0.79185138351E+02 0.  0.
         24    2    4    4    0    0 -0.88381622952E+03 -0.12935068838E+02  0.34446093926E+03  0.95204017847E+03  0.80179293916E+02 0.  0.
         13    1    3    3    0    0  0.33262153133E+03 -0.20485013132E+02 -0.12628170663E+03  0.35637590870E+03  0.00000000000E+00 0.  1.
        -13    1    3    3    0    0  0.36415293312E+03 -0.12001615393E+03 -0.12660197988E+03  0.40378124921E+03  0.00000000000E+00 0. -1.
          2    1    6    6  502    0 -0.84472901095E+02  0.76517879538E+01  0.10397000765E+02  0.85453604390E+02  0.00000000000E+00 0. -1.
          3    1    5    5  503    0  0.62155883775E+02  0.67823352491E+02  0.21307748480E+02  0.94431886438E+02  0.00000000000E+00 0. -1.
         -4    1    5    5    0  503  0.12488588129E+03  0.85612883409E+02  0.14492121276E+03  0.20959057006E+03  0.00000000000E+00 0.  1.
         -3    1    6    6    0  502 -0.79934332842E+03 -0.20586856792E+02  0.33406393849E+03  0.86658657408E+03  0.00000000000E+00 0.  1.
<mgrwt>
<rscale>  0 0.19996695E+04</rscale>
<asrwt>0</asrwt>
<pdfrwt beam="1">  1        2 0.17492508E+00 0.19996695E+04</pdfrwt>
<pdfrwt beam="2">  1       -2 0.13526258E+00 0.19996695E+04</pdfrwt>
<totfact> 0.75413827E+00</totfact>
</mgrwt>
</event>
<event>
12    1  0.2083715E-007  0.3814880E+04  0.7818608E-02  0.8042969E-01
          1   -1    0    0  501    0  0.00000000000E+00  0.00000000000E+00  0.29679013202E+04  0.29679013202E+04  0.00000000000E+00 0. -1.
         -1   -1    0    0    0  501 -0.00000000000E+00 -0.00000000000E+00 -0.12258920711E+04  0.12258920711E+04  0.00000000000E+00 0.  1.
         23    2    1    2    0    0  0.19363763654E+03  0.17889180767E+04  0.85305592018E+03  0.19934614928E+04  0.91983155318E+02 0.  0.
        254    2    1    2    0    0 -0.19363763654E+03 -0.17889180767E+04  0.88895332901E+03  0.22003318985E+04  0.90194180688E+03 0.  0.
        -24    2    4    4    0    0 -0.25558196461E+03 -0.18405166996E+04  0.72073322799E+03  0.19946511983E+04  0.79706680732E+02 0.  0.
         24    2    4    4    0    0  0.61944328073E+02  0.51598622846E+02  0.16822010102E+03  0.20568070022E+03  0.86643120879E+02 0.  0.
         11    1    3    3    0    0  0.79224440273E+02  0.10156771138E+04  0.52007389090E+03  0.11438327515E+04  0.00000000000E+00 0. -1.
        -11    1    3    3    0    0  0.11441319626E+03  0.77324096291E+03  0.33298202927E+03  0.84962874129E+03  0.00000000000E+00 0.  1.
          4    1    6    6  502    0  0.62570879085E+02  0.64736299828E+02  0.17003828124E+03  0.19240301586E+03  0.00000000000E+00 0. -1.
          3    1    5    5  503    0 -0.14050361634E+03 -0.12503022703E+04  0.46861011971E+03  0.13426065982E+04  0.00000000000E+00 0. -1.
         -4    1    5    5    0  503 -0.11507834827E+03 -0.59021442926E+03  0.25212310828E+03  0.65204460006E+03  0.00000000000E+00 0.  1.
         -1    1    6    6    0  502 -0.62655101181E+00 -0.13137676981E+02 -0.18181802207E+01  0.13277684360E+02  0.00000000000E+00 0.  1.
<mgrwt>
<rscale>  0 0.38148797E+04</rscale>
<asrwt>0</asrwt>
<pdfrwt beam="1">  1        1 0.45660020E+00 0.38148797E+04</pdfrwt>
<pdfrwt beam="2">  1       -1 0.18859878E+00 0.38148797E+04</pdfrwt>
<totfact> 0.90563806E-02</totfact>
</mgrwt>
</event>
<event>
12    1  0.2083715E-007  0.1868356E+04  0.7818608E-02  0.8670770E-01
          1   -1    0    0  501    0  0.00000000000E+00  0.00000000000E+00  0.91331746222E+03  0.91331746222E+03  0.00000000000E+00 0. -1.
         -1   -1    0    0    0  501 -0.00000000000E+00 -0.00000000000E+00 -0.95551482238E+03  0.95551482238E+03  0.00000000000E+00 0.  1.
         23    2    1    2    0    0 -0.26891136981E+03  0.64795334578E+03 -0.14490027853E+03  0.72229647634E+03  0.92516192596E+02 0.  0.
        254    2    1    2    0    0  0.26891136981E+03 -0.64795334578E+03  0.10270291837E+03  0.11465358083E+04  0.90102142432E+03 0.  0.
        -24    2    4    4    0    0  0.53996704401E+03 -0.29884685630E+03  0.25548478180E+03  0.67269519022E+03  0.79827896595E+02 0.  0.
         24    2    4    4    0    0 -0.27105567420E+03 -0.34910648948E+03 -0.15278186344E+03  0.47384061805E+03  0.76394463141E+02 0.  0.
         11    1    3    3    0    0 -0.10634032210E+03  0.18281059581E+03 -0.76186332322E+02  0.22479398408E+03  0.00000000000E+00 0.  1.
        -11    1    3    3    0    0 -0.16257104771E+03  0.46514274997E+03 -0.68713946210E+02  0.49750249226E+03  0.00000000000E+00 0. -1.
          4    1    6    6  502    0 -0.12491009026E+03 -0.17176737183E+03 -0.11316666217E+03  0.24065172782E+03  0.00000000000E+00 0. -1.
          3    1    5    5  503    0  0.41853087037E+03 -0.25989043835E+03  0.22481011036E+03  0.54152628294E+03  0.00000000000E+00 0. -1.
         -4    1    5    5    0  503  0.12143617364E+03 -0.38956417950E+02  0.30674671441E+02  0.13116890728E+03  0.00000000000E+00 0.  1.
         -3    1    6    6    0  502 -0.14614558394E+03 -0.17733911765E+03 -0.39615201270E+02  0.23318889023E+03  0.00000000000E+00 0.  1.
<mgrwt>
<rscale>  0 0.18683558E+04</rscale>
<asrwt>0</asrwt>
<pdfrwt beam="1">  1        1 0.14051038E+00 0.18683558E+04</pdfrwt>
<pdfrwt beam="2">  1       -1 0.14700228E+00 0.18683558E+04</pdfrwt>
<totfact> 0.61328522E+00</totfact>
</mgrwt>
</event>
<event>
12    1  0.2083715E-007  0.2043446E+04  0.7818608E-02  0.8586574E-01
         -2   -1    0    0    0  501 -0.00000000000E+00  0.00000000000E+00  0.63073057057E+03  0.63073057057E+03  0.00000000000E+00 0. -1.
          2   -1    0    0  501    0  0.00000000000E+00 -0.00000000000E+00 -0.16550925831E+04  0.16550925831E+04  0.00000000000E+00 0.  1.
         23    2    1    2    0    0 -0.68848474825E+02 -0.37988539591E+03  0.39568583954E+03  0.55874449462E+03  0.81086991251E+02 0.  0.
        254    2    1    2    0    0  0.68848474825E+02  0.37988539591E+03 -0.14200478521E+04  0.17270786590E+04  0.90399765810E+03 0.  0.
        -24    2    4    4    0    0 -0.32259673144E+03  0.20012680322E+03 -0.21150956416E+03  0.44172714518E+03  0.79165564189E+02 0.  0.
         24    2    4    4    0    0  0.39144520626E+03  0.17975859269E+03 -0.12085382879E+04  0.12853515138E+04  0.77596518659E+02 0.  0.
         13    1    3    3    0    0 -0.60297939357E+02 -0.26215967977E+03  0.32207007764E+03  0.41963397634E+03  0.00000000000E+00 0. -1.
        -13    1    3    3    0    0 -0.85505354682E+01 -0.11772571614E+03  0.73615761901E+02  0.13911051829E+03  0.00000000000E+00 0.  1.
          4    1    6    6  502    0  0.30039828336E+03  0.10874281523E+03 -0.94765771914E+03  0.10000596388E+04  0.00000000000E+00 0. -1.
          3    1    5    5  503    0 -0.13832538849E+03  0.12307097640E+03 -0.12881249038E+03  0.22555051765E+03  0.00000000000E+00 0. -1.
         -4    1    5    5    0  503 -0.18427134295E+03  0.77055826824E+02 -0.82697073778E+02  0.21617662753E+03  0.00000000000E+00 0.  1.
         -3    1    6    6    0  502  0.91046922909E+02  0.71015777460E+02 -0.26088056875E+03  0.28529187505E+03  0.00000000000E+00 0.  1.
<mgrwt>
<rscale>  0 0.20434456E+04</rscale>
<asrwt>0</asrwt>
<pdfrwt beam="1">  1        2 0.25462963E+00 0.20434456E+04</pdfrwt>
<pdfrwt beam="2">  1       -2 0.97035472E-01 0.20434456E+04</pdfrwt>
<totfact> 0.85294820E+00</totfact>
</mgrwt>
</event>
<event>
12    1  0.2280406E-007  0.3554711E+04  0.7818608E-02  0.8100945E-01
          2   -1    0    0  501    0  0.00000000000E+00  0.00000000000E+00  0.18154614904E+04  0.18154614904E+04  0.00000000000E+00 0.  1.
         -2   -1    0    0    0  501 -0.00000000000E+00 -0.00000000000E+00 -0.17400493916E+04  0.17400493916E+04  0.00000000000E+00 0. -1.
         23    2    1    2    0    0 -0.39398243695E+03 -0.10475039920E+04  0.12643134002E+04  0.16910557791E+04  0.93244303049E+02 0.  0.
        254    2    1    2    0    0  0.39398243695E+03  0.10475039920E+04 -0.11889013013E+04  0.18644551030E+04  0.90012207654E+03 0.  0.
        -24    2    4    4    0    0  0.56544855299E+03  0.31027435308E+03 -0.37601794289E+03  0.75103213644E+03  0.81593727233E+02 0.  0.
         24    2    4    4    0    0 -0.17146611604E+03  0.73722963897E+03 -0.81288335843E+03  0.11134229665E+04  0.77609138875E+02 0.  0.
         11    1    3    3    0    0 -0.29314541596E+03 -0.70257255729E+03  0.80656357533E+03  0.11090929782E+04  0.00000000000E+00 0. -1.
        -11    1    3    3    0    0 -0.10083702099E+03 -0.34493143475E+03  0.45774982484E+03  0.58196280089E+03  0.00000000000E+00 0.  1.
          2    1    6    6  502    0 -0.36423840050E+02  0.28573026834E+03 -0.27407187095E+03  0.39759762677E+03  0.00000000000E+00 0. -1.
          1    1    5    5  503    0  0.17148811879E+03  0.53506223830E+02 -0.95030224139E+02  0.20322852746E+03  0.00000000000E+00 0. -1.
         -2    1    5    5    0  503  0.39396043420E+03  0.25676812925E+03 -0.28098771875E+03  0.54780360898E+03  0.00000000000E+00 0.  1.
         -1    1    6    6    0  502 -0.13504227599E+03  0.45149937063E+03 -0.53881148748E+03  0.71582533975E+03  0.00000000000E+00 0.  1.
<mgrwt>
<rscale>  0 0.35547110E+04</rscale>
<asrwt>0</asrwt>
<pdfrwt beam="1">  1        2 0.27930177E+00 0.35547110E+04</pdfrwt>
<pdfrwt beam="2">  1       -2 0.26769991E+00 0.35547110E+04</pdfrwt>
<totfact> 0.34646629E-01</totfact>
</mgrwt>
</event>
<event>
12    1  0.2083715E-007  0.1614136E+04  0.7818608E-02  0.8811910E-01
          2   -1    0    0  501    0  0.00000000000E+00  0.00000000000E+00  0.12867053967E+04  0.12867053967E+04  0.00000000000E+00 0.  1.
         -2   -1    0    0    0  501 -0.00000000000E+00 -0.00000000000E+00 -0.50622230058E+03  0.50622230058E+03  0.00000000000E+00 0. -1.
         23    2    1    2    0    0  0.54798616404E+03  0.21519263685E+02  0.29502367733E+03  0.62969304560E+03  0.93394040526E+02 0.  0.
        254    2    1    2    0    0 -0.54798616404E+03 -0.21519263685E+02  0.48545941880E+03  0.11632346517E+04  0.90371018193E+03 0.  0.
        -24    2    4    4    0    0 -0.36835770310E+03 -0.37698500714E+03  0.37069039497E+01  0.53321793217E+03  0.80638260167E+02 0.  0.
         24    2    4    4    0    0 -0.17962846093E+03  0.35546574345E+03  0.48175251485E+03  0.63001671954E+03  0.78824504942E+02 0.  0.
         13    1    3    3    0    0  0.12901824352E+03 -0.19783226568E+01  0.11587085496E+03  0.17342340082E+03  0.00000000000E+00 0.  1.
        -13    1    3    3    0    0  0.41896792052E+03  0.23497586341E+02  0.17915282237E+03  0.45626964478E+03  0.00000000000E+00 0. -1.
          2    1    6    6  502    0 -0.96263702876E+02  0.26946774538E+03  0.33381119926E+03  0.43966974315E+03  0.00000000000E+00 0. -1.
          3    1    5    5  503    0 -0.36045730056E+02 -0.35875412752E+02  0.24693497672E+02  0.56534137675E+02  0.00000000000E+00 0. -1.
         -4    1    5    5    0  503 -0.33231197305E+03 -0.34110959439E+03 -0.20986593722E+02  0.47668379449E+03  0.00000000000E+00 0.  1.
         -1    1    6    6    0  502 -0.83364758058E+02  0.85997998074E+02  0.14794131560E+03  0.19034697639E+03  0.00000000000E+00 0.  1.
<mgrwt>
<rscale>  0 0.16141363E+04</rscale>
<asrwt>0</asrwt>
<pdfrwt beam="1">  1        2 0.19795468E+00 0.16141363E+04</pdfrwt>
<pdfrwt beam="2">  1       -2 0.77880354E-01 0.16141363E+04</pdfrwt>
<totfact> 0.23670768E+01</totfact>
</mgrwt>
</event>
<event>
12    1  0.2083715E-007  0.1018507E+04  0.7818608E-02  0.9288476E-01
         -1   -1    0    0    0  501 -0.00000000000E+00  0.00000000000E+00  0.26109237872E+03  0.26109237872E+03  0.00000000000E+00 0.  1.
          1   -1    0    0  501    0  0.00000000000E+00 -0.00000000000E+00 -0.99328497803E+03  0.99328497803E+03  0.00000000000E+00 0. -1.
         23    2    1    2    0    0  0.68489799947E+02  0.21374638067E+02 -0.10533561328E+03  0.15543028864E+03  0.88967720856E+02 0.  0.
        254    2    1    2    0    0 -0.68489799947E+02 -0.21374638067E+02 -0.62685698604E+03  0.10989470681E+04  0.89977066505E+03 0.  0.
        -24    2    4    4    0    0 -0.47002130059E+03 -0.95908903849E+02 -0.34385388788E+03  0.59558697575E+03  0.79811080808E+02 0.  0.
         24    2    4    4    0    0  0.40153150065E+03  0.74534265782E+02 -0.28300309816E+03  0.50336009235E+03  0.80608474871E+02 0.  0.
         13    1    3    3    0    0 -0.21867968321E+01  0.37777019766E+02 -0.18043480489E+02  0.41921981000E+02  0.00000000000E+00 0.  1.
        -13    1    3    3    0    0  0.70676596779E+02 -0.16402381699E+02 -0.87292132787E+02  0.11350830764E+03  0.00000000000E+00 0. -1.
          4    1    6    6  502    0  0.34806910441E+03  0.37880210025E+02 -0.25278487270E+03  0.43184164184E+03  0.00000000000E+00 0. -1.
          1    1    5    5  503    0 -0.45506797762E+03 -0.10672219291E+03 -0.33533729045E+03  0.57526306076E+03  0.00000000000E+00 0. -1.
         -2    1    5    5    0  503 -0.14953322977E+02  0.10813289065E+02 -0.85165974293E+01  0.20323914983E+02  0.00000000000E+00 0.  1.
         -3    1    6    6    0  502  0.53462396234E+02  0.36654055757E+02 -0.30218225451E+02  0.71518450514E+02  0.00000000000E+00 0.  1.
<mgrwt>
<rscale>  0 0.10185070E+04</rscale>
<asrwt>0</asrwt>
<pdfrwt beam="1">  1        1 0.15281308E+00 0.10185070E+04</pdfrwt>
<pdfrwt beam="2">  1       -1 0.40168058E-01 0.10185070E+04</pdfrwt>
<totfact> 0.92629340E+01</totfact>
</mgrwt>
</event>
<event>
12    1  0.2083715E-007  0.2422298E+04  0.7818608E-02  0.8431202E-01
         -2   -1    0    0    0  501 -0.00000000000E+00  0.00000000000E+00  0.62577103263E+03  0.62577103263E+03  0.00000000000E+00 0.  1.
          2   -1    0    0  501    0  0.00000000000E+00 -0.00000000000E+00 -0.23441195165E+04  0.23441195165E+04  0.00000000000E+00 0. -1.
         23    2    1    2    0    0 -0.44341131856E+03  0.90836118451E+03 -0.10502512393E+04  0.14605456856E+04  0.91828072811E+02 0.  0.
        254    2    1    2    0    0  0.44341131856E+03 -0.90836118451E+03 -0.66809724453E+03  0.15093448636E+04  0.90001908316E+03 0.  0.
        -24    2    4    4    0    0 -0.17308873186E+03 -0.16155838621E+03  0.10096620899E+03  0.27033195305E+03  0.82609734468E+02 0.  0.
         24    2    4    4    0    0  0.61650005041E+03 -0.74680279830E+03 -0.76906345352E+03  0.12390129105E+04  0.76861337355E+02 0.  0.
         11    1    3    3    0    0 -0.36410759261E+03  0.74901311992E+03 -0.81209362912E+03  0.11632244217E+04  0.00000000000E+00 0.  1.
        -11    1    3    3    0    0 -0.79303725947E+02  0.15934806459E+03 -0.23815761022E+03  0.29732126386E+03  0.00000000000E+00 0. -1.
          4    1    6    6  502    0  0.33635202420E+03 -0.46368498108E+03 -0.46906091383E+03  0.74037462594E+03  0.00000000000E+00 0. -1.
          3    1    5    5  503    0 -0.48495222999E+02 -0.94114857006E+01  0.42516803992E+02  0.65177000073E+02  0.00000000000E+00 0. -1.
         -4    1    5    5    0  503 -0.12459350886E+03 -0.15214690051E+03  0.58449404997E+02  0.20515495297E+03  0.00000000000E+00 0.  1.
         -3    1    6    6    0  502  0.28014802622E+03 -0.28311781722E+03 -0.30000253969E+03  0.49863828457E+03  0.00000000000E+00 0.  1.
<mgrwt>
<rscale>  0 0.24222982E+04</rscale>
<asrwt>0</asrwt>
<pdfrwt beam="1">  1        2 0.36063377E+00 0.24222982E+04</pdfrwt>
<pdfrwt beam="2">  1       -2 0.96272467E-01 0.24222982E+04</pdfrwt>
<totfact> 0.34692518E+00</totfact>
</mgrwt>
</event>
<event>
12    1  0.2083715E-007  0.1816693E+04  0.7818608E-02  0.8697473E-01
         -3   -1    0    0    0  501 -0.00000000000E+00  0.00000000000E+00  0.57992031476E+03  0.57992031476E+03  0.00000000000E+00 0. -1.
          3   -1    0    0  501    0  0.00000000000E+00 -0.00000000000E+00 -0.14227697808E+04  0.14227697808E+04  0.00000000000E+00 0.  1.
         23    2    1    2    0    0 -0.66234344315E+03 -0.16239503192E+02 -0.14160292521E+03  0.68353339447E+03  0.90575685337E+02 0.  0.
        254    2    1    2    0    0  0.66234344315E+03  0.16239503192E+02 -0.70124654087E+03  0.13191567011E+04  0.89970280255E+03 0.  0.
        -24    2    4    4    0    0  0.82883353353E+03  0.86081652355E+02 -0.74056114352E+03  0.11176151642E+04  0.79106072595E+02 0.  0.
         24    2    4    4    0    0 -0.16649009037E+03 -0.69842149163E+02  0.39314602653E+02  0.20154153696E+03  0.80476562711E+02 0.  0.
         13    1    3    3    0    0 -0.62062649586E+03 -0.36107436124E+02 -0.12302448256E+03  0.63373181837E+03  0.00000000000E+00 0. -1.
        -13    1    3    3    0    0 -0.41716947294E+02  0.19867932932E+02 -0.18578442653E+02  0.49801576099E+02  0.00000000000E+00 0.  1.
          4    1    6    6  502    0 -0.13137991818E+03 -0.46051996156E+02  0.63173291117E+02  0.15288012939E+03  0.00000000000E+00 0. -1.
          1    1    5    5  503    0  0.72690323605E+03  0.98908351635E+02 -0.66416639730E+03  0.98958990491E+03  0.00000000000E+00 0. -1.
         -2    1    5    5    0  503  0.10193029747E+03 -0.12826699280E+02 -0.76394746228E+02  0.12802525926E+03  0.00000000000E+00 0.  1.
         -3    1    6    6    0  502 -0.35110172191E+02 -0.23790153007E+02 -0.23858688464E+02  0.48661407569E+02  0.00000000000E+00 0.  1.
<mgrwt>
<rscale>  0 0.18166927E+04</rscale>
<asrwt>0</asrwt>
<pdfrwt beam="1">  1        3 0.21888766E+00 0.18166927E+04</pdfrwt>
<pdfrwt beam="2">  1       -3 0.89218511E-01 0.18166927E+04</pdfrwt>
<totfact> 0.31592732E-01</totfact>
</mgrwt>
</event>
<event>
12    1  0.2083715E-007  0.2010757E+04  0.7818608E-02  0.8601608E-01
          2   -1    0    0  501    0  0.00000000000E+00  0.00000000000E+00  0.21621386476E+04  0.21621386476E+04  0.00000000000E+00 0. -1.
         -2   -1    0    0    0  501 -0.00000000000E+00 -0.00000000000E+00 -0.46749342986E+03  0.46749342986E+03  0.00000000000E+00 0.  1.
         23    2    1    2    0    0  0.20947841490E+03 -0.50870078744E+03  0.14396772860E+04  0.15439309552E+04  0.91621009181E+02 0.  0.
        254    2    1    2    0    0 -0.20947841490E+03  0.50870078744E+03  0.25496793178E+03  0.10857011222E+04  0.90060012389E+03 0.  0.
        -24    2    4    4    0    0 -0.10772182931E+03  0.43075908674E+03 -0.27886262504E+03  0.52995849872E+03  0.77034170381E+02 0.  0.
         24    2    4    4    0    0 -0.10175658560E+03  0.77941700694E+02  0.53383055682E+03  0.55574262352E+03  0.86287245761E+02 0.  0.
         11    1    3    3    0    0  0.69632815453E+02 -0.91384413998E+02  0.24040957271E+03  0.26645187701E+03  0.00000000000E+00 0. -1.
        -11    1    3    3    0    0  0.13984559945E+03 -0.41731637344E+03  0.11992677132E+04  0.12774790782E+04  0.00000000000E+00 0.  1.
          2    1    6    6  502    0 -0.16079486204E+02  0.58005566690E+02  0.29850380551E+03  0.30451226174E+03  0.00000000000E+00 0. -1.
          1    1    5    5  503    0 -0.11435447715E+03  0.32224641787E+03 -0.21280469299E+03  0.40274748619E+03  0.00000000000E+00 0. -1.
         -2    1    5    5    0  503  0.66326478451E+01  0.10851266887E+03 -0.66057932048E+02  0.12721101253E+03  0.00000000000E+00 0.  1.
         -1    1    6    6    0  502 -0.85677099391E+02  0.19936134004E+02  0.23532675131E+03  0.25123036178E+03  0.00000000000E+00 0.  1.
<mgrwt>
<rscale>  0 0.20107567E+04</rscale>
<asrwt>0</asrwt>
<pdfrwt beam="1">  1        2 0.33263671E+00 0.20107567E+04</pdfrwt>
<pdfrwt beam="2">  1       -2 0.71922067E-01 0.20107567E+04</pdfrwt>
<totfact> 0.88181621E+00</totfact>
</mgrwt>
</event>
<event>
12    1  0.2083715E-007  0.2899383E+04  0.7818608E-02  0.8273061E-01
          1   -1    0    0  501    0  0.00000000000E+00  0.00000000000E+00  0.12293591447E+04  0.12293591447E+04  0.00000000000E+00 0. -1.
         -1   -1    0    0    0  501 -0.00000000000E+00 -0.00000000000E+00 -0.17095126926E+04  0.17095126926E+04  0.00000000000E+00 0.  1.
         23    2    1    2    0    0  0.98825052768E+03 -0.66965229953E+03  0.32829032599E+03  0.12409135895E+04  0.83777626765E+02 0.  0.
        254    2    1    2    0    0 -0.98825052768E+03  0.66965229953E+03 -0.80844387388E+03  0.16979582478E+04  0.89688762182E+03 0.  0.
        -24    2    4    4    0    0 -0.91802391692E+03  0.65838286547E+03 -0.29050394952E+03  0.11691943586E+04  0.79918671307E+02 0.  0.
         24    2    4    4    0    0 -0.70226610761E+02  0.11269434055E+02 -0.51793992436E+03  0.52876388911E+03  0.79187803188E+02 0.  0.
         13    1    3    3    0    0  0.58227796700E+03 -0.40195680974E+03  0.15220837920E+03  0.72372943732E+03  0.00000000000E+00 0.  1.
        -13    1    3    3    0    0  0.40597256068E+03 -0.26769548978E+03  0.17608194679E+03  0.51718415217E+03  0.00000000000E+00 0. -1.
          4    1    6    6  502    0 -0.31776557490E+01  0.34446243318E+02 -0.20363396731E+03  0.20655128617E+03  0.00000000000E+00 0. -1.
          3    1    5    5  503    0 -0.17831846217E+03  0.13425110053E+03 -0.25360449277E+02  0.22464190244E+03  0.00000000000E+00 0. -1.
         -4    1    5    5    0  503 -0.73970545475E+03  0.52413176495E+03 -0.26514350025E+03  0.94455245621E+03  0.00000000000E+00 0.  1.
         -3    1    6    6    0  502 -0.67048955012E+02 -0.23176809263E+02 -0.31430595705E+03  0.32221260294E+03  0.00000000000E+00 0.  1.
<mgrwt>
<rscale>  0 0.28993827E+04</rscale>
<asrwt>0</asrwt>
<pdfrwt beam="1">  1        1 0.18913218E+00 0.28993827E+04</pdfrwt>
<pdfrwt beam="2">  1       -1 0.26300195E+00 0.28993827E+04</pdfrwt>
<totfact> 0.50085079E-01</totfact>
</mgrwt>
</event>
<event>
12    1  0.2163342E-007  0.3051364E+04  0.7818608E-02  0.8229214E-01
         -2   -1    0    0    0  501 -0.00000000000E+00  0.00000000000E+00  0.12109046697E+04  0.12109046697E+04  0.00000000000E+00 0.  1.
          2   -1    0    0  501    0  0.00000000000E+00 -0.00000000000E+00 -0.19222870117E+04  0.19222870117E+04  0.00000000000E+00 0. -1.
         23    2    1    2    0    0 -0.10141426182E+04 -0.91175718861E+03 -0.62019375983E+03  0.14994879240E+04  0.63539857145E+02 0.  0.
        254    2    1    2    0    0  0.10141426182E+04  0.91175718861E+03 -0.91188582102E+02  0.16337037574E+04  0.89492244832E+03 0.  0.
        -24    2    4    4    0    0  0.61989509500E+03  0.75847965076E+03 -0.44270173918E+03  0.10779218372E+04  0.79808193749E+02 0.  0.
         24    2    4    4    0    0  0.39424752319E+03  0.15327753786E+03  0.35151315708E+03  0.55578192024E+03  0.80043301497E+02 0.  0.
         11    1    3    3    0    0 -0.79881073377E+03 -0.68219931655E+03 -0.47774218966E+03  0.11540069738E+04  0.00000000000E+00 0. -1.
        -11    1    3    3    0    0 -0.21533188442E+03 -0.22955787207E+03 -0.14245157017E+03  0.34548095015E+03  0.00000000000E+00 0.  1.
          4    1    6    6  502    0  0.20024462188E+03  0.12046416510E+03  0.18632812005E+03  0.29887738621E+03  0.00000000000E+00 0. -1.
          1    1    5    5  503    0  0.27498844156E+03  0.29454957490E+03 -0.21372856928E+03  0.45613374836E+03  0.00000000000E+00 0. -1.
         -2    1    5    5    0  503  0.34490665344E+03  0.46393007586E+03 -0.22897316990E+03  0.62178808883E+03  0.00000000000E+00 0.  1.
         -3    1    6    6    0  502  0.19400290131E+03  0.32813372754E+02  0.16518503703E+03  0.25690453403E+03  0.00000000000E+00 0.  1.
<mgrwt>
<rscale>  0 0.30513645E+04</rscale>
<asrwt>0</asrwt>
<pdfrwt beam="1">  1        2 0.29573646E+00 0.30513645E+04</pdfrwt>
<pdfrwt beam="2">  1       -2 0.18629303E+00 0.30513645E+04</pdfrwt>
<totfact> 0.10330386E+00</totfact>
</mgrwt>
</event>
<event>
12    1  0.2083715E-007  0.3362106E+04  0.7818608E-02  0.8147270E-01
          2   -1    0    0  501    0  0.00000000000E+00  0.00000000000E+00  0.29133652417E+04  0.29133652417E+04  0.00000000000E+00 0.  1.
         -2   -1    0    0    0  501 -0.00000000000E+00 -0.00000000000E+00 -0.96999140000E+03  0.96999140000E+03  0.00000000000E+00 0. -1.
         23    2    1    2    0    0  0.15013894959E+04 -0.40632262240E+03  0.78395607013E+03  0.17443054386E+04  0.93519256540E+02 0.  0.
        254    2    1    2    0    0 -0.15013894959E+04  0.40632262240E+03  0.11594177716E+04  0.21390512030E+04  0.90112262664E+03 0.  0.
        -24    2    4    4    0    0 -0.82055033085E+03  0.30819407197E+03  0.11694634771E+03  0.88772624853E+03  0.78070561785E+02 0.  0.
         24    2    4    4    0    0 -0.68083916509E+03  0.98128550426E+02  0.10424714238E+04  0.12513249545E+04  0.76787311074E+02 0.  0.
         11    1    3    3    0    0  0.10554395810E+04 -0.28018441375E+03  0.50228059581E+03  0.12019741311E+04  0.00000000000E+00 0. -1.
        -11    1    3    3    0    0  0.44594991490E+03 -0.12613820865E+03  0.28167547431E+03  0.54233130752E+03  0.00000000000E+00 0.  1.
          4    1    6    6  502    0 -0.52563787781E+03  0.45336224684E+02  0.81743390653E+03  0.97290736630E+03  0.00000000000E+00 0. -1.
          1    1    5    5  503    0 -0.54216770152E+03  0.23116876434E+03  0.10472843991E+03  0.59862580992E+03  0.00000000000E+00 0. -1.
         -2    1    5    5    0  503 -0.27838262933E+03  0.77025307632E+02  0.12217907798E+02  0.28910043860E+03  0.00000000000E+00 0.  1.
         -3    1    6    6    0  502 -0.15520128729E+03  0.52792325743E+02  0.22503751732E+03  0.27841758823E+03  0.00000000000E+00 0.  1.
<mgrwt>
<rscale>  0 0.33621060E+04</rscale>
<asrwt>0</asrwt>
<pdfrwt beam="1">  1        2 0.44821003E+00 0.33621060E+04</pdfrwt>
<pdfrwt beam="2">  1       -2 0.14922945E+00 0.33621060E+04</pdfrwt>
<totfact> 0.49726254E-01</totfact>
</mgrwt>
</event>
<event>
12    1  0.2083715E-007  0.1635313E+04  0.7818608E-02  0.8799143E-01
          2   -1    0    0  501    0  0.00000000000E+00  0.00000000000E+00  0.14398695938E+04  0.14398695938E+04  0.00000000000E+00 0. -1.
         -2   -1    0    0    0  501 -0.00000000000E+00 -0.00000000000E+00 -0.46432129032E+03  0.46432129032E+03  0.00000000000E+00 0.  1.
         23    2    1    2    0    0 -0.39185540678E+02 -0.34086881256E+03 -0.18127407762E+03  0.39946370488E+03  0.94783470743E+02 0.  0.
        254    2    1    2    0    0  0.39185540678E+02  0.34086881256E+03  0.11568223811E+04  0.15047271792E+04  0.89902102787E+03 0.  0.
        -24    2    4    4    0    0 -0.89751845129E+02 -0.28089376264E+03  0.24933383237E+03  0.39432908300E+03  0.79820837750E+02 0.  0.
         24    2    4    4    0    0  0.12893738581E+03  0.62176257520E+03  0.90748854874E+03  0.11103980963E+04  0.78961488634E+02 0.  0.
         13    1    3    3    0    0 -0.67886021190E+01 -0.28771836004E+03 -0.17517774009E+03  0.33692013956E+03  0.00000000000E+00 0.  1.
        -13    1    3    3    0    0 -0.32396938559E+02 -0.53150452529E+02 -0.60963375325E+01  0.62543565323E+02  0.00000000000E+00 0. -1.
          4    1    6    6  502    0  0.91875648362E+02  0.47792628402E+03  0.74861612956E+03  0.89290580531E+03  0.00000000000E+00 0. -1.
          3    1    5    5  503    0 -0.10318267076E+03 -0.24012429314E+03  0.22573946731E+03  0.34534713956E+03  0.00000000000E+00 0. -1.
         -4    1    5    5    0  503  0.13430825629E+02 -0.40769469494E+02  0.23594365059E+02  0.48981943432E+02  0.00000000000E+00 0.  1.
         -3    1    6    6    0  502  0.37061737445E+02  0.14383629119E+03  0.15887241918E+03  0.21749229095E+03  0.00000000000E+00 0.  1.
<mgrwt>
<rscale>  0 0.16353129E+04</rscale>
<asrwt>0</asrwt>
<pdfrwt beam="1">  1        2 0.22151840E+00 0.16353129E+04</pdfrwt>
<pdfrwt beam="2">  1       -2 0.71434045E-01 0.16353129E+04</pdfrwt>
<totfact> 0.23348887E+01</totfact>
</mgrwt>
</event>
<event>
12    1  0.2083715E-007  0.1136135E+04  0.7818608E-02  0.9170671E-01
         -1   -1    0    0    0  501 -0.00000000000E+00  0.00000000000E+00  0.69109764864E+03  0.69109764864E+03  0.00000000000E+00 0.  1.
          1   -1    0    0  501    0  0.00000000000E+00 -0.00000000000E+00 -0.46693930034E+03  0.46693930034E+03  0.00000000000E+00 0. -1.
         23    2    1    2    0    0  0.25397000009E+02  0.17889789265E+03  0.12172152641E+03  0.23637544725E+03  0.91693830040E+02 0.  0.
        254    2    1    2    0    0 -0.25397000009E+02 -0.17889789265E+03  0.10243682189E+03  0.92166150173E+03  0.89795164552E+03 0.  0.
        -24    2    4    4    0    0 -0.27829410772E+03 -0.29641456880E+03  0.34841857520E+03  0.54136494581E+03  0.79820385948E+02 0.  0.
         24    2    4    4    0    0  0.25289710771E+03  0.11751667615E+03 -0.24598175332E+03  0.38029655592E+03  0.79695239638E+02 0.  0.
         11    1    3    3    0    0 -0.33834243825E+02  0.83438655643E+02  0.48384174465E+02  0.10221444932E+03  0.00000000000E+00 0. -1.
        -11    1    3    3    0    0  0.59231243834E+02  0.95459237005E+02  0.73337351946E+02  0.13416099793E+03  0.00000000000E+00 0.  1.
          2    1    6    6  502    0  0.42806860271E+02  0.57203196814E+02 -0.61871892958E+02  0.94513301446E+02  0.00000000000E+00 0. -1.
          1    1    5    5  503    0 -0.13213395677E+03 -0.86240259580E+02  0.14659376510E+03  0.21537524665E+03  0.00000000000E+00 0. -1.
         -2    1    5    5    0  503 -0.14616015095E+03 -0.21017430922E+03  0.20182481010E+03  0.32598969915E+03  0.00000000000E+00 0.  1.
         -1    1    6    6    0  502  0.21009024744E+03  0.60313479340E+02 -0.18410986036E+03  0.28578325448E+03  0.00000000000E+00 0.  1.
<mgrwt>
<rscale>  0 0.11361349E+04</rscale>
<asrwt>0</asrwt>
<pdfrwt beam="1">  1        1 0.71836815E-01 0.11361349E+04</pdfrwt>
<pdfrwt beam="2">  1       -1 0.10632272E+00 0.11361349E+04</pdfrwt>
<totfact> 0.40042852E+01</totfact>
</mgrwt>
</event>
<event>
12    1  0.2083715E-007  0.2692929E+04  0.7818608E-02  0.8337303E-01
          2   -1    0    0  501    0  0.00000000000E+00  0.00000000000E+00  0.33775814263E+04  0.33775814263E+04  0.00000000000E+00 0.  1.
         -2   -1    0    0    0  501 -0.00000000000E+00 -0.00000000000E+00 -0.53676456311E+03  0.53676456311E+03  0.00000000000E+00 0. -1.
         23    2    1    2    0    0 -0.10228311848E+04 -0.45380349039E+03  0.65554456311E+03  0.13000525584E+04  0.90976589884E+02 0.  0.
        254    2    1    2    0    0  0.10228311848E+04  0.45380349039E+03  0.21852723001E+04  0.26142934310E+04  0.89832837963E+03 0.  0.
        -24    2    4    4    0    0  0.60930396156E+03 -0.20834790014E+03  0.93870783542E+03  0.11410969861E+04  0.79181856723E+02 0.  0.
         24    2    4    4    0    0  0.41352722319E+03  0.66215139053E+03  0.12465644647E+04  0.14731964449E+04  0.83280083982E+02 0.  0.
         11    1    3    3    0    0 -0.38804750270E+02 -0.32089150372E+02  0.45450723722E+02  0.67832812870E+02  0.00000000000E+00 0.  1.
        -11    1    3    3    0    0 -0.98402643449E+03 -0.42171434002E+03  0.61009383939E+03  0.12322197455E+04  0.00000000000E+00 0. -1.
          2    1    6    6  502    0  0.13909578198E+03  0.24406271804E+03  0.52213469852E+03  0.59290715150E+03  0.00000000000E+00 0. -1.
          3    1    5    5  503    0  0.28243911464E+03 -0.65754585244E+02  0.37478225218E+03  0.47387472554E+03  0.00000000000E+00 0. -1.
         -4    1    5    5    0  503  0.32686484693E+03 -0.14259331489E+03  0.56392558324E+03  0.66722226060E+03  0.00000000000E+00 0.  1.
         -1    1    6    6    0  502  0.27443144121E+03  0.41808867249E+03  0.72442976613E+03  0.88028929338E+03  0.00000000000E+00 0.  1.
<mgrwt>
<rscale>  0 0.26929285E+04</rscale>
<asrwt>0</asrwt>
<pdfrwt beam="1">  1        2 0.51962790E+00 0.26929285E+04</pdfrwt>
<pdfrwt beam="2">  1       -2 0.82579166E-01 0.26929285E+04</pdfrwt>
<totfact> 0.11154477E+00</totfact>
</mgrwt>
</event>
<event>
12    1  0.2083715E-007  0.1078142E+04  0.7818608E-02  0.9226762E-01
          1   -1    0    0  501    0  0.00000000000E+00  0.00000000000E+00  0.13557054014E+04  0.13557054014E+04  0.00000000000E+00 0. -1.
         -1   -1    0    0    0  501 -0.00000000000E+00 -0.00000000000E+00 -0.21435159572E+03  0.21435159572E+03  0.00000000000E+00 0.  1.
         23    2    1    2    0    0 -0.93828726777E+02  0.10260804300E+03  0.19599979573E+03  0.25726511609E+03  0.91854121141E+02 0.  0.
        254    2    1    2    0    0  0.93828726777E+02 -0.10260804300E+03  0.94535400998E+03  0.13127918811E+04  0.90022001663E+03 0.  0.
        -24    2    4    4    0    0 -0.41243282249E+02 -0.48740069439E+03  0.50790258461E+03  0.70960038560E+03  0.79418049406E+02 0.  0.
         24    2    4    4    0    0  0.13507200903E+03  0.38479265139E+03  0.43745142537E+03  0.60319149546E+03  0.78526418823E+02 0.  0.
         11    1    3    3    0    0 -0.70116388950E+02  0.11512490306E+03  0.18348024790E+03  0.22767312682E+03  0.00000000000E+00 0. -1.
        -11    1    3    3    0    0 -0.23712337826E+02 -0.12516860063E+02  0.12519547833E+02  0.29591989270E+02  0.00000000000E+00 0.  1.
          4    1    6    6  502    0 -0.25208898003E+01 -0.26873747483E+01  0.69916506099E+01  0.79031668763E+01  0.00000000000E+00 0. -1.
          3    1    5    5  503    0  0.48621516013E+01 -0.33424465944E+03  0.36730210147E+03  0.49664269513E+03  0.00000000000E+00 0. -1.
         -4    1    5    5    0  503 -0.46105433851E+02 -0.15315603494E+03  0.14060048314E+03  0.21295769047E+03  0.00000000000E+00 0.  1.
         -3    1    6    6    0  502  0.13759289883E+03  0.38748002614E+03  0.43045977476E+03  0.59528832859E+03  0.00000000000E+00 0.  1.
<mgrwt>
<rscale>  0 0.10781421E+04</rscale>
<asrwt>0</asrwt>
<pdfrwt beam="1">  1        1 0.20857006E+00 0.10781421E+04</pdfrwt>
<pdfrwt beam="2">  1       -1 0.32977169E-01 0.10781421E+04</pdfrwt>
<totfact> 0.71064272E+01</totfact>
</mgrwt>
</event>
<event>
12    1  0.2083715E-007  0.1508064E+04  0.7818608E-02  0.8879108E-01
          1   -1    0    0  501    0  0.00000000000E+00  0.00000000000E+00  0.16059370716E+04  0.16059370716E+04  0.00000000000E+00 0. -1.
         -1   -1    0    0    0  501 -0.00000000000E+00 -0.00000000000E+00 -0.35403874987E+03  0.35403874987E+03  0.00000000000E+00 0.  1.
         23    2    1    2    0    0 -0.32443888801E+03  0.96803234146E+02 -0.33125226265E+02  0.35482695663E+03  0.10086342420E+03 0.  0.
        254    2    1    2    0    0  0.32443888801E+03 -0.96803234146E+02  0.12850235480E+04  0.16051488648E+04  0.90032544182E+03 0.  0.
        -24    2    4    4    0    0  0.55248188660E+03  0.17337150787E+03  0.92392964466E+03  0.10935272595E+04  0.82836973614E+02 0.  0.
         24    2    4    4    0    0 -0.22804299858E+03 -0.27017474201E+03  0.36109390330E+03  0.51162160532E+03  0.79811400255E+02 0.  0.
         13    1    3    3    0    0 -0.28341078503E+03  0.11149551249E+03 -0.82874529914E+01  0.30466638189E+03  0.00000000000E+00 0. -1.
        -13    1    3    3    0    0 -0.41028102980E+02 -0.14692278342E+02 -0.24837773273E+02  0.50160574740E+02  0.00000000000E+00 0.  1.
          4    1    6    6  502    0 -0.58247781100E+02 -0.28066933738E+02  0.45044279465E+02  0.78800659166E+02  0.00000000000E+00 0. -1.
          1    1    5    5  503    0  0.70930496876E+02 -0.52062187150E+01  0.12251510760E+03  0.14166224511E+03  0.00000000000E+00 0. -1.
         -2    1    5    5    0  503  0.48155138972E+03  0.17857772658E+03  0.80141453706E+03  0.95186501437E+03  0.00000000000E+00 0.  1.
         -3    1    6    6    0  502 -0.16979521748E+03 -0.24210780827E+03  0.31604962383E+03  0.43282094616E+03  0.00000000000E+00 0.  1.
<mgrwt>
<rscale>  0 0.15080636E+04</rscale>
<asrwt>0</asrwt>
<pdfrwt beam="1">  1        1 0.24706724E+00 0.15080636E+04</pdfrwt>
<pdfrwt beam="2">  1       -1 0.54467501E-01 0.15080636E+04</pdfrwt>
<totfact> 0.18194787E+01</totfact>
</mgrwt>
</event>
<event>
12    1  0.2083715E-007  0.2154385E+04  0.7818608E-02  0.8537658E-01
         -2   -1    0    0    0  501 -0.00000000000E+00  0.00000000000E+00  0.20578737267E+04  0.20578737267E+04  0.00000000000E+00 0.  1.
          2   -1    0    0  501    0  0.00000000000E+00 -0.00000000000E+00 -0.56385539415E+03  0.56385539415E+03  0.00000000000E+00 0. -1.
         23    2    1    2    0    0  0.57008333936E+03 -0.67263763130E+03  0.70465271992E+03  0.11322810429E+04  0.89936130051E+02 0.  0.
        254    2    1    2    0    0 -0.57008333936E+03  0.67263763130E+03  0.78936561265E+03  0.14894480780E+04  0.90438991024E+03 0.  0.
        -24    2    4    4    0    0  0.22461511702E+03  0.50131105496E+02  0.21680153556E+03  0.32609424222E+03  0.79808962263E+02 0.  0.
         24    2    4    4    0    0 -0.79469845638E+03  0.62250652580E+03  0.57256407709E+03  0.11633538358E+04  0.80638164636E+02 0.  0.
         13    1    3    3    0    0  0.31767480813E+03 -0.43126263217E+03  0.39499876967E+03  0.66552893977E+03  0.00000000000E+00 0.  1.
        -13    1    3    3    0    0  0.25240853123E+03 -0.24137499912E+03  0.30965395024E+03  0.46675210309E+03  0.00000000000E+00 0. -1.
          2    1    6    6  502    0 -0.34818843049E+03  0.25427985074E+03  0.28734121602E+03  0.51812971354E+03  0.00000000000E+00 0. -1.
          1    1    5    5  503    0  0.87737066818E+02  0.60084519432E+02  0.93293607280E+02  0.14146250220E+03  0.00000000000E+00 0. -1.
         -2    1    5    5    0  503  0.13687805020E+03 -0.99534139362E+01  0.12350792828E+03  0.18463174002E+03  0.00000000000E+00 0.  1.
         -1    1    6    6    0  502 -0.44651002589E+03  0.36822667506E+03  0.28522286107E+03  0.64522412224E+03  0.00000000000E+00 0.  1.
<mgrwt>
<rscale>  0 0.21543846E+04</rscale>
<asrwt>0</asrwt>
<pdfrwt beam="1">  1        2 0.86746985E-01 0.21543846E+04</pdfrwt>
<pdfrwt beam="2">  1       -2 0.31659595E+00 0.21543846E+04</pdfrwt>
<totfact> 0.12335101E+00</totfact>
</mgrwt>
</event>
<event>
12    1  0.2277271E-007  0.2894411E+04  0.7818608E-02  0.8274542E-01
         -1   -1    0    0    0  501 -0.00000000000E+00  0.00000000000E+00  0.84925215456E+03  0.84925215456E+03  0.00000000000E+00 0.  1.
          1   -1    0    0  501    0  0.00000000000E+00 -0.00000000000E+00 -0.24661740915E+04  0.24661740915E+04  0.00000000000E+00 0. -1.
         23    2    1    2    0    0  0.13266606287E+03  0.12489889241E+04 -0.11377681054E+04  0.16971466013E+04  0.90646058327E+02 0.  0.
        254    2    1    2    0    0 -0.13266606287E+03 -0.12489889241E+04 -0.47915383153E+03  0.16182796448E+04  0.90092563387E+03 0.  0.
        -24    2    4    4    0    0 -0.26766360509E+03 -0.11445788520E+04 -0.66711571335E+03  0.13538549146E+04  0.78582446347E+02 0.  0.
         24    2    4    4    0    0  0.13499754222E+03 -0.10441007209E+03  0.18796188182E+03  0.26442473020E+03  0.73925431114E+02 0.  0.
         13    1    3    3    0    0  0.52169416062E+02  0.43588454786E+03 -0.45624899269E+03  0.63315095386E+03  0.00000000000E+00 0. -1.
        -13    1    3    3    0    0  0.80496646813E+02  0.81310437620E+03 -0.68151911275E+03  0.10639956474E+04  0.00000000000E+00 0.  1.
          4    1    6    6  502    0  0.55755720485E+02 -0.34311811139E+02  0.12554099714E+03  0.14158581396E+03  0.00000000000E+00 0. -1.
          3    1    5    5  503    0 -0.15701793841E+03 -0.82697827710E+03 -0.47894082242E+03  0.96846890252E+03  0.00000000000E+00 0. -1.
         -4    1    5    5    0  503 -0.11064566668E+03 -0.31760057488E+03 -0.18817489092E+03  0.38538601206E+03  0.00000000000E+00 0.  1.
         -3    1    6    6    0  502  0.79241821732E+02 -0.70098260948E+02  0.62420884675E+02  0.12283891624E+03  0.00000000000E+00 0.  1.
<mgrwt>
<rscale>  0 0.28944109E+04</rscale>
<asrwt>0</asrwt>
<pdfrwt beam="1">  1        1 0.37941139E+00 0.28944109E+04</pdfrwt>
<pdfrwt beam="2">  1       -1 0.13065418E+00 0.28944109E+04</pdfrwt>
<totfact> 0.61465048E-01</totfact>
</mgrwt>
</event>
<event>
12    1  0.2083715E-007  0.1841684E+04  0.7818608E-02  0.8684441E-01
         -1   -1    0    0    0  501 -0.00000000000E+00  0.00000000000E+00  0.68531495453E+03  0.68531495453E+03  0.00000000000E+00 0.  1.
          1   -1    0    0  501    0  0.00000000000E+00 -0.00000000000E+00 -0.12373141257E+04  0.12373141257E+04  0.00000000000E+00 0. -1.
         23    2    1    2    0    0  0.65344220886E+03 -0.23513396769E+03 -0.26329848699E+03  0.74831464897E+03  0.91509658115E+02 0.  0.
        254    2    1    2    0    0 -0.65344220886E+03  0.23513396769E+03 -0.28870068421E+03  0.11743144313E+04  0.90188225140E+03 0.  0.
        -24    2    4    4    0    0 -0.27205671089E+03 -0.23754242221E+03  0.17139447399E+03  0.40830145256E+03  0.83022612335E+02 0.  0.
         24    2    4    4    0    0 -0.38138549797E+03  0.47267638990E+03 -0.46009515821E+03  0.76601297873E+03  0.78806480354E+02 0.  0.
         11    1    3    3    0    0  0.22715516641E+03 -0.58560179497E+02 -0.12922449844E+03  0.26782034137E+03  0.00000000000E+00 0. -1.
        -11    1    3    3    0    0  0.42628704244E+03 -0.17657378819E+03 -0.13407398854E+03  0.48049430760E+03  0.00000000000E+00 0.  1.
          2    1    6    6  502    0 -0.34212266086E+03  0.39228817866E+03 -0.41568769776E+03  0.66613376454E+03  0.00000000000E+00 0. -1.
          1    1    5    5  503    0 -0.20109960367E+03 -0.19727697522E+03  0.16498398418E+03  0.32646434810E+03  0.00000000000E+00 0. -1.
         -2    1    5    5    0  503 -0.70957107223E+02 -0.40265446991E+02  0.64104898187E+01  0.81837104461E+02  0.00000000000E+00 0.  1.
         -1    1    6    6    0  502 -0.39262837111E+02  0.80388211234E+02 -0.44407460450E+02  0.99879214189E+02  0.00000000000E+00 0.  1.
<mgrwt>
<rscale>  0 0.18416839E+04</rscale>
<asrwt>0</asrwt>
<pdfrwt beam="1">  1        1 0.19035602E+00 0.18416839E+04</pdfrwt>
<pdfrwt beam="2">  1       -1 0.10543307E+00 0.18416839E+04</pdfrwt>
<totfact> 0.79584455E+00</totfact>
</mgrwt>
</event>
<event>
12    1  0.2083715E-007  0.2011772E+04  0.7818608E-02  0.8601136E-01
          1   -1    0    0  501    0  0.00000000000E+00  0.00000000000E+00  0.14547231482E+04  0.14547231482E+04  0.00000000000E+00 0. -1.
         -1   -1    0    0    0  501 -0.00000000000E+00 -0.00000000000E+00 -0.69553241269E+03  0.69553241269E+03  0.00000000000E+00 0.  1.
         23    2    1    2    0    0 -0.16497302779E+03  0.70060503491E+03 -0.83584090075E+02  0.73018685135E+03  0.90127814416E+02 0.  0.
        254    2    1    2    0    0  0.16497302779E+03 -0.70060503491E+03  0.84277482555E+03  0.14200687095E+04  0.88784132496E+03 0.  0.
        -24    2    4    4    0    0  0.22171800718E+02 -0.25050642900E+03 -0.16013613512E+03  0.30866732264E+03  0.79917923998E+02 0.  0.
         24    2    4    4    0    0  0.14280122707E+03 -0.45009860591E+03  0.10029109607E+04  0.11114013869E+04  0.80010638139E+02 0.  0.
         13    1    3    3    0    0 -0.14210593288E+03  0.41838789177E+03 -0.39363373232E+02  0.44361244267E+03  0.00000000000E+00 0. -1.
        -13    1    3    3    0    0 -0.22867094907E+02  0.28221714314E+03 -0.44220716843E+02  0.28657440868E+03  0.00000000000E+00 0.  1.
          4    1    6    6  502    0  0.11911219635E+03 -0.32873513109E+03  0.66034773781E+03  0.74720387884E+03  0.00000000000E+00 0. -1.
          3    1    5    5  503    0  0.32375862807E+02 -0.78196393940E+02 -0.86462619835E+02  0.12099031840E+03  0.00000000000E+00 0. -1.
         -4    1    5    5    0  503 -0.10204062090E+02 -0.17231003506E+03 -0.73673515285E+02  0.18767700424E+03  0.00000000000E+00 0.  1.
         -1    1    6    6    0  502  0.23689030726E+02 -0.12136347482E+03  0.34256322286E+03  0.36419750803E+03  0.00000000000E+00 0.  1.
<mgrwt>
<rscale>  0 0.20117725E+04</rscale>
<asrwt>0</asrwt>
<pdfrwt beam="1">  1        1 0.22380356E+00 0.20117725E+04</pdfrwt>
<pdfrwt beam="2">  1       -1 0.10700499E+00 0.20117725E+04</pdfrwt>
<totfact> 0.53091327E+00</totfact>
</mgrwt>
</event>
<event>
12    1  0.2083715E-007  0.2112128E+04  0.7818608E-02  0.8555920E-01
         -1   -1    0    0    0  501 -0.00000000000E+00  0.00000000000E+00  0.11581369406E+04  0.11581369406E+04  0.00000000000E+00 0. -1.
          1   -1    0    0  501    0  0.00000000000E+00 -0.00000000000E+00 -0.96298700725E+03  0.96298700725E+03  0.00000000000E+00 0.  1.
         23    2    1    2    0    0  0.40674735126E+03 -0.59027004272E+03  0.55923215943E+03  0.91394520743E+03  0.93236811178E+02 0.  0.
        254    2    1    2    0    0 -0.40674735126E+03  0.59027004272E+03 -0.36408222603E+03  0.12071787405E+04  0.90047904640E+03 0.  0.
        -24    2    4    4    0    0 -0.49828316779E+03  0.42902815070E+03  0.12866331906E+03  0.67451101833E+03  0.77843399064E+02 0.  0.
         24    2    4    4    0    0  0.91535816530E+02  0.16124189202E+03 -0.49274554509E+03  0.53266772213E+03  0.80987508546E+02 0.  0.
         11    1    3    3    0    0  0.17115163906E+03 -0.20844462043E+03  0.16143548635E+03  0.31433017608E+03  0.00000000000E+00 0.  1.
        -11    1    3    3    0    0  0.23559571219E+03 -0.38182542229E+03  0.39779667308E+03  0.59961503135E+03  0.00000000000E+00 0. -1.
          4    1    6    6  502    0  0.77753389113E+02  0.76257650771E+02 -0.34371413000E+03  0.36055543538E+03  0.00000000000E+00 0. -1.
          3    1    5    5  503    0 -0.49772872136E+03  0.43098386110E+03  0.12475838682E+03  0.67010866558E+03  0.00000000000E+00 0. -1.
         -4    1    5    5    0  503 -0.55444643027E+00 -0.19557103992E+01  0.39049322343E+01  0.44023527533E+01  0.00000000000E+00 0.  1.
         -3    1    6    6    0  502  0.13782427416E+02  0.84984241248E+02 -0.14903141509E+03  0.17211228675E+03  0.00000000000E+00 0.  1.
<mgrwt>
<rscale>  0 0.21121277E+04</rscale>
<asrwt>0</asrwt>
<pdfrwt beam="1">  1        1 0.14815185E+00 0.21121277E+04</pdfrwt>
<pdfrwt beam="2">  1       -1 0.17817491E+00 0.21121277E+04</pdfrwt>
<totfact> 0.31893834E+00</totfact>
</mgrwt>
</event>
<event>
12    1  0.7614081E-007  0.2904803E+04  0.7818608E-02  0.8271450E-01
         -2   -1    0    0    0  501 -0.00000000000E+00  0.00000000000E+00  0.11771535492E+04  0.11771535492E+04  0.00000000000E+00 0.  1.
          2   -1    0    0  501    0  0.00000000000E+00 -0.00000000000E+00 -0.17920095377E+04  0.17920095377E+04  0.00000000000E+00 0. -1.
         23    2    1    2    0    0 -0.18410002056E+02  0.13079877560E+04 -0.18776880314E+03  0.13248076427E+04  0.93205519168E+02 0.  0.
        254    2    1    2    0    0  0.18410002056E+02 -0.13079877560E+04 -0.42708718541E+03  0.16443554442E+04  0.90018357287E+03 0.  0.
        -24    2    4    4    0    0 -0.28122212505E+03 -0.11752166740E+04 -0.48009113174E+03  0.13028593307E+04  0.82065987108E+02 0.  0.
         24    2    4    4    0    0  0.29963212711E+03 -0.13277108199E+03  0.53003946334E+02  0.34149611352E+03  0.80016282169E+02 0.  0.
         13    1    3    3    0    0 -0.55490042515E+02  0.68357265503E+03 -0.10626266016E+03  0.69400466314E+03  0.00000000000E+00 0.  1.
        -13    1    3    3    0    0  0.37080040459E+02  0.62441510097E+03 -0.81506142977E+02  0.63080297959E+03  0.00000000000E+00 0. -1.
          4    1    6    6  502    0  0.26354526139E+03 -0.12264006959E+03  0.72011473736E+02  0.29947010506E+03  0.00000000000E+00 0. -1.
          1    1    5    5  503    0 -0.27930831501E+03 -0.11532924215E+04 -0.48195678538E+03  0.12807727696E+04  0.00000000000E+00 0. -1.
         -2    1    5    5    0  503 -0.19138100432E+01 -0.21924252541E+02  0.18656536411E+01  0.22086561115E+02  0.00000000000E+00 0.  1.
         -3    1    6    6    0  502  0.36086865715E+02 -0.10131012402E+02 -0.19007527402E+02  0.42026008463E+02  0.00000000000E+00 0.  1.
<mgrwt>
<rscale>  0 0.29048032E+04</rscale>
<asrwt>0</asrwt>
<pdfrwt beam="1">  1        2 0.27569377E+00 0.29048032E+04</pdfrwt>
<pdfrwt beam="2">  1       -2 0.18110055E+00 0.29048032E+04</pdfrwt>
<totfact> 0.13402409E+00</totfact>
</mgrwt>
</event>
<event>
12    1  0.2083715E-007  0.1682970E+04  0.7818608E-02  0.8771137E-01
         -2   -1    0    0    0  501 -0.00000000000E+00  0.00000000000E+00  0.34844028417E+03  0.34844028417E+03  0.00000000000E+00 0.  1.
          2   -1    0    0  501    0  0.00000000000E+00 -0.00000000000E+00 -0.20321915809E+04  0.20321915809E+04  0.00000000000E+00 0. -1.
         23    2    1    2    0    0  0.59353954870E+02 -0.15757580220E+03 -0.14138712505E+04  0.14267636624E+04  0.90937396130E+02 0.  0.
        254    2    1    2    0    0 -0.59353954870E+02  0.15757580220E+03 -0.26988004617E+03  0.95386820259E+03  0.89926430108E+03 0.  0.
        -24    2    4    4    0    0  0.29570307868E+03 -0.17045237480E+03 -0.30247702185E+03  0.46285772818E+03  0.79060767576E+02 0.  0.
         24    2    4    4    0    0 -0.35505703355E+03  0.32802817700E+03  0.32596975680E+02  0.49101047441E+03  0.79754254919E+02 0.  0.
         13    1    3    3    0    0  0.43649746373E+02 -0.16696185601E+03 -0.13058989766E+04  0.13172523292E+04  0.00000000000E+00 0. -1.
        -13    1    3    3    0    0  0.15704208497E+02  0.93860538101E+01 -0.10797227391E+03  0.10951133322E+03  0.00000000000E+00 0.  1.
          2    1    6    6  502    0 -0.24942007768E+03  0.21539711943E+03 -0.13584756809E+02  0.32983456433E+03  0.00000000000E+00 0. -1.
          3    1    5    5  503    0  0.29639083879E+02 -0.89629682348E+01 -0.32912781316E+01  0.31139084838E+02  0.00000000000E+00 0. -1.
         -4    1    5    5    0  503  0.26606399480E+03 -0.16148940657E+03 -0.29918574372E+03  0.43171864334E+03  0.00000000000E+00 0.  1.
         -1    1    6    6    0  502 -0.10563695587E+03  0.11263105757E+03  0.46181732489E+02  0.16117591008E+03  0.00000000000E+00 0.  1.
<mgrwt>
<rscale>  0 0.16829705E+04</rscale>
<asrwt>0</asrwt>
<pdfrwt beam="1">  1        2 0.31264486E+00 0.16829705E+04</pdfrwt>
<pdfrwt beam="2">  1       -2 0.53606197E-01 0.16829705E+04</pdfrwt>
<totfact> 0.20034366E+01</totfact>
</mgrwt>
</event>
<event>
12    1  0.2083715E-007  0.2831551E+04  0.7818608E-02  0.8293539E-01
          1   -1    0    0  501    0  0.00000000000E+00  0.00000000000E+00  0.22386525098E+04  0.22386525098E+04  0.00000000000E+00 0. -1.
         -1   -1    0    0    0  501 -0.00000000000E+00 -0.00000000000E+00 -0.89536914029E+03  0.89536914029E+03  0.00000000000E+00 0.  1.
         23    2    1    2    0    0 -0.76639756131E+03  0.72460528501E+03 -0.17876548284E+03  0.10744819540E+04  0.10067934512E+03 0.  0.
        254    2    1    2    0    0  0.76639756131E+03 -0.72460528501E+03  0.15220488524E+04  0.20595396962E+04  0.90147268952E+03 0.  0.
        -24    2    4    4    0    0 -0.61807511736E+02 -0.29755395278E+03  0.53564447555E+02  0.31851130543E+03  0.78878250028E+02 0.  0.
         24    2    4    4    0    0  0.82820507305E+03 -0.42705133223E+03  0.14684844048E+04  0.17410283907E+04  0.80230459859E+02 0.  0.
         11    1    3    3    0    0 -0.16823078673E+03  0.18879315533E+03 -0.54198919881E+01  0.25293048123E+03  0.00000000000E+00 0. -1.
        -11    1    3    3    0    0 -0.59816677458E+03  0.53581212967E+03 -0.17334559085E+03  0.82155147275E+03  0.00000000000E+00 0.  1.
          4    1    6    6  502    0  0.14475454507E+03 -0.41653676079E+02  0.23247865199E+03  0.27701124649E+03  0.00000000000E+00 0. -1.
          3    1    5    5  503    0 -0.25983143950E+02 -0.25705242561E+03  0.56089414577E+02  0.26438058875E+03  0.00000000000E+00 0. -1.
         -4    1    5    5    0  503 -0.35824367787E+02 -0.40501527171E+02 -0.25249670213E+01  0.54130716686E+02  0.00000000000E+00 0.  1.
         -3    1    6    6    0  502  0.68345052798E+03 -0.38539765615E+03  0.12360057528E+04  0.14640171442E+04  0.00000000000E+00 0.  1.
<mgrwt>
<rscale>  0 0.28315511E+04</rscale>
<asrwt>0</asrwt>
<pdfrwt beam="1">  1        1 0.34440808E+00 0.28315511E+04</pdfrwt>
<pdfrwt beam="2">  1       -1 0.13774910E+00 0.28315511E+04</pdfrwt>
<totfact> 0.77379852E-01</totfact>
</mgrwt>
</event>
<event>
12    1  0.2083715E-007  0.2694545E+04  0.7818608E-02  0.8336777E-01
         -2   -1    0    0    0  501 -0.00000000000E+00  0.00000000000E+00  0.17643327906E+04  0.17643327906E+04  0.00000000000E+00 0.  1.
          2   -1    0    0  501    0  0.00000000000E+00 -0.00000000000E+00 -0.10287985473E+04  0.10287985473E+04  0.00000000000E+00 0. -1.
         23    2    1    2    0    0  0.85955523268E+03 -0.75316977473E+03  0.69308687042E+03  0.13397026902E+04  0.91290638305E+02 0.  0.
        254    2    1    2    0    0 -0.85955523268E+03  0.75316977473E+03  0.42447372889E+02  0.14534286477E+04  0.89696886617E+03 0.  0.
        -24    2    4    4    0    0 -0.86545223946E+03  0.56678094744E+03 -0.27893210055E+03  0.10738189378E+04  0.70963183253E+02 0.  0.
         24    2    4    4    0    0  0.58970067829E+01  0.18638882728E+03  0.32137947344E+03  0.37960970985E+03  0.77737997426E+02 0.  0.
         11    1    3    3    0    0  0.12880560930E+03 -0.78248190178E+02  0.72403870553E+02  0.16720043278E+03  0.00000000000E+00 0. -1.
        -11    1    3    3    0    0  0.73074962338E+03 -0.67492158455E+03  0.62068299987E+03  0.11725022574E+04  0.00000000000E+00 0.  1.
          4    1    6    6  502    0 -0.59441642144E+01  0.11480946901E+03  0.12291345193E+03  0.16829814000E+03  0.00000000000E+00 0. -1.
          1    1    5    5  503    0 -0.16885621767E+03  0.81896175769E+02 -0.37120737769E+02  0.19130435182E+03  0.00000000000E+00 0. -1.
         -2    1    5    5    0  503 -0.69659602179E+03  0.48488477167E+03 -0.24181136278E+03  0.88251458602E+03  0.00000000000E+00 0.  1.
         -3    1    6    6    0  502  0.11841170997E+02  0.71579358275E+02  0.19846602150E+03  0.21131156985E+03  0.00000000000E+00 0.  1.
<mgrwt>
<rscale>  0 0.26945449E+04</rscale>
<asrwt>0</asrwt>
<pdfrwt beam="1">  1        2 0.15827670E+00 0.26945449E+04</pdfrwt>
<pdfrwt beam="2">  1       -2 0.27143581E+00 0.26945449E+04</pdfrwt>
<totfact> 0.10064313E+00</totfact>
</mgrwt>
</event>
<event>
12    1  0.2083715E-007  0.1688387E+04  0.7818608E-02  0.8768015E-01
         -3   -1    0    0    0  501 -0.00000000000E+00  0.00000000000E+00  0.11314449706E+04  0.11314449706E+04  0.00000000000E+00 0.  1.
          3   -1    0    0  501    0  0.00000000000E+00 -0.00000000000E+00 -0.62986961413E+03  0.62986961413E+03  0.00000000000E+00 0. -1.
         23    2    1    2    0    0 -0.33081128047E+01  0.38543113821E+03  0.66001366987E+03  0.76982898422E+03  0.91926680619E+02 0.  0.
        254    2    1    2    0    0  0.33081128047E+01 -0.38543113821E+03 -0.15843831336E+03  0.99148560055E+03  0.89965153867E+03 0.  0.
        -24    2    4    4    0    0  0.28840483984E+03 -0.12223404694E+03 -0.40989258895E+03  0.52207922045E+03  0.80226330341E+02 0.  0.
         24    2    4    4    0    0 -0.28509672703E+03 -0.26319709127E+03  0.25145427559E+03  0.46940638010E+03  0.80995335332E+02 0.  0.
         11    1    3    3    0    0  0.19188069938E+02  0.24169691711E+03  0.33302202042E+03  0.41193354786E+03  0.00000000000E+00 0. -1.
        -11    1    3    3    0    0 -0.22496182743E+02  0.14373422111E+03  0.32699164946E+03  0.35789543636E+03  0.00000000000E+00 0.  1.
          4    1    6    6  502    0 -0.80163770204E+02 -0.57237509877E+02  0.10523669422E+03  0.14414272233E+03  0.00000000000E+00 0. -1.
          3    1    5    5  503    0  0.10453673979E+02 -0.27878916616E+02 -0.40318542951E+02  0.50120835957E+02  0.00000000000E+00 0. -1.
         -2    1    5    5    0  503  0.27795116586E+03 -0.94355130329E+02 -0.36957404600E+03  0.47195838450E+03  0.00000000000E+00 0.  1.
         -3    1    6    6    0  502 -0.20493295683E+03 -0.20595958139E+03  0.14621758137E+03  0.32526365776E+03  0.00000000000E+00 0.  1.
<mgrwt>
<rscale>  0 0.16883872E+04</rscale>
<asrwt>0</asrwt>
<pdfrwt beam="1">  1        3 0.96903017E-01 0.16883872E+04</pdfrwt>
<pdfrwt beam="2">  1       -3 0.17406846E+00 0.16883872E+04</pdfrwt>
<totfact> 0.50877825E-01</totfact>
</mgrwt>
</event>
<event>
12    1  0.2083715E-007  0.1776262E+04  0.7818608E-02  0.8719026E-01
          2   -1    0    0  501    0  0.00000000000E+00  0.00000000000E+00  0.14434886600E+04  0.14434886600E+04  0.00000000000E+00 0.  1.
         -2   -1    0    0    0  501 -0.00000000000E+00 -0.00000000000E+00 -0.54643803306E+03  0.54643803306E+03  0.00000000000E+00 0. -1.
         23    2    1    2    0    0  0.43682369714E+02  0.46599866002E+03 -0.17936983655E+03  0.50923067825E+03  0.89885732179E+02 0.  0.
        254    2    1    2    0    0 -0.43682369714E+02 -0.46599866002E+03  0.10764204635E+04  0.14806960148E+04  0.90261662597E+03 0.  0.
        -24    2    4    4    0    0 -0.12272540644E+03 -0.64647920176E+03  0.10810308650E+04  0.12681275043E+04  0.80763558134E+02 0.  0.
         24    2    4    4    0    0  0.79043036722E+02  0.18048054174E+03 -0.46104015148E+01  0.21256851052E+03  0.79643507350E+02 0.  0.
         11    1    3    3    0    0  0.33172992366E+02  0.15844286396E+03 -0.10397597456E+03  0.19239436543E+03  0.00000000000E+00 0. -1.
        -11    1    3    3    0    0  0.10509377348E+02  0.30755579606E+03 -0.75393861995E+02  0.31683631283E+03  0.00000000000E+00 0.  1.
          4    1    6    6  502    0 -0.69097252182E+01  0.32209866378E+02 -0.23036122960E+02  0.40198044178E+02  0.00000000000E+00 0. -1.
          3    1    5    5  503    0 -0.41716361960E+02 -0.32557179818E+03  0.60568137915E+03  0.68890288407E+03  0.00000000000E+00 0. -1.
         -4    1    5    5    0  503 -0.81009044476E+02 -0.32090740357E+03  0.47534948587E+03  0.57922462022E+03  0.00000000000E+00 0.  1.
         -3    1    6    6    0  502  0.85952761940E+02  0.14827067536E+03  0.18425721445E+02  0.17237046635E+03  0.00000000000E+00 0.  1.
<mgrwt>
<rscale>  0 0.17762625E+04</rscale>
<asrwt>0</asrwt>
<pdfrwt beam="1">  1        2 0.22207518E+00 0.17762625E+04</pdfrwt>
<pdfrwt beam="2">  1       -2 0.84067390E-01 0.17762625E+04</pdfrwt>
<totfact> 0.15971640E+01</totfact>
</mgrwt>
</event>
<event>
12    1  0.2083715E-007  0.1748634E+04  0.7818608E-02  0.8734103E-01
          2   -1    0    0  501    0  0.00000000000E+00  0.00000000000E+00  0.67103344169E+03  0.67103344169E+03  0.00000000000E+00 0. -1.
         -2   -1    0    0    0  501 -0.00000000000E+00 -0.00000000000E+00 -0.11391829340E+04  0.11391829340E+04  0.00000000000E+00 0.  1.
         23    2    1    2    0    0  0.57061183380E+03 -0.21332621501E+03 -0.35850516035E+03  0.71292626020E+03  0.92908361308E+02 0.  0.
        254    2    1    2    0    0 -0.57061183380E+03  0.21332621501E+03 -0.10964433197E+03  0.10972901155E+04  0.90604513088E+03 0.  0.
        -24    2    4    4    0    0 -0.41720666552E+03  0.44739895010E+03  0.22221518984E+03  0.65577280906E+03  0.80194539677E+02 0.  0.
         24    2    4    4    0    0 -0.15340516828E+03 -0.23407273509E+03 -0.33185952181E+03  0.44151730646E+03  0.80520796784E+02 0.  0.
         11    1    3    3    0    0  0.26954100364E+03 -0.51482237789E+02 -0.16022357852E+03  0.31776464336E+03  0.00000000000E+00 0.  1.
        -11    1    3    3    0    0  0.30107083015E+03 -0.16184397722E+03 -0.19828158183E+03  0.39516161684E+03  0.00000000000E+00 0. -1.
          4    1    6    6  502    0 -0.15921994643E+03 -0.20068480207E+03 -0.27941469226E+03  0.37907512630E+03  0.00000000000E+00 0. -1.
          3    1    5    5  503    0 -0.19895877158E+03  0.27060213359E+03  0.11207810974E+03  0.35407853673E+03  0.00000000000E+00 0. -1.
         -4    1    5    5    0  503 -0.21824789395E+03  0.17679681651E+03  0.11013708010E+03  0.30169427232E+03  0.00000000000E+00 0.  1.
         -3    1    6    6    0  502  0.58147781574E+01 -0.33387933018E+02 -0.52444829553E+02  0.62442180159E+02  0.00000000000E+00 0.  1.
<mgrwt>
<rscale>  0 0.17486336E+04</rscale>
<asrwt>0</asrwt>
<pdfrwt beam="1">  1        2 0.10323591E+00 0.17486336E+04</pdfrwt>
<pdfrwt beam="2">  1       -2 0.17525891E+00 0.17486336E+04</pdfrwt>
<totfact> 0.80086329E+00</totfact>
</mgrwt>
</event>
<event>
12    1  0.2083715E-007  0.5178426E+04  0.7818608E-02  0.7801558E-01
         -2   -1    0    0    0  501 -0.00000000000E+00  0.00000000000E+00  0.20456512160E+04  0.20456512160E+04  0.00000000000E+00 0.  1.
          2   -1    0    0  501    0  0.00000000000E+00 -0.00000000000E+00 -0.32772078034E+04  0.32772078034E+04  0.00000000000E+00 0. -1.
         23    2    1    2    0    0 -0.20436314280E+04 -0.14568675047E+04 -0.59371078988E+03  0.25805405091E+04  0.88342954533E+02 0.  0.
        254    2    1    2    0    0  0.20436314280E+04  0.14568675047E+04 -0.63784579758E+03  0.27423185102E+04  0.90253598846E+03 0.  0.
        -24    2    4    4    0    0 -0.41758790367E+01  0.21796790417E+03 -0.20266630995E+03  0.30854361841E+03  0.81228603712E+02 0.  0.
         24    2    4    4    0    0  0.20478073070E+04  0.12388996005E+04 -0.43517948763E+03  0.24337748918E+04  0.74108371842E+02 0.  0.
         13    1    3    3    0    0 -0.12988701489E+04 -0.89692288207E+03 -0.33674126878E+03  0.16139792446E+04  0.00000000000E+00 0.  1.
        -13    1    3    3    0    0 -0.74476127914E+03 -0.55994462258E+03 -0.25696952111E+03  0.96656126450E+03  0.00000000000E+00 0. -1.
          4    1    6    6  502    0  0.24296909768E+03  0.12089779183E+03 -0.56721209216E+02  0.27724998480E+03  0.00000000000E+00 0. -1.
          3    1    5    5  503    0  0.33934426359E+02  0.15678687729E+03 -0.14494020325E+03  0.21619743916E+03  0.00000000000E+00 0. -1.
         -4    1    5    5    0  503 -0.38110305395E+02  0.61181026882E+02 -0.57726106703E+02  0.92346179254E+02  0.00000000000E+00 0.  1.
         -3    1    6    6    0  502  0.18048382094E+04  0.11180018087E+04 -0.37845827841E+03  0.21565249070E+04  0.00000000000E+00 0.  1.
<mgrwt>
<rscale>  0 0.51784261E+04</rscale>
<asrwt>0</asrwt>
<pdfrwt beam="1">  1        2 0.50418582E+00 0.51784261E+04</pdfrwt>
<pdfrwt beam="2">  1       -2 0.31471557E+00 0.51784261E+04</pdfrwt>
<totfact> 0.21345602E-02</totfact>
</mgrwt>
</event>
<event>
12    1  0.2083715E-007  0.2467940E+04  0.7818608E-02  0.8414497E-01
          1   -1    0    0  501    0  0.00000000000E+00  0.00000000000E+00  0.38293208024E+04  0.38293208024E+04  0.00000000000E+00 0. -1.
         -1   -1    0    0    0  501 -0.00000000000E+00 -0.00000000000E+00 -0.39763768536E+03  0.39763768536E+03  0.00000000000E+00 0.  1.
         23    2    1    2    0    0  0.23192150957E+03  0.74457089424E+03  0.23822283361E+03  0.82058562713E+03  0.91854503687E+02 0.  0.
        254    2    1    2    0    0 -0.23192150957E+03 -0.74457089424E+03  0.31934602835E+04  0.34063728607E+04  0.89275645093E+03 0.  0.
        -24    2    4    4    0    0  0.24620852543E+03 -0.41895444289E+03  0.77257820972E+03  0.91606679503E+03  0.78484518311E+02 0.  0.
         24    2    4    4    0    0 -0.47813003500E+03 -0.32561645134E+03  0.24208820737E+04  0.24903060656E+04  0.79497684283E+02 0.  0.
         11    1    3    3    0    0  0.61598930228E+02  0.26305718463E+03  0.41895116101E+02  0.27340210560E+03  0.00000000000E+00 0.  1.
        -11    1    3    3    0    0  0.17032257934E+03  0.48151370961E+03  0.19632771751E+03  0.54718352153E+03  0.00000000000E+00 0. -1.
          2    1    6    6  502    0 -0.20998672259E+03 -0.14431002864E+03  0.90068019415E+03  0.93602597195E+03  0.00000000000E+00 0. -1.
          3    1    5    5  503    0  0.10840681977E+03 -0.25290310022E+03  0.46578195006E+03  0.54098506604E+03  0.00000000000E+00 0. -1.
         -2    1    5    5    0  503  0.13780170565E+03 -0.16605134268E+03  0.30679625966E+03  0.37508172899E+03  0.00000000000E+00 0.  1.
         -1    1    6    6    0  502 -0.26814331240E+03 -0.18130642271E+03  0.15202018796E+04  0.15542800937E+04  0.00000000000E+00 0.  1.
<mgrwt>
<rscale>  0 0.24679402E+04</rscale>
<asrwt>0</asrwt>
<pdfrwt beam="1">  1        1 0.58912625E+00 0.24679402E+04</pdfrwt>
<pdfrwt beam="2">  1       -1 0.61175031E-01 0.24679402E+04</pdfrwt>
<totfact> 0.32579986E-01</totfact>
</mgrwt>
</event>
<event>
12    1  0.2083715E-007  0.2417246E+04  0.7818608E-02  0.8433075E-01
         -2   -1    0    0    0  501 -0.00000000000E+00  0.00000000000E+00  0.85957672154E+03  0.85957672154E+03  0.00000000000E+00 0.  1.
          2   -1    0    0  501    0  0.00000000000E+00 -0.00000000000E+00 -0.16994063349E+04  0.16994063349E+04  0.00000000000E+00 0. -1.
         23    2    1    2    0    0 -0.96796169123E+03  0.27659482457E+03 -0.63263664919E+03  0.11923376482E+04  0.89361092471E+02 0.  0.
        254    2    1    2    0    0  0.96796169123E+03 -0.27659482457E+03 -0.20719296412E+03  0.13666454082E+04  0.90074203554E+03 0.  0.
        -24    2    4    4    0    0  0.31736497016E+01  0.75775028953E+02 -0.31170227954E+03  0.33107539148E+03  0.81857661251E+02 0.  0.
         24    2    4    4    0    0  0.96478804152E+03 -0.35236985353E+03  0.10450931542E+03  0.10355700167E+04  0.80638599215E+02 0.  0.
         11    1    3    3    0    0 -0.81488991292E+03  0.21655432790E+03 -0.56247858966E+03  0.10135696873E+04  0.00000000000E+00 0. -1.
        -11    1    3    3    0    0 -0.15307177831E+03  0.60040496676E+02 -0.70158059530E+02  0.17876796098E+03  0.00000000000E+00 0.  1.
          4    1    6    6  502    0  0.63998248092E+03 -0.20431452374E+03  0.94969879443E+02  0.67848454551E+03  0.00000000000E+00 0. -1.
          1    1    5    5  503    0  0.15225007855E+02  0.20602688403E+02 -0.23190889815E+03  0.23331954199E+03  0.00000000000E+00 0. -1.
         -2    1    5    5    0  503 -0.12051358154E+02  0.55172340550E+02 -0.79793381395E+02  0.97755849490E+02  0.00000000000E+00 0.  1.
         -3    1    6    6    0  502  0.32480556060E+03 -0.14805532979E+03  0.95394359782E+01  0.35708547116E+03  0.00000000000E+00 0.  1.
<mgrwt>
<rscale>  0 0.24172465E+04</rscale>
<asrwt>0</asrwt>
<pdfrwt beam="1">  1        2 0.26144713E+00 0.24172465E+04</pdfrwt>
<pdfrwt beam="2">  1       -2 0.13224257E+00 0.24172465E+04</pdfrwt>
<totfact> 0.36652865E+00</totfact>
</mgrwt>
</event>
<event>
12    1  0.2083715E-007  0.1247614E+04  0.7818608E-02  0.9072171E-01
          2   -1    0    0  501    0  0.00000000000E+00  0.00000000000E+00  0.44760024550E+04  0.44760024550E+04  0.00000000000E+00 0. -1.
         -2   -1    0    0    0  501 -0.00000000000E+00 -0.00000000000E+00 -0.86938137921E+02  0.86938137921E+02  0.00000000000E+00 0.  1.
         23    2    1    2    0    0  0.19239474729E+03  0.47499789964E+02  0.18299651450E+04  0.18421903798E+04  0.74973291594E+02 0.  0.
        254    2    1    2    0    0 -0.19239474729E+03 -0.47499789964E+02  0.25590991720E+04  0.27207502131E+04  0.90234205330E+03 0.  0.
        -24    2    4    4    0    0 -0.32862621100E+03 -0.39787042551E+03  0.12114547310E+04  0.13191352520E+04  0.78734908278E+02 0.  0.
         24    2    4    4    0    0  0.13623146371E+03  0.35037063555E+03  0.13476444411E+04  0.14016149611E+04  0.84025983188E+02 0.  0.
         13    1    3    3    0    0  0.28539981078E+02  0.32016893939E+02  0.24744343715E+03  0.25113316509E+03  0.00000000000E+00 0.  1.
        -13    1    3    3    0    0  0.16385476621E+03  0.15482896025E+02  0.15825217079E+04  0.15910572147E+04  0.00000000000E+00 0. -1.
          2    1    6    6  502    0 -0.11264518356E+02  0.19179145190E+02  0.64069954457E+02  0.67821000053E+02  0.00000000000E+00 0. -1.
          3    1    5    5  503    0 -0.85600834750E+02 -0.14777406385E+03  0.46094749956E+03  0.49156614429E+03  0.00000000000E+00 0. -1.
         -4    1    5    5    0  503 -0.24302537625E+03 -0.25009636166E+03  0.75050723143E+03  0.82756910771E+03  0.00000000000E+00 0.  1.
         -1    1    6    6    0  502  0.14749598207E+03  0.33119149036E+03  0.12835744866E+04  0.13337939611E+04  0.00000000000E+00 0.  1.
<mgrwt>
<rscale>  0 0.12476142E+04</rscale>
<asrwt>0</asrwt>
<pdfrwt beam="1">  1        2 0.68861558E+00 0.12476142E+04</pdfrwt>
<pdfrwt beam="2">  1       -2 0.13375102E-01 0.12476142E+04</pdfrwt>
<totfact> 0.57344187E+00</totfact>
</mgrwt>
</event>
<event>
12    1  0.2083715E-007  0.3992662E+04  0.7818608E-02  0.8006029E-01
         -1   -1    0    0    0  501 -0.00000000000E+00  0.00000000000E+00  0.10595031083E+04  0.10595031083E+04  0.00000000000E+00 0.  1.
          1   -1    0    0  501    0  0.00000000000E+00 -0.00000000000E+00 -0.37615149917E+04  0.37615149917E+04  0.00000000000E+00 0. -1.
         23    2    1    2    0    0  0.59638884414E+03 -0.15091796056E+04 -0.96853062520E+02  0.16282408845E+04  0.92114747724E+02 0.  0.
        254    2    1    2    0    0 -0.59638884414E+03  0.15091796056E+04 -0.26051588209E+04  0.31927772155E+04  0.87958577188E+03 0.  0.
        -24    2    4    4    0    0 -0.73959352952E+03  0.98372014186E+03 -0.21467411488E+04  0.24758763179E+04  0.82231836334E+02 0.  0.
         24    2    4    4    0    0  0.14320468537E+03  0.52545946377E+03 -0.45841767207E+03  0.71690089761E+03  0.84763818592E+02 0.  0.
         11    1    3    3    0    0  0.56680312429E+03 -0.13707168658E+04 -0.99623471104E+02  0.14866254888E+04  0.00000000000E+00 0. -1.
        -11    1    3    3    0    0  0.29585719858E+02 -0.13846273979E+03  0.27704085834E+01  0.14161539567E+03  0.00000000000E+00 0.  1.
          2    1    6    6  502    0  0.20601552977E+02  0.18735961278E+03 -0.19421694265E+03  0.27064417470E+03  0.00000000000E+00 0. -1.
          3    1    5    5  503    0 -0.23118048455E+03  0.25035673834E+03 -0.61986682364E+03  0.70735973303E+03  0.00000000000E+00 0. -1.
         -2    1    5    5    0  503 -0.50841304497E+03  0.73336340352E+03 -0.15268743252E+04  0.17685165848E+04  0.00000000000E+00 0.  1.
         -1    1    6    6    0  502  0.12260313240E+03  0.33809985099E+03 -0.26420072942E+03  0.44625672291E+03  0.00000000000E+00 0.  1.
<mgrwt>
<rscale>  0 0.39926617E+04</rscale>
<asrwt>0</asrwt>
<pdfrwt beam="1">  1        1 0.57869461E+00 0.39926617E+04</pdfrwt>
<pdfrwt beam="2">  1       -1 0.16300048E+00 0.39926617E+04</pdfrwt>
<totfact> 0.33260070E-02</totfact>
</mgrwt>
</event>
<event>
12    1  0.2083715E-007  0.2212426E+04  0.7818608E-02  0.8513274E-01
         -1   -1    0    0    0  501 -0.00000000000E+00  0.00000000000E+00  0.85345488574E+03  0.85345488574E+03  0.00000000000E+00 0.  1.
          1   -1    0    0  501    0  0.00000000000E+00 -0.00000000000E+00 -0.14338278298E+04  0.14338278298E+04  0.00000000000E+00 0. -1.
         23    2    1    2    0    0  0.79948234251E+03 -0.42317833329E+02  0.22310782364E+03  0.83613306113E+03  0.91534583253E+02 0.  0.
        254    2    1    2    0    0 -0.79948234251E+03  0.42317833329E+02 -0.80348076776E+03  0.14511496545E+04  0.90514703804E+03 0.  0.
        -24    2    4    4    0    0 -0.19552648923E+03  0.29714399221E+03  0.54177755319E+02  0.36826962664E+03  0.78499226977E+02 0.  0.
         24    2    4    4    0    0 -0.60395585328E+03 -0.25482615888E+03 -0.85765852307E+03  0.10828800278E+04  0.85743620646E+02 0.  0.
         11    1    3    3    0    0  0.13073538978E+03 -0.51239387647E+01  0.72681306473E+02  0.14966819703E+03  0.00000000000E+00 0. -1.
        -11    1    3    3    0    0  0.66874695273E+03 -0.37193894564E+02  0.15042651717E+03  0.68646486410E+03  0.00000000000E+00 0.  1.
          4    1    6    6  502    0 -0.49174266673E+03 -0.22410219827E+03 -0.74968434912E+03  0.92415327131E+03  0.00000000000E+00 0. -1.
          1    1    5    5  503    0 -0.16999131310E+03  0.29050754977E+03  0.41956988376E+02  0.33919326626E+03  0.00000000000E+00 0. -1.
         -2    1    5    5    0  503 -0.25535176136E+02  0.66364424457E+01  0.12220766943E+02  0.29076360386E+02  0.00000000000E+00 0.  1.
         -3    1    6    6    0  502 -0.11221318654E+03 -0.30723960619E+02 -0.10797417395E+03  0.15872675651E+03  0.00000000000E+00 0.  1.
<mgrwt>
<rscale>  0 0.22124261E+04</rscale>
<asrwt>0</asrwt>
<pdfrwt beam="1">  1        1 0.22058890E+00 0.22124261E+04</pdfrwt>
<pdfrwt beam="2">  1       -1 0.13130075E+00 0.22124261E+04</pdfrwt>
<totfact> 0.32762230E+00</totfact>
</mgrwt>
</event>
<event>
12    1  0.2083715E-007  0.1354233E+04  0.7818608E-02  0.8987630E-01
         -2   -1    0    0    0  501 -0.00000000000E+00  0.00000000000E+00  0.43001932163E+03  0.43001932163E+03  0.00000000000E+00 0.  1.
          2   -1    0    0  501    0  0.00000000000E+00 -0.00000000000E+00 -0.10662002209E+04  0.10662002209E+04  0.00000000000E+00 0. -1.
         23    2    1    2    0    0  0.26083041024E+03  0.20588705127E+02 -0.47081545728E+03  0.54449974830E+03  0.79726930172E+02 0.  0.
        254    2    1    2    0    0 -0.26083041024E+03 -0.20588705127E+02 -0.16536544199E+03  0.95171979424E+03  0.89998246631E+03 0.  0.
        -24    2    4    4    0    0 -0.36495171995E+03 -0.12968320021E+03  0.27360374850E+03  0.48070778104E+03  0.78825562141E+02 0.  0.
         24    2    4    4    0    0  0.10412130972E+03  0.10909449508E+03 -0.43896919049E+03  0.47101201320E+03  0.80096881244E+02 0.  0.
         11    1    3    3    0    0  0.71501974438E+02  0.11847070354E+02 -0.68268837448E+02  0.99566659033E+02  0.00000000000E+00 0.  1.
        -11    1    3    3    0    0  0.18932843580E+03  0.87416347728E+01 -0.40254661983E+03  0.44493308926E+03  0.00000000000E+00 0. -1.
          4    1    6    6  502    0  0.20005641774E+02  0.22505178879E+02 -0.23031032874E+02  0.37909593171E+02  0.00000000000E+00 0. -1.
          1    1    5    5  503    0 -0.88303367121E+02 -0.67835018290E+02  0.67325557021E+02  0.13012226934E+03  0.00000000000E+00 0. -1.
         -2    1    5    5    0  503 -0.27664835283E+03 -0.61848181922E+02  0.20627819148E+03  0.35058551170E+03  0.00000000000E+00 0.  1.
         -3    1    6    6    0  502  0.84115667942E+02  0.86589316205E+02 -0.41593815762E+03  0.43310242003E+03  0.00000000000E+00 0.  1.
<mgrwt>
<rscale>  0 0.13542329E+04</rscale>
<asrwt>0</asrwt>
<pdfrwt beam="1">  1        2 0.16403080E+00 0.13542329E+04</pdfrwt>
<pdfrwt beam="2">  1       -2 0.66156819E-01 0.13542329E+04</pdfrwt>
<totfact> 0.46934699E+01</totfact>
</mgrwt>
</event>
<event>
12    1  0.2083715E-007  0.1245503E+04  0.7818608E-02  0.9073935E-01
         -2   -1    0    0    0  501 -0.00000000000E+00  0.00000000000E+00  0.72375470915E+03  0.72375470915E+03  0.00000000000E+00 0.  1.
          2   -1    0    0  501    0  0.00000000000E+00 -0.00000000000E+00 -0.53584347476E+03  0.53584347476E+03  0.00000000000E+00 0. -1.
         23    2    1    2    0    0  0.14034912552E+03  0.22318444421E+03 -0.76373545742E+02  0.28910478370E+03  0.90771605133E+02 0.  0.
        254    2    1    2    0    0 -0.14034912552E+03 -0.22318444421E+03  0.26428478013E+03  0.97049340021E+03  0.89582466012E+03 0.  0.
        -24    2    4    4    0    0 -0.50626196635E+03 -0.10685027472E+03  0.55171321148E+02  0.52613259009E+03  0.77804035212E+02 0.  0.
         24    2    4    4    0    0  0.36591284083E+03 -0.11633416949E+03  0.20911345898E+03  0.44436081013E+03  0.79386678821E+02 0.  0.
         13    1    3    3    0    0  0.88773202877E+02  0.15919311839E+03 -0.93946213576E+02  0.20505858074E+03  0.00000000000E+00 0. -1.
        -13    1    3    3    0    0  0.51575922642E+02  0.63991325819E+02  0.17572667834E+02  0.84046202955E+02  0.00000000000E+00 0.  1.
          4    1    6    6  502    0  0.14916139816E+03 -0.37888621826E+02  0.12742458408E+03  0.19980414158E+03  0.00000000000E+00 0. -1.
          1    1    5    5  503    0 -0.33424538597E+03 -0.82672186998E+02  0.14945457060E+01  0.34432092909E+03  0.00000000000E+00 0. -1.
         -2    1    5    5    0  503 -0.17201658038E+03 -0.24178087719E+02  0.53676775442E+02  0.18181166099E+03  0.00000000000E+00 0.  1.
         -3    1    6    6    0  502  0.21675144267E+03 -0.78445547665E+02  0.81688874900E+02  0.24455666854E+03  0.00000000000E+00 0.  1.
<mgrwt>
<rscale>  0 0.12455027E+04</rscale>
<asrwt>0</asrwt>
<pdfrwt beam="1">  1        2 0.82437457E-01 0.12455027E+04</pdfrwt>
<pdfrwt beam="2">  1       -2 0.11134688E+00 0.12455027E+04</pdfrwt>
<totfact> 0.35630371E+01</totfact>
</mgrwt>
</event>
<event>
12    1  0.2083715E-007  0.3766575E+04  0.7818608E-02  0.8053366E-01
          2   -1    0    0  501    0  0.00000000000E+00  0.00000000000E+00  0.14088671396E+04  0.14088671396E+04  0.00000000000E+00 0. -1.
         -2   -1    0    0    0  501 -0.00000000000E+00 -0.00000000000E+00 -0.25174637638E+04  0.25174637638E+04  0.00000000000E+00 0.  1.
         23    2    1    2    0    0 -0.36271498240E+03 -0.17210039401E+04 -0.26475978803E+03  0.17811762221E+04  0.95258956117E+02 0.  0.
        254    2    1    2    0    0  0.36271498240E+03  0.17210039401E+04 -0.84383683623E+03  0.21451546813E+04  0.89230671867E+03 0.  0.
        -24    2    4    4    0    0 -0.16831846380E+03  0.75943377215E+02  0.34918050897E+02  0.20424200069E+03  0.79981390129E+02 0.  0.
         24    2    4    4    0    0  0.53103344620E+03  0.16450605629E+04 -0.87875488712E+03  0.19409126806E+04  0.81921337514E+02 0.  0.
         13    1    3    3    0    0 -0.28537299884E+03 -0.13940442855E+04 -0.17699120781E+03  0.14339187934E+04  0.00000000000E+00 0. -1.
        -13    1    3    3    0    0 -0.77341983567E+02 -0.32695965457E+03 -0.87768580222E+02  0.34725742874E+03  0.00000000000E+00 0.  1.
          2    1    6    6  502    0  0.35396240997E+03  0.11248388086E+04 -0.55741534614E+03  0.13043249599E+04  0.00000000000E+00 0. -1.
          1    1    5    5  503    0 -0.17007368350E+03  0.61684751184E+02  0.17641360431E+02  0.18177261605E+03  0.00000000000E+00 0. -1.
         -2    1    5    5    0  503  0.17552196994E+01  0.14258626032E+02  0.17276690466E+02  0.22469384637E+02  0.00000000000E+00 0.  1.
         -1    1    6    6    0  502  0.17707103623E+03  0.52022175429E+03 -0.32133954099E+03  0.63658772067E+03  0.00000000000E+00 0.  1.
<mgrwt>
<rscale>  0 0.37665751E+04</rscale>
<asrwt>0</asrwt>
<pdfrwt beam="1">  1        2 0.21674879E+00 0.37665751E+04</pdfrwt>
<pdfrwt beam="2">  1       -2 0.38730212E+00 0.37665751E+04</pdfrwt>
<totfact> 0.10319787E-01</totfact>
</mgrwt>
</event>
<event>
12    1  0.2083715E-007  0.1333494E+04  0.7818608E-02  0.9003418E-01
         -1   -1    0    0    0  501 -0.00000000000E+00  0.00000000000E+00  0.74464123559E+03  0.74464123559E+03  0.00000000000E+00 0.  1.
          1   -1    0    0  501    0  0.00000000000E+00 -0.00000000000E+00 -0.59700121528E+03  0.59700121528E+03  0.00000000000E+00 0. -1.
         23    2    1    2    0    0  0.32456306281E+03 -0.55425378333E+02  0.18293892908E+03  0.38775690034E+03  0.92063063636E+02 0.  0.
        254    2    1    2    0    0 -0.32456306281E+03  0.55425378333E+02 -0.35298908766E+02  0.95388555052E+03  0.89456049333E+03 0.  0.
        -24    2    4    4    0    0 -0.26787222998E+03 -0.39962731565E+03 -0.85354085097E+01  0.48782120256E+03  0.80244311089E+02 0.  0.
         24    2    4    4    0    0 -0.56690832828E+02  0.45505269398E+03 -0.26763500256E+02  0.46606434796E+03  0.78821866692E+02 0.  0.
         11    1    3    3    0    0  0.21833323498E+03 -0.54815242917E+02  0.16710071390E+03  0.28035113864E+03  0.00000000000E+00 0.  1.
        -11    1    3    3    0    0  0.10622982783E+03 -0.61013541595E+00  0.15838215182E+02  0.10740576170E+03  0.00000000000E+00 0. -1.
          2    1    6    6  502    0 -0.63974199864E+02  0.35000649584E+03 -0.46821642120E+02  0.35887255613E+03  0.00000000000E+00 0. -1.
          3    1    5    5  503    0 -0.21559933439E+03 -0.35908095160E+03 -0.25226118199E+02  0.41959332672E+03  0.00000000000E+00 0. -1.
         -4    1    5    5    0  503 -0.52272895599E+02 -0.40546364046E+02  0.16690709690E+02  0.68227875839E+02  0.00000000000E+00 0.  1.
         -1    1    6    6    0  502  0.72833670359E+01  0.10504619815E+03  0.20058141864E+02  0.10719179183E+03  0.00000000000E+00 0.  1.
<mgrwt>
<rscale>  0 0.13334942E+04</rscale>
<asrwt>0</asrwt>
<pdfrwt beam="1">  1        1 0.91846341E-01 0.13334942E+04</pdfrwt>
<pdfrwt beam="2">  1       -1 0.11456019E+00 0.13334942E+04</pdfrwt>
<totfact> 0.23431634E+01</totfact>
</mgrwt>
</event>
<event>
12    1  0.2083715E-007  0.5920902E+04  0.7818608E-02  0.7700287E-01
         -1   -1    0    0    0  501 -0.00000000000E+00  0.00000000000E+00  0.21787785093E+04  0.21787785093E+04  0.00000000000E+00 0.  1.
          1   -1    0    0  501    0  0.00000000000E+00 -0.00000000000E+00 -0.40225618030E+04  0.40225618030E+04  0.00000000000E+00 0. -1.
         23    2    1    2    0    0 -0.18932203510E+04  0.39468312803E+03 -0.31520136155E+04  0.36990901748E+04  0.89555682519E+02 0.  0.
        254    2    1    2    0    0  0.18932203510E+04 -0.39468312803E+03  0.13082303218E+04  0.25022501375E+04  0.89985060241E+03 0.  0.
        -24    2    4    4    0    0  0.18263421067E+04 -0.31150247423E+03  0.87837974054E+03  0.20520641645E+04  0.82807514948E+02 0.  0.
         24    2    4    4    0    0  0.66878244241E+02 -0.83180653802E+02  0.42985058125E+03  0.45018597292E+03  0.80648417755E+02 0.  0.
         13    1    3    3    0    0 -0.84170318576E+03  0.14070714553E+03 -0.14448598506E+04  0.16780592188E+04  0.00000000000E+00 0. -1.
        -13    1    3    3    0    0 -0.10515171652E+04  0.25397598250E+03 -0.17071537649E+04  0.20210309560E+04  0.00000000000E+00 0.  1.
          4    1    6    6  502    0  0.15734540401E+02 -0.80383328787E+02  0.28550585761E+03  0.29702297897E+03  0.00000000000E+00 0. -1.
          3    1    5    5  503    0  0.88339096986E+03 -0.16988391906E+03  0.46714169058E+03  0.10136377611E+04  0.00000000000E+00 0. -1.
         -4    1    5    5    0  503  0.94295113687E+03 -0.14161855517E+03  0.41123804996E+03  0.10384264035E+04  0.00000000000E+00 0.  1.
         -3    1    6    6    0  502  0.51143703840E+02 -0.27973250150E+01  0.14434472364E+03  0.15316299394E+03  0.00000000000E+00 0.  1.
<mgrwt>
<rscale>  0 0.59209024E+04</rscale>
<asrwt>0</asrwt>
<pdfrwt beam="1">  1        1 0.61885566E+00 0.59209024E+04</pdfrwt>
<pdfrwt beam="2">  1       -1 0.33519669E+00 0.59209024E+04</pdfrwt>
<totfact> 0.11939719E-03</totfact>
</mgrwt>
</event>
<event>
12    1  0.2083715E-007  0.3445710E+04  0.7818608E-02  0.8126778E-01
          1   -1    0    0  501    0  0.00000000000E+00  0.00000000000E+00  0.25590863439E+04  0.25590863439E+04  0.00000000000E+00 0. -1.
         -1   -1    0    0    0  501 -0.00000000000E+00 -0.00000000000E+00 -0.11598786546E+04  0.11598786546E+04  0.00000000000E+00 0.  1.
         23    2    1    2    0    0  0.15979136580E+04  0.97417753465E+02  0.53879311474E+03  0.16908894641E+04  0.77400789164E+02 0.  0.
        254    2    1    2    0    0 -0.15979136580E+04 -0.97417753465E+02  0.86041457452E+03  0.20280755343E+04  0.89997714180E+03 0.  0.
        -24    2    4    4    0    0 -0.29147060199E+03  0.26410207715E+03  0.46271361899E+03  0.61321159230E+03  0.84967904264E+02 0.  0.
         24    2    4    4    0    0 -0.13064430560E+04 -0.36151983062E+03  0.39770095553E+03  0.14148639420E+04  0.78637636492E+02 0.  0.
         13    1    3    3    0    0  0.80799259546E+03  0.12613304438E+02  0.28501638325E+03  0.85688124526E+03  0.00000000000E+00 0. -1.
        -13    1    3    3    0    0  0.78992106256E+03  0.84804449027E+02  0.25377673148E+03  0.83400821884E+03  0.00000000000E+00 0.  1.
          2    1    6    6  502    0 -0.66730985496E+03 -0.16594222681E+03  0.16526518235E+03  0.70721414413E+03  0.00000000000E+00 0. -1.
          1    1    5    5  503    0 -0.19645638548E+02  0.18465133000E+02  0.58447093065E+01  0.27587549321E+02  0.00000000000E+00 0. -1.
         -4    1    5    5    0  503 -0.27182496344E+03  0.24563694415E+03  0.45686890968E+03  0.58562404298E+03  0.00000000000E+00 0.  1.
         -1    1    6    6    0  502 -0.63913320107E+03 -0.19557760381E+03  0.23243577318E+03  0.70764979791E+03  0.00000000000E+00 0.  1.
<mgrwt>
<rscale>  0 0.34457102E+04</rscale>
<asrwt>0</asrwt>
<pdfrwt beam="1">  1        1 0.39370559E+00 0.34457102E+04</pdfrwt>
<pdfrwt beam="2">  1       -1 0.17844287E+00 0.34457102E+04</pdfrwt>
<totfact> 0.21563417E-01</totfact>
</mgrwt>
</event>
<event>
12    1  0.2083715E-007  0.2103368E+04  0.7818608E-02  0.8559761E-01
          2   -1    0    0  501    0  0.00000000000E+00  0.00000000000E+00  0.21498611132E+04  0.21498611132E+04  0.00000000000E+00 0.  1.
         -2   -1    0    0    0  501 -0.00000000000E+00 -0.00000000000E+00 -0.51446996742E+03  0.51446996742E+03  0.00000000000E+00 0. -1.
         23    2    1    2    0    0 -0.46445307736E+03  0.62935208725E+03  0.11167690064E+04  0.13666611006E+04  0.93748811089E+02 0.  0.
        254    2    1    2    0    0  0.46445307736E+03 -0.62935208725E+03  0.51862213943E+03  0.12976699800E+04  0.89620184262E+03 0.  0.
        -24    2    4    4    0    0  0.95875087197E+02 -0.77475518287E+03  0.35240845053E+03  0.86027331811E+03  0.80254844790E+02 0.  0.
         24    2    4    4    0    0  0.36857799017E+03  0.14540309563E+03  0.16621368889E+03  0.43739666190E+03  0.81835532695E+02 0.  0.
         13    1    3    3    0    0 -0.15248939753E+03  0.18156869445E+03  0.27077981028E+03  0.35991931432E+03  0.00000000000E+00 0.  1.
        -13    1    3    3    0    0 -0.31196367983E+03  0.44778339280E+03  0.84598919607E+03  0.10067417863E+04  0.00000000000E+00 0. -1.
          4    1    6    6  502    0  0.27578431164E+03  0.69451781167E+02  0.12425167251E+03  0.31035304828E+03  0.00000000000E+00 0. -1.
          3    1    5    5  503    0  0.78413203584E+02 -0.74706810072E+03  0.34549816656E+03  0.82681821503E+03  0.00000000000E+00 0. -1.
         -4    1    5    5    0  503  0.17461883613E+02 -0.27687082149E+02  0.69102839711E+01  0.33455103076E+02  0.00000000000E+00 0.  1.
         -3    1    6    6    0  502  0.92793678521E+02  0.75951314460E+02  0.41962016386E+02  0.12704361362E+03  0.00000000000E+00 0.  1.
<mgrwt>
<rscale>  0 0.21033678E+04</rscale>
<asrwt>0</asrwt>
<pdfrwt beam="1">  1        2 0.33074786E+00 0.21033678E+04</pdfrwt>
<pdfrwt beam="2">  1       -2 0.79149227E-01 0.21033678E+04</pdfrwt>
<totfact> 0.71870851E+00</totfact>
</mgrwt>
</event>
<event>
12    1  0.2083715E-007  0.2786604E+04  0.7818608E-02  0.8307440E-01
         -1   -1    0    0    0  501 -0.00000000000E+00  0.00000000000E+00  0.83614401933E+03  0.83614401933E+03  0.00000000000E+00 0.  1.
          1   -1    0    0  501    0  0.00000000000E+00 -0.00000000000E+00 -0.23217169842E+04  0.23217169842E+04  0.00000000000E+00 0. -1.
         23    2    1    2    0    0 -0.84214575980E+03 -0.42892541362E+03  0.25484660750E+03  0.98316909147E+03  0.92131307796E+02 0.  0.
        254    2    1    2    0    0  0.84214575980E+03  0.42892541362E+03 -0.17404195724E+04  0.21746919121E+04  0.89835301154E+03 0.  0.
        -24    2    4    4    0    0  0.34281884166E+03  0.34906856421E+03 -0.15517657732E+04  0.16291509939E+04  0.82354875631E+02 0.  0.
         24    2    4    4    0    0  0.49932691814E+03  0.79856849408E+02 -0.18865379923E+03  0.54554091816E+03  0.79499370108E+02 0.  0.
         13    1    3    3    0    0 -0.31424688595E+03 -0.11083452791E+03  0.86487047282E+02  0.34426066760E+03  0.00000000000E+00 0.  1.
        -13    1    3    3    0    0 -0.52789887385E+03 -0.31809088571E+03  0.16835956021E+03  0.63890842388E+03  0.00000000000E+00 0. -1.
          2    1    6    6  502    0  0.82706681457E+02 -0.62667354995E+01 -0.55350968531E+02  0.99716582617E+02  0.00000000000E+00 0. -1.
          1    1    5    5  503    0  0.13584508659E+03  0.11636939781E+03 -0.45094427345E+03  0.48512520245E+03  0.00000000000E+00 0. -1.
         -2    1    5    5    0  503  0.20697375507E+03  0.23269916641E+03 -0.11008214997E+04  0.11440257915E+04  0.00000000000E+00 0.  1.
         -1    1    6    6    0  502  0.41662023668E+03  0.86123584907E+02 -0.13330283070E+03  0.44582433554E+03  0.00000000000E+00 0.  1.
<mgrwt>
<rscale>  0 0.27866035E+04</rscale>
<asrwt>0</asrwt>
<pdfrwt beam="1">  1        1 0.35718722E+00 0.27866035E+04</pdfrwt>
<pdfrwt beam="2">  1       -1 0.12863754E+00 0.27866035E+04</pdfrwt>
<totfact> 0.81153607E-01</totfact>
</mgrwt>
</event>
<event>
12    1  0.2083715E-007  0.2936738E+04  0.7818608E-02  0.8262030E-01
         -3   -1    0    0    0  501 -0.00000000000E+00  0.00000000000E+00  0.17978167772E+04  0.17978167772E+04  0.00000000000E+00 0.  1.
          3   -1    0    0  501    0  0.00000000000E+00 -0.00000000000E+00 -0.11992917834E+04  0.11992917834E+04  0.00000000000E+00 0. -1.
         23    2    1    2    0    0 -0.62331185538E+03 -0.41042671600E+03  0.13962922671E+04  0.15860335281E+04  0.94353054690E+02 0.  0.
        254    2    1    2    0    0  0.62331185538E+03  0.41042671600E+03 -0.79776727327E+03  0.14110750325E+04  0.89315864591E+03 0.  0.
        -24    2    4    4    0    0 -0.78353307720E+02 -0.19231986409E+03 -0.24273920976E+03  0.32942414748E+03  0.80447337041E+02 0.  0.
         24    2    4    4    0    0  0.70166516310E+03  0.60274658009E+03 -0.55502806351E+03  0.10816508850E+04  0.79215180641E+02 0.  0.
         11    1    3    3    0    0 -0.24245439869E+03 -0.17931539064E+03  0.65675967471E+03  0.72268348195E+03  0.00000000000E+00 0.  1.
        -11    1    3    3    0    0 -0.38085745669E+03 -0.23111132536E+03  0.73953259239E+03  0.86335004618E+03  0.00000000000E+00 0. -1.
          4    1    6    6  502    0  0.79593190732E+02  0.97383671749E+02 -0.57381494313E+02  0.13824359451E+03  0.00000000000E+00 0. -1.
          1    1    5    5  503    0 -0.61227551673E+02 -0.10297109835E+03 -0.18897851557E+03  0.22375151291E+03  0.00000000000E+00 0. -1.
         -2    1    5    5    0  503 -0.17125756047E+02 -0.89348765739E+02 -0.53760694184E+02  0.10567263458E+03  0.00000000000E+00 0.  1.
         -3    1    6    6    0  502  0.62207197237E+03  0.50536290834E+03 -0.49764656920E+03  0.94340729050E+03  0.00000000000E+00 0.  1.
<mgrwt>
<rscale>  0 0.29367376E+04</rscale>
<asrwt>0</asrwt>
<pdfrwt beam="1">  1        3 0.18450643E+00 0.29367376E+04</pdfrwt>
<pdfrwt beam="2">  1       -3 0.27658720E+00 0.29367376E+04</pdfrwt>
<totfact> 0.21308764E-02</totfact>
</mgrwt>
</event>
<event>
12    1  0.2083715E-007  0.1436040E+04  0.7818608E-02  0.8928136E-01
         -2   -1    0    0    0  501 -0.00000000000E+00  0.00000000000E+00  0.56156542299E+03  0.56156542299E+03  0.00000000000E+00 0. -1.
          2   -1    0    0  501    0  0.00000000000E+00 -0.00000000000E+00 -0.91806382945E+03  0.91806382945E+03  0.00000000000E+00 0.  1.
         23    2    1    2    0    0  0.63341184376E+02 -0.37385347987E+03  0.97484902809E+02  0.40191978454E+03  0.90871760611E+02 0.  0.
        254    2    1    2    0    0 -0.63341184376E+02  0.37385347987E+03 -0.45398330927E+03  0.10777094679E+04  0.90087641887E+03 0.  0.
        -24    2    4    4    0    0 -0.31897918695E+03  0.39381823951E+03  0.40981738452E+02  0.51510328105E+03  0.82530962574E+02 0.  0.
         24    2    4    4    0    0  0.25563800257E+03 -0.19964759636E+02 -0.49496504772E+03  0.56260618686E+03  0.76065386649E+02 0.  0.
         13    1    3    3    0    0  0.77019505914E+02 -0.23943484395E+03  0.88025956619E+02  0.26647629881E+03  0.00000000000E+00 0. -1.
        -13    1    3    3    0    0 -0.13678321538E+02 -0.13441863592E+03  0.94589461904E+01  0.13544348572E+03  0.00000000000E+00 0.  1.
          4    1    6    6  502    0  0.11608977188E+03  0.24343702326E+02 -0.25964199674E+03  0.28545300392E+03  0.00000000000E+00 0. -1.
          3    1    5    5  503    0 -0.32060885807E+03  0.39665160453E+03  0.41805157084E+02  0.51173255359E+03  0.00000000000E+00 0. -1.
         -4    1    5    5    0  503  0.16296711254E+01 -0.28333650200E+01 -0.82341863144E+00  0.33707274521E+01  0.00000000000E+00 0.  1.
         -3    1    6    6    0  502  0.13954823070E+03 -0.44308461962E+02 -0.23532305098E+03  0.27715318294E+03  0.00000000000E+00 0.  1.
<mgrwt>
<rscale>  0 0.14360403E+04</rscale>
<asrwt>0</asrwt>
<pdfrwt beam="1">  1        2 0.14124059E+00 0.14360403E+04</pdfrwt>
<pdfrwt beam="2">  1       -2 0.86394682E-01 0.14360403E+04</pdfrwt>
<totfact> 0.32141292E+01</totfact>
</mgrwt>
</event>
<event>
12    1  0.2083715E-007  0.2149647E+04  0.7818608E-02  0.8539683E-01
          2   -1    0    0  501    0  0.00000000000E+00  0.00000000000E+00  0.71011206992E+03  0.71011206992E+03  0.00000000000E+00 0. -1.
         -2   -1    0    0    0  501 -0.00000000000E+00 -0.00000000000E+00 -0.16268498731E+04  0.16268498731E+04  0.00000000000E+00 0.  1.
         23    2    1    2    0    0 -0.37590369114E+03 -0.70484352730E+03 -0.77904974286E+03  0.11179193852E+04  0.68682363015E+02 0.  0.
        254    2    1    2    0    0  0.37590369114E+03  0.70484352730E+03 -0.13768806036E+03  0.12190425579E+04  0.91049369735E+03 0.  0.
        -24    2    4    4    0    0  0.11837432540E+03 -0.75996878321E+02 -0.33301547896E+03  0.37020085508E+03  0.79758118386E+02 0.  0.
         24    2    4    4    0    0  0.25752936574E+03  0.78084040563E+03  0.19532741860E+03  0.84884170278E+03  0.79663810104E+02 0.  0.
         13    1    3    3    0    0 -0.13567245845E+03 -0.18839666630E+03 -0.22851052954E+03  0.32575662996E+03  0.00000000000E+00 0. -1.
        -13    1    3    3    0    0 -0.24023123269E+03 -0.51644686100E+03 -0.55053921332E+03  0.79216275525E+03  0.00000000000E+00 0.  1.
          2    1    6    6  502    0  0.87315019063E+02  0.15973549498E+03  0.45101620644E+02  0.18754598661E+03  0.00000000000E+00 0. -1.
          3    1    5    5  503    0  0.22686267514E+01 -0.39661993450E+02 -0.72239338409E+02  0.82442358079E+02  0.00000000000E+00 0. -1.
         -4    1    5    5    0  503  0.11610569865E+03 -0.36334884871E+02 -0.26077614055E+03  0.28775849700E+03  0.00000000000E+00 0.  1.
         -1    1    6    6    0  502  0.17021434668E+03  0.62110491065E+03  0.15022579795E+03  0.66129571616E+03  0.00000000000E+00 0.  1.
<mgrwt>
<rscale>  0 0.21496472E+04</rscale>
<asrwt>0</asrwt>
<pdfrwt beam="1">  1        2 0.10924801E+00 0.21496472E+04</pdfrwt>
<pdfrwt beam="2">  1       -2 0.25028459E+00 0.21496472E+04</pdfrwt>
<totfact> 0.23629156E+00</totfact>
</mgrwt>
</event>
<event>
12    1  0.2083715E-007  0.2623135E+04  0.7818608E-02  0.8360385E-01
         -1   -1    0    0    0  501 -0.00000000000E+00  0.00000000000E+00  0.10781797822E+04  0.10781797822E+04  0.00000000000E+00 0.  1.
          1   -1    0    0  501    0  0.00000000000E+00 -0.00000000000E+00 -0.15954752467E+04  0.15954752467E+04  0.00000000000E+00 0. -1.
         23    2    1    2    0    0 -0.13434113572E+03  0.67623670151E+03 -0.11769147796E+04  0.13670362612E+04  0.91192783383E+02 0.  0.
        254    2    1    2    0    0  0.13434113572E+03 -0.67623670151E+03  0.65961931516E+03  0.13066187677E+04  0.89264289951E+03 0.  0.
        -24    2    4    4    0    0 -0.15430156755E+02  0.16967970495E+03 -0.45179615679E+02  0.19253488065E+03  0.77454442001E+02 0.  0.
         24    2    4    4    0    0  0.14977129248E+03 -0.84591640646E+03  0.70479893084E+03  0.11140838871E+04  0.80220744010E+02 0.  0.
         13    1    3    3    0    0 -0.13814448915E+03  0.57017452039E+03 -0.95037781810E+03  0.11168710224E+04  0.00000000000E+00 0.  1.
        -13    1    3    3    0    0  0.38033534307E+01  0.10606218112E+03 -0.22653696151E+03  0.25016523878E+03  0.00000000000E+00 0. -1.
          4    1    6    6  502    0  0.92654395388E+01 -0.25796086518E+03  0.22113682709E+03  0.33989873879E+03  0.00000000000E+00 0. -1.
          3    1    5    5  503    0  0.24023047252E+02  0.66321848764E+02  0.56909998654E+01  0.70767802722E+02  0.00000000000E+00 0. -1.
         -4    1    5    5    0  503 -0.39453204007E+02  0.10335785619E+03 -0.50870615544E+02  0.12176707793E+03  0.00000000000E+00 0.  1.
         -3    1    6    6    0  502  0.14050585294E+03 -0.58795554128E+03  0.48366210375E+03  0.77418514829E+03  0.00000000000E+00 0.  1.
<mgrwt>
<rscale>  0 0.26231349E+04</rscale>
<asrwt>0</asrwt>
<pdfrwt beam="1">  1        1 0.24545773E+00 0.26231349E+04</pdfrwt>
<pdfrwt beam="2">  1       -1 0.16587381E+00 0.26231349E+04</pdfrwt>
<totfact> 0.13041969E+00</totfact>
</mgrwt>
</event>
<event>
12    1  0.2165413E-007  0.1602851E+04  0.7818608E-02  0.8818798E-01
         -2   -1    0    0    0  501 -0.00000000000E+00  0.00000000000E+00  0.40026585231E+03  0.40026585231E+03  0.00000000000E+00 0.  1.
          2   -1    0    0  501    0  0.00000000000E+00 -0.00000000000E+00 -0.16046406421E+04  0.16046406421E+04  0.00000000000E+00 0. -1.
         23    2    1    2    0    0  0.22806641772E+03 -0.39661002637E+03 -0.78353027549E+03  0.91326485326E+03  0.10401536271E+03 0.  0.
        254    2    1    2    0    0 -0.22806641772E+03  0.39661002637E+03 -0.42084451429E+03  0.10916416411E+04  0.89736144533E+03 0.  0.
        -24    2    4    4    0    0 -0.26500301351E+03  0.31693171503E+03  0.19545043592E+03  0.46421626284E+03  0.81385235856E+02 0.  0.
         24    2    4    4    0    0  0.36936595790E+02  0.79678311333E+02 -0.61629495021E+03  0.62742537831E+03  0.78295557218E+02 0.  0.
         11    1    3    3    0    0  0.19896051254E+03 -0.25275433583E+03 -0.56144178926E+03  0.64706021556E+03  0.00000000000E+00 0. -1.
        -11    1    3    3    0    0  0.29105905178E+02 -0.14385569054E+03 -0.22208848623E+03  0.26620463769E+03  0.00000000000E+00 0.  1.
          2    1    6    6  502    0 -0.33046682658E+00  0.79008258578E+02 -0.37146944253E+03  0.37977883151E+03  0.00000000000E+00 0. -1.
          1    1    5    5  503    0 -0.18947129851E+03  0.21246597626E+03  0.17369150165E+03  0.33348148640E+03  0.00000000000E+00 0. -1.
         -2    1    5    5    0  503 -0.75531715000E+02  0.10446573878E+03  0.21758934271E+02  0.13073477643E+03  0.00000000000E+00 0.  1.
         -1    1    6    6    0  502  0.37267062617E+02  0.67005275569E+00 -0.24482550768E+03  0.24764654679E+03  0.00000000000E+00 0.  1.
<mgrwt>
<rscale>  0 0.16028510E+04</rscale>
<asrwt>0</asrwt>
<pdfrwt beam="1">  1        2 0.24686779E+00 0.16028510E+04</pdfrwt>
<pdfrwt beam="2">  1       -2 0.61579362E-01 0.16028510E+04</pdfrwt>
<totfact> 0.26045117E+01</totfact>
</mgrwt>
</event>
<event>
12    1  0.2083715E-007  0.1338563E+04  0.7818608E-02  0.8999531E-01
          2   -1    0    0  501    0  0.00000000000E+00  0.00000000000E+00  0.10518120930E+04  0.10518120930E+04  0.00000000000E+00 0. -1.
         -2   -1    0    0    0  501 -0.00000000000E+00 -0.00000000000E+00 -0.42587229944E+03  0.42587229944E+03  0.00000000000E+00 0.  1.
         23    2    1    2    0    0 -0.33680661211E+03 -0.70296157216E+02  0.27931236496E+03  0.45243937269E+03  0.91135860488E+02 0.  0.
        254    2    1    2    0    0  0.33680661211E+03  0.70296157216E+02  0.34662742858E+03  0.10252450197E+04  0.90144136391E+03 0.  0.
        -24    2    4    4    0    0  0.63364044387E+03  0.11967018081E+03  0.19156374688E+03  0.67741017971E+03  0.79791717476E+02 0.  0.
         24    2    4    4    0    0 -0.29683383176E+03 -0.49374023593E+02  0.15506368170E+03  0.34783484002E+03  0.79976325634E+02 0.  0.
         13    1    3    3    0    0 -0.16753153940E+03  0.92206381659E+01  0.15006485944E+03  0.22510286293E+03  0.00000000000E+00 0.  1.
        -13    1    3    3    0    0 -0.16927507270E+03 -0.79516795382E+02  0.12924750552E+03  0.22733650976E+03  0.00000000000E+00 0. -1.
          2    1    6    6  502    0 -0.75398072239E+01 -0.10322279829E+02 -0.63387044794E+01  0.14268052716E+02  0.00000000000E+00 0. -1.
          3    1    5    5  503    0  0.20094433112E+02  0.12865961628E+02  0.20790680066E+02  0.31647615840E+02  0.00000000000E+00 0. -1.
         -4    1    5    5    0  503  0.61354601076E+03  0.10680421918E+03  0.17077306681E+03  0.64576256387E+03  0.00000000000E+00 0.  1.
         -1    1    6    6    0  502 -0.28929402454E+03 -0.39051743764E+02  0.16140238618E+03  0.33356678730E+03  0.00000000000E+00 0.  1.
<mgrwt>
<rscale>  0 0.13385629E+04</rscale>
<asrwt>0</asrwt>
<pdfrwt beam="1">  1        2 0.16181724E+00 0.13385629E+04</pdfrwt>
<pdfrwt beam="2">  1       -2 0.65518816E-01 0.13385629E+04</pdfrwt>
<totfact> 0.48987809E+01</totfact>
</mgrwt>
</event>
<event>
12    1  0.2083715E-007  0.2546131E+04  0.7818608E-02  0.8386733E-01
         -2   -1    0    0    0  501 -0.00000000000E+00  0.00000000000E+00  0.14538539482E+04  0.14538539482E+04  0.00000000000E+00 0.  1.
          2   -1    0    0  501    0  0.00000000000E+00 -0.00000000000E+00 -0.11147584641E+04  0.11147584641E+04  0.00000000000E+00 0. -1.
         23    2    1    2    0    0  0.15725573170E+03  0.10022333534E+04  0.60602966317E+03  0.11853346169E+04  0.92439935260E+02 0.  0.
        254    2    1    2    0    0 -0.15725573170E+03 -0.10022333534E+04 -0.26693417905E+03  0.13832777954E+04  0.90166653674E+03 0.  0.
        -24    2    4    4    0    0  0.34618565067E+03 -0.59679954032E+03 -0.49094051277E+02  0.69635108939E+03  0.80501042043E+02 0.  0.
         24    2    4    4    0    0 -0.50344138237E+03 -0.40543381307E+03 -0.21784012777E+03  0.68692670601E+03  0.81142934965E+02 0.  0.
         11    1    3    3    0    0  0.12049154437E+03  0.51176347402E+03  0.34055799272E+03  0.62641824049E+03  0.00000000000E+00 0. -1.
        -11    1    3    3    0    0  0.36764187334E+02  0.49046987937E+03  0.26547167045E+03  0.55891637644E+03  0.00000000000E+00 0.  1.
          4    1    6    6  502    0 -0.41874583988E+03 -0.30757728051E+03 -0.19789256937E+03  0.55597961376E+03  0.00000000000E+00 0. -1.
          3    1    5    5  503    0  0.59833057032E+02 -0.69079819831E+02  0.14709948723E+02  0.92565645966E+02  0.00000000000E+00 0. -1.
         -4    1    5    5    0  503  0.28635259363E+03 -0.52771972049E+03 -0.63804000001E+02  0.60378544343E+03  0.00000000000E+00 0.  1.
         -3    1    6    6    0  502 -0.84695542487E+02 -0.97856532560E+02 -0.19947558405E+02  0.13094709225E+03  0.00000000000E+00 0.  1.
<mgrwt>
<rscale>  0 0.25461312E+04</rscale>
<asrwt>0</asrwt>
<pdfrwt beam="1">  1        2 0.17150130E+00 0.25461312E+04</pdfrwt>
<pdfrwt beam="2">  1       -2 0.22366984E+00 0.25461312E+04</pdfrwt>
<totfact> 0.17758758E+00</totfact>
</mgrwt>
</event>
<event>
12    1  0.2083715E-007  0.3518361E+04  0.7818608E-02  0.8109452E-01
         -2   -1    0    0    0  501 -0.00000000000E+00  0.00000000000E+00  0.21162623894E+04  0.21162623894E+04  0.00000000000E+00 0.  1.
          2   -1    0    0  501    0  0.00000000000E+00 -0.00000000000E+00 -0.14623499434E+04  0.14623499434E+04  0.00000000000E+00 0. -1.
         23    2    1    2    0    0  0.95764341627E+03  0.65241322855E+03  0.14861281726E+04  0.18867061374E+04  0.91428497518E+02 0.  0.
        254    2    1    2    0    0 -0.95764341627E+03 -0.65241322855E+03 -0.83221572664E+03  0.16919061954E+04  0.90952714357E+03 0.  0.
        -24    2    4    4    0    0 -0.15216619704E+02 -0.80374139230E+02  0.16632781373E+03  0.20228774381E+03  0.81017540721E+02 0.  0.
         24    2    4    4    0    0 -0.94242679656E+03 -0.57203908932E+03 -0.99854354037E+03  0.14896184516E+04  0.80479455344E+02 0.  0.
         11    1    3    3    0    0  0.40307976019E+03  0.31773972673E+03  0.61155377367E+03  0.79839203723E+03  0.00000000000E+00 0. -1.
        -11    1    3    3    0    0  0.55456365607E+03  0.33467350182E+03  0.87457439893E+03  0.10883141002E+04  0.00000000000E+00 0.  1.
          2    1    6    6  502    0 -0.60620702968E+03 -0.34817181035E+03 -0.67931817384E+03  0.97477369357E+03  0.00000000000E+00 0. -1.
          1    1    5    5  503    0 -0.36919270840E+02 -0.77542352962E+02  0.96849742529E+02  0.12944389399E+03  0.00000000000E+00 0. -1.
         -2    1    5    5    0  503  0.21702651136E+02 -0.28317862679E+01  0.69478071200E+02  0.72843849826E+02  0.00000000000E+00 0.  1.
         -1    1    6    6    0  502 -0.33621976688E+03 -0.22386727898E+03 -0.31922536652E+03  0.51484475803E+03  0.00000000000E+00 0.  1.
<mgrwt>
<rscale>  0 0.35183611E+04</rscale>
<asrwt>0</asrwt>
<pdfrwt beam="1">  1        2 0.22497691E+00 0.35183611E+04</pdfrwt>
<pdfrwt beam="2">  1       -2 0.32557883E+00 0.35183611E+04</pdfrwt>
<totfact> 0.24184807E-01</totfact>
</mgrwt>
</event>
<event>
12    1  0.2083715E-007  0.1679864E+04  0.7818608E-02  0.8772933E-01
         -2   -1    0    0    0  501 -0.00000000000E+00  0.00000000000E+00  0.28713976555E+03  0.28713976555E+03  0.00000000000E+00 0.  1.
          2   -1    0    0  501    0  0.00000000000E+00 -0.00000000000E+00 -0.24569418982E+04  0.24569418982E+04  0.00000000000E+00 0. -1.
         23    2    1    2    0    0 -0.45326861477E+03  0.33440508278E+03 -0.10927068989E+04  0.12324583092E+04  0.87555242321E+02 0.  0.
        254    2    1    2    0    0  0.45326861477E+03 -0.33440508278E+03 -0.10770952338E+04  0.15116233546E+04  0.89866113021E+03 0.  0.
        -24    2    4    4    0    0  0.48216493506E+03 -0.24390582230E+03 -0.12119070038E+04  0.13293849690E+04  0.81072407887E+02 0.  0.
         24    2    4    4    0    0 -0.28896320283E+02 -0.90499260487E+02  0.13481177002E+03  0.18223838554E+03  0.77533878740E+02 0.  0.
         11    1    3    3    0    0 -0.38196946202E+03  0.29804523848E+03 -0.99050422379E+03  0.11026469296E+04  0.00000000000E+00 0. -1.
        -11    1    3    3    0    0 -0.71299152755E+02  0.36359844302E+02 -0.10220267511E+03  0.12981137955E+03  0.00000000000E+00 0.  1.
          2    1    6    6  502    0 -0.10477027160E+02 -0.62750467213E+02  0.13466057404E+03  0.14893239887E+03  0.00000000000E+00 0. -1.
          1    1    5    5  503    0  0.32681736049E+03 -0.15318625980E+03 -0.89392056822E+03  0.96403817331E+03  0.00000000000E+00 0. -1.
         -2    1    5    5    0  503  0.15534757456E+03 -0.90719562497E+02 -0.31798643556E+03  0.36534679572E+03  0.00000000000E+00 0.  1.
         -1    1    6    6    0  502 -0.18419293123E+02 -0.27748793273E+02  0.15119597888E+00  0.33305986661E+02  0.00000000000E+00 0.  1.
<mgrwt>
<rscale>  0 0.16798639E+04</rscale>
<asrwt>0</asrwt>
<pdfrwt beam="1">  1        2 0.37799105E+00 0.16798639E+04</pdfrwt>
<pdfrwt beam="2">  1       -2 0.44175350E-01 0.16798639E+04</pdfrwt>
<totfact> 0.17100620E+01</totfact>
</mgrwt>
</event>
<event>
12    1  0.2083715E-007  0.1528896E+04  0.7818608E-02  0.8865462E-01
          4   -1    0    0  501    0  0.00000000000E+00  0.00000000000E+00  0.14533348672E+04  0.14533348672E+04  0.00000000000E+00 0. -1.
         -4   -1    0    0    0  501 -0.00000000000E+00 -0.00000000000E+00 -0.40209626505E+03  0.40209626505E+03  0.00000000000E+00 0.  1.
         23    2    1    2    0    0 -0.38131920614E+03  0.31003668056E+03  0.27580127787E+03  0.57077892467E+03  0.90527099302E+02 0.  0.
        254    2    1    2    0    0  0.38131920614E+03 -0.31003668056E+03  0.77543732432E+03  0.12846522076E+04  0.89861068897E+03 0.  0.
        -24    2    4    4    0    0 -0.45819936687E+02  0.48405666037E+02  0.70998191988E+03  0.71753121286E+03  0.79587309133E+02 0.  0.
         24    2    4    4    0    0  0.42713914283E+03 -0.35844234660E+03  0.65455404444E+02  0.56712099476E+03  0.80081518198E+02 0.  0.
         13    1    3    3    0    0 -0.25583224666E+03  0.21009664589E+03  0.23276448147E+03  0.40468511571E+03  0.00000000000E+00 0. -1.
        -13    1    3    3    0    0 -0.12548695948E+03  0.99940034677E+02  0.43036796403E+02  0.16609380897E+03  0.00000000000E+00 0.  1.
          4    1    6    6  502    0  0.15683110591E+03 -0.16378052509E+03  0.57425060074E+02  0.23391813462E+03  0.00000000000E+00 0. -1.
          1    1    5    5  503    0 -0.19793365853E+02  0.17841965009E+02  0.52982199659E+02  0.59306209859E+02  0.00000000000E+00 0. -1.
         -2    1    5    5    0  503 -0.26026570834E+02  0.30563701028E+02  0.65699972022E+03  0.65822500300E+03  0.00000000000E+00 0.  1.
         -3    1    6    6    0  502  0.27030803692E+03 -0.19466182151E+03  0.80303443702E+01  0.33320286014E+03  0.00000000000E+00 0.  1.
<mgrwt>
<rscale>  0 0.15288957E+04</rscale>
<asrwt>0</asrwt>
<pdfrwt beam="1">  1        4 0.22358998E+00 0.15288957E+04</pdfrwt>
<pdfrwt beam="2">  1       -4 0.61860964E-01 0.15288957E+04</pdfrwt>
<totfact> 0.43839119E-01</totfact>
</mgrwt>
</event>
<event>
12    1  0.2083715E-007  0.2564473E+04  0.7818608E-02  0.8380370E-01
          1   -1    0    0  501    0  0.00000000000E+00  0.00000000000E+00  0.32657348554E+04  0.32657348554E+04  0.00000000000E+00 0. -1.
         -1   -1    0    0    0  501 -0.00000000000E+00 -0.00000000000E+00 -0.50344868978E+03  0.50344868978E+03  0.00000000000E+00 0.  1.
         23    2    1    2    0    0 -0.31605176596E+03 -0.88774290578E+03  0.21115657753E+04  0.23140997209E+04  0.91494859279E+02 0.  0.
        254    2    1    2    0    0  0.31605176596E+03  0.88774290578E+03  0.65072039035E+03  0.14550838243E+04  0.89769467183E+03 0.  0.
        -24    2    4    4    0    0  0.39772838863E+03  0.85836775130E+03  0.17705575500E+03  0.96604591830E+03  0.83143901174E+02 0.  0.
         24    2    4    4    0    0 -0.81676622664E+02  0.29375154484E+02  0.47366463534E+03  0.48903790601E+03  0.85240344611E+02 0.  0.
         11    1    3    3    0    0 -0.89608613892E+02 -0.30890362105E+03  0.62747119994E+03  0.70510372111E+03  0.00000000000E+00 0.  1.
        -11    1    3    3    0    0 -0.22644315207E+03 -0.57883928473E+03  0.14840945754E+04  0.16089959998E+04  0.00000000000E+00 0. -1.
          2    1    6    6  502    0 -0.85248148391E+02  0.22072720034E+02  0.24700546400E+03  0.26223300902E+03  0.00000000000E+00 0. -1.
          1    1    5    5  503    0  0.35203969281E+01  0.48618042374E+02  0.14764392215E+02  0.50932254184E+02  0.00000000000E+00 0. -1.
         -2    1    5    5    0  503  0.39420799170E+03  0.80974970892E+03  0.16229136279E+03  0.91511366412E+03  0.00000000000E+00 0.  1.
         -1    1    6    6    0  502  0.35715257272E+01  0.73024344500E+01  0.22665917134E+03  0.22680489699E+03  0.00000000000E+00 0.  1.
<mgrwt>
<rscale>  0 0.25644726E+04</rscale>
<asrwt>0</asrwt>
<pdfrwt beam="1">  1        1 0.50242073E+00 0.25644726E+04</pdfrwt>
<pdfrwt beam="2">  1       -1 0.77453647E-01 0.25644726E+04</pdfrwt>
<totfact> 0.55982348E-01</totfact>
</mgrwt>
</event>
<event>
12    1  0.2083715E-007  0.1624222E+04  0.7818608E-02  0.8805804E-01
          2   -1    0    0  501    0  0.00000000000E+00  0.00000000000E+00  0.22539579199E+04  0.22539579199E+04  0.00000000000E+00 0. -1.
         -2   -1    0    0    0  501 -0.00000000000E+00 -0.00000000000E+00 -0.29260703768E+03  0.29260703768E+03  0.00000000000E+00 0.  1.
         23    2    1    2    0    0 -0.36844005591E+03  0.38533105380E+03  0.96106699815E+03  0.11028907832E+04  0.92142330115E+02 0.  0.
        254    2    1    2    0    0  0.36844005591E+03 -0.38533105380E+03  0.10002838841E+04  0.14436741743E+04  0.89409125769E+03 0.  0.
        -24    2    4    4    0    0  0.98070279444E+02 -0.10688271771E+03 -0.15274217546E+03  0.22504562958E+03  0.79206490724E+02 0.  0.
         24    2    4    4    0    0  0.27036977647E+03 -0.27844833609E+03  0.11530260595E+04  0.12186285448E+04  0.70378578005E+02 0.  0.
         13    1    3    3    0    0 -0.31962261811E+03  0.29683080326E+03  0.72511433862E+03  0.84620207270E+03  0.00000000000E+00 0. -1.
        -13    1    3    3    0    0 -0.48817437807E+02  0.88500250542E+02  0.23595265953E+03  0.25668871054E+03  0.00000000000E+00 0.  1.
          4    1    6    6  502    0  0.28391738877E+02 -0.34222079097E+02  0.21580415885E+03  0.22033764207E+03  0.00000000000E+00 0. -1.
          3    1    5    5  503    0 -0.10376669675E+02 -0.22213305523E+02 -0.41125860644E+02  0.47879459370E+02  0.00000000000E+00 0. -1.
         -4    1    5    5    0  503  0.10844694912E+03 -0.84669412189E+02 -0.11161631481E+03  0.17716617021E+03  0.00000000000E+00 0.  1.
         -3    1    6    6    0  502  0.24197803759E+03 -0.24422625699E+03  0.93722190068E+03  0.99829090269E+03  0.00000000000E+00 0.  1.
<mgrwt>
<rscale>  0 0.16242216E+04</rscale>
<asrwt>0</asrwt>
<pdfrwt beam="1">  1        2 0.34676275E+00 0.16242216E+04</pdfrwt>
<pdfrwt beam="2">  1       -2 0.45016469E-01 0.16242216E+04</pdfrwt>
<totfact> 0.21583532E+01</totfact>
</mgrwt>
</event>
<event>
12    1  0.2083715E-007  0.2137182E+04  0.7818608E-02  0.8545039E-01
         -2   -1    0    0    0  501 -0.00000000000E+00  0.00000000000E+00  0.56955968383E+03  0.56955968383E+03  0.00000000000E+00 0. -1.
          2   -1    0    0  501    0  0.00000000000E+00 -0.00000000000E+00 -0.20048582752E+04  0.20048582752E+04  0.00000000000E+00 0.  1.
         23    2    1    2    0    0 -0.23461485839E+03 -0.82864587400E+03 -0.79421264984E+03  0.11747878193E+04  0.87490405014E+02 0.  0.
        254    2    1    2    0    0  0.23461485839E+03  0.82864587400E+03 -0.64108594158E+03  0.13996301398E+04  0.89792829745E+03 0.  0.
        -24    2    4    4    0    0  0.28165043880E+03  0.59267237294E+03 -0.84598972343E+03  0.10736556870E+04  0.80314448912E+02 0.  0.
         24    2    4    4    0    0 -0.47035580410E+02  0.23597350106E+03  0.20490378184E+03  0.32597445279E+03  0.79862037471E+02 0.  0.
         13    1    3    3    0    0 -0.11760620323E+03 -0.51269890660E+03 -0.43818088027E+03  0.68461220534E+03  0.00000000000E+00 0.  1.
        -13    1    3    3    0    0 -0.11700865516E+03 -0.31594696740E+03 -0.35603176956E+03  0.49017561397E+03  0.00000000000E+00 0. -1.
          4    1    6    6  502    0 -0.24832648373E+02  0.12248241756E+03  0.54726061323E+02  0.13643146567E+03  0.00000000000E+00 0. -1.
          1    1    5    5  503    0  0.10210942085E+03  0.17162628174E+03 -0.20690458157E+03  0.28756115921E+03  0.00000000000E+00 0. -1.
         -2    1    5    5    0  503  0.17954101795E+03  0.42104609120E+03 -0.63908514186E+03  0.78609452777E+03  0.00000000000E+00 0.  1.
         -3    1    6    6    0  502 -0.22202932038E+02  0.11349108350E+03  0.15017772052E+03  0.18954298712E+03  0.00000000000E+00 0.  1.
<mgrwt>
<rscale>  0 0.21371817E+04</rscale>
<asrwt>0</asrwt>
<pdfrwt beam="1">  1        2 0.30843973E+00 0.21371817E+04</pdfrwt>
<pdfrwt beam="2">  1       -2 0.87624568E-01 0.21371817E+04</pdfrwt>
<totfact> 0.68557653E+00</totfact>
</mgrwt>
</event>
<event>
12    1  0.2083715E-007  0.2726507E+04  0.7818608E-02  0.8326455E-01
         -2   -1    0    0    0  501 -0.00000000000E+00  0.00000000000E+00  0.78175612148E+03  0.78175612148E+03  0.00000000000E+00 0.  1.
          2   -1    0    0  501    0  0.00000000000E+00 -0.00000000000E+00 -0.23772890939E+04  0.23772890939E+04  0.00000000000E+00 0. -1.
         23    2    1    2    0    0  0.98052828725E+03  0.57830854329E+03 -0.11938000734E+04  0.16520547535E+04  0.90828409819E+02 0.  0.
        254    2    1    2    0    0 -0.98052828725E+03 -0.57830854329E+03 -0.40173289902E+03  0.15069904619E+04  0.90208338675E+03 0.  0.
        -24    2    4    4    0    0  0.15756842007E+02 -0.42835868523E+02 -0.36056070634E+03  0.37239005938E+03  0.81161220204E+02 0.  0.
         24    2    4    4    0    0 -0.99628512926E+03 -0.53547267476E+03 -0.41172192678E+02  0.11346004025E+04  0.79422161051E+02 0.  0.
         13    1    3    3    0    0  0.56176472210E+03  0.37865808407E+03 -0.73464827869E+03  0.99933459913E+03  0.00000000000E+00 0. -1.
        -13    1    3    3    0    0  0.41876356514E+03  0.19965045921E+03 -0.45915179472E+03  0.65272015439E+03  0.00000000000E+00 0.  1.
          4    1    6    6  502    0 -0.16202232377E+03 -0.72368863759E+02 -0.32378998665E+02  0.18037983645E+03  0.00000000000E+00 0. -1.
          3    1    5    5  503    0  0.44776745151E+02 -0.83778968611E+01 -0.13828290229E+03  0.14559295013E+03  0.00000000000E+00 0. -1.
         -4    1    5    5    0  503 -0.29019903144E+02 -0.34457971662E+02 -0.22227780405E+03  0.22679710924E+03  0.00000000000E+00 0.  1.
         -3    1    6    6    0  502 -0.83426280548E+03 -0.46310381101E+03 -0.87931940122E+01  0.95422056603E+03  0.00000000000E+00 0.  1.
<mgrwt>
<rscale>  0 0.27265071E+04</rscale>
<asrwt>0</asrwt>
<pdfrwt beam="1">  1        2 0.36573678E+00 0.27265071E+04</pdfrwt>
<pdfrwt beam="2">  1       -2 0.12027017E+00 0.27265071E+04</pdfrwt>
<totfact> 0.18932051E+00</totfact>
</mgrwt>
</event>
<event>
12    1  0.2083715E-007  0.1329085E+04  0.7818608E-02  0.9006813E-01
         -2   -1    0    0    0  501 -0.00000000000E+00  0.00000000000E+00  0.22780316521E+03  0.22780316521E+03  0.00000000000E+00 0. -1.
          2   -1    0    0  501    0  0.00000000000E+00 -0.00000000000E+00 -0.19385885586E+04  0.19385885586E+04  0.00000000000E+00 0.  1.
         23    2    1    2    0    0 -0.10439314702E+03 -0.82248969463E+02  0.65341422575E+02  0.17270831830E+03  0.88858536928E+02 0.  0.
        254    2    1    2    0    0  0.10439314702E+03  0.82248969463E+02 -0.17761268159E+04  0.19936834055E+04  0.89581484298E+03 0.  0.
        -24    2    4    4    0    0  0.48470422295E+03  0.10792623087E+03 -0.11619194637E+04  0.12663391071E+04  0.83496340493E+02 0.  0.
         24    2    4    4    0    0 -0.38031107593E+03 -0.25677261406E+02 -0.61420735223E+03  0.72734429843E+03  0.80518449408E+02 0.  0.
         11    1    3    3    0    0  0.89681285207E+01 -0.38304003973E+01 -0.11353666004E+02  0.14966797523E+02  0.00000000000E+00 0.  1.
        -11    1    3    3    0    0 -0.11336127554E+03 -0.78418569066E+02  0.76695088578E+02  0.15774152078E+03  0.00000000000E+00 0. -1.
          4    1    6    6  502    0 -0.11066008594E+03  0.26208682317E+02 -0.15398576172E+03  0.19142665557E+03  0.00000000000E+00 0. -1.
          1    1    5    5  503    0  0.28315972146E+03  0.27606561215E+02 -0.71558328647E+03  0.77006557510E+03  0.00000000000E+00 0. -1.
         -2    1    5    5    0  503  0.20154450148E+03  0.80319669655E+02 -0.44633617723E+03  0.49627353195E+03  0.00000000000E+00 0.  1.
         -3    1    6    6    0  502 -0.26965098999E+03 -0.51885943723E+02 -0.46022159051E+03  0.53591764286E+03  0.00000000000E+00 0.  1.
<mgrwt>
<rscale>  0 0.13290848E+04</rscale>
<asrwt>0</asrwt>
<pdfrwt beam="1">  1        2 0.29824440E+00 0.13290848E+04</pdfrwt>
<pdfrwt beam="2">  1       -2 0.35046640E-01 0.13290848E+04</pdfrwt>
<totfact> 0.54055079E+01</totfact>
</mgrwt>
</event>
<event>
12    1  0.2083715E-007  0.2853690E+04  0.7818608E-02  0.8286791E-01
          2   -1    0    0  501    0  0.00000000000E+00  0.00000000000E+00  0.32051390610E+04  0.32051390610E+04  0.00000000000E+00 0. -1.
         -2   -1    0    0    0  501 -0.00000000000E+00 -0.00000000000E+00 -0.63519427912E+03  0.63519427912E+03  0.00000000000E+00 0.  1.
         23    2    1    2    0    0  0.10779610839E+04 -0.57527774616E+03  0.62763863251E+03  0.13767987053E+04  0.93272923910E+02 0.  0.
        254    2    1    2    0    0 -0.10779610839E+04  0.57527774616E+03  0.19423061494E+04  0.24635346349E+04  0.89638447973E+03 0.  0.
        -24    2    4    4    0    0 -0.19169733323E+03 -0.25118445455E+02 -0.37202236228E+02  0.21179904692E+03  0.78077051846E+02 0.  0.
         24    2    4    4    0    0 -0.88626375065E+03  0.60039619161E+03  0.19795083856E+04  0.22517355879E+04  0.76945997623E+02 0.  0.
         13    1    3    3    0    0  0.65030167576E+03 -0.36456579868E+03  0.33439054283E+03  0.81707865362E+03  0.00000000000E+00 0.  1.
        -13    1    3    3    0    0  0.42765940812E+03 -0.21071194748E+03  0.29324808968E+03  0.55972005169E+03  0.00000000000E+00 0. -1.
          4    1    6    6  502    0 -0.22995276547E+03  0.14239184600E+03  0.56846701804E+03  0.62953035094E+03  0.00000000000E+00 0. -1.
          1    1    5    5  503    0 -0.12020590782E+03  0.15409112817E+02 -0.44944988483E+02  0.12925537908E+03  0.00000000000E+00 0. -1.
         -2    1    5    5    0  503 -0.71491425411E+02 -0.40527558273E+02  0.77427522550E+01  0.82543667833E+02  0.00000000000E+00 0.  1.
         -3    1    6    6    0  502 -0.65631098518E+03  0.45800434562E+03  0.14110413676E+04  0.16222052370E+04  0.00000000000E+00 0.  1.
<mgrwt>
<rscale>  0 0.28536895E+04</rscale>
<asrwt>0</asrwt>
<pdfrwt beam="1">  1        2 0.49309831E+00 0.28536895E+04</pdfrwt>
<pdfrwt beam="2">  1       -2 0.97722198E-01 0.28536895E+04</pdfrwt>
<totfact> 0.97186680E-01</totfact>
</mgrwt>
</event>
<event>
12    1  0.2083715E-007  0.2352101E+04  0.7818608E-02  0.8457657E-01
          2   -1    0    0  501    0  0.00000000000E+00  0.00000000000E+00  0.15209759408E+04  0.15209759408E+04  0.00000000000E+00 0. -1.
         -2   -1    0    0    0  501 -0.00000000000E+00 -0.00000000000E+00 -0.90934682795E+03  0.90934682795E+03  0.00000000000E+00 0.  1.
         23    2    1    2    0    0 -0.32909086401E+03 -0.79375902910E+03 -0.27093085018E+03  0.90549593952E+03  0.90361373692E+02 0.  0.
        254    2    1    2    0    0  0.32909086401E+03  0.79375902910E+03  0.88255996300E+03  0.15248268292E+04  0.89879395731E+03 0.  0.
        -24    2    4    4    0    0  0.18878502821E+03  0.43089694765E+02 -0.13574692050E+03  0.24946023044E+03  0.79414554543E+02 0.  0.
         24    2    4    4    0    0  0.14030583580E+03  0.75066933434E+03  0.10183068835E+04  0.12753665988E+04  0.80130363589E+02 0.  0.
         11    1    3    3    0    0 -0.12090887097E+03 -0.35844922784E+03 -0.80582887276E+02  0.38677953118E+03  0.00000000000E+00 0.  1.
        -11    1    3    3    0    0 -0.20818199304E+03 -0.43530980126E+03 -0.19034796290E+03  0.51871640834E+03  0.00000000000E+00 0. -1.
          4    1    6    6  502    0  0.78928712326E+02  0.48091416788E+03  0.58672312863E+03  0.76272682408E+03  0.00000000000E+00 0. -1.
          3    1    5    5  503    0  0.10075466016E+02 -0.16518369862E+02 -0.45129599282E+01  0.19868023698E+02  0.00000000000E+00 0. -1.
         -4    1    5    5    0  503  0.17870956220E+03  0.59608064627E+02 -0.13123396058E+03  0.22959220674E+03  0.00000000000E+00 0.  1.
         -3    1    6    6    0  502  0.61377123474E+02  0.26975516645E+03  0.43158375487E+03  0.51263977468E+03  0.00000000000E+00 0.  1.
<mgrwt>
<rscale>  0 0.23521009E+04</rscale>
<asrwt>0</asrwt>
<pdfrwt beam="1">  1        2 0.23399630E+00 0.23521009E+04</pdfrwt>
<pdfrwt beam="2">  1       -2 0.13989951E+00 0.23521009E+04</pdfrwt>
<totfact> 0.40132763E+00</totfact>
</mgrwt>
</event>
<event>
12    1  0.2083715E-007  0.2793212E+04  0.7818608E-02  0.8305379E-01
          1   -1    0    0  501    0  0.00000000000E+00  0.00000000000E+00  0.25261914521E+04  0.25261914521E+04  0.00000000000E+00 0. -1.
         -1   -1    0    0    0  501 -0.00000000000E+00 -0.00000000000E+00 -0.77211399015E+03  0.77211399015E+03  0.00000000000E+00 0.  1.
         23    2    1    2    0    0 -0.94437246586E+03 -0.80282388058E+03  0.97598225858E+03  0.15802890081E+04  0.91686653474E+02 0.  0.
        254    2    1    2    0    0  0.94437246586E+03  0.80282388058E+03  0.77809520332E+03  0.17180164341E+04  0.89987931693E+03 0.  0.
        -24    2    4    4    0    0  0.11137397664E+04  0.66032173784E+03  0.66877807526E+03  0.14593711048E+04  0.77838570483E+02 0.  0.
         24    2    4    4    0    0 -0.16936730050E+03  0.14250214274E+03  0.10931712806E+03  0.25864532930E+03  0.77168832561E+02 0.  0.
         11    1    3    3    0    0 -0.16245559213E+03 -0.18203760412E+03  0.21005256964E+03  0.32194967113E+03  0.00000000000E+00 0. -1.
        -11    1    3    3    0    0 -0.78191687373E+03 -0.62078627646E+03  0.76592968894E+03  0.12583393369E+04  0.00000000000E+00 0.  1.
          2    1    6    6  502    0 -0.40708436586E+02  0.69895743498E+02  0.66835403806E+02  0.10492646459E+03  0.00000000000E+00 0. -1.
          3    1    5    5  503    0  0.52042338406E+03  0.26355219652E+03  0.29963170503E+03  0.65580440501E+03  0.00000000000E+00 0. -1.
         -4    1    5    5    0  503  0.59331638230E+03  0.39676954132E+03  0.36914637023E+03  0.80356669984E+03  0.00000000000E+00 0.  1.
         -1    1    6    6    0  502 -0.12865886391E+03  0.72606399238E+02  0.42481724256E+02  0.15371886471E+03  0.00000000000E+00 0.  1.
<mgrwt>
<rscale>  0 0.27932116E+04</rscale>
<asrwt>0</asrwt>
<pdfrwt beam="1">  1        1 0.38864483E+00 0.27932116E+04</pdfrwt>
<pdfrwt beam="2">  1       -1 0.11878677E+00 0.27932116E+04</pdfrwt>
<totfact> 0.71392104E-01</totfact>
</mgrwt>
</event>
<event>
12    1  0.2083715E-007  0.2093878E+04  0.7818608E-02  0.8563945E-01
          1   -1    0    0  501    0  0.00000000000E+00  0.00000000000E+00  0.78365288766E+03  0.78365288766E+03  0.00000000000E+00 0. -1.
         -1   -1    0    0    0  501 -0.00000000000E+00 -0.00000000000E+00 -0.13986820589E+04  0.13986820589E+04  0.00000000000E+00 0.  1.
         23    2    1    2    0    0 -0.56965869532E+03 -0.62645220173E+03 -0.18204302106E+03  0.87315010316E+03  0.11089657765E+03 0.  0.
        254    2    1    2    0    0  0.56965869532E+03  0.62645220173E+03 -0.43298615014E+03  0.13091848434E+04  0.89974138377E+03 0.  0.
        -24    2    4    4    0    0 -0.21763207012E+03  0.10164590941E+02 -0.69414348641E+02  0.24228998173E+03  0.80118952796E+02 0.  0.
         24    2    4    4    0    0  0.78729076543E+03  0.61628761079E+03 -0.36357180150E+03  0.10668948616E+04  0.80268439491E+02 0.  0.
         11    1    3    3    0    0 -0.12470623149E+03 -0.15448239093E+03 -0.90095800687E+02  0.21802226167E+03  0.00000000000E+00 0.  1.
        -11    1    3    3    0    0 -0.44495246383E+03 -0.47196981080E+03 -0.91947220370E+02  0.65512784150E+03  0.00000000000E+00 0. -1.
          4    1    6    6  502    0  0.63285035689E+03  0.49875661793E+03 -0.25857840710E+03  0.84623905060E+03  0.00000000000E+00 0. -1.
          3    1    5    5  503    0 -0.20046351366E+03 -0.11962458043E+02 -0.73781664962E+02  0.21394498077E+03  0.00000000000E+00 0. -1.
         -4    1    5    5    0  503 -0.17168556451E+02  0.22127048984E+02  0.43673163217E+01  0.28345000956E+02  0.00000000000E+00 0.  1.
         -3    1    6    6    0  502  0.15444040854E+03  0.11753099286E+03 -0.10499339440E+03  0.22065581103E+03  0.00000000000E+00 0.  1.
<mgrwt>
<rscale>  0 0.20938780E+04</rscale>
<asrwt>0</asrwt>
<pdfrwt beam="1">  1        1 0.12056198E+00 0.20938780E+04</pdfrwt>
<pdfrwt beam="2">  1       -1 0.21518185E+00 0.20938780E+04</pdfrwt>
<totfact> 0.24932094E+00</totfact>
</mgrwt>
</event>
<event>
12    1  0.2083715E-007  0.4873153E+04  0.7818608E-02  0.7848378E-01
          2   -1    0    0  501    0  0.00000000000E+00  0.00000000000E+00  0.26395811500E+04  0.26395811500E+04  0.00000000000E+00 0.  1.
         -2   -1    0    0    0  501 -0.00000000000E+00 -0.00000000000E+00 -0.22491840707E+04  0.22491840707E+04  0.00000000000E+00 0. -1.
         23    2    1    2    0    0  0.16951691046E+03 -0.19147375730E+04  0.15493461284E+04  0.24707193923E+04  0.94999649009E+02 0.  0.
        254    2    1    2    0    0 -0.16951691046E+03  0.19147375730E+04 -0.11589490490E+04  0.24180458284E+04  0.89934797128E+03 0.  0.
        -24    2    4    4    0    0 -0.55068752910E+01  0.93373982089E+03 -0.67611177174E+02  0.93949370408E+03  0.78592429297E+02 0.  0.
         24    2    4    4    0    0 -0.16401003516E+03  0.98099775215E+03 -0.10913378719E+04  0.14785521243E+04  0.76433974115E+02 0.  0.
         13    1    3    3    0    0  0.17379209981E+03 -0.17528368987E+04  0.14421914457E+04  0.22765230185E+04  0.00000000000E+00 0. -1.
        -13    1    3    3    0    0 -0.42751893521E+01 -0.16190067430E+03  0.10715468268E+03  0.19419637381E+03  0.00000000000E+00 0.  1.
          4    1    6    6  502    0 -0.48202131030E+02  0.48439366144E+03 -0.50285129583E+03  0.69987148134E+03  0.00000000000E+00 0. -1.
          1    1    5    5  503    0 -0.41582312992E+01  0.11123071668E+03  0.17172599701E+02  0.11262531421E+03  0.00000000000E+00 0. -1.
         -2    1    5    5    0  503 -0.13486439918E+01  0.82250910421E+03 -0.84783776876E+02  0.82686838987E+03  0.00000000000E+00 0.  1.
         -3    1    6    6    0  502 -0.11580790413E+03  0.49660409071E+03 -0.58848657604E+03  0.77868064298E+03  0.00000000000E+00 0.  1.
<mgrwt>
<rscale>  0 0.48731525E+04</rscale>
<asrwt>0</asrwt>
<pdfrwt beam="1">  1        2 0.40608941E+00 0.48731525E+04</pdfrwt>
<pdfrwt beam="2">  1       -2 0.34602832E+00 0.48731525E+04</pdfrwt>
<totfact> 0.34954190E-02</totfact>
</mgrwt>
</event>
<event>
12    1  0.2083715E-007  0.2132140E+04  0.7818608E-02  0.8547216E-01
         -2   -1    0    0    0  501 -0.00000000000E+00  0.00000000000E+00  0.70658777433E+03  0.70658777433E+03  0.00000000000E+00 0. -1.
          2   -1    0    0  501    0  0.00000000000E+00 -0.00000000000E+00 -0.16084418779E+04  0.16084418779E+04  0.00000000000E+00 0.  1.
         23    2    1    2    0    0  0.64246308263E+03  0.58415247261E+03 -0.46557322352E+03  0.98937819355E+03  0.90099165424E+02 0.  0.
        254    2    1    2    0    0 -0.64246308263E+03 -0.58415247261E+03 -0.43628088007E+03  0.13256514587E+04  0.90167503006E+03 0.  0.
        -24    2    4    4    0    0 -0.15111669967E+03  0.70829769850E+02 -0.46717199241E+03  0.50248853567E+03  0.79949638953E+02 0.  0.
         24    2    4    4    0    0 -0.49134638296E+03 -0.65498224246E+03  0.30891112338E+02  0.82316292303E+03  0.78866539436E+02 0.  0.
         11    1    3    3    0    0  0.63036839604E+03  0.56862101454E+03 -0.46825078084E+03  0.96951171558E+03  0.00000000000E+00 0.  1.
        -11    1    3    3    0    0  0.12094686596E+02  0.15531458072E+02  0.26775573149E+01  0.19866477969E+02  0.00000000000E+00 0. -1.
          2    1    6    6  502    0 -0.26411942203E+03 -0.29645636344E+03  0.35899966519E+02  0.39866558932E+03  0.00000000000E+00 0. -1.
          1    1    5    5  503    0 -0.11370662828E+03  0.22753581253E+02 -0.37051143531E+03  0.38823400994E+03  0.00000000000E+00 0. -1.
         -2    1    5    5    0  503 -0.37410071390E+02  0.48076188597E+02 -0.96660557098E+02  0.11425452573E+03  0.00000000000E+00 0.  1.
         -1    1    6    6    0  502 -0.22722696094E+03 -0.35852587902E+03 -0.50088541815E+01  0.42449733371E+03  0.00000000000E+00 0.  1.
<mgrwt>
<rscale>  0 0.21321401E+04</rscale>
<asrwt>0</asrwt>
<pdfrwt beam="1">  1        2 0.24745260E+00 0.21321401E+04</pdfrwt>
<pdfrwt beam="2">  1       -2 0.10870581E+00 0.21321401E+04</pdfrwt>
<totfact> 0.68560193E+00</totfact>
</mgrwt>
</event>
<event>
12    1  0.2083715E-007  0.1790362E+04  0.7818608E-02  0.8711441E-01
          2   -1    0    0  501    0  0.00000000000E+00  0.00000000000E+00  0.23117687207E+04  0.23117687207E+04  0.00000000000E+00 0.  1.
         -2   -1    0    0    0  501 -0.00000000000E+00 -0.00000000000E+00 -0.34663911319E+03  0.34663911319E+03  0.00000000000E+00 0. -1.
         23    2    1    2    0    0 -0.60011058525E+03  0.28638672793E+03  0.74644053765E+03  0.10036952243E+04  0.89891905241E+02 0.  0.
        254    2    1    2    0    0  0.60011058525E+03 -0.28638672793E+03  0.12186890698E+04  0.16547126095E+04  0.90040029919E+03 0.  0.
        -24    2    4    4    0    0 -0.32523538915E+02 -0.42918372044E+03  0.31319649031E+03  0.53800493646E+03  0.78107769403E+02 0.  0.
         24    2    4    4    0    0  0.63263412417E+03  0.14279699251E+03  0.90549257954E+03  0.11167076731E+04  0.80636836534E+02 0.  0.
         11    1    3    3    0    0 -0.50065454241E+03  0.20732669723E+03  0.63410864848E+03  0.83410617328E+03  0.00000000000E+00 0.  1.
        -11    1    3    3    0    0 -0.99456042847E+02  0.79060030704E+02  0.11233188916E+03  0.16958905105E+03  0.00000000000E+00 0. -1.
          2    1    6    6  502    0  0.35652601419E+03  0.57754942264E+02  0.55958579546E+03  0.66602004071E+03  0.00000000000E+00 0. -1.
          3    1    5    5  503    0 -0.22232168164E+02 -0.23668704971E+03  0.12495091903E+03  0.26856612029E+03  0.00000000000E+00 0. -1.
         -4    1    5    5    0  503 -0.10291370751E+02 -0.19249667073E+03  0.18824557127E+03  0.26943881617E+03  0.00000000000E+00 0.  1.
         -1    1    6    6    0  502  0.27610810998E+03  0.85042050245E+02  0.34590678407E+03  0.45068763238E+03  0.00000000000E+00 0.  1.
<mgrwt>
<rscale>  0 0.17903625E+04</rscale>
<asrwt>0</asrwt>
<pdfrwt beam="1">  1        2 0.35565672E+00 0.17903625E+04</pdfrwt>
<pdfrwt beam="2">  1       -2 0.53329096E-01 0.17903625E+04</pdfrwt>
<totfact> 0.13988591E+01</totfact>
</mgrwt>
</event>
<event>
12    1  0.2083715E-007  0.1693177E+04  0.7818608E-02  0.8765265E-01
          2   -1    0    0  501    0  0.00000000000E+00  0.00000000000E+00  0.18989942628E+04  0.18989942628E+04  0.00000000000E+00 0. -1.
         -2   -1    0    0    0  501 -0.00000000000E+00 -0.00000000000E+00 -0.37741668241E+03  0.37741668241E+03  0.00000000000E+00 0.  1.
         23    2    1    2    0    0  0.20905668738E+03 -0.46108401879E+03  0.98692009697E+03  0.11128645115E+04  0.90293811196E+02 0.  0.
        254    2    1    2    0    0 -0.20905668738E+03  0.46108401879E+03  0.53465748347E+03  0.11635464337E+04  0.90093202178E+03 0.  0.
        -24    2    4    4    0    0  0.28495641156E+03  0.36778563364E+03  0.44124824517E+03  0.64629246874E+03  0.80793022530E+02 0.  0.
         24    2    4    4    0    0 -0.49401309894E+03  0.93298385149E+02  0.93409238302E+02  0.51725396498E+03  0.77928479282E+02 0.  0.
         13    1    3    3    0    0  0.21612970430E+03 -0.44169433624E+03  0.96290165054E+03  0.10811963394E+04  0.00000000000E+00 0. -1.
        -13    1    3    3    0    0 -0.70730169152E+01 -0.19389682544E+02  0.24018446430E+02  0.31668172135E+02  0.00000000000E+00 0.  1.
          4    1    6    6  502    0 -0.31432178260E+02  0.85567376309E+00  0.25865820930E+02  0.40715533892E+02  0.00000000000E+00 0. -1.
          1    1    5    5  503    0  0.51955747541E+02  0.11432423734E+03  0.14755820585E+03  0.19375978701E+03  0.00000000000E+00 0. -1.
         -2    1    5    5    0  503  0.23300066402E+03  0.25346139629E+03  0.29369003931E+03  0.45253268174E+03  0.00000000000E+00 0.  1.
         -3    1    6    6    0  502 -0.46258092068E+03  0.92442711386E+02  0.67543417373E+02  0.47653843108E+03  0.00000000000E+00 0.  1.
<mgrwt>
<rscale>  0 0.16931770E+04</rscale>
<asrwt>0</asrwt>
<pdfrwt beam="1">  1        2 0.29215296E+00 0.16931770E+04</pdfrwt>
<pdfrwt beam="2">  1       -2 0.58064106E-01 0.16931770E+04</pdfrwt>
<totfact> 0.20090971E+01</totfact>
</mgrwt>
</event>
<event>
12    1  0.2083715E-007  0.2159781E+04  0.7818608E-02  0.8535357E-01
         -2   -1    0    0    0  501 -0.00000000000E+00  0.00000000000E+00  0.86360938932E+03  0.86360938932E+03  0.00000000000E+00 0.  1.
          2   -1    0    0  501    0  0.00000000000E+00 -0.00000000000E+00 -0.13503371017E+04  0.13503371017E+04  0.00000000000E+00 0. -1.
         23    2    1    2    0    0  0.72340410777E+03  0.70731202737E+02  0.32555223378E+03  0.80165668140E+03  0.91393499382E+02 0.  0.
        254    2    1    2    0    0 -0.72340410777E+03 -0.70731202737E+02 -0.81227994619E+03  0.14122898097E+04  0.89802415852E+03 0.  0.
        -24    2    4    4    0    0 -0.45272322049E+03 -0.45730176542E+03 -0.31147146645E+03  0.71967570431E+03  0.82676634716E+02 0.  0.
         24    2    4    4    0    0 -0.27068088728E+03  0.38657056268E+03 -0.50080847974E+03  0.69261410534E+03  0.78741493986E+02 0.  0.
         11    1    3    3    0    0  0.52935115146E+03  0.36399578933E+02  0.19514285360E+03  0.56534794968E+03  0.00000000000E+00 0. -1.
        -11    1    3    3    0    0  0.19405295631E+03  0.34331623804E+02  0.13040938018E+03  0.23630873172E+03  0.00000000000E+00 0.  1.
          2    1    6    6  502    0  0.49083450869E+00  0.27208506425E+02 -0.40131759886E+02  0.48488162390E+02  0.00000000000E+00 0. -1.
          1    1    5    5  503    0 -0.88840968844E+02 -0.10232937484E+03 -0.30711421772E+02  0.13895038729E+03  0.00000000000E+00 0. -1.
         -2    1    5    5    0  503 -0.36388225165E+03 -0.35497239058E+03 -0.28076004468E+03  0.58072531702E+03  0.00000000000E+00 0.  1.
         -3    1    6    6    0  502 -0.27117172179E+03  0.35936205626E+03 -0.46067671985E+03  0.64412594295E+03  0.00000000000E+00 0.  1.
<mgrwt>
<rscale>  0 0.21597813E+04</rscale>
<asrwt>0</asrwt>
<pdfrwt beam="1">  1        2 0.20774417E+00 0.21597813E+04</pdfrwt>
<pdfrwt beam="2">  1       -2 0.13286298E+00 0.21597813E+04</pdfrwt>
<totfact> 0.58249707E+00</totfact>
</mgrwt>
</event>
<event>
12    1  0.2083715E-007  0.4088879E+04  0.7818608E-02  0.7986853E-01
          1   -1    0    0  501    0  0.00000000000E+00  0.00000000000E+00  0.34801106057E+04  0.34801106057E+04  0.00000000000E+00 0. -1.
         -1   -1    0    0    0  501 -0.00000000000E+00 -0.00000000000E+00 -0.12010346620E+04  0.12010346620E+04  0.00000000000E+00 0.  1.
         23    2    1    2    0    0 -0.18895348861E+04 -0.42339156655E+03  0.12824384786E+04  0.23244511833E+04  0.93927354320E+02 0.  0.
        254    2    1    2    0    0  0.18895348861E+04  0.42339156655E+03  0.99663746506E+03  0.23566940843E+04  0.90062104467E+03 0.  0.
        -24    2    4    4    0    0  0.52259189613E+03  0.98512430660E+02 -0.13015714951E+03  0.55393854031E+03  0.84261699322E+02 0.  0.
         24    2    4    4    0    0  0.13669429899E+04  0.32487913589E+03  0.11267946146E+04  0.18027555440E+04  0.78624789030E+02 0.  0.
         11    1    3    3    0    0 -0.16081813679E+03 -0.11795322978E+02  0.94262654463E+02  0.18678075594E+03  0.00000000000E+00 0. -1.
        -11    1    3    3    0    0 -0.17287167493E+04 -0.41159624357E+03  0.11881758242E+04  0.21376704274E+04  0.00000000000E+00 0.  1.
          2    1    6    6  502    0  0.33503118737E+03  0.76557927119E+02  0.23335085681E+03  0.41540297915E+03  0.00000000000E+00 0. -1.
          3    1    5    5  503    0  0.20887333975E+03  0.11826794854E+02 -0.82975333475E+02  0.22506188283E+03  0.00000000000E+00 0. -1.
         -4    1    5    5    0  503  0.31371855638E+03  0.86685635806E+02 -0.47181816030E+02  0.32887665748E+03  0.00000000000E+00 0.  1.
         -1    1    6    6    0  502  0.10319118026E+04  0.24832120877E+03  0.89344375776E+03  0.13873525649E+04  0.00000000000E+00 0.  1.
<mgrwt>
<rscale>  0 0.40888793E+04</rscale>
<asrwt>0</asrwt>
<pdfrwt beam="1">  1        1 0.53540163E+00 0.40888793E+04</pdfrwt>
<pdfrwt beam="2">  1       -1 0.18477457E+00 0.40888793E+04</pdfrwt>
<totfact> 0.38667824E-02</totfact>
</mgrwt>
</event>
<event>
12    1  0.2083715E-007  0.2412795E+04  0.7818608E-02  0.8434729E-01
         -2   -1    0    0    0  501 -0.00000000000E+00  0.00000000000E+00  0.13594442453E+04  0.13594442453E+04  0.00000000000E+00 0.  1.
          2   -1    0    0  501    0  0.00000000000E+00 -0.00000000000E+00 -0.10705806353E+04  0.10705806353E+04  0.00000000000E+00 0. -1.
         23    2    1    2    0    0 -0.84178836308E+03  0.30433459984E+03 -0.40199845762E+03  0.98513597555E+03  0.87538183139E+02 0.  0.
        254    2    1    2    0    0  0.84178836308E+03 -0.30433459984E+03  0.69086206761E+03  0.14448889050E+04  0.89954786113E+03 0.  0.
        -24    2    4    4    0    0  0.94609566555E+03 -0.32613442389E+03  0.79093731850E+03  0.12781254073E+04  0.81006445297E+02 0.  0.
         24    2    4    4    0    0 -0.10430730247E+03  0.21799824056E+02 -0.10007525089E+03  0.16676349770E+03  0.80248131721E+02 0.  0.
         11    1    3    3    0    0 -0.81516892381E+03  0.29009859790E+03 -0.40392195938E+03  0.95488770027E+03  0.00000000000E+00 0. -1.
        -11    1    3    3    0    0 -0.26619439272E+02  0.14236001934E+02  0.19235017643E+01  0.30248275277E+02  0.00000000000E+00 0.  1.
          4    1    6    6  502    0  0.21038125295E+00  0.11861611734E+02  0.93590106166E+01  0.15110697301E+02  0.00000000000E+00 0. -1.
          1    1    5    5  503    0  0.59748911176E+03 -0.19528313642E+03  0.44792358158E+03  0.77185767923E+03  0.00000000000E+00 0. -1.
         -2    1    5    5    0  503  0.34860655379E+03 -0.13085128747E+03  0.34301373693E+03  0.50626772808E+03  0.00000000000E+00 0.  1.
         -1    1    6    6    0  502 -0.10451768372E+03  0.99382123216E+01 -0.10943426151E+03  0.15165280039E+03  0.00000000000E+00 0.  1.
<mgrwt>
<rscale>  0 0.24127948E+04</rscale>
<asrwt>0</asrwt>
<pdfrwt beam="1">  1        2 0.16470471E+00 0.24127948E+04</pdfrwt>
<pdfrwt beam="2">  1       -2 0.20914527E+00 0.24127948E+04</pdfrwt>
<totfact> 0.23667823E+00</totfact>
</mgrwt>
</event>
<event>
12    1  0.2083715E-007  0.2246579E+04  0.7818608E-02  0.8499287E-01
         -2   -1    0    0    0  501 -0.00000000000E+00  0.00000000000E+00  0.53149049943E+03  0.53149049943E+03  0.00000000000E+00 0.  1.
          2   -1    0    0  501    0  0.00000000000E+00 -0.00000000000E+00 -0.23740381941E+04  0.23740381941E+04  0.00000000000E+00 0. -1.
         23    2    1    2    0    0  0.59550549095E+02  0.62866058753E+03 -0.16779454338E+04  0.17951335784E+04  0.90792527466E+02 0.  0.
        254    2    1    2    0    0 -0.59550549095E+02 -0.62866058753E+03 -0.16460226084E+03  0.11103951152E+04  0.89840024784E+03 0.  0.
        -24    2    4    4    0    0 -0.17283902154E+02  0.22436517708E+03 -0.12976154845E+02  0.23933632976E+03  0.80467584728E+02 0.  0.
         24    2    4    4    0    0 -0.42266646941E+02 -0.85302576461E+03 -0.15162610600E+03  0.87105878541E+03  0.79457580452E+02 0.  0.
         11    1    3    3    0    0  0.70083930207E+02  0.52920650866E+03 -0.13310054602E+04  0.14340665330E+04  0.00000000000E+00 0. -1.
        -11    1    3    3    0    0 -0.10533381112E+02  0.99454078878E+02 -0.34693997364E+03  0.36106704535E+03  0.00000000000E+00 0.  1.
          4    1    6    6  502    0  0.77316317904E+01 -0.63881535202E+02 -0.30131027426E+02  0.71052849934E+02  0.00000000000E+00 0. -1.
          1    1    5    5  503    0  0.14844833480E+02  0.18390477815E+02  0.16462377881E+02  0.28802580454E+02  0.00000000000E+00 0. -1.
         -2    1    5    5    0  503 -0.32128735634E+02  0.20597469926E+03 -0.29438532726E+02  0.21053374931E+03  0.00000000000E+00 0.  1.
         -3    1    6    6    0  502 -0.49998278732E+02 -0.78914422941E+03 -0.12149507857E+03  0.80000593548E+03  0.00000000000E+00 0.  1.
<mgrwt>
<rscale>  0 0.22465785E+04</rscale>
<asrwt>0</asrwt>
<pdfrwt beam="1">  1        2 0.36523664E+00 0.22465785E+04</pdfrwt>
<pdfrwt beam="2">  1       -2 0.81767770E-01 0.22465785E+04</pdfrwt>
<totfact> 0.49285794E+00</totfact>
</mgrwt>
</event>
<event>
12    1  0.2083715E-007  0.2297934E+04  0.7818608E-02  0.8478736E-01
          1   -1    0    0  501    0  0.00000000000E+00  0.00000000000E+00  0.61956238228E+03  0.61956238228E+03  0.00000000000E+00 0. -1.
         -1   -1    0    0    0  501 -0.00000000000E+00 -0.00000000000E+00 -0.21307377475E+04  0.21307377475E+04  0.00000000000E+00 0.  1.
         23    2    1    2    0    0 -0.11583273168E+03 -0.62212585789E+03  0.23883531931E+03  0.68284704895E+03  0.93701535325E+02 0.  0.
        254    2    1    2    0    0  0.11583273168E+03  0.62212585789E+03 -0.17500106845E+04  0.20674530808E+04  0.90075914689E+03 0.  0.
        -24    2    4    4    0    0  0.49471805612E+03  0.24192056805E+03 -0.89752796882E+03  0.10567376339E+04  0.88693042533E+02 0.  0.
         24    2    4    4    0    0 -0.37888532444E+03  0.38020528985E+03 -0.85248271567E+03  0.10107154469E+04  0.81907158299E+02 0.  0.
         13    1    3    3    0    0 -0.29933228908E+02 -0.38193389140E+03  0.12019699269E+03  0.40151813489E+03  0.00000000000E+00 0.  1.
        -13    1    3    3    0    0 -0.85899502773E+02 -0.24019196650E+03  0.11863832661E+03  0.28132891406E+03  0.00000000000E+00 0. -1.
          2    1    6    6  502    0 -0.33119636682E+03  0.31793773717E+03 -0.67120772924E+03  0.81320062341E+03  0.00000000000E+00 0. -1.
          1    1    5    5  503    0  0.44993251595E+03  0.22823007107E+03 -0.76688696662E+03  0.91795634636E+03  0.00000000000E+00 0. -1.
         -2    1    5    5    0  503  0.44785540167E+02  0.13690496975E+02 -0.13064100220E+03  0.13878128754E+03  0.00000000000E+00 0.  1.
         -1    1    6    6    0  502 -0.47688957620E+02  0.62267552671E+02 -0.18127498643E+03  0.19751482349E+03  0.00000000000E+00 0.  1.
<mgrwt>
<rscale>  0 0.22979338E+04</rscale>
<asrwt>0</asrwt>
<pdfrwt beam="1">  1        1 0.95317289E-01 0.22979338E+04</pdfrwt>
<pdfrwt beam="2">  1       -1 0.32780581E+00 0.22979338E+04</pdfrwt>
<totfact> 0.64334237E-01</totfact>
</mgrwt>
</event>
<event>
12    1  0.2083715E-007  0.1626279E+04  0.7818608E-02  0.8804564E-01
         -1   -1    0    0    0  501 -0.00000000000E+00  0.00000000000E+00  0.29307598456E+03  0.29307598456E+03  0.00000000000E+00 0.  1.
          1   -1    0    0  501    0  0.00000000000E+00 -0.00000000000E+00 -0.22560563113E+04  0.22560563113E+04  0.00000000000E+00 0. -1.
         23    2    1    2    0    0  0.16448925848E+02 -0.89747485102E+02  0.18060362327E+03  0.22230625020E+03  0.92071830082E+02 0.  0.
        254    2    1    2    0    0 -0.16448925848E+02  0.89747485102E+02 -0.21435839500E+04  0.23268260457E+04  0.90046772166E+03 0.  0.
        -24    2    4    4    0    0 -0.44934737462E+03  0.80234266191E+02 -0.11490918031E+04  0.12390416115E+04  0.80383721027E+02 0.  0.
         24    2    4    4    0    0  0.43289844877E+03  0.95132189110E+01 -0.99449214694E+03  0.10877844341E+04  0.82272574858E+02 0.  0.
         13    1    3    3    0    0  0.19303013144E+02  0.15005904174E+02  0.41190062857E+02  0.47899945247E+02  0.00000000000E+00 0.  1.
        -13    1    3    3    0    0 -0.28540872960E+01 -0.10475338928E+03  0.13941356041E+03  0.17440630495E+03  0.00000000000E+00 0. -1.
          4    1    6    6  502    0  0.60584015289E+02 -0.20292360328E+00 -0.22322035603E+03  0.23129589584E+03  0.00000000000E+00 0. -1.
          1    1    5    5  503    0 -0.24024597522E+03  0.64524543187E+02 -0.53177339289E+03  0.58708132883E+03  0.00000000000E+00 0. -1.
         -2    1    5    5    0  503 -0.20910139940E+03  0.15709723003E+02 -0.61731841020E+03  0.65196028269E+03  0.00000000000E+00 0.  1.
         -3    1    6    6    0  502  0.37231443348E+03  0.97161425142E+01 -0.77127179091E+03  0.85648853831E+03  0.00000000000E+00 0.  1.
<mgrwt>
<rscale>  0 0.16262791E+04</rscale>
<asrwt>0</asrwt>
<pdfrwt beam="1">  1        1 0.34708557E+00 0.16262791E+04</pdfrwt>
<pdfrwt beam="2">  1       -1 0.45088614E-01 0.16262791E+04</pdfrwt>
<totfact> 0.93282608E+00</totfact>
</mgrwt>
</event>
<event>
12    1  0.2083715E-007  0.3386066E+04  0.7818608E-02  0.8141335E-01
          2   -1    0    0  501    0  0.00000000000E+00  0.00000000000E+00  0.17450551262E+04  0.17450551262E+04  0.00000000000E+00 0.  1.
         -2   -1    0    0    0  501 -0.00000000000E+00 -0.00000000000E+00 -0.16425613394E+04  0.16425613394E+04  0.00000000000E+00 0. -1.
         23    2    1    2    0    0 -0.14469082649E+04  0.56330694438E+03  0.29753560292E+03  0.15833780289E+04  0.87751390971E+02 0.  0.
        254    2    1    2    0    0  0.14469082649E+04 -0.56330694438E+03 -0.19504181620E+03  0.18042384367E+04  0.89798484723E+03 0.  0.
        -24    2    4    4    0    0  0.30958259329E+02 -0.31438278846E+03 -0.16166534295E+03  0.36387849621E+03  0.80479347593E+02 0.  0.
         24    2    4    4    0    0  0.14159500056E+04 -0.24892415592E+03 -0.33376473248E+02  0.14403599405E+04  0.81517578366E+02 0.  0.
         11    1    3    3    0    0 -0.19506133052E+03  0.45352514539E+02  0.31249950257E+02  0.20268777129E+03  0.00000000000E+00 0. -1.
        -11    1    3    3    0    0 -0.12518469344E+04  0.51795442984E+03  0.26628565266E+03  0.13806902576E+04  0.00000000000E+00 0.  1.
          2    1    6    6  502    0  0.62470441684E+03 -0.10796440701E+03 -0.55168313580E+02  0.63636111165E+03  0.00000000000E+00 0. -1.
          3    1    5    5  503    0  0.17323959787E+02 -0.31143479714E+03 -0.15675530966E+03  0.34909021694E+03  0.00000000000E+00 0. -1.
         -4    1    5    5    0  503  0.13634299542E+02 -0.29479913157E+01 -0.49100332934E+01  0.14788279269E+02  0.00000000000E+00 0.  1.
         -1    1    6    6    0  502  0.79124558876E+03 -0.14095974891E+03  0.21791840332E+02  0.80399882888E+03  0.00000000000E+00 0.  1.
<mgrwt>
<rscale>  0 0.33860656E+04</rscale>
<asrwt>0</asrwt>
<pdfrwt beam="1">  1        2 0.26847002E+00 0.33860656E+04</pdfrwt>
<pdfrwt beam="2">  1       -2 0.25270175E+00 0.33860656E+04</pdfrwt>
<totfact> 0.47487232E-01</totfact>
</mgrwt>
</event>
<event>
12    1  0.2083715E-007  0.1378251E+04  0.7818608E-02  0.8969714E-01
          2   -1    0    0  501    0  0.00000000000E+00  0.00000000000E+00  0.53854877127E+03  0.53854877127E+03  0.00000000000E+00 0. -1.
         -2   -1    0    0    0  501 -0.00000000000E+00 -0.00000000000E+00 -0.88180351039E+03  0.88180351039E+03  0.00000000000E+00 0.  1.
         23    2    1    2    0    0 -0.39943718825E+03  0.68215889228E+01 -0.12879947259E+03  0.42936548608E+03  0.90381497344E+02 0.  0.
        254    2    1    2    0    0  0.39943718825E+03 -0.68215889228E+01 -0.21445526653E+03  0.99098679559E+03  0.88117374351E+03 0.  0.
        -24    2    4    4    0    0  0.62727755242E+03  0.16988832496E+03 -0.22358056869E+03  0.69151916021E+03  0.76624457709E+02 0.  0.
         24    2    4    4    0    0 -0.22784036417E+03 -0.17670991388E+03  0.91253021580E+01  0.29946763538E+03  0.80373927929E+02 0.  0.
         13    1    3    3    0    0 -0.23302494326E+03 -0.38986172682E+02 -0.87014755887E+02  0.25177790528E+03  0.00000000000E+00 0.  1.
        -13    1    3    3    0    0 -0.16641224499E+03  0.45807761605E+02 -0.41784716705E+02  0.17758758080E+03  0.00000000000E+00 0. -1.
          2    1    6    6  502    0 -0.19984092162E+03 -0.11304323783E+03  0.11378598529E+02  0.22987962084E+03  0.00000000000E+00 0. -1.
          1    1    5    5  503    0  0.58660823070E+03  0.16275993018E+03 -0.22784485618E+03  0.65001022275E+03  0.00000000000E+00 0. -1.
         -2    1    5    5    0  503  0.40669321719E+02  0.71283947796E+01  0.42642874881E+01  0.41508937459E+02  0.00000000000E+00 0.  1.
         -1    1    6    6    0  502 -0.27999442546E+02 -0.63666676053E+02 -0.22532963715E+01  0.69588014536E+02  0.00000000000E+00 0.  1.
<mgrwt>
<rscale>  0 0.13782514E+04</rscale>
<asrwt>0</asrwt>
<pdfrwt beam="1">  1        2 0.82853657E-01 0.13782514E+04</pdfrwt>
<pdfrwt beam="2">  1       -2 0.13566208E+00 0.13782514E+04</pdfrwt>
<totfact> 0.21423129E+01</totfact>
</mgrwt>
</event>
<event>
12    1  0.2083715E-007  0.9957740E+03  0.7818608E-02  0.9313192E-01
          2   -1    0    0  501    0  0.00000000000E+00  0.00000000000E+00  0.12946719890E+04  0.12946719890E+04  0.00000000000E+00 0. -1.
         -2   -1    0    0    0  501 -0.00000000000E+00 -0.00000000000E+00 -0.19147046292E+03  0.19147046292E+03  0.00000000000E+00 0.  1.
         23    2    1    2    0    0  0.61345336766E+02 -0.55720767686E+02  0.98755564317E+02  0.13987584823E+03  0.54263589440E+02 0.  0.
        254    2    1    2    0    0 -0.61345336766E+02  0.55720767686E+02  0.10044459618E+04  0.13462666037E+04  0.89255477360E+03 0.  0.
        -24    2    4    4    0    0  0.88078797645E+02 -0.30263058275E+02 -0.13900259705E+03  0.18640400479E+03  0.82164491869E+02 0.  0.
         24    2    4    4    0    0 -0.14942413441E+03  0.85983825961E+02  0.11434485589E+04  0.11598625990E+04  0.89921362505E+02 0.  0.
         13    1    3    3    0    0  0.32073815800E+02 -0.38516121483E+02  0.19730893632E+02  0.53865846671E+02  0.00000000000E+00 0.  1.
        -13    1    3    3    0    0  0.29271520966E+02 -0.17204646203E+02  0.79024670685E+02  0.86010001555E+02  0.00000000000E+00 0. -1.
          4    1    6    6  502    0 -0.86256717249E+02  0.40025339936E+02  0.87868679889E+03  0.88381714152E+03  0.00000000000E+00 0. -1.
          3    1    5    5  503    0  0.74861086781E+02  0.10833952210E+02 -0.11308714333E+03  0.13605241203E+03  0.00000000000E+00 0. -1.
         -4    1    5    5    0  503  0.13217710864E+02 -0.41097010485E+02 -0.25915453725E+02  0.50351592756E+02  0.00000000000E+00 0.  1.
         -3    1    6    6    0  502 -0.63167417161E+02  0.45958486025E+02  0.26476175997E+03  0.27604545743E+03  0.00000000000E+00 0.  1.
<mgrwt>
<rscale>  0 0.99577396E+03</rscale>
<asrwt>0</asrwt>
<pdfrwt beam="1">  1        2 0.19918030E+00 0.99577396E+03</pdfrwt>
<pdfrwt beam="2">  1       -2 0.29456995E-01 0.99577396E+03</pdfrwt>
<totfact> 0.17616178E+02</totfact>
</mgrwt>
</event>
<event>
12    1  0.2083715E-007  0.2827806E+04  0.7818608E-02  0.8294687E-01
         -1   -1    0    0    0  501 -0.00000000000E+00  0.00000000000E+00  0.19501554253E+04  0.19501554253E+04  0.00000000000E+00 0.  1.
          1   -1    0    0  501    0  0.00000000000E+00 -0.00000000000E+00 -0.10251091971E+04  0.10251091971E+04  0.00000000000E+00 0. -1.
         23    2    1    2    0    0 -0.79394337927E+03  0.92191699866E+03  0.79826836232E+03  0.14580115272E+04  0.91039515655E+02 0.  0.
        254    2    1    2    0    0  0.79394337927E+03 -0.92191699866E+03  0.12677786595E+03  0.15172530952E+04  0.89761199057E+03 0.  0.
        -24    2    4    4    0    0  0.73119283524E+03 -0.87898061715E+03  0.40751985241E+03  0.12163978375E+04  0.79381240642E+02 0.  0.
         24    2    4    4    0    0  0.62750544031E+02 -0.42936381507E+02 -0.28074198647E+03  0.30085525766E+03  0.76919824899E+02 0.  0.
         11    1    3    3    0    0 -0.48596158414E+03  0.49606714160E+03  0.46283245668E+03  0.83453888657E+03  0.00000000000E+00 0. -1.
        -11    1    3    3    0    0 -0.30798179512E+03  0.42584985706E+03  0.33543590565E+03  0.62347264068E+03  0.00000000000E+00 0.  1.
          2    1    6    6  502    0  0.64620248533E+02 -0.71625365523E+01 -0.22806907330E+03  0.23715518262E+03  0.00000000000E+00 0. -1.
          1    1    5    5  503    0  0.55351999582E+03 -0.71117907261E+03  0.30551798742E+03  0.95157832034E+03  0.00000000000E+00 0. -1.
         -2    1    5    5    0  503  0.17767283942E+03 -0.16780154453E+03  0.10200186499E+03  0.26481951717E+03  0.00000000000E+00 0.  1.
         -1    1    6    6    0  502 -0.18697045026E+01 -0.35773844954E+02 -0.52672913169E+02  0.63700075035E+02  0.00000000000E+00 0.  1.
<mgrwt>
<rscale>  0 0.28278064E+04</rscale>
<asrwt>0</asrwt>
<pdfrwt beam="1">  1        1 0.15770911E+00 0.28278064E+04</pdfrwt>
<pdfrwt beam="2">  1       -1 0.30002391E+00 0.28278064E+04</pdfrwt>
<totfact> 0.41239400E-01</totfact>
</mgrwt>
</event>
<event>
12    1  0.2083715E-007  0.4168909E+04  0.7818608E-02  0.7971313E-01
          1   -1    0    0  501    0  0.00000000000E+00  0.00000000000E+00  0.23453767587E+04  0.23453767587E+04  0.00000000000E+00 0. -1.
         -1   -1    0    0    0  501 -0.00000000000E+00 -0.00000000000E+00 -0.18525598516E+04  0.18525598516E+04  0.00000000000E+00 0.  1.
         23    2    1    2    0    0 -0.45415460478E+03 -0.12482826962E+04  0.17221426394E+04  0.21768088828E+04  0.90860042999E+02 0.  0.
        254    2    1    2    0    0  0.45415460478E+03  0.12482826962E+04 -0.12293257322E+04  0.20211277275E+04  0.89958292577E+03 0.  0.
        -24    2    4    4    0    0 -0.11149097877E+03  0.53083813764E+03 -0.85091767691E+02  0.55495545164E+03  0.80719128205E+02 0.  0.
         24    2    4    4    0    0  0.56564558355E+03  0.71744455855E+03 -0.11442339646E+04  0.14661722759E+04  0.75552340370E+02 0.  0.
         13    1    3    3    0    0 -0.78943528891E+02 -0.13890883145E+03  0.22770896414E+03  0.27817102034E+03  0.00000000000E+00 0. -1.
        -13    1    3    3    0    0 -0.37521107589E+03 -0.11093738647E+04  0.14944336752E+04  0.18986378625E+04  0.00000000000E+00 0.  1.
          4    1    6    6  502    0  0.51988449163E+03  0.62036209979E+03 -0.10098506992E+04  0.12941898833E+04  0.00000000000E+00 0. -1.
          1    1    5    5  503    0 -0.11473850647E+03  0.37044959915E+03 -0.54082319224E+02  0.39156446165E+03  0.00000000000E+00 0. -1.
         -2    1    5    5    0  503  0.32475277019E+01  0.16038853849E+03 -0.31009448467E+02  0.16339098999E+03  0.00000000000E+00 0.  1.
         -3    1    6    6    0  502  0.45761091916E+02  0.97082458752E+02 -0.13438326539E+03  0.17198239255E+03  0.00000000000E+00 0.  1.
<mgrwt>
<rscale>  0 0.41689091E+04</rscale>
<asrwt>0</asrwt>
<pdfrwt beam="1">  1        1 0.36082719E+00 0.41689091E+04</pdfrwt>
<pdfrwt beam="2">  1       -1 0.28500921E+00 0.41689091E+04</pdfrwt>
<totfact> 0.55238464E-02</totfact>
</mgrwt>
</event>
<event>
12    1  0.2083715E-007  0.1084764E+04  0.7818608E-02  0.9220170E-01
         -1   -1    0    0    0  501 -0.00000000000E+00  0.00000000000E+00  0.14765680293E+04  0.14765680293E+04  0.00000000000E+00 0.  1.
          1   -1    0    0  501    0  0.00000000000E+00 -0.00000000000E+00 -0.19923119251E+03  0.19923119251E+03  0.00000000000E+00 0. -1.
         23    2    1    2    0    0  0.13738929099E+03  0.60200194924E+02  0.29336723717E+03  0.34188568516E+03  0.91222832262E+02 0.  0.
        254    2    1    2    0    0 -0.13738929099E+03 -0.60200194924E+02  0.98396959960E+03  0.13339135366E+04  0.88804801082E+03 0.  0.
        -24    2    4    4    0    0 -0.17621608055E+02 -0.40842160681E+03  0.82647443167E+03  0.92547263426E+03  0.79503965723E+02 0.  0.
         24    2    4    4    0    0 -0.11976768294E+03  0.34822141189E+03  0.15749516792E+03  0.40844090237E+03  0.80104888986E+02 0.  0.
         13    1    3    3    0    0  0.10683763695E+03  0.56015926192E+02  0.28568011629E+03  0.31010513298E+03  0.00000000000E+00 0.  1.
        -13    1    3    3    0    0  0.30551654043E+02  0.41842687316E+01  0.76871208774E+01  0.31780552181E+02  0.00000000000E+00 0. -1.
          2    1    6    6  502    0 -0.12105820992E+03  0.24363772435E+03  0.10766140531E+03  0.29258402060E+03  0.00000000000E+00 0. -1.
          1    1    5    5  503    0  0.21422352742E+02 -0.30647370343E+03  0.61721943684E+03  0.68945259540E+03  0.00000000000E+00 0. -1.
         -2    1    5    5    0  503 -0.39043960797E+02 -0.10194790338E+03  0.20925499483E+03  0.23602003886E+03  0.00000000000E+00 0.  1.
         -1    1    6    6    0  502  0.12905269828E+01  0.10458368754E+03  0.49833762609E+02  0.11585688178E+03  0.00000000000E+00 0.  1.
<mgrwt>
<rscale>  0 0.10847643E+04</rscale>
<asrwt>0</asrwt>
<pdfrwt beam="1">  1        1 0.30650954E-01 0.10847643E+04</pdfrwt>
<pdfrwt beam="2">  1       -1 0.22716431E+00 0.10847643E+04</pdfrwt>
<totfact> 0.14738369E+01</totfact>
</mgrwt>
</event>
<event>
12    1  0.2083715E-007  0.1401130E+04  0.7818608E-02  0.8953001E-01
          2   -1    0    0  501    0  0.00000000000E+00  0.00000000000E+00  0.11238988738E+04  0.11238988738E+04  0.00000000000E+00 0. -1.
         -2   -1    0    0    0  501 -0.00000000000E+00 -0.00000000000E+00 -0.43668649570E+03  0.43668649570E+03  0.00000000000E+00 0.  1.
         23    2    1    2    0    0 -0.14974064548E+03  0.20401226977E+03  0.55513482282E+03  0.61497574592E+03  0.77312543843E+02 0.  0.
        254    2    1    2    0    0  0.14974064548E+03 -0.20401226977E+03  0.13207755524E+03  0.94560962354E+03  0.90149310169E+03 0.  0.
        -24    2    4    4    0    0 -0.30921434936E+03 -0.21667029177E+03 -0.13511769679E+03  0.40859295372E+03  0.78306325781E+02 0.  0.
         24    2    4    4    0    0  0.45895499484E+03  0.12658021993E+02  0.26719525202E+03  0.53701666982E+03  0.78699988231E+02 0.  0.
         13    1    3    3    0    0 -0.84895945846E+02  0.14965431197E+03  0.43710571885E+03  0.46975008693E+03  0.00000000000E+00 0. -1.
        -13    1    3    3    0    0 -0.64844699635E+02  0.54357957801E+02  0.11802910397E+03  0.14522565900E+03  0.00000000000E+00 0.  1.
          2    1    6    6  502    0  0.30422115195E+03  0.31337599851E+02  0.21003435176E+03  0.37100806377E+03  0.00000000000E+00 0. -1.
          1    1    5    5  503    0 -0.27952394640E+03 -0.21353150939E+03 -0.13952563759E+03  0.37841345861E+03  0.00000000000E+00 0. -1.
         -2    1    5    5    0  503 -0.29690402959E+02 -0.31387823800E+01  0.44079408042E+01  0.30179495106E+02  0.00000000000E+00 0.  1.
         -1    1    6    6    0  502  0.15473384289E+03 -0.18679577859E+02  0.57160900258E+02  0.16600860605E+03  0.00000000000E+00 0.  1.
<mgrwt>
<rscale>  0 0.14011302E+04</rscale>
<asrwt>0</asrwt>
<pdfrwt beam="1">  1        2 0.17290752E+00 0.14011302E+04</pdfrwt>
<pdfrwt beam="2">  1       -2 0.67182538E-01 0.14011302E+04</pdfrwt>
<totfact> 0.41671855E+01</totfact>
</mgrwt>
</event>
<event>
12    1  0.2083715E-007  0.2352504E+04  0.7818608E-02  0.8457503E-01
         -2   -1    0    0    0  501 -0.00000000000E+00  0.00000000000E+00  0.12879665944E+04  0.12879665944E+04  0.00000000000E+00 0.  1.
          2   -1    0    0  501    0  0.00000000000E+00 -0.00000000000E+00 -0.10742267828E+04  0.10742267828E+04  0.00000000000E+00 0. -1.
         23    2    1    2    0    0 -0.23365092768E+03 -0.95641300898E+03 -0.12541660784E+03  0.99671930570E+03  0.91659419007E+02 0.  0.
        254    2    1    2    0    0  0.23365092768E+03  0.95641300898E+03  0.33915641945E+03  0.13654740715E+04  0.88327445520E+03 0.  0.
        -24    2    4    4    0    0  0.10199840312E+03  0.40599470715E+03 -0.29016656783E+03  0.51550618055E+03  0.79464511761E+02 0.  0.
         24    2    4    4    0    0  0.13165252456E+03  0.55041830183E+03  0.62932298728E+03  0.84996789091E+03  0.78136412965E+02 0.  0.
         13    1    3    3    0    0 -0.21923395429E+03 -0.93905243279E+03 -0.13179422619E+03  0.97326908730E+03  0.00000000000E+00 0.  1.
        -13    1    3    3    0    0 -0.14416973388E+02 -0.17360576193E+02  0.63776183507E+01  0.23450218405E+02  0.00000000000E+00 0. -1.
          2    1    6    6  502    0  0.97655022103E+02  0.50296576587E+03  0.57606851934E+03  0.77095136290E+03  0.00000000000E+00 0. -1.
          1    1    5    5  503    0  0.84123234075E+02  0.39662695901E+03 -0.27103706493E+03  0.48769945016E+03  0.00000000000E+00 0. -1.
         -2    1    5    5    0  503  0.17875169044E+02  0.93677481355E+01 -0.19129502902E+02  0.27806730386E+02  0.00000000000E+00 0.  1.
         -1    1    6    6    0  502  0.33997502453E+02  0.47452535964E+02  0.53254467945E+02  0.79016528009E+02  0.00000000000E+00 0.  1.
<mgrwt>
<rscale>  0 0.23525035E+04</rscale>
<asrwt>0</asrwt>
<pdfrwt beam="1">  1        2 0.16526566E+00 0.23525035E+04</pdfrwt>
<pdfrwt beam="2">  1       -2 0.19814871E+00 0.23525035E+04</pdfrwt>
<totfact> 0.27907813E+00</totfact>
</mgrwt>
</event>
<event>
12    1  0.2083715E-007  0.1898998E+04  0.7818608E-02  0.8655355E-01
         -1   -1    0    0    0  501 -0.00000000000E+00  0.00000000000E+00  0.12905406374E+04  0.12905406374E+04  0.00000000000E+00 0.  1.
          1   -1    0    0  501    0  0.00000000000E+00 -0.00000000000E+00 -0.69858171311E+03  0.69858171311E+03  0.00000000000E+00 0. -1.
         23    2    1    2    0    0 -0.20933018421E+03  0.70082089233E+03  0.16802413174E+03  0.75612637401E+03  0.92335992269E+02 0.  0.
        254    2    1    2    0    0  0.20933018421E+03 -0.70082089233E+03  0.42393479256E+03  0.12329959765E+04  0.89754627768E+03 0.  0.
        -24    2    4    4    0    0 -0.28378670630E+03 -0.13232551405E+03  0.34334569513E+03  0.47184594990E+03  0.81898704063E+02 0.  0.
         24    2    4    4    0    0  0.49311689051E+03 -0.56849537828E+03  0.80589097422E+02  0.76115002660E+03  0.80644265348E+02 0.  0.
         13    1    3    3    0    0 -0.75626073997E+02  0.37790587719E+03  0.58146175929E+02  0.38976035311E+03  0.00000000000E+00 0. -1.
        -13    1    3    3    0    0 -0.13370411021E+03  0.32291501515E+03  0.10987795581E+03  0.36636602090E+03  0.00000000000E+00 0.  1.
          4    1    6    6  502    0  0.46628177000E+03 -0.55609887716E+03  0.86969379043E+02  0.73090924410E+03  0.00000000000E+00 0. -1.
          3    1    5    5  503    0 -0.28542189498E+03 -0.12609882217E+03  0.34502006347E+03  0.46519395447E+03  0.00000000000E+00 0. -1.
         -4    1    5    5    0  503  0.16351886747E+01 -0.62266918867E+01 -0.16743683323E+01  0.66519954274E+01  0.00000000000E+00 0.  1.
         -3    1    6    6    0  502  0.26835120511E+02 -0.12396501123E+02 -0.63802816214E+01  0.30240782505E+02  0.00000000000E+00 0.  1.
<mgrwt>
<rscale>  0 0.18989977E+04</rscale>
<asrwt>0</asrwt>
<pdfrwt beam="1">  1        1 0.10747411E+00 0.18989977E+04</pdfrwt>
<pdfrwt beam="2">  1       -1 0.19854471E+00 0.18989977E+04</pdfrwt>
<totfact> 0.39381751E+00</totfact>
</mgrwt>
</event>
<event>
12    1  0.2083715E-007  0.1709300E+04  0.7818608E-02  0.8756078E-01
         -2   -1    0    0    0  501 -0.00000000000E+00  0.00000000000E+00  0.45883130155E+03  0.45883130155E+03  0.00000000000E+00 0.  1.
          2   -1    0    0  501    0  0.00000000000E+00 -0.00000000000E+00 -0.15919282226E+04  0.15919282226E+04  0.00000000000E+00 0. -1.
         23    2    1    2    0    0  0.12942605782E+03  0.33370397428E+03 -0.10091037248E+04  0.10745384179E+04  0.90736085892E+02 0.  0.
        254    2    1    2    0    0 -0.12942605782E+03 -0.33370397428E+03 -0.12399319627E+03  0.97622110625E+03  0.89973545483E+03 0.  0.
        -24    2    4    4    0    0  0.31853252521E+03 -0.37599302682E+03 -0.14152605876E+03  0.51893384866E+03  0.80180971200E+02 0.  0.
         24    2    4    4    0    0 -0.44795858303E+03  0.42289052537E+02  0.17532862484E+02  0.45728725760E+03  0.79680478294E+02 0.  0.
         13    1    3    3    0    0  0.13237749028E+03  0.27243264807E+03 -0.89685940299E+03  0.94662565801E+03  0.00000000000E+00 0. -1.
        -13    1    3    3    0    0 -0.29514324519E+01  0.61271326214E+02 -0.11224432180E+03  0.12791275990E+03  0.00000000000E+00 0.  1.
          4    1    6    6  502    0 -0.11345809439E+03 -0.23366355340E+02 -0.18453216121E+01  0.11585392076E+03  0.00000000000E+00 0. -1.
          1    1    5    5  503    0  0.63052512808E+02 -0.59960952501E+02 -0.56519131493E+02  0.10375619221E+03  0.00000000000E+00 0. -1.
         -2    1    5    5    0  503  0.25548001240E+03 -0.31603207432E+03 -0.85006927262E+02  0.41517765645E+03  0.00000000000E+00 0.  1.
         -3    1    6    6    0  502 -0.33450048864E+03  0.65655407877E+02  0.19378184096E+02  0.34143333684E+03  0.00000000000E+00 0.  1.
<mgrwt>
<rscale>  0 0.17092999E+04</rscale>
<asrwt>0</asrwt>
<pdfrwt beam="1">  1        2 0.24491203E+00 0.17092999E+04</pdfrwt>
<pdfrwt beam="2">  1       -2 0.70589432E-01 0.17092999E+04</pdfrwt>
<totfact> 0.19554160E+01</totfact>
</mgrwt>
</event>
<event>
12    1  0.2083715E-007  0.3314760E+04  0.7818608E-02  0.8159150E-01
          1   -1    0    0  501    0  0.00000000000E+00  0.00000000000E+00  0.15727818643E+04  0.15727818643E+04  0.00000000000E+00 0. -1.
         -1   -1    0    0    0  501 -0.00000000000E+00 -0.00000000000E+00 -0.17465289841E+04  0.17465289841E+04  0.00000000000E+00 0.  1.
         23    2    1    2    0    0 -0.13326748712E+04  0.57547295485E+03  0.41601475013E+03  0.15128586730E+04  0.92095918795E+02 0.  0.
        254    2    1    2    0    0  0.13326748712E+04 -0.57547295485E+03 -0.58976186987E+03  0.18064521754E+04  0.89903223787E+03 0.  0.
        -24    2    4    4    0    0  0.14397690358E+04 -0.60497743502E+03 -0.58302670393E+03  0.16688468297E+04  0.78721217581E+02 0.  0.
         24    2    4    4    0    0 -0.10709416462E+03  0.29504480165E+02 -0.67351659472E+01  0.13760534571E+03  0.80933270419E+02 0.  0.
         11    1    3    3    0    0 -0.77313403019E+03  0.29816373165E+03  0.27014633530E+03  0.87156002775E+03  0.00000000000E+00 0. -1.
        -11    1    3    3    0    0 -0.55954084097E+03  0.27730922320E+03  0.14586841482E+03  0.64129864527E+03  0.00000000000E+00 0.  1.
          4    1    6    6  502    0 -0.20837829875E+02 -0.74036279659E+01 -0.33410371035E+02  0.40065967524E+02  0.00000000000E+00 0. -1.
          1    1    5    5  503    0  0.15295558171E+03 -0.90496913868E+02 -0.59755572285E+02  0.18749887950E+03  0.00000000000E+00 0. -1.
         -2    1    5    5    0  503  0.12868134541E+04 -0.51448052115E+03 -0.52327113164E+03  0.14813479502E+04  0.00000000000E+00 0.  1.
         -3    1    6    6    0  502 -0.86256334746E+02  0.36908108131E+02  0.26675205087E+02  0.97539378181E+02  0.00000000000E+00 0.  1.
<mgrwt>
<rscale>  0 0.33147604E+04</rscale>
<asrwt>0</asrwt>
<pdfrwt beam="1">  1        1 0.24196644E+00 0.33147604E+04</pdfrwt>
<pdfrwt beam="2">  1       -1 0.26869677E+00 0.33147604E+04</pdfrwt>
<totfact> 0.25432346E-01</totfact>
</mgrwt>
</event>
<event>
12    1  0.2083715E-007  0.1834421E+04  0.7818608E-02  0.8688206E-01
         -2   -1    0    0    0  501 -0.00000000000E+00  0.00000000000E+00  0.55221503486E+03  0.55221503486E+03  0.00000000000E+00 0.  1.
          2   -1    0    0  501    0  0.00000000000E+00 -0.00000000000E+00 -0.15234548359E+04  0.15234548359E+04  0.00000000000E+00 0. -1.
         23    2    1    2    0    0  0.16486581250E+03  0.63924516569E+03 -0.61322171522E+03  0.90535457472E+03  0.88379386511E+02 0.  0.
        254    2    1    2    0    0 -0.16486581250E+03 -0.63924516569E+03 -0.35801808583E+03  0.11703152961E+04  0.89757775396E+03 0.  0.
        -24    2    4    4    0    0 -0.39676157512E+03 -0.12183256943E+03 -0.41814284031E+03  0.59451847038E+03  0.79660870307E+02 0.  0.
         24    2    4    4    0    0  0.23189576262E+03 -0.51741259626E+03  0.60124754474E+02  0.57579682568E+03  0.80221935071E+02 0.  0.
         11    1    3    3    0    0  0.16252948712E+03  0.58356159076E+03 -0.52830664209E+03  0.80378347362E+03  0.00000000000E+00 0.  1.
        -11    1    3    3    0    0  0.23363253743E+01  0.55683574934E+02 -0.84915073129E+02  0.10157110110E+03  0.00000000000E+00 0. -1.
          2    1    6    6  502    0  0.16390625590E+03 -0.33326713990E+03  0.75176939382E+02  0.37892455644E+03  0.00000000000E+00 0. -1.
          1    1    5    5  503    0 -0.56774082812E+02 -0.37075854408E+02 -0.10262419512E+03  0.12300260519E+03  0.00000000000E+00 0. -1.
         -2    1    5    5    0  503 -0.33998749230E+03 -0.84756715022E+02 -0.31551864519E+03  0.47151586519E+03  0.00000000000E+00 0.  1.
         -1    1    6    6    0  502  0.67989506720E+02 -0.18414545636E+03 -0.15052184908E+02  0.19687226923E+03  0.00000000000E+00 0.  1.
<mgrwt>
<rscale>  0 0.18344205E+04</rscale>
<asrwt>0</asrwt>
<pdfrwt beam="1">  1        2 0.23437766E+00 0.18344205E+04</pdfrwt>
<pdfrwt beam="2">  1       -2 0.84956161E-01 0.18344205E+04</pdfrwt>
<totfact> 0.13983953E+01</totfact>
</mgrwt>
</event>
<event>
12    1  0.2083715E-007  0.2428684E+04  0.7818608E-02  0.8428842E-01
          2   -1    0    0  501    0  0.00000000000E+00  0.00000000000E+00  0.30286082240E+04  0.30286082240E+04  0.00000000000E+00 0. -1.
         -2   -1    0    0    0  501 -0.00000000000E+00 -0.00000000000E+00 -0.48689885894E+03  0.48689885894E+03  0.00000000000E+00 0.  1.
         23    2    1    2    0    0 -0.66963095192E+03  0.79945984008E+03  0.99451763759E+03  0.14438038333E+04  0.89233009253E+02 0.  0.
        254    2    1    2    0    0  0.66963095192E+03 -0.79945984008E+03  0.15471917275E+04  0.20717032496E+04  0.90033908353E+03 0.  0.
        -24    2    4    4    0    0  0.51699764425E+03 -0.35114600359E+03  0.23030278493E+03  0.66997729244E+03  0.72388670689E+02 0.  0.
         24    2    4    4    0    0  0.15263330766E+03 -0.44831383649E+03  0.13168889426E+04  0.14017259572E+04  0.79730480261E+02 0.  0.
         13    1    3    3    0    0 -0.24818879571E+03  0.36409329032E+03  0.40936653855E+03  0.60145038470E+03  0.00000000000E+00 0.  1.
        -13    1    3    3    0    0 -0.42144215621E+03  0.43536654976E+03  0.58515109904E+03  0.84235344862E+03  0.00000000000E+00 0. -1.
          4    1    6    6  502    0  0.12034777789E+03 -0.42112160354E+03  0.12071384095E+04  0.12841378946E+04  0.00000000000E+00 0. -1.
          3    1    5    5  503    0  0.49370275320E+03 -0.33672097248E+03  0.23506425294E+03  0.64216713155E+03  0.00000000000E+00 0. -1.
         -4    1    5    5    0  503  0.23294891050E+02 -0.14425031106E+02 -0.47614680102E+01  0.27810160896E+02  0.00000000000E+00 0.  1.
         -3    1    6    6    0  502  0.32285529777E+02 -0.27192232954E+02  0.10975053304E+03  0.11758806261E+03  0.00000000000E+00 0.  1.
<mgrwt>
<rscale>  0 0.24286835E+04</rscale>
<asrwt>0</asrwt>
<pdfrwt beam="1">  1        2 0.46593971E+00 0.24286835E+04</pdfrwt>
<pdfrwt beam="2">  1       -2 0.74907519E-01 0.24286835E+04</pdfrwt>
<totfact> 0.24005905E+00</totfact>
</mgrwt>
</event>
<event>
12    1  0.2083715E-007  0.1688048E+04  0.7818608E-02  0.8768210E-01
          1   -1    0    0  501    0  0.00000000000E+00  0.00000000000E+00  0.19906936090E+04  0.19906936090E+04  0.00000000000E+00 0. -1.
         -1   -1    0    0    0  501 -0.00000000000E+00 -0.00000000000E+00 -0.35785350937E+03  0.35785350937E+03  0.00000000000E+00 0.  1.
         23    2    1    2    0    0  0.38948295339E+03  0.19589788555E+03  0.11470637172E+04  0.12307552254E+04  0.94500270169E+02 0.  0.
        254    2    1    2    0    0 -0.38948295339E+03 -0.19589788555E+03  0.48577638248E+03  0.11177918930E+04  0.90741780329E+03 0.  0.
        -24    2    4    4    0    0 -0.56980772974E+03  0.78268522627E+02  0.51888721617E+03  0.77868793054E+03  0.79398611760E+02 0.  0.
         24    2    4    4    0    0  0.18032477635E+03 -0.27416640817E+03 -0.33110833687E+02  0.33910396246E+03  0.78809426559E+02 0.  0.
         11    1    3    3    0    0  0.42649086995E+02  0.12733022825E+02  0.57307063935E+02  0.72561519201E+02  0.00000000000E+00 0. -1.
        -11    1    3    3    0    0  0.34683386640E+03  0.18316486272E+03  0.10897566532E+04  0.11581937062E+04  0.00000000000E+00 0.  1.
          4    1    6    6  502    0  0.17384544819E+03 -0.27158200517E+03 -0.18588495243E+02  0.32299312306E+03  0.00000000000E+00 0. -1.
          3    1    5    5  503    0 -0.45866960639E+03  0.34281094608E+02  0.43099208695E+03  0.63032307612E+03  0.00000000000E+00 0. -1.
         -4    1    5    5    0  503 -0.11113812335E+03  0.43987428019E+02  0.87895129224E+02  0.14836485442E+03  0.00000000000E+00 0.  1.
         -3    1    6    6    0  502  0.64793281528E+01 -0.25844029996E+01 -0.14522338444E+02  0.16110839397E+02  0.00000000000E+00 0.  1.
<mgrwt>
<rscale>  0 0.16880482E+04</rscale>
<asrwt>0</asrwt>
<pdfrwt beam="1">  1        1 0.30626055E+00 0.16880482E+04</pdfrwt>
<pdfrwt beam="2">  1       -1 0.55054387E-01 0.16880482E+04</pdfrwt>
<totfact> 0.96072228E+00</totfact>
</mgrwt>
</event>
<event>
12    1  0.2083715E-007  0.3740338E+04  0.7818608E-02  0.8059081E-01
          4   -1    0    0  501    0  0.00000000000E+00  0.00000000000E+00  0.23178487696E+04  0.23178487696E+04  0.00000000000E+00 0. -1.
         -4   -1    0    0    0  501 -0.00000000000E+00 -0.00000000000E+00 -0.15089565118E+04  0.15089565118E+04  0.00000000000E+00 0.  1.
         23    2    1    2    0    0 -0.14118484080E+04  0.92047499198E+03 -0.14540111702E+03  0.16942276240E+04  0.93143002516E+02 0.  0.
        254    2    1    2    0    0  0.14118484080E+04 -0.92047499198E+03  0.95429337480E+03  0.21325776575E+04  0.89253654370E+03 0.  0.
        -24    2    4    4    0    0  0.13163132580E+03 -0.23616929571E+03 -0.13819335086E+03  0.31368170615E+03  0.78715108988E+02 0.  0.
         24    2    4    4    0    0  0.12802170822E+04 -0.68430569627E+03  0.10924867257E+04  0.18188959513E+04  0.87322233105E+02 0.  0.
         13    1    3    3    0    0 -0.10240714398E+04  0.62220087254E+03 -0.12160742187E+03  0.12044270857E+04  0.00000000000E+00 0.  1.
        -13    1    3    3    0    0 -0.38777696822E+03  0.29827411944E+03 -0.23793695156E+02  0.48980053832E+03  0.00000000000E+00 0. -1.
          4    1    6    6  502    0  0.10925226245E+04 -0.57280085537E+03  0.96406865837E+03  0.15656100673E+04  0.00000000000E+00 0. -1.
          3    1    5    5  503    0  0.14248161170E+03 -0.21816484692E+03 -0.12721645925E+03  0.28996713194E+03  0.00000000000E+00 0. -1.
         -4    1    5    5    0  503 -0.10850285899E+02 -0.18004448793E+02 -0.10976891614E+02  0.23714574209E+02  0.00000000000E+00 0.  1.
         -3    1    6    6    0  502  0.18769445776E+03 -0.11150484090E+03  0.12841806729E+03  0.25328588398E+03  0.00000000000E+00 0.  1.
<mgrwt>
<rscale>  0 0.37403385E+04</rscale>
<asrwt>0</asrwt>
<pdfrwt beam="1">  1        4 0.35659212E+00 0.37403385E+04</pdfrwt>
<pdfrwt beam="2">  1       -4 0.23214716E+00 0.37403385E+04</pdfrwt>
<totfact> 0.17350935E-03</totfact>
</mgrwt>
</event>
<event>
12    1  0.2083715E-007  0.2523701E+04  0.7818608E-02  0.8394590E-01
         -2   -1    0    0    0  501 -0.00000000000E+00  0.00000000000E+00  0.67269377488E+03  0.67269377488E+03  0.00000000000E+00 0.  1.
          2   -1    0    0  501    0  0.00000000000E+00 -0.00000000000E+00 -0.23670010843E+04  0.23670010843E+04  0.00000000000E+00 0. -1.
         23    2    1    2    0    0  0.18037980583E+03 -0.60935416604E+03  0.34059248603E+03  0.72598770807E+03  0.84885432855E+02 0.  0.
        254    2    1    2    0    0 -0.18037980583E+03  0.60935416604E+03 -0.20348997954E+04  0.23137071511E+04  0.89920755642E+03 0.  0.
        -24    2    4    4    0    0  0.12341316694E+03  0.60616090707E+03 -0.18424790765E+04  0.19451672515E+04  0.79275683301E+02 0.  0.
         24    2    4    4    0    0 -0.30379297277E+03  0.31932589684E+01 -0.19242071886E+03  0.36853989951E+03  0.80595020188E+02 0.  0.
         13    1    3    3    0    0  0.14431061346E+03 -0.50766001118E+03  0.31660092203E+03  0.61545136603E+03  0.00000000000E+00 0.  1.
        -13    1    3    3    0    0  0.36069192371E+02 -0.10169415486E+03  0.23991564002E+02  0.11053634205E+03  0.00000000000E+00 0. -1.
          4    1    6    6  502    0 -0.71908492867E+01  0.75754566537E+01 -0.26885385359E+02  0.28843020003E+02  0.00000000000E+00 0. -1.
          3    1    5    5  503    0  0.26082796600E+02  0.34961630822E+02 -0.10862020401E+03  0.11705117098E+03  0.00000000000E+00 0. -1.
         -4    1    5    5    0  503  0.97330370336E+02  0.57119927625E+03 -0.17338588725E+04  0.18281160806E+04  0.00000000000E+00 0.  1.
         -3    1    6    6    0  502 -0.29660212348E+03 -0.43821976853E+01 -0.16553533350E+03  0.33969687951E+03  0.00000000000E+00 0.  1.
<mgrwt>
<rscale>  0 0.25237012E+04</rscale>
<asrwt>0</asrwt>
<pdfrwt beam="1">  1        2 0.36415401E+00 0.25237012E+04</pdfrwt>
<pdfrwt beam="2">  1       -2 0.10349135E+00 0.25237012E+04</pdfrwt>
<totfact> 0.28124291E+00</totfact>
</mgrwt>
</event>
<event>
12    1  0.2083715E-007  0.1144329E+04  0.7818608E-02  0.9163031E-01
          1   -1    0    0  501    0  0.00000000000E+00  0.00000000000E+00  0.26671711019E+04  0.26671711019E+04  0.00000000000E+00 0. -1.
         -1   -1    0    0    0  501 -0.00000000000E+00 -0.00000000000E+00 -0.12274138798E+03  0.12274138798E+03  0.00000000000E+00 0.  1.
         23    2    1    2    0    0  0.85868145885E+02  0.31708289609E+02  0.91695098191E+03  0.92715302512E+03  0.10215123426E+03 0.  0.
        254    2    1    2    0    0 -0.85868145885E+02 -0.31708289609E+02  0.16274787320E+04  0.18627594648E+04  0.90155812141E+03 0.  0.
        -24    2    4    4    0    0 -0.27594577006E+03 -0.22603411479E+03  0.15138624615E+04  0.15573264937E+04  0.79049141265E+02 0.  0.
         24    2    4    4    0    0  0.19007762417E+03  0.19432582518E+03  0.11361627057E+03  0.30543297106E+03  0.80551929382E+02 0.  0.
         11    1    3    3    0    0  0.49352566711E+02  0.47638667235E+02  0.25686924735E+03  0.26587013501E+03  0.00000000000E+00 0.  1.
        -11    1    3    3    0    0  0.36515579174E+02 -0.15930377626E+02  0.66008173456E+03  0.66128289012E+03  0.00000000000E+00 0. -1.
          2    1    6    6  502    0  0.13630351626E+03  0.12455185953E+03  0.36192584519E+02  0.18815344119E+03  0.00000000000E+00 0. -1.
          3    1    5    5  503    0 -0.22569673665E+03 -0.17215458014E+03  0.13141558184E+04  0.13444633618E+04  0.00000000000E+00 0. -1.
         -4    1    5    5    0  503 -0.50249033402E+02 -0.53879534650E+02  0.19970664311E+03  0.21286313188E+03  0.00000000000E+00 0.  1.
         -1    1    6    6    0  502  0.53774107915E+02  0.69773965650E+02  0.77423686050E+02  0.11727952987E+03  0.00000000000E+00 0.  1.
<mgrwt>
<rscale>  0 0.11443291E+04</rscale>
<asrwt>0</asrwt>
<pdfrwt beam="1">  1        1 0.41033397E+00 0.11443291E+04</pdfrwt>
<pdfrwt beam="2">  1       -1 0.18883292E-01 0.11443291E+04</pdfrwt>
<totfact> 0.23388603E+01</totfact>
</mgrwt>
</event>
<event>
12    1  0.2083715E-007  0.2697336E+04  0.7818608E-02  0.8335870E-01
         -2   -1    0    0    0  501 -0.00000000000E+00  0.00000000000E+00  0.83840453296E+03  0.83840453296E+03  0.00000000000E+00 0. -1.
          2   -1    0    0  501    0  0.00000000000E+00 -0.00000000000E+00 -0.21694834495E+04  0.21694834495E+04  0.00000000000E+00 0.  1.
         23    2    1    2    0    0 -0.56465571893E+03  0.88034869152E+03 -0.12549281291E+04  0.16361184658E+04  0.90493786949E+02 0.  0.
        254    2    1    2    0    0  0.56465571893E+03 -0.88034869152E+03 -0.76150787440E+02  0.13717695166E+04  0.88436574148E+03 0.  0.
        -24    2    4    4    0    0  0.21541886556E+03 -0.45102508879E+02 -0.35127684034E+03  0.42178362798E+03  0.77887651999E+02 0.  0.
         24    2    4    4    0    0  0.34923685338E+03 -0.83524618264E+03  0.27512605290E+03  0.94998588863E+03  0.84712916616E+02 0.  0.
         11    1    3    3    0    0 -0.14659518814E+03  0.20380642756E+03 -0.24665268758E+03  0.35194425324E+03  0.00000000000E+00 0. -1.
        -11    1    3    3    0    0 -0.41806053080E+03  0.67654226395E+03 -0.10082754415E+04  0.12841742126E+04  0.00000000000E+00 0.  1.
          4    1    6    6  502    0  0.11730884182E+03 -0.20023697506E+03  0.91471609011E+02  0.24944591760E+03  0.00000000000E+00 0. -1.
          1    1    5    5  503    0  0.18709301402E+02 -0.30491053130E+02 -0.63735253461E+02  0.73088472508E+02  0.00000000000E+00 0. -1.
         -2    1    5    5    0  503  0.19670956415E+03 -0.14611455749E+02 -0.28754158687E+03  0.34869515547E+03  0.00000000000E+00 0.  1.
         -3    1    6    6    0  502  0.23192801155E+03 -0.63500920758E+03  0.18365444388E+03  0.70053997103E+03  0.00000000000E+00 0.  1.
<mgrwt>
<rscale>  0 0.26973355E+04</rscale>
<asrwt>0</asrwt>
<pdfrwt beam="1">  1        2 0.33376668E+00 0.26973355E+04</pdfrwt>
<pdfrwt beam="2">  1       -2 0.12898531E+00 0.26973355E+04</pdfrwt>
<totfact> 0.20881292E+00</totfact>
</mgrwt>
</event>
<event>
12    1  0.2083715E-007  0.3075169E+04  0.7818608E-02  0.8222586E-01
          2   -1    0    0  501    0  0.00000000000E+00  0.00000000000E+00  0.14628925764E+04  0.14628925764E+04  0.00000000000E+00 0.  1.
         -2   -1    0    0    0  501 -0.00000000000E+00 -0.00000000000E+00 -0.16160900823E+04  0.16160900823E+04  0.00000000000E+00 0. -1.
         23    2    1    2    0    0  0.64000834804E+03 -0.10862070511E+04  0.54646415457E+03  0.13770359971E+04  0.90269716784E+02 0.  0.
        254    2    1    2    0    0 -0.64000834804E+03  0.10862070511E+04 -0.69966166040E+03  0.17019466615E+04  0.90423423749E+03 0.  0.
        -24    2    4    4    0    0 -0.66540451177E+02  0.47186804951E+03 -0.70867773683E+03  0.85769938080E+03  0.79605309878E+02 0.  0.
         24    2    4    4    0    0 -0.57346789687E+03  0.61433900159E+03  0.90160764271E+01  0.84424728073E+03  0.79964640800E+02 0.  0.
         13    1    3    3    0    0  0.38896564049E+03 -0.63077851143E+03  0.27529430730E+03  0.79054585926E+03  0.00000000000E+00 0. -1.
        -13    1    3    3    0    0  0.25104270755E+03 -0.45542853967E+03  0.27116984727E+03  0.58649013788E+03  0.00000000000E+00 0.  1.
          4    1    6    6  502    0 -0.27606354505E+03  0.35377991082E+03  0.96438527623E+01  0.44884775826E+03  0.00000000000E+00 0. -1.
          3    1    5    5  503    0 -0.73349706725E+02  0.46540492337E+03 -0.70425040527E+03  0.84731963006E+03  0.00000000000E+00 0. -1.
         -4    1    5    5    0  503  0.68092555484E+01  0.64631261411E+01 -0.44273315620E+01  0.10379750739E+02  0.00000000000E+00 0.  1.
         -3    1    6    6    0  502 -0.29740435182E+03  0.26055909077E+03 -0.62777633525E+00  0.39539952247E+03  0.00000000000E+00 0.  1.
<mgrwt>
<rscale>  0 0.30751691E+04</rscale>
<asrwt>0</asrwt>
<pdfrwt beam="1">  1        2 0.22506040E+00 0.30751691E+04</pdfrwt>
<pdfrwt beam="2">  1       -2 0.24862924E+00 0.30751691E+04</pdfrwt>
<totfact> 0.74271520E-01</totfact>
</mgrwt>
</event>
<event>
12    1  0.2083715E-007  0.3002174E+04  0.7818608E-02  0.8243110E-01
          2   -1    0    0  501    0  0.00000000000E+00  0.00000000000E+00  0.10834530167E+04  0.10834530167E+04  0.00000000000E+00 0.  1.
         -2   -1    0    0    0  501 -0.00000000000E+00 -0.00000000000E+00 -0.20797048403E+04  0.20797048403E+04  0.00000000000E+00 0. -1.
         23    2    1    2    0    0 -0.12332572612E+04 -0.57395287752E+03 -0.56276622801E+03  0.14749967176E+04  0.92542485104E+02 0.  0.
        254    2    1    2    0    0  0.12332572612E+04  0.57395287752E+03 -0.43348559562E+03  0.16881611394E+04  0.90090670604E+03 0.  0.
        -24    2    4    4    0    0  0.20558535345E+02 -0.17241914139E+03 -0.12813267332E+03  0.22970362986E+03  0.78706809791E+02 0.  0.
         24    2    4    4    0    0  0.12126987259E+04  0.74637201890E+03 -0.30535292230E+03  0.14584575095E+04  0.78412432830E+02 0.  0.
         11    1    3    3    0    0 -0.10207715603E+04 -0.50506590142E+03 -0.44765796951E+03  0.12237090344E+04  0.00000000000E+00 0.  1.
        -11    1    3    3    0    0 -0.21248570086E+03 -0.68886976099E+02 -0.11510825850E+03  0.25128768318E+03  0.00000000000E+00 0. -1.
          4    1    6    6  502    0  0.10810948146E+04  0.66596715734E+03 -0.29689502102E+03  0.13040034150E+04  0.00000000000E+00 0. -1.
          1    1    5    5  503    0 -0.97069458731E+01 -0.11181133496E+03 -0.11501692107E+03  0.16070124939E+03  0.00000000000E+00 0. -1.
         -2    1    5    5    0  503  0.30265481218E+02 -0.60607806428E+02 -0.13115752249E+02  0.69002380469E+02  0.00000000000E+00 0.  1.
         -3    1    6    6    0  502  0.13160391130E+03  0.80404861568E+02 -0.84579012740E+01  0.15445409456E+03  0.00000000000E+00 0.  1.
<mgrwt>
<rscale>  0 0.30021742E+04</rscale>
<asrwt>0</asrwt>
<pdfrwt beam="1">  1        2 0.16668508E+00 0.30021742E+04</pdfrwt>
<pdfrwt beam="2">  1       -2 0.31995459E+00 0.30021742E+04</pdfrwt>
<totfact> 0.45737097E-01</totfact>
</mgrwt>
</event>
<event>
12    1  0.2083715E-007  0.2448165E+04  0.7818608E-02  0.8421688E-01
         -3   -1    0    0    0  501 -0.00000000000E+00  0.00000000000E+00  0.84187173635E+03  0.84187173635E+03  0.00000000000E+00 0.  1.
          3   -1    0    0  501    0  0.00000000000E+00 -0.00000000000E+00 -0.17798176498E+04  0.17798176498E+04  0.00000000000E+00 0. -1.
         23    2    1    2    0    0 -0.49237191051E+03  0.43593016182E+03  0.47964923232E+03  0.81889003759E+03  0.89734627382E+02 0.  0.
        254    2    1    2    0    0  0.49237191051E+03 -0.43593016182E+03 -0.14175951458E+04  0.18027993486E+04  0.89891283762E+03 0.  0.
        -24    2    4    4    0    0  0.18386658149E+03  0.95420891820E+02 -0.10676979800E+04  0.10912265817E+04  0.88794198020E+02 0.  0.
         24    2    4    4    0    0  0.30850532902E+03 -0.53135105364E+03 -0.34989716573E+03  0.71157276688E+03  0.79989347693E+02 0.  0.
         11    1    3    3    0    0 -0.37525916909E+03  0.37769801260E+03  0.37219387552E+03  0.64961797519E+03  0.00000000000E+00 0.  1.
        -11    1    3    3    0    0 -0.11711274142E+03  0.58232149225E+02  0.10745535680E+03  0.16927206240E+03  0.00000000000E+00 0. -1.
          2    1    6    6  502    0  0.87660104583E+02 -0.22884383426E+03 -0.13861322898E+03  0.28154470633E+03  0.00000000000E+00 0. -1.
          1    1    5    5  503    0  0.16294636865E+03  0.43096261086E+02 -0.82990162307E+03  0.84684444307E+03  0.00000000000E+00 0. -1.
         -2    1    5    5    0  503  0.20920212843E+02  0.52324630734E+02 -0.23779635697E+03  0.24438213862E+03  0.00000000000E+00 0.  1.
         -1    1    6    6    0  502  0.22084522444E+03 -0.30250721938E+03 -0.21128393675E+03  0.43002806056E+03  0.00000000000E+00 0.  1.
<mgrwt>
<rscale>  0 0.24481652E+04</rscale>
<asrwt>0</asrwt>
<pdfrwt beam="1">  1        3 0.27381810E+00 0.24481652E+04</pdfrwt>
<pdfrwt beam="2">  1       -3 0.12951873E+00 0.24481652E+04</pdfrwt>
<totfact> 0.59137263E-02</totfact>
</mgrwt>
</event>
<event>
12    1  0.2083715E-007  0.3446501E+04  0.7818608E-02  0.8126587E-01
         -2   -1    0    0    0  501 -0.00000000000E+00  0.00000000000E+00  0.17234898643E+04  0.17234898643E+04  0.00000000000E+00 0.  1.
          2   -1    0    0  501    0  0.00000000000E+00 -0.00000000000E+00 -0.17230114603E+04  0.17230114603E+04  0.00000000000E+00 0. -1.
         23    2    1    2    0    0  0.63102716015E+03 -0.11090124536E+04  0.97282671141E+03  0.16070575137E+04  0.90211655326E+02 0.  0.
        254    2    1    2    0    0 -0.63102716015E+03  0.11090124536E+04 -0.97234830737E+03  0.18394438109E+04  0.89999355743E+03 0.  0.
        -24    2    4    4    0    0 -0.42857732656E+03  0.27439586898E+03 -0.81245763738E+03  0.96209154665E+03  0.81000702652E+02 0.  0.
         24    2    4    4    0    0 -0.20244983360E+03  0.83461658467E+03 -0.15989066999E+03  0.87735226425E+03  0.81309228978E+02 0.  0.
         13    1    3    3    0    0  0.31304247300E+03 -0.47228165392E+03  0.46005046359E+03  0.72985750635E+03  0.00000000000E+00 0.  1.
        -13    1    3    3    0    0  0.31798468716E+03 -0.63673079973E+03  0.51277624781E+03  0.87720000736E+03  0.00000000000E+00 0. -1.
          4    1    6    6  502    0 -0.12595128396E+03  0.66149798594E+03 -0.12661047378E+03  0.68518137993E+03  0.00000000000E+00 0. -1.
          1    1    5    5  503    0 -0.20856851128E+03  0.14104208022E+03 -0.32727004662E+03  0.41291570048E+03  0.00000000000E+00 0. -1.
         -2    1    5    5    0  503 -0.22000881527E+03  0.13335378876E+03 -0.48518759077E+03  0.54917584616E+03  0.00000000000E+00 0.  1.
         -3    1    6    6    0  502 -0.76498549634E+02  0.17311859872E+03 -0.33280196211E+02  0.19217088432E+03  0.00000000000E+00 0.  1.
<mgrwt>
<rscale>  0 0.34465013E+04</rscale>
<asrwt>0</asrwt>
<pdfrwt beam="1">  1        2 0.26507868E+00 0.34465013E+04</pdfrwt>
<pdfrwt beam="2">  1       -2 0.26515229E+00 0.34465013E+04</pdfrwt>
<totfact> 0.40777917E-01</totfact>
</mgrwt>
</event>
<event>
12    1  0.2083715E-007  0.1933408E+04  0.7818608E-02  0.8638404E-01
          1   -1    0    0  501    0  0.00000000000E+00  0.00000000000E+00  0.34647484320E+04  0.34647484320E+04  0.00000000000E+00 0. -1.
         -1   -1    0    0    0  501 -0.00000000000E+00 -0.00000000000E+00 -0.26972124083E+03  0.26972124083E+03  0.00000000000E+00 0.  1.
         23    2    1    2    0    0 -0.53618614925E+03 -0.51393976143E+03  0.14984777143E+04  0.16749120837E+04  0.90914041837E+02 0.  0.
        254    2    1    2    0    0  0.53618614925E+03  0.51393976143E+03  0.16965494769E+04  0.20595575891E+04  0.90103699713E+03 0.  0.
        -24    2    4    4    0    0  0.22851706569E+03 -0.22412742380E+03  0.74019960475E+03  0.81041028048E+03  0.80101288553E+02 0.  0.
         24    2    4    4    0    0  0.30766908356E+03  0.73806718523E+03  0.95634987211E+03  0.12491473086E+04  0.79752653553E+02 0.  0.
         11    1    3    3    0    0 -0.43513343257E+03 -0.44473234819E+03  0.13081570259E+04  0.14485864731E+04  0.00000000000E+00 0. -1.
        -11    1    3    3    0    0 -0.10105271668E+03 -0.69207413240E+02  0.19032068834E+03  0.22632561059E+03  0.00000000000E+00 0.  1.
          2    1    6    6  502    0  0.79044667531E+02  0.12406886889E+03  0.20388856752E+03  0.25141935418E+03  0.00000000000E+00 0. -1.
          3    1    5    5  503    0  0.14119197162E+03 -0.14738576556E+03  0.37225277172E+03  0.42453487818E+03  0.00000000000E+00 0. -1.
         -4    1    5    5    0  503  0.87325094070E+02 -0.76741658243E+02  0.36794683303E+03  0.38587540230E+03  0.00000000000E+00 0.  1.
         -1    1    6    6    0  502  0.22862441603E+03  0.61399831634E+03  0.75246130459E+03  0.99772795439E+03  0.00000000000E+00 0.  1.
<mgrwt>
<rscale>  0 0.19334076E+04</rscale>
<asrwt>0</asrwt>
<pdfrwt beam="1">  1        1 0.53303819E+00 0.19334076E+04</pdfrwt>
<pdfrwt beam="2">  1       -1 0.41495578E-01 0.19334076E+04</pdfrwt>
<totfact> 0.14216910E+00</totfact>
</mgrwt>
</event>
<event>
12    1  0.2083715E-007  0.2037656E+04  0.7818608E-02  0.8589215E-01
          2   -1    0    0  501    0  0.00000000000E+00  0.00000000000E+00  0.30902286694E+04  0.30902286694E+04  0.00000000000E+00 0. -1.
         -2   -1    0    0    0  501 -0.00000000000E+00 -0.00000000000E+00 -0.33590072645E+03  0.33590072645E+03  0.00000000000E+00 0.  1.
         23    2    1    2    0    0 -0.65213548095E+01  0.80277974590E+03  0.13583866538E+04  0.15813311316E+04  0.10438389759E+03 0.  0.
        254    2    1    2    0    0  0.65213548095E+01 -0.80277974590E+03  0.13959412891E+04  0.18447982642E+04  0.90007261067E+03 0.  0.
        -24    2    4    4    0    0 -0.11513074597E+03 -0.43609948189E+03  0.72088749626E+02  0.46332476647E+03  0.77686579481E+02 0.  0.
         24    2    4    4    0    0  0.12165210078E+03 -0.36668026402E+03  0.13238525395E+04  0.13814734978E+04  0.81423761899E+02 0.  0.
         11    1    3    3    0    0 -0.51104091819E+02  0.58729685371E+03  0.99043113019E+03  0.11525983890E+04  0.00000000000E+00 0. -1.
        -11    1    3    3    0    0  0.44582737010E+02  0.21548289220E+03  0.36795552363E+03  0.42873274267E+03  0.00000000000E+00 0.  1.
          2    1    6    6  502    0  0.10899686504E+03 -0.35477855880E+03  0.11909790750E+04  0.12474691577E+04  0.00000000000E+00 0. -1.
          3    1    5    5  503    0 -0.10972143547E+03 -0.38652988598E+03  0.39459913342E+02  0.40373410919E+03  0.00000000000E+00 0. -1.
         -4    1    5    5    0  503 -0.54093104989E+01 -0.49569595905E+02  0.32628836283E+02  0.59590657283E+02  0.00000000000E+00 0.  1.
         -3    1    6    6    0  502  0.12655235733E+02 -0.11901705214E+02  0.13287346451E+03  0.13400434004E+03  0.00000000000E+00 0.  1.
<mgrwt>
<rscale>  0 0.20376556E+04</rscale>
<asrwt>0</asrwt>
<pdfrwt beam="1">  1        2 0.47541978E+00 0.20376556E+04</pdfrwt>
<pdfrwt beam="2">  1       -2 0.51677037E-01 0.20376556E+04</pdfrwt>
<totfact> 0.50142111E+00</totfact>
</mgrwt>
</event>
<event>
12    1  0.2083715E-007  0.2748907E+04  0.7818608E-02  0.8319308E-01
         -1   -1    0    0    0  501 -0.00000000000E+00  0.00000000000E+00  0.10668836222E+04  0.10668836222E+04  0.00000000000E+00 0.  1.
          1   -1    0    0  501    0  0.00000000000E+00 -0.00000000000E+00 -0.17706927259E+04  0.17706927259E+04  0.00000000000E+00 0. -1.
         23    2    1    2    0    0 -0.60866249975E+03  0.79642244195E+03  0.41343077955E+03  0.10880630045E+04  0.90539205555E+02 0.  0.
        254    2    1    2    0    0  0.60866249975E+03 -0.79642244195E+03 -0.11172398833E+04  0.17495133435E+04  0.89878431099E+03 0.  0.
        -24    2    4    4    0    0  0.56430926107E+03 -0.87463277547E+03 -0.57109142377E+03  0.11900515279E+04  0.81546249457E+02 0.  0.
         24    2    4    4    0    0  0.44353238679E+02  0.78210333521E+02 -0.54614845954E+03  0.55946181558E+03  0.81457456308E+02 0.  0.
         13    1    3    3    0    0 -0.31336306196E+03  0.47249670818E+03  0.25907131308E+03  0.62335182129E+03  0.00000000000E+00 0. -1.
        -13    1    3    3    0    0 -0.29529943779E+03  0.32392573376E+03  0.15435946648E+03  0.46471118326E+03  0.00000000000E+00 0.  1.
          2    1    6    6  502    0  0.31319347568E+02  0.94938611020E+02 -0.46056918801E+03  0.47129419511E+03  0.00000000000E+00 0. -1.
          3    1    5    5  503    0  0.43770586334E+03 -0.70535964175E+03 -0.48786657385E+03  0.96287716813E+03  0.00000000000E+00 0. -1.
         -4    1    5    5    0  503  0.12660339772E+03 -0.16927313371E+03 -0.83224849924E+02  0.22717435981E+03  0.00000000000E+00 0.  1.
         -1    1    6    6    0  502  0.13033891111E+02 -0.16728277499E+02 -0.85579271523E+02  0.88167620473E+02  0.00000000000E+00 0.  1.
<mgrwt>
<rscale>  0 0.27489075E+04</rscale>
<asrwt>0</asrwt>
<pdfrwt beam="1">  1        1 0.27241426E+00 0.27489075E+04</pdfrwt>
<pdfrwt beam="2">  1       -1 0.16413594E+00 0.27489075E+04</pdfrwt>
<totfact> 0.10088231E+00</totfact>
</mgrwt>
</event>
<event>
12    1  0.2083715E-007  0.3269845E+04  0.7818608E-02  0.8170611E-01
         -2   -1    0    0    0  501 -0.00000000000E+00  0.00000000000E+00  0.94178759541E+03  0.94178759541E+03  0.00000000000E+00 0.  1.
          2   -1    0    0  501    0  0.00000000000E+00 -0.00000000000E+00 -0.28381888454E+04  0.28381888454E+04  0.00000000000E+00 0. -1.
         23    2    1    2    0    0 -0.31383100780E+03 -0.82642905741E+03 -0.22932852305E+04  0.24594484493E+04  0.90855038081E+02 0.  0.
        254    2    1    2    0    0  0.31383100780E+03  0.82642905741E+03  0.39688398046E+03  0.13205279916E+04  0.89710779405E+03 0.  0.
        -24    2    4    4    0    0  0.22857830143E+03  0.13321238851E+03 -0.24497248274E+03  0.36896988132E+03  0.78317786529E+02 0.  0.
         24    2    4    4    0    0  0.85252706372E+02  0.69321666890E+03  0.64185646320E+03  0.95155811023E+03  0.75271135364E+02 0.  0.
         13    1    3    3    0    0 -0.23843607667E+03 -0.65418675640E+03 -0.18990574769E+04  0.20226792567E+04  0.00000000000E+00 0. -1.
        -13    1    3    3    0    0 -0.75394931132E+02 -0.17224230101E+03 -0.39422775359E+03  0.43676919259E+03  0.00000000000E+00 0.  1.
          2    1    6    6  502    0  0.71763944711E+02  0.58342548875E+03  0.50027225840E+03  0.77188580580E+03  0.00000000000E+00 0. -1.
          3    1    5    5  503    0  0.19415195307E+03  0.81399966845E+02 -0.21111884259E+03  0.29814778412E+03  0.00000000000E+00 0. -1.
         -4    1    5    5    0  503  0.34426348362E+02  0.51812421660E+02 -0.33853640150E+02  0.70822097196E+02  0.00000000000E+00 0.  1.
         -1    1    6    6    0  502  0.13488761661E+02  0.10979118016E+03  0.14158420480E+03  0.17967230443E+03  0.00000000000E+00 0.  1.
<mgrwt>
<rscale>  0 0.32698447E+04</rscale>
<asrwt>0</asrwt>
<pdfrwt beam="1">  1        2 0.43664444E+00 0.32698447E+04</pdfrwt>
<pdfrwt beam="2">  1       -2 0.14489040E+00 0.32698447E+04</pdfrwt>
<totfact> 0.60228873E-01</totfact>
</mgrwt>
</event>
<event>
12    1  0.2083715E-007  0.1647252E+04  0.7818608E-02  0.8792034E-01
         -2   -1    0    0    0  501 -0.00000000000E+00  0.00000000000E+00  0.30321920271E+03  0.30321920271E+03  0.00000000000E+00 0. -1.
          2   -1    0    0  501    0  0.00000000000E+00 -0.00000000000E+00 -0.22371934402E+04  0.22371934402E+04  0.00000000000E+00 0.  1.
         23    2    1    2    0    0  0.14628139323E+03 -0.33413057087E+03  0.15819706453E+00  0.37638536496E+03  0.92867828305E+02 0.  0.
        254    2    1    2    0    0 -0.14628139323E+03  0.33413057087E+03 -0.19341324346E+04  0.21640272780E+04  0.89950225176E+03 0.  0.
        -24    2    4    4    0    0  0.18481068067E+03  0.53386875810E+03 -0.10311880601E+04  0.11785852176E+04  0.80891664133E+02 0.  0.
         24    2    4    4    0    0 -0.33109207390E+03 -0.19973818723E+03 -0.90294437445E+03  0.98544206033E+03  0.79184632819E+02 0.  0.
         13    1    3    3    0    0  0.15591305790E+03 -0.33037759625E+03  0.40450307437E+01  0.36534175781E+03  0.00000000000E+00 0. -1.
        -13    1    3    3    0    0 -0.96316646701E+01 -0.37529746238E+01 -0.38868336792E+01  0.11043607150E+02  0.00000000000E+00 0.  1.
          2    1    6    6  502    0 -0.22620793337E+03 -0.99734627385E+02 -0.51359261013E+03  0.56999508260E+03  0.00000000000E+00 0. -1.
          1    1    5    5  503    0  0.18731574882E+03  0.50007541680E+03 -0.93698350690E+03  0.10784714667E+04  0.00000000000E+00 0. -1.
         -4    1    5    5    0  503 -0.25050681434E+01  0.33793341300E+02 -0.94204553216E+02  0.10011375095E+03  0.00000000000E+00 0.  1.
         -1    1    6    6    0  502 -0.10488414054E+03 -0.10000355985E+03 -0.38935176433E+03  0.41544697773E+03  0.00000000000E+00 0.  1.
<mgrwt>
<rscale>  0 0.16472523E+04</rscale>
<asrwt>0</asrwt>
<pdfrwt beam="1">  1        2 0.34418361E+00 0.16472523E+04</pdfrwt>
<pdfrwt beam="2">  1       -2 0.46649108E-01 0.16472523E+04</pdfrwt>
<totfact> 0.20496285E+01</totfact>
</mgrwt>
</event>
<event>
12    1  0.2476610E-007  0.2501655E+04  0.7818608E-02  0.8402396E-01
         -2   -1    0    0    0  501 -0.00000000000E+00  0.00000000000E+00  0.93502951867E+03  0.93502951867E+03  0.00000000000E+00 0.  1.
          2   -1    0    0  501    0  0.00000000000E+00 -0.00000000000E+00 -0.16732837050E+04  0.16732837050E+04  0.00000000000E+00 0. -1.
         23    2    1    2    0    0  0.47325220196E+03 -0.43914664196E+03  0.58953171919E+03  0.87905231126E+03  0.91476216530E+02 0.  0.
        254    2    1    2    0    0 -0.47325220196E+03  0.43914664196E+03 -0.13277859055E+04  0.17292609124E+04  0.90028355114E+03 0.  0.
        -24    2    4    4    0    0  0.10552502334E+03 -0.14767641220E+03 -0.47518836322E+02  0.20450922059E+03  0.81376459916E+02 0.  0.
         24    2    4    4    0    0 -0.57877722530E+03  0.58682305416E+03 -0.12802670692E+04  0.15247516918E+04  0.80246992444E+02 0.  0.
         13    1    3    3    0    0  0.16458496551E+03 -0.16420969752E+03  0.15564248927E+03  0.27978137911E+03  0.00000000000E+00 0.  1.
        -13    1    3    3    0    0  0.30866723645E+03 -0.27493694445E+03  0.43388922992E+03  0.59927093215E+03  0.00000000000E+00 0. -1.
          2    1    6    6  502    0 -0.84479292347E+02  0.12847802862E+03 -0.22326845261E+03  0.27109436845E+03  0.00000000000E+00 0. -1.
          3    1    5    5  503    0 -0.10962746017E+02 -0.23720264742E+02 -0.18336248788E+02  0.31922574760E+02  0.00000000000E+00 0. -1.
         -4    1    5    5    0  503  0.11648776936E+03 -0.12395614745E+03 -0.29182587534E+02  0.17258664583E+03  0.00000000000E+00 0.  1.
         -1    1    6    6    0  502 -0.49429793295E+03  0.45834502554E+03 -0.10569986165E+04  0.12536573233E+04  0.00000000000E+00 0.  1.
<mgrwt>
<rscale>  0 0.25016552E+04</rscale>
<asrwt>0</asrwt>
<pdfrwt beam="1">  1        2 0.25742826E+00 0.25016552E+04</pdfrwt>
<pdfrwt beam="2">  1       -2 0.14385070E+00 0.25016552E+04</pdfrwt>
<totfact> 0.30286351E+00</totfact>
</mgrwt>
</event>
<event>
12    1  0.2647981E-007  0.2694226E+04  0.7818608E-02  0.8336881E-01
          2   -1    0    0  501    0  0.00000000000E+00  0.00000000000E+00  0.29103381689E+04  0.29103381689E+04  0.00000000000E+00 0. -1.
         -2   -1    0    0    0  501 -0.00000000000E+00 -0.00000000000E+00 -0.62354040987E+03  0.62354040987E+03  0.00000000000E+00 0.  1.
         23    2    1    2    0    0 -0.10461548525E+04  0.53606765778E+03  0.12955197397E+04  0.17517897789E+04  0.92668896185E+02 0.  0.
        254    2    1    2    0    0  0.10461548525E+04 -0.53606765778E+03  0.99127801932E+03  0.17820887999E+04  0.90077736986E+03 0.  0.
        -24    2    4    4    0    0  0.62179421703E+03  0.14690285304E+03  0.26782176698E+03  0.69739522467E+03  0.80144269685E+02 0.  0.
         24    2    4    4    0    0  0.42436063544E+03 -0.68297051082E+03  0.72345625234E+03  0.10846935752E+04  0.81489481007E+02 0.  0.
         13    1    3    3    0    0 -0.54435817448E+03  0.25991927901E+03  0.72850451696E+03  0.94583438558E+03  0.00000000000E+00 0. -1.
        -13    1    3    3    0    0 -0.50179667799E+03  0.27614837878E+03  0.56701522277E+03  0.80595539330E+03  0.00000000000E+00 0.  1.
          2    1    6    6  502    0  0.40972729045E+03 -0.62974949580E+03  0.69043988063E+03  0.10203764544E+04  0.00000000000E+00 0. -1.
          1    1    5    5  503    0  0.49440708616E+03  0.12966677501E+03  0.18080339497E+03  0.54216391158E+03  0.00000000000E+00 0. -1.
         -2    1    5    5    0  503  0.12738713087E+03  0.17236078026E+02  0.87018372006E+02  0.15523131309E+03  0.00000000000E+00 0.  1.
         -1    1    6    6    0  502  0.14633344983E+02 -0.53221015016E+02  0.33016371711E+02  0.64317120782E+02  0.00000000000E+00 0.  1.
<mgrwt>
<rscale>  0 0.26942260E+04</rscale>
<asrwt>0</asrwt>
<pdfrwt beam="1">  1        2 0.44774432E+00 0.26942260E+04</pdfrwt>
<pdfrwt beam="2">  1       -2 0.95929296E-01 0.26942260E+04</pdfrwt>
<totfact> 0.15825569E+00</totfact>
</mgrwt>
</event>
<event>
12    1  0.2083715E-007  0.2079167E+04  0.7818608E-02  0.8570476E-01
         -2   -1    0    0    0  501 -0.00000000000E+00  0.00000000000E+00  0.87500093708E+03  0.87500093708E+03  0.00000000000E+00 0.  1.
          2   -1    0    0  501    0  0.00000000000E+00 -0.00000000000E+00 -0.12351229437E+04  0.12351229437E+04  0.00000000000E+00 0. -1.
         23    2    1    2    0    0  0.24147081228E+03 -0.78171543101E+03  0.53691521731E+02  0.82527035118E+03  0.93814736396E+02 0.  0.
        254    2    1    2    0    0 -0.24147081228E+03  0.78171543101E+03 -0.41381352836E+03  0.12848535296E+04  0.90012209618E+03 0.  0.
        -24    2    4    4    0    0 -0.34737590385E+03  0.37010709169E+02 -0.38783598092E+03  0.52799131713E+03  0.79487556920E+02 0.  0.
         24    2    4    4    0    0  0.10590509157E+03  0.74470472184E+03 -0.25977547436E+02  0.75686221248E+03  0.79778221029E+02 0.  0.
         13    1    3    3    0    0  0.21822015952E+03 -0.66831115716E+03  0.14945294564E+02  0.70319499617E+03  0.00000000000E+00 0. -1.
        -13    1    3    3    0    0  0.23250652759E+02 -0.11340427385E+03  0.38746227166E+02  0.12207535501E+03  0.00000000000E+00 0.  1.
          2    1    6    6  502    0  0.10202656767E+03  0.53166613790E+03  0.60114025035E+01  0.54140044298E+03  0.00000000000E+00 0. -1.
          1    1    5    5  503    0 -0.10922083652E+03  0.47159430017E+02 -0.14740424970E+03  0.18942337712E+03  0.00000000000E+00 0. -1.
         -4    1    5    5    0  503 -0.23815506732E+03 -0.10148720848E+02 -0.24043173123E+03  0.33856794002E+03  0.00000000000E+00 0.  1.
         -1    1    6    6    0  502  0.38785238938E+01  0.21303858394E+03 -0.31988949940E+02  0.21546176949E+03  0.00000000000E+00 0.  1.
<mgrwt>
<rscale>  0 0.20791669E+04</rscale>
<asrwt>0</asrwt>
<pdfrwt beam="1">  1        2 0.19001891E+00 0.20791669E+04</pdfrwt>
<pdfrwt beam="2">  1       -2 0.13461553E+00 0.20791669E+04</pdfrwt>
<totfact> 0.66225013E+00</totfact>
</mgrwt>
</event>
<event>
12    1  0.2083715E-007  0.1584641E+04  0.7818608E-02  0.8830039E-01
         -1   -1    0    0    0  501 -0.00000000000E+00  0.00000000000E+00  0.30540809753E+03  0.30540809753E+03  0.00000000000E+00 0.  1.
          1   -1    0    0  501    0  0.00000000000E+00 -0.00000000000E+00 -0.20555180457E+04  0.20555180457E+04  0.00000000000E+00 0. -1.
         23    2    1    2    0    0  0.12070921497E+03 -0.51336906141E+03 -0.50929617166E+03  0.73983058657E+03  0.99238090256E+02 0.  0.
        254    2    1    2    0    0 -0.12070921497E+03  0.51336906141E+03 -0.12408137765E+04  0.16210955566E+04  0.90011858554E+03 0.  0.
        -24    2    4    4    0    0 -0.94151036479E+02 -0.14757420582E+03  0.21080117033E+02  0.19409358800E+03  0.81150389242E+02 0.  0.
         24    2    4    4    0    0 -0.26558178496E+02  0.66094326723E+03 -0.12618938935E+04  0.14270019686E+04  0.80044241858E+02 0.  0.
         11    1    3    3    0    0  0.11377962801E+03 -0.45994413169E+03 -0.49247507689E+03  0.68339308555E+03  0.00000000000E+00 0. -1.
        -11    1    3    3    0    0  0.69295869672E+01 -0.53424929723E+02 -0.16821094772E+02  0.56437501015E+02  0.00000000000E+00 0.  1.
          4    1    6    6  502    0  0.99615591995E+00  0.36463132472E+02 -0.37730198342E+02  0.52479712492E+02  0.00000000000E+00 0. -1.
          3    1    5    5  503    0 -0.91998516690E+01 -0.37267641564E+02  0.37790771587E+02  0.53867028836E+02  0.00000000000E+00 0. -1.
         -4    1    5    5    0  503 -0.84951184810E+02 -0.11030656426E+03 -0.16710654555E+02  0.14022655916E+03  0.00000000000E+00 0.  1.
         -3    1    6    6    0  502 -0.27554334416E+02  0.62448013476E+03 -0.12241636952E+04  0.13745222561E+04  0.00000000000E+00 0.  1.
<mgrwt>
<rscale>  0 0.15846411E+04</rscale>
<asrwt>0</asrwt>
<pdfrwt beam="1">  1        1 0.31623355E+00 0.15846411E+04</pdfrwt>
<pdfrwt beam="2">  1       -1 0.46985861E-01 0.15846411E+04</pdfrwt>
<totfact> 0.11861084E+01</totfact>
</mgrwt>
</event>
<event>
12    1  0.2529392E-007  0.1479421E+04  0.7818608E-02  0.8898254E-01
          2   -1    0    0  501    0  0.00000000000E+00  0.00000000000E+00  0.24552134425E+04  0.24552134425E+04  0.00000000000E+00 0. -1.
         -2   -1    0    0    0  501 -0.00000000000E+00 -0.00000000000E+00 -0.22286099417E+03  0.22286099417E+03  0.00000000000E+00 0.  1.
         23    2    1    2    0    0 -0.29422114283E+03  0.27524780127E+03  0.10966269793E+04  0.11716554704E+04  0.88647484847E+02 0.  0.
        254    2    1    2    0    0  0.29422114283E+03 -0.27524780127E+03  0.11357254690E+04  0.15064189663E+04  0.90393491358E+03 0.  0.
        -24    2    4    4    0    0 -0.29299925200E+03 -0.23656542876E+03  0.33873581558E+03  0.51265188281E+03  0.79109016112E+02 0.  0.
         24    2    4    4    0    0  0.58722039483E+03 -0.38682372514E+02  0.79698965341E+03  0.99376708345E+03  0.77822814472E+02 0.  0.
         13    1    3    3    0    0 -0.15196471475E+03  0.13345450323E+03  0.67470282844E+03  0.70436303542E+03  0.00000000000E+00 0. -1.
        -13    1    3    3    0    0 -0.14225642808E+03  0.14179329804E+03  0.42192415084E+03  0.46729243495E+03  0.00000000000E+00 0.  1.
          2    1    6    6  502    0  0.39425523290E+03 -0.29313065245E+02  0.47204525674E+03  0.61572978560E+03  0.00000000000E+00 0. -1.
          1    1    5    5  503    0 -0.23477951494E+03 -0.16709310219E+03  0.29361105006E+03  0.41139880184E+03  0.00000000000E+00 0. -1.
         -2    1    5    5    0  503 -0.58219737060E+02 -0.69472326572E+02  0.45124765521E+02  0.10125308097E+03  0.00000000000E+00 0.  1.
         -3    1    6    6    0  502  0.19296516193E+03 -0.93693072688E+01  0.32494439667E+03  0.37803729785E+03  0.00000000000E+00 0.  1.
<mgrwt>
<rscale>  0 0.14794206E+04</rscale>
<asrwt>0</asrwt>
<pdfrwt beam="1">  1        2 0.37772512E+00 0.14794206E+04</pdfrwt>
<pdfrwt beam="2">  1       -2 0.34286309E-01 0.14794206E+04</pdfrwt>
<totfact> 0.28568969E+01</totfact>
</mgrwt>
</event>
<event>
12    1  0.2083715E-007  0.1866790E+04  0.7818608E-02  0.8671566E-01
          1   -1    0    0  501    0  0.00000000000E+00  0.00000000000E+00  0.13150968463E+04  0.13150968463E+04  0.00000000000E+00 0. -1.
         -1   -1    0    0    0  501 -0.00000000000E+00 -0.00000000000E+00 -0.66248094926E+03  0.66248094926E+03  0.00000000000E+00 0.  1.
         23    2    1    2    0    0  0.71106018658E+03 -0.37391433214E+02  0.29294828011E+03  0.77522564981E+03  0.90285132148E+02 0.  0.
        254    2    1    2    0    0 -0.71106018658E+03  0.37391433214E+02  0.35966761688E+03  0.12023521457E+04  0.89960278980E+03 0.  0.
        -24    2    4    4    0    0 -0.47718166847E+03 -0.39298099948E+02  0.65126579169E+03  0.81226710066E+03  0.79900100183E+02 0.  0.
         24    2    4    4    0    0 -0.23387851811E+03  0.76689533161E+02 -0.29159817481E+03  0.39008504504E+03  0.80971606663E+02 0.  0.
         13    1    3    3    0    0  0.52332069921E+03 -0.13671133489E+02  0.25468098596E+03  0.58216308601E+03  0.00000000000E+00 0. -1.
        -13    1    3    3    0    0  0.18773948737E+03 -0.23720299725E+02  0.38267294159E+02  0.19306256380E+03  0.00000000000E+00 0.  1.
          2    1    6    6  502    0 -0.18702472113E+03  0.23937638977E+02 -0.21290133257E+03  0.28439098840E+03  0.00000000000E+00 0. -1.
          3    1    5    5  503    0 -0.11238631260E+03  0.22593642170E+02  0.17410049393E+03  0.20845176399E+03  0.00000000000E+00 0. -1.
         -4    1    5    5    0  503 -0.36479535587E+03 -0.61891742118E+02  0.47716529776E+03  0.60381533666E+03  0.00000000000E+00 0.  1.
         -1    1    6    6    0  502 -0.46853796983E+02  0.52751894185E+02 -0.78696842234E+02  0.10569405664E+03  0.00000000000E+00 0.  1.
<mgrwt>
<rscale>  0 0.18667904E+04</rscale>
<asrwt>0</asrwt>
<pdfrwt beam="1">  1        1 0.20232259E+00 0.18667904E+04</pdfrwt>
<pdfrwt beam="2">  1       -1 0.10192015E+00 0.18667904E+04</pdfrwt>
<totfact> 0.75530556E+00</totfact>
</mgrwt>
</event>
<event>
12    1  0.2083715E-007  0.2184217E+04  0.7818608E-02  0.8525026E-01
         -1   -1    0    0    0  501 -0.00000000000E+00  0.00000000000E+00  0.13725704631E+04  0.13725704631E+04  0.00000000000E+00 0.  1.
          1   -1    0    0  501    0  0.00000000000E+00 -0.00000000000E+00 -0.86895397810E+03  0.86895397810E+03  0.00000000000E+00 0. -1.
         23    2    1    2    0    0  0.81007963990E+03 -0.11690539808E+03  0.61001694820E+03  0.10253390125E+04  0.96454747700E+02 0.  0.
        254    2    1    2    0    0 -0.81007963990E+03  0.11690539808E+03 -0.10640046322E+03  0.12161854287E+04  0.89324691060E+03 0.  0.
        -24    2    4    4    0    0 -0.57490167769E+01  0.31323736712E+03 -0.19828248251E+03  0.37932134473E+03  0.80112672801E+02 0.  0.
         24    2    4    4    0    0 -0.80433062312E+03 -0.19633196904E+03  0.91882019284E+02  0.83686408396E+03  0.80032469624E+02 0.  0.
         13    1    3    3    0    0  0.50303603598E+03 -0.11749158219E+03  0.36495325773E+03  0.63248747474E+03  0.00000000000E+00 0. -1.
        -13    1    3    3    0    0  0.30704360392E+03  0.58618411026E+00  0.24506369047E+03  0.39285153774E+03  0.00000000000E+00 0.  1.
          4    1    6    6  502    0 -0.98217946688E+02 -0.66811941766E+01 -0.87515645117E+01  0.98833158852E+02  0.00000000000E+00 0. -1.
          1    1    5    5  503    0 -0.53554554419E+01  0.37538419255E+01 -0.22433974960E+02  0.23367829696E+02  0.00000000000E+00 0. -1.
         -2    1    5    5    0  503 -0.39356133502E+00  0.30948352520E+03 -0.17584850755E+03  0.35595351503E+03  0.00000000000E+00 0.  1.
         -3    1    6    6    0  502 -0.70611267643E+03 -0.18965077487E+03  0.10063358380E+03  0.73803092511E+03  0.00000000000E+00 0.  1.
<mgrwt>
<rscale>  0 0.21842166E+04</rscale>
<asrwt>0</asrwt>
<pdfrwt beam="1">  1        1 0.13368523E+00 0.21842166E+04</pdfrwt>
<pdfrwt beam="2">  1       -1 0.21116469E+00 0.21842166E+04</pdfrwt>
<totfact> 0.22249756E+00</totfact>
</mgrwt>
</event>
<event>
12    1  0.2083715E-007  0.1389925E+04  0.7818608E-02  0.8961144E-01
         -2   -1    0    0    0  501 -0.00000000000E+00  0.00000000000E+00  0.17323272842E+04  0.17323272842E+04  0.00000000000E+00 0. -1.
          2   -1    0    0  501    0  0.00000000000E+00 -0.00000000000E+00 -0.27880016102E+03  0.27880016102E+03  0.00000000000E+00 0.  1.
         23    2    1    2    0    0 -0.29787630808E+03  0.43384079562E+02  0.79902903113E+03  0.85876170338E+03  0.91715851100E+02 0.  0.
        254    2    1    2    0    0  0.29787630808E+03 -0.43384079562E+02  0.65449809201E+03  0.11523657418E+04  0.89942569295E+03 0.  0.
        -24    2    4    4    0    0  0.44603198434E+03  0.53494274676E+02  0.79217519112E+03  0.91443710135E+03  0.82749685435E+02 0.  0.
         24    2    4    4    0    0 -0.14815567626E+03 -0.96878354238E+02 -0.13767709910E+03  0.23792864044E+03  0.79495499224E+02 0.  0.
         11    1    3    3    0    0 -0.98851919764E+02  0.32544058523E+02  0.39156650043E+03  0.40516063733E+03  0.00000000000E+00 0. -1.
        -11    1    3    3    0    0 -0.19902438832E+03  0.10840021039E+02  0.40746253069E+03  0.45360106605E+03  0.00000000000E+00 0.  1.
          2    1    6    6  502    0 -0.13083098458E+02 -0.43190765222E+02 -0.53386891084E+02  0.69905434734E+02  0.00000000000E+00 0. -1.
          1    1    5    5  503    0  0.24253702284E+03  0.14120868237E+01  0.48563580804E+03  0.54283362044E+03  0.00000000000E+00 0. -1.
         -2    1    5    5    0  503  0.20349496150E+03  0.52082187852E+02  0.30653938308E+03  0.37160348091E+03  0.00000000000E+00 0.  1.
         -1    1    6    6    0  502 -0.13507257780E+03 -0.53687589016E+02 -0.84290208020E+02  0.16802320571E+03  0.00000000000E+00 0.  1.
<mgrwt>
<rscale>  0 0.13899254E+04</rscale>
<asrwt>0</asrwt>
<pdfrwt beam="1">  1        2 0.42892334E-01 0.13899254E+04</pdfrwt>
<pdfrwt beam="2">  1       -2 0.26651188E+00 0.13899254E+04</pdfrwt>
<totfact> 0.59212875E+00</totfact>
</mgrwt>
</event>
<event>
12    1  0.2083715E-007  0.1137584E+04  0.7818608E-02  0.9169315E-01
          2   -1    0    0  501    0  0.00000000000E+00  0.00000000000E+00  0.11412322833E+04  0.11412322833E+04  0.00000000000E+00 0. -1.
         -2   -1    0    0    0  501 -0.00000000000E+00 -0.00000000000E+00 -0.28348665401E+03  0.28348665401E+03  0.00000000000E+00 0.  1.
         23    2    1    2    0    0 -0.41158183451E+02 -0.92874067075E+02  0.37177385545E+03  0.39643700283E+03  0.92881156412E+02 0.  0.
        254    2    1    2    0    0  0.41158183451E+02  0.92874067075E+02  0.48597177385E+03  0.10282819345E+04  0.90048630385E+03 0.  0.
        -24    2    4    4    0    0 -0.12279142440E+03 -0.25679766789E+03  0.55282592885E+03  0.62758138924E+03  0.84965383324E+02 0.  0.
         24    2    4    4    0    0  0.16394960785E+03  0.34967173497E+03 -0.66854155001E+02  0.40070054526E+03  0.83316581653E+02 0.  0.
         13    1    3    3    0    0 -0.50120625316E+01  0.87453904930E+00 -0.46144343156E+01  0.68686675144E+01  0.00000000000E+00 0.  1.
        -13    1    3    3    0    0 -0.36146120919E+02 -0.93748606124E+02  0.37638828976E+03  0.38956833531E+03  0.00000000000E+00 0. -1.
          4    1    6    6  502    0  0.17110065615E+03  0.34476427805E+03 -0.59765803748E+02  0.38949941368E+03  0.00000000000E+00 0. -1.
          1    1    5    5  503    0 -0.12122507156E+03 -0.26128277189E+03  0.52026994781E+03  0.59468060625E+03  0.00000000000E+00 0. -1.
         -2    1    5    5    0  503 -0.15663528433E+01  0.44851040010E+01  0.32555981043E+02  0.32900782982E+02  0.00000000000E+00 0.  1.
         -3    1    6    6    0  502 -0.71510483022E+01  0.49074569165E+01 -0.70883512527E+01  0.11201131581E+02  0.00000000000E+00 0.  1.
<mgrwt>
<rscale>  0 0.11375836E+04</rscale>
<asrwt>0</asrwt>
<pdfrwt beam="1">  1        2 0.17557420E+00 0.11375836E+04</pdfrwt>
<pdfrwt beam="2">  1       -2 0.43613332E-01 0.11375836E+04</pdfrwt>
<totfact> 0.10144630E+02</totfact>
</mgrwt>
</event>
<event>
12    1  0.2083715E-007  0.2601578E+04  0.7818608E-02  0.8367665E-01
          2   -1    0    0  501    0  0.00000000000E+00  0.00000000000E+00  0.22176746586E+04  0.22176746586E+04  0.00000000000E+00 0.  1.
         -2   -1    0    0    0  501 -0.00000000000E+00 -0.00000000000E+00 -0.76298503170E+03  0.76298503170E+03  0.00000000000E+00 0. -1.
         23    2    1    2    0    0 -0.78103057083E+03  0.83443230957E+03  0.66683845993E+03  0.13263534066E+04  0.90850403613E+02 0.  0.
        254    2    1    2    0    0  0.78103057083E+03 -0.83443230957E+03  0.78785116697E+03  0.16543062837E+04  0.89985209178E+03 0.  0.
        -24    2    4    4    0    0  0.34812091956E+02  0.16988530270E+03  0.58094605019E+02  0.20388857982E+03  0.90125867704E+02 0.  0.
         24    2    4    4    0    0  0.74621847887E+03 -0.10043176123E+04  0.72975656195E+03  0.14504177039E+04  0.75305985258E+02 0.  0.
         11    1    3    3    0    0 -0.67817225096E+03  0.76072507384E+03  0.57662043392E+03  0.11709446463E+04  0.00000000000E+00 0. -1.
        -11    1    3    3    0    0 -0.10285831987E+03  0.73707235732E+02  0.90218026018E+02  0.15540876032E+03  0.00000000000E+00 0.  1.
          4    1    6    6  502    0  0.28186827072E+03 -0.32300409474E+03  0.23569024324E+03  0.48921494051E+03  0.00000000000E+00 0. -1.
          1    1    5    5  503    0  0.26754759354E+01  0.80601946721E+02  0.71844374238E+02  0.10800669468E+03  0.00000000000E+00 0. -1.
         -2    1    5    5    0  503  0.32136616021E+02  0.89283355977E+02 -0.13749769219E+02  0.95881885136E+02  0.00000000000E+00 0.  1.
         -1    1    6    6    0  502  0.46435020816E+03 -0.68131351753E+03  0.49406631871E+03  0.96120276334E+03  0.00000000000E+00 0.  1.
<mgrwt>
<rscale>  0 0.26015784E+04</rscale>
<asrwt>0</asrwt>
<pdfrwt beam="1">  1        2 0.34118071E+00 0.26015784E+04</pdfrwt>
<pdfrwt beam="2">  1       -2 0.11738231E+00 0.26015784E+04</pdfrwt>
<totfact> 0.25028030E+00</totfact>
</mgrwt>
</event>
<event>
12    1  0.2083715E-007  0.1790933E+04  0.7818608E-02  0.8711136E-01
         -2   -1    0    0    0  501 -0.00000000000E+00  0.00000000000E+00  0.27901262946E+03  0.27901262946E+03  0.00000000000E+00 0.  1.
          2   -1    0    0  501    0  0.00000000000E+00 -0.00000000000E+00 -0.28739224883E+04  0.28739224883E+04  0.00000000000E+00 0. -1.
         23    2    1    2    0    0 -0.32315788049E+03  0.55887637110E+03 -0.68478515583E+03  0.94546579213E+03  0.90559596709E+02 0.  0.
        254    2    1    2    0    0  0.32315788049E+03 -0.55887637110E+03 -0.19101247031E+04  0.22074693257E+04  0.89864933575E+03 0.  0.
        -24    2    4    4    0    0 -0.27252159999E+03 -0.26989918830E+03 -0.41847129834E+03  0.57354504729E+03  0.81988410418E+02 0.  0.
         24    2    4    4    0    0  0.59567948047E+03 -0.28897718280E+03 -0.14916534047E+04  0.16339242784E+04  0.79604095414E+02 0.  0.
         11    1    3    3    0    0 -0.12738579353E+03  0.31068877692E+03 -0.35440706435E+03  0.48822026152E+03  0.00000000000E+00 0. -1.
        -11    1    3    3    0    0 -0.19577208696E+03  0.24818759418E+03 -0.33037809148E+03  0.45724553061E+03  0.00000000000E+00 0.  1.
          2    1    6    6  502    0  0.41751617198E+03 -0.23858463203E+03 -0.11123164608E+04  0.12118128113E+04  0.00000000000E+00 0. -1.
          3    1    5    5  503    0 -0.82041819684E+02 -0.33490091980E+02 -0.95963576033E+02  0.13061950223E+03  0.00000000000E+00 0. -1.
         -4    1    5    5    0  503 -0.19047978030E+03 -0.23640909632E+03 -0.32250772230E+03  0.44292554506E+03  0.00000000000E+00 0.  1.
         -1    1    6    6    0  502  0.17816330850E+03 -0.50392550778E+02 -0.37933694388E+03  0.42211146710E+03  0.00000000000E+00 0.  1.
<mgrwt>
<rscale>  0 0.17909335E+04</rscale>
<asrwt>0</asrwt>
<pdfrwt beam="1">  1        2 0.44214194E+00 0.17909335E+04</pdfrwt>
<pdfrwt beam="2">  1       -2 0.42925018E-01 0.17909335E+04</pdfrwt>
<totfact> 0.10165153E+01</totfact>
</mgrwt>
</event>
<event>
12    1  0.2083715E-007  0.1758995E+04  0.7818608E-02  0.8728415E-01
          2   -1    0    0  501    0  0.00000000000E+00  0.00000000000E+00  0.16280630059E+04  0.16280630059E+04  0.00000000000E+00 0. -1.
         -2   -1    0    0    0  501 -0.00000000000E+00 -0.00000000000E+00 -0.47511411869E+03  0.47511411869E+03  0.00000000000E+00 0.  1.
         23    2    1    2    0    0  0.19167607901E+03 -0.22578359438E+03  0.11134299795E+04  0.11554752182E+04  0.87628248030E+02 0.  0.
        254    2    1    2    0    0 -0.19167607901E+03  0.22578359438E+03  0.39518907677E+02  0.94770190637E+03  0.89936600365E+03 0.  0.
        -24    2    4    4    0    0  0.13132810581E+03  0.33979629434E+03 -0.28525822841E+03  0.46894333868E+03  0.76334821639E+02 0.  0.
         24    2    4    4    0    0 -0.32300418482E+03 -0.11401269996E+03  0.32477713608E+03  0.47875856769E+03  0.79993617571E+02 0.  0.
         11    1    3    3    0    0  0.53294746203E+02 -0.10342330684E+03  0.31079959765E+03  0.33186307458E+03  0.00000000000E+00 0. -1.
        -11    1    3    3    0    0  0.13838133281E+03 -0.12236028754E+03  0.80263038186E+03  0.82361214362E+03  0.00000000000E+00 0.  1.
          4    1    6    6  502    0 -0.10971494639E+03 -0.17428823142E+02  0.14962423364E+03  0.18635596216E+03  0.00000000000E+00 0. -1.
          1    1    5    5  503    0  0.47859470934E+02  0.12245083678E+03 -0.15088298805E+03  0.20012599148E+03  0.00000000000E+00 0. -1.
         -2    1    5    5    0  503  0.83468634873E+02  0.21734545756E+03 -0.13437524036E+03  0.26881734720E+03  0.00000000000E+00 0.  1.
         -3    1    6    6    0  502 -0.21328923843E+03 -0.96583876817E+02  0.17515290244E+03  0.29240260553E+03  0.00000000000E+00 0.  1.
<mgrwt>
<rscale>  0 0.17589948E+04</rscale>
<asrwt>0</asrwt>
<pdfrwt beam="1">  1        2 0.25047123E+00 0.17589948E+04</pdfrwt>
<pdfrwt beam="2">  1       -2 0.73094480E-01 0.17589948E+04</pdfrwt>
<totfact> 0.17219550E+01</totfact>
</mgrwt>
</event>
<event>
12    1  0.2083715E-007  0.1749983E+04  0.7818608E-02  0.8733360E-01
         -1   -1    0    0    0  501 -0.00000000000E+00  0.00000000000E+00  0.63698770768E+03  0.63698770768E+03  0.00000000000E+00 0.  1.
          1   -1    0    0  501    0  0.00000000000E+00 -0.00000000000E+00 -0.12019228753E+04  0.12019228753E+04  0.00000000000E+00 0. -1.
         23    2    1    2    0    0  0.55584486550E+03  0.60938942790E+02 -0.53244219665E+03  0.77787991950E+03  0.94474372860E+02 0.  0.
        254    2    1    2    0    0 -0.55584486550E+03 -0.60938942790E+02 -0.32492970984E+02  0.10610306635E+04  0.90113994833E+03 0.  0.
        -24    2    4    4    0    0 -0.57362562154E+03 -0.36486956798E+03  0.14474128770E+03  0.70002912569E+03  0.83153960356E+02 0.  0.
         24    2    4    4    0    0  0.17780756032E+02  0.30393062519E+03 -0.17723425868E+03  0.36100153782E+03  0.78867912621E+02 0.  0.
         11    1    3    3    0    0  0.26862500427E+03 -0.15681182957E+02 -0.23298756242E+03  0.35593327558E+03  0.00000000000E+00 0. -1.
        -11    1    3    3    0    0  0.28721986124E+03  0.76620125747E+02 -0.29945463422E+03  0.42194664392E+03  0.00000000000E+00 0.  1.
          2    1    6    6  502    0 -0.10097071751E+02  0.67286179379E+02 -0.76283562822E+02  0.10221821144E+03  0.00000000000E+00 0. -1.
          1    1    5    5  503    0 -0.37827840429E+03 -0.24267564246E+03  0.13556652168E+03  0.46942976088E+03  0.00000000000E+00 0. -1.
         -2    1    5    5    0  503 -0.19534721724E+03 -0.12219392552E+03  0.91747660245E+01  0.23059936481E+03  0.00000000000E+00 0.  1.
         -1    1    6    6    0  502  0.27877827783E+02  0.23664444581E+03 -0.10095069586E+03  0.25878332638E+03  0.00000000000E+00 0.  1.
<mgrwt>
<rscale>  0 0.17499830E+04</rscale>
<asrwt>0</asrwt>
<pdfrwt beam="1">  1        1 0.18491121E+00 0.17499830E+04</pdfrwt>
<pdfrwt beam="2">  1       -1 0.97998109E-01 0.17499830E+04</pdfrwt>
<totfact> 0.10075272E+01</totfact>
</mgrwt>
</event>
<event>
12    1  0.2083715E-007  0.1645521E+04  0.7818608E-02  0.8793061E-01
         -1   -1    0    0    0  501 -0.00000000000E+00  0.00000000000E+00  0.57784341271E+03  0.57784341271E+03  0.00000000000E+00 0.  1.
          1   -1    0    0  501    0  0.00000000000E+00 -0.00000000000E+00 -0.11714843756E+04  0.11714843756E+04  0.00000000000E+00 0. -1.
         23    2    1    2    0    0 -0.30095426526E+03 -0.12641192912E+03  0.28968881324E+03  0.44565355803E+03  0.90188910980E+02 0.  0.
        254    2    1    2    0    0  0.30095426526E+03  0.12641192912E+03 -0.88332977614E+03  0.13036742303E+04  0.90152180214E+03 0.  0.
        -24    2    4    4    0    0 -0.11337634580E+03 -0.28726510784E+03 -0.52025880083E+03  0.61025091967E+03  0.79759182230E+02 0.  0.
         24    2    4    4    0    0  0.41433061106E+03  0.41367703696E+03 -0.36307097531E+03  0.69342331063E+03  0.78846740194E+02 0.  0.
         13    1    3    3    0    0 -0.18198635262E+03 -0.55014470922E+02  0.11361315458E+03  0.22148041323E+03  0.00000000000E+00 0. -1.
        -13    1    3    3    0    0 -0.11896791264E+03 -0.71397458201E+02  0.17607565866E+03  0.22417314479E+03  0.00000000000E+00 0.  1.
          4    1    6    6  502    0  0.39684939726E+03  0.41198155465E+03 -0.34400645680E+03  0.66750182606E+03  0.00000000000E+00 0. -1.
          1    1    5    5  503    0 -0.11707580723E+03 -0.27955129960E+03 -0.46983800093E+03  0.55910948916E+03  0.00000000000E+00 0. -1.
         -2    1    5    5    0  503  0.36994614341E+01 -0.77138082380E+01 -0.50420799901E+02  0.51141430515E+02  0.00000000000E+00 0.  1.
         -3    1    6    6    0  502  0.17481213797E+02  0.16954823159E+01 -0.19064518509E+02  0.25921484565E+02  0.00000000000E+00 0.  1.
<mgrwt>
<rscale>  0 0.16455206E+04</rscale>
<asrwt>0</asrwt>
<pdfrwt beam="1">  1        1 0.18022837E+00 0.16455206E+04</pdfrwt>
<pdfrwt beam="2">  1       -1 0.88898986E-01 0.16455206E+04</pdfrwt>
<totfact> 0.13307205E+01</totfact>
</mgrwt>
</event>
<event>
12    1  0.2083715E-007  0.3007657E+04  0.7818608E-02  0.8241548E-01
          1   -1    0    0  501    0  0.00000000000E+00  0.00000000000E+00  0.14739289532E+04  0.14739289532E+04  0.00000000000E+00 0. -1.
         -1   -1    0    0    0  501 -0.00000000000E+00 -0.00000000000E+00 -0.15343347691E+04  0.15343347691E+04  0.00000000000E+00 0.  1.
         23    2    1    2    0    0 -0.99986672473E+03  0.83713409561E+03 -0.44048330468E+03  0.13793277425E+04  0.89400884513E+02 0.  0.
        254    2    1    2    0    0  0.99986672473E+03 -0.83713409561E+03  0.38007748880E+03  0.16289359799E+04  0.89913656790E+03 0.  0.
        -24    2    4    4    0    0  0.10725714659E+04 -0.58041352849E+03  0.88105986843E+02  0.12253858537E+04  0.80736684335E+02 0.  0.
         24    2    4    4    0    0 -0.72704741125E+02 -0.25672056712E+03  0.29197150195E+03  0.40355012612E+03  0.80086936365E+02 0.  0.
         11    1    3    3    0    0 -0.34993630595E+03  0.29879491073E+03 -0.20057047698E+03  0.50195849743E+03  0.00000000000E+00 0.  1.
        -11    1    3    3    0    0 -0.64993041878E+03  0.53833918487E+03 -0.23991282770E+03  0.87736924503E+03  0.00000000000E+00 0. -1.
          2    1    6    6  502    0 -0.70285004992E+02 -0.11876059923E+03  0.17347734015E+03  0.22167194095E+03  0.00000000000E+00 0. -1.
          1    1    5    5  503    0  0.88261568956E+03 -0.50689455336E+03  0.57804296582E+02  0.10194576403E+04  0.00000000000E+00 0. -1.
         -2    1    5    5    0  503  0.18995577630E+03 -0.73518975133E+02  0.30301690261E+02  0.20592821343E+03  0.00000000000E+00 0.  1.
         -1    1    6    6    0  502 -0.24197361332E+01 -0.13795996788E+03  0.11849416180E+03  0.18187818517E+03  0.00000000000E+00 0.  1.
<mgrwt>
<rscale>  0 0.30076572E+04</rscale>
<asrwt>0</asrwt>
<pdfrwt beam="1">  1        1 0.22675830E+00 0.30076572E+04</pdfrwt>
<pdfrwt beam="2">  1       -1 0.23605150E+00 0.30076572E+04</pdfrwt>
<totfact> 0.49932108E-01</totfact>
</mgrwt>
</event>
<event>
12    1  0.2083715E-007  0.1307315E+04  0.7818608E-02  0.9023785E-01
         -2   -1    0    0    0  501 -0.00000000000E+00  0.00000000000E+00  0.29622828522E+03  0.29622828522E+03  0.00000000000E+00 0. -1.
          2   -1    0    0  501    0  0.00000000000E+00 -0.00000000000E+00 -0.14423600454E+04  0.14423600454E+04  0.00000000000E+00 0.  1.
         23    2    1    2    0    0  0.13842708786E+03 -0.23586577396E+03 -0.56375553037E+03  0.63521860993E+03  0.10434396197E+03 0.  0.
        254    2    1    2    0    0 -0.13842708786E+03  0.23586577396E+03 -0.58237622984E+03  0.11033697207E+04  0.89636373505E+03 0.  0.
        -24    2    4    4    0    0  0.46825513729E+02  0.20737535230E+02 -0.75532514949E+03  0.76116944552E+03  0.78994741817E+02 0.  0.
         24    2    4    4    0    0 -0.18525260159E+03  0.21512823873E+03  0.17294891966E+03  0.34220027518E+03  0.81185060371E+02 0.  0.
         13    1    3    3    0    0  0.14120856776E+03 -0.19955514924E+03 -0.53700980979E+03  0.59003529810E+03  0.00000000000E+00 0.  1.
        -13    1    3    3    0    0 -0.27814798930E+01 -0.36310624727E+02 -0.26745720574E+02  0.45183311825E+02  0.00000000000E+00 0. -1.
          2    1    6    6  502    0 -0.75036831920E+02  0.41589044044E+02  0.77213680430E+02  0.11542151955E+03  0.00000000000E+00 0. -1.
          1    1    5    5  503    0 -0.65247035809E+01  0.36910444749E+02 -0.25325114743E+03  0.25600995364E+03  0.00000000000E+00 0. -1.
         -2    1    5    5    0  503  0.53350217310E+02 -0.16172909520E+02 -0.50207400207E+03  0.50515949188E+03  0.00000000000E+00 0.  1.
         -1    1    6    6    0  502 -0.11021576967E+03  0.17353919469E+03  0.95735239228E+02  0.22677875564E+03  0.00000000000E+00 0.  1.
<mgrwt>
<rscale>  0 0.13073146E+04</rscale>
<asrwt>0</asrwt>
<pdfrwt beam="1">  1        2 0.22190155E+00 0.13073146E+04</pdfrwt>
<pdfrwt beam="2">  1       -2 0.45573582E-01 0.13073146E+04</pdfrwt>
<totfact> 0.61197222E+01</totfact>
</mgrwt>
</event>
<event>
12    1  0.2083715E-007  0.1868855E+04  0.7818608E-02  0.8670516E-01
         -1   -1    0    0    0  501 -0.00000000000E+00  0.00000000000E+00  0.80038368959E+03  0.80038368959E+03  0.00000000000E+00 0.  1.
          1   -1    0    0  501    0  0.00000000000E+00 -0.00000000000E+00 -0.10909200885E+04  0.10909200885E+04  0.00000000000E+00 0. -1.
         23    2    1    2    0    0  0.49971781491E+03 -0.48769217715E+03 -0.26258128094E+03  0.75152747110E+03  0.91011298912E+02 0.  0.
        254    2    1    2    0    0 -0.49971781491E+03  0.48769217715E+03 -0.27955117962E+02  0.11397763070E+04  0.90041489722E+03 0.  0.
        -24    2    4    4    0    0  0.17139477704E+03  0.24903462852E+03 -0.23728792926E+03  0.39310334277E+03  0.82645392643E+02 0.  0.
         24    2    4    4    0    0 -0.67111259195E+03  0.23865754863E+03  0.20933281130E+03  0.74667296421E+03  0.79691611877E+02 0.  0.
         11    1    3    3    0    0  0.27693277061E+03 -0.23855388886E+03 -0.95049857761E+02  0.37766942263E+03  0.00000000000E+00 0.  1.
        -11    1    3    3    0    0  0.22278504430E+03 -0.24913828829E+03 -0.16753142318E+03  0.37385804847E+03  0.00000000000E+00 0. -1.
          2    1    6    6  502    0 -0.64335342906E+03  0.21834109771E+03  0.21318985283E+03  0.71205785087E+03  0.00000000000E+00 0. -1.
          3    1    5    5  503    0  0.12131639028E+03  0.19956120150E+03 -0.13759642773E+03  0.27106293848E+03  0.00000000000E+00 0. -1.
         -4    1    5    5    0  503  0.50078386757E+02  0.49473427025E+02 -0.99691501529E+02  0.12204040429E+03  0.00000000000E+00 0.  1.
         -1    1    6    6    0  502 -0.27759162884E+02  0.20316450917E+02 -0.38570415311E+01  0.34615113336E+02  0.00000000000E+00 0.  1.
<mgrwt>
<rscale>  0 0.18688549E+04</rscale>
<asrwt>0</asrwt>
<pdfrwt beam="1">  1        1 0.16783386E+00 0.18688549E+04</pdfrwt>
<pdfrwt beam="2">  1       -1 0.12313595E+00 0.18688549E+04</pdfrwt>
<totfact> 0.70203174E+00</totfact>
</mgrwt>
</event>
<event>
12    1  0.2083715E-007  0.1270987E+04  0.7818608E-02  0.9052895E-01
          1   -1    0    0  501    0  0.00000000000E+00  0.00000000000E+00  0.53413887847E+03  0.53413887847E+03  0.00000000000E+00 0. -1.
         -1   -1    0    0    0  501 -0.00000000000E+00 -0.00000000000E+00 -0.75608027881E+03  0.75608027881E+03  0.00000000000E+00 0.  1.
         23    2    1    2    0    0 -0.15457084619E+02 -0.29086598575E+03  0.39121874522E+02  0.30763996952E+03  0.90938917149E+02 0.  0.
        254    2    1    2    0    0  0.15457084619E+02  0.29086598575E+03 -0.26106327487E+03  0.98257918776E+03  0.90136889430E+03 0.  0.
        -24    2    4    4    0    0  0.24714919302E+03  0.51051520682E+03 -0.30952513881E+03  0.65082241783E+03  0.77817144547E+02 0.  0.
         24    2    4    4    0    0 -0.23169210840E+03 -0.21964922108E+03  0.48461863946E+02  0.33175676993E+03  0.76072259883E+02 0.  0.
         13    1    3    3    0    0 -0.19831383365E+02 -0.21957916544E+03 -0.10419208587E+02  0.22071894701E+03  0.00000000000E+00 0.  1.
        -13    1    3    3    0    0  0.43742987460E+01 -0.71286820306E+02  0.49541083109E+02  0.86921022511E+02  0.00000000000E+00 0. -1.
          2    1    6    6  502    0 -0.34136384386E+01 -0.29663307160E+01 -0.10597066198E+02  0.11521712430E+02  0.00000000000E+00 0. -1.
          3    1    5    5  503    0  0.26412328781E+02  0.44562242462E+02 -0.55944372684E+02  0.76244195844E+02  0.00000000000E+00 0. -1.
         -2    1    5    5    0  503  0.22073686424E+03  0.46595296436E+03 -0.25358076613E+03  0.57457822199E+03  0.00000000000E+00 0.  1.
         -1    1    6    6    0  502 -0.22827846996E+03 -0.21668289036E+03  0.59058930145E+02  0.32023505750E+03  0.00000000000E+00 0.  1.
<mgrwt>
<rscale>  0 0.12709868E+04</rscale>
<asrwt>0</asrwt>
<pdfrwt beam="1">  1        1 0.82175212E-01 0.12709868E+04</pdfrwt>
<pdfrwt beam="2">  1       -1 0.11632004E+00 0.12709868E+04</pdfrwt>
<totfact> 0.26592167E+01</totfact>
</mgrwt>
</event>
<event>
12    1  0.2083715E-007  0.1468236E+04  0.7818608E-02  0.8905855E-01
          2   -1    0    0  501    0  0.00000000000E+00  0.00000000000E+00  0.57282269570E+03  0.57282269570E+03  0.00000000000E+00 0. -1.
         -2   -1    0    0    0  501 -0.00000000000E+00 -0.00000000000E+00 -0.94083042493E+03  0.94083042493E+03  0.00000000000E+00 0.  1.
         23    2    1    2    0    0  0.10431723317E+03 -0.32221229059E+03  0.19300239140E+03  0.39987593583E+03  0.89151531809E+02 0.  0.
        254    2    1    2    0    0 -0.10431723317E+03  0.32221229059E+03 -0.56101012064E+03  0.11137771848E+04  0.90059114841E+03 0.  0.
        -24    2    4    4    0    0  0.14899479259E+03  0.56998995298E+03 -0.40179334900E+03  0.71752871619E+03  0.79508292235E+02 0.  0.
         24    2    4    4    0    0 -0.25331202576E+03 -0.24777766239E+03 -0.15921677163E+03  0.39624846862E+03  0.78116042759E+02 0.  0.
         13    1    3    3    0    0 -0.24336285593E+00 -0.12691372186E+02 -0.91846251640E+01  0.15668040491E+02  0.00000000000E+00 0.  1.
        -13    1    3    3    0    0  0.10456059603E+03 -0.30952091840E+03  0.20218701656E+03  0.38420789534E+03  0.00000000000E+00 0. -1.
          4    1    6    6  502    0 -0.23579660435E+03 -0.19107095481E+03 -0.13427974671E+03  0.33187226273E+03  0.00000000000E+00 0. -1.
          1    1    5    5  503    0  0.10753173918E+03  0.34292907924E+03 -0.20210938119E+03  0.41232466611E+03  0.00000000000E+00 0. -1.
         -2    1    5    5    0  503  0.41463053415E+02  0.22706087374E+03 -0.19968396781E+03  0.30520405008E+03  0.00000000000E+00 0.  1.
         -3    1    6    6    0  502 -0.17515421411E+02 -0.56706707580E+02 -0.24937024923E+02  0.64376205882E+02  0.00000000000E+00 0.  1.
<mgrwt>
<rscale>  0 0.14682357E+04</rscale>
<asrwt>0</asrwt>
<pdfrwt beam="1">  1        2 0.88126570E-01 0.14682357E+04</pdfrwt>
<pdfrwt beam="2">  1       -2 0.14474314E+00 0.14682357E+04</pdfrwt>
<totfact> 0.16709520E+01</totfact>
</mgrwt>
</event>
<event>
12    1  0.2083715E-007  0.3121919E+04  0.7818608E-02  0.8209748E-01
          2   -1    0    0  501    0  0.00000000000E+00  0.00000000000E+00  0.17798107351E+04  0.17798107351E+04  0.00000000000E+00 0. -1.
         -2   -1    0    0    0  501 -0.00000000000E+00 -0.00000000000E+00 -0.13690187537E+04  0.13690187537E+04  0.00000000000E+00 0.  1.
         23    2    1    2    0    0 -0.18812246963E+03 -0.14164725338E+04  0.22608423424E+03  0.14493082392E+04  0.87153821951E+02 0.  0.
        254    2    1    2    0    0  0.18812246963E+03  0.14164725338E+04  0.18470774712E+03  0.16995212496E+04  0.90137174529E+03 0.  0.
        -24    2    4    4    0    0 -0.13397455400E+03  0.66356764888E+03  0.47076454561E+03  0.82841626383E+03  0.79893948526E+02 0.  0.
         24    2    4    4    0    0  0.32209702363E+03  0.75290488495E+03 -0.28605679848E+03  0.87110498574E+03  0.79894591889E+02 0.  0.
         13    1    3    3    0    0 -0.60284822729E+02 -0.49075355363E+03  0.12004932035E+03  0.50880757617E+03  0.00000000000E+00 0. -1.
        -13    1    3    3    0    0 -0.12783764690E+03 -0.92571898021E+03  0.10603491388E+03  0.94050066307E+03  0.00000000000E+00 0.  1.
          4    1    6    6  502    0  0.15751620549E+03  0.42157902925E+03 -0.12116152904E+03  0.46606903889E+03  0.00000000000E+00 0. -1.
          1    1    5    5  503    0 -0.37648339817E+01  0.18595833884E+03  0.11304005313E+03  0.21765277708E+03  0.00000000000E+00 0. -1.
         -2    1    5    5    0  503 -0.13020972002E+03  0.47760931005E+03  0.35772449248E+03  0.61076348675E+03  0.00000000000E+00 0.  1.
         -1    1    6    6    0  502  0.16458081814E+03  0.33132585571E+03 -0.16489526945E+03  0.40503594685E+03  0.00000000000E+00 0.  1.
<mgrwt>
<rscale>  0 0.31219188E+04</rscale>
<asrwt>0</asrwt>
<pdfrwt beam="1">  1        2 0.27381703E+00 0.31219188E+04</pdfrwt>
<pdfrwt beam="2">  1       -2 0.21061827E+00 0.31219188E+04</pdfrwt>
<totfact> 0.85152358E-01</totfact>
</mgrwt>
</event>
<event>
12    1  0.2083715E-007  0.2915325E+04  0.7818608E-02  0.8268333E-01
         -1   -1    0    0    0  501 -0.00000000000E+00  0.00000000000E+00  0.12630361563E+04  0.12630361563E+04  0.00000000000E+00 0.  1.
          1   -1    0    0  501    0  0.00000000000E+00 -0.00000000000E+00 -0.16822791585E+04  0.16822791585E+04  0.00000000000E+00 0. -1.
         23    2    1    2    0    0  0.32177391143E+03  0.58670181652E+03 -0.13356479220E+04  0.14967615775E+04  0.92641117916E+02 0.  0.
        254    2    1    2    0    0 -0.32177391143E+03 -0.58670181652E+03  0.91640491977E+03  0.14485537373E+04  0.90041794819E+03 0.  0.
        -24    2    4    4    0    0 -0.57770282692E+03 -0.16062531758E+03  0.38809980749E+03  0.71873892802E+03  0.80144477026E+02 0.  0.
         24    2    4    4    0    0  0.25592891549E+03 -0.42607649894E+03  0.52830511228E+03  0.72981480932E+03  0.80514418047E+02 0.  0.
         11    1    3    3    0    0  0.14566481067E+03  0.33798204003E+03 -0.79714816619E+03  0.87800643239E+03  0.00000000000E+00 0.  1.
        -11    1    3    3    0    0  0.17610910076E+03  0.24871977649E+03 -0.53849975578E+03  0.61875514508E+03  0.00000000000E+00 0. -1.
          2    1    6    6  502    0  0.22753082223E+03 -0.41186377798E+03  0.50624444948E+03  0.69114795037E+03  0.00000000000E+00 0. -1.
          3    1    5    5  503    0 -0.54320766008E+03 -0.14797812047E+03  0.38460892768E+03  0.68183290722E+03  0.00000000000E+00 0. -1.
         -4    1    5    5    0  503 -0.34495166841E+02 -0.12647197109E+02  0.34908798143E+01  0.36906020809E+02  0.00000000000E+00 0.  1.
         -1    1    6    6    0  502  0.28398093262E+02 -0.14212720966E+02  0.22060662800E+02  0.38666858954E+02  0.00000000000E+00 0.  1.
<mgrwt>
<rscale>  0 0.29153246E+04</rscale>
<asrwt>0</asrwt>
<pdfrwt beam="1">  1        1 0.25881218E+00 0.29153246E+04</pdfrwt>
<pdfrwt beam="2">  1       -1 0.19431326E+00 0.29153246E+04</pdfrwt>
<totfact> 0.69248250E-01</totfact>
</mgrwt>
</event>
<event>
12    1  0.2083715E-007  0.1219575E+04  0.7818608E-02  0.9095893E-01
         -1   -1    0    0    0  501 -0.00000000000E+00  0.00000000000E+00  0.13089878544E+04  0.13089878544E+04  0.00000000000E+00 0.  1.
          1   -1    0    0  501    0  0.00000000000E+00 -0.00000000000E+00 -0.28406723247E+03  0.28406723247E+03  0.00000000000E+00 0. -1.
         23    2    1    2    0    0 -0.80735063138E+02  0.89576934404E+02  0.53997601242E+03  0.56155402602E+03  0.96055466023E+02 0.  0.
        254    2    1    2    0    0  0.80735063138E+02 -0.89576934404E+02  0.48494460956E+03  0.10315010609E+04  0.90237519175E+03 0.  0.
        -24    2    4    4    0    0 -0.25207727998E+03 -0.33755939678E+03  0.42731653128E+03  0.60496173997E+03  0.76746253842E+02 0.  0.
         24    2    4    4    0    0  0.33281234311E+03  0.24798246238E+03  0.57628078278E+02  0.42653932093E+03  0.79721010508E+02 0.  0.
         13    1    3    3    0    0  0.21043802241E+02  0.19597443301E+02  0.14075342020E+03  0.14366080431E+03  0.00000000000E+00 0. -1.
        -13    1    3    3    0    0 -0.10177886538E+03  0.69979491103E+02  0.39922259222E+03  0.41789322171E+03  0.00000000000E+00 0.  1.
          2    1    6    6  502    0  0.16222445667E+03  0.12795322676E+03 -0.11137025722E+02  0.20691262871E+03  0.00000000000E+00 0. -1.
          1    1    5    5  503    0 -0.15515078597E+02 -0.67259712930E+02  0.67976128155E+02  0.96877967806E+02  0.00000000000E+00 0. -1.
         -2    1    5    5    0  503 -0.23656220138E+03 -0.27029968385E+03  0.35934040313E+03  0.50808377216E+03  0.00000000000E+00 0.  1.
         -1    1    6    6    0  502  0.17058788644E+03  0.12002923562E+03  0.68765104000E+02  0.21962669221E+03  0.00000000000E+00 0.  1.
<mgrwt>
<rscale>  0 0.12195746E+04</rscale>
<asrwt>0</asrwt>
<pdfrwt beam="1">  1        1 0.43702652E-01 0.12195746E+04</pdfrwt>
<pdfrwt beam="2">  1       -1 0.20138274E+00 0.12195746E+04</pdfrwt>
<totfact> 0.13704568E+01</totfact>
</mgrwt>
</event>
<event>
12    1  0.2083715E-007  0.1941814E+04  0.7818608E-02  0.8634319E-01
         -1   -1    0    0    0  501 -0.00000000000E+00  0.00000000000E+00  0.62645177516E+03  0.62645177516E+03  0.00000000000E+00 0.  1.
          1   -1    0    0  501    0  0.00000000000E+00 -0.00000000000E+00 -0.15047606754E+04  0.15047606754E+04  0.00000000000E+00 0. -1.
         23    2    1    2    0    0  0.38579388953E+03 -0.57291771780E+03 -0.69069061387E+03  0.98093108655E+03  0.90003532739E+02 0.  0.
        254    2    1    2    0    0 -0.38579388953E+03  0.57291771780E+03 -0.18761828637E+03  0.11502813640E+04  0.90048595683E+03 0.  0.
        -24    2    4    4    0    0 -0.23205498884E+03  0.21871991124E+03  0.35210382689E+03  0.48194720990E+03  0.81290164232E+02 0.  0.
         24    2    4    4    0    0 -0.15373890069E+03  0.35419780656E+03 -0.53972211326E+03  0.66833415411E+03  0.79239171198E+02 0.  0.
         13    1    3    3    0    0  0.26064791090E+03 -0.35604200365E+03 -0.49514938727E+03  0.66323160173E+03  0.00000000000E+00 0.  1.
        -13    1    3    3    0    0  0.12514597863E+03 -0.21687571415E+03 -0.19554122660E+03  0.31769948482E+03  0.00000000000E+00 0. -1.
          2    1    6    6  502    0 -0.49206761642E+02  0.20985186605E+03 -0.31048222354E+03  0.37796603314E+03  0.00000000000E+00 0. -1.
          1    1    5    5  503    0 -0.19269620547E+03  0.17020169920E+03  0.23079085382E+03  0.34549220573E+03  0.00000000000E+00 0. -1.
         -2    1    5    5    0  503 -0.39358783370E+02  0.48518212047E+02  0.12131297307E+03  0.13645500417E+03  0.00000000000E+00 0.  1.
         -1    1    6    6    0  502 -0.10453213904E+03  0.14434594051E+03 -0.22923988972E+03  0.29036812097E+03  0.00000000000E+00 0.  1.
<mgrwt>
<rscale>  0 0.19418136E+04</rscale>
<asrwt>0</asrwt>
<pdfrwt beam="1">  1        1 0.23150164E+00 0.19418136E+04</pdfrwt>
<pdfrwt beam="2">  1       -1 0.96377196E-01 0.19418136E+04</pdfrwt>
<totfact> 0.62735886E+00</totfact>
</mgrwt>
</event>
<event>
12    1  0.2083715E-007  0.3216812E+04  0.7818608E-02  0.8184391E-01
         -2   -1    0    0    0  501 -0.00000000000E+00  0.00000000000E+00  0.92683462343E+03  0.92683462343E+03  0.00000000000E+00 0.  1.
          2   -1    0    0  501    0  0.00000000000E+00 -0.00000000000E+00 -0.27911876897E+04  0.27911876897E+04  0.00000000000E+00 0. -1.
         23    2    1    2    0    0  0.81643898135E+03  0.10577387498E+04 -0.12241084040E+03  0.13448806555E+04  0.91300003686E+02 0.  0.
        254    2    1    2    0    0 -0.81643898135E+03 -0.10577387498E+04 -0.17419422258E+04  0.23731416576E+04  0.90114079677E+03 0.  0.
        -24    2    4    4    0    0 -0.90549514758E+02 -0.17799112277E+03  0.73343573672E+02  0.22781014470E+03  0.81474706640E+02 0.  0.
         24    2    4    4    0    0 -0.72588946660E+03 -0.87974762704E+03 -0.18152857995E+04  0.21453315129E+04  0.79456662366E+02 0.  0.
         11    1    3    3    0    0  0.65372531221E+03  0.85569937833E+03 -0.13438683505E+03  0.10851903203E+04  0.00000000000E+00 0. -1.
        -11    1    3    3    0    0  0.16271366914E+03  0.20203937148E+03  0.11975994653E+02  0.25969033521E+03  0.00000000000E+00 0.  1.
          4    1    6    6  502    0 -0.42224841358E+03 -0.54273886736E+03 -0.11559772134E+04  0.13450436866E+04  0.00000000000E+00 0. -1.
          3    1    5    5  503    0 -0.13922999168E+02 -0.11457424888E+03  0.49139267658E+02  0.12544232156E+03  0.00000000000E+00 0. -1.
         -2    1    5    5    0  503 -0.76626515589E+02 -0.63416873893E+02  0.24204306013E+02  0.10236782314E+03  0.00000000000E+00 0.  1.
         -1    1    6    6    0  502 -0.30364105301E+03 -0.33700875968E+03 -0.65930858608E+03  0.80028782625E+03  0.00000000000E+00 0.  1.
<mgrwt>
<rscale>  0 0.32168117E+04</rscale>
<asrwt>0</asrwt>
<pdfrwt beam="1">  1        2 0.42941348E+00 0.32168117E+04</pdfrwt>
<pdfrwt beam="2">  1       -2 0.14258995E+00 0.32168117E+04</pdfrwt>
<totfact> 0.67369036E-01</totfact>
</mgrwt>
</event>
<event>
12    1  0.2083715E-007  0.1069370E+04  0.7818608E-02  0.9235571E-01
         -2   -1    0    0    0  501 -0.00000000000E+00  0.00000000000E+00  0.46271620713E+03  0.46271620713E+03  0.00000000000E+00 0. -1.
          2   -1    0    0  501    0  0.00000000000E+00 -0.00000000000E+00 -0.61784735472E+03  0.61784735472E+03  0.00000000000E+00 0.  1.
         23    2    1    2    0    0 -0.34415680718E+02 -0.12434237081E+03 -0.68943030844E+02  0.17215774274E+03  0.90772697573E+02 0.  0.
        254    2    1    2    0    0  0.34415680718E+02  0.12434237081E+03 -0.86188116744E+02  0.90840581911E+03  0.89505713587E+03 0.  0.
        -24    2    4    4    0    0  0.36585451178E+03 -0.19263122316E+03 -0.13027338531E+03  0.44101185227E+03  0.81018436128E+02 0.  0.
         24    2    4    4    0    0 -0.33143883106E+03  0.31697359397E+03  0.44085268569E+02  0.46739396684E+03  0.78674337168E+02 0.  0.
         11    1    3    3    0    0  0.16549451607E+02 -0.16454111547E+02  0.13654471003E+02  0.27038245388E+02  0.00000000000E+00 0. -1.
        -11    1    3    3    0    0 -0.50965132325E+02 -0.10788825926E+03 -0.82597501847E+02  0.14511949735E+03  0.00000000000E+00 0.  1.
          4    1    6    6  502    0 -0.28925423703E+03  0.24622012318E+03  0.15409648626E+02  0.38017077738E+03  0.00000000000E+00 0. -1.
          3    1    5    5  503    0  0.28660182622E+03 -0.14630227270E+03 -0.64771011771E+02  0.32823809309E+03  0.00000000000E+00 0. -1.
         -4    1    5    5    0  503  0.79252685563E+02 -0.46328950459E+02 -0.65502373542E+02  0.11277375918E+03  0.00000000000E+00 0.  1.
         -3    1    6    6    0  502 -0.42184594029E+02  0.70753470784E+02  0.28675619943E+02  0.87223189465E+02  0.00000000000E+00 0.  1.
<mgrwt>
<rscale>  0 0.10693699E+04</rscale>
<asrwt>0</asrwt>
<pdfrwt beam="1">  1        2 0.95053439E-01 0.10693699E+04</pdfrwt>
<pdfrwt beam="2">  1       -2 0.71187109E-01 0.10693699E+04</pdfrwt>
<totfact> 0.85344741E+01</totfact>
</mgrwt>
</event>
<event>
12    1  0.2083715E-007  0.1847563E+04  0.7818608E-02  0.8681407E-01
          1   -1    0    0  501    0  0.00000000000E+00  0.00000000000E+00  0.21756303168E+04  0.21756303168E+04  0.00000000000E+00 0. -1.
         -1   -1    0    0    0  501 -0.00000000000E+00 -0.00000000000E+00 -0.39224138655E+03  0.39224138655E+03  0.00000000000E+00 0.  1.
         23    2    1    2    0    0 -0.39249696764E+03  0.43759453829E+03  0.12123725821E+04  0.13504780517E+04  0.91656099404E+02 0.  0.
        254    2    1    2    0    0  0.39249696764E+03 -0.43759453829E+03  0.57101634806E+03  0.12173936516E+04  0.90024706817E+03 0.  0.
        -24    2    4    4    0    0  0.64946177757E+03 -0.34272982811E+03  0.23116640250E+03  0.77406361833E+03  0.80450257803E+02 0.  0.
         24    2    4    4    0    0 -0.25696480993E+03 -0.94864710179E+02  0.33984994555E+03  0.44333003330E+03  0.77545510241E+02 0.  0.
         11    1    3    3    0    0 -0.33671313797E+03  0.34086651559E+03  0.91545784196E+03  0.10332612347E+04  0.00000000000E+00 0.  1.
        -11    1    3    3    0    0 -0.55783829671E+02  0.96728022695E+02  0.29691474019E+03  0.31721681697E+03  0.00000000000E+00 0. -1.
          2    1    6    6  502    0 -0.22339195282E+03 -0.72249036929E+02  0.32339173249E+03  0.39963245685E+03  0.00000000000E+00 0. -1.
          1    1    5    5  503    0  0.47645165937E+03 -0.21091730315E+03  0.15508691467E+03  0.54363981053E+03  0.00000000000E+00 0. -1.
         -2    1    5    5    0  503  0.17301011819E+03 -0.13181252496E+03  0.76079487833E+02  0.23042380781E+03  0.00000000000E+00 0.  1.
         -1    1    6    6    0  502 -0.33572857107E+02 -0.22615673250E+02  0.16458213058E+02  0.43697576454E+02  0.00000000000E+00 0.  1.
<mgrwt>
<rscale>  0 0.18475630E+04</rscale>
<asrwt>0</asrwt>
<pdfrwt beam="1">  1        1 0.33471235E+00 0.18475630E+04</pdfrwt>
<pdfrwt beam="2">  1       -1 0.60344830E-01 0.18475630E+04</pdfrwt>
<totfact> 0.59251788E+00</totfact>
</mgrwt>
</event>
<event>
12    1  0.2083715E-007  0.2607697E+04  0.7818608E-02  0.8365592E-01
         -1   -1    0    0    0  501 -0.00000000000E+00  0.00000000000E+00  0.16930814898E+04  0.16930814898E+04  0.00000000000E+00 0.  1.
          1   -1    0    0  501    0  0.00000000000E+00 -0.00000000000E+00 -0.10040984629E+04  0.10040984629E+04  0.00000000000E+00 0. -1.
         23    2    1    2    0    0 -0.51468080518E+03 -0.89468098488E+03  0.82000923844E+03  0.13217015718E+04  0.95548406283E+02 0.  0.
        254    2    1    2    0    0  0.51468080518E+03  0.89468098488E+03 -0.13102621155E+03  0.13754783809E+04  0.89967911622E+03 0.  0.
        -24    2    4    4    0    0  0.12268851577E+02 -0.12309237853E+03 -0.18523145726E+03  0.23630652638E+03  0.78916558971E+02 0.  0.
         24    2    4    4    0    0  0.50241195360E+03  0.10177733634E+04  0.54205245711E+02  0.11391718545E+04  0.80584830989E+02 0.  0.
         11    1    3    3    0    0 -0.19345507217E+03 -0.24917143589E+03  0.25796750150E+03  0.40750276225E+03  0.00000000000E+00 0.  1.
        -11    1    3    3    0    0 -0.32122573300E+03 -0.64550954900E+03  0.56204173694E+03  0.91419880959E+03  0.00000000000E+00 0. -1.
          2    1    6    6  502    0  0.11200810095E+03  0.30608982872E+03  0.25423499947E+02  0.32692988893E+03  0.00000000000E+00 0. -1.
          1    1    5    5  503    0  0.32595907195E+02 -0.32229985350E+02 -0.10030907030E+03  0.11028678391E+03  0.00000000000E+00 0. -1.
         -2    1    5    5    0  503 -0.20327055619E+02 -0.90862393178E+02 -0.84922386961E+02  0.12601974247E+03  0.00000000000E+00 0.  1.
         -1    1    6    6    0  502  0.39040385265E+03  0.71168353469E+03  0.28781745765E+02  0.81224196555E+03  0.00000000000E+00 0.  1.
<mgrwt>
<rscale>  0 0.26076967E+04</rscale>
<asrwt>0</asrwt>
<pdfrwt beam="1">  1        1 0.15447669E+00 0.26076967E+04</pdfrwt>
<pdfrwt beam="2">  1       -1 0.26047408E+00 0.26076967E+04</pdfrwt>
<totfact> 0.78755331E-01</totfact>
</mgrwt>
</event>
<event>
12    1  0.2083715E-007  0.2027425E+04  0.7818608E-02  0.8593905E-01
          2   -1    0    0  501    0  0.00000000000E+00  0.00000000000E+00  0.13821229247E+04  0.13821229247E+04  0.00000000000E+00 0. -1.
         -2   -1    0    0    0  501 -0.00000000000E+00 -0.00000000000E+00 -0.74350356426E+03  0.74350356426E+03  0.00000000000E+00 0.  1.
         23    2    1    2    0    0  0.42247450519E+03  0.51688319094E+03 -0.22173534495E+03  0.71069192018E+03  0.10130894136E+03 0.  0.
        254    2    1    2    0    0 -0.42247450519E+03 -0.51688319094E+03  0.86035470540E+03  0.14149345688E+04  0.90342496878E+03 0.  0.
        -24    2    4    4    0    0 -0.28073733594E+03 -0.76769151467E+03  0.67839615820E+03  0.10650666797E+04  0.77343204664E+02 0.  0.
         24    2    4    4    0    0 -0.14173716925E+03  0.25080832373E+03  0.18195854720E+03  0.34986788906E+03  0.79400166820E+02 0.  0.
         11    1    3    3    0    0  0.77698273650E+02  0.87441115839E+02 -0.80980969787E+02  0.14227047457E+03  0.00000000000E+00 0.  1.
        -11    1    3    3    0    0  0.34477623154E+03  0.42944207510E+03 -0.14075437517E+03  0.56842144561E+03  0.00000000000E+00 0. -1.
          2    1    6    6  502    0 -0.66738458030E+02  0.16698555228E+03  0.14645432271E+03  0.23192038524E+03  0.00000000000E+00 0. -1.
          3    1    5    5  503    0 -0.98320554887E+02 -0.18604728351E+03  0.15091954300E+03  0.25895411114E+03  0.00000000000E+00 0. -1.
         -4    1    5    5    0  503 -0.18241678105E+03 -0.58164423116E+03  0.52747661520E+03  0.80611256858E+03  0.00000000000E+00 0.  1.
         -1    1    6    6    0  502 -0.74998711223E+02  0.83822771457E+02  0.35504224492E+02  0.11794750382E+03  0.00000000000E+00 0.  1.
<mgrwt>
<rscale>  0 0.20274253E+04</rscale>
<asrwt>0</asrwt>
<pdfrwt beam="1">  1        2 0.21263430E+00 0.20274253E+04</pdfrwt>
<pdfrwt beam="2">  1       -2 0.11438516E+00 0.20274253E+04</pdfrwt>
<totfact> 0.82069823E+00</totfact>
</mgrwt>
</event>
<event>
12    1  0.2083715E-007  0.1502648E+04  0.7818608E-02  0.8882694E-01
         -2   -1    0    0    0  501 -0.00000000000E+00  0.00000000000E+00  0.49424886232E+03  0.49424886232E+03  0.00000000000E+00 0.  1.
          2   -1    0    0  501    0  0.00000000000E+00 -0.00000000000E+00 -0.11421127747E+04  0.11421127747E+04  0.00000000000E+00 0. -1.
         23    2    1    2    0    0 -0.56883757952E+02 -0.38953083640E+03  0.85004026349E+02  0.41330309496E+03  0.92864037083E+02 0.  0.
        254    2    1    2    0    0  0.56883757952E+02  0.38953083640E+03 -0.73286793868E+03  0.12230585420E+04  0.89655270188E+03 0.  0.
        -24    2    4    4    0    0 -0.11103811722E+02  0.60902191632E+03 -0.76114677249E+03  0.97813475747E+03  0.79826094046E+02 0.  0.
         24    2    4    4    0    0  0.67987569674E+02 -0.21949107993E+03  0.28278833813E+02  0.24492378455E+03  0.79933247158E+02 0.  0.
         13    1    3    3    0    0 -0.10388039112E+02 -0.21967695080E+03  0.88764118111E+02  0.23716016262E+03  0.00000000000E+00 0.  1.
        -13    1    3    3    0    0 -0.46495718840E+02 -0.16985388560E+03 -0.37600917623E+01  0.17614293234E+03  0.00000000000E+00 0. -1.
          2    1    6    6  502    0  0.62903328846E+02 -0.88587109421E+02 -0.81401465903E+01  0.10895304825E+03  0.00000000000E+00 0. -1.
          3    1    5    5  503    0 -0.10915187634E+02  0.57063139771E+03 -0.67585611702E+03  0.88460207115E+03  0.00000000000E+00 0. -1.
         -4    1    5    5    0  503 -0.18862408819E+00  0.38390518618E+02 -0.85290655469E+02  0.93532686315E+02  0.00000000000E+00 0.  1.
         -1    1    6    6    0  502  0.50842408284E+01 -0.13090397050E+03  0.36418980403E+02  0.13597073631E+03  0.00000000000E+00 0.  1.
<mgrwt>
<rscale>  0 0.15026482E+04</rscale>
<asrwt>0</asrwt>
<pdfrwt beam="1">  1        2 0.17570966E+00 0.15026482E+04</pdfrwt>
<pdfrwt beam="2">  1       -2 0.76038286E-01 0.15026482E+04</pdfrwt>
<totfact> 0.30716433E+01</totfact>
</mgrwt>
</event>
<event>
12    1  0.2083715E-007  0.1509739E+04  0.7818608E-02  0.8878002E-01
          2   -1    0    0  501    0  0.00000000000E+00  0.00000000000E+00  0.11776215813E+04  0.11776215813E+04  0.00000000000E+00 0. -1.
         -2   -1    0    0    0  501 -0.00000000000E+00 -0.00000000000E+00 -0.48388037040E+03  0.48388037040E+03  0.00000000000E+00 0.  1.
         23    2    1    2    0    0  0.13060785224E+03 -0.39949316720E+03  0.48123553418E+03  0.64547680342E+03  0.91648582569E+02 0.  0.
        254    2    1    2    0    0 -0.13060785224E+03  0.39949316720E+03  0.21250567677E+03  0.10160251483E+04  0.90027508999E+03 0.  0.
        -24    2    4    4    0    0  0.21252896620E+03  0.59897825479E+02 -0.24975719332E+03  0.34273221293E+03  0.79563830969E+02 0.  0.
         24    2    4    4    0    0 -0.34313681843E+03  0.33959534172E+03  0.46226287008E+03  0.67329293539E+03  0.81046551438E+02 0.  0.
         11    1    3    3    0    0  0.32231588458E+02 -0.24201868992E+03  0.26050643609E+03  0.35703714766E+03  0.00000000000E+00 0. -1.
        -11    1    3    3    0    0  0.98376263779E+02 -0.15747447728E+03  0.22072909809E+03  0.28843965576E+03  0.00000000000E+00 0.  1.
          2    1    6    6  502    0 -0.21872697448E+01  0.23721759291E+02  0.32290807212E+02  0.40127325393E+02  0.00000000000E+00 0. -1.
          3    1    5    5  503    0  0.10208785793E+02  0.23862990442E+02 -0.48961063940E+02  0.55415227170E+02  0.00000000000E+00 0. -1.
         -4    1    5    5    0  503  0.20232018040E+03  0.36034835036E+02 -0.20079612938E+03  0.28731698576E+03  0.00000000000E+00 0.  1.
         -1    1    6    6    0  502 -0.34094954869E+03  0.31587358243E+03  0.42997206287E+03  0.63316560999E+03  0.00000000000E+00 0.  1.
<mgrwt>
<rscale>  0 0.15097390E+04</rscale>
<asrwt>0</asrwt>
<pdfrwt beam="1">  1        2 0.18117255E+00 0.15097390E+04</pdfrwt>
<pdfrwt beam="2">  1       -2 0.74443134E-01 0.15097390E+04</pdfrwt>
<totfact> 0.30624518E+01</totfact>
</mgrwt>
</event>
<event>
12    1  0.2083715E-007  0.2746941E+04  0.7818608E-02  0.8319933E-01
          1   -1    0    0  501    0  0.00000000000E+00  0.00000000000E+00  0.86882643805E+03  0.86882643805E+03  0.00000000000E+00 0. -1.
         -1   -1    0    0    0  501 -0.00000000000E+00 -0.00000000000E+00 -0.21712288981E+04  0.21712288981E+04  0.00000000000E+00 0.  1.
         23    2    1    2    0    0 -0.18567947590E+03 -0.80235819373E+03  0.42053067024E+03  0.92953612597E+03  0.94529498351E+02 0.  0.
        254    2    1    2    0    0  0.18567947590E+03  0.80235819373E+03 -0.17229331303E+04  0.21105192102E+04  0.89863075080E+03 0.  0.
        -24    2    4    4    0    0  0.39781861281E+03  0.78081839736E+03 -0.90833987394E+03  0.12647437124E+04  0.80983412807E+02 0.  0.
         24    2    4    4    0    0 -0.21213913691E+03  0.21539796365E+02 -0.81459325637E+03  0.84577549778E+03  0.79416894254E+02 0.  0.
         13    1    3    3    0    0 -0.11682859867E+03 -0.37317938958E+03  0.15809529022E+03  0.42178892715E+03  0.00000000000E+00 0.  1.
        -13    1    3    3    0    0 -0.68850877226E+02 -0.42917880415E+03  0.26243538002E+03  0.50774719882E+03  0.00000000000E+00 0. -1.
          4    1    6    6  502    0  0.22810619182E+01  0.12283755929E+02 -0.58035691893E+02  0.59365271302E+02  0.00000000000E+00 0. -1.
          1    1    5    5  503    0  0.11430833900E+03  0.15167690251E+03 -0.19016730951E+03  0.26876734312E+03  0.00000000000E+00 0. -1.
         -2    1    5    5    0  503  0.28351027380E+03  0.62914149485E+03 -0.71817256444E+03  0.99597636930E+03  0.00000000000E+00 0.  1.
         -3    1    6    6    0  502 -0.21442019882E+03  0.92560404364E+01 -0.75655756448E+03  0.78641022648E+03  0.00000000000E+00 0.  1.
<mgrwt>
<rscale>  0 0.27469409E+04</rscale>
<asrwt>0</asrwt>
<pdfrwt beam="1">  1        1 0.13366560E+00 0.27469409E+04</pdfrwt>
<pdfrwt beam="2">  1       -1 0.33403522E+00 0.27469409E+04</pdfrwt>
<totfact> 0.33260772E-01</totfact>
</mgrwt>
</event>
<event>
12    1  0.2083715E-007  0.1525063E+04  0.7818608E-02  0.8867955E-01
          1   -1    0    0  501    0  0.00000000000E+00  0.00000000000E+00  0.11017582541E+04  0.11017582541E+04  0.00000000000E+00 0. -1.
         -1   -1    0    0    0  501 -0.00000000000E+00 -0.00000000000E+00 -0.52775147262E+03  0.52775147262E+03  0.00000000000E+00 0.  1.
         23    2    1    2    0    0 -0.28468457858E+03 -0.36743446480E+03  0.35600256779E+03  0.59272660375E+03  0.92377504379E+02 0.  0.
        254    2    1    2    0    0  0.28468457858E+03  0.36743446480E+03  0.21800421373E+03  0.10367831230E+04  0.90074414333E+03 0.  0.
        -24    2    4    4    0    0 -0.27158776148E+03  0.85203341941E+02 -0.12545482073E+03  0.32088221034E+03  0.78784257323E+02 0.  0.
         24    2    4    4    0    0  0.55627234006E+03  0.28223112286E+03  0.34345903446E+03  0.71590091267E+03  0.73869380596E+02 0.  0.
         13    1    3    3    0    0 -0.22981992101E+03 -0.23767791088E+03  0.22155489662E+03  0.39798813755E+03  0.00000000000E+00 0.  1.
        -13    1    3    3    0    0 -0.54864657569E+02 -0.12975655393E+03  0.13444767116E+03  0.19473846620E+03  0.00000000000E+00 0. -1.
          2    1    6    6  502    0  0.22049111070E+03  0.96408037447E+02  0.94977711910E+02  0.25871143257E+03  0.00000000000E+00 0. -1.
          3    1    5    5  503    0 -0.12720123410E+02 -0.94272104279E+01  0.40635523010E+01  0.16345834127E+02  0.00000000000E+00 0. -1.
         -4    1    5    5    0  503 -0.25886763807E+03  0.94630552369E+02 -0.12951837303E+03  0.30453637621E+03  0.00000000000E+00 0.  1.
         -1    1    6    6    0  502  0.33578122935E+03  0.18582308542E+03  0.24848132255E+03  0.45718948010E+03  0.00000000000E+00 0.  1.
<mgrwt>
<rscale>  0 0.15250633E+04</rscale>
<asrwt>0</asrwt>
<pdfrwt beam="1">  1        1 0.16950127E+00 0.15250633E+04</pdfrwt>
<pdfrwt beam="2">  1       -1 0.81192534E-01 0.15250633E+04</pdfrwt>
<totfact> 0.18445082E+01</totfact>
</mgrwt>
</event>
<event>
12    1  0.2083715E-007  0.1876626E+04  0.7818608E-02  0.8666580E-01
          1   -1    0    0  501    0  0.00000000000E+00  0.00000000000E+00  0.64669327262E+03  0.64669327262E+03  0.00000000000E+00 0. -1.
         -1   -1    0    0    0  501 -0.00000000000E+00 -0.00000000000E+00 -0.13614350071E+04  0.13614350071E+04  0.00000000000E+00 0.  1.
         23    2    1    2    0    0 -0.66638611040E+03  0.23808800924E+03 -0.16296190170E+03  0.73160295825E+03  0.89050316319E+02 0.  0.
        254    2    1    2    0    0  0.66638611040E+03 -0.23808800924E+03 -0.55177983283E+03  0.12765253215E+04  0.90790944718E+03 0.  0.
        -24    2    4    4    0    0  0.51878454572E+03 -0.54284591437E+03 -0.54006821303E+03  0.92845848969E+03  0.80885108099E+02 0.  0.
         24    2    4    4    0    0  0.14760156468E+03  0.30475790513E+03 -0.11711619802E+02  0.34806683183E+03  0.79685348373E+02 0.  0.
         11    1    3    3    0    0 -0.18451742720E+03  0.70232281025E+02 -0.51858779322E+01  0.19749974068E+03  0.00000000000E+00 0. -1.
        -11    1    3    3    0    0 -0.48186868320E+03  0.16785572821E+03 -0.15777602376E+03  0.53410321757E+03  0.00000000000E+00 0.  1.
          4    1    6    6  502    0  0.15152651967E+03  0.27322124232E+03  0.43546707524E+01  0.31245655150E+03  0.00000000000E+00 0. -1.
          1    1    5    5  503    0  0.25656832774E+03 -0.25663182279E+03 -0.30970794687E+03  0.47708092775E+03  0.00000000000E+00 0. -1.
         -2    1    5    5    0  503  0.26221621798E+03 -0.28621409159E+03 -0.23036026616E+03  0.45137756194E+03  0.00000000000E+00 0.  1.
         -3    1    6    6    0  502 -0.39249549898E+01  0.31536662814E+02 -0.16066290554E+02  0.35610280332E+02  0.00000000000E+00 0.  1.
<mgrwt>
<rscale>  0 0.18766255E+04</rscale>
<asrwt>0</asrwt>
<pdfrwt beam="1">  1        1 0.99491274E-01 0.18766255E+04</pdfrwt>
<pdfrwt beam="2">  1       -1 0.20945154E+00 0.18766255E+04</pdfrwt>
<totfact> 0.37297765E+00</totfact>
</mgrwt>
</event>
<event>
12    1  0.2083715E-007  0.1646195E+04  0.7818608E-02  0.8792661E-01
         -2   -1    0    0    0  501 -0.00000000000E+00  0.00000000000E+00  0.36316986732E+03  0.36316986732E+03  0.00000000000E+00 0.  1.
          2   -1    0    0  501    0  0.00000000000E+00 -0.00000000000E+00 -0.18654888069E+04  0.18654888069E+04  0.00000000000E+00 0. -1.
         23    2    1    2    0    0  0.25813013902E+03  0.14682252268E+03 -0.11899039411E+04  0.12296762994E+04  0.89690526209E+02 0.  0.
        254    2    1    2    0    0 -0.25813013902E+03 -0.14682252268E+03 -0.31241499851E+03  0.99898237481E+03  0.90120731913E+03 0.  0.
        -24    2    4    4    0    0  0.28575520577E+03  0.13349613109E+03 -0.53875820974E+02  0.32976310582E+03  0.79773725204E+02 0.  0.
         24    2    4    4    0    0 -0.54388534479E+03 -0.28031865378E+03 -0.25853917753E+03  0.66921926899E+03  0.81376334032E+02 0.  0.
         13    1    3    3    0    0  0.20906704704E+03  0.72951910087E+02 -0.83504067179E+03  0.86390041954E+03  0.00000000000E+00 0.  1.
        -13    1    3    3    0    0  0.49063091979E+02  0.73870612596E+02 -0.35486326933E+03  0.36577587990E+03  0.00000000000E+00 0. -1.
          4    1    6    6  502    0 -0.39973590970E+02 -0.27370028556E+02 -0.45550156304E+02  0.66496790731E+02  0.00000000000E+00 0. -1.
          3    1    5    5  503    0  0.17958135557E+03  0.66762423422E+02  0.40363356313E+01  0.19163239928E+03  0.00000000000E+00 0. -1.
         -2    1    5    5    0  503  0.10617385020E+03  0.66733707671E+02 -0.57912156605E+02  0.13813070654E+03  0.00000000000E+00 0.  1.
         -3    1    6    6    0  502 -0.50391175382E+03 -0.25294862522E+03 -0.21298902123E+03  0.60272247826E+03  0.00000000000E+00 0.  1.
<mgrwt>
<rscale>  0 0.16461948E+04</rscale>
<asrwt>0</asrwt>
<pdfrwt beam="1">  1        2 0.28699828E+00 0.16461948E+04</pdfrwt>
<pdfrwt beam="2">  1       -2 0.55872287E-01 0.16461948E+04</pdfrwt>
<totfact> 0.22814282E+01</totfact>
</mgrwt>
</event>
<event>
12    1  0.2083715E-007  0.1155165E+04  0.7818608E-02  0.9153032E-01
          1   -1    0    0  501    0  0.00000000000E+00  0.00000000000E+00  0.82673911407E+03  0.82673911407E+03  0.00000000000E+00 0. -1.
         -1   -1    0    0    0  501 -0.00000000000E+00 -0.00000000000E+00 -0.40351497853E+03  0.40351497853E+03  0.00000000000E+00 0.  1.
         23    2    1    2    0    0  0.43697319640E+02 -0.20150850249E+03  0.14134291851E+03  0.26684604906E+03  0.93348063550E+02 0.  0.
        254    2    1    2    0    0 -0.43697319640E+02  0.20150850249E+03  0.28188121703E+03  0.96340804354E+03  0.89787688773E+03 0.  0.
        -24    2    4    4    0    0  0.32496138948E+03  0.37814966538E+03  0.15228373070E+03  0.52708245633E+03  0.77643461137E+02 0.  0.
         24    2    4    4    0    0 -0.36865870912E+03 -0.17664116288E+03  0.12959748634E+03  0.43632558721E+03  0.80455983961E+02 0.  0.
         11    1    3    3    0    0  0.74749542199E+01 -0.58470470075E+02  0.95695288455E+02  0.11239332295E+03  0.00000000000E+00 0. -1.
        -11    1    3    3    0    0  0.36222365420E+02 -0.14303803242E+03  0.45647630051E+02  0.15445272611E+03  0.00000000000E+00 0.  1.
          2    1    6    6  502    0 -0.19610142079E+03 -0.65193434547E+02  0.32791440502E+02  0.20923964662E+03  0.00000000000E+00 0. -1.
          1    1    5    5  503    0  0.18662353458E+03  0.16536622817E+03  0.95484823358E+02  0.26700502723E+03  0.00000000000E+00 0. -1.
         -2    1    5    5    0  503  0.13833785490E+03  0.21278343721E+03  0.56798907337E+02  0.26007742909E+03  0.00000000000E+00 0.  1.
         -1    1    6    6    0  502 -0.17255728833E+03 -0.11144772834E+03  0.96806045837E+02  0.22708594060E+03  0.00000000000E+00 0.  1.
<mgrwt>
<rscale>  0 0.11551651E+04</rscale>
<asrwt>0</asrwt>
<pdfrwt beam="1">  1        1 0.12719063E+00 0.11551651E+04</pdfrwt>
<pdfrwt beam="2">  1       -1 0.62079228E-01 0.11551651E+04</pdfrwt>
<totfact> 0.54780777E+01</totfact>
</mgrwt>
</event>
<event>
12    1  0.2083715E-007  0.2502936E+04  0.7818608E-02  0.8401940E-01
         -1   -1    0    0    0  501 -0.00000000000E+00  0.00000000000E+00  0.14443461366E+04  0.14443461366E+04  0.00000000000E+00 0.  1.
          1   -1    0    0  501    0  0.00000000000E+00 -0.00000000000E+00 -0.10843467277E+04  0.10843467277E+04  0.00000000000E+00 0. -1.
         23    2    1    2    0    0  0.22938716228E+03  0.89603005327E+03  0.73502879957E+03  0.11849951327E+04  0.91966308215E+02 0.  0.
        254    2    1    2    0    0 -0.22938716228E+03 -0.89603005327E+03 -0.37502939062E+03  0.13436977315E+04  0.89966005986E+03 0.  0.
        -24    2    4    4    0    0 -0.38462513115E+00  0.13872615100E+03  0.88943130271E+02  0.18425167473E+03  0.82417876159E+02 0.  0.
         24    2    4    4    0    0 -0.22900253715E+03 -0.10347562043E+04 -0.46397252090E+03  0.11594460568E+04  0.76694811965E+02 0.  0.
         11    1    3    3    0    0  0.20092322325E+03  0.63516942591E+03  0.55032628240E+03  0.86410031730E+03  0.00000000000E+00 0.  1.
        -11    1    3    3    0    0  0.28463939027E+02  0.26086062736E+03  0.18470251717E+03  0.32089481545E+03  0.00000000000E+00 0. -1.
          2    1    6    6  502    0 -0.18420370330E+03 -0.81362125588E+03 -0.33050087044E+03  0.89729670549E+03  0.00000000000E+00 0. -1.
          1    1    5    5  503    0 -0.61998444575E+01  0.11475322313E+03  0.10429981522E+03  0.15519404546E+03  0.00000000000E+00 0. -1.
         -2    1    5    5    0  503  0.58152193263E+01  0.23972927868E+02 -0.15356684948E+02  0.29057629273E+02  0.00000000000E+00 0.  1.
         -1    1    6    6    0  502 -0.44798833848E+02 -0.22113494839E+03 -0.13347165046E+03  0.26214935131E+03  0.00000000000E+00 0.  1.
<mgrwt>
<rscale>  0 0.25029359E+04</rscale>
<asrwt>0</asrwt>
<pdfrwt beam="1">  1        1 0.16682257E+00 0.25029359E+04</pdfrwt>
<pdfrwt beam="2">  1       -1 0.22220710E+00 0.25029359E+04</pdfrwt>
<totfact> 0.12308791E+00</totfact>
</mgrwt>
</event>
<event>
12    1  0.2083715E-007  0.1948545E+04  0.7818608E-02  0.8631063E-01
          2   -1    0    0  501    0  0.00000000000E+00  0.00000000000E+00  0.22899080652E+04  0.22899080652E+04  0.00000000000E+00 0.  1.
         -2   -1    0    0    0  501 -0.00000000000E+00 -0.00000000000E+00 -0.41451737723E+03  0.41451737723E+03  0.00000000000E+00 0. -1.
         23    2    1    2    0    0  0.24728251878E+03  0.70535548654E+03  0.95053397938E+03  0.12126522661E+04  0.91299869084E+02 0.  0.
        254    2    1    2    0    0 -0.24728251878E+03 -0.70535548654E+03  0.92485670862E+03  0.14917731763E+04  0.90075094875E+03 0.  0.
        -24    2    4    4    0    0 -0.53606319586E+03 -0.20000212245E+03  0.52846719176E+03  0.78296995621E+03  0.79998628851E+02 0.  0.
         24    2    4    4    0    0  0.28878067708E+03 -0.50535336409E+03  0.39638951686E+03  0.70880322013E+03  0.80629112228E+02 0.  0.
         13    1    3    3    0    0  0.21875446791E+03  0.67813201077E+03  0.91371196863E+03  0.11587001782E+04  0.00000000000E+00 0.  1.
        -13    1    3    3    0    0  0.28528050871E+02  0.27223475772E+02  0.36822010745E+02  0.53952087957E+02  0.00000000000E+00 0. -1.
          4    1    6    6  502    0  0.84290384250E+02 -0.18099394827E+03  0.95077224445E+02  0.22114103372E+03  0.00000000000E+00 0. -1.
          3    1    5    5  503    0 -0.17989155185E+02  0.67771067336E+01  0.11297715933E+02  0.22297472172E+02  0.00000000000E+00 0. -1.
         -2    1    5    5    0  503 -0.51807404067E+03 -0.20677922919E+03  0.51716947583E+03  0.76067248403E+03  0.00000000000E+00 0.  1.
         -3    1    6    6    0  502  0.20449029283E+03 -0.32435941582E+03  0.30131229242E+03  0.48766218641E+03  0.00000000000E+00 0.  1.
<mgrwt>
<rscale>  0 0.19485448E+04</rscale>
<asrwt>0</asrwt>
<pdfrwt beam="1">  1        2 0.35229354E+00 0.19485448E+04</pdfrwt>
<pdfrwt beam="2">  1       -2 0.63771905E-01 0.19485448E+04</pdfrwt>
<totfact> 0.97496551E+00</totfact>
</mgrwt>
</event>
<event>
12    1  0.2083715E-007  0.2077359E+04  0.7818608E-02  0.8571283E-01
         -2   -1    0    0    0  501 -0.00000000000E+00  0.00000000000E+00  0.40853780040E+03  0.40853780040E+03  0.00000000000E+00 0.  1.
          2   -1    0    0  501    0  0.00000000000E+00 -0.00000000000E+00 -0.26407722192E+04  0.26407722192E+04  0.00000000000E+00 0. -1.
         23    2    1    2    0    0  0.14270931884E+03 -0.73835040173E+03 -0.35928129425E+03  0.83840131035E+03  0.91139691585E+02 0.  0.
        254    2    1    2    0    0 -0.14270931884E+03  0.73835040173E+03 -0.18729531246E+04  0.22109087093E+04  0.90257224003E+03 0.  0.
        -24    2    4    4    0    0  0.11423583351E+03  0.72563625802E+03 -0.73855405786E+03  0.10449859103E+04  0.83280560949E+02 0.  0.
         24    2    4    4    0    0 -0.25694515235E+03  0.12714143705E+02 -0.11343990667E+04  0.11659227989E+04  0.79575559887E+02 0.  0.
         11    1    3    3    0    0  0.14694486729E+03 -0.57648544421E+03 -0.29679245228E+03  0.66484135035E+03  0.00000000000E+00 0.  1.
        -11    1    3    3    0    0 -0.42355484531E+01 -0.16186495752E+03 -0.62488841970E+02  0.17355996000E+03  0.00000000000E+00 0. -1.
          2    1    6    6  502    0 -0.21909076781E+03  0.38481459678E+02 -0.89903652219E+03  0.92614699455E+03  0.00000000000E+00 0. -1.
          3    1    5    5  503    0  0.95202402645E+02  0.68861478497E+03 -0.71464303285E+03  0.99697968081E+03  0.00000000000E+00 0. -1.
         -4    1    5    5    0  503  0.19033430864E+02  0.37021473050E+02 -0.23911025009E+02  0.48006229536E+02  0.00000000000E+00 0.  1.
         -1    1    6    6    0  502 -0.37854384539E+02 -0.25767315972E+02 -0.23536254450E+03  0.23977580435E+03  0.00000000000E+00 0.  1.
<mgrwt>
<rscale>  0 0.20773592E+04</rscale>
<asrwt>0</asrwt>
<pdfrwt beam="1">  1        2 0.40627266E+00 0.20773592E+04</pdfrwt>
<pdfrwt beam="2">  1       -2 0.62851967E-01 0.20773592E+04</pdfrwt>
<totfact> 0.62417774E+00</totfact>
</mgrwt>
</event>
<event>
12    1  0.2083715E-007  0.3279684E+04  0.7818608E-02  0.8168084E-01
          2   -1    0    0  501    0  0.00000000000E+00  0.00000000000E+00  0.16903196661E+04  0.16903196661E+04  0.00000000000E+00 0.  1.
         -2   -1    0    0    0  501 -0.00000000000E+00 -0.00000000000E+00 -0.15908717029E+04  0.15908717029E+04  0.00000000000E+00 0. -1.
         23    2    1    2    0    0 -0.55861204197E+03  0.13035278116E+04 -0.48839570842E+03  0.15027169747E+04  0.91628428160E+02 0.  0.
        254    2    1    2    0    0  0.55861204197E+03 -0.13035278116E+04  0.58784367164E+03  0.17784743943E+04  0.89787461250E+03 0.  0.
        -24    2    4    4    0    0  0.75539282395E+03 -0.69006196365E+03  0.41486091253E+03  0.11068644213E+04  0.78964790585E+02 0.  0.
         24    2    4    4    0    0 -0.19678078198E+03 -0.61346584798E+03  0.17298275910E+03  0.67160997304E+03  0.77935217603E+02 0.  0.
         11    1    3    3    0    0 -0.39699428320E+03  0.10196200456E+04 -0.38838049692E+03  0.11610636971E+04  0.00000000000E+00 0. -1.
        -11    1    3    3    0    0 -0.16161775877E+03  0.28390776604E+03 -0.10001521149E+03  0.34165327761E+03  0.00000000000E+00 0.  1.
          4    1    6    6  502    0 -0.15101642036E+03 -0.52896252713E+03  0.16882220843E+03  0.57542006602E+03  0.00000000000E+00 0. -1.
          1    1    5    5  503    0  0.44459185899E+03 -0.43605410368E+03  0.21800156769E+03  0.65979526062E+03  0.00000000000E+00 0. -1.
         -2    1    5    5    0  503  0.31080096496E+03 -0.25400785997E+03  0.19685934484E+03  0.44706916064E+03  0.00000000000E+00 0.  1.
         -3    1    6    6    0  502 -0.45764361623E+02 -0.84503320850E+02  0.41605506775E+01  0.96189907014E+02  0.00000000000E+00 0.  1.
<mgrwt>
<rscale>  0 0.32796840E+04</rscale>
<asrwt>0</asrwt>
<pdfrwt beam="1">  1        2 0.26004918E+00 0.32796840E+04</pdfrwt>
<pdfrwt beam="2">  1       -2 0.24474949E+00 0.32796840E+04</pdfrwt>
<totfact> 0.57513243E-01</totfact>
</mgrwt>
</event>
<event>
12    1  0.2083715E-007  0.1444613E+04  0.7818608E-02  0.8922144E-01
          2   -1    0    0  501    0  0.00000000000E+00  0.00000000000E+00  0.15497776562E+04  0.15497776562E+04  0.00000000000E+00 0. -1.
         -2   -1    0    0    0  501 -0.00000000000E+00 -0.00000000000E+00 -0.33664625928E+03  0.33664625928E+03  0.00000000000E+00 0.  1.
         23    2    1    2    0    0  0.29235947408E+03  0.20009079720E+03  0.42150248835E+02  0.36827241808E+03  0.91310137619E+02 0.  0.
        254    2    1    2    0    0 -0.29235947408E+03 -0.20009079720E+03  0.11709811481E+04  0.15181514974E+04  0.89893088206E+03 0.  0.
        -24    2    4    4    0    0 -0.11441254574E+03 -0.53698725162E+03  0.84287933245E+03  0.10091641706E+04  0.80754040813E+02 0.  0.
         24    2    4    4    0    0 -0.17794692834E+03  0.33689645442E+03  0.32810181567E+03  0.50898732685E+03  0.79075705110E+02 0.  0.
         13    1    3    3    0    0  0.21763732059E+03  0.15929301898E+03 -0.73295063635E+01  0.26980361539E+03  0.00000000000E+00 0.  1.
        -13    1    3    3    0    0  0.74722153485E+02  0.40797778214E+02  0.49479755198E+02  0.98468802690E+02  0.00000000000E+00 0. -1.
          2    1    6    6  502    0 -0.44355280310E+02  0.27997850321E+02  0.48678430694E+02  0.71560185360E+02  0.00000000000E+00 0. -1.
          3    1    5    5  503    0  0.88361855949E+01 -0.85489062364E+01  0.20315608110E+02  0.23746281953E+02  0.00000000000E+00 0. -1.
         -4    1    5    5    0  503 -0.12324873134E+03 -0.52843834539E+03  0.82256372434E+03  0.98541788864E+03  0.00000000000E+00 0.  1.
         -1    1    6    6    0  502 -0.13359164803E+03  0.30889860410E+03  0.27942338498E+03  0.43742714149E+03  0.00000000000E+00 0.  1.
<mgrwt>
<rscale>  0 0.14446132E+04</rscale>
<asrwt>0</asrwt>
<pdfrwt beam="1">  1        2 0.23842733E+00 0.14446132E+04</pdfrwt>
<pdfrwt beam="2">  1       -2 0.51791733E-01 0.14446132E+04</pdfrwt>
<totfact> 0.40637060E+01</totfact>
</mgrwt>
</event>
<event>
12    1  0.2083715E-007  0.3429156E+04  0.7818608E-02  0.8130787E-01
          2   -1    0    0  501    0  0.00000000000E+00  0.00000000000E+00  0.19553839735E+04  0.19553839735E+04  0.00000000000E+00 0. -1.
         -2   -1    0    0    0  501 -0.00000000000E+00 -0.00000000000E+00 -0.15034270445E+04  0.15034270445E+04  0.00000000000E+00 0.  1.
         23    2    1    2    0    0  0.14156368180E+04  0.59129937295E+03 -0.22937054757E+03  0.15538697744E+04  0.90762761009E+02 0.  0.
        254    2    1    2    0    0 -0.14156368180E+04 -0.59129937295E+03  0.68132747660E+03  0.19049412437E+04  0.90051733059E+03 0.  0.
        -24    2    4    4    0    0 -0.13208170631E+04 -0.50664199944E+03  0.23753378440E+03  0.14367959055E+04  0.81953314196E+02 0.  0.
         24    2    4    4    0    0 -0.94819754887E+02 -0.84657373503E+02  0.44379369221E+03  0.46814533815E+03  0.77778914780E+02 0.  0.
         11    1    3    3    0    0  0.57881979728E+03  0.26111652142E+03 -0.53530792718E+02  0.63724386325E+03  0.00000000000E+00 0.  1.
        -11    1    3    3    0    0  0.83681702069E+03  0.33018285153E+03 -0.17583975485E+03  0.91662591113E+03  0.00000000000E+00 0. -1.
          2    1    6    6  502    0 -0.83585660359E+02 -0.73419113064E+02  0.24922226306E+03  0.27292611672E+03  0.00000000000E+00 0. -1.
          1    1    5    5  503    0 -0.35041769406E+03 -0.10423946891E+03  0.38900108503E+02  0.36765696733E+03  0.00000000000E+00 0. -1.
         -2    1    5    5    0  503 -0.97039936903E+03 -0.40240253053E+03  0.19863367589E+03  0.10691389382E+04  0.00000000000E+00 0.  1.
         -3    1    6    6    0  502 -0.11234094527E+02 -0.11238260440E+02  0.19457142914E+03  0.19521922143E+03  0.00000000000E+00 0.  1.
<mgrwt>
<rscale>  0 0.34291557E+04</rscale>
<asrwt>0</asrwt>
<pdfrwt beam="1">  1        2 0.30082830E+00 0.34291557E+04</pdfrwt>
<pdfrwt beam="2">  1       -2 0.23129647E+00 0.34291557E+04</pdfrwt>
<totfact> 0.49065410E-01</totfact>
</mgrwt>
</event>
<event>
12    1  0.2083715E-007  0.1560445E+04  0.7818608E-02  0.8845224E-01
          1   -1    0    0  501    0  0.00000000000E+00  0.00000000000E+00  0.10282029250E+04  0.10282029250E+04  0.00000000000E+00 0. -1.
         -1   -1    0    0    0  501 -0.00000000000E+00 -0.00000000000E+00 -0.59204931036E+03  0.59204931036E+03  0.00000000000E+00 0.  1.
         23    2    1    2    0    0 -0.30718362845E+03 -0.23051961387E+03  0.50336738980E+03  0.63970906930E+03  0.91366789653E+02 0.  0.
        254    2    1    2    0    0  0.30718362845E+03  0.23051961387E+03 -0.67213775197E+02  0.98054316603E+03  0.89969224455E+03 0.  0.
        -24    2    4    4    0    0  0.29913047566E+03  0.31645790528E+03 -0.41924360182E+03  0.60948657246E+03  0.78000237505E+02 0.  0.
         24    2    4    4    0    0  0.80531527918E+01 -0.85938291404E+02  0.35202982663E+03  0.37105659357E+03  0.79421367410E+02 0.  0.
         11    1    3    3    0    0 -0.28925030620E+03 -0.18321779181E+03  0.41635734554E+03  0.53906209109E+03  0.00000000000E+00 0.  1.
        -11    1    3    3    0    0 -0.17933322252E+02 -0.47301822068E+02  0.87010044270E+02  0.10064697821E+03  0.00000000000E+00 0. -1.
          4    1    6    6  502    0 -0.15674080310E+01  0.15314055657E+02  0.53887633815E+02  0.56043323838E+02  0.00000000000E+00 0. -1.
          1    1    5    5  503    0  0.37246293870E+01  0.25542083140E+02 -0.39936125425E+02  0.47551708583E+02  0.00000000000E+00 0. -1.
         -2    1    5    5    0  503  0.29540584627E+03  0.29091582214E+03 -0.37930747640E+03  0.56193486387E+03  0.00000000000E+00 0.  1.
         -3    1    6    6    0  502  0.96205608228E+01 -0.10125234706E+03  0.29814219281E+03  0.31501326974E+03  0.00000000000E+00 0.  1.
<mgrwt>
<rscale>  0 0.15604446E+04</rscale>
<asrwt>0</asrwt>
<pdfrwt beam="1">  1        1 0.15818507E+00 0.15604446E+04</pdfrwt>
<pdfrwt beam="2">  1       -1 0.91084509E-01 0.15604446E+04</pdfrwt>
<totfact> 0.16292821E+01</totfact>
</mgrwt>
</event>
<event>
12    1  0.2083715E-007  0.1625553E+04  0.7818608E-02  0.8805002E-01
         -1   -1    0    0    0  501 -0.00000000000E+00  0.00000000000E+00  0.35119268423E+03  0.35119268423E+03  0.00000000000E+00 0.  1.
          1   -1    0    0  501    0  0.00000000000E+00 -0.00000000000E+00 -0.18810336581E+04  0.18810336581E+04  0.00000000000E+00 0. -1.
         23    2    1    2    0    0  0.34511255770E+03  0.13578685648E+03 -0.11051979045E+04  0.11689690997E+04  0.86519361284E+02 0.  0.
        254    2    1    2    0    0 -0.34511255770E+03 -0.13578685648E+03 -0.42464306931E+03  0.10632572426E+04  0.90147295015E+03 0.  0.
        -24    2    4    4    0    0 -0.14859329796E+03  0.38056031425E+03 -0.17513644926E+03  0.45169318558E+03  0.80298425016E+02 0.  0.
         24    2    4    4    0    0 -0.19651925973E+03 -0.51634717073E+03 -0.24950662005E+03  0.61156405707E+03  0.80763991283E+02 0.  0.
         13    1    3    3    0    0  0.28477986552E+03  0.11927610500E+03 -0.10000103856E+04  0.10465883299E+04  0.00000000000E+00 0. -1.
        -13    1    3    3    0    0  0.60332692171E+02  0.16510751477E+02 -0.10518751897E+03  0.12238076975E+03  0.00000000000E+00 0.  1.
          2    1    6    6  502    0 -0.16521183589E+03 -0.47414225918E+03 -0.24537920864E+03  0.55885310117E+03  0.00000000000E+00 0. -1.
          1    1    5    5  503    0 -0.91295677372E+02  0.13217147973E+03 -0.81488034393E+02  0.18012357012E+03  0.00000000000E+00 0. -1.
         -2    1    5    5    0  503 -0.57297620590E+02  0.24838883451E+03 -0.93648414868E+02  0.27156961546E+03  0.00000000000E+00 0.  1.
         -1    1    6    6    0  502 -0.31307423848E+02 -0.42204911545E+02 -0.41274114077E+01  0.52710955895E+02  0.00000000000E+00 0.  1.
<mgrwt>
<rscale>  0 0.16255525E+04</rscale>
<asrwt>0</asrwt>
<pdfrwt beam="1">  1        1 0.28938979E+00 0.16255525E+04</pdfrwt>
<pdfrwt beam="2">  1       -1 0.54029643E-01 0.16255525E+04</pdfrwt>
<totfact> 0.11887258E+01</totfact>
</mgrwt>
</event>
<event>
12    1  0.2083715E-007  0.1652738E+04  0.7818608E-02  0.8788788E-01
         -2   -1    0    0    0  501 -0.00000000000E+00  0.00000000000E+00  0.10926089194E+04  0.10926089194E+04  0.00000000000E+00 0.  1.
          2   -1    0    0  501    0  0.00000000000E+00 -0.00000000000E+00 -0.62500493787E+03  0.62500493787E+03  0.00000000000E+00 0. -1.
         23    2    1    2    0    0  0.18931018187E+03 -0.44198950189E+03  0.49789680109E+03  0.69813910280E+03  0.91125833785E+02 0.  0.
        254    2    1    2    0    0 -0.18931018187E+03  0.44198950189E+03 -0.30292819563E+02  0.10194747545E+04  0.89845314588E+03 0.  0.
        -24    2    4    4    0    0 -0.35680210793E+03 -0.81183654685E+02  0.19278116858E+03  0.42135055533E+03  0.80456084315E+02 0.  0.
         24    2    4    4    0    0  0.16749192606E+03  0.52317315658E+03 -0.22307398815E+03  0.59812419914E+03  0.78910432430E+02 0.  0.
         11    1    3    3    0    0  0.11817368572E+03 -0.23318063000E+03  0.32956330016E+03  0.42065448412E+03  0.00000000000E+00 0.  1.
        -11    1    3    3    0    0  0.71136496156E+02 -0.20880887190E+03  0.16833350093E+03  0.27748461868E+03  0.00000000000E+00 0. -1.
          2    1    6    6  502    0  0.47961364573E+02  0.13383999062E+03 -0.95774609847E+02  0.17142406911E+03  0.00000000000E+00 0. -1.
          1    1    5    5  503    0 -0.37044686043E+01  0.93089233915E+01  0.70470655689E+01  0.12249092843E+02  0.00000000000E+00 0. -1.
         -2    1    5    5    0  503 -0.35309763933E+03 -0.90492578077E+02  0.18573410301E+03  0.40910146249E+03  0.00000000000E+00 0.  1.
         -3    1    6    6    0  502  0.11953056149E+03  0.38933316596E+03 -0.12729937830E+03  0.42670013002E+03  0.00000000000E+00 0.  1.
<mgrwt>
<rscale>  0 0.16527383E+04</rscale>
<asrwt>0</asrwt>
<pdfrwt beam="1">  1        2 0.96154606E-01 0.16527383E+04</pdfrwt>
<pdfrwt beam="2">  1       -2 0.16809368E+00 0.16527383E+04</pdfrwt>
<totfact> 0.99031839E+00</totfact>
</mgrwt>
</event>
<event>
12    1  0.2083715E-007  0.1443681E+04  0.7818608E-02  0.8922793E-01
          2   -1    0    0  501    0  0.00000000000E+00  0.00000000000E+00  0.11152089747E+04  0.11152089747E+04  0.00000000000E+00 0.  1.
         -2   -1    0    0    0  501 -0.00000000000E+00 -0.00000000000E+00 -0.46722529272E+03  0.46722529272E+03  0.00000000000E+00 0. -1.
         23    2    1    2    0    0 -0.16029392228E+03  0.47319931541E+02  0.63113719448E+03  0.65939172759E+03  0.92357862240E+02 0.  0.
        254    2    1    2    0    0  0.16029392228E+03 -0.47319931541E+02  0.16846487460E+02  0.92304253979E+03  0.90762900388E+03 0.  0.
        -24    2    4    4    0    0 -0.84088374067E+01  0.41139970705E+03 -0.53797936918E+02  0.42281356641E+03  0.80973245045E+02 0.  0.
         24    2    4    4    0    0  0.16870275968E+03 -0.45871963860E+03  0.70644424379E+02  0.50022897338E+03  0.79712377674E+02 0.  0.
         11    1    3    3    0    0 -0.10485361011E+03 -0.14600860417E+02  0.30581988668E+03  0.32362519643E+03  0.00000000000E+00 0.  1.
        -11    1    3    3    0    0 -0.55440312167E+02  0.61920791958E+02  0.32531730781E+03  0.33576653116E+03  0.00000000000E+00 0. -1.
          4    1    6    6  502    0  0.19516182916E+02 -0.99065536427E+02  0.43420790106E+02  0.10991008560E+03  0.00000000000E+00 0. -1.
          1    1    5    5  503    0  0.26445954156E+02  0.20531692149E+03 -0.53456834398E+02  0.21380378828E+03  0.00000000000E+00 0. -1.
         -2    1    5    5    0  503 -0.34854791563E+02  0.20608278557E+03 -0.34110251986E+00  0.20900977813E+03  0.00000000000E+00 0.  1.
         -3    1    6    6    0  502  0.14918657677E+03 -0.35965410217E+03  0.27223634272E+02  0.39031888778E+03  0.00000000000E+00 0.  1.
<mgrwt>
<rscale>  0 0.14436812E+04</rscale>
<asrwt>0</asrwt>
<pdfrwt beam="1">  1        2 0.17157061E+00 0.14436812E+04</pdfrwt>
<pdfrwt beam="2">  1       -2 0.71880815E-01 0.14436812E+04</pdfrwt>
<totfact> 0.36287611E+01</totfact>
</mgrwt>
</event>
<event>
12    1  0.2083715E-007  0.1591045E+04  0.7818608E-02  0.8826068E-01
         -1   -1    0    0    0  501 -0.00000000000E+00  0.00000000000E+00  0.73204505695E+03  0.73204505695E+03  0.00000000000E+00 0.  1.
          1   -1    0    0  501    0  0.00000000000E+00 -0.00000000000E+00 -0.86450456769E+03  0.86450456769E+03  0.00000000000E+00 0. -1.
         23    2    1    2    0    0  0.37591910644E+03  0.23294802337E+03 -0.34878706713E+03  0.57172654739E+03  0.98177750064E+02 0.  0.
        254    2    1    2    0    0 -0.37591910644E+03 -0.23294802337E+03  0.21632755639E+03  0.10248230773E+04  0.89882410506E+03 0.  0.
        -24    2    4    4    0    0 -0.39393396373E+03  0.12364002878E+03  0.42955906035E+03  0.60119841549E+03  0.80297720774E+02 0.  0.
         24    2    4    4    0    0  0.18014857294E+02 -0.35658805215E+03 -0.21323150396E+03  0.42362466176E+03  0.80688324727E+02 0.  0.
         11    1    3    3    0    0  0.12044288311E+03  0.30559214556E+02 -0.12577495060E+03  0.17680410596E+03  0.00000000000E+00 0. -1.
        -11    1    3    3    0    0  0.25547622333E+03  0.20238880882E+03 -0.22301211653E+03  0.39492244142E+03  0.00000000000E+00 0.  1.
          2    1    6    6  502    0  0.73351691793E+01 -0.78409376566E+02 -0.10949657251E+02  0.79509307846E+02  0.00000000000E+00 0. -1.
          1    1    5    5  503    0 -0.11704663809E+03  0.75822937986E+02  0.13446599765E+03  0.19372696750E+03  0.00000000000E+00 0. -1.
         -2    1    5    5    0  503 -0.27688732565E+03  0.47817090793E+02  0.29509306270E+03  0.40747144799E+03  0.00000000000E+00 0.  1.
         -1    1    6    6    0  502  0.10679688114E+02 -0.27817867559E+03 -0.20228184671E+03  0.34411535391E+03  0.00000000000E+00 0.  1.
<mgrwt>
<rscale>  0 0.15910453E+04</rscale>
<asrwt>0</asrwt>
<pdfrwt beam="1">  1        1 0.13300070E+00 0.15910453E+04</pdfrwt>
<pdfrwt beam="2">  1       -1 0.11262232E+00 0.15910453E+04</pdfrwt>
<totfact> 0.13496918E+01</totfact>
</mgrwt>
</event>
<event>
12    1  0.2083715E-007  0.1948596E+04  0.7818608E-02  0.8631038E-01
         -1   -1    0    0    0  501 -0.00000000000E+00  0.00000000000E+00  0.11823063066E+04  0.11823063066E+04  0.00000000000E+00 0.  1.
          1   -1    0    0  501    0  0.00000000000E+00 -0.00000000000E+00 -0.80288581418E+03  0.80288581418E+03  0.00000000000E+00 0. -1.
         23    2    1    2    0    0 -0.47533454248E+03  0.39922281317E+03  0.59446704923E+03  0.86448629508E+03  0.92863878587E+02 0.  0.
        254    2    1    2    0    0  0.47533454248E+03 -0.39922281317E+03 -0.21504655685E+03  0.11207058257E+04  0.90797287637E+03 0.  0.
        -24    2    4    4    0    0 -0.13896153534E+03  0.18086221672E+03  0.11738900794E+02  0.24221259039E+03  0.80670238696E+02 0.  0.
         24    2    4    4    0    0  0.61429607782E+03 -0.58008502989E+03 -0.22678545764E+03  0.87849323526E+03  0.80376660087E+02 0.  0.
         11    1    3    3    0    0 -0.36772882327E+03  0.33192959157E+03  0.51585128719E+03  0.71519528222E+03  0.00000000000E+00 0.  1.
        -11    1    3    3    0    0 -0.10760571921E+03  0.67293221599E+02  0.78615762038E+02  0.14929101286E+03  0.00000000000E+00 0. -1.
          4    1    6    6  502    0  0.42338973720E+03 -0.44118776892E+03 -0.14298245280E+03  0.62797253031E+03  0.00000000000E+00 0. -1.
          1    1    5    5  503    0 -0.11120130205E+03  0.95076746358E+02 -0.17678514996E+02  0.14736976341E+03  0.00000000000E+00 0. -1.
         -2    1    5    5    0  503 -0.27760233287E+02  0.85785470363E+02  0.29417415790E+02  0.94842826979E+02  0.00000000000E+00 0.  1.
         -3    1    6    6    0  502  0.19090634062E+03 -0.13889726096E+03 -0.83803004839E+02  0.25052070495E+03  0.00000000000E+00 0.  1.
<mgrwt>
<rscale>  0 0.19485964E+04</rscale>
<asrwt>0</asrwt>
<pdfrwt beam="1">  1        1 0.12352089E+00 0.19485964E+04</pdfrwt>
<pdfrwt beam="2">  1       -1 0.18189328E+00 0.19485964E+04</pdfrwt>
<totfact> 0.41308768E+00</totfact>
</mgrwt>
</event>
<event>
12    1  0.2083715E-007  0.2164950E+04  0.7818608E-02  0.8533160E-01
          2   -1    0    0  501    0  0.00000000000E+00  0.00000000000E+00  0.30073308265E+04  0.30073308265E+04  0.00000000000E+00 0.  1.
         -2   -1    0    0    0  501 -0.00000000000E+00 -0.00000000000E+00 -0.38963205812E+03  0.38963205812E+03  0.00000000000E+00 0. -1.
         23    2    1    2    0    0  0.37232247577E+03  0.19318912192E+03 -0.15122958719E+03  0.45460586929E+03  0.88600482845E+02 0.  0.
        254    2    1    2    0    0 -0.37232247577E+03 -0.19318912192E+03  0.27689283556E+04  0.29423570153E+04  0.90252673342E+03 0.  0.
        -24    2    4    4    0    0 -0.53114930157E+03 -0.28277419974E+03  0.26299696178E+04  0.26991037175E+04  0.79623227607E+02 0.  0.
         24    2    4    4    0    0  0.15882682580E+03  0.89585077818E+02  0.13895873775E+03  0.24325329786E+03  0.81309220649E+02 0.  0.
         13    1    3    3    0    0  0.25060666273E+03  0.83936503628E+02 -0.79294591455E+02  0.27592873769E+03  0.00000000000E+00 0.  1.
        -13    1    3    3    0    0  0.12171581304E+03  0.10925261829E+03 -0.71934995736E+02  0.17867713161E+03  0.00000000000E+00 0. -1.
          4    1    6    6  502    0  0.14465693459E+03  0.65179180575E+02  0.14437361414E+03  0.21451735307E+03  0.00000000000E+00 0. -1.
          3    1    5    5  503    0 -0.43172505118E+03 -0.26159326561E+03  0.21455856956E+04  0.22041677644E+04  0.00000000000E+00 0. -1.
         -4    1    5    5    0  503 -0.99424250392E+02 -0.21180934131E+02  0.48438392225E+03  0.49493595310E+03  0.00000000000E+00 0.  1.
         -3    1    6    6    0  502  0.14169891205E+02  0.24405897242E+02 -0.54148763904E+01  0.28735944795E+02  0.00000000000E+00 0.  1.
<mgrwt>
<rscale>  0 0.21649503E+04</rscale>
<asrwt>0</asrwt>
<pdfrwt beam="1">  1        2 0.46266627E+00 0.21649503E+04</pdfrwt>
<pdfrwt beam="2">  1       -2 0.59943395E-01 0.21649503E+04</pdfrwt>
<totfact> 0.41042625E+00</totfact>
</mgrwt>
</event>
<event>
12    1  0.2083715E-007  0.1611217E+04  0.7818608E-02  0.8813686E-01
          1   -1    0    0  501    0  0.00000000000E+00  0.00000000000E+00  0.16719528280E+04  0.16719528280E+04  0.00000000000E+00 0. -1.
         -1   -1    0    0    0  501 -0.00000000000E+00 -0.00000000000E+00 -0.38817205168E+03  0.38817205168E+03  0.00000000000E+00 0.  1.
         23    2    1    2    0    0  0.79269975118E+02  0.20298843778E+03  0.10895284308E+04  0.11147404744E+04  0.89922682866E+02 0.  0.
        254    2    1    2    0    0 -0.79269975118E+02 -0.20298843778E+03  0.19425234554E+03  0.94538440532E+03  0.89918277632E+03 0.  0.
        -24    2    4    4    0    0  0.11034516489E+03 -0.52094184291E+03  0.17281119998E+03  0.56600156109E+03  0.83292239779E+02 0.  0.
         24    2    4    4    0    0 -0.18961514000E+03  0.31795340513E+03  0.21441145560E+02  0.37938284422E+03  0.80145808465E+02 0.  0.
         11    1    3    3    0    0  0.64734303286E+02  0.56404592127E+02  0.48370258798E+03  0.49126388189E+03  0.00000000000E+00 0.  1.
        -11    1    3    3    0    0  0.14535671832E+02  0.14658384565E+03  0.60582584284E+03  0.62347659252E+03  0.00000000000E+00 0. -1.
          4    1    6    6  502    0 -0.19340080558E+03  0.29600623119E+03  0.31416423217E+02  0.35497965033E+03  0.00000000000E+00 0. -1.
          3    1    5    5  503    0  0.11989206757E+03 -0.44286169297E+03  0.13217062262E+03  0.47746168480E+03  0.00000000000E+00 0. -1.
         -4    1    5    5    0  503 -0.95469026813E+01 -0.78080149942E+02  0.40640577359E+02  0.88539876292E+02  0.00000000000E+00 0.  1.
         -3    1    6    6    0  502  0.37856655721E+01  0.21947173945E+02 -0.99752776564E+01  0.24403193896E+02  0.00000000000E+00 0.  1.
<mgrwt>
<rscale>  0 0.16112174E+04</rscale>
<asrwt>0</asrwt>
<pdfrwt beam="1">  1        1 0.25722351E+00 0.16112174E+04</pdfrwt>
<pdfrwt beam="2">  1       -1 0.59718778E-01 0.16112174E+04</pdfrwt>
<totfact> 0.13574826E+01</totfact>
</mgrwt>
</event>
<event>
12    1  0.2083715E-007  0.2809028E+04  0.7818608E-02  0.8300471E-01
         -2   -1    0    0    0  501 -0.00000000000E+00  0.00000000000E+00  0.15835164675E+04  0.15835164675E+04  0.00000000000E+00 0.  1.
          2   -1    0    0  501    0  0.00000000000E+00 -0.00000000000E+00 -0.12457458184E+04  0.12457458184E+04  0.00000000000E+00 0. -1.
         23    2    1    2    0    0 -0.94547723653E+03  0.59411654571E+03 -0.43270799324E+03  0.12010750342E+04  0.91887734482E+02 0.  0.
        254    2    1    2    0    0  0.94547723653E+03 -0.59411654571E+03  0.77047864235E+03  0.16281872516E+04  0.90025258303E+03 0.  0.
        -24    2    4    4    0    0  0.72797934209E+02  0.21337442261E+03  0.84517959961E+02  0.25349221379E+03  0.79289554453E+02 0.  0.
         24    2    4    4    0    0  0.87267930232E+03 -0.80749096832E+03  0.68596068238E+03  0.13746950378E+04  0.75057048625E+02 0.  0.
         13    1    3    3    0    0 -0.82510621559E+03  0.48159089110E+03 -0.37843363941E+03  0.10275904208E+04  0.00000000000E+00 0. -1.
        -13    1    3    3    0    0 -0.12037102094E+03  0.11252565461E+03 -0.54274353832E+02  0.17348461347E+03  0.00000000000E+00 0.  1.
          2    1    6    6  502    0  0.47177380509E+03 -0.45212734493E+03  0.33578969999E+03  0.73467297611E+03  0.00000000000E+00 0. -1.
          1    1    5    5  503    0  0.50981858328E+02  0.15653893817E+03  0.97371349362E+02  0.19127145296E+03  0.00000000000E+00 0. -1.
         -2    1    5    5    0  503  0.21816075881E+02  0.56835484447E+02 -0.12853389401E+02  0.62220760830E+02  0.00000000000E+00 0.  1.
         -1    1    6    6    0  502  0.40090549723E+03 -0.35536362340E+03  0.35017098240E+03  0.64002206170E+03  0.00000000000E+00 0.  1.
<mgrwt>
<rscale>  0 0.28090276E+04</rscale>
<asrwt>0</asrwt>
<pdfrwt beam="1">  1        2 0.19165320E+00 0.28090276E+04</pdfrwt>
<pdfrwt beam="2">  1       -2 0.24361792E+00 0.28090276E+04</pdfrwt>
<totfact> 0.10883165E+00</totfact>
</mgrwt>
</event>
<event>
12    1  0.2083715E-007  0.2706705E+04  0.7818608E-02  0.8332833E-01
         -2   -1    0    0    0  501 -0.00000000000E+00  0.00000000000E+00  0.10949311794E+04  0.10949311794E+04  0.00000000000E+00 0. -1.
          2   -1    0    0  501    0  0.00000000000E+00 -0.00000000000E+00 -0.16727657333E+04  0.16727657333E+04  0.00000000000E+00 0.  1.
         23    2    1    2    0    0 -0.10713008439E+04  0.52682901182E+03 -0.40005701270E+03  0.12624776309E+04  0.92573479420E+02 0.  0.
        254    2    1    2    0    0  0.10713008439E+04 -0.52682901182E+03 -0.17777754116E+03  0.15052192818E+04  0.89935861943E+03 0.  0.
        -24    2    4    4    0    0 -0.12587620083E+03 -0.33292005059E+01  0.81845701520E+02  0.17059686381E+03  0.80923850450E+02 0.  0.
         24    2    4    4    0    0  0.11971770448E+04 -0.52349981131E+03 -0.25962324268E+03  0.13346224180E+04  0.80795059233E+02 0.  0.
         13    1    3    3    0    0 -0.63519511904E+03  0.28851251430E+03 -0.27596116731E+03  0.75024454415E+03  0.00000000000E+00 0. -1.
        -13    1    3    3    0    0 -0.43610572491E+03  0.23831649751E+03 -0.12409584539E+03  0.51223308672E+03  0.00000000000E+00 0.  1.
          2    1    6    6  502    0  0.89453294006E+03 -0.38125078178E+03 -0.15821093394E+03  0.98517614622E+03  0.00000000000E+00 0. -1.
          3    1    5    5  503    0 -0.12045065145E+03 -0.28590814086E+02  0.66089278424E+02  0.14033384057E+03  0.00000000000E+00 0. -1.
         -4    1    5    5    0  503 -0.54255493748E+01  0.25261613580E+02  0.15756423096E+02  0.30263023237E+02  0.00000000000E+00 0.  1.
         -1    1    6    6    0  502  0.30264410472E+03 -0.14224902953E+03 -0.10141230873E+03  0.34944627182E+03  0.00000000000E+00 0.  1.
<mgrwt>
<rscale>  0 0.27067053E+04</rscale>
<asrwt>0</asrwt>
<pdfrwt beam="1">  1        2 0.25734857E+00 0.27067053E+04</pdfrwt>
<pdfrwt beam="2">  1       -2 0.16845095E+00 0.27067053E+04</pdfrwt>
<totfact> 0.19471338E+00</totfact>
</mgrwt>
</event>
<event>
12    1  0.2083715E-007  0.2522547E+04  0.7818608E-02  0.8394997E-01
         -1   -1    0    0    0  501 -0.00000000000E+00  0.00000000000E+00  0.78457307757E+03  0.78457307757E+03  0.00000000000E+00 0.  1.
          1   -1    0    0  501    0  0.00000000000E+00 -0.00000000000E+00 -0.20276139014E+04  0.20276139014E+04  0.00000000000E+00 0. -1.
         23    2    1    2    0    0 -0.10735655323E+04 -0.56012002313E+02 -0.29369799664E+03  0.11182483874E+04  0.92415616431E+02 0.  0.
        254    2    1    2    0    0  0.10735655323E+04  0.56012002313E+02 -0.94934282717E+03  0.16939385915E+04  0.90138551790E+03 0.  0.
        -24    2    4    4    0    0 -0.10391924941E+03  0.11157891013E+03 -0.29920960401E+03  0.34537915928E+03  0.80692706895E+02 0.  0.
         24    2    4    4    0    0  0.11774847817E+04 -0.55566907819E+02 -0.65013322316E+03  0.13485594323E+04  0.79882677084E+02 0.  0.
         13    1    3    3    0    0 -0.30207647725E+03  0.22429410481E+02 -0.65587555137E+02  0.30992741723E+03  0.00000000000E+00 0. -1.
        -13    1    3    3    0    0 -0.77148905505E+03 -0.78441412794E+02 -0.22811044151E+03  0.80832097017E+03  0.00000000000E+00 0.  1.
          2    1    6    6  502    0  0.46063584887E+03 -0.30723531738E+01 -0.29324059731E+03  0.54606306644E+03  0.00000000000E+00 0. -1.
          3    1    5    5  503    0 -0.94584083736E+02  0.44789378854E+02 -0.17003583896E+03  0.19966077202E+03  0.00000000000E+00 0. -1.
         -4    1    5    5    0  503 -0.93351656789E+01  0.66789531278E+02 -0.12917376505E+03  0.14571838725E+03  0.00000000000E+00 0.  1.
         -1    1    6    6    0  502  0.71684893283E+03 -0.52494554645E+02 -0.35689262584E+03  0.80249636582E+03  0.00000000000E+00 0.  1.
<mgrwt>
<rscale>  0 0.25225473E+04</rscale>
<asrwt>0</asrwt>
<pdfrwt beam="1">  1        1 0.31194060E+00 0.25225473E+04</pdfrwt>
<pdfrwt beam="2">  1       -1 0.12070355E+00 0.25225473E+04</pdfrwt>
<totfact> 0.15440457E+00</totfact>
</mgrwt>
</event>
