<event>
12    7  0.1701638E-007  0.1978781E+04  0.7818608E-02  0.8616606E-01
          2   -1    0    0  501    0  0.00000000000E+00  0.00000000000E+00  0.73627049416E+03  0.73627049416E+03  0.00000000000E+00 0. -1.
         -1   -1    0    0    0  501 -0.00000000000E+00 -0.00000000000E+00 -0.13295293520E+04  0.13295293520E+04  0.00000000000E+00 0.  1.
         24    2    1    2    0    0 -0.49285716837E+03 -0.12482662659E+03  0.39254990885E+03  0.64740569665E+03  0.80924841636E+02 0.  0.
        254    2    1    2    0    0  0.49285716837E+03  0.12482662659E+03 -0.98580876668E+03  0.14183941495E+04  0.88404364358E+03 0.  0.
         23    2    4    4    0    0  0.19469101258E+03  0.47210474480E+03 -0.33691842326E+03  0.61871186418E+03  0.92210989071E+02 0.  0.
         23    2    4    4    0    0  0.29816615579E+03 -0.34727811821E+03 -0.64889034343E+03  0.79968228532E+03  0.94487733700E+02 0.  0.
          2    1    3    3  502    0 -0.47536124394E+03 -0.13525490778E+03  0.37313969569E+03  0.61927008229E+03  0.00000000000E+00 0. -1.
         -1    1    3    3    0  502 -0.17495924428E+02  0.10428281193E+02  0.19410213169E+02  0.28135614361E+02  0.00000000000E+00 0.  1.
         13    1    5    5    0    0  0.65120375258E+02  0.27259513138E+03 -0.16535719581E+03  0.32541015830E+03  0.00000000000E+00 0. -1.
        -13    1    5    5    0    0  0.12957063732E+03  0.19950961343E+03 -0.17156122745E+03  0.29330170588E+03  0.00000000000E+00 0.  1.
          3    1    6    6  503    0  0.27563512956E+03 -0.34904636120E+03 -0.61628112479E+03  0.76000691555E+03  0.00000000000E+00 0. -1.
         -3    1    6    6    0  503  0.22531026229E+02  0.17682429918E+01 -0.32609218642E+02  0.39675369773E+02  0.00000000000E+00 0.  1.
<mgrwt>
<rscale>  0 0.19787807E+04</rscale>
<asrwt>0</asrwt>
<pdfrwt beam="1">  1        2 0.11327238E+00 0.19787807E+04</pdfrwt>
<pdfrwt beam="2">  1       -1 0.20454298E+00 0.19787807E+04</pdfrwt>
<totfact> 0.57139506E+00</totfact>
</mgrwt>
</event>
<event>
12    7  0.1701638E-007  0.1647859E+04  0.7818608E-02  0.8791674E-01
         -1   -1    0    0    0  501 -0.00000000000E+00  0.00000000000E+00  0.23512691504E+03  0.23512691504E+03  0.00000000000E+00 0.  1.
          2   -1    0    0  501    0  0.00000000000E+00 -0.00000000000E+00 -0.28872048153E+04  0.28872048153E+04  0.00000000000E+00 0. -1.
         24    2    1    2    0    0 -0.51275946959E+03 -0.22701340945E+03 -0.62499273088E+03  0.84347709790E+03  0.79877026152E+02 0.  0.
        254    2    1    2    0    0  0.51275946959E+03  0.22701340945E+03 -0.20270851693E+04  0.22788546324E+04  0.87729515564E+03 0.  0.
         23    2    4    4    0    0 -0.15532179865E+02  0.34496102836E+03 -0.14009617388E+04  0.14461359938E+04  0.96830569804E+02 0.  0.
         23    2    4    4    0    0  0.52829164946E+03 -0.11794761891E+03 -0.62612343055E+03  0.83271863862E+03  0.91575505045E+02 0.  0.
          2    1    3    3  502    0 -0.57155140919E+02 -0.10452684078E+02 -0.37633701989E+02  0.69226181921E+02  0.00000000000E+00 0. -1.
         -1    1    3    3    0  502 -0.45560432867E+03 -0.21656072537E+03 -0.58735902889E+03  0.77425091598E+03  0.00000000000E+00 0.  1.
         13    1    5    5    0    0  0.10151441253E+02  0.69994819219E+01 -0.13586089050E+03  0.13641930243E+03  0.00000000000E+00 0.  1.
        -13    1    5    5    0    0 -0.25683621118E+02  0.33796154644E+03 -0.12651008483E+04  0.13097166914E+04  0.00000000000E+00 0. -1.
          1    1    6    6  503    0  0.47853733128E+03 -0.13330414980E+03 -0.57250160096E+03  0.75797497114E+03  0.00000000000E+00 0. -1.
         -1    1    6    6    0  503  0.49754318180E+02  0.15356530894E+02 -0.53621829595E+02  0.74743667476E+02  0.00000000000E+00 0.  1.
<mgrwt>
<rscale>  0 0.16478587E+04</rscale>
<asrwt>0</asrwt>
<pdfrwt beam="1">  1        2 0.44418536E+00 0.16478587E+04</pdfrwt>
<pdfrwt beam="2">  1       -1 0.36173371E-01 0.16478587E+04</pdfrwt>
<totfact> 0.16348032E+01</totfact>
</mgrwt>
</event>
<event>
12    7  0.1701638E-007  0.1120219E+04  0.7818608E-02  0.9185706E-01
         -1   -1    0    0    0  501 -0.00000000000E+00  0.00000000000E+00  0.16770331717E+03  0.16770331717E+03  0.00000000000E+00 0.  1.
          2   -1    0    0  501    0  0.00000000000E+00 -0.00000000000E+00 -0.18707006475E+04  0.18707006475E+04  0.00000000000E+00 0. -1.
         24    2    1    2    0    0  0.18043219572E+03 -0.53570073193E+02 -0.38710004571E+03  0.43799592739E+03  0.81046017963E+02 0.  0.
        254    2    1    2    0    0 -0.18043219572E+03  0.53570073193E+02 -0.13158972846E+04  0.16004080373E+04  0.89123212023E+03 0.  0.
         23    2    4    4    0    0 -0.18630706624E+03  0.43199208399E+03 -0.48120007611E+03  0.67938004999E+03  0.93146419724E+02 0.  0.
         23    2    4    4    0    0  0.58748705183E+01 -0.37842201080E+03 -0.83469720849E+03  0.92102798728E+03  0.91298363258E+02 0.  0.
          4    1    3    3  502    0  0.11876166763E+03 -0.28575953190E+02 -0.32412436626E+03  0.34637771811E+03  0.00000000000E+00 0. -1.
         -3    1    3    3    0  502  0.61670528090E+02 -0.24994120003E+02 -0.62975679446E+02  0.91618209278E+02  0.00000000000E+00 0.  1.
         13    1    5    5    0    0 -0.48785287282E+02  0.12364748617E+03 -0.80474471824E+02  0.15538611813E+03  0.00000000000E+00 0.  1.
        -13    1    5    5    0    0 -0.13752177896E+03  0.30834459782E+03 -0.40072560429E+03  0.52399393186E+03  0.00000000000E+00 0. -1.
          1    1    6    6  503    0 -0.18146399631E+02 -0.34082609579E+03 -0.69329872048E+03  0.77275794089E+03  0.00000000000E+00 0. -1.
         -1    1    6    6    0  503  0.24021270150E+02 -0.37595915010E+02 -0.14139848802E+03  0.14827004640E+03  0.00000000000E+00 0.  1.
<mgrwt>
<rscale>  0 0.11202191E+04</rscale>
<asrwt>0</asrwt>
<pdfrwt beam="1">  1        2 0.28780010E+00 0.11202191E+04</pdfrwt>
<pdfrwt beam="2">  1       -1 0.25800510E-01 0.11202191E+04</pdfrwt>
<totfact> 0.11826980E+02</totfact>
</mgrwt>
</event>
<event>
12    7  0.1701638E-007  0.1849307E+04  0.7818608E-02  0.8680509E-01
          2   -1    0    0  501    0  0.00000000000E+00  0.00000000000E+00  0.15452683677E+04  0.15452683677E+04  0.00000000000E+00 0. -1.
         -1   -1    0    0    0  501 -0.00000000000E+00 -0.00000000000E+00 -0.55329168244E+03  0.55329168244E+03  0.00000000000E+00 0.  1.
         24    2    1    2    0    0 -0.16472588960E+02  0.46835703128E+03 -0.21400556638E+03  0.52130207012E+03  0.79547538823E+02 0.  0.
        254    2    1    2    0    0  0.16472588960E+02 -0.46835703128E+03  0.12059822517E+04  0.15772579801E+04  0.90206423794E+03 0.  0.
         23    2    4    4    0    0  0.30804260299E+03 -0.17390993330E+01  0.86752245000E+03  0.92504116868E+03  0.90623908421E+02 0.  0.
         23    2    4    4    0    0 -0.29157001403E+03 -0.46661793195E+03  0.33845980168E+03  0.65221681139E+03  0.89924213680E+02 0.  0.
          4    1    3    3  502    0 -0.43582213659E+02  0.16935351249E+03 -0.70671516379E+02  0.18861199529E+03  0.00000000000E+00 0. -1.
         -3    1    3    3    0  502  0.27109624699E+02  0.29900351879E+03 -0.14333405000E+03  0.33269007483E+03  0.00000000000E+00 0.  1.
         13    1    5    5    0    0  0.20621019045E+02 -0.45932715638E+01  0.16554678150E+02  0.26839931795E+02  0.00000000000E+00 0. -1.
        -13    1    5    5    0    0  0.28742158394E+03  0.28541722309E+01  0.85096777185E+03  0.89820123688E+03  0.00000000000E+00 0.  1.
          2    1    6    6  503    0 -0.30521002150E+02 -0.11651563137E+03  0.82984678929E+02  0.14626647211E+03  0.00000000000E+00 0. -1.
         -2    1    6    6    0  503 -0.26104901188E+03 -0.35010230058E+03  0.25547512276E+03  0.50595033928E+03  0.00000000000E+00 0.  1.
<mgrwt>
<rscale>  0 0.18493070E+04</rscale>
<asrwt>0</asrwt>
<pdfrwt beam="1">  1        2 0.23773359E+00 0.18493070E+04</pdfrwt>
<pdfrwt beam="2">  1       -1 0.85121797E-01 0.18493070E+04</pdfrwt>
<totfact> 0.17502149E+01</totfact>
</mgrwt>
</event>
<event>
12    7  0.1701638E-007  0.1470562E+04  0.7818608E-02  0.8904268E-01
         -3   -1    0    0    0  501 -0.00000000000E+00  0.00000000000E+00  0.21478880572E+04  0.21478880572E+04  0.00000000000E+00 0.  1.
          4   -1    0    0  501    0  0.00000000000E+00 -0.00000000000E+00 -0.25170682679E+03  0.25170682679E+03  0.00000000000E+00 0. -1.
         24    2    1    2    0    0 -0.20255305926E+03  0.87414244262E+02 -0.55072518815E+02  0.24094195829E+03  0.79693494216E+02 0.  0.
        254    2    1    2    0    0  0.20255305926E+03 -0.87414244262E+02  0.19512537492E+04  0.21586529257E+04  0.89650558716E+03 0.  0.
         23    2    4    4    0    0  0.44334328984E+03  0.10524271859E+03  0.54803627499E+03  0.71858568284E+03  0.91609619690E+02 0.  0.
         23    2    4    4    0    0 -0.24079023058E+03 -0.19265696285E+03  0.14032174742E+04  0.14400672429E+04  0.98375522566E+02 0.  0.
          4    1    3    3  502    0 -0.16316477346E+03  0.57248044755E+02 -0.73673035685E+02  0.18795690494E+03  0.00000000000E+00 0. -1.
         -3    1    3    3    0  502 -0.39388285803E+02  0.30166199507E+02  0.18600516870E+02  0.52985053355E+02  0.00000000000E+00 0.  1.
         13    1    5    5    0    0  0.28456179822E+03  0.24912669359E+02  0.36230654016E+03  0.46136979436E+03  0.00000000000E+00 0. -1.
        -13    1    5    5    0    0  0.15878149162E+03  0.80330049230E+02  0.18572973483E+03  0.25721588849E+03  0.00000000000E+00 0.  1.
          3    1    6    6  503    0 -0.13675401777E+03 -0.66079659324E+02  0.51771428187E+03  0.53953337284E+03  0.00000000000E+00 0. -1.
         -3    1    6    6    0  503 -0.10403621281E+03 -0.12657730353E+03  0.88550319237E+03  0.90053387002E+03  0.00000000000E+00 0.  1.
<mgrwt>
<rscale>  0 0.14705619E+04</rscale>
<asrwt>0</asrwt>
<pdfrwt beam="1">  1        4 0.38724129E-01 0.14705619E+04</pdfrwt>
<pdfrwt beam="2">  1       -3 0.33044430E+00 0.14705619E+04</pdfrwt>
<totfact> 0.37402287E-01</totfact>
</mgrwt>
</event>
<event>
12    7  0.1701638E-007  0.1083114E+04  0.7818608E-02  0.9221808E-01
          2   -1    0    0  501    0  0.00000000000E+00  0.00000000000E+00  0.26797497519E+04  0.26797497519E+04  0.00000000000E+00 0. -1.
         -1   -1    0    0    0  501 -0.00000000000E+00 -0.00000000000E+00 -0.10944460426E+03  0.10944460426E+03  0.00000000000E+00 0.  1.
         24    2    1    2    0    0  0.68448497364E+00  0.11856410666E+03  0.46669371569E+03  0.48799281109E+03  0.79221483853E+02 0.  0.
        254    2    1    2    0    0 -0.68448497364E+00 -0.11856410666E+03  0.21036114319E+04  0.23012015451E+04  0.92535916190E+03 0.  0.
         23    2    4    4    0    0 -0.37570283653E+03  0.76141704237E+02  0.48107375339E+03  0.62194290169E+03  0.91819585442E+02 0.  0.
         23    2    4    4    0    0  0.37501835155E+03 -0.19470581090E+03  0.16225376786E+04  0.16792586434E+04  0.93444936842E+02 0.  0.
          2    1    3    3  502    0 -0.18522997307E+02  0.11961557888E+03  0.42792233688E+03  0.44471172071E+03  0.00000000000E+00 0. -1.
         -1    1    3    3    0  502  0.19207482281E+02 -0.10514722174E+01  0.38771378814E+02  0.43281090380E+02  0.00000000000E+00 0.  1.
         13    1    5    5    0    0 -0.36905824496E+03  0.74092964068E+02  0.48501607262E+03  0.61394979127E+03  0.00000000000E+00 0.  1.
        -13    1    5    5    0    0 -0.66445915666E+01  0.20487401688E+01 -0.39423192322E+01  0.79931104268E+01  0.00000000000E+00 0. -1.
          2    1    6    6  503    0  0.41340079901E+02 -0.12910133550E+02  0.30363167088E+03  0.30670485049E+03  0.00000000000E+00 0. -1.
         -2    1    6    6    0  503  0.33367827165E+03 -0.18179567735E+03  0.13189060077E+04  0.13725537929E+04  0.00000000000E+00 0.  1.
<mgrwt>
<rscale>  0 0.10831143E+04</rscale>
<asrwt>0</asrwt>
<pdfrwt beam="1">  1        2 0.41226914E+00 0.10831143E+04</pdfrwt>
<pdfrwt beam="2">  1       -1 0.16837633E-01 0.10831143E+04</pdfrwt>
<totfact> 0.85221745E+01</totfact>
</mgrwt>
</event>
<event>
12    7  0.1701638E-007  0.2528883E+04  0.7818608E-02  0.8392767E-01
         -1   -1    0    0    0  501 -0.00000000000E+00  0.00000000000E+00  0.37971163139E+03  0.37971163139E+03  0.00000000000E+00 0.  1.
          2   -1    0    0  501    0  0.00000000000E+00 -0.00000000000E+00 -0.42105961923E+04  0.42105961923E+04  0.00000000000E+00 0. -1.
         24    2    1    2    0    0 -0.88853114834E+03  0.49312056781E+01 -0.49145335861E+03  0.10185816671E+04  0.80438116441E+02 0.  0.
        254    2    1    2    0    0  0.88853114834E+03 -0.49312056781E+01 -0.33394312023E+04  0.35717261565E+04  0.90328016923E+03 0.  0.
         23    2    4    4    0    0  0.95347213854E+02 -0.33898272991E+03 -0.14276132606E+04  0.14731105394E+04  0.89300935727E+02 0.  0.
         23    2    4    4    0    0  0.79318393448E+03  0.33405152423E+03 -0.19118179416E+04  0.20986156171E+04  0.91697827133E+02 0.  0.
          4    1    3    3  502    0 -0.67358865821E+03 -0.12445296883E+02 -0.33669801016E+03  0.75315477555E+03  0.00000000000E+00 0. -1.
         -3    1    3    3    0  502 -0.21494249013E+03  0.17376502561E+02 -0.15475534845E+03  0.26542689159E+03  0.00000000000E+00 0.  1.
         13    1    5    5    0    0  0.60245825307E+02 -0.88257217302E+02 -0.51892768125E+03  0.52981584937E+03  0.00000000000E+00 0.  1.
        -13    1    5    5    0    0  0.35101388547E+02 -0.25072551261E+03 -0.90868557936E+03  0.94329469006E+03  0.00000000000E+00 0. -1.
          3    1    6    6  503    0  0.68466241873E+03  0.30917053730E+03 -0.17185872857E+04  0.18756042512E+04  0.00000000000E+00 0. -1.
         -3    1    6    6    0  503  0.10852151575E+03  0.24880986938E+02 -0.19323065597E+03  0.22301136585E+03  0.00000000000E+00 0.  1.
<mgrwt>
<rscale>  0 0.25288830E+04</rscale>
<asrwt>0</asrwt>
<pdfrwt beam="1">  1        2 0.64778404E+00 0.25288830E+04</pdfrwt>
<pdfrwt beam="2">  1       -1 0.58417173E-01 0.25288830E+04</pdfrwt>
<totfact> 0.68680050E-01</totfact>
</mgrwt>
</event>
<event>
12    7  0.1701638E-007  0.1480011E+04  0.7818608E-02  0.8897855E-01
          2   -1    0    0  501    0  0.00000000000E+00  0.00000000000E+00  0.22969614728E+04  0.22969614728E+04  0.00000000000E+00 0. -1.
         -3   -1    0    0    0  501 -0.00000000000E+00 -0.00000000000E+00 -0.23840557256E+03  0.23840557256E+03  0.00000000000E+00 0.  1.
         24    2    1    2    0    0 -0.19990586170E+03  0.15310345844E+03 -0.72776128996E+01  0.26419433993E+03  0.79640837979E+02 0.  0.
        254    2    1    2    0    0  0.19990586170E+03 -0.15310345844E+03  0.20658335131E+04  0.22711727054E+04  0.90948025338E+03 0.  0.
         23    2    4    4    0    0  0.33912140176E+03 -0.23535183551E+03  0.35996626095E+03  0.55512130814E+03  0.90499426093E+02 0.  0.
         23    2    4    4    0    0 -0.13921554007E+03  0.82248377062E+02  0.17058672521E+04  0.17160513972E+04  0.93292839342E+02 0.  0.
          4    1    3    3  502    0 -0.12272662709E+03  0.13656674687E+03  0.80646190622E+01  0.18378612415E+03  0.00000000000E+00 0. -1.
         -3    1    3    3    0  502 -0.77179234606E+02  0.16536711571E+02 -0.15342231962E+02  0.80408215784E+02  0.00000000000E+00 0.  1.
         13    1    5    5    0    0  0.19032383402E+01 -0.21282645027E+02  0.82243048316E+01  0.22895687050E+02  0.00000000000E+00 0. -1.
        -13    1    5    5    0    0  0.33721816342E+03 -0.21406919048E+03  0.35174195611E+03  0.53222562109E+03  0.00000000000E+00 0.  1.
          2    1    6    6  503    0 -0.11771082480E+03  0.70790101597E+02  0.95901560016E+03  0.96880235245E+03  0.00000000000E+00 0. -1.
         -2    1    6    6    0  503 -0.21504715263E+02  0.11458275465E+02  0.74685165199E+03  0.74724904478E+03  0.00000000000E+00 0.  1.
<mgrwt>
<rscale>  0 0.14800114E+04</rscale>
<asrwt>0</asrwt>
<pdfrwt beam="1">  1        2 0.35337867E+00 0.14800114E+04</pdfrwt>
<pdfrwt beam="2">  1       -3 0.36677782E-01 0.14800114E+04</pdfrwt>
<totfact> 0.21001814E+01</totfact>
</mgrwt>
</event>
<event>
12    7  0.1701638E-007  0.2199975E+04  0.7818608E-02  0.8518438E-01
         -1   -1    0    0    0  501 -0.00000000000E+00  0.00000000000E+00  0.60084373251E+03  0.60084373251E+03  0.00000000000E+00 0.  1.
          2   -1    0    0  501    0  0.00000000000E+00 -0.00000000000E+00 -0.20137894846E+04  0.20137894846E+04  0.00000000000E+00 0. -1.
         24    2    1    2    0    0  0.87415593834E+03  0.59989405452E+02 -0.89447113418E+03  0.12546209589E+04  0.79043072133E+02 0.  0.
        254    2    1    2    0    0 -0.87415593834E+03 -0.59989405452E+02 -0.51847461793E+03  0.13600122583E+04  0.90170398685E+03 0.  0.
         23    2    4    4    0    0 -0.21071066627E+03  0.17725978054E+03 -0.57834008614E+03  0.64689029786E+03  0.90386877120E+02 0.  0.
         23    2    4    4    0    0 -0.66344527207E+03 -0.23724918599E+03  0.59865468209E+02  0.71312196041E+03  0.92261860195E+02 0.  0.
          2    1    3    3  502    0  0.28109024913E+03  0.11924648492E+02 -0.23679805654E+03  0.36773257264E+03  0.00000000000E+00 0. -1.
         -1    1    3    3    0  502  0.59306568921E+03  0.48064756960E+02 -0.65767307764E+03  0.88688838623E+03  0.00000000000E+00 0.  1.
         13    1    5    5    0    0 -0.32886696982E+02  0.70014698339E+02 -0.10896166166E+03  0.13362722976E+03  0.00000000000E+00 0. -1.
        -13    1    5    5    0    0 -0.17782396929E+03  0.10724508220E+03 -0.46937842448E+03  0.51326306810E+03  0.00000000000E+00 0.  1.
          1    1    6    6  503    0 -0.87069590754E+02 -0.66028363595E-01  0.95729462527E+00  0.87074878161E+02  0.00000000000E+00 0. -1.
         -1    1    6    6    0  503 -0.57637568132E+03 -0.23718315762E+03  0.58908173584E+02  0.62604708225E+03  0.00000000000E+00 0.  1.
<mgrwt>
<rscale>  0 0.21999753E+04</rscale>
<asrwt>0</asrwt>
<pdfrwt beam="1">  1        2 0.30981377E+00 0.21999753E+04</pdfrwt>
<pdfrwt beam="2">  1       -1 0.92437496E-01 0.21999753E+04</pdfrwt>
<totfact> 0.77736877E+00</totfact>
</mgrwt>
</event>
<event>
12    7  0.1701638E-007  0.2254592E+04  0.7818608E-02  0.8496043E-01
          2   -1    0    0  501    0  0.00000000000E+00  0.00000000000E+00  0.94266615911E+03  0.94266615911E+03  0.00000000000E+00 0. -1.
         -1   -1    0    0    0  501 -0.00000000000E+00 -0.00000000000E+00 -0.13480874738E+04  0.13480874738E+04  0.00000000000E+00 0.  1.
         24    2    1    2    0    0  0.50173076810E+03  0.37916039094E+02  0.64281325963E+03  0.82030925071E+03  0.80789791250E+02 0.  0.
        254    2    1    2    0    0 -0.50173076810E+03 -0.37916039094E+02 -0.10482345743E+04  0.14704443822E+04  0.90013308386E+03 0.  0.
         23    2    4    4    0    0  0.53198939995E+02 -0.36443622023E+03 -0.34758645155E+03  0.51442519839E+03  0.90404964487E+02 0.  0.
         23    2    4    4    0    0 -0.55492970809E+03  0.32652018114E+03 -0.70064812280E+03  0.95601918383E+03  0.92208883797E+02 0.  0.
          4    1    3    3  502    0  0.28598351755E+03  0.41681209151E+02  0.42285219760E+03  0.51217953544E+03  0.00000000000E+00 0. -1.
         -3    1    3    3    0  502  0.21574725055E+03 -0.37651700572E+01  0.21996106203E+03  0.30812971527E+03  0.00000000000E+00 0.  1.
         13    1    5    5    0    0  0.16335399675E+02 -0.51584100869E+01 -0.89158333115E+01  0.19311824378E+02  0.00000000000E+00 0. -1.
        -13    1    5    5    0    0  0.36863540320E+02 -0.35927781014E+03 -0.33867061823E+03  0.49511337401E+03  0.00000000000E+00 0.  1.
          3    1    6    6  503    0 -0.39051859562E+03  0.21067907675E+03 -0.42185101950E+03  0.61224891145E+03  0.00000000000E+00 0. -1.
         -3    1    6    6    0  503 -0.16441111247E+03  0.11584110438E+03 -0.27879710330E+03  0.34377027239E+03  0.00000000000E+00 0.  1.
<mgrwt>
<rscale>  0 0.22545922E+04</rscale>
<asrwt>0</asrwt>
<pdfrwt beam="1">  1        2 0.14502556E+00 0.22545922E+04</pdfrwt>
<pdfrwt beam="2">  1       -1 0.20739807E+00 0.22545922E+04</pdfrwt>
<totfact> 0.38152954E+00</totfact>
</mgrwt>
</event>
<event>
12    7  0.1701638E-007  0.2000442E+04  0.7818608E-02  0.8606414E-01
         -1   -1    0    0    0  501 -0.00000000000E+00  0.00000000000E+00  0.37895330642E+03  0.37895330642E+03  0.00000000000E+00 0.  1.
          2   -1    0    0  501    0  0.00000000000E+00 -0.00000000000E+00 -0.26400147143E+04  0.26400147143E+04  0.00000000000E+00 0. -1.
         24    2    1    2    0    0  0.47351415401E+03 -0.35597839247E+03 -0.17174695564E+04  0.18185094053E+04  0.79614759171E+02 0.  0.
        254    2    1    2    0    0 -0.47351415401E+03  0.35597839247E+03 -0.54359185144E+03  0.12004586154E+04  0.89144406243E+03 0.  0.
         23    2    4    4    0    0 -0.33838238258E+03 -0.57746389557E+02  0.14245936675E+03  0.38318769143E+03  0.93278364811E+02 0.  0.
         23    2    4    4    0    0 -0.13513177143E+03  0.41372478202E+03 -0.68605121819E+03  0.81727092399E+03  0.88525128098E+02 0.  0.
          4    1    3    3  502    0  0.43197172306E+03 -0.29445966443E+03 -0.14731947213E+04  0.15632046412E+04  0.00000000000E+00 0. -1.
         -3    1    3    3    0  502  0.41542430953E+02 -0.61518728038E+02 -0.24427483515E+03  0.25530476407E+03  0.00000000000E+00 0.  1.
         13    1    5    5    0    0 -0.67018256435E+02  0.18563481116E+02  0.54196452730E+01  0.69752577598E+02  0.00000000000E+00 0. -1.
        -13    1    5    5    0    0 -0.27136412615E+03 -0.76309870673E+02  0.13703972148E+03  0.31343511384E+03  0.00000000000E+00 0.  1.
          4    1    6    6  503    0 -0.60277809550E+02  0.12666820109E+03 -0.29285238766E+03  0.32471644315E+03  0.00000000000E+00 0. -1.
         -4    1    6    6    0  503 -0.74853961879E+02  0.28705658093E+03 -0.39319883053E+03  0.49255448084E+03  0.00000000000E+00 0.  1.
<mgrwt>
<rscale>  0 0.20004423E+04</rscale>
<asrwt>0</asrwt>
<pdfrwt beam="1">  1        2 0.40615611E+00 0.20004423E+04</pdfrwt>
<pdfrwt beam="2">  1       -1 0.58300509E-01 0.20004423E+04</pdfrwt>
<totfact> 0.90952703E+00</totfact>
</mgrwt>
</event>
<event>
12    7  0.1701638E-007  0.2310444E+04  0.7818608E-02  0.8473815E-01
          2   -1    0    0  501    0  0.00000000000E+00  0.00000000000E+00  0.24895650631E+04  0.24895650631E+04  0.00000000000E+00 0. -1.
         -1   -1    0    0    0  501 -0.00000000000E+00 -0.00000000000E+00 -0.53605264596E+03  0.53605264596E+03  0.00000000000E+00 0.  1.
         24    2    1    2    0    0 -0.30069024826E+03 -0.55558204808E+03 -0.14700123076E+03  0.65326010105E+03  0.77803343307E+02 0.  0.
        254    2    1    2    0    0  0.30069024826E+03  0.55558204808E+03  0.21005136479E+04  0.23723576080E+04  0.90379035054E+03 0.  0.
         23    2    4    4    0    0 -0.25957846223E+03  0.38372456080E+03  0.12436393257E+04  0.13304400270E+04  0.93842294778E+02 0.  0.
         23    2    4    4    0    0  0.56026871049E+03  0.17185748728E+03  0.85687432216E+03  0.10419175810E+04  0.89009088128E+02 0.  0.
          2    1    3    3  502    0 -0.14902873387E+03 -0.24497569713E+03 -0.10362109578E+03  0.30489340300E+03  0.00000000000E+00 0. -1.
         -1    1    3    3    0  502 -0.15166151439E+03 -0.31060635095E+03 -0.43380134981E+02  0.34836669805E+03  0.00000000000E+00 0.  1.
         13    1    5    5    0    0 -0.12813074730E+03  0.23631380702E+03  0.82191838712E+03  0.86476097211E+03  0.00000000000E+00 0. -1.
        -13    1    5    5    0    0 -0.13144771493E+03  0.14741075378E+03  0.42172093858E+03  0.46567905485E+03  0.00000000000E+00 0.  1.
          2    1    6    6  503    0  0.34178877164E+03  0.99099566620E+02  0.44235879069E+03  0.56773373004E+03  0.00000000000E+00 0. -1.
         -2    1    6    6    0  503  0.21847993885E+03  0.72757920662E+02  0.41451553147E+03  0.47418385098E+03  0.00000000000E+00 0.  1.
<mgrwt>
<rscale>  0 0.23104441E+04</rscale>
<asrwt>0</asrwt>
<pdfrwt beam="1">  1        2 0.38301000E+00 0.23104441E+04</pdfrwt>
<pdfrwt beam="2">  1       -1 0.82469639E-01 0.23104441E+04</pdfrwt>
<totfact> 0.53168950E+00</totfact>
</mgrwt>
</event>
<event>
12    7  0.1701638E-007  0.1844403E+04  0.7818608E-02  0.8683036E-01
         -1   -1    0    0    0  501 -0.00000000000E+00  0.00000000000E+00  0.62099771038E+03  0.62099771038E+03  0.00000000000E+00 0.  1.
          2   -1    0    0  501    0  0.00000000000E+00 -0.00000000000E+00 -0.13694987731E+04  0.13694987731E+04  0.00000000000E+00 0. -1.
         24    2    1    2    0    0 -0.49916581056E+03  0.26953588963E+03 -0.73397881525E+03  0.93103344192E+03  0.79260750143E+02 0.  0.
        254    2    1    2    0    0  0.49916581056E+03 -0.26953588963E+03 -0.14522247503E+02  0.10594630416E+04  0.89467029603E+03 0.  0.
         23    2    4    4    0    0 -0.11862143564E+03 -0.39484445244E+03 -0.18181414100E+01  0.42205028472E+03  0.90277076700E+02 0.  0.
         23    2    4    4    0    0  0.61778724619E+03  0.12530856281E+03 -0.12704106093E+02  0.63741275687E+03  0.93649937734E+02 0.  0.
          2    1    3    3  502    0 -0.46163420038E+03  0.22377172232E+03 -0.64442754350E+03  0.82369094780E+03  0.00000000000E+00 0. -1.
         -1    1    3    3    0  502 -0.37531610183E+02  0.45764167304E+02 -0.89551271755E+02  0.10734249412E+03  0.00000000000E+00 0.  1.
         13    1    5    5    0    0 -0.50715954136E+01 -0.10250601843E+03 -0.30652350692E+02  0.10711102416E+03  0.00000000000E+00 0. -1.
        -13    1    5    5    0    0 -0.11354984022E+03 -0.29233843401E+03  0.28834209282E+02  0.31493926056E+03  0.00000000000E+00 0.  1.
          1    1    6    6  503    0  0.13195968588E+02  0.10696315921E+01  0.14441554055E+02  0.19591737601E+02  0.00000000000E+00 0. -1.
         -1    1    6    6    0  503  0.60459127761E+03  0.12423893122E+03 -0.27145660148E+02  0.61782101927E+03  0.00000000000E+00 0.  1.
<mgrwt>
<rscale>  0 0.18444030E+04</rscale>
<asrwt>0</asrwt>
<pdfrwt beam="1">  1        2 0.21069212E+00 0.18444030E+04</pdfrwt>
<pdfrwt beam="2">  1       -1 0.95538110E-01 0.18444030E+04</pdfrwt>
<totfact> 0.17079670E+01</totfact>
</mgrwt>
</event>
<event>
12    7  0.1701638E-007  0.1423466E+04  0.7818608E-02  0.8937006E-01
          2   -1    0    0  501    0  0.00000000000E+00  0.00000000000E+00  0.16012232332E+04  0.16012232332E+04  0.00000000000E+00 0. -1.
         -1   -1    0    0    0  501 -0.00000000000E+00 -0.00000000000E+00 -0.31636034334E+03  0.31636034334E+03  0.00000000000E+00 0.  1.
         24    2    1    2    0    0  0.27216858937E+03 -0.12548407535E+03 -0.17091343547E+02  0.31060299914E+03  0.79750328155E+02 0.  0.
        254    2    1    2    0    0 -0.27216858937E+03  0.12548407535E+03  0.13019542335E+04  0.16069805775E+04  0.89301722049E+03 0.  0.
         23    2    4    4    0    0 -0.40729288202E+02 -0.26885573813E+03  0.79739050615E+02  0.29887558785E+03  0.95005357612E+02 0.  0.
         23    2    4    4    0    0 -0.23143930117E+03  0.39433981349E+03  0.12222151828E+04  0.13081049896E+04  0.90888239292E+02 0.  0.
          2    1    3    3  502    0  0.69534239849E+02 -0.69475343502E+02  0.92403460020E+01  0.98727999373E+02  0.00000000000E+00 0. -1.
         -3    1    3    3    0  502  0.20263434952E+03 -0.56008731850E+02 -0.26331689549E+02  0.21187499976E+03  0.00000000000E+00 0.  1.
         13    1    5    5    0    0  0.12009632295E+02 -0.20437665125E+03  0.57946102915E+02  0.21277170321E+03  0.00000000000E+00 0. -1.
        -13    1    5    5    0    0 -0.52738920497E+02 -0.64479086880E+02  0.21792947700E+02  0.86103884637E+02  0.00000000000E+00 0.  1.
          2    1    6    6  503    0 -0.11269810680E+03  0.15406135163E+03  0.39797349908E+03  0.44138267899E+03  0.00000000000E+00 0. -1.
         -2    1    6    6    0  503 -0.11874119437E+03  0.24027846185E+03  0.82424168375E+03  0.86672231061E+03  0.00000000000E+00 0.  1.
<mgrwt>
<rscale>  0 0.14234655E+04</rscale>
<asrwt>0</asrwt>
<pdfrwt beam="1">  1        2 0.24634203E+00 0.14234655E+04</pdfrwt>
<pdfrwt beam="2">  1       -1 0.48670823E-01 0.14234655E+04</pdfrwt>
<totfact> 0.52073195E+01</totfact>
</mgrwt>
</event>
<event>
12    7  0.1701638E-007  0.1960791E+04  0.7818608E-02  0.8625175E-01
          2   -1    0    0  501    0  0.00000000000E+00  0.00000000000E+00  0.15371392065E+04  0.15371392065E+04  0.00000000000E+00 0. -1.
         -1   -1    0    0    0  501 -0.00000000000E+00 -0.00000000000E+00 -0.62530157365E+03  0.62530157365E+03  0.00000000000E+00 0.  1.
         24    2    1    2    0    0  0.47110506305E+03  0.18921466928E+02 -0.31321135184E+03  0.57081503369E+03  0.73691583075E+02 0.  0.
        254    2    1    2    0    0 -0.47110506305E+03 -0.18921466928E+02  0.12250489847E+04  0.15916257465E+04  0.90012749073E+03 0.  0.
         23    2    4    4    0    0 -0.65984342552E+02 -0.22008752397E+03 -0.35823296143E+02  0.24893249792E+03  0.88834837242E+02 0.  0.
         23    2    4    4    0    0 -0.40512072050E+03  0.20116605704E+03  0.12608722809E+04  0.13426932486E+04  0.91845905748E+02 0.  0.
          4    1    3    3  502    0  0.25064705742E+02 -0.13868919548E+02 -0.94315035504E+01  0.30158575275E+02  0.00000000000E+00 0. -1.
         -3    1    3    3    0  502  0.44604035731E+03  0.32790386477E+02 -0.30377984829E+03  0.54065645842E+03  0.00000000000E+00 0.  1.
         13    1    5    5    0    0 -0.44282697938E+02 -0.74330116471E+02 -0.51578306699E+02  0.10072857228E+03  0.00000000000E+00 0.  1.
        -13    1    5    5    0    0 -0.21701644614E+02 -0.14575740750E+03  0.15755010556E+02  0.14820392565E+03  0.00000000000E+00 0. -1.
          2    1    6    6  503    0 -0.39761348733E+03  0.17798325570E+03  0.11653629383E+04  0.12441243115E+04  0.00000000000E+00 0. -1.
         -2    1    6    6    0  503 -0.75072331760E+01  0.23182801339E+02  0.95509342592E+02  0.98568937045E+02  0.00000000000E+00 0.  1.
<mgrwt>
<rscale>  0 0.19607912E+04</rscale>
<asrwt>0</asrwt>
<pdfrwt beam="1">  1        2 0.23648295E+00 0.19607912E+04</pdfrwt>
<pdfrwt beam="2">  1       -1 0.96200242E-01 0.19607912E+04</pdfrwt>
<totfact> 0.13369193E+01</totfact>
</mgrwt>
</event>
<event>
12    7  0.1701638E-007  0.1651913E+04  0.7818608E-02  0.8789275E-01
         -1   -1    0    0    0  501 -0.00000000000E+00  0.00000000000E+00  0.54372560675E+03  0.54372560675E+03  0.00000000000E+00 0.  1.
          2   -1    0    0  501    0  0.00000000000E+00 -0.00000000000E+00 -0.12546848423E+04  0.12546848423E+04  0.00000000000E+00 0. -1.
         24    2    1    2    0    0 -0.51913884363E+03  0.13364313721E+03  0.88328017542E+01  0.54073840366E+03  0.70387326409E+02 0.  0.
        254    2    1    2    0    0  0.51913884363E+03 -0.13364313721E+03 -0.71979203730E+03  0.12576720454E+04  0.88106343115E+03 0.  0.
         23    2    4    4    0    0  0.30704996822E+03 -0.49231370296E+03 -0.53445693774E+03  0.79313610776E+03  0.82269083087E+02 0.  0.
         23    2    4    4    0    0  0.21208887540E+03  0.35867056575E+03 -0.18533509956E+03  0.46453593762E+03  0.88420995326E+02 0.  0.
          4    1    3    3  502    0 -0.20562451268E+03  0.41483864950E+02 -0.29055844436E+02  0.21177014276E+03  0.00000000000E+00 0. -1.
         -3    1    3    3    0  502 -0.31351433095E+03  0.92159272260E+02  0.37888646191E+02  0.32896826090E+03  0.00000000000E+00 0.  1.
         13    1    5    5    0    0  0.15465415885E+03 -0.21522214989E+03 -0.19381095778E+03  0.32833088494E+03  0.00000000000E+00 0. -1.
        -13    1    5    5    0    0  0.15239580938E+03 -0.27709155307E+03 -0.34064597996E+03  0.46480522282E+03  0.00000000000E+00 0.  1.
          4    1    6    6  503    0  0.14343163527E+02  0.79232481824E+02 -0.58241525084E+02  0.99375991869E+02  0.00000000000E+00 0. -1.
         -4    1    6    6    0  503  0.19774571188E+03  0.27943808392E+03 -0.12709357447E+03  0.36515994576E+03  0.00000000000E+00 0.  1.
<mgrwt>
<rscale>  0 0.16519132E+04</rscale>
<asrwt>0</asrwt>
<pdfrwt beam="1">  1        2 0.19302844E+00 0.16519132E+04</pdfrwt>
<pdfrwt beam="2">  1       -1 0.83650093E-01 0.16519132E+04</pdfrwt>
<totfact> 0.27129768E+01</totfact>
</mgrwt>
</event>
<event>
12    7  0.1701638E-007  0.1837845E+04  0.7818608E-02  0.8686429E-01
         -1   -1    0    0    0  501 -0.00000000000E+00  0.00000000000E+00  0.10549945161E+04  0.10549945161E+04  0.00000000000E+00 0.  1.
          2   -1    0    0  501    0  0.00000000000E+00 -0.00000000000E+00 -0.80040055727E+03  0.80040055727E+03  0.00000000000E+00 0. -1.
         24    2    1    2    0    0  0.20902198284E+03  0.26384643485E+03 -0.52132720725E+03  0.62555109962E+03  0.78911283847E+02 0.  0.
        254    2    1    2    0    0 -0.20902198284E+03 -0.26384643485E+03  0.77592116606E+03  0.12298439737E+04  0.89283672264E+03 0.  0.
         23    2    4    4    0    0 -0.19584737135E+03 -0.48362541302E+03  0.13572795247E+03  0.54681297962E+03  0.91283211043E+02 0.  0.
         23    2    4    4    0    0 -0.13174611493E+02  0.21977897817E+03  0.64019321359E+03  0.68303099411E+03  0.90595908031E+02 0.  0.
          2    1    3    3  502    0  0.13049295588E+03  0.10128682543E+03 -0.25162647410E+03  0.30100384551E+03  0.00000000000E+00 0. -1.
         -1    1    3    3    0  502  0.78529026960E+02  0.16255960942E+03 -0.26970073315E+03  0.32454725411E+03  0.00000000000E+00 0.  1.
         13    1    5    5    0    0 -0.10125170324E+03 -0.15304646157E+03  0.71907015113E+02  0.19709324095E+03  0.00000000000E+00 0.  1.
        -13    1    5    5    0    0 -0.94595668109E+02 -0.33057895145E+03  0.63820937358E+02  0.34971973867E+03  0.00000000000E+00 0. -1.
          1    1    6    6  503    0 -0.28815976354E+02  0.63620445149E+02  0.30532099642E+03  0.31320733131E+03  0.00000000000E+00 0. -1.
         -1    1    6    6    0  503  0.15641364861E+02  0.15615853302E+03  0.33487221718E+03  0.36982366280E+03  0.00000000000E+00 0.  1.
<mgrwt>
<rscale>  0 0.18378446E+04</rscale>
<asrwt>0</asrwt>
<pdfrwt beam="1">  1        2 0.12313855E+00 0.18378446E+04</pdfrwt>
<pdfrwt beam="2">  1       -1 0.16230685E+00 0.18378446E+04</pdfrwt>
<totfact> 0.10382619E+01</totfact>
</mgrwt>
</event>
<event>
12    7  0.1990110E-007  0.2347621E+04  0.7818608E-02  0.8459378E-01
          2   -1    0    0  501    0  0.00000000000E+00  0.00000000000E+00  0.20359129623E+04  0.20359129623E+04  0.00000000000E+00 0. -1.
         -3   -1    0    0    0  501 -0.00000000000E+00 -0.00000000000E+00 -0.67676338129E+03  0.67676338129E+03  0.00000000000E+00 0.  1.
         24    2    1    2    0    0 -0.56232404284E+03 -0.10452691801E+03 -0.31525792511E+03  0.65837384399E+03  0.83272764891E+02 0.  0.
        254    2    1    2    0    0  0.56232404284E+03  0.10452691801E+03  0.16744075061E+04  0.20543024996E+04  0.10437356263E+04 0.  0.
         23    2    4    4    0    0  0.18891628601E+03 -0.27112049998E+03  0.53665979962E+02  0.34704789654E+03  0.91468663803E+02 0.  0.
         23    2    4    4    0    0  0.37340775683E+03  0.37564741799E+03  0.16207415262E+04  0.17072546031E+04  0.85853651773E+02 0.  0.
          2    1    3    3  502    0 -0.71985428780E+02 -0.42844176468E+02 -0.47244013221E+02  0.96174436308E+02  0.00000000000E+00 0. -1.
         -1    1    3    3    0  502 -0.49033861406E+03 -0.61682741539E+02 -0.26801391189E+03  0.56219940769E+03  0.00000000000E+00 0.  1.
         13    1    5    5    0    0  0.16560022270E+02 -0.39908136248E+02  0.39136614515E+02  0.58297240690E+02  0.00000000000E+00 0. -1.
        -13    1    5    5    0    0  0.17235626374E+03 -0.23121236374E+03  0.14529365446E+02  0.28875065585E+03  0.00000000000E+00 0.  1.
          2    1    6    6  503    0  0.10312810346E+03  0.57338444059E+02  0.31549466198E+03  0.33683821729E+03  0.00000000000E+00 0. -1.
         -2    1    6    6    0  503  0.27027965337E+03  0.31830897393E+03  0.13052468642E+04  0.13704163858E+04  0.00000000000E+00 0.  1.
<mgrwt>
<rscale>  0 0.23476212E+04</rscale>
<asrwt>0</asrwt>
<pdfrwt beam="1">  1        2 0.31321738E+00 0.23476212E+04</pdfrwt>
<pdfrwt beam="2">  1       -3 0.10411744E+00 0.23476212E+04</pdfrwt>
<totfact> 0.29194503E+00</totfact>
</mgrwt>
</event>
<event>
12    7  0.1701638E-007  0.1522204E+04  0.7818608E-02  0.8869820E-01
          2   -1    0    0  501    0  0.00000000000E+00  0.00000000000E+00  0.57683330144E+03  0.57683330144E+03  0.00000000000E+00 0. -1.
         -1   -1    0    0    0  501 -0.00000000000E+00 -0.00000000000E+00 -0.10042351034E+04  0.10042351034E+04  0.00000000000E+00 0.  1.
         24    2    1    2    0    0 -0.45149861453E+03  0.21442556678E+03 -0.16066433651E+03  0.53102417563E+03  0.79651261566E+02 0.  0.
        254    2    1    2    0    0  0.45149861453E+03 -0.21442556678E+03 -0.26673746547E+03  0.10500442292E+04  0.88408974953E+03 0.  0.
         23    2    4    4    0    0 -0.18513890095E+03 -0.64394988162E+02 -0.32148505277E+03  0.38756282855E+03  0.91810564618E+02 0.  0.
         23    2    4    4    0    0  0.63663751548E+03 -0.15003057861E+03  0.54747587305E+02  0.66248140067E+03  0.89820973530E+02 0.  0.
          4    1    3    3  502    0 -0.18762930669E+02  0.27029840521E+02 -0.21666051508E+02  0.39396416510E+02  0.00000000000E+00 0. -1.
         -3    1    3    3    0  502 -0.43273568386E+03  0.18739572625E+03 -0.13899828500E+03  0.49162775912E+03  0.00000000000E+00 0.  1.
         13    1    5    5    0    0 -0.15683059277E+03 -0.72248587607E+02 -0.20797769143E+03  0.27031539610E+03  0.00000000000E+00 0.  1.
        -13    1    5    5    0    0 -0.28308308177E+02  0.78535994444E+01 -0.11350736135E+03  0.11724743245E+03  0.00000000000E+00 0. -1.
          1    1    6    6  503    0  0.41513788886E+03 -0.14091276981E+03  0.42485529404E+02  0.44045532767E+03  0.00000000000E+00 0. -1.
         -1    1    6    6    0  503  0.22149962662E+03 -0.91178088066E+01  0.12262057901E+02  0.22202607300E+03  0.00000000000E+00 0.  1.
<mgrwt>
<rscale>  0 0.15222040E+04</rscale>
<asrwt>0</asrwt>
<pdfrwt beam="1">  1        2 0.88743585E-01 0.15222040E+04</pdfrwt>
<pdfrwt beam="2">  1       -1 0.15449771E+00 0.15222040E+04</pdfrwt>
<totfact> 0.18459256E+01</totfact>
</mgrwt>
</event>
<event>
12    7  0.1701638E-007  0.1743108E+04  0.7818608E-02  0.8737153E-01
         -1   -1    0    0    0  501 -0.00000000000E+00  0.00000000000E+00  0.30360955763E+03  0.30360955763E+03  0.00000000000E+00 0.  1.
          2   -1    0    0  501    0  0.00000000000E+00 -0.00000000000E+00 -0.25019176179E+04  0.25019176179E+04  0.00000000000E+00 0. -1.
         24    2    1    2    0    0 -0.58304746913E+03 -0.10312733147E+03 -0.43229144527E+03  0.73755692789E+03  0.80837679806E+02 0.  0.
        254    2    1    2    0    0  0.58304746913E+03  0.10312733147E+03 -0.17660166150E+04  0.20679702476E+04  0.89839115252E+03 0.  0.
         23    2    4    4    0    0 -0.21132412778E+03  0.12420297914E+03 -0.60066014707E+03  0.65454206114E+03  0.86881704158E+02 0.  0.
         23    2    4    4    0    0  0.79437159690E+03 -0.21075647664E+02 -0.11653564679E+04  0.14134281865E+04  0.90846706952E+02 0.  0.
          2    1    3    3  502    0 -0.84147987491E+02 -0.44234240476E+02 -0.75129350793E+02  0.12116918412E+03  0.00000000000E+00 0. -1.
         -1    1    3    3    0  502 -0.49889948164E+03 -0.58893090996E+02 -0.35716209448E+03  0.61638774377E+03  0.00000000000E+00 0.  1.
         13    1    5    5    0    0 -0.11539362605E+03  0.10797789436E+03 -0.42964916976E+03  0.45779179075E+03  0.00000000000E+00 0.  1.
        -13    1    5    5    0    0 -0.95930501728E+02  0.16225084772E+02 -0.17101097730E+03  0.19675027038E+03  0.00000000000E+00 0. -1.
          3    1    6    6  503    0  0.72805138807E+02  0.24514758350E+02 -0.11157567207E+03  0.13546472681E+03  0.00000000000E+00 0. -1.
         -3    1    6    6    0  503  0.72156645810E+03 -0.45590406014E+02 -0.10537807959E+04  0.12779634597E+04  0.00000000000E+00 0.  1.
<mgrwt>
<rscale>  0 0.17431077E+04</rscale>
<asrwt>0</asrwt>
<pdfrwt beam="1">  1        2 0.38491042E+00 0.17431077E+04</pdfrwt>
<pdfrwt beam="2">  1       -1 0.46709161E-01 0.17431077E+04</pdfrwt>
<totfact> 0.17146553E+01</totfact>
</mgrwt>
</event>
<event>
12    7  0.1701638E-007  0.1690512E+04  0.7818608E-02  0.8766794E-01
         -1   -1    0    0    0  501 -0.00000000000E+00  0.00000000000E+00  0.65514679517E+03  0.65514679517E+03  0.00000000000E+00 0.  1.
          2   -1    0    0  501    0  0.00000000000E+00 -0.00000000000E+00 -0.10905311464E+04  0.10905311464E+04  0.00000000000E+00 0. -1.
         24    2    1    2    0    0  0.58276579538E+03  0.13802526623E+03 -0.20534714495E+03  0.63829220644E+03  0.81132881652E+02 0.  0.
        254    2    1    2    0    0 -0.58276579538E+03 -0.13802526623E+03 -0.23003720628E+03  0.11073857351E+04  0.90261791679E+03 0.  0.
         23    2    4    4    0    0 -0.39003449196E+03 -0.21662501320E+03 -0.55059656830E+03  0.71417615151E+03  0.88530746629E+02 0.  0.
         23    2    4    4    0    0 -0.19273130343E+03  0.78599746976E+02  0.32055936202E+03  0.39320958362E+03  0.92369889725E+02 0.  0.
          4    1    3    3  502    0  0.56656500748E+03  0.12620079650E+03 -0.18380165388E+03  0.60885597369E+03  0.00000000000E+00 0. -1.
         -3    1    3    3    0  502  0.16200787906E+02  0.11824469730E+02 -0.21545491070E+02  0.29436232752E+02  0.00000000000E+00 0.  1.
         13    1    5    5    0    0 -0.39258064699E+03 -0.21798780756E+03 -0.53572863622E+03  0.69903034291E+03  0.00000000000E+00 0.  1.
        -13    1    5    5    0    0  0.25461550312E+01  0.13627943627E+01 -0.14867932077E+02  0.15145808600E+02  0.00000000000E+00 0. -1.
          1    1    6    6  503    0 -0.72148354172E+01  0.32678538234E+02  0.74313598292E+02  0.81501236815E+02  0.00000000000E+00 0. -1.
         -1    1    6    6    0  503 -0.18551646801E+03  0.45921208741E+02  0.24624576373E+03  0.31170834681E+03  0.00000000000E+00 0.  1.
<mgrwt>
<rscale>  0 0.16905123E+04</rscale>
<asrwt>0</asrwt>
<pdfrwt beam="1">  1        2 0.16777402E+00 0.16905123E+04</pdfrwt>
<pdfrwt beam="2">  1       -1 0.10079182E+00 0.16905123E+04</pdfrwt>
<totfact> 0.22453540E+01</totfact>
</mgrwt>
</event>
<event>
12    7  0.1701638E-007  0.2280286E+04  0.7818608E-02  0.8485735E-01
         -1   -1    0    0    0  501 -0.00000000000E+00  0.00000000000E+00  0.35403095774E+03  0.35403095774E+03  0.00000000000E+00 0.  1.
          2   -1    0    0  501    0  0.00000000000E+00 -0.00000000000E+00 -0.36717861941E+04  0.36717861941E+04  0.00000000000E+00 0. -1.
         24    2    1    2    0    0  0.59448476117E+03  0.62808856668E+03 -0.66766194952E+03  0.10952511655E+04  0.76780583040E+02 0.  0.
        254    2    1    2    0    0 -0.59448476117E+03 -0.62808856668E+03 -0.26500932868E+04  0.29305659863E+04  0.90405486127E+03 0.  0.
         23    2    4    4    0    0 -0.18454527868E+03 -0.75346381111E+03 -0.13643856419E+04  0.15723148957E+04  0.94134355410E+02 0.  0.
         23    2    4    4    0    0 -0.40993948249E+03  0.12537524443E+03 -0.12857076449E+04  0.13582510906E+04  0.89624470065E+02 0.  0.
          2    1    3    3  502    0  0.13998803247E+02  0.19016469012E+01 -0.14258664100E+02  0.20072176145E+02  0.00000000000E+00 0. -1.
         -1    1    3    3    0  502  0.58048595792E+03  0.62618691978E+03 -0.65340328542E+03  0.10751789894E+04  0.00000000000E+00 0.  1.
         13    1    5    5    0    0 -0.12344800761E+02 -0.16764385884E+03 -0.35127394074E+03  0.38942295638E+03  0.00000000000E+00 0.  1.
        -13    1    5    5    0    0 -0.17220047792E+03 -0.58581995226E+03 -0.10131117012E+04  0.11828919393E+04  0.00000000000E+00 0. -1.
          2    1    6    6  503    0 -0.40326503266E+03  0.13404862390E+03 -0.12691177540E+04  0.13383764768E+04  0.00000000000E+00 0. -1.
         -2    1    6    6    0  503 -0.66744498294E+01 -0.86733794763E+01 -0.16589890916E+02  0.19874613774E+02  0.00000000000E+00 0.  1.
<mgrwt>
<rscale>  0 0.22802859E+04</rscale>
<asrwt>0</asrwt>
<pdfrwt beam="1">  1        2 0.56489020E+00 0.22802859E+04</pdfrwt>
<pdfrwt beam="2">  1       -1 0.54466300E-01 0.22802859E+04</pdfrwt>
<totfact> 0.21620879E+00</totfact>
</mgrwt>
</event>
<event>
12    7  0.1701638E-007  0.1929321E+04  0.7818608E-02  0.8640398E-01
          2   -1    0    0  501    0  0.00000000000E+00  0.00000000000E+00  0.81414670264E+03  0.81414670264E+03  0.00000000000E+00 0. -1.
         -1   -1    0    0    0  501 -0.00000000000E+00 -0.00000000000E+00 -0.11429997678E+04  0.11429997678E+04  0.00000000000E+00 0.  1.
         24    2    1    2    0    0 -0.30783092134E+03 -0.38242067788E+03  0.46847268581E+03  0.68399448183E+03  0.85885638023E+02 0.  0.
        254    2    1    2    0    0  0.30783092134E+03  0.38242067788E+03 -0.79732575099E+03  0.12731519886E+04  0.86265994572E+03 0.  0.
         23    2    4    4    0    0 -0.96306548570E+02  0.34582790538E+03 -0.77077647916E+03  0.85634808370E+03  0.10180259425E+03 0.  0.
         23    2    4    4    0    0  0.40413746991E+03  0.36592772501E+02 -0.26549271831E+02  0.41680390493E+03  0.91402985409E+02 0.  0.
          2    1    3    3  502    0 -0.17606371848E+03 -0.26745678896E+03  0.33969866386E+03  0.46682625157E+03  0.00000000000E+00 0. -1.
         -1    1    3    3    0  502 -0.13176720286E+03 -0.11496388893E+03  0.12877402195E+03  0.21716823026E+03  0.00000000000E+00 0.  1.
         13    1    5    5    0    0 -0.47167093130E+02  0.27754230937E+03 -0.65761573745E+03  0.71534112583E+03  0.00000000000E+00 0.  1.
        -13    1    5    5    0    0 -0.49139455440E+02  0.68285596010E+02 -0.11316074171E+03  0.14100695787E+03  0.00000000000E+00 0. -1.
          2    1    6    6  503    0  0.58128970180E+01 -0.13039765375E+02  0.18479210624E+01  0.14395834989E+02  0.00000000000E+00 0. -1.
         -2    1    6    6    0  503  0.39832457289E+03  0.49632537876E+02 -0.28397192893E+02  0.40240806994E+03  0.00000000000E+00 0.  1.
<mgrwt>
<rscale>  0 0.19293206E+04</rscale>
<asrwt>0</asrwt>
<pdfrwt beam="1">  1        2 0.12525334E+00 0.19293206E+04</pdfrwt>
<pdfrwt beam="2">  1       -1 0.17584612E+00 0.19293206E+04</pdfrwt>
<totfact> 0.80014735E+00</totfact>
</mgrwt>
</event>
<event>
12    7  0.1701638E-007  0.1965755E+04  0.7818608E-02  0.8622801E-01
          2   -1    0    0  501    0  0.00000000000E+00  0.00000000000E+00  0.23175501066E+04  0.23175501066E+04  0.00000000000E+00 0. -1.
         -1   -1    0    0    0  501 -0.00000000000E+00 -0.00000000000E+00 -0.41684045681E+03  0.41684045681E+03  0.00000000000E+00 0.  1.
         24    2    1    2    0    0  0.34712491067E+03  0.52794152840E+03  0.30414841875E+03  0.70571820366E+03  0.79460438744E+02 0.  0.
        254    2    1    2    0    0 -0.34712491067E+03 -0.52794152840E+03  0.15965612310E+04  0.20286723598E+04  0.10804100230E+04 0.  0.
         23    2    4    4    0    0 -0.28969286226E+03  0.29278056640E+03  0.47709802597E+03  0.63632252456E+03  0.87415183878E+02 0.  0.
         23    2    4    4    0    0 -0.57432048413E+02 -0.82072209480E+03  0.11194632051E+04  0.13923498352E+04  0.92504048449E+02 0.  0.
          2    1    3    3  502    0  0.23967929777E+02  0.74689059640E+02  0.21090479866E+02  0.81226385052E+02  0.00000000000E+00 0. -1.
         -1    1    3    3    0  502  0.32315698090E+03  0.45325246876E+03  0.28305793888E+03  0.62449181861E+03  0.00000000000E+00 0.  1.
         13    1    5    5    0    0 -0.14137639015E+03  0.19432672271E+03  0.23791338030E+03  0.33816110862E+03  0.00000000000E+00 0.  1.
        -13    1    5    5    0    0 -0.14831647211E+03  0.98453843684E+02  0.23918464567E+03  0.29816141595E+03  0.00000000000E+00 0. -1.
          2    1    6    6  503    0  0.21771848849E+02 -0.13598212810E+03  0.16310181841E+03  0.21346511597E+03  0.00000000000E+00 0. -1.
         -2    1    6    6    0  503 -0.79203897263E+02 -0.68473996670E+03  0.95636138665E+03  0.11788847192E+04  0.00000000000E+00 0.  1.
<mgrwt>
<rscale>  0 0.19657555E+04</rscale>
<asrwt>0</asrwt>
<pdfrwt beam="1">  1        2 0.35654616E+00 0.19657555E+04</pdfrwt>
<pdfrwt beam="2">  1       -1 0.64129302E-01 0.19657555E+04</pdfrwt>
<totfact> 0.11590402E+01</totfact>
</mgrwt>
</event>
<event>
12    7  0.1701638E-007  0.2091461E+04  0.7818608E-02  0.8565014E-01
          2   -1    0    0  501    0  0.00000000000E+00  0.00000000000E+00  0.15589167732E+04  0.15589167732E+04  0.00000000000E+00 0. -1.
         -1   -1    0    0    0  501 -0.00000000000E+00 -0.00000000000E+00 -0.70148190899E+03  0.70148190899E+03  0.00000000000E+00 0.  1.
         24    2    1    2    0    0  0.42231161662E+03 -0.56730913170E+03  0.85393761411E+03  0.11116246946E+04  0.79456028285E+02 0.  0.
        254    2    1    2    0    0 -0.42231161662E+03  0.56730913170E+03  0.34972501054E+01  0.11487739876E+04  0.90525283282E+03 0.  0.
         23    2    4    4    0    0  0.25304921431E+03  0.19160053158E+02  0.54259595430E+02  0.27263652679E+03  0.83579659867E+02 0.  0.
         23    2    4    4    0    0 -0.67536083093E+03  0.54814907855E+03 -0.50762345324E+02  0.87613746079E+03  0.91980270905E+02 0.  0.
          2    1    3    3  502    0  0.22883931307E+03 -0.30359743352E+03  0.52041207853E+03  0.64449015844E+03  0.00000000000E+00 0. -1.
         -1    1    3    3    0  502  0.19347230354E+03 -0.26371169819E+03  0.33352553558E+03  0.46713453617E+03  0.00000000000E+00 0.  1.
         13    1    5    5    0    0  0.25201604728E+03  0.18572661597E+02  0.37067807535E+02  0.25540370827E+03  0.00000000000E+00 0.  1.
        -13    1    5    5    0    0  0.10331670319E+01  0.58739156023E+00  0.17191787895E+02  0.17232818515E+02  0.00000000000E+00 0. -1.
          4    1    6    6  503    0 -0.38230669355E+02  0.76018181730E+01 -0.55887845494E+01  0.39377737767E+02  0.00000000000E+00 0. -1.
         -4    1    6    6    0  503 -0.63713016157E+03  0.54054726037E+03 -0.45173560775E+02  0.83675972302E+03  0.00000000000E+00 0.  1.
<mgrwt>
<rscale>  0 0.20914607E+04</rscale>
<asrwt>0</asrwt>
<pdfrwt beam="1">  1        2 0.23983335E+00 0.20914607E+04</pdfrwt>
<pdfrwt beam="2">  1       -1 0.10792029E+00 0.20914607E+04</pdfrwt>
<totfact> 0.98628425E+00</totfact>
</mgrwt>
</event>
<event>
12    7  0.1701638E-007  0.1607907E+04  0.7818608E-02  0.8815705E-01
         -1   -1    0    0    0  501 -0.00000000000E+00  0.00000000000E+00  0.21251090432E+03  0.21251090432E+03  0.00000000000E+00 0.  1.
          2   -1    0    0  501    0  0.00000000000E+00 -0.00000000000E+00 -0.30414488639E+04  0.30414488639E+04  0.00000000000E+00 0. -1.
         24    2    1    2    0    0  0.15768295871E+03 -0.47626787238E+03 -0.54371596802E+03  0.74413607976E+03  0.80102743979E+02 0.  0.
        254    2    1    2    0    0 -0.15768295871E+03  0.47626787238E+03 -0.22852219915E+04  0.25098236884E+04  0.90844944532E+03 0.  0.
         23    2    4    4    0    0 -0.22738781557E+03  0.22950421820E+03 -0.21990517872E+04  0.22245291354E+04  0.91234350489E+02 0.  0.
         23    2    4    4    0    0  0.69704856859E+02  0.24676365418E+03 -0.86170204301E+02  0.28529455298E+03  0.90645517021E+02 0.  0.
          2    1    3    3  502    0 -0.85113612586E-01 -0.19455318737E+01  0.28527696538E+01  0.34540748828E+01  0.00000000000E+00 0. -1.
         -1    1    3    3    0  502  0.15776807233E+03 -0.47432234051E+03 -0.54656873767E+03  0.74068200488E+03  0.00000000000E+00 0.  1.
         13    1    5    5    0    0 -0.22540937975E+03  0.22548134988E+03 -0.21961868340E+04  0.22192088314E+04  0.00000000000E+00 0. -1.
        -13    1    5    5    0    0 -0.19784358231E+01  0.40228683192E+01 -0.28649532006E+01  0.53203040008E+01  0.00000000000E+00 0.  1.
          1    1    6    6  503    0  0.56416673967E+02  0.17219475771E+03 -0.15769881104E+02  0.18188613150E+03  0.00000000000E+00 0. -1.
         -1    1    6    6    0  503  0.13288182892E+02  0.74568896474E+02 -0.70400323197E+02  0.10340842148E+03  0.00000000000E+00 0.  1.
<mgrwt>
<rscale>  0 0.16079068E+04</rscale>
<asrwt>0</asrwt>
<pdfrwt beam="1">  1        2 0.46791519E+00 0.16079068E+04</pdfrwt>
<pdfrwt beam="2">  1       -1 0.32693986E-01 0.16079068E+04</pdfrwt>
<totfact> 0.15780377E+01</totfact>
</mgrwt>
</event>
<event>
12    7  0.1701638E-007  0.1543467E+04  0.7818608E-02  0.8856051E-01
         -3   -1    0    0    0  501 -0.00000000000E+00  0.00000000000E+00  0.27445428573E+04  0.27445428573E+04  0.00000000000E+00 0.  1.
          2   -1    0    0  501    0  0.00000000000E+00 -0.00000000000E+00 -0.21700253579E+03  0.21700253579E+03  0.00000000000E+00 0. -1.
         24    2    1    2    0    0 -0.28160261950E+03 -0.10722806005E+02  0.16536337724E+04  0.16797081556E+04  0.86601506879E+02 0.  0.
        254    2    1    2    0    0  0.28160261950E+03  0.10722806005E+02  0.87390654910E+03  0.12818372375E+04  0.89441546995E+03 0.  0.
         23    2    4    4    0    0  0.38557799847E+03  0.37704753116E+03  0.52743942935E+03  0.75864827689E+03  0.80744180767E+02 0.  0.
         23    2    4    4    0    0 -0.10397537897E+03 -0.36632472516E+03  0.34646711975E+03  0.52318896057E+03  0.93180146483E+02 0.  0.
          2    1    3    3  502    0 -0.13313438363E+03 -0.35920500533E+02  0.61907434258E+03  0.63424607851E+03  0.00000000000E+00 0. -1.
         -3    1    3    3    0  502 -0.14846823587E+03  0.25197694528E+02  0.10345594298E+04  0.10454620771E+04  0.00000000000E+00 0.  1.
         13    1    5    5    0    0  0.86597270647E+02  0.62329989054E+02  0.67746585289E+02  0.12638716168E+03  0.00000000000E+00 0. -1.
        -13    1    5    5    0    0  0.29898072782E+03  0.31471754211E+03  0.45969284406E+03  0.63226111521E+03  0.00000000000E+00 0.  1.
          3    1    6    6  503    0  0.19842441732E+01 -0.68837737994E+02  0.26960091896E+02  0.73955513331E+02  0.00000000000E+00 0. -1.
         -3    1    6    6    0  503 -0.10595962314E+03 -0.29748698717E+03  0.31950702785E+03  0.44923344724E+03  0.00000000000E+00 0.  1.
<mgrwt>
<rscale>  0 0.15434672E+04</rscale>
<asrwt>0</asrwt>
<pdfrwt beam="1">  1        2 0.33385007E-01 0.15434672E+04</pdfrwt>
<pdfrwt beam="2">  1       -3 0.42223734E+00 0.15434672E+04</pdfrwt>
<totfact> 0.75553060E-01</totfact>
</mgrwt>
</event>
<event>
12    7  0.1701638E-007  0.1824318E+04  0.7818608E-02  0.8693473E-01
         -1   -1    0    0    0  501 -0.00000000000E+00  0.00000000000E+00  0.13486930276E+04  0.13486930276E+04  0.00000000000E+00 0.  1.
          2   -1    0    0  501    0  0.00000000000E+00 -0.00000000000E+00 -0.61691853793E+03  0.61691853793E+03  0.00000000000E+00 0. -1.
         24    2    1    2    0    0 -0.20932396560E+03  0.26834980053E+03  0.91336791260E+03  0.97787609799E+03  0.78565776527E+02 0.  0.
        254    2    1    2    0    0  0.20932396560E+03 -0.26834980053E+03 -0.18159342291E+03  0.98773546756E+03  0.90929480621E+03 0.  0.
         23    2    4    4    0    0  0.24141817861E+03  0.11523482125E+03 -0.43467009815E+03  0.51831936171E+03  0.90305401288E+02 0.  0.
         23    2    4    4    0    0 -0.32094213005E+02 -0.38358462179E+03  0.25307667524E+03  0.46941610585E+03  0.90202418496E+02 0.  0.
          4    1    3    3  502    0 -0.85237044931E+02  0.77986411212E+02  0.22426252053E+03  0.25227150508E+03  0.00000000000E+00 0. -1.
         -3    1    3    3    0  502 -0.12408692067E+03  0.19036338932E+03  0.68910539207E+03  0.72560459291E+03  0.00000000000E+00 0.  1.
         13    1    5    5    0    0  0.15938264538E+03  0.10413813992E+03 -0.35804647090E+03  0.40551800843E+03  0.00000000000E+00 0. -1.
        -13    1    5    5    0    0  0.82035533229E+02  0.11096681334E+02 -0.76623627251E+02  0.11280135328E+03  0.00000000000E+00 0.  1.
          3    1    6    6  503    0  0.95151431904E+01 -0.22695419786E+03  0.18767697077E+03  0.29465469830E+03  0.00000000000E+00 0. -1.
         -3    1    6    6    0  503 -0.41609356195E+02 -0.15663042393E+03  0.65399704470E+02  0.17476140755E+03  0.00000000000E+00 0.  1.
<mgrwt>
<rscale>  0 0.18243177E+04</rscale>
<asrwt>0</asrwt>
<pdfrwt beam="1">  1        2 0.94910545E-01 0.18243177E+04</pdfrwt>
<pdfrwt beam="2">  1       -1 0.20749123E+00 0.18243177E+04</pdfrwt>
<totfact> 0.68981508E+00</totfact>
</mgrwt>
</event>
<event>
12    7  0.1701638E-007  0.4377119E+04  0.7818608E-02  0.7932510E-01
          2   -1    0    0  501    0  0.00000000000E+00  0.00000000000E+00  0.40149505373E+04  0.40149505373E+04  0.00000000000E+00 0. -1.
         -1   -1    0    0    0  501 -0.00000000000E+00 -0.00000000000E+00 -0.11929894677E+04  0.11929894677E+04  0.00000000000E+00 0.  1.
         24    2    1    2    0    0  0.13622457071E+04 -0.59828374173E+02 -0.52716517258E+03  0.14640449085E+04  0.78940319972E+02 0.  0.
        254    2    1    2    0    0 -0.13622457071E+04  0.59828374173E+02  0.33491262422E+04  0.37438950966E+04  0.96995417799E+03 0.  0.
         23    2    4    4    0    0 -0.95048984191E+03  0.46958732700E+03  0.18589037781E+04  0.21418710731E+04  0.90250986666E+02 0.  0.
         23    2    4    4    0    0 -0.41175586516E+03 -0.40975895282E+03  0.14902224641E+04  0.16020240234E+04  0.90954314032E+02 0.  0.
          4    1    3    3  502    0  0.98364370996E+03 -0.72128557307E+02 -0.35894606195E+03  0.10495712231E+04  0.00000000000E+00 0. -1.
         -3    1    3    3    0  502  0.37860199711E+03  0.12300183134E+02 -0.16821911063E+03  0.41447368542E+03  0.00000000000E+00 0.  1.
         13    1    5    5    0    0 -0.12373208981E+02  0.19469352594E+02  0.49751982156E+02  0.54839873444E+02  0.00000000000E+00 0.  1.
        -13    1    5    5    0    0 -0.93811663293E+03  0.45011797440E+03  0.18091517959E+04  0.20870311997E+04  0.00000000000E+00 0. -1.
          4    1    6    6  503    0 -0.24872103363E+03 -0.25821380919E+03  0.10341209588E+04  0.10945056789E+04  0.00000000000E+00 0. -1.
         -4    1    6    6    0  503 -0.16303483154E+03 -0.15154514364E+03  0.45610150532E+03  0.50751834451E+03  0.00000000000E+00 0.  1.
<mgrwt>
<rscale>  0 0.43771195E+04</rscale>
<asrwt>0</asrwt>
<pdfrwt beam="1">  1        2 0.61768469E+00 0.43771195E+04</pdfrwt>
<pdfrwt beam="2">  1       -1 0.18353684E+00 0.43771195E+04</pdfrwt>
<totfact> 0.56458437E-02</totfact>
</mgrwt>
</event>
<event>
12    7  0.1701638E-007  0.1971818E+04  0.7818608E-02  0.8619911E-01
         -1   -1    0    0    0  501 -0.00000000000E+00  0.00000000000E+00  0.74047511797E+03  0.74047511797E+03  0.00000000000E+00 0.  1.
          2   -1    0    0  501    0  0.00000000000E+00 -0.00000000000E+00 -0.13126927184E+04  0.13126927184E+04  0.00000000000E+00 0. -1.
         24    2    1    2    0    0  0.50479770410E+03 -0.20384229221E+03 -0.78116715966E+03  0.95530630954E+03  0.77560373661E+02 0.  0.
        254    2    1    2    0    0 -0.50479770410E+03  0.20384229221E+03  0.20894955928E+03  0.10978615268E+04  0.93019761960E+03 0.  0.
         23    2    4    4    0    0  0.40210011782E+02  0.29341103762E+03  0.40069441416E+03  0.50612998240E+03  0.88908174557E+02 0.  0.
         23    2    4    4    0    0 -0.54500771588E+03 -0.89568745408E+02 -0.19174485488E+03  0.59173154438E+03  0.91236838566E+02 0.  0.
          4    1    3    3  502    0  0.35062321752E+03 -0.11081833082E+03 -0.56269526980E+03  0.67219291112E+03  0.00000000000E+00 0. -1.
         -3    1    3    3    0  502  0.15417448658E+03 -0.93023961393E+02 -0.21847188986E+03  0.28311339842E+03  0.00000000000E+00 0.  1.
         13    1    5    5    0    0  0.52713253079E+02  0.85904360297E+02  0.14510281166E+03  0.17667221660E+03  0.00000000000E+00 0. -1.
        -13    1    5    5    0    0 -0.12503241296E+02  0.20750667732E+03  0.25559160250E+03  0.32945776580E+03  0.00000000000E+00 0.  1.
          3    1    6    6  503    0 -0.23271072965E+03 -0.21497177663E+02 -0.36997410228E+02  0.23661196230E+03  0.00000000000E+00 0. -1.
         -3    1    6    6    0  503 -0.31229698624E+03 -0.68071567745E+02 -0.15474744465E+03  0.35511958208E+03  0.00000000000E+00 0.  1.
<mgrwt>
<rscale>  0 0.19718177E+04</rscale>
<asrwt>0</asrwt>
<pdfrwt beam="1">  1        2 0.20195272E+00 0.19718177E+04</pdfrwt>
<pdfrwt beam="2">  1       -1 0.11391925E+00 0.19718177E+04</pdfrwt>
<totfact> 0.12112747E+01</totfact>
</mgrwt>
</event>
<event>
12    7  0.1701638E-007  0.2014647E+04  0.7818608E-02  0.8599803E-01
         -1   -1    0    0    0  501 -0.00000000000E+00  0.00000000000E+00  0.71845124606E+03  0.71845124606E+03  0.00000000000E+00 0.  1.
          2   -1    0    0  501    0  0.00000000000E+00 -0.00000000000E+00 -0.14123450349E+04  0.14123450349E+04  0.00000000000E+00 0. -1.
         24    2    1    2    0    0 -0.76342377411E+03  0.53823192566E+02 -0.34505019674E+02  0.77101766405E+03  0.86976128657E+02 0.  0.
        254    2    1    2    0    0  0.76342377411E+03 -0.53823192566E+02 -0.65938876913E+03  0.13597786169E+04  0.91021510815E+03 0.  0.
         23    2    4    4    0    0  0.81810258071E+03 -0.10176892220E+03 -0.15621382127E+03  0.84373740970E+03  0.88551185643E+02 0.  0.
         23    2    4    4    0    0 -0.54678806604E+02  0.47945729630E+02 -0.50317494786E+03  0.51604120717E+03  0.88458659605E+02 0.  0.
          4    1    3    3  502    0 -0.23841691118E+03  0.49058678710E+01 -0.49382984204E+02  0.24352693939E+03  0.00000000000E+00 0. -1.
         -3    1    3    3    0  502 -0.52500686292E+03  0.48917324695E+02  0.14877964530E+02  0.52749072466E+03  0.00000000000E+00 0.  1.
         13    1    5    5    0    0  0.34160016841E+03 -0.57301908600E+02 -0.23828293130E+02  0.34719154848E+03  0.00000000000E+00 0.  1.
        -13    1    5    5    0    0  0.47650241231E+03 -0.44467013596E+02 -0.13238552814E+03  0.49654586122E+03  0.00000000000E+00 0. -1.
          1    1    6    6  503    0 -0.57240496431E+02  0.34327512708E+02 -0.17080705101E+03  0.18338457197E+03  0.00000000000E+00 0. -1.
         -1    1    6    6    0  503  0.25616898276E+01  0.13618216922E+02 -0.33236789685E+03  0.33265663520E+03  0.00000000000E+00 0.  1.
<mgrwt>
<rscale>  0 0.20146474E+04</rscale>
<asrwt>0</asrwt>
<pdfrwt beam="1">  1        2 0.21728385E+00 0.20146474E+04</pdfrwt>
<pdfrwt beam="2">  1       -1 0.11053096E+00 0.20146474E+04</pdfrwt>
<totfact> 0.11360164E+01</totfact>
</mgrwt>
</event>
<event>
12    7  0.1701638E-007  0.2784117E+04  0.7818608E-02  0.8308216E-01
          2   -1    0    0  501    0  0.00000000000E+00  0.00000000000E+00  0.45875844643E+03  0.45875844643E+03  0.00000000000E+00 0. -1.
         -1   -1    0    0    0  501 -0.00000000000E+00 -0.00000000000E+00 -0.42240688891E+04  0.42240688891E+04  0.00000000000E+00 0.  1.
         24    2    1    2    0    0  0.90912667361E+03  0.23844905429E+03 -0.30382848412E+04  0.31819037289E+04  0.99836381888E+02 0.  0.
        254    2    1    2    0    0 -0.90912667361E+03 -0.23844905429E+03 -0.72702560142E+03  0.15009236066E+04  0.91697120331E+03 0.  0.
         23    2    4    4    0    0  0.31220941472E+02 -0.36215784728E+02  0.15930332249E+03  0.18980633712E+03  0.91447071052E+02 0.  0.
         23    2    4    4    0    0 -0.94034761508E+03 -0.20223326956E+03 -0.88632892391E+03  0.13111172695E+04  0.91091166262E+02 0.  0.
          2    1    3    3  502    0  0.14832903135E+03  0.46909661099E+02 -0.39094937184E+03  0.42076528990E+03  0.00000000000E+00 0. -1.
         -1    1    3    3    0  502  0.76079764226E+03  0.19153939319E+03 -0.26473354694E+04  0.27611384390E+04  0.00000000000E+00 0.  1.
         13    1    5    5    0    0  0.49650042724E+02 -0.56875866369E+02  0.11538256642E+03  0.13788809793E+03  0.00000000000E+00 0.  1.
        -13    1    5    5    0    0 -0.18429101253E+02  0.20660081641E+02  0.43920756073E+02  0.51918239188E+02  0.00000000000E+00 0. -1.
          1    1    6    6  503    0 -0.80254426670E+03 -0.18728968310E+03 -0.79538343959E+03  0.11453338122E+04  0.00000000000E+00 0. -1.
         -1    1    6    6    0  503 -0.13780334838E+03 -0.14943586462E+02 -0.90945484325E+02  0.16578345732E+03  0.00000000000E+00 0.  1.
<mgrwt>
<rscale>  0 0.27841173E+04</rscale>
<asrwt>0</asrwt>
<pdfrwt beam="1">  1        2 0.70578223E-01 0.27841173E+04</pdfrwt>
<pdfrwt beam="2">  1       -1 0.64985674E+00 0.27841173E+04</pdfrwt>
<totfact> 0.19546464E-02</totfact>
</mgrwt>
</event>
<event>
12    7  0.1701638E-007  0.1658593E+04  0.7818608E-02  0.8785339E-01
          2   -1    0    0  501    0  0.00000000000E+00  0.00000000000E+00  0.14801501935E+04  0.14801501935E+04  0.00000000000E+00 0. -1.
         -1   -1    0    0    0  501 -0.00000000000E+00 -0.00000000000E+00 -0.46463722005E+03  0.46463722005E+03  0.00000000000E+00 0.  1.
         24    2    1    2    0    0  0.24023905529E+03 -0.52935062358E+03  0.34664636400E+03  0.68126268381E+03  0.77641846397E+02 0.  0.
        254    2    1    2    0    0 -0.24023905529E+03  0.52935062358E+03  0.66886660946E+03  0.12635247297E+04  0.90065826763E+03 0.  0.
         23    2    4    4    0    0 -0.12461099749E+03  0.72558537094E+03  0.25799782363E+03  0.78545705987E+03  0.91530785423E+02 0.  0.
         23    2    4    4    0    0 -0.11562805780E+03 -0.19623474736E+03  0.41086878583E+03  0.47806766988E+03  0.88643183541E+02 0.  0.
          2    1    3    3  502    0  0.25606588296E+02 -0.28083250962E+02  0.64238461608E+01  0.38543898976E+02  0.00000000000E+00 0. -1.
         -1    1    3    3    0  502  0.21463246699E+03 -0.50126737262E+03  0.34022251784E+03  0.64271878484E+03  0.00000000000E+00 0.  1.
         13    1    5    5    0    0 -0.54735664012E+02  0.39868147608E+03  0.94691929740E+02  0.41341199045E+03  0.00000000000E+00 0. -1.
        -13    1    5    5    0    0 -0.69875333478E+02  0.32690389485E+03  0.16330589389E+03  0.37204506942E+03  0.00000000000E+00 0.  1.
          2    1    6    6  503    0 -0.17947498479E+02 -0.65300011278E+02  0.57778759556E+02  0.89020161932E+02  0.00000000000E+00 0.  1.
         -2    1    6    6    0  503 -0.97680559318E+02 -0.13093473608E+03  0.35309002628E+03  0.38904750794E+03  0.00000000000E+00 0. -1.
<mgrwt>
<rscale>  0 0.16585932E+04</rscale>
<asrwt>0</asrwt>
<pdfrwt beam="1">  1        2 0.22771541E+00 0.16585932E+04</pdfrwt>
<pdfrwt beam="2">  1       -1 0.71482650E-01 0.16585932E+04</pdfrwt>
<totfact> 0.27999849E+01</totfact>
</mgrwt>
</event>
<event>
12    7  0.1701638E-007  0.1794545E+04  0.7818608E-02  0.8709206E-01
         -1   -1    0    0    0  501 -0.00000000000E+00  0.00000000000E+00  0.43551889855E+03  0.43551889855E+03  0.00000000000E+00 0.  1.
          2   -1    0    0  501    0  0.00000000000E+00 -0.00000000000E+00 -0.18485939916E+04  0.18485939916E+04  0.00000000000E+00 0. -1.
         24    2    1    2    0    0  0.25266122368E+03 -0.50421858930E+03 -0.68305590349E+02  0.57406518648E+03  0.82529418414E+02 0.  0.
        254    2    1    2    0    0 -0.25266122368E+03  0.50421858930E+03 -0.13447695027E+04  0.17100477037E+04  0.89318758035E+03 0.  0.
         23    2    4    4    0    0 -0.56314238214E+02 -0.24562363056E+03 -0.43287361782E+03  0.50978902482E+03  0.94884242638E+02 0.  0.
         23    2    4    4    0    0 -0.19634698547E+03  0.74984221986E+03 -0.91189588488E+03  0.12002586789E+04  0.90836655175E+02 0.  0.
          2    1    3    3  502    0  0.22649298792E+02 -0.91757698272E+02 -0.34445116669E+02  0.10059290229E+03  0.00000000000E+00 0. -1.
         -1    1    3    3    0  502  0.23001192489E+03 -0.41246089103E+03 -0.33860473681E+02  0.47347228419E+03  0.00000000000E+00 0.  1.
         13    1    5    5    0    0 -0.41553758812E+02 -0.24611006461E+03 -0.37804715346E+03  0.45300831009E+03  0.00000000000E+00 0. -1.
        -13    1    5    5    0    0 -0.14760479402E+02  0.48643404583E+00 -0.54826464362E+02  0.56780714725E+02  0.00000000000E+00 0.  1.
          1    1    6    6  503    0 -0.61074568572E+02  0.34827960650E+03 -0.36192498907E+03  0.50598269234E+03  0.00000000000E+00 0. -1.
         -1    1    6    6    0  503 -0.13527241690E+03  0.40156261336E+03 -0.54997089581E+03  0.69427598652E+03  0.00000000000E+00 0.  1.
<mgrwt>
<rscale>  0 0.17945446E+04</rscale>
<asrwt>0</asrwt>
<pdfrwt beam="1">  1        2 0.28439908E+00 0.17945446E+04</pdfrwt>
<pdfrwt beam="2">  1       -1 0.67002907E-01 0.17945446E+04</pdfrwt>
<totfact> 0.19682536E+01</totfact>
</mgrwt>
</event>
<event>
12    7  0.1701638E-007  0.1045167E+04  0.7818608E-02  0.9260348E-01
         -1   -1    0    0    0  501 -0.00000000000E+00  0.00000000000E+00  0.14314186247E+04  0.14314186247E+04  0.00000000000E+00 0.  1.
          2   -1    0    0  501    0  0.00000000000E+00 -0.00000000000E+00 -0.19078518993E+03  0.19078518993E+03  0.00000000000E+00 0. -1.
         24    2    1    2    0    0  0.13367928070E+02  0.61289836289E+02  0.24778841208E+02  0.10467985455E+03  0.80054577911E+02 0.  0.
        254    2    1    2    0    0 -0.13367928070E+02 -0.61289836289E+02  0.12158545936E+04  0.15175239601E+04  0.90589261571E+03 0.  0.
         23    2    4    4    0    0  0.20280056309E+03  0.16170982493E+02 -0.50466615170E+02  0.22733185646E+03  0.87996162702E+02 0.  0.
         23    2    4    4    0    0 -0.21616849116E+03 -0.77460818782E+02  0.12663212088E+04  0.12901921036E+04  0.91089327270E+02 0.  0.
          4    1    3    3  502    0  0.30241939365E+02  0.66708004629E+02 -0.11748964846E+01  0.73252393543E+02  0.00000000000E+00 0. -1.
         -3    1    3    3    0  502 -0.16874011295E+02 -0.54181683394E+01  0.25953737693E+02  0.31427461010E+02  0.00000000000E+00 0.  1.
         13    1    5    5    0    0  0.21160939482E+03  0.18776531245E+02 -0.47591420642E+02  0.21770631002E+03  0.00000000000E+00 0. -1.
        -13    1    5    5    0    0 -0.88088317312E+01 -0.26055487515E+01 -0.28751945278E+01  0.96255464436E+01  0.00000000000E+00 0.  1.
          1    1    6    6  503    0 -0.18292748867E+03 -0.97786785005E+02  0.10979535954E+04  0.11173749679E+04  0.00000000000E+00 0. -1.
         -1    1    6    6    0  503 -0.33241002488E+02  0.20325966223E+02  0.16836761340E+03  0.17281713570E+03  0.00000000000E+00 0.  1.
<mgrwt>
<rscale>  0 0.10451669E+04</rscale>
<asrwt>0</asrwt>
<pdfrwt beam="1">  1        2 0.29351569E-01 0.10451669E+04</pdfrwt>
<pdfrwt beam="2">  1       -1 0.22021824E+00 0.10451669E+04</pdfrwt>
<totfact> 0.22953181E+01</totfact>
</mgrwt>
</event>
<event>
12    7  0.1701638E-007  0.1556320E+04  0.7818608E-02  0.8847841E-01
          2   -1    0    0  501    0  0.00000000000E+00  0.00000000000E+00  0.63643216436E+03  0.63643216436E+03  0.00000000000E+00 0. -1.
         -1   -1    0    0    0  501 -0.00000000000E+00 -0.00000000000E+00 -0.95144913703E+03  0.95144913703E+03  0.00000000000E+00 0.  1.
         24    2    1    2    0    0  0.95545837969E+02 -0.37448751042E+02  0.40845147245E+03  0.42919155498E+03  0.82712571060E+02 0.  0.
        254    2    1    2    0    0 -0.95545837969E+02  0.37448751042E+02 -0.72346844512E+03  0.11586897464E+04  0.89923518683E+03 0.  0.
         23    2    4    4    0    0  0.32999466520E+03  0.17830982805E+03 -0.54441110186E+03  0.66751204844E+03  0.92184668692E+02 0.  0.
         23    2    4    4    0    0 -0.42554050317E+03 -0.14086107701E+03 -0.17905734326E+03  0.49117769797E+03  0.90925441735E+02 0.  0.
          2    1    3    3  502    0  0.90096208388E+02 -0.46208004051E+02  0.40620360345E+03  0.41863334060E+03  0.00000000000E+00 0. -1.
         -1    1    3    3    0  502  0.54496295804E+01  0.87592530093E+01  0.22478689973E+01  0.10558214379E+02  0.00000000000E+00 0.  1.
         13    1    5    5    0    0  0.19502021552E+03  0.15245744453E+03 -0.32350996036E+03  0.40735101731E+03  0.00000000000E+00 0.  1.
        -13    1    5    5    0    0  0.13497444968E+03  0.25852383520E+02 -0.22090114149E+03  0.26016103112E+03  0.00000000000E+00 0. -1.
          1    1    6    6  503    0 -0.94727578927E+02  0.44589516143E+01 -0.52076932772E+02  0.10819058825E+03  0.00000000000E+00 0. -1.
         -1    1    6    6    0  503 -0.33081292424E+03 -0.14532002862E+03 -0.12698041049E+03  0.38298710972E+03  0.00000000000E+00 0.  1.
<mgrwt>
<rscale>  0 0.15563198E+04</rscale>
<asrwt>0</asrwt>
<pdfrwt beam="1">  1        2 0.97912641E-01 0.15563198E+04</pdfrwt>
<pdfrwt beam="2">  1       -1 0.14637679E+00 0.15563198E+04</pdfrwt>
<totfact> 0.18900960E+01</totfact>
</mgrwt>
</event>
<event>
12    7  0.1701638E-007  0.1822148E+04  0.7818608E-02  0.8694609E-01
          2   -1    0    0  501    0  0.00000000000E+00  0.00000000000E+00  0.12733179315E+04  0.12733179315E+04  0.00000000000E+00 0. -1.
         -1   -1    0    0    0  501 -0.00000000000E+00 -0.00000000000E+00 -0.65188445837E+03  0.65188445837E+03  0.00000000000E+00 0.  1.
         24    2    1    2    0    0 -0.22389880316E+03  0.46826087123E+03 -0.23992002529E+03  0.57733505507E+03  0.79719694539E+02 0.  0.
        254    2    1    2    0    0  0.22389880316E+03 -0.46826087123E+03  0.86135349847E+03  0.13478673349E+04  0.89745060335E+03 0.  0.
         23    2    4    4    0    0  0.71759257509E+02 -0.75314564724E+02 -0.17536789751E+03  0.22506644157E+03  0.95285512772E+02 0.  0.
         23    2    4    4    0    0  0.15213954565E+03 -0.39294630650E+03  0.10367213960E+04  0.11228008933E+04  0.91309101024E+02 0.  0.
          2    1    3    3  502    0 -0.15389607279E+02  0.10389925234E+03 -0.55718008522E+02  0.11889655640E+03  0.00000000000E+00 0. -1.
         -1    1    3    3    0  502 -0.20850919588E+03  0.36436161889E+03 -0.18420201677E+03  0.45843849867E+03  0.00000000000E+00 0.  1.
         13    1    5    5    0    0  0.28347836330E+02 -0.67661641006E+02 -0.41844969532E+02  0.84455307491E+02  0.00000000000E+00 0. -1.
        -13    1    5    5    0    0  0.43411421179E+02 -0.76529237184E+01 -0.13352292798E+03  0.14061113408E+03  0.00000000000E+00 0.  1.
          4    1    6    6  503    0 -0.86578230849E+01 -0.17735721194E+02  0.25156205378E+02  0.31974182959E+02  0.00000000000E+00 0. -1.
         -4    1    6    6    0  503  0.16079736873E+03 -0.37521058531E+03  0.10115651906E+04  0.10908267103E+04  0.00000000000E+00 0.  1.
<mgrwt>
<rscale>  0 0.18221484E+04</rscale>
<asrwt>0</asrwt>
<pdfrwt beam="1">  1        2 0.19589507E+00 0.18221484E+04</pdfrwt>
<pdfrwt beam="2">  1       -1 0.10028992E+00 0.18221484E+04</pdfrwt>
<totfact> 0.17433776E+01</totfact>
</mgrwt>
</event>
<event>
12    7  0.1701638E-007  0.1721592E+04  0.7818608E-02  0.8749145E-01
          2   -1    0    0  501    0  0.00000000000E+00  0.00000000000E+00  0.46317019732E+03  0.46317019732E+03  0.00000000000E+00 0. -1.
         -1   -1    0    0    0  501 -0.00000000000E+00 -0.00000000000E+00 -0.15997778725E+04  0.15997778725E+04  0.00000000000E+00 0.  1.
         24    2    1    2    0    0  0.42201850729E+03 -0.70464511014E+02  0.12477193394E+03  0.45385217600E+03  0.85725692515E+02 0.  0.
        254    2    1    2    0    0 -0.42201850729E+03  0.70464511014E+02 -0.12613796091E+04  0.16090958938E+04  0.90279909689E+03 0.  0.
         23    2    4    4    0    0 -0.60817135557E+03  0.60342751110E+02 -0.12563716020E+04  0.13999058405E+04  0.88051772747E+02 0.  0.
         23    2    4    4    0    0  0.18615284829E+03  0.10121759904E+02 -0.50080070999E+01  0.20919005326E+03  0.94763206457E+02 0.  0.
          4    1    3    3  502    0  0.26876399247E+03 -0.77947060430E+02  0.10612415741E+03  0.29928609167E+03  0.00000000000E+00 0. -1.
         -3    1    3    3    0  502  0.15325451482E+03  0.74825494157E+01  0.18647776529E+02  0.15456608434E+03  0.00000000000E+00 0.  1.
         13    1    5    5    0    0 -0.57954580952E+03  0.53661519218E+02 -0.11413057703E+04  0.12811447089E+04  0.00000000000E+00 0.  1.
        -13    1    5    5    0    0 -0.28625546055E+02  0.66812318921E+01 -0.11506583172E+03  0.11876113158E+03  0.00000000000E+00 0. -1.
          2    1    6    6  503    0  0.67945363162E+02 -0.36122324786E+02  0.20690147906E+02  0.79683605237E+02  0.00000000000E+00 0. -1.
         -2    1    6    6    0  503  0.11820748513E+03  0.46244084689E+02 -0.25698155006E+02  0.12950644802E+03  0.00000000000E+00 0.  1.
<mgrwt>
<rscale>  0 0.17215916E+04</rscale>
<asrwt>0</asrwt>
<pdfrwt beam="1">  1        2 0.71256955E-01 0.17215916E+04</pdfrwt>
<pdfrwt beam="2">  1       -1 0.24611967E+00 0.17215916E+04</pdfrwt>
<totfact> 0.54013280E+00</totfact>
</mgrwt>
</event>
<event>
12    7  0.1701638E-007  0.1486344E+04  0.7818608E-02  0.8893585E-01
          2   -1    0    0  501    0  0.00000000000E+00  0.00000000000E+00  0.96626078450E+03  0.96626078450E+03  0.00000000000E+00 0. -1.
         -1   -1    0    0    0  501 -0.00000000000E+00 -0.00000000000E+00 -0.57158969568E+03  0.57158969568E+03  0.00000000000E+00 0.  1.
         24    2    1    2    0    0 -0.38869605593E+03  0.25714025615E+03  0.14621890865E+03  0.49491621006E+03  0.79726723871E+02 0.  0.
        254    2    1    2    0    0  0.38869605593E+03 -0.25714025615E+03  0.24845218017E+03  0.10429342701E+04  0.89932067180E+03 0.  0.
         23    2    4    4    0    0  0.25636240878E+03  0.11199128385E+03 -0.25984663350E+03  0.39273820527E+03  0.91974412963E+02 0.  0.
         23    2    4    4    0    0  0.13233364716E+03 -0.36913154001E+03  0.50829881367E+03  0.65019606486E+03  0.10303858877E+03 0.  0.
          2    1    3    3  502    0 -0.15740225857E+02  0.32074320968E+01 -0.81892228106E+01  0.18030687755E+02  0.00000000000E+00 0. -1.
         -1    1    3    3    0  502 -0.37295583008E+03  0.25393282406E+03  0.15440813146E+03  0.47688552231E+03  0.00000000000E+00 0.  1.
         13    1    5    5    0    0  0.22990067559E+03  0.92798845076E+02 -0.26106168533E+03  0.36002659600E+03  0.00000000000E+00 0. -1.
        -13    1    5    5    0    0  0.26461733192E+02  0.19192438776E+02  0.12150518262E+01  0.32711609264E+02  0.00000000000E+00 0.  1.
          1    1    6    6  503    0  0.10322162989E+03 -0.35811123903E+03  0.48307601477E+03  0.61013178941E+03  0.00000000000E+00 0. -1.
         -1    1    6    6    0  503  0.29112017264E+02 -0.11020300974E+02  0.25222798904E+02  0.40064275449E+02  0.00000000000E+00 0.  1.
<mgrwt>
<rscale>  0 0.14863441E+04</rscale>
<asrwt>0</asrwt>
<pdfrwt beam="1">  1        2 0.14865551E+00 0.14863441E+04</pdfrwt>
<pdfrwt beam="2">  1       -1 0.87936876E-01 0.14863441E+04</pdfrwt>
<totfact> 0.37174363E+01</totfact>
</mgrwt>
</event>
<event>
12    7  0.1701638E-007  0.2411309E+04  0.7818608E-02  0.8435282E-01
         -1   -1    0    0    0  501 -0.00000000000E+00  0.00000000000E+00  0.70413274896E+03  0.70413274896E+03  0.00000000000E+00 0.  1.
          2   -1    0    0  501    0  0.00000000000E+00 -0.00000000000E+00 -0.20643878760E+04  0.20643878760E+04  0.00000000000E+00 0. -1.
         24    2    1    2    0    0  0.92804458403E+03  0.18207108474E+03 -0.11805345312E+03  0.95630144893E+03  0.78480657340E+02 0.  0.
        254    2    1    2    0    0 -0.92804458403E+03 -0.18207108474E+03 -0.12422016739E+04  0.18122191760E+04  0.92013950759E+03 0.  0.
         23    2    4    4    0    0 -0.15373008618E+03 -0.25436268881E+03  0.35911876872E+02  0.31330410795E+03  0.92393096630E+02 0.  0.
         23    2    4    4    0    0 -0.77431449786E+03  0.72291604068E+02 -0.12781135508E+04  0.14989150681E+04  0.91559352289E+02 0.  0.
          2    1    3    3  502    0  0.31646905083E+03  0.86280717781E+02 -0.70011635536E+02  0.33540818640E+03  0.00000000000E+00 0. -1.
         -1    1    3    3    0  502  0.61157553320E+03  0.95790366958E+02 -0.48041817581E+02  0.62089326253E+03  0.00000000000E+00 0.  1.
         13    1    5    5    0    0 -0.14922328529E+03 -0.26131166904E+03  0.40824642263E+02  0.30367421468E+03  0.00000000000E+00 0. -1.
        -13    1    5    5    0    0 -0.45068008899E+01  0.69489802323E+01 -0.49127653912E+01  0.96298932662E+01  0.00000000000E+00 0.  1.
          3    1    6    6  503    0 -0.70172551325E+03  0.50032421217E+02 -0.11919182498E+04  0.13840487901E+04  0.00000000000E+00 0. -1.
         -3    1    6    6    0  503 -0.72588984601E+02  0.22259182851E+02 -0.86195300948E+02  0.11486627796E+03  0.00000000000E+00 0.  1.
<mgrwt>
<rscale>  0 0.24113093E+04</rscale>
<asrwt>0</asrwt>
<pdfrwt beam="1">  1        2 0.31759813E+00 0.24113093E+04</pdfrwt>
<pdfrwt beam="2">  1       -1 0.10832812E+00 0.24113093E+04</pdfrwt>
<totfact> 0.49754969E+00</totfact>
</mgrwt>
</event>
<event>
12    7  0.1701638E-007  0.1305694E+04  0.7818608E-02  0.9025062E-01
         -1   -1    0    0    0  501 -0.00000000000E+00  0.00000000000E+00  0.25959128818E+03  0.25959128818E+03  0.00000000000E+00 0.  1.
          2   -1    0    0  501    0  0.00000000000E+00 -0.00000000000E+00 -0.16418477915E+04  0.16418477915E+04  0.00000000000E+00 0. -1.
         24    2    1    2    0    0 -0.82556065691E+02 -0.24819420268E+03 -0.78810086547E+02  0.28464374796E+03  0.79969789833E+02 0.  0.
        254    2    1    2    0    0  0.82556065691E+02  0.24819420268E+03 -0.13034464168E+04  0.16167953318E+04  0.92012972840E+03 0.  0.
         23    2    4    4    0    0  0.49081453770E+03  0.17141073076E+03 -0.65384649520E+03  0.84028373271E+03  0.90999797494E+02 0.  0.
         23    2    4    4    0    0 -0.40825847201E+03  0.76783471913E+02 -0.64959992161E+03  0.77651159905E+03  0.91757963004E+02 0.  0.
          2    1    3    3  502    0 -0.31608746518E+02 -0.26300821437E+02 -0.32265213815E+02  0.52267485947E+02  0.00000000000E+00 0. -1.
         -1    1    3    3    0  502 -0.50947319173E+02 -0.22189338124E+03 -0.46544872732E+02  0.23237626201E+03  0.00000000000E+00 0.  1.
         13    1    5    5    0    0  0.47256639874E+03  0.16099280874E+03 -0.64885174023E+03  0.81868569456E+03  0.00000000000E+00 0.  1.
        -13    1    5    5    0    0  0.18248138957E+02  0.10417922023E+02 -0.49947549671E+01  0.21598038149E+02  0.00000000000E+00 0. -1.
          3    1    6    6  503    0 -0.66630639301E+02  0.48801201972E+02 -0.13164257870E+03  0.15540581692E+03  0.00000000000E+00 0. -1.
         -3    1    6    6    0  503 -0.34162783270E+03  0.27982269941E+02 -0.51795734291E+03  0.62110578212E+03  0.00000000000E+00 0.  1.
<mgrwt>
<rscale>  0 0.13056943E+04</rscale>
<asrwt>0</asrwt>
<pdfrwt beam="1">  1        2 0.25259197E+00 0.13056943E+04</pdfrwt>
<pdfrwt beam="2">  1       -1 0.39937120E-01 0.13056943E+04</pdfrwt>
<totfact> 0.72042354E+01</totfact>
</mgrwt>
</event>
<event>
12    7  0.1701638E-007  0.1785290E+04  0.7818608E-02  0.8714161E-01
          2   -1    0    0  501    0  0.00000000000E+00  0.00000000000E+00  0.19795649124E+04  0.19795649124E+04  0.00000000000E+00 0. -1.
         -1   -1    0    0    0  501 -0.00000000000E+00 -0.00000000000E+00 -0.40252048811E+03  0.40252048811E+03  0.00000000000E+00 0.  1.
         24    2    1    2    0    0 -0.38370665478E+02  0.34450327284E+03 -0.16516553947E+03  0.39250425853E+03  0.81394868187E+02 0.  0.
        254    2    1    2    0    0  0.38370665478E+02 -0.34450327284E+03  0.17422099637E+04  0.19895811420E+04  0.89609304748E+03 0.  0.
         23    2    4    4    0    0  0.28703953832E+02  0.17693147325E+03  0.37678593314E+02  0.20481984531E+03  0.91666948496E+02 0.  0.
         23    2    4    4    0    0  0.96667116460E+01 -0.52143474609E+03  0.17045313704E+04  0.17847612966E+04  0.89207922986E+02 0.  0.
          4    1    3    3  502    0 -0.23825129920E+02  0.19555411430E+03 -0.13768103006E+03  0.24034374233E+03  0.00000000000E+00 0. -1.
         -3    1    3    3    0  502 -0.14545535559E+02  0.14894915854E+03 -0.27484509411E+02  0.15216051620E+03  0.00000000000E+00 0.  1.
         13    1    5    5    0    0 -0.24889056311E+02  0.27658705030E+02 -0.11198950263E+02  0.38857246106E+02  0.00000000000E+00 0. -1.
        -13    1    5    5    0    0  0.53593010143E+02  0.14927276822E+03  0.48877543577E+02  0.16596259921E+03  0.00000000000E+00 0.  1.
          1    1    6    6  503    0  0.24779114135E+02 -0.10677856974E+03  0.46008845797E+03  0.47296623200E+03  0.00000000000E+00 0. -1.
         -1    1    6    6    0  503 -0.15112402489E+02 -0.41465617635E+03  0.12444429124E+04  0.13117950646E+04  0.00000000000E+00 0.  1.
<mgrwt>
<rscale>  0 0.17852904E+04</rscale>
<asrwt>0</asrwt>
<pdfrwt beam="1">  1        2 0.30454844E+00 0.17852904E+04</pdfrwt>
<pdfrwt beam="2">  1       -1 0.61926230E-01 0.17852904E+04</pdfrwt>
<totfact> 0.19526496E+01</totfact>
</mgrwt>
</event>
<event>
12    7  0.1701638E-007  0.2467813E+04  0.7818608E-02  0.8414543E-01
          2   -1    0    0  501    0  0.00000000000E+00  0.00000000000E+00  0.73433740528E+03  0.73433740528E+03  0.00000000000E+00 0. -1.
         -1   -1    0    0    0  501 -0.00000000000E+00 -0.00000000000E+00 -0.20733315903E+04  0.20733315903E+04  0.00000000000E+00 0.  1.
         24    2    1    2    0    0  0.71705963968E+03 -0.15167891004E+03 -0.14621810262E+04  0.16376763544E+04  0.82640605749E+02 0.  0.
        254    2    1    2    0    0 -0.71705963968E+03  0.15167891004E+03  0.12318684117E+03  0.11699926412E+04  0.90361870499E+03 0.  0.
         23    2    4    4    0    0 -0.35807070626E+03 -0.36979463833E+03  0.87701799809E+02  0.52933430795E+03  0.86836044744E+02 0.  0.
         23    2    4    4    0    0 -0.35898893342E+03  0.52147354837E+03  0.35485041358E+02  0.64065833325E+03  0.91521559378E+02 0.  0.
          2    1    3    3  502    0  0.15815914498E+02 -0.16264842084E+02 -0.34015962988E+02  0.40887332726E+02  0.00000000000E+00 0. -1.
         -1    1    3    3    0  502  0.70124372518E+03 -0.13541406795E+03 -0.14281650632E+04  0.15967890216E+04  0.00000000000E+00 0.  1.
         13    1    5    5    0    0 -0.35815029795E+03 -0.37398255197E+03  0.86667757490E+02  0.52501989037E+03  0.00000000000E+00 0. -1.
        -13    1    5    5    0    0  0.79591691551E-01  0.41879136417E+01  0.10340423195E+01  0.43144175767E+01  0.00000000000E+00 0.  1.
          1    1    6    6  503    0 -0.15943927136E+03  0.20602879309E+03  0.57353977659E+02  0.26675498793E+03  0.00000000000E+00 0.  1.
         -1    1    6    6    0  503 -0.19954966206E+03  0.31544475528E+03 -0.21868936301E+02  0.37390334531E+03  0.00000000000E+00 0. -1.
<mgrwt>
<rscale>  0 0.24678127E+04</rscale>
<asrwt>0</asrwt>
<pdfrwt beam="1">  1        2 0.11297498E+00 0.24678127E+04</pdfrwt>
<pdfrwt beam="2">  1       -1 0.31897409E+00 0.24678127E+04</pdfrwt>
<totfact> 0.97737847E-01</totfact>
</mgrwt>
</event>
<event>
12    7  0.1701638E-007  0.1089526E+04  0.7818608E-02  0.9215462E-01
         -1   -1    0    0    0  501 -0.00000000000E+00  0.00000000000E+00  0.18759725337E+03  0.18759725337E+03  0.00000000000E+00 0.  1.
          2   -1    0    0  501    0  0.00000000000E+00 -0.00000000000E+00 -0.15819340397E+04  0.15819340397E+04  0.00000000000E+00 0. -1.
         24    2    1    2    0    0 -0.57644342949E+02 -0.10191037656E+03 -0.50130367962E+02  0.15050576424E+03  0.80189376818E+02 0.  0.
        254    2    1    2    0    0  0.57644342949E+02  0.10191037656E+03 -0.13442064184E+04  0.16190255288E+04  0.89478722202E+03 0.  0.
         23    2    4    4    0    0  0.39783749126E+02 -0.21973621205E+03 -0.75611687968E+01  0.24108828302E+03  0.90551860024E+02 0.  0.
         23    2    4    4    0    0  0.17860593823E+02  0.32164658861E+03 -0.13366452496E+04  0.13779372458E+04  0.91186629679E+02 0.  0.
          4    1    3    3  502    0 -0.40881986381E+01  0.92320026235E+01 -0.21649322289E+02  0.23887996905E+02  0.00000000000E+00 0. -1.
         -3    1    3    3    0  502 -0.53556144311E+02 -0.11114237918E+03 -0.28481045673E+02  0.12661776734E+03  0.00000000000E+00 0.  1.
         13    1    5    5    0    0 -0.86174975926E+01 -0.12083060696E+01  0.13728670510E+02  0.16254158307E+02  0.00000000000E+00 0. -1.
        -13    1    5    5    0    0  0.48401246719E+02 -0.21852790598E+03 -0.21289839306E+02  0.22483412471E+03  0.00000000000E+00 0.  1.
          3    1    6    6  503    0  0.58794929861E+00 -0.35868330372E+01 -0.20433971471E+01  0.41697155197E+01  0.00000000000E+00 0. -1.
         -3    1    6    6    0  503  0.17272644524E+02  0.32523342164E+03 -0.13346018524E+04  0.13737675303E+04  0.00000000000E+00 0.  1.
<mgrwt>
<rscale>  0 0.10895255E+04</rscale>
<asrwt>0</asrwt>
<pdfrwt beam="1">  1        2 0.24337447E+00 0.10895255E+04</pdfrwt>
<pdfrwt beam="2">  1       -1 0.28861116E-01 0.10895255E+04</pdfrwt>
<totfact> 0.14102673E+02</totfact>
</mgrwt>
</event>
<event>
12    7  0.1701638E-007  0.1202320E+04  0.7818608E-02  0.9110829E-01
          2   -1    0    0  501    0  0.00000000000E+00  0.00000000000E+00  0.17315243358E+04  0.17315243358E+04  0.00000000000E+00 0. -1.
         -1   -1    0    0    0  501 -0.00000000000E+00 -0.00000000000E+00 -0.20871386122E+03  0.20871386122E+03  0.00000000000E+00 0.  1.
         24    2    1    2    0    0 -0.25159802598E+03 -0.88409273501E+01  0.25193599159E+03  0.36469536891E+03  0.78429838529E+02 0.  0.
        254    2    1    2    0    0  0.25159802598E+03  0.88409273501E+01  0.12708744830E+04  0.15755428281E+04  0.89656763438E+03 0.  0.
         23    2    4    4    0    0 -0.11966196201E+03 -0.35913515173E+03  0.42144297318E+03  0.57406333703E+03  0.92938113370E+02 0.  0.
         23    2    4    4    0    0  0.37125998799E+03  0.36797607908E+03  0.84943150980E+03  0.10014794911E+04  0.90481532645E+02 0.  0.
          4    1    3    3  502    0 -0.11886341101E+03  0.46829315595E+00  0.17326459221E+03  0.21011746403E+03  0.00000000000E+00 0. -1.
         -3    1    3    3    0  502 -0.13273461497E+03 -0.93092205060E+01  0.78671399383E+02  0.15457790488E+03  0.00000000000E+00 0.  1.
         13    1    5    5    0    0 -0.94939578709E+02 -0.33318961120E+03  0.40925947468E+03  0.53621092700E+03  0.00000000000E+00 0. -1.
        -13    1    5    5    0    0 -0.24722383300E+02 -0.25945540525E+02  0.12183498502E+02  0.37852410028E+02  0.00000000000E+00 0.  1.
          2    1    6    6  503    0  0.70820873738E+02  0.26742277200E+02  0.11313397887E+03  0.13612509953E+03  0.00000000000E+00 0.  1.
         -2    1    6    6    0  503  0.30043911426E+03  0.34123380188E+03  0.73629753092E+03  0.86535439154E+03  0.00000000000E+00 0. -1.
<mgrwt>
<rscale>  0 0.12023196E+04</rscale>
<asrwt>0</asrwt>
<pdfrwt beam="1">  1        2 0.26638835E+00 0.12023196E+04</pdfrwt>
<pdfrwt beam="2">  1       -1 0.32109826E-01 0.12023196E+04</pdfrwt>
<totfact> 0.95805678E+01</totfact>
</mgrwt>
</event>
<event>
12    7  0.1701638E-007  0.1300280E+04  0.7818608E-02  0.9029343E-01
          2   -1    0    0  501    0  0.00000000000E+00  0.00000000000E+00  0.62481705328E+03  0.62481705328E+03  0.00000000000E+00 0. -1.
         -1   -1    0    0    0  501 -0.00000000000E+00 -0.00000000000E+00 -0.67648929092E+03  0.67648929092E+03  0.00000000000E+00 0.  1.
         24    2    1    2    0    0  0.13734566811E+03  0.73913592899E+02 -0.30471158359E+03  0.35173611106E+03  0.80883192855E+02 0.  0.
        254    2    1    2    0    0 -0.13734566811E+03 -0.73913592899E+02  0.25303934595E+03  0.94957023315E+03  0.90184680812E+03 0.  0.
         23    2    4    4    0    0  0.34799515317E+02  0.36068579514E+03  0.28872539093E+03  0.47180072517E+03  0.89041135604E+02 0.  0.
         23    2    4    4    0    0 -0.17214518343E+03 -0.43459938804E+03 -0.35686044974E+02  0.47776950797E+03  0.92084834168E+02 0.  0.
          2    1    3    3  502    0  0.13971071928E+02  0.32909598974E+02 -0.26043121379E+02  0.44232078027E+02  0.00000000000E+00 0. -1.
         -1    1    3    3    0  502  0.12337459618E+03  0.41003993925E+02 -0.27866846221E+03  0.30750403303E+03  0.00000000000E+00 0.  1.
         13    1    5    5    0    0  0.13820009161E+02  0.34590456101E+03  0.27799351787E+03  0.44398350640E+03  0.00000000000E+00 0. -1.
        -13    1    5    5    0    0  0.20979506156E+02  0.14781234128E+02  0.10731873057E+02  0.27817218772E+02  0.00000000000E+00 0.  1.
          2    1    6    6  503    0 -0.14504060697E+03 -0.41443784433E+03 -0.17566912663E+02  0.43943611697E+03  0.00000000000E+00 0. -1.
         -2    1    6    6    0  503 -0.27104576461E+02 -0.20161543710E+02 -0.18119132310E+02  0.38333391001E+02  0.00000000000E+00 0.  1.
<mgrwt>
<rscale>  0 0.13002800E+04</rscale>
<asrwt>0</asrwt>
<pdfrwt beam="1">  1        2 0.96125700E-01 0.13002800E+04</pdfrwt>
<pdfrwt beam="2">  1       -1 0.10407528E+00 0.13002800E+04</pdfrwt>
<totfact> 0.45971986E+01</totfact>
</mgrwt>
</event>
<event>
12    7  0.1701638E-007  0.1474487E+04  0.7818608E-02  0.8901598E-01
         -1   -1    0    0    0  501 -0.00000000000E+00  0.00000000000E+00  0.22304152143E+03  0.22304152143E+03  0.00000000000E+00 0.  1.
          2   -1    0    0  501    0  0.00000000000E+00 -0.00000000000E+00 -0.24368909335E+04  0.24368909335E+04  0.00000000000E+00 0. -1.
         24    2    1    2    0    0 -0.84787796929E+02  0.19812769192E+03  0.27689802920E+02  0.23156687507E+03  0.80080831860E+02 0.  0.
        254    2    1    2    0    0  0.84787796929E+02 -0.19812769192E+03 -0.22415392150E+04  0.24283655799E+04  0.90885520537E+03 0.  0.
         23    2    4    4    0    0 -0.25867302513E+02 -0.43452377730E+03 -0.20345404820E+04  0.20825496353E+04  0.90432186945E+02 0.  0.
         23    2    4    4    0    0  0.11065509944E+03  0.23639608538E+03 -0.20699873306E+03  0.34581594458E+03  0.92803727407E+02 0.  0.
          4    1    3    3  502    0 -0.47810266304E+02  0.27555897801E+02  0.10671581536E+02  0.56205264168E+02  0.00000000000E+00 0. -1.
         -3    1    3    3    0  502 -0.36977530626E+02  0.17057179412E+03  0.17018221384E+02  0.17536161090E+03  0.00000000000E+00 0.  1.
         13    1    5    5    0    0  0.42617359932E+01 -0.39406234163E+03 -0.18138704577E+04  0.18561867710E+04  0.00000000000E+00 0. -1.
        -13    1    5    5    0    0 -0.30129038506E+02 -0.40461435665E+02 -0.22067002426E+03  0.22636286432E+03  0.00000000000E+00 0.  1.
          4    1    6    6  503    0  0.37640698519E+02  0.16753143513E+03 -0.16110764704E+03  0.23545546899E+03  0.00000000000E+00 0. -1.
         -4    1    6    6    0  503  0.73014400923E+02  0.68864650252E+02 -0.45891086016E+02  0.11036047559E+03  0.00000000000E+00 0.  1.
<mgrwt>
<rscale>  0 0.14744868E+04</rscale>
<asrwt>0</asrwt>
<pdfrwt beam="1">  1        2 0.37490630E+00 0.14744868E+04</pdfrwt>
<pdfrwt beam="2">  1       -1 0.34314080E-01 0.14744868E+04</pdfrwt>
<totfact> 0.33646038E+01</totfact>
</mgrwt>
</event>
<event>
12    7  0.1701638E-007  0.1595803E+04  0.7818608E-02  0.8823131E-01
          2   -1    0    0  501    0  0.00000000000E+00  0.00000000000E+00  0.35335178327E+04  0.35335178327E+04  0.00000000000E+00 0. -1.
         -1   -1    0    0    0  501 -0.00000000000E+00 -0.00000000000E+00 -0.18017356964E+03  0.18017356964E+03  0.00000000000E+00 0.  1.
         24    2    1    2    0    0  0.76797935010E+02 -0.19702006352E+03  0.22628122465E+04  0.22741535666E+04  0.82099653696E+02 0.  0.
        254    2    1    2    0    0 -0.76797935010E+02  0.19702006352E+03  0.10905320165E+04  0.14395378357E+04  0.91558411585E+03 0.  0.
         23    2    4    4    0    0 -0.10873922944E+03 -0.35355056133E+03  0.45335084527E+03  0.59190301069E+03  0.89442527461E+02 0.  0.
         23    2    4    4    0    0  0.31941294435E+02  0.55057062485E+03  0.63718117126E+03  0.84763482506E+03  0.91305489387E+02 0.  0.
          4    1    3    3  502    0  0.71804737323E+02 -0.17262427097E+03  0.21706370556E+04  0.21786739743E+04  0.00000000000E+00 0. -1.
         -3    1    3    3    0  502  0.49931976872E+01 -0.24395792553E+02  0.92175190939E+02  0.95479592281E+02  0.00000000000E+00 0.  1.
         13    1    5    5    0    0 -0.12453022311E+03 -0.31345237248E+03  0.39611489722E+03  0.52025683857E+03  0.00000000000E+00 0.  1.
        -13    1    5    5    0    0  0.15790993663E+02 -0.40098188846E+02  0.57235948053E+02  0.71646172118E+02  0.00000000000E+00 0. -1.
          1    1    6    6  503    0 -0.31179256124E+02  0.14718966125E+03  0.18313907612E+03  0.23701658928E+03  0.00000000000E+00 0. -1.
         -1    1    6    6    0  503  0.63120550559E+02  0.40338096360E+03  0.45404209514E+03  0.61061823577E+03  0.00000000000E+00 0.  1.
<mgrwt>
<rscale>  0 0.15958026E+04</rscale>
<asrwt>0</asrwt>
<pdfrwt beam="1">  1        2 0.54361808E+00 0.15958026E+04</pdfrwt>
<pdfrwt beam="2">  1       -1 0.27719013E-01 0.15958026E+04</pdfrwt>
<totfact> 0.99781507E+00</totfact>
</mgrwt>
</event>
<event>
12    7  0.1701638E-007  0.1619306E+04  0.7818608E-02  0.8808775E-01
          2   -1    0    0  501    0  0.00000000000E+00  0.00000000000E+00  0.67162419040E+03  0.67162419040E+03  0.00000000000E+00 0. -1.
         -1   -1    0    0    0  501 -0.00000000000E+00 -0.00000000000E+00 -0.97604862294E+03  0.97604862294E+03  0.00000000000E+00 0.  1.
         24    2    1    2    0    0 -0.11047018313E+03  0.49515257005E+03 -0.31193834496E+03  0.60079692303E+03  0.79193956059E+02 0.  0.
        254    2    1    2    0    0  0.11047018313E+03 -0.49515257005E+03  0.75139124213E+01  0.10468758903E+04  0.91570352290E+03 0.  0.
         23    2    4    4    0    0  0.43074728887E+03  0.86791645086E+01 -0.31999879249E+02  0.44146548672E+03  0.90825265898E+02 0.  0.
         23    2    4    4    0    0 -0.32027710574E+03 -0.50383173456E+03  0.39513791670E+02  0.60541040360E+03  0.92393591982E+02 0.  0.
          4    1    3    3  502    0 -0.11626856240E+01  0.52848158065E+01 -0.18769735922E+02  0.19534177806E+02  0.00000000000E+00 0. -1.
         -3    1    3    3    0  502 -0.10930749750E+03  0.48986775425E+03 -0.29316860904E+03  0.58126274523E+03  0.00000000000E+00 0.  1.
         13    1    5    5    0    0 -0.25503435060E+01 -0.96039561290E+00 -0.68033322421E+01  0.73288431098E+01  0.00000000000E+00 0. -1.
        -13    1    5    5    0    0  0.43329763237E+03  0.96395601215E+01 -0.25196547007E+02  0.43413664361E+03  0.00000000000E+00 0.  1.
          1    1    6    6  503    0 -0.51905437548E+02 -0.82771705813E+02  0.41355832691E+02  0.10609257574E+03  0.00000000000E+00 0. -1.
         -1    1    6    6    0  503 -0.26837166819E+03 -0.42106002875E+03 -0.18420410210E+01  0.49931782786E+03  0.00000000000E+00 0.  1.
<mgrwt>
<rscale>  0 0.16193059E+04</rscale>
<asrwt>0</asrwt>
<pdfrwt beam="1">  1        2 0.10332680E+00 0.16193059E+04</pdfrwt>
<pdfrwt beam="2">  1       -1 0.15016133E+00 0.16193059E+04</pdfrwt>
<totfact> 0.16424810E+01</totfact>
</mgrwt>
</event>
<event>
12    7  0.1701638E-007  0.1631396E+04  0.7818608E-02  0.8801489E-01
         -1   -1    0    0    0  501 -0.00000000000E+00  0.00000000000E+00  0.16777521638E+04  0.16777521638E+04  0.00000000000E+00 0.  1.
          2   -1    0    0  501    0  0.00000000000E+00 -0.00000000000E+00 -0.39658029438E+03  0.39658029438E+03  0.00000000000E+00 0. -1.
         24    2    1    2    0    0  0.27958872703E+03 -0.35063350561E+03  0.87575954170E+03  0.98701528616E+03  0.78298714430E+02 0.  0.
        254    2    1    2    0    0 -0.27958872703E+03  0.35063350561E+03  0.40541232773E+03  0.10873171720E+04  0.90376200717E+03 0.  0.
         23    2    4    4    0    0 -0.58163408868E+03  0.13941012769E+03  0.13477702244E+03  0.61980080863E+03  0.90855928734E+02 0.  0.
         23    2    4    4    0    0  0.30204536165E+03  0.21122337792E+03  0.27063530529E+03  0.46751636341E+03  0.97372304662E+02 0.  0.
          4    1    3    3  502    0  0.25925565484E+03 -0.30693786075E+03  0.72687957908E+03  0.83052890823E+03  0.00000000000E+00 0. -1.
         -3    1    3    3    0  502  0.20333072195E+02 -0.43695644858E+02  0.14887996263E+03  0.15648637793E+03  0.00000000000E+00 0.  1.
         13    1    5    5    0    0 -0.29258021441E+03  0.10636467620E+03  0.98977747305E+02  0.32666989557E+03  0.00000000000E+00 0. -1.
        -13    1    5    5    0    0 -0.28905387427E+03  0.33045451488E+02  0.35799275134E+02  0.29313091306E+03  0.00000000000E+00 0.  1.
          2    1    6    6  503    0  0.15493273539E+03  0.92794209360E+02  0.74864555188E+02  0.19549838723E+03  0.00000000000E+00 0. -1.
         -2    1    6    6    0  503  0.14711262626E+03  0.11842916856E+03  0.19577075010E+03  0.27201797618E+03  0.00000000000E+00 0.  1.
<mgrwt>
<rscale>  0 0.16313963E+04</rscale>
<asrwt>0</asrwt>
<pdfrwt beam="1">  1        2 0.61012354E-01 0.16313963E+04</pdfrwt>
<pdfrwt beam="2">  1       -1 0.25811571E+00 0.16313963E+04</pdfrwt>
<totfact> 0.54253102E+00</totfact>
</mgrwt>
</event>
<event>
12    7  0.1701638E-007  0.3134876E+04  0.7818608E-02  0.8206231E-01
          2   -1    0    0  501    0  0.00000000000E+00  0.00000000000E+00  0.23607961793E+04  0.23607961793E+04  0.00000000000E+00 0. -1.
         -1   -1    0    0    0  501 -0.00000000000E+00 -0.00000000000E+00 -0.10406922153E+04  0.10406922153E+04  0.00000000000E+00 0.  1.
         24    2    1    2    0    0 -0.13213436293E+04  0.27555682469E+03  0.11276873480E+04  0.17607011120E+04  0.80678997493E+02 0.  0.
        254    2    1    2    0    0  0.13213436293E+04 -0.27555682469E+03  0.19241661601E+03  0.16407872825E+04  0.91284073201E+03 0.  0.
         23    2    4    4    0    0  0.20857325600E+03  0.11978997238E+03  0.36233793006E+03  0.44403924882E+03  0.89608249231E+02 0.  0.
         23    2    4    4    0    0  0.11127703733E+04 -0.39534679707E+03 -0.16992131404E+03  0.11967480337E+04  0.93678223414E+02 0.  0.
          4    1    3    3  502    0 -0.12649463192E+04  0.26988512816E+03  0.10590155015E+04  0.16716581604E+04  0.00000000000E+00 0. -1.
         -3    1    3    3    0  502 -0.56397310163E+02  0.56716965266E+01  0.68671846455E+02  0.89042951605E+02  0.00000000000E+00 0.  1.
         13    1    5    5    0    0 -0.85171138301E+01  0.86287914059E+00  0.74221336136E+01  0.11330218700E+02  0.00000000000E+00 0. -1.
        -13    1    5    5    0    0  0.21709036983E+03  0.11892709324E+03  0.35491579644E+03  0.43270903012E+03  0.00000000000E+00 0.  1.
          1    1    6    6  503    0  0.23553694406E+03 -0.12425599104E+03 -0.46287401578E+02  0.27029562866E+03  0.00000000000E+00 0. -1.
         -1    1    6    6    0  503  0.87723342926E+03 -0.27109080603E+03 -0.12363391247E+03  0.92645240506E+03  0.00000000000E+00 0.  1.
<mgrwt>
<rscale>  0 0.31348762E+04</rscale>
<asrwt>0</asrwt>
<pdfrwt beam="1">  1        2 0.36319941E+00 0.31348762E+04</pdfrwt>
<pdfrwt beam="2">  1       -1 0.16010650E+00 0.31348762E+04</pdfrwt>
<totfact> 0.11749953E+00</totfact>
</mgrwt>
</event>
<event>
12    7  0.1701638E-007  0.2122834E+04  0.7818608E-02  0.8551251E-01
          2   -1    0    0  501    0  0.00000000000E+00  0.00000000000E+00  0.26293626418E+04  0.26293626418E+04  0.00000000000E+00 0. -1.
         -1   -1    0    0    0  501 -0.00000000000E+00 -0.00000000000E+00 -0.42847134576E+03  0.42847134576E+03  0.00000000000E+00 0.  1.
         24    2    1    2    0    0  0.65126870294E+03 -0.23880575280E+03  0.16571423010E+04  0.17982612224E+04  0.80272704035E+02 0.  0.
        254    2    1    2    0    0 -0.65126870294E+03  0.23880575280E+03  0.54374899503E+03  0.12595727652E+04  0.89982302162E+03 0.  0.
         23    2    4    4    0    0 -0.79715018617E+03  0.25084823139E+03  0.64521470440E+03  0.10598673312E+04  0.92970373732E+02 0.  0.
         23    2    4    4    0    0  0.14588148322E+03 -0.12042478591E+02 -0.10146570936E+03  0.19970543405E+03  0.90335717040E+02 0.  0.
          4    1    3    3  502    0  0.54015018748E+03 -0.21772363075E+03  0.13233720535E+04  0.14458490227E+04  0.00000000000E+00 0. -1.
         -3    1    3    3    0  502  0.11111851546E+03 -0.21082122053E+02  0.33377024754E+03  0.35241219969E+03  0.00000000000E+00 0.  1.
         13    1    5    5    0    0 -0.17859339993E+03  0.25247264554E+02  0.10914504886E+03  0.21082141389E+03  0.00000000000E+00 0. -1.
        -13    1    5    5    0    0 -0.61855678624E+03  0.22560096684E+03  0.53606965553E+03  0.84904591726E+03  0.00000000000E+00 0.  1.
          2    1    6    6  503    0  0.76247323466E+02 -0.74106669118E+01 -0.10482809874E+03  0.12983644560E+03  0.00000000000E+00 0.  1.
         -2    1    6    6    0  503  0.69634159757E+02 -0.46318116792E+01  0.33623893779E+01  0.69868988449E+02  0.00000000000E+00 0. -1.
<mgrwt>
<rscale>  0 0.21228345E+04</rscale>
<asrwt>0</asrwt>
<pdfrwt beam="1">  1        2 0.40451732E+00 0.21228345E+04</pdfrwt>
<pdfrwt beam="2">  1       -1 0.65918671E-01 0.21228345E+04</pdfrwt>
<totfact> 0.71444611E+00</totfact>
</mgrwt>
</event>
<event>
12    7  0.1701638E-007  0.1326493E+04  0.7818608E-02  0.9008816E-01
         -1   -1    0    0    0  501 -0.00000000000E+00  0.00000000000E+00  0.22910053859E+03  0.22910053859E+03  0.00000000000E+00 0.  1.
          2   -1    0    0  501    0  0.00000000000E+00 -0.00000000000E+00 -0.19201005790E+04  0.19201005790E+04  0.00000000000E+00 0. -1.
         24    2    1    2    0    0  0.18322871472E+03  0.62363103965E+02  0.12771137965E+02  0.20949011160E+03  0.79127026094E+02 0.  0.
        254    2    1    2    0    0 -0.18322871472E+03 -0.62363103965E+02 -0.17037711784E+04  0.19397110060E+04  0.90674177133E+03 0.  0.
         23    2    4    4    0    0  0.90541887680E+02 -0.39674457635E+03 -0.11988779795E+04  0.12694371797E+04  0.92510816625E+02 0.  0.
         23    2    4    4    0    0 -0.27377060240E+03  0.33438147239E+03 -0.50489319888E+03  0.67027382629E+03  0.87112273103E+02 0.  0.
          4    1    3    3  502    0  0.71339571837E+02  0.64358170981E+02 -0.48612151414E+01  0.96202599209E+02  0.00000000000E+00 0. -1.
         -3    1    3    3    0  502  0.11188914288E+03 -0.19950670156E+01  0.17632353106E+02  0.11328751239E+03  0.00000000000E+00 0.  1.
         13    1    5    5    0    0 -0.95014879174E+01 -0.14108810452E+03 -0.35986914523E+03  0.38665479849E+03  0.00000000000E+00 0. -1.
        -13    1    5    5    0    0  0.10004337560E+03 -0.25565647184E+03 -0.83900883426E+03  0.88278238120E+03  0.00000000000E+00 0.  1.
          4    1    6    6  503    0 -0.37742733019E+02  0.69320012720E+02 -0.50516066626E+02  0.93710463912E+02  0.00000000000E+00 0. -1.
         -4    1    6    6    0  503 -0.23602786938E+03  0.26506145967E+03 -0.45437713226E+03  0.57656336238E+03  0.00000000000E+00 0.  1.
<mgrwt>
<rscale>  0 0.13264932E+04</rscale>
<asrwt>0</asrwt>
<pdfrwt beam="1">  1        2 0.29540007E+00 0.13264932E+04</pdfrwt>
<pdfrwt beam="2">  1       -1 0.35246238E-01 0.13264932E+04</pdfrwt>
<totfact> 0.63235775E+01</totfact>
</mgrwt>
</event>
<event>
12    7  0.1701638E-007  0.1731470E+04  0.7818608E-02  0.8743616E-01
         -1   -1    0    0    0  501 -0.00000000000E+00  0.00000000000E+00  0.77871809350E+03  0.77871809350E+03  0.00000000000E+00 0.  1.
          2   -1    0    0  501    0  0.00000000000E+00 -0.00000000000E+00 -0.96247590538E+03  0.96247590538E+03  0.00000000000E+00 0. -1.
         24    2    1    2    0    0 -0.90389700004E+02 -0.61565316722E+03 -0.16679787981E+03  0.64909544591E+03  0.79399275881E+02 0.  0.
        254    2    1    2    0    0  0.90389700004E+02  0.61565316722E+03 -0.16959932076E+02  0.10920985530E+04  0.89732518629E+03 0.  0.
         23    2    4    4    0    0  0.99157237259E+02  0.45366860914E+03 -0.42880909891E+03  0.63850890602E+03  0.90382604141E+02 0.  0.
         23    2    4    4    0    0 -0.87675372551E+01  0.16198455808E+03  0.41184916684E+03  0.45358964696E+03  0.99035169712E+02 0.  0.
          4    1    3    3  502    0  0.72998028988E+01 -0.97445098921E+02 -0.46474323480E+02  0.10820673347E+03  0.00000000000E+00 0. -1.
         -3    1    3    3    0  502 -0.97689502903E+02 -0.51820806830E+03 -0.12032355633E+03  0.54088871243E+03  0.00000000000E+00 0.  1.
         13    1    5    5    0    0  0.96170901259E+02  0.26194776576E+03 -0.28470774368E+03  0.39865269790E+03  0.00000000000E+00 0.  1.
        -13    1    5    5    0    0  0.29863360002E+01  0.19172084339E+03 -0.14410135523E+03  0.23985620812E+03  0.00000000000E+00 0. -1.
          2    1    6    6  503    0  0.27083120639E+02  0.79238394676E+02  0.10811931556E+03  0.13675527417E+03  0.00000000000E+00 0. -1.
         -2    1    6    6    0  503 -0.35850657894E+02  0.82746163402E+02  0.30372985127E+03  0.31683437279E+03  0.00000000000E+00 0.  1.
<mgrwt>
<rscale>  0 0.17314704E+04</rscale>
<asrwt>0</asrwt>
<pdfrwt beam="1">  1        2 0.14807322E+00 0.17314704E+04</pdfrwt>
<pdfrwt beam="2">  1       -1 0.11980278E+00 0.17314704E+04</pdfrwt>
<totfact> 0.17938770E+01</totfact>
</mgrwt>
</event>
<event>
12    7  0.1701638E-007  0.1815250E+04  0.7818608E-02  0.8698231E-01
         -3   -1    0    0    0  501 -0.00000000000E+00  0.00000000000E+00  0.33556302758E+03  0.33556302758E+03  0.00000000000E+00 0.  1.
          2   -1    0    0  501    0  0.00000000000E+00 -0.00000000000E+00 -0.24549288008E+04  0.24549288008E+04  0.00000000000E+00 0. -1.
         24    2    1    2    0    0 -0.67116459384E+02  0.11350459387E+03 -0.18080106498E+04  0.18145529472E+04  0.79447947394E+02 0.  0.
        254    2    1    2    0    0  0.67116459384E+02 -0.11350459387E+03 -0.31135512344E+03  0.97593888122E+03  0.91549264063E+03 0.  0.
         23    2    4    4    0    0 -0.89279044744E+02 -0.91404290599E+02  0.29957186577E+03  0.33805278415E+03  0.90613961068E+02 0.  0.
         23    2    4    4    0    0  0.15639550413E+03 -0.22100303274E+02 -0.61092698922E+03  0.63788609707E+03  0.93375101427E+02 0.  0.
          4    1    3    3  502    0 -0.29565853015E+02  0.66087892404E+02 -0.14211070619E+04  0.14229501153E+04  0.00000000000E+00 0. -1.
         -3    1    3    3    0  502 -0.37550606368E+02  0.47416701469E+02 -0.38690358792E+03  0.39160283191E+03  0.00000000000E+00 0.  1.
         13    1    5    5    0    0  0.17448221550E+02 -0.10752712631E+02  0.22866472274E+02  0.30707276311E+02  0.00000000000E+00 0.  1.
        -13    1    5    5    0    0 -0.10672726629E+03 -0.80651577968E+02  0.27670539350E+03  0.30734550784E+03  0.00000000000E+00 0. -1.
          3    1    6    6  503    0  0.97362376867E+02 -0.45483858684E+02 -0.26120894975E+03  0.28245057844E+03  0.00000000000E+00 0. -1.
         -3    1    6    6    0  503  0.59033127260E+02  0.23383555410E+02 -0.34971803947E+03  0.35543551863E+03  0.00000000000E+00 0.  1.
<mgrwt>
<rscale>  0 0.18152502E+04</rscale>
<asrwt>0</asrwt>
<pdfrwt beam="1">  1        2 0.37768134E+00 0.18152502E+04</pdfrwt>
<pdfrwt beam="2">  1       -3 0.51625082E-01 0.18152502E+04</pdfrwt>
<totfact> 0.83442989E+00</totfact>
</mgrwt>
</event>
<event>
12    7  0.1701638E-007  0.1683782E+04  0.7818608E-02  0.8770668E-01
          2   -1    0    0  501    0  0.00000000000E+00  0.00000000000E+00  0.25025080796E+04  0.25025080796E+04  0.00000000000E+00 0. -1.
         -1   -1    0    0    0  501 -0.00000000000E+00 -0.00000000000E+00 -0.28322820309E+03  0.28322820309E+03  0.00000000000E+00 0.  1.
         24    2    1    2    0    0  0.39231009850E+03  0.44987589027E+03  0.75784844814E+03  0.96780003169E+03  0.77505489914E+02 0.  0.
        254    2    1    2    0    0 -0.39231009850E+03 -0.44987589027E+03  0.14614314284E+04  0.18179362510E+04  0.90156245644E+03 0.  0.
         23    2    4    4    0    0 -0.55265097100E+03  0.18902605257E+02  0.92683951258E+03  0.10830721801E+04  0.90738420639E+02 0.  0.
         23    2    4    4    0    0  0.16034087250E+03 -0.46877849552E+03  0.53459191580E+03  0.73486407092E+03  0.93670769322E+02 0.  0.
          4    1    3    3  502    0  0.72165010763E+02  0.44557728318E+02  0.12248387726E+03  0.14898147576E+03  0.00000000000E+00 0. -1.
         -3    1    3    3    0  502  0.32014508774E+03  0.40531816195E+03  0.63536457088E+03  0.81881855593E+03  0.00000000000E+00 0.  1.
         13    1    5    5    0    0 -0.34544327732E+03  0.39184237592E+02  0.64425503015E+03  0.73207308801E+03  0.00000000000E+00 0. -1.
        -13    1    5    5    0    0 -0.20720769368E+03 -0.20281632335E+02  0.28258448243E+03  0.35099909208E+03  0.00000000000E+00 0.  1.
          4    1    6    6  503    0 -0.71217967824E+01 -0.66924211583E+02  0.53015900287E+02  0.85675292639E+02  0.00000000000E+00 0.  1.
         -4    1    6    6    0  503  0.16746266928E+03 -0.40185428394E+03  0.48157601551E+03  0.64918877828E+03  0.00000000000E+00 0. -1.
<mgrwt>
<rscale>  0 0.16837825E+04</rscale>
<asrwt>0</asrwt>
<pdfrwt beam="1">  1        2 0.38500123E+00 0.16837825E+04</pdfrwt>
<pdfrwt beam="2">  1       -1 0.43573571E-01 0.16837825E+04</pdfrwt>
<totfact> 0.19609752E+01</totfact>
</mgrwt>
</event>
<event>
12    7  0.1701638E-007  0.1413338E+04  0.7818608E-02  0.8944220E-01
          2   -1    0    0  501    0  0.00000000000E+00  0.00000000000E+00  0.56668290198E+03  0.56668290198E+03  0.00000000000E+00 0. -1.
         -1   -1    0    0    0  501 -0.00000000000E+00 -0.00000000000E+00 -0.88123521886E+03  0.88123521886E+03  0.00000000000E+00 0.  1.
         24    2    1    2    0    0  0.39583743222E+03  0.12596194127E+03 -0.10692641468E+03  0.43617825518E+03  0.79148775973E+02 0.  0.
        254    2    1    2    0    0 -0.39583743222E+03 -0.12596194127E+03 -0.20762590220E+03  0.10117398657E+04  0.89886336953E+03 0.  0.
         23    2    4    4    0    0  0.92608275339E+02  0.13531593047E+03 -0.38102256315E+03  0.42440789909E+03  0.89761781855E+02 0.  0.
         23    2    4    4    0    0 -0.48844570756E+03 -0.26127787175E+03  0.17339666095E+03  0.58733196656E+03  0.89705637580E+02 0.  0.
          2    1    3    3  502    0  0.11270969460E+03  0.47725611712E+02  0.32923863452E+01  0.12244202334E+03  0.00000000000E+00 0. -1.
         -1    1    3    3    0  502  0.28312773762E+03  0.78236329563E+02 -0.11021880102E+03  0.31373623184E+03  0.00000000000E+00 0.  1.
         13    1    5    5    0    0  0.14233157941E+02  0.43462191128E+02 -0.34025372639E+02  0.57002375616E+02  0.00000000000E+00 0. -1.
        -13    1    5    5    0    0  0.78375117398E+02  0.91853739344E+02 -0.34699719051E+03  0.36740552348E+03  0.00000000000E+00 0.  1.
          3    1    6    6  503    0 -0.23970115956E+03 -0.88501069810E+02  0.50364952972E+02  0.26043370315E+03  0.00000000000E+00 0. -1.
         -3    1    6    6    0  503 -0.24874454801E+03 -0.17277680194E+03  0.12303170798E+03  0.32689826341E+03  0.00000000000E+00 0.  1.
<mgrwt>
<rscale>  0 0.14133378E+04</rscale>
<asrwt>0</asrwt>
<pdfrwt beam="1">  1        2 0.87181985E-01 0.14133378E+04</pdfrwt>
<pdfrwt beam="2">  1       -1 0.13557465E+00 0.14133378E+04</pdfrwt>
<totfact> 0.26908590E+01</totfact>
</mgrwt>
</event>
<event>
12    7  0.1701638E-007  0.2120124E+04  0.7818608E-02  0.8552430E-01
          2   -1    0    0  501    0  0.00000000000E+00  0.00000000000E+00  0.18478522312E+04  0.18478522312E+04  0.00000000000E+00 0. -1.
         -1   -1    0    0    0  501 -0.00000000000E+00 -0.00000000000E+00 -0.60812827187E+03  0.60812827187E+03  0.00000000000E+00 0.  1.
         24    2    1    2    0    0  0.61616200616E+03 -0.13941230291E+03 -0.18093121891E+03  0.66199519239E+03  0.80063229580E+02 0.  0.
        254    2    1    2    0    0 -0.61616200616E+03  0.13941230291E+03  0.14206551782E+04  0.17939853107E+04  0.89500321308E+03 0.  0.
         23    2    4    4    0    0  0.65605457509E+02 -0.45058390107E+02 -0.71958174378E+02  0.14016519035E+03  0.90188508984E+02 0.  0.
         23    2    4    4    0    0 -0.68176746367E+03  0.18447069301E+03  0.14926133526E+04  0.16538201203E+04  0.91597264601E+02 0.  0.
          2    1    3    3  502    0  0.30820363642E+03 -0.39626748985E+02 -0.60356945829E+02  0.31654813481E+03  0.00000000000E+00 0. -1.
         -1    1    3    3    0  502  0.30795836974E+03 -0.99785553922E+02 -0.12057427308E+03  0.34544705759E+03  0.00000000000E+00 0.  1.
         13    1    5    5    0    0 -0.20121280171E+02 -0.41595242273E+01 -0.29918660594E+02  0.36294542417E+02  0.00000000000E+00 0. -1.
        -13    1    5    5    0    0  0.85726737679E+02 -0.40898865880E+02 -0.42039513784E+02  0.10387064794E+03  0.00000000000E+00 0.  1.
          4    1    6    6  503    0 -0.13693417050E+03  0.69876223599E+02  0.37223808073E+03  0.40273420815E+03  0.00000000000E+00 0. -1.
         -4    1    6    6    0  503 -0.54483329318E+03  0.11459446942E+03  0.11203752719E+04  0.12510859122E+04  0.00000000000E+00 0.  1.
<mgrwt>
<rscale>  0 0.21201238E+04</rscale>
<asrwt>0</asrwt>
<pdfrwt beam="1">  1        2 0.28428496E+00 0.21201238E+04</pdfrwt>
<pdfrwt beam="2">  1       -1 0.93558196E-01 0.21201238E+04</pdfrwt>
<totfact> 0.94216097E+00</totfact>
</mgrwt>
</event>
<event>
12    7  0.1701638E-007  0.1766007E+04  0.7818608E-02  0.8724588E-01
         -1   -1    0    0    0  501 -0.00000000000E+00  0.00000000000E+00  0.85444897062E+03  0.85444897062E+03  0.00000000000E+00 0.  1.
          2   -1    0    0  501    0  0.00000000000E+00 -0.00000000000E+00 -0.91251222810E+03  0.91251222810E+03  0.00000000000E+00 0. -1.
         24    2    1    2    0    0  0.26849723470E+03  0.30656626110E+03 -0.52887648262E+03  0.67265618284E+03  0.81745758069E+02 0.  0.
        254    2    1    2    0    0 -0.26849723470E+03 -0.30656626110E+03  0.47081322514E+03  0.10943050159E+04  0.89986928901E+03 0.  0.
         23    2    4    4    0    0  0.28859469571E+03 -0.27548528244E+03  0.11421596157E+03  0.42643642664E+03  0.98100463085E+02 0.  0.
         23    2    4    4    0    0 -0.55709193040E+03 -0.31080978663E+02  0.35659726356E+03  0.66786858923E+03  0.87002287001E+02 0.  0.
          4    1    3    3  502    0  0.21416049050E+03  0.22523937713E+03 -0.34476605680E+03  0.46417790406E+03  0.00000000000E+00 0. -1.
         -3    1    3    3    0  502  0.54336744195E+02  0.81326883978E+02 -0.18411042582E+03  0.20847827878E+03  0.00000000000E+00 0.  1.
         13    1    5    5    0    0  0.29637904328E+03 -0.26381714610E+03  0.10919037130E+03  0.41153682831E+03  0.00000000000E+00 0. -1.
        -13    1    5    5    0    0 -0.77843475737E+01 -0.11668136340E+02  0.50255902718E+01  0.14899598330E+02  0.00000000000E+00 0.  1.
          3    1    6    6  503    0 -0.15734995302E+03  0.79289016015E+01  0.14394508789E+03  0.21340586572E+03  0.00000000000E+00 0. -1.
         -3    1    6    6    0  503 -0.39974197739E+03 -0.39009880264E+02  0.21265217567E+03  0.45446272351E+03  0.00000000000E+00 0.  1.
<mgrwt>
<rscale>  0 0.17660069E+04</rscale>
<asrwt>0</asrwt>
<pdfrwt beam="1">  1        2 0.14038650E+00 0.17660069E+04</pdfrwt>
<pdfrwt beam="2">  1       -1 0.13145369E+00 0.17660069E+04</pdfrwt>
<totfact> 0.15318155E+01</totfact>
</mgrwt>
</event>
<event>
12    7  0.1701638E-007  0.2139603E+04  0.7818608E-02  0.8543996E-01
          2   -1    0    0  501    0  0.00000000000E+00  0.00000000000E+00  0.10776725656E+04  0.10776725656E+04  0.00000000000E+00 0. -1.
         -1   -1    0    0    0  501 -0.00000000000E+00 -0.00000000000E+00 -0.10619882866E+04  0.10619882866E+04  0.00000000000E+00 0.  1.
         24    2    1    2    0    0 -0.66724922509E+03  0.43978740055E+03  0.37456472182E+03  0.88620049937E+03  0.80113096154E+02 0.  0.
        254    2    1    2    0    0  0.66724922509E+03 -0.43978740055E+03 -0.35888044280E+03  0.12534603528E+04  0.89651168292E+03 0.  0.
         23    2    4    4    0    0  0.82931971828E+03 -0.49638267481E+03 -0.17624708634E+03  0.98662282785E+03  0.90524107425E+02 0.  0.
         23    2    4    4    0    0 -0.16207049318E+03  0.56595274260E+02 -0.18263335647E+03  0.26683752490E+03  0.91528421650E+02 0.  0.
          2    1    3    3  502    0 -0.39753859866E+02  0.39358311428E+02  0.46476680460E+02  0.72729140509E+02  0.00000000000E+00 0. -1.
         -3    1    3    3    0  502 -0.62749536523E+03  0.40042908913E+03  0.32808804136E+03  0.81347135886E+03  0.00000000000E+00 0.  1.
         13    1    5    5    0    0  0.44857483073E+02 -0.57461119024E+01 -0.33509222894E+01  0.45347990802E+02  0.00000000000E+00 0.  1.
        -13    1    5    5    0    0  0.78446223520E+03 -0.49063656291E+03 -0.17289616405E+03  0.94127483705E+03  0.00000000000E+00 0. -1.
          1    1    6    6  503    0 -0.45615884301E+02  0.62806815341E+02 -0.80292052767E+02  0.11167953569E+03  0.00000000000E+00 0. -1.
         -1    1    6    6    0  503 -0.11645460888E+03 -0.62115410814E+01 -0.10234130370E+03  0.15515798921E+03  0.00000000000E+00 0.  1.
<mgrwt>
<rscale>  0 0.21396034E+04</rscale>
<asrwt>0</asrwt>
<pdfrwt beam="1">  1        2 0.16579578E+00 0.21396034E+04</pdfrwt>
<pdfrwt beam="2">  1       -1 0.16338281E+00 0.21396034E+04</pdfrwt>
<totfact> 0.64926777E+00</totfact>
</mgrwt>
</event>
<event>
12    7  0.1701638E-007  0.2144667E+04  0.7818608E-02  0.8541819E-01
          2   -1    0    0  501    0  0.00000000000E+00  0.00000000000E+00  0.17726315284E+04  0.17726315284E+04  0.00000000000E+00 0. -1.
         -1   -1    0    0    0  501 -0.00000000000E+00 -0.00000000000E+00 -0.64869581004E+03  0.64869581004E+03  0.00000000000E+00 0.  1.
         24    2    1    2    0    0 -0.29180962644E+03 -0.83209443454E+03  0.46821002468E+03  0.10011813713E+04  0.74896628829E+02 0.  0.
        254    2    1    2    0    0  0.29180962644E+03  0.83209443454E+03  0.65572569372E+03  0.14201459671E+04  0.89961345951E+03 0.  0.
         23    2    4    4    0    0  0.13129449022E+03  0.98499294323E+03  0.41829461916E+03  0.10820255836E+04  0.91431032963E+02 0.  0.
         23    2    4    4    0    0  0.16051513622E+03 -0.15289850869E+03  0.23743107456E+03  0.33812038354E+03  0.93855291162E+02 0.  0.
          2    1    3    3  502    0 -0.16253756834E+03 -0.52224264232E+03  0.32459816904E+03  0.63601871822E+03  0.00000000000E+00 0. -1.
         -1    1    3    3    0  502 -0.12927205810E+03 -0.30985179222E+03  0.14361185564E+03  0.36516265311E+03  0.00000000000E+00 0.  1.
         13    1    5    5    0    0 -0.69127136562E+01  0.15298664461E+03  0.85006528326E+02  0.17515367224E+03  0.00000000000E+00 0.  1.
        -13    1    5    5    0    0  0.13820720388E+03  0.83200629862E+03  0.33328809083E+03  0.90687191137E+03  0.00000000000E+00 0. -1.
          2    1    6    6  503    0 -0.79612257007E+01 -0.79095917652E+01  0.37551037927E+02  0.39192131939E+02  0.00000000000E+00 0. -1.
         -2    1    6    6    0  503  0.16847636192E+03 -0.14498891693E+03  0.19988003664E+03  0.29892825160E+03  0.00000000000E+00 0.  1.
<mgrwt>
<rscale>  0 0.21446665E+04</rscale>
<asrwt>0</asrwt>
<pdfrwt beam="1">  1        2 0.27271254E+00 0.21446665E+04</pdfrwt>
<pdfrwt beam="2">  1       -1 0.99799356E-01 0.21446665E+04</pdfrwt>
<totfact> 0.89457106E+00</totfact>
</mgrwt>
</event>
<event>
12    7  0.1701638E-007  0.2200508E+04  0.7818608E-02  0.8518217E-01
         -1   -1    0    0    0  501 -0.00000000000E+00  0.00000000000E+00  0.57403530947E+03  0.57403530947E+03  0.00000000000E+00 0.  1.
          2   -1    0    0  501    0  0.00000000000E+00 -0.00000000000E+00 -0.21088573024E+04  0.21088573024E+04  0.00000000000E+00 0. -1.
         24    2    1    2    0    0 -0.23589095268E+03 -0.54183922571E+03  0.19550213775E+03  0.62724162464E+03  0.77309001708E+02 0.  0.
        254    2    1    2    0    0  0.23589095268E+03  0.54183922571E+03 -0.17303241306E+04  0.20556509872E+04  0.93938548849E+03 0.  0.
         23    2    4    4    0    0  0.29671391923E+03 -0.17787630585E+03 -0.38319794567E+03  0.52421396607E+03  0.90997179171E+02 0.  0.
         23    2    4    4    0    0 -0.60822966548E+02  0.71971553157E+03 -0.13471261850E+04  0.15314370211E+04  0.94130291452E+02 0.  0.
          4    1    3    3  502    0 -0.97602342700E+02 -0.17228294715E+03  0.34097130576E+02  0.20092348168E+03  0.00000000000E+00 0. -1.
         -3    1    3    3    0  502 -0.13828860998E+03 -0.36955627857E+03  0.16140500717E+03  0.42631814296E+03  0.00000000000E+00 0.  1.
         13    1    5    5    0    0  0.28171198788E+03 -0.17337553952E+03 -0.32419063328E+03  0.46316334973E+03  0.00000000000E+00 0. -1.
        -13    1    5    5    0    0  0.15001931343E+02 -0.45007663306E+01 -0.59007312384E+02  0.61050616347E+02  0.00000000000E+00 0.  1.
          1    1    6    6  503    0  0.16866304902E+02  0.34837768629E+03 -0.62624729441E+03  0.71682435666E+03  0.00000000000E+00 0. -1.
         -1    1    6    6    0  503 -0.77689271450E+02  0.37133784527E+03 -0.72087889056E+03  0.81461266445E+03  0.00000000000E+00 0.  1.
<mgrwt>
<rscale>  0 0.22005077E+04</rscale>
<asrwt>0</asrwt>
<pdfrwt beam="1">  1        2 0.32443959E+00 0.22005077E+04</pdfrwt>
<pdfrwt beam="2">  1       -1 0.88313123E-01 0.22005077E+04</pdfrwt>
<totfact> 0.76098837E+00</totfact>
</mgrwt>
</event>
<event>
12    7  0.1701638E-007  0.1491582E+04  0.7818608E-02  0.8890070E-01
          2   -1    0    0  501    0  0.00000000000E+00  0.00000000000E+00  0.53322201204E+03  0.53322201204E+03  0.00000000000E+00 0. -1.
         -1   -1    0    0    0  501 -0.00000000000E+00 -0.00000000000E+00 -0.10431007065E+04  0.10431007065E+04  0.00000000000E+00 0.  1.
         24    2    1    2    0    0 -0.34238639435E+03 -0.20413602335E+03  0.97319410890E+02  0.41796497653E+03  0.79521662530E+02 0.  0.
        254    2    1    2    0    0  0.34238639435E+03  0.20413602335E+03 -0.60719810531E+03  0.11583577420E+04  0.90233206761E+03 0.  0.
         23    2    4    4    0    0  0.62700916631E+03  0.20090498609E+02 -0.43878920970E+03  0.77096133640E+03  0.91111409273E+02 0.  0.
         23    2    4    4    0    0 -0.28462277197E+03  0.18404552474E+03 -0.16840889561E+03  0.38739640557E+03  0.82653139259E+02 0.  0.
          4    1    3    3  502    0 -0.33795111928E+03 -0.20717178756E+03  0.86268600056E+02  0.40567644736E+03  0.00000000000E+00 0. -1.
         -1    1    3    3    0  502 -0.44352750644E+01  0.30357642120E+01  0.11050810834E+02  0.12288529177E+02  0.00000000000E+00 0.  1.
         13    1    5    5    0    0  0.56441013553E+03  0.68015288659E+01 -0.36009831523E+03  0.66953406076E+03  0.00000000000E+00 0.  1.
        -13    1    5    5    0    0  0.62599030788E+02  0.13288969743E+02 -0.78690894471E+02  0.10142727565E+03  0.00000000000E+00 0. -1.
          1    1    6    6  503    0 -0.76873983741E+01  0.19886162073E+02 -0.30392807679E+02  0.37125170631E+02  0.00000000000E+00 0. -1.
         -1    1    6    6    0  503 -0.27693537359E+03  0.16415936266E+03 -0.13801608793E+03  0.35027123494E+03  0.00000000000E+00 0.  1.
<mgrwt>
<rscale>  0 0.14915821E+04</rscale>
<asrwt>0</asrwt>
<pdfrwt beam="1">  1        2 0.82034156E-01 0.14915821E+04</pdfrwt>
<pdfrwt beam="2">  1       -1 0.16047703E+00 0.14915821E+04</pdfrwt>
<totfact> 0.18290335E+01</totfact>
</mgrwt>
</event>
<event>
12    7  0.1701638E-007  0.1792779E+04  0.7818608E-02  0.8710149E-01
         -1   -1    0    0    0  501 -0.00000000000E+00  0.00000000000E+00  0.46658004621E+03  0.46658004621E+03  0.00000000000E+00 0.  1.
          2   -1    0    0  501    0  0.00000000000E+00 -0.00000000000E+00 -0.17221348395E+04  0.17221348395E+04  0.00000000000E+00 0. -1.
         24    2    1    2    0    0  0.25224075317E+02  0.27086445857E+03 -0.12188874705E+04  0.12514900954E+04  0.80851618226E+02 0.  0.
        254    2    1    2    0    0 -0.25224075317E+02 -0.27086445857E+03 -0.36667322841E+02  0.93722479040E+03  0.89612611070E+03 0.  0.
         23    2    4    4    0    0 -0.41126156484E+03 -0.31238159972E+03  0.57023323172E+02  0.52734970744E+03  0.90153846229E+02 0.  0.
         23    2    4    4    0    0  0.38603748952E+03  0.41517141152E+02 -0.93690646014E+02  0.40987508296E+03  0.92038199433E+02 0.  0.
          2    1    3    3  502    0  0.10296532138E+02  0.17766658662E+03 -0.94980830033E+03  0.96633702296E+03  0.00000000000E+00 0. -1.
         -1    1    3    3    0  502  0.14927543179E+02  0.93197871953E+02 -0.26907917015E+03  0.28515307239E+03  0.00000000000E+00 0.  1.
         13    1    5    5    0    0 -0.24590578559E+03 -0.13849118695E+03  0.74349240950E+01  0.28232028328E+03  0.00000000000E+00 0. -1.
        -13    1    5    5    0    0 -0.16535577925E+03 -0.17389041276E+03  0.49588399077E+02  0.24502942416E+03  0.00000000000E+00 0.  1.
          1    1    6    6  503    0  0.35906962871E+03  0.20428110246E+02 -0.65585055438E+02  0.36558132535E+03  0.00000000000E+00 0. -1.
         -1    1    6    6    0  503  0.26967860812E+02  0.21089030905E+02 -0.28105590576E+02  0.44293757607E+02  0.00000000000E+00 0.  1.
<mgrwt>
<rscale>  0 0.17927786E+04</rscale>
<asrwt>0</asrwt>
<pdfrwt beam="1">  1        2 0.26494382E+00 0.17927786E+04</pdfrwt>
<pdfrwt beam="2">  1       -1 0.71781545E-01 0.17927786E+04</pdfrwt>
<totfact> 0.20091785E+01</totfact>
</mgrwt>
</event>
<event>
12    7  0.1701638E-007  0.1398003E+04  0.7818608E-02  0.8955266E-01
          2   -1    0    0  501    0  0.00000000000E+00  0.00000000000E+00  0.16798046819E+04  0.16798046819E+04  0.00000000000E+00 0. -1.
         -1   -1    0    0    0  501 -0.00000000000E+00 -0.00000000000E+00 -0.29086889713E+03  0.29086889713E+03  0.00000000000E+00 0.  1.
         24    2    1    2    0    0 -0.21448005328E+03  0.22425834652E+03  0.78440401682E+03  0.84665473541E+03  0.72395304749E+02 0.  0.
        254    2    1    2    0    0  0.21448005328E+03 -0.22425834652E+03  0.60453176791E+03  0.11240188436E+04  0.89535814234E+03 0.  0.
         23    2    4    4    0    0  0.41368683977E+03 -0.10107182528E+03 -0.34199192488E+02  0.43721774750E+03  0.92937929265E+02 0.  0.
         23    2    4    4    0    0 -0.19920678649E+03 -0.12318652124E+03  0.63873096040E+03  0.68680109607E+03  0.94128863791E+02 0.  0.
          2    1    3    3  502    0 -0.81119053909E+02  0.12040682673E+03  0.43344270878E+03  0.45711124097E+03  0.00000000000E+00 0. -1.
         -1    1    3    3    0  502 -0.13336099938E+03  0.10385151979E+03  0.35096130804E+03  0.38954349444E+03  0.00000000000E+00 0.  1.
         13    1    5    5    0    0  0.40457868332E+03 -0.96038017842E+02 -0.15850183629E+02  0.41612310701E+03  0.00000000000E+00 0. -1.
        -13    1    5    5    0    0  0.91081564544E+01 -0.50338074404E+01 -0.18349008859E+02  0.21094640491E+02  0.00000000000E+00 0.  1.
          2    1    6    6  503    0 -0.19325765574E+03 -0.12869256613E+03  0.54081343408E+03  0.58854861189E+03  0.00000000000E+00 0. -1.
         -2    1    6    6    0  503 -0.59491307452E+01  0.55060448956E+01  0.97917526322E+02  0.98252484183E+02  0.00000000000E+00 0.  1.
<mgrwt>
<rscale>  0 0.13980028E+04</rscale>
<asrwt>0</asrwt>
<pdfrwt beam="1">  1        2 0.25843148E+00 0.13980028E+04</pdfrwt>
<pdfrwt beam="2">  1       -1 0.44749062E-01 0.13980028E+04</pdfrwt>
<totfact> 0.55233547E+01</totfact>
</mgrwt>
</event>
<event>
12    7  0.1701638E-007  0.2322938E+04  0.7818608E-02  0.8468931E-01
         -1   -1    0    0    0  501 -0.00000000000E+00  0.00000000000E+00  0.44588622997E+03  0.44588622997E+03  0.00000000000E+00 0.  1.
          2   -1    0    0  501    0  0.00000000000E+00 -0.00000000000E+00 -0.30254586919E+04  0.30254586919E+04  0.00000000000E+00 0. -1.
         24    2    1    2    0    0 -0.85458611827E+03 -0.12057402047E+03 -0.38831091417E+03  0.94970399807E+03  0.79352315275E+02 0.  0.
        254    2    1    2    0    0  0.85458611827E+03  0.12057402047E+03 -0.21912615478E+04  0.25216409238E+04  0.90121598408E+03 0.  0.
         23    2    4    4    0    0  0.90062301859E+03  0.34324971851E+03 -0.19531684112E+04  0.21798804153E+04  0.89830906252E+02 0.  0.
         23    2    4    4    0    0 -0.46036900319E+02 -0.22267569804E+03 -0.23809313655E+03  0.34176050848E+03  0.91695369542E+02 0.  0.
          4    1    3    3  502    0 -0.70306740664E+03 -0.76983738474E+02 -0.29366391968E+03  0.76581249140E+03  0.00000000000E+00 0. -1.
         -3    1    3    3    0  502 -0.15151871163E+03 -0.43590281997E+02 -0.94646994496E+02  0.18389150667E+03  0.00000000000E+00 0.  1.
         13    1    5    5    0    0  0.81440943015E+03  0.31996704282E+03 -0.17107742177E+04  0.19215592763E+04  0.00000000000E+00 0.  1.
        -13    1    5    5    0    0  0.86213588439E+02  0.23282675685E+02 -0.24239419352E+03  0.25832113904E+03  0.00000000000E+00 0. -1.
          4    1    6    6  503    0 -0.36307566210E+02 -0.25473650680E+02 -0.67835164938E+02  0.81047861448E+02  0.00000000000E+00 0. -1.
         -4    1    6    6    0  503 -0.97293341089E+01 -0.19720204736E+03 -0.17025797161E+03  0.26071264703E+03  0.00000000000E+00 0.  1.
<mgrwt>
<rscale>  0 0.23229381E+04</rscale>
<asrwt>0</asrwt>
<pdfrwt beam="1">  1        2 0.46545517E+00 0.23229381E+04</pdfrwt>
<pdfrwt beam="2">  1       -1 0.68597883E-01 0.23229381E+04</pdfrwt>
<totfact> 0.37184165E+00</totfact>
</mgrwt>
</event>
<event>
12    7  0.1701638E-007  0.1832407E+04  0.7818608E-02  0.8689253E-01
         -1   -1    0    0    0  501 -0.00000000000E+00  0.00000000000E+00  0.78152536170E+03  0.78152536170E+03  0.00000000000E+00 0.  1.
          2   -1    0    0  501    0  0.00000000000E+00 -0.00000000000E+00 -0.10740901834E+04  0.10740901834E+04  0.00000000000E+00 0. -1.
         24    2    1    2    0    0  0.24848387725E+03 -0.22268353369E+03 -0.72558917205E+03  0.80270804047E+03  0.80798256225E+02 0.  0.
        254    2    1    2    0    0 -0.24848387725E+03  0.22268353369E+03  0.43302435037E+03  0.10529075046E+04  0.89987328653E+03 0.  0.
         23    2    4    4    0    0 -0.59749013452E+02  0.42318059004E+03  0.58239343347E+03  0.72793884566E+03  0.89783602531E+02 0.  0.
         23    2    4    4    0    0 -0.18873486380E+03 -0.20049705635E+03 -0.14936908310E+03  0.32496865894E+03  0.86449915512E+02 0.  0.
          4    1    3    3  502    0  0.14012574355E+03 -0.12718981772E+03 -0.31521000925E+03  0.36765448952E+03  0.00000000000E+00 0. -1.
         -3    1    3    3    0  502  0.10835813370E+03 -0.95493715976E+02 -0.41037916280E+03  0.43505355095E+03  0.00000000000E+00 0.  1.
         13    1    5    5    0    0 -0.25333083350E+02  0.99114386592E+02  0.83568213749E+02  0.13209493969E+03  0.00000000000E+00 0. -1.
        -13    1    5    5    0    0 -0.34415930101E+02  0.32406620345E+03  0.49882521972E+03  0.59584390598E+03  0.00000000000E+00 0.  1.
          3    1    6    6  503    0 -0.56193332719E+02 -0.60955953535E+02 -0.26190083441E+01  0.82946839109E+02  0.00000000000E+00 0. -1.
         -3    1    6    6    0  503 -0.13254153108E+03 -0.13954110281E+03 -0.14675007476E+03  0.24202181984E+03  0.00000000000E+00 0.  1.
<mgrwt>
<rscale>  0 0.18324069E+04</rscale>
<asrwt>0</asrwt>
<pdfrwt beam="1">  1        2 0.16524464E+00 0.18324069E+04</pdfrwt>
<pdfrwt beam="2">  1       -1 0.12023467E+00 0.18324069E+04</pdfrwt>
<totfact> 0.14962572E+01</totfact>
</mgrwt>
</event>
<event>
12    7  0.1701638E-007  0.1882076E+04  0.7818608E-02  0.8663830E-01
          2   -1    0    0  501    0  0.00000000000E+00  0.00000000000E+00  0.15362588265E+04  0.15362588265E+04  0.00000000000E+00 0. -1.
         -1   -1    0    0    0  501 -0.00000000000E+00 -0.00000000000E+00 -0.57643461531E+03  0.57643461531E+03  0.00000000000E+00 0.  1.
         24    2    1    2    0    0 -0.49752401339E+03  0.38050244570E+03 -0.41105207356E+02  0.63481950090E+03  0.94836203883E+02 0.  0.
        254    2    1    2    0    0  0.49752401339E+03 -0.38050244570E+03  0.10009294185E+04  0.14778739409E+04  0.88878536735E+03 0.  0.
         23    2    4    4    0    0  0.18304523091E+03 -0.41703172095E+03  0.10471546024E+04  0.11455537830E+04  0.91321932963E+02 0.  0.
         23    2    4    4    0    0  0.31447878248E+03  0.36529275256E+02 -0.46225183935E+02  0.33232015790E+03  0.89825537236E+02 0.  0.
          2    1    3    3  502    0 -0.10186526870E+03  0.65488981254E+02  0.28216726165E+02  0.12434437369E+03  0.00000000000E+00 0. -1.
         -1    1    3    3    0  502 -0.39565874469E+03  0.31501346444E+03 -0.69321933521E+02  0.51047512721E+03  0.00000000000E+00 0.  1.
         13    1    5    5    0    0  0.13349289023E+01 -0.56518891629E+02  0.18716100031E+03  0.19551318928E+03  0.00000000000E+00 0. -1.
        -13    1    5    5    0    0  0.18171030201E+03 -0.36051282933E+03  0.85999360213E+03  0.95004059369E+03  0.00000000000E+00 0.  1.
          1    1    6    6  503    0  0.30830373210E+03  0.19591463034E+02 -0.52247296538E+02  0.31331261808E+03  0.00000000000E+00 0. -1.
         -1    1    6    6    0  503  0.61750503769E+01  0.16937812222E+02  0.60221126033E+01  0.19007539826E+02  0.00000000000E+00 0.  1.
<mgrwt>
<rscale>  0 0.18820763E+04</rscale>
<asrwt>0</asrwt>
<pdfrwt beam="1">  1        2 0.23634751E+00 0.18820763E+04</pdfrwt>
<pdfrwt beam="2">  1       -1 0.88682249E-01 0.18820763E+04</pdfrwt>
<totfact> 0.16148252E+01</totfact>
</mgrwt>
</event>
<event>
12    7  0.1701638E-007  0.2212997E+04  0.7818608E-02  0.8513038E-01
         -1   -1    0    0    0  501 -0.00000000000E+00  0.00000000000E+00  0.36857805663E+03  0.36857805663E+03  0.00000000000E+00 0.  1.
          2   -1    0    0  501    0  0.00000000000E+00 -0.00000000000E+00 -0.33217901286E+04  0.33217901286E+04  0.00000000000E+00 0. -1.
         24    2    1    2    0    0  0.67679535021E+03 -0.39341905280E+03 -0.42091277773E+03  0.89233410748E+03  0.79133404676E+02 0.  0.
        254    2    1    2    0    0 -0.67679535021E+03  0.39341905280E+03 -0.25322992942E+04  0.27980340777E+04  0.89645105134E+03 0.  0.
         23    2    4    4    0    0 -0.70333344978E+02  0.54025203682E+03 -0.10405718464E+04  0.11785965917E+04  0.97371021232E+02 0.  0.
         23    2    4    4    0    0 -0.60646200524E+03 -0.14683298402E+03 -0.14917274478E+04  0.16194374860E+04  0.89279916758E+02 0.  0.
          4    1    3    3  502    0  0.28076870452E+02 -0.31686520487E+02 -0.10041642006E+02  0.43510697641E+02  0.00000000000E+00 0. -1.
         -3    1    3    3    0  502  0.64871847976E+03 -0.36173253231E+03 -0.41087113573E+03  0.84882340984E+03  0.00000000000E+00 0.  1.
         13    1    5    5    0    0 -0.79378895130E+02  0.49367175025E+03 -0.89140391541E+03  0.10220634747E+04  0.00000000000E+00 0.  1.
        -13    1    5    5    0    0  0.90455501515E+01  0.46580286569E+02 -0.14916793097E+03  0.15653311696E+03  0.00000000000E+00 0. -1.
          3    1    6    6  503    0 -0.15040881215E+02  0.41637391923E+00 -0.12469326495E+02  0.19541892902E+02  0.00000000000E+00 0. -1.
         -3    1    6    6    0  503 -0.59142112402E+03 -0.14724935794E+03 -0.14792581214E+04  0.15998955931E+04  0.00000000000E+00 0.  1.
<mgrwt>
<rscale>  0 0.22129970E+04</rscale>
<asrwt>0</asrwt>
<pdfrwt beam="1">  1        2 0.51104462E+00 0.22129970E+04</pdfrwt>
<pdfrwt beam="2">  1       -1 0.56704318E-01 0.22129970E+04</pdfrwt>
<totfact> 0.35312755E+00</totfact>
</mgrwt>
</event>
<event>
12    7  0.1701638E-007  0.1305492E+04  0.7818608E-02  0.9025221E-01
          2   -1    0    0  501    0  0.00000000000E+00  0.00000000000E+00  0.15813171862E+04  0.15813171862E+04  0.00000000000E+00 0. -1.
         -1   -1    0    0    0  501 -0.00000000000E+00 -0.00000000000E+00 -0.26944473996E+03  0.26944473996E+03  0.00000000000E+00 0.  1.
         24    2    1    2    0    0  0.30549423452E+03  0.88879507389E+02  0.45200758074E+03  0.56285786224E+03  0.10616885551E+03 0.  0.
        254    2    1    2    0    0 -0.30549423452E+03 -0.88879507389E+02  0.85986486545E+03  0.12879040639E+04  0.90449046249E+03 0.  0.
         23    2    4    4    0    0 -0.57949360528E+03  0.11441048942E+03  0.61764512463E+03  0.85950888422E+03  0.91473621481E+02 0.  0.
         23    2    4    4    0    0  0.27399937076E+03 -0.20328999681E+03  0.24221974082E+03  0.42839517965E+03  0.91921429079E+02 0.  0.
          4    1    3    3  502    0  0.23380951174E+03  0.30585942106E+02  0.37302560731E+03  0.44130543997E+03  0.00000000000E+00 0. -1.
         -3    1    3    3    0  502  0.71684722782E+02  0.58293565284E+02  0.78981973426E+02  0.12155242227E+03  0.00000000000E+00 0.  1.
         13    1    5    5    0    0 -0.17936904650E+03  0.98110173544E+01  0.14036436055E+03  0.22797294712E+03  0.00000000000E+00 0. -1.
        -13    1    5    5    0    0 -0.40012455878E+03  0.10459947206E+03  0.47728076408E+03  0.63153593710E+03  0.00000000000E+00 0.  1.
          4    1    6    6  503    0  0.19727824204E+02  0.44192797772E+01 -0.28958353613E+00  0.20218826380E+02  0.00000000000E+00 0. -1.
         -4    1    6    6    0  503  0.25427154656E+03 -0.20770927659E+03  0.24250932436E+03  0.40817635327E+03  0.00000000000E+00 0.  1.
<mgrwt>
<rscale>  0 0.13054924E+04</rscale>
<asrwt>0</asrwt>
<pdfrwt beam="1">  1        2 0.24327956E+00 0.13054924E+04</pdfrwt>
<pdfrwt beam="2">  1       -1 0.41453038E-01 0.13054924E+04</pdfrwt>
<totfact> 0.72728962E+01</totfact>
</mgrwt>
</event>
<event>
12    7  0.1701638E-007  0.2072458E+04  0.7818608E-02  0.8573474E-01
         -1   -1    0    0    0  501 -0.00000000000E+00  0.00000000000E+00  0.88864080091E+03  0.88864080091E+03  0.00000000000E+00 0.  1.
          2   -1    0    0  501    0  0.00000000000E+00 -0.00000000000E+00 -0.12083288005E+04  0.12083288005E+04  0.00000000000E+00 0. -1.
         24    2    1    2    0    0 -0.66893058626E+02  0.11473434153E+03  0.71149597583E+03  0.72817803804E+03  0.79862888997E+02 0.  0.
        254    2    1    2    0    0  0.66893058626E+02 -0.11473434153E+03 -0.10311839755E+04  0.13687915634E+04  0.89028720219E+03 0.  0.
         23    2    4    4    0    0 -0.75347865122E+02  0.23972802292E+03 -0.92234589296E+03  0.96028380082E+03  0.90973656146E+02 0.  0.
         23    2    4    4    0    0  0.14224092375E+03 -0.35446236445E+03 -0.10883808249E+03  0.40850776258E+03  0.95691251867E+02 0.  0.
          2    1    3    3  502    0 -0.17674132041E+02  0.12293082162E+02  0.28116056786E+02  0.35411967775E+02  0.00000000000E+00 0. -1.
         -1    1    3    3    0  502 -0.49218926584E+02  0.10244125937E+03  0.68337991905E+03  0.69276607027E+03  0.00000000000E+00 0.  1.
         13    1    5    5    0    0 -0.77005095608E+02  0.20712322797E+03 -0.87698460461E+03  0.90439582763E+03  0.00000000000E+00 0.  1.
        -13    1    5    5    0    0  0.16572304863E+01  0.32604794952E+02 -0.45361288346E+02  0.55887973189E+02  0.00000000000E+00 0. -1.
          4    1    6    6  503    0  0.11788014152E+02 -0.45203467143E+02 -0.48759238906E+02  0.67526099385E+02  0.00000000000E+00 0. -1.
         -4    1    6    6    0  503  0.13045290960E+03 -0.30925889731E+03 -0.60078843584E+02  0.34098166319E+03  0.00000000000E+00 0.  1.
<mgrwt>
<rscale>  0 0.20724577E+04</rscale>
<asrwt>0</asrwt>
<pdfrwt beam="1">  1        2 0.18589674E+00 0.20724577E+04</pdfrwt>
<pdfrwt beam="2">  1       -1 0.13671397E+00 0.20724577E+04</pdfrwt>
<totfact> 0.87930544E+00</totfact>
</mgrwt>
</event>
<event>
12    7  0.1701638E-007  0.1214801E+04  0.7818608E-02  0.9099999E-01
         -1   -1    0    0    0  501 -0.00000000000E+00  0.00000000000E+00  0.38565776197E+03  0.38565776197E+03  0.00000000000E+00 0.  1.
          2   -1    0    0  501    0  0.00000000000E+00 -0.00000000000E+00 -0.95664000057E+03  0.95664000057E+03  0.00000000000E+00 0. -1.
         24    2    1    2    0    0 -0.16932314924E+03 -0.19111849232E+03 -0.66100492512E+02  0.27550647772E+03  0.79611162429E+02 0.  0.
        254    2    1    2    0    0  0.16932314924E+03  0.19111849232E+03 -0.50488174608E+03  0.10667912848E+04  0.90440116147E+03 0.  0.
         23    2    4    4    0    0  0.45330423325E+03  0.25154302287E+03 -0.54784061090E+03  0.75971149951E+03  0.90959371667E+02 0.  0.
         23    2    4    4    0    0 -0.28398108402E+03 -0.60424530554E+02  0.42958864821E+02  0.30707978531E+03  0.90311408513E+02 0.  0.
          2    1    3    3  502    0 -0.14096957417E+03 -0.12773115619E+03 -0.76986897197E+02  0.20521854556E+03  0.00000000000E+00 0. -1.
         -1    1    3    3    0  502 -0.28353575070E+02 -0.63387336122E+02  0.10886404686E+02  0.70287932157E+02  0.00000000000E+00 0.  1.
         13    1    5    5    0    0  0.43699131802E+03  0.25869143704E+03 -0.53577565860E+03  0.73819931452E+03  0.00000000000E+00 0. -1.
        -13    1    5    5    0    0  0.16312915237E+02 -0.71484141711E+01 -0.12064952304E+02  0.21512184984E+02  0.00000000000E+00 0.  1.
          3    1    6    6  503    0 -0.11168088113E+02  0.16961909077E+02  0.54998327205E+01  0.21039978887E+02  0.00000000000E+00 0.  1.
         -3    1    6    6    0  503 -0.27281299590E+03 -0.77386439631E+02  0.37459032100E+02  0.28603980642E+03  0.00000000000E+00 0. -1.
<mgrwt>
<rscale>  0 0.12148015E+04</rscale>
<asrwt>0</asrwt>
<pdfrwt beam="1">  1        2 0.14717538E+00 0.12148015E+04</pdfrwt>
<pdfrwt beam="2">  1       -1 0.59331964E-01 0.12148015E+04</pdfrwt>
<totfact> 0.87050956E+01</totfact>
</mgrwt>
</event>
<event>
12    7  0.1701638E-007  0.1229480E+04  0.7818608E-02  0.9087437E-01
          2   -1    0    0  501    0  0.00000000000E+00  0.00000000000E+00  0.25330099384E+03  0.25330099384E+03  0.00000000000E+00 0. -1.
         -1   -1    0    0    0  501 -0.00000000000E+00 -0.00000000000E+00 -0.14919208883E+04  0.14919208883E+04  0.00000000000E+00 0.  1.
         24    2    1    2    0    0  0.24123463620E+03  0.11481454342E+03 -0.38870083915E+03  0.47830465538E+03  0.79438478841E+02 0.  0.
        254    2    1    2    0    0 -0.24123463620E+03 -0.11481454342E+03 -0.84991905532E+03  0.12669172268E+04  0.90074431988E+03 0.  0.
         23    2    4    4    0    0  0.79545524130E+01  0.37167768074E+03 -0.30404116510E+03  0.48869359701E+03  0.90403696923E+02 0.  0.
         23    2    4    4    0    0 -0.24918918861E+03 -0.48649222416E+03 -0.54587789022E+03  0.77822362976E+03  0.94230626609E+02 0.  0.
          4    1    3    3  502    0  0.98845711254E+01  0.11830954115E+02 -0.67737812885E+02  0.69470047618E+02  0.00000000000E+00 0. -1.
         -3    1    3    3    0  502  0.23135006507E+03  0.10298358930E+03 -0.32096302627E+03  0.40883460776E+03  0.00000000000E+00 0.  1.
         13    1    5    5    0    0  0.44309038669E+02  0.11470324804E+03 -0.10298209534E+03  0.16039151467E+03  0.00000000000E+00 0.  1.
        -13    1    5    5    0    0 -0.36354486256E+02  0.25697443270E+03 -0.20105906976E+03  0.32830208234E+03  0.00000000000E+00 0. -1.
          2    1    6    6  503    0 -0.39049909331E+02 -0.14631547661E+03 -0.18977232532E+03  0.24278931107E+03  0.00000000000E+00 0. -1.
         -2    1    6    6    0  503 -0.21013927928E+03 -0.34017674755E+03 -0.35610556490E+03  0.53543431868E+03  0.00000000000E+00 0.  1.
<mgrwt>
<rscale>  0 0.12294796E+04</rscale>
<asrwt>0</asrwt>
<pdfrwt beam="1">  1        2 0.38969384E-01 0.12294796E+04</pdfrwt>
<pdfrwt beam="2">  1       -1 0.22952629E+00 0.12294796E+04</pdfrwt>
<totfact> 0.14253450E+01</totfact>
</mgrwt>
</event>
<event>
12    7  0.1701638E-007  0.1440186E+04  0.7818608E-02  0.8925233E-01
          4   -1    0    0  501    0  0.00000000000E+00  0.00000000000E+00  0.35626228858E+03  0.35626228858E+03  0.00000000000E+00 0. -1.
         -3   -1    0    0    0  501 -0.00000000000E+00 -0.00000000000E+00 -0.14554836413E+04  0.14554836413E+04  0.00000000000E+00 0.  1.
         24    2    1    2    0    0 -0.32549998274E+03  0.13437221093E+03 -0.64747597466E+03  0.74129700844E+03  0.79309439056E+02 0.  0.
        254    2    1    2    0    0  0.32549998274E+03 -0.13437221093E+03 -0.45174537804E+03  0.10704489214E+04  0.90431237797E+03 0.  0.
         23    2    4    4    0    0  0.37446411130E+03  0.17578809677E+03  0.94329978564E+02  0.43413133911E+03  0.91907829537E+02 0.  0.
         23    2    4    4    0    0 -0.48964128555E+02 -0.31016030770E+03 -0.54607535660E+03  0.63631758231E+03  0.90027040959E+02 0.  0.
          4    1    3    3  502    0 -0.29404545688E+02  0.17093002724E+02 -0.25443122470E+02  0.42475293174E+02  0.00000000000E+00 0. -1.
         -3    1    3    3    0  502 -0.29609543705E+03  0.11727920821E+03 -0.62203285219E+03  0.69882171527E+03  0.00000000000E+00 0.  1.
         13    1    5    5    0    0  0.34754631484E+03  0.14434674639E+03  0.10628209051E+03  0.39105026137E+03  0.00000000000E+00 0.  1.
        -13    1    5    5    0    0  0.26917796459E+02  0.31441350377E+02 -0.11952111951E+02  0.43081077747E+02  0.00000000000E+00 0. -1.
          1    1    6    6  503    0 -0.56970683405E+02 -0.10490616567E+03 -0.23428483765E+03  0.26294552195E+03  0.00000000000E+00 0. -1.
         -1    1    6    6    0  503  0.80065548500E+01 -0.20525414203E+03 -0.31179051895E+03  0.37337206035E+03  0.00000000000E+00 0.  1.
<mgrwt>
<rscale>  0 0.14401860E+04</rscale>
<asrwt>0</asrwt>
<pdfrwt beam="1">  1        4 0.54809582E-01 0.14401860E+04</pdfrwt>
<pdfrwt beam="2">  1       -3 0.22392056E+00 0.14401860E+04</pdfrwt>
<totfact> 0.73792471E-01</totfact>
</mgrwt>
</event>
<event>
12    7  0.1701638E-007  0.1525062E+04  0.7818608E-02  0.8867956E-01
          2   -1    0    0  501    0  0.00000000000E+00  0.00000000000E+00  0.36658997974E+04  0.36658997974E+04  0.00000000000E+00 0. -1.
         -1   -1    0    0    0  501 -0.00000000000E+00 -0.00000000000E+00 -0.15861147281E+03  0.15861147281E+03  0.00000000000E+00 0.  1.
         24    2    1    2    0    0 -0.19967391522E+03 -0.20489698060E+03  0.19399423148E+03  0.35782135294E+03  0.92465743352E+02 0.  0.
        254    2    1    2    0    0  0.19967391522E+03  0.20489698060E+03  0.33132940931E+04  0.34666899172E+04  0.97886096560E+03 0.  0.
         23    2    4    4    0    0  0.16748061606E+03  0.36299707512E+03  0.32428206563E+04  0.32686168550E+04  0.90297855482E+02 0.  0.
         23    2    4    4    0    0  0.32193299161E+02 -0.15810009452E+03  0.70473436745E+02  0.19807306218E+03  0.90743508187E+02 0.  0.
          4    1    3    3  502    0 -0.66885128580E+02 -0.59400187998E+02  0.11474733245E+03  0.14549554311E+03  0.00000000000E+00 0. -1.
         -3    1    3    3    0  502 -0.13278878664E+03 -0.14549679260E+03  0.79246899026E+02  0.21232580983E+03  0.00000000000E+00 0.  1.
         13    1    5    5    0    0  0.70745425849E+02  0.10711634381E+03  0.13570602060E+04  0.13631182007E+04  0.00000000000E+00 0.  1.
        -13    1    5    5    0    0  0.96735190210E+02  0.25588073131E+03  0.18857604503E+04  0.19054986543E+04  0.00000000000E+00 0. -1.
          2    1    6    6  503    0 -0.20612724259E+02 -0.72636532034E+02  0.61185122836E+02  0.97183174695E+02  0.00000000000E+00 0. -1.
         -2    1    6    6    0  503  0.52806023420E+02 -0.85463562485E+02  0.92883139095E+01  0.10088988749E+03  0.00000000000E+00 0.  1.
<mgrwt>
<rscale>  0 0.15250623E+04</rscale>
<asrwt>0</asrwt>
<pdfrwt beam="1">  1        2 0.56398452E+00 0.15250623E+04</pdfrwt>
<pdfrwt beam="2">  1       -1 0.24401768E-01 0.15250623E+04</pdfrwt>
<totfact> 0.10078757E+01</totfact>
</mgrwt>
</event>
<event>
12    7  0.1701638E-007  0.1338136E+04  0.7818608E-02  0.8999858E-01
         -1   -1    0    0    0  501 -0.00000000000E+00  0.00000000000E+00  0.16740652621E+03  0.16740652621E+03  0.00000000000E+00 0.  1.
          2   -1    0    0  501    0  0.00000000000E+00 -0.00000000000E+00 -0.26740402680E+04  0.26740402680E+04  0.00000000000E+00 0. -1.
         24    2    1    2    0    0  0.15873403293E+03 -0.32537225151E+03 -0.68637898654E+03  0.78008735061E+03  0.79728076368E+02 0.  0.
        254    2    1    2    0    0 -0.15873403293E+03  0.32537225151E+03 -0.18202547552E+04  0.20613594436E+04  0.89711302878E+03 0.  0.
         23    2    4    4    0    0 -0.49286483329E+03  0.34301027941E+03 -0.99630061852E+03  0.11669172016E+04  0.92244443232E+02 0.  0.
         23    2    4    4    0    0  0.33413080035E+03 -0.17638027906E+02 -0.82395413670E+03  0.89444224194E+03  0.95770627057E+02 0.  0.
          4    1    3    3  502    0  0.11314870643E+03 -0.29029273505E+03 -0.60385731632E+03  0.67949699063E+03  0.00000000000E+00 0. -1.
         -3    1    3    3    0  502  0.45585326506E+02 -0.35079516453E+02 -0.82521670213E+02  0.10059035999E+03  0.00000000000E+00 0.  1.
         13    1    5    5    0    0 -0.17262724420E+03  0.10499526019E+03 -0.25805034506E+03  0.32774098109E+03  0.00000000000E+00 0. -1.
        -13    1    5    5    0    0 -0.32023758909E+03  0.23801501922E+03 -0.73825027345E+03  0.83917622053E+03  0.00000000000E+00 0.  1.
          3    1    6    6  503    0  0.18150010301E+03  0.31625675802E+02 -0.50226857778E+03  0.53499177096E+03  0.00000000000E+00 0. -1.
         -3    1    6    6    0  503  0.15263069734E+03 -0.49263703707E+02 -0.32168555892E+03  0.35945047098E+03  0.00000000000E+00 0.  1.
<mgrwt>
<rscale>  0 0.13381357E+04</rscale>
<asrwt>0</asrwt>
<pdfrwt beam="1">  1        2 0.41139083E+00 0.13381357E+04</pdfrwt>
<pdfrwt beam="2">  1       -1 0.25754849E-01 0.13381357E+04</pdfrwt>
<totfact> 0.41024093E+01</totfact>
</mgrwt>
</event>
<event>
12    7  0.1701638E-007  0.1696230E+04  0.7818608E-02  0.8763517E-01
         -1   -1    0    0    0  501 -0.00000000000E+00  0.00000000000E+00  0.31125205170E+03  0.31125205170E+03  0.00000000000E+00 0.  1.
          2   -1    0    0  501    0  0.00000000000E+00 -0.00000000000E+00 -0.23109855491E+04  0.23109855491E+04  0.00000000000E+00 0. -1.
         24    2    1    2    0    0 -0.19728907539E+02  0.15405934656E+03  0.18527133500E+03  0.25462026734E+03  0.79890555835E+02 0.  0.
        254    2    1    2    0    0  0.19728907539E+02 -0.15405934656E+03 -0.21850048324E+04  0.23676173335E+04  0.89846658705E+03 0.  0.
         23    2    4    4    0    0  0.23582326694E+03 -0.34482298625E+03 -0.19150155753E+04  0.19621723299E+04  0.91214547450E+02 0.  0.
         23    2    4    4    0    0 -0.21609435940E+03  0.19076363969E+03 -0.26998925711E+03  0.40544500353E+03  0.91672861524E+02 0.  0.
          2    1    3    3  502    0 -0.24966197950E+02  0.52090462187E+01  0.31698307894E+02  0.40684492450E+02  0.00000000000E+00 0. -1.
         -1    1    3    3    0  502  0.52372904111E+01  0.14885030034E+03  0.15357302711E+03  0.21393577489E+03  0.00000000000E+00 0.  1.
         13    1    5    5    0    0  0.18599509487E+02 -0.37788774648E+02 -0.35352497119E+03  0.35602505319E+03  0.00000000000E+00 0. -1.
        -13    1    5    5    0    0  0.21722375746E+03 -0.30703421160E+03 -0.15614906041E+04  0.16061472767E+04  0.00000000000E+00 0.  1.
          4    1    6    6  503    0 -0.13691738747E+03  0.82023864632E+02 -0.98723666258E+02  0.18767164847E+03  0.00000000000E+00 0. -1.
         -4    1    6    6    0  503 -0.79176971937E+02  0.10873977506E+03 -0.17126559086E+03  0.21777335506E+03  0.00000000000E+00 0.  1.
<mgrwt>
<rscale>  0 0.16962299E+04</rscale>
<asrwt>0</asrwt>
<pdfrwt beam="1">  1        2 0.35553625E+00 0.16962299E+04</pdfrwt>
<pdfrwt beam="2">  1       -1 0.47884929E-01 0.16962299E+04</pdfrwt>
<totfact> 0.21124954E+01</totfact>
</mgrwt>
</event>
<event>
12    7  0.1701638E-007  0.1722871E+04  0.7818608E-02  0.8748427E-01
         -1   -1    0    0    0  501 -0.00000000000E+00  0.00000000000E+00  0.27824540995E+03  0.27824540995E+03  0.00000000000E+00 0.  1.
          2   -1    0    0  501    0  0.00000000000E+00 -0.00000000000E+00 -0.26669663407E+04  0.26669663407E+04  0.00000000000E+00 0. -1.
         24    2    1    2    0    0  0.62163800767E+03  0.68619194298E+02 -0.79233508843E+03  0.10126644281E+04  0.80944087407E+02 0.  0.
        254    2    1    2    0    0 -0.62163800767E+03 -0.68619194298E+02 -0.15963858424E+04  0.19325473225E+04  0.89171127041E+03 0.  0.
         23    2    4    4    0    0 -0.53203146444E+03  0.20888910946E+03 -0.15069393835E+04  0.16142835707E+04  0.91394758663E+02 0.  0.
         23    2    4    4    0    0 -0.89606543233E+02 -0.27750830376E+03 -0.89446458900E+02  0.31826375187E+03  0.90834770340E+02 0.  0.
          4    1    3    3  502    0  0.55804816597E+03  0.61156488654E+02 -0.74598178064E+03  0.93362020581E+03  0.00000000000E+00 0. -1.
         -3    1    3    3    0  502  0.63589841699E+02  0.74627056443E+01 -0.46353307781E+02  0.79044222338E+02  0.00000000000E+00 0.  1.
         13    1    5    5    0    0 -0.33380827983E+03  0.13016357618E+03 -0.10632142953E+04  0.11219604102E+04  0.00000000000E+00 0. -1.
        -13    1    5    5    0    0 -0.19822318460E+03  0.78725533280E+02 -0.44372508811E+03  0.49232316046E+03  0.00000000000E+00 0.  1.
          3    1    6    6  503    0 -0.46867608033E+02 -0.18158313521E+03 -0.12261803751E+02  0.18793445534E+03  0.00000000000E+00 0. -1.
         -3    1    6    6    0  503 -0.42738935200E+02 -0.95925168551E+02 -0.77184655149E+02  0.13032929653E+03  0.00000000000E+00 0.  1.
<mgrwt>
<rscale>  0 0.17228710E+04</rscale>
<asrwt>0</asrwt>
<pdfrwt beam="1">  1        2 0.41030253E+00 0.17228710E+04</pdfrwt>
<pdfrwt beam="2">  1       -1 0.42806985E-01 0.17228710E+04</pdfrwt>
<totfact> 0.16189588E+01</totfact>
</mgrwt>
</event>
<event>
12    7  0.1701638E-007  0.2003833E+04  0.7818608E-02  0.8604831E-01
         -1   -1    0    0    0  501 -0.00000000000E+00  0.00000000000E+00  0.86501178928E+03  0.86501178928E+03  0.00000000000E+00 0.  1.
          2   -1    0    0  501    0  0.00000000000E+00 -0.00000000000E+00 -0.11604893008E+04  0.11604893008E+04  0.00000000000E+00 0. -1.
         24    2    1    2    0    0  0.69018514956E+03 -0.39802846104E+03 -0.11867039723E+03  0.80957624325E+03  0.80924866267E+02 0.  0.
        254    2    1    2    0    0 -0.69018514956E+03  0.39802846104E+03 -0.17680711428E+03  0.12159248468E+04  0.90134914489E+03 0.  0.
         23    2    4    4    0    0 -0.26586211193E+03  0.24631747002E+03  0.35319237297E+03  0.51420698650E+03  0.91153793380E+02 0.  0.
         23    2    4    4    0    0 -0.42432303763E+03  0.15171099102E+03 -0.52999948725E+03  0.70171786033E+03  0.91881630140E+02 0.  0.
          2    1    3    3  502    0  0.68748946068E+03 -0.40000471467E+03 -0.12219155413E+03  0.80472125995E+03  0.00000000000E+00 0. -1.
         -1    1    3    3    0  502  0.26956888792E+01  0.19762536308E+01  0.35211569008E+01  0.48549833024E+01  0.00000000000E+00 0.  1.
         13    1    5    5    0    0 -0.45522063884E+02  0.86716273337E+02  0.63164064871E+02  0.11654041982E+03  0.00000000000E+00 0. -1.
        -13    1    5    5    0    0 -0.22034004805E+03  0.15960119668E+03  0.29002830810E+03  0.39766656668E+03  0.00000000000E+00 0.  1.
          3    1    6    6  503    0 -0.11584788510E+02  0.19644196508E+02 -0.10232299987E+02  0.24996034572E+02  0.00000000000E+00 0. -1.
         -3    1    6    6    0  503 -0.41273824912E+03  0.13206679452E+03 -0.51976718726E+03  0.67672182575E+03  0.00000000000E+00 0.  1.
<mgrwt>
<rscale>  0 0.20038333E+04</rscale>
<asrwt>0</asrwt>
<pdfrwt beam="1">  1        2 0.17853681E+00 0.20038333E+04</pdfrwt>
<pdfrwt beam="2">  1       -1 0.13307874E+00 0.20038333E+04</pdfrwt>
<totfact> 0.10125972E+01</totfact>
</mgrwt>
</event>
<event>
12    7  0.1701638E-007  0.2812768E+04  0.7818608E-02  0.8299315E-01
          2   -1    0    0  501    0  0.00000000000E+00  0.00000000000E+00  0.57480473427E+03  0.57480473427E+03  0.00000000000E+00 0. -1.
         -1   -1    0    0    0  501 -0.00000000000E+00 -0.00000000000E+00 -0.34410222978E+04  0.34410222978E+04  0.00000000000E+00 0.  1.
         24    2    1    2    0    0 -0.22373436862E+03 -0.10213971661E+04 -0.28339850520E+03  0.10863319302E+04  0.80579842988E+02 0.  0.
        254    2    1    2    0    0  0.22373436862E+03  0.10213971661E+04 -0.25828190584E+04  0.29294951019E+04  0.90425550879E+03 0.  0.
         23    2    4    4    0    0  0.31084078240E+03  0.87634187151E+03 -0.11394825347E+04  0.14735332643E+04  0.91009705048E+02 0.  0.
         23    2    4    4    0    0 -0.87106413780E+02  0.14505529463E+03 -0.14433365237E+04  0.14559618376E+04  0.89308376747E+02 0.  0.
          2    1    3    3  502    0 -0.27521097219E+02 -0.18697313070E+03 -0.80773502537E+02  0.20552547557E+03  0.00000000000E+00 0. -1.
         -1    1    3    3    0  502 -0.19621327141E+03 -0.83442403544E+03 -0.20262500266E+03  0.88080645462E+03  0.00000000000E+00 0.  1.
         13    1    5    5    0    0  0.10629934163E+03  0.30839592267E+03 -0.33296839661E+03  0.46612825305E+03  0.00000000000E+00 0. -1.
        -13    1    5    5    0    0  0.20454144078E+03  0.56794594884E+03 -0.80651413810E+03  0.10074050113E+04  0.00000000000E+00 0.  1.
          1    1    6    6  503    0  0.97935230155E+01  0.53505941428E+02 -0.30123409649E+03  0.30610583096E+03  0.00000000000E+00 0. -1.
         -1    1    6    6    0  503 -0.96899936796E+02  0.91549353202E+02 -0.11421024272E+04  0.11498560066E+04  0.00000000000E+00 0.  1.
<mgrwt>
<rscale>  0 0.28127680E+04</rscale>
<asrwt>0</asrwt>
<pdfrwt beam="1">  1        2 0.88431498E-01 0.28127680E+04</pdfrwt>
<pdfrwt beam="2">  1       -1 0.52938804E+00 0.28127680E+04</pdfrwt>
<totfact> 0.50451807E-02</totfact>
</mgrwt>
</event>
<event>
12    7  0.1701638E-007  0.1471678E+04  0.7818608E-02  0.8903508E-01
          2   -1    0    0  501    0  0.00000000000E+00  0.00000000000E+00  0.81641003589E+03  0.81641003589E+03  0.00000000000E+00 0. -1.
         -1   -1    0    0    0  501 -0.00000000000E+00 -0.00000000000E+00 -0.66321987519E+03  0.66321987519E+03  0.00000000000E+00 0.  1.
         24    2    1    2    0    0  0.31954183243E+03  0.16769937290E+03 -0.22586826456E+03  0.43328808624E+03  0.80573136990E+02 0.  0.
        254    2    1    2    0    0 -0.31954183243E+03 -0.16769937290E+03  0.37905842526E+03  0.10463418248E+04  0.90604407304E+03 0.  0.
         23    2    4    4    0    0 -0.37783172855E+03 -0.42055316969E+03 -0.66876779777E+01  0.57273955587E+03  0.91455400008E+02 0.  0.
         23    2    4    4    0    0  0.58289896127E+02  0.25285379679E+03  0.38574610324E+03  0.47360226896E+03  0.90367574151E+02 0.  0.
          4    1    3    3  502    0  0.49083664159E+02  0.59603331983E+02 -0.33059460668E+02  0.83992209225E+02  0.00000000000E+00 0. -1.
         -3    1    3    3    0  502  0.27045816827E+03  0.10809604091E+03 -0.19280880389E+03  0.34929587702E+03  0.00000000000E+00 0.  1.
         13    1    5    5    0    0 -0.14518615207E+03 -0.10176442782E+03  0.11471588834E+02  0.17766996053E+03  0.00000000000E+00 0. -1.
        -13    1    5    5    0    0 -0.23264557648E+03 -0.31878874186E+03 -0.18159266812E+02  0.39506959534E+03  0.00000000000E+00 0.  1.
          2    1    6    6  503    0  0.55026073797E+02  0.11010684682E+03  0.11988406134E+03  0.17182425521E+03  0.00000000000E+00 0. -1.
         -2    1    6    6    0  503  0.32638223299E+01  0.14274694997E+03  0.26586204190E+03  0.30177801375E+03  0.00000000000E+00 0.  1.
<mgrwt>
<rscale>  0 0.14716784E+04</rscale>
<asrwt>0</asrwt>
<pdfrwt beam="1">  1        2 0.12560154E+00 0.14716784E+04</pdfrwt>
<pdfrwt beam="2">  1       -1 0.10203383E+00 0.14716784E+04</pdfrwt>
<totfact> 0.33729790E+01</totfact>
</mgrwt>
</event>
<event>
12    7  0.1701638E-007  0.1974647E+04  0.7818608E-02  0.8618567E-01
         -1   -1    0    0    0  501 -0.00000000000E+00  0.00000000000E+00  0.44364601323E+03  0.44364601323E+03  0.00000000000E+00 0.  1.
          2   -1    0    0  501    0  0.00000000000E+00 -0.00000000000E+00 -0.21972636144E+04  0.21972636144E+04  0.00000000000E+00 0. -1.
         24    2    1    2    0    0  0.36710647207E+03 -0.73309338019E+01  0.22302730325E+03  0.43723435461E+03  0.81312965952E+02 0.  0.
        254    2    1    2    0    0 -0.36710647207E+03  0.73309338019E+01 -0.19766449044E+04  0.22036752730E+04  0.90235177525E+03 0.  0.
         23    2    4    4    0    0 -0.85736328345E+02  0.32498276621E+03 -0.26510841195E+03  0.43776986908E+03  0.91626807529E+02 0.  0.
         23    2    4    4    0    0 -0.28137014373E+03 -0.31765183240E+03 -0.17115364924E+04  0.17659054039E+04  0.94830829305E+02 0.  0.
          2    1    3    3  502    0  0.22298529501E+02  0.14059975108E+02  0.62999617116E+00  0.26368621752E+02  0.00000000000E+00 0. -1.
         -1    1    3    3    0  502  0.34480794257E+03 -0.21390908909E+02  0.22239730707E+03  0.41086573286E+03  0.00000000000E+00 0.  1.
         13    1    5    5    0    0 -0.23472324414E+02  0.73255290608E+02 -0.11435399054E+03  0.13781916691E+03  0.00000000000E+00 0.  1.
        -13    1    5    5    0    0 -0.62264003930E+02  0.25172747560E+03 -0.15075442141E+03  0.29995070217E+03  0.00000000000E+00 0. -1.
          4    1    6    6  503    0 -0.72419186236E+02 -0.67396061499E+02 -0.57847944097E+03  0.58687752663E+03  0.00000000000E+00 0. -1.
         -4    1    6    6    0  503 -0.20895095749E+03 -0.25025577091E+03 -0.11330570515E+04  0.11790278773E+04  0.00000000000E+00 0.  1.
<mgrwt>
<rscale>  0 0.19746465E+04</rscale>
<asrwt>0</asrwt>
<pdfrwt beam="1">  1        2 0.33804055E+00 0.19746465E+04</pdfrwt>
<pdfrwt beam="2">  1       -1 0.68253234E-01 0.19746465E+04</pdfrwt>
<totfact> 0.11935892E+01</totfact>
</mgrwt>
</event>
<event>
12    7  0.1701638E-007  0.2260617E+04  0.7818608E-02  0.8493613E-01
         -1   -1    0    0    0  501 -0.00000000000E+00  0.00000000000E+00  0.99074070594E+03  0.99074070594E+03  0.00000000000E+00 0.  1.
          2   -1    0    0  501    0  0.00000000000E+00 -0.00000000000E+00 -0.12895379116E+04  0.12895379116E+04  0.00000000000E+00 0. -1.
         24    2    1    2    0    0 -0.80493617643E+03  0.24938986808E+03 -0.56023665582E+03  0.10150379955E+04  0.79495077848E+02 0.  0.
        254    2    1    2    0    0  0.80493617643E+03 -0.24938986808E+03  0.26143945020E+03  0.12652406220E+04  0.90684380737E+03 0.  0.
         23    2    4    4    0    0  0.55051173065E+02 -0.40522046785E+03  0.26238717983E+03  0.49413333047E+03  0.89924729241E+02 0.  0.
         23    2    4    4    0    0  0.74988500337E+03  0.15583059977E+03 -0.94772962720E+00  0.77110729151E+03  0.89413996277E+02 0.  0.
          4    1    3    3  502    0 -0.78764115292E+03  0.24211215031E+03 -0.53095521232E+03  0.98026033103E+03  0.00000000000E+00 0. -1.
         -3    1    3    3    0  502 -0.17295023514E+02  0.72777177654E+01 -0.29281443500E+02  0.34777664494E+02  0.00000000000E+00 0.  1.
         13    1    5    5    0    0  0.75787264677E+01 -0.23281710660E+02  0.47228595032E+02  0.53197888443E+02  0.00000000000E+00 0. -1.
        -13    1    5    5    0    0  0.47472446597E+02 -0.38193875718E+03  0.21515858479E+03  0.44093544203E+03  0.00000000000E+00 0.  1.
          4    1    6    6  503    0  0.52563862724E+02 -0.72203828211E+01  0.13809371534E+02  0.54825106791E+02  0.00000000000E+00 0. -1.
         -4    1    6    6    0  503  0.69732114064E+03  0.16305098259E+03 -0.14757101161E+02  0.71628218472E+03  0.00000000000E+00 0.  1.
<mgrwt>
<rscale>  0 0.22606174E+04</rscale>
<asrwt>0</asrwt>
<pdfrwt beam="1">  1        2 0.19839045E+00 0.22606174E+04</pdfrwt>
<pdfrwt beam="2">  1       -1 0.15242165E+00 0.22606174E+04</pdfrwt>
<totfact> 0.58064994E+00</totfact>
</mgrwt>
</event>
<event>
12    7  0.1701638E-007  0.1096092E+04  0.7818608E-02  0.9209009E-01
         -1   -1    0    0    0  501 -0.00000000000E+00  0.00000000000E+00  0.96633171545E+02  0.96633171545E+02  0.00000000000E+00 0.  1.
          2   -1    0    0  501    0  0.00000000000E+00 -0.00000000000E+00 -0.31081913696E+04  0.31081913696E+04  0.00000000000E+00 0. -1.
         24    2    1    2    0    0  0.92787390099E+02 -0.68961815054E+02 -0.65056062347E+03  0.66546253371E+03  0.79031811711E+02 0.  0.
        254    2    1    2    0    0 -0.92787390099E+02  0.68961815054E+02 -0.23609975745E+04  0.25393620074E+04  0.92773090167E+03 0.  0.
         23    2    4    4    0    0 -0.62907365233E+02  0.45104762842E+03 -0.17544348720E+04  0.18148545319E+04  0.90851264074E+02 0.  0.
         23    2    4    4    0    0 -0.29880024866E+02 -0.38208581336E+03 -0.60656270252E+03  0.72450747547E+03  0.10055041154E+03 0.  0.
          4    1    3    3  502    0 -0.76112663968E+01 -0.21006343660E+02 -0.20524408808E+03  0.20645661419E+03  0.00000000000E+00 0. -1.
         -3    1    3    3    0  502  0.10039865650E+03 -0.47955471394E+02 -0.44531653539E+03  0.45900591952E+03  0.00000000000E+00 0.  1.
         13    1    5    5    0    0 -0.51472937032E+02  0.44392372666E+03 -0.17316258998E+04  0.17883640556E+04  0.00000000000E+00 0. -1.
        -13    1    5    5    0    0 -0.11434428200E+02  0.71239017550E+01 -0.22808972206E+02  0.26490476356E+02  0.00000000000E+00 0.  1.
          3    1    6    6  503    0 -0.22174175507E+02 -0.27189546688E+03 -0.50731730672E+03  0.57601188240E+03  0.00000000000E+00 0. -1.
         -3    1    6    6    0  503 -0.77058493594E+01 -0.11019034649E+03 -0.99245395801E+02  0.14849559307E+03  0.00000000000E+00 0.  1.
<mgrwt>
<rscale>  0 0.10960919E+04</rscale>
<asrwt>0</asrwt>
<pdfrwt beam="1">  1        2 0.47818326E+00 0.10960919E+04</pdfrwt>
<pdfrwt beam="2">  1       -1 0.14866643E-01 0.10960919E+04</pdfrwt>
<totfact> 0.57370269E+01</totfact>
</mgrwt>
</event>
<event>
12    7  0.1701638E-007  0.3112642E+04  0.7818608E-02  0.8212277E-01
          2   -1    0    0  501    0  0.00000000000E+00  0.00000000000E+00  0.24000861889E+04  0.24000861889E+04  0.00000000000E+00 0. -1.
         -1   -1    0    0    0  501 -0.00000000000E+00 -0.00000000000E+00 -0.10091868858E+04  0.10091868858E+04  0.00000000000E+00 0.  1.
         24    2    1    2    0    0  0.58622275666E+03  0.43421856645E+03  0.19737359195E+04  0.21057458495E+04  0.79556387254E+02 0.  0.
        254    2    1    2    0    0 -0.58622275666E+03 -0.43421856645E+03 -0.58283661635E+03  0.13035272253E+04  0.90955034047E+03 0.  0.
         23    2    4    4    0    0 -0.77221475280E+03 -0.21061018418E+03 -0.59096069765E+03  0.99909728882E+03  0.91041596237E+02 0.  0.
         23    2    4    4    0    0  0.18599199614E+03 -0.22360838227E+03  0.81240813015E+01  0.30442993647E+03  0.89542471879E+02 0.  0.
          2    1    3    3  502    0  0.26452214193E+03  0.20184851024E+03  0.10140413607E+04  0.10672369306E+04  0.00000000000E+00 0. -1.
         -1    1    3    3    0  502  0.32170061473E+03  0.23237005621E+03  0.95969455874E+03  0.10385089189E+04  0.00000000000E+00 0.  1.
         13    1    5    5    0    0 -0.72624794740E+03 -0.21457559507E+03 -0.53845010645E+03  0.92919711808E+03  0.00000000000E+00 0. -1.
        -13    1    5    5    0    0 -0.45966805395E+02  0.39654108956E+01 -0.52510591201E+02  0.69900170744E+02  0.00000000000E+00 0.  1.
          1    1    6    6  503    0  0.62188988702E+02 -0.43651856812E+02  0.36272286310E+02  0.84194023975E+02  0.00000000000E+00 0. -1.
         -1    1    6    6    0  503  0.12380300744E+03 -0.17995652546E+03 -0.28148205009E+02  0.22023591249E+03  0.00000000000E+00 0.  1.
<mgrwt>
<rscale>  0 0.31126423E+04</rscale>
<asrwt>0</asrwt>
<pdfrwt beam="1">  1        2 0.36924403E+00 0.31126423E+04</pdfrwt>
<pdfrwt beam="2">  1       -1 0.15525952E+00 0.31126423E+04</pdfrwt>
<totfact> 0.12171602E+00</totfact>
</mgrwt>
</event>
<event>
12    7  0.1701638E-007  0.2180917E+04  0.7818608E-02  0.8526413E-01
          2   -1    0    0  501    0  0.00000000000E+00  0.00000000000E+00  0.10535825540E+04  0.10535825540E+04  0.00000000000E+00 0. -1.
         -1   -1    0    0    0  501 -0.00000000000E+00 -0.00000000000E+00 -0.11286252391E+04  0.11286252391E+04  0.00000000000E+00 0.  1.
         24    2    1    2    0    0  0.12900007295E+03  0.88819339228E+03  0.94371965846E+02  0.90631178028E+03  0.83465287476E+02 0.  0.
        254    2    1    2    0    0 -0.12900007295E+03 -0.88819339228E+03 -0.16941465096E+03  0.12758960128E+04  0.89088764199E+03 0.  0.
         23    2    4    4    0    0 -0.30903837052E+03 -0.51893111900E+03  0.26714166273E+03  0.66805613417E+03  0.10069811175E+03 0.  0.
         23    2    4    4    0    0  0.18003829757E+03 -0.36926227329E+03 -0.43655631370E+03  0.60783987865E+03  0.10059566584E+03 0.  0.
          2    1    3    3  502    0  0.10857521551E+03  0.69627678603E+03  0.10759891106E+03  0.71285865770E+03  0.00000000000E+00 0. -1.
         -1    1    3    3    0  502  0.20424857442E+02  0.19191660625E+03 -0.13226945217E+02  0.19345312258E+03  0.00000000000E+00 0.  1.
         13    1    5    5    0    0 -0.26796500023E+03 -0.49930290827E+03  0.24358763215E+03  0.61680107822E+03  0.00000000000E+00 0. -1.
        -13    1    5    5    0    0 -0.41073370289E+02 -0.19628210726E+02  0.23554030576E+02  0.51255055942E+02  0.00000000000E+00 0.  1.
          1    1    6    6  503    0  0.18675327617E+03 -0.30820450843E+03 -0.38801592409E+03  0.52954996226E+03  0.00000000000E+00 0. -1.
         -1    1    6    6    0  503 -0.67149785905E+01 -0.61057764851E+02 -0.48540389603E+02  0.78289916393E+02  0.00000000000E+00 0.  1.
<mgrwt>
<rscale>  0 0.21809171E+04</rscale>
<asrwt>0</asrwt>
<pdfrwt beam="1">  1        2 0.16208963E+00 0.21809171E+04</pdfrwt>
<pdfrwt beam="2">  1       -1 0.17363465E+00 0.21809171E+04</pdfrwt>
<totfact> 0.56265090E+00</totfact>
</mgrwt>
</event>
<event>
12    7  0.1701638E-007  0.3026549E+04  0.7818608E-02  0.8236190E-01
         -1   -1    0    0    0  501 -0.00000000000E+00  0.00000000000E+00  0.14562771288E+04  0.14562771288E+04  0.00000000000E+00 0.  1.
          2   -1    0    0  501    0  0.00000000000E+00 -0.00000000000E+00 -0.15725028316E+04  0.15725028316E+04  0.00000000000E+00 0. -1.
         24    2    1    2    0    0 -0.36341540082E+03 -0.10102538351E+04  0.81407721352E+03  0.13496372744E+04  0.78201650169E+02 0.  0.
        254    2    1    2    0    0  0.36341540082E+03  0.10102538351E+04 -0.93030291630E+03  0.16791426860E+04  0.89519443636E+03 0.  0.
         23    2    4    4    0    0  0.32676482999E+03  0.43952271442E+03  0.31707999219E+02  0.55624232524E+03  0.91894812460E+02 0.  0.
         23    2    4    4    0    0  0.36650570830E+02  0.57073112068E+03 -0.96201091552E+03  0.11229003607E+04  0.91449123073E+02 0.  0.
          2    1    3    3  502    0 -0.10429319149E+01 -0.18933704066E+02  0.27052980864E+02  0.33036898012E+02  0.00000000000E+00 0. -1.
         -1    1    3    3    0  502 -0.36237246891E+03 -0.99132013103E+03  0.78702423265E+03  0.13166003764E+04  0.00000000000E+00 0.  1.
         13    1    5    5    0    0  0.22391168706E+03  0.33939899943E+03  0.56711829395E+02  0.41054153993E+03  0.00000000000E+00 0.  1.
        -13    1    5    5    0    0  0.10285314294E+03  0.10012371500E+03 -0.25003830176E+02  0.14570078531E+03  0.00000000000E+00 0. -1.
          3    1    6    6  503    0 -0.92992430805E+01  0.12124886249E+03 -0.14468491779E+03  0.18900129103E+03  0.00000000000E+00 0. -1.
         -3    1    6    6    0  503  0.45949813911E+02  0.44948225819E+03 -0.81732599773E+03  0.93389906971E+03  0.00000000000E+00 0.  1.
<mgrwt>
<rscale>  0 0.30265491E+04</rscale>
<asrwt>0</asrwt>
<pdfrwt beam="1">  1        2 0.24192351E+00 0.30265491E+04</pdfrwt>
<pdfrwt beam="2">  1       -1 0.22404264E+00 0.30265491E+04</pdfrwt>
<totfact> 0.11619517E+00</totfact>
</mgrwt>
</event>
<event>
12    7  0.1701638E-007  0.1434921E+04  0.7818608E-02  0.8928922E-01
         -1   -1    0    0    0  501 -0.00000000000E+00  0.00000000000E+00  0.28367706195E+03  0.28367706195E+03  0.00000000000E+00 0.  1.
          2   -1    0    0  501    0  0.00000000000E+00 -0.00000000000E+00 -0.18145625103E+04  0.18145625103E+04  0.00000000000E+00 0. -1.
         24    2    1    2    0    0  0.15164359977E+03 -0.69558170265E+02  0.11164277530E+03  0.21629567561E+03  0.80533158439E+02 0.  0.
        254    2    1    2    0    0 -0.15164359977E+03  0.69558170265E+02 -0.16425282236E+04  0.18819438966E+04  0.90331597140E+03 0.  0.
         23    2    4    4    0    0  0.34613714865E+03  0.15332936548E+03 -0.53650913689E+03  0.66274901719E+03  0.89852021836E+02 0.  0.
         23    2    4    4    0    0 -0.49778074842E+03 -0.83771195210E+02 -0.11060190867E+04  0.12191948794E+04  0.91403758881E+02 0.  0.
          2    1    3    3  502    0  0.77809023117E+01  0.50918634366E+00 -0.11836669755E+02  0.14174218229E+02  0.00000000000E+00 0. -1.
         -1    1    3    3    0  502  0.14386269746E+03 -0.70067356609E+02  0.12347944505E+03  0.20212145738E+03  0.00000000000E+00 0.  1.
         13    1    5    5    0    0  0.11610944754E+03  0.66317338249E+02 -0.26225222966E+03  0.29437327515E+03  0.00000000000E+00 0.  1.
        -13    1    5    5    0    0  0.23002770112E+03  0.87012027226E+02 -0.27425690723E+03  0.36837574204E+03  0.00000000000E+00 0. -1.
          4    1    6    6  503    0 -0.21143984223E+03 -0.39079090519E+02 -0.58081461786E+03  0.61933803574E+03  0.00000000000E+00 0.  1.
         -4    1    6    6    0  503 -0.28634090620E+03 -0.44692104691E+02 -0.52520446887E+03  0.59985684367E+03  0.00000000000E+00 0. -1.
<mgrwt>
<rscale>  0 0.14349213E+04</rscale>
<asrwt>0</asrwt>
<pdfrwt beam="1">  1        2 0.27916345E+00 0.14349213E+04</pdfrwt>
<pdfrwt beam="2">  1       -1 0.43642626E-01 0.14349213E+04</pdfrwt>
<totfact> 0.48577223E+01</totfact>
</mgrwt>
</event>
<event>
12    7  0.1701638E-007  0.1234785E+04  0.7818608E-02  0.9082942E-01
         -1   -1    0    0    0  501 -0.00000000000E+00  0.00000000000E+00  0.94829984074E+03  0.94829984074E+03  0.00000000000E+00 0.  1.
          2   -1    0    0  501    0  0.00000000000E+00 -0.00000000000E+00 -0.40195491896E+03  0.40195491896E+03  0.00000000000E+00 0. -1.
         24    2    1    2    0    0 -0.12084655651E+03  0.12019875213E+03 -0.98497711023E+02  0.21252079966E+03  0.80072847952E+02 0.  0.
        254    2    1    2    0    0  0.12084655651E+03 -0.12019875213E+03  0.64484263280E+03  0.11377339600E+04  0.92171845620E+03 0.  0.
         23    2    4    4    0    0  0.50049754562E+03 -0.61593412958E+02  0.50420147408E+03  0.71839597383E+03  0.87075295389E+02 0.  0.
         23    2    4    4    0    0 -0.37965098911E+03 -0.58605339176E+02  0.14064115873E+03  0.41933798620E+03  0.92168062976E+02 0.  0.
          4    1    3    3  502    0 -0.11360308053E+03  0.96848573031E+02 -0.11006813921E+03  0.18547318209E+03  0.00000000000E+00 0. -1.
         -3    1    3    3    0  502 -0.72434759739E+01  0.23350179103E+02  0.11570428183E+02  0.27047617579E+02  0.00000000000E+00 0.  1.
         13    1    5    5    0    0  0.33951750661E+03 -0.72677357004E+02  0.38025851952E+03  0.51492783687E+03  0.00000000000E+00 0.  1.
        -13    1    5    5    0    0  0.16098003901E+03  0.11083944046E+02  0.12394295456E+03  0.20346813696E+03  0.00000000000E+00 0. -1.
          1    1    6    6  503    0 -0.48372965275E+01  0.11413363272E+02  0.11089943201E+02  0.16632833164E+02  0.00000000000E+00 0. -1.
         -1    1    6    6    0  503 -0.37481369258E+03 -0.70018702448E+02  0.12955121553E+03  0.40270515304E+03  0.00000000000E+00 0.  1.
<mgrwt>
<rscale>  0 0.12347855E+04</rscale>
<asrwt>0</asrwt>
<pdfrwt beam="1">  1        2 0.61839218E-01 0.12347855E+04</pdfrwt>
<pdfrwt beam="2">  1       -1 0.14589228E+00 0.12347855E+04</pdfrwt>
<totfact> 0.33497325E+01</totfact>
</mgrwt>
</event>
<event>
12    7  0.1701638E-007  0.1981218E+04  0.7818608E-02  0.8615453E-01
          2   -1    0    0  501    0  0.00000000000E+00  0.00000000000E+00  0.82290598380E+03  0.82290598380E+03  0.00000000000E+00 0. -1.
         -1   -1    0    0    0  501 -0.00000000000E+00 -0.00000000000E+00 -0.11924882285E+04  0.11924882285E+04  0.00000000000E+00 0.  1.
         24    2    1    2    0    0 -0.37232960361E+03 -0.38894079237E+03  0.51145088677E+03  0.74774224413E+03  0.87362351079E+02 0.  0.
        254    2    1    2    0    0  0.37232960361E+03  0.38894079237E+03 -0.88103313146E+03  0.12676519682E+04  0.73540319550E+03 0.  0.
         23    2    4    4    0    0  0.76270189993E+02 -0.16053837169E+03 -0.20034219399E+02  0.20034893024E+03  0.90269669522E+02 0.  0.
         23    2    4    4    0    0  0.29605941362E+03  0.54947916406E+03 -0.86099891207E+03  0.10673030379E+04  0.90764090075E+02 0.  0.
          4    1    3    3  502    0 -0.22542709873E+03 -0.18831565839E+03  0.31625366497E+03  0.43162083435E+03  0.00000000000E+00 0. -1.
         -3    1    3    3    0  502 -0.14690250488E+03 -0.20062513398E+03  0.19519722180E+03  0.31612140978E+03  0.00000000000E+00 0.  1.
         13    1    5    5    0    0  0.80628963516E+02 -0.16345575417E+03 -0.27442826042E+01  0.18228094913E+03  0.00000000000E+00 0.  1.
        -13    1    5    5    0    0 -0.43587735228E+01  0.29173824771E+01 -0.17289936795E+02  0.18067981113E+02  0.00000000000E+00 0. -1.
          4    1    6    6  503    0  0.27659491529E+02  0.52148616455E+02 -0.42831841524E+02  0.72932107594E+02  0.00000000000E+00 0. -1.
         -4    1    6    6    0  503  0.26839992209E+03  0.49733054761E+03 -0.81816707054E+03  0.99437093033E+03  0.00000000000E+00 0.  1.
<mgrwt>
<rscale>  0 0.19812175E+04</rscale>
<asrwt>0</asrwt>
<pdfrwt beam="1">  1        2 0.12660092E+00 0.19812175E+04</pdfrwt>
<pdfrwt beam="2">  1       -1 0.18345973E+00 0.19812175E+04</pdfrwt>
<totfact> 0.69225315E+00</totfact>
</mgrwt>
</event>
<event>
12    7  0.1701638E-007  0.1721593E+04  0.7818608E-02  0.8749144E-01
         -1   -1    0    0    0  501 -0.00000000000E+00  0.00000000000E+00  0.41548618896E+03  0.41548618896E+03  0.00000000000E+00 0.  1.
          2   -1    0    0  501    0  0.00000000000E+00 -0.00000000000E+00 -0.17833823297E+04  0.17833823297E+04  0.00000000000E+00 0. -1.
         24    2    1    2    0    0  0.40458622932E+03 -0.42700466172E+03 -0.74773021525E+03  0.95496638849E+03  0.82688150733E+02 0.  0.
        254    2    1    2    0    0 -0.40458622932E+03  0.42700466172E+03 -0.62016592549E+03  0.12439021302E+04  0.90369449276E+03 0.  0.
         23    2    4    4    0    0 -0.23052151484E+03  0.66817521698E+03 -0.60151284930E+03  0.93256645139E+03  0.90907584852E+02 0.  0.
         23    2    4    4    0    0 -0.17406471448E+03 -0.24117055526E+03 -0.18653076188E+02  0.31133567879E+03  0.90112186117E+02 0.  0.
          4    1    3    3  502    0  0.38017274640E+03 -0.36374907607E+03 -0.66651999988E+03  0.84917231331E+03  0.00000000000E+00 0. -1.
         -1    1    3    3    0  502  0.24413482912E+02 -0.63255585647E+02 -0.81210215366E+02  0.10579407518E+03  0.00000000000E+00 0.  1.
         13    1    5    5    0    0 -0.18589270612E+03  0.41869521704E+03 -0.41177830545E+03  0.61597334017E+03  0.00000000000E+00 0. -1.
        -13    1    5    5    0    0 -0.44628808713E+02  0.24947999994E+03 -0.18973454385E+03  0.31659311121E+03  0.00000000000E+00 0.  1.
          4    1    6    6  503    0 -0.20661710104E+02 -0.30086108193E+02 -0.34087950747E+02  0.49940650344E+02  0.00000000000E+00 0.  1.
         -4    1    6    6    0  503 -0.15340300437E+03 -0.21108444707E+03  0.15434874559E+02  0.26139502845E+03  0.00000000000E+00 0. -1.
<mgrwt>
<rscale>  0 0.17215931E+04</rscale>
<asrwt>0</asrwt>
<pdfrwt beam="1">  1        2 0.27436651E+00 0.17215931E+04</pdfrwt>
<pdfrwt beam="2">  1       -1 0.63920952E-01 0.17215931E+04</pdfrwt>
<totfact> 0.23671054E+01</totfact>
</mgrwt>
</event>
<event>
12    7  0.1701638E-007  0.3142475E+04  0.7818608E-02  0.8204177E-01
         -1   -1    0    0    0  501 -0.00000000000E+00  0.00000000000E+00  0.15903342634E+04  0.15903342634E+04  0.00000000000E+00 0.  1.
          2   -1    0    0  501    0  0.00000000000E+00 -0.00000000000E+00 -0.15523703205E+04  0.15523703205E+04  0.00000000000E+00 0. -1.
         24    2    1    2    0    0 -0.69103540076E+03 -0.58626278104E+03  0.11373753134E+04  0.14564406977E+04  0.79767968027E+02 0.  0.
        254    2    1    2    0    0  0.69103540076E+03  0.58626278104E+03 -0.10994113706E+04  0.16862638862E+04  0.90196815834E+03 0.  0.
         23    2    4    4    0    0  0.48691719265E+03 -0.52581060243E+01 -0.89228080693E+03  0.10207698027E+04  0.93219909773E+02 0.  0.
         23    2    4    4    0    0  0.20411820811E+03  0.59152088706E+03 -0.20713056367E+03  0.66549408349E+03  0.91750215494E+02 0.  0.
          2    1    3    3  502    0 -0.14018800187E+03 -0.79321324943E+02  0.20641211274E+03  0.26182152078E+03  0.00000000000E+00 0. -1.
         -1    1    3    3    0  502 -0.55084739889E+03 -0.50694145610E+03  0.93096320070E+03  0.11946191769E+04  0.00000000000E+00 0.  1.
         13    1    5    5    0    0  0.26531656867E+02 -0.12879917334E+02 -0.24274818275E+02  0.38198008966E+02  0.00000000000E+00 0. -1.
        -13    1    5    5    0    0  0.46038553578E+03  0.76218113096E+01 -0.86800598865E+03  0.98257179377E+03  0.00000000000E+00 0.  1.
          1    1    6    6  503    0  0.81448236662E+02  0.12219236239E+03 -0.37101824971E+02  0.15146396963E+03  0.00000000000E+00 0. -1.
         -1    1    6    6    0  503  0.12266997145E+03  0.46932852468E+03 -0.17002873870E+03  0.51403011386E+03  0.00000000000E+00 0.  1.
<mgrwt>
<rscale>  0 0.31424753E+04</rscale>
<asrwt>0</asrwt>
<pdfrwt beam="1">  1        2 0.23882620E+00 0.31424753E+04</pdfrwt>
<pdfrwt beam="2">  1       -1 0.24466681E+00 0.31424753E+04</pdfrwt>
<totfact> 0.86306371E-01</totfact>
</mgrwt>
</event>
<event>
12    7  0.1701638E-007  0.1636928E+04  0.7818608E-02  0.8798177E-01
          2   -1    0    0  501    0  0.00000000000E+00  0.00000000000E+00  0.68867877527E+03  0.68867877527E+03  0.00000000000E+00 0. -1.
         -1   -1    0    0    0  501 -0.00000000000E+00 -0.00000000000E+00 -0.97270851353E+03  0.97270851353E+03  0.00000000000E+00 0.  1.
         24    2    1    2    0    0  0.70838345466E+02  0.37440878067E+02 -0.65512182060E+03  0.66557728851E+03  0.85957179000E+02 0.  0.
        254    2    1    2    0    0 -0.70838345466E+02 -0.37440878067E+02  0.37109208233E+03  0.99581000029E+03  0.92060215760E+03 0.  0.
         23    2    4    4    0    0  0.20902660998E+03  0.13593872221E+02  0.58573357856E+03  0.62851746568E+03  0.89852448885E+02 0.  0.
         23    2    4    4    0    0 -0.27986495545E+03 -0.51034750288E+02 -0.21464149623E+03  0.36729253461E+03  0.88903852868E+02 0.  0.
          4    1    3    3  502    0  0.27039095411E+02  0.29424627197E+02 -0.87290851845E+02  0.96003198812E+02  0.00000000000E+00 0. -1.
         -3    1    3    3    0  502  0.43799250055E+02  0.80162508693E+01 -0.56783096875E+03  0.56957408970E+03  0.00000000000E+00 0.  1.
         13    1    5    5    0    0  0.32641958813E+01  0.19635564285E+02  0.31196837567E+02  0.37006121571E+02  0.00000000000E+00 0.  1.
        -13    1    5    5    0    0  0.20576241410E+03 -0.60416920639E+01  0.55453674099E+03  0.59151134411E+03  0.00000000000E+00 0. -1.
          1    1    6    6  503    0 -0.18286891199E+03  0.49294285203E+01 -0.15838228252E+03  0.24197166292E+03  0.00000000000E+00 0. -1.
         -1    1    6    6    0  503 -0.96996043450E+02 -0.55964178808E+02 -0.56259213712E+02  0.12532087169E+03  0.00000000000E+00 0.  1.
<mgrwt>
<rscale>  0 0.16369285E+04</rscale>
<asrwt>0</asrwt>
<pdfrwt beam="1">  1        2 0.10595058E+00 0.16369285E+04</pdfrwt>
<pdfrwt beam="2">  1       -1 0.14964746E+00 0.16369285E+04</pdfrwt>
<totfact> 0.16040144E+01</totfact>
</mgrwt>
</event>
<event>
12    7  0.1701638E-007  0.1232393E+04  0.7818608E-02  0.9084966E-01
         -1   -1    0    0    0  501 -0.00000000000E+00  0.00000000000E+00  0.31330024290E+03  0.31330024290E+03  0.00000000000E+00 0.  1.
          2   -1    0    0  501    0  0.00000000000E+00 -0.00000000000E+00 -0.12119310674E+04  0.12119310674E+04  0.00000000000E+00 0. -1.
         24    2    1    2    0    0 -0.21656867575E+03 -0.15120415107E+03 -0.16301041405E+03  0.32174189349E+03  0.84739390617E+02 0.  0.
        254    2    1    2    0    0  0.21656867575E+03  0.15120415107E+03 -0.73562041043E+03  0.12034894168E+04  0.91514190236E+03 0.  0.
         23    2    4    4    0    0  0.32758158541E+03 -0.30068748222E+03 -0.22380368074E+03  0.50584324553E+03  0.89814500298E+02 0.  0.
         23    2    4    4    0    0 -0.11101290966E+03  0.45189163329E+03 -0.51181672968E+03  0.69764617126E+03  0.90685727296E+02 0.  0.
          4    1    3    3  502    0 -0.14365378048E+03 -0.90782928201E+02 -0.14901693294E+03  0.22601768736E+03  0.00000000000E+00 0. -1.
         -3    1    3    3    0  502 -0.72914895275E+02 -0.60421222869E+02 -0.13993481112E+02  0.95724206132E+02  0.00000000000E+00 0.  1.
         13    1    5    5    0    0 -0.45152078557E+00  0.45038620293E+01  0.88521635839E+00  0.46121851871E+01  0.00000000000E+00 0.  1.
        -13    1    5    5    0    0  0.32803310620E+03 -0.30519134425E+03 -0.22468889710E+03  0.50123106034E+03  0.00000000000E+00 0. -1.
          1    1    6    6  503    0 -0.12153714046E+03  0.44197287673E+03 -0.50376116817E+03  0.68109222197E+03  0.00000000000E+00 0. -1.
         -1    1    6    6    0  503  0.10524230797E+02  0.99187565626E+01 -0.80555615109E+01  0.16553949283E+02  0.00000000000E+00 0.  1.
<mgrwt>
<rscale>  0 0.12323933E+04</rscale>
<asrwt>0</asrwt>
<pdfrwt beam="1">  1        2 0.18645094E+00 0.12323933E+04</pdfrwt>
<pdfrwt beam="2">  1       -1 0.48200037E-01 0.12323933E+04</pdfrwt>
<totfact> 0.89978170E+01</totfact>
</mgrwt>
</event>
<event>
12    7  0.1701638E-007  0.4012928E+04  0.7818608E-02  0.8001944E-01
         -1   -1    0    0    0  501 -0.00000000000E+00  0.00000000000E+00  0.13727035088E+04  0.13727035088E+04  0.00000000000E+00 0.  1.
          2   -1    0    0  501    0  0.00000000000E+00 -0.00000000000E+00 -0.29328245535E+04  0.29328245535E+04  0.00000000000E+00 0. -1.
         24    2    1    2    0    0 -0.96895192448E+03  0.15596367522E+04 -0.12487089072E+04  0.22222905420E+04  0.89256302937E+02 0.  0.
        254    2    1    2    0    0  0.96895192448E+03 -0.15596367522E+04 -0.31141213741E+03  0.20832375203E+04  0.93357721477E+03 0.  0.
         23    2    4    4    0    0  0.28396143259E+03 -0.40785792610E+03  0.32041000787E+03  0.59881839755E+03  0.94544788415E+02 0.  0.
         23    2    4    4    0    0  0.68499049189E+03 -0.11517788261E+04 -0.63182214528E+03  0.14844191227E+04  0.92165451970E+02 0.  0.
          4    1    3    3  502    0 -0.60757339517E+03  0.10024644873E+04 -0.84617740348E+03  0.14457166655E+04  0.00000000000E+00 0. -1.
         -3    1    3    3    0  502 -0.36137852931E+03  0.55717226491E+03 -0.40253150374E+03  0.77657387655E+03  0.00000000000E+00 0.  1.
         13    1    5    5    0    0  0.27405078102E+03 -0.37459071650E+03  0.26799351467E+03  0.53595014635E+03  0.00000000000E+00 0. -1.
        -13    1    5    5    0    0  0.99106515626E+01 -0.33267209608E+02  0.52416493203E+02  0.62868251202E+02  0.00000000000E+00 0.  1.
          1    1    6    6  503    0  0.51179201672E+03 -0.90970087692E+03 -0.52310567338E+03  0.11675299993E+04  0.00000000000E+00 0. -1.
         -1    1    6    6    0  503  0.17319847517E+03 -0.24207794914E+03 -0.10871647191E+03  0.31688912339E+03  0.00000000000E+00 0.  1.
<mgrwt>
<rscale>  0 0.40129284E+04</rscale>
<asrwt>0</asrwt>
<pdfrwt beam="1">  1        2 0.45120378E+00 0.40129284E+04</pdfrwt>
<pdfrwt beam="2">  1       -1 0.21118515E+00 0.40129284E+04</pdfrwt>
<totfact> 0.21647955E-01</totfact>
</mgrwt>
</event>
<event>
12    7  0.1701638E-007  0.1554804E+04  0.7818608E-02  0.8848805E-01
          2   -1    0    0  501    0  0.00000000000E+00  0.00000000000E+00  0.22814395338E+04  0.22814395338E+04  0.00000000000E+00 0. -1.
         -1   -1    0    0    0  501 -0.00000000000E+00 -0.00000000000E+00 -0.26490026956E+03  0.26490026956E+03  0.00000000000E+00 0.  1.
         24    2    1    2    0    0 -0.32146292840E+03  0.36636788261E+03  0.10855036224E+04  0.11925708867E+04  0.79645250468E+02 0.  0.
        254    2    1    2    0    0  0.32146292840E+03 -0.36636788261E+03  0.93103564182E+03  0.13537689166E+04  0.85340440206E+03 0.  0.
         23    2    4    4    0    0  0.51401160456E+03 -0.19711835505E+03  0.92703811895E+03  0.10820212166E+04  0.91140900591E+02 0.  0.
         23    2    4    4    0    0 -0.19254867616E+03 -0.16924952756E+03  0.39975228710E+01  0.27174769995E+03  0.90057964502E+02 0.  0.
          4    1    3    3  502    0 -0.30649029872E+03  0.31182851310E+03  0.96781976336E+03  0.10620020806E+04  0.00000000000E+00 0. -1.
         -3    1    3    3    0  502 -0.14972629680E+02  0.54539369516E+02  0.11768385902E+03  0.13056880615E+03  0.00000000000E+00 0.  1.
         13    1    5    5    0    0 -0.14920604080E+01 -0.88951659054E+01  0.11678822733E+02  0.14756189250E+02  0.00000000000E+00 0.  1.
        -13    1    5    5    0    0  0.51550366496E+03 -0.18822318915E+03  0.91535929622E+03  0.10672650274E+04  0.00000000000E+00 0. -1.
          1    1    6    6  503    0 -0.17729905624E+03 -0.17931539558E+03  0.10409110843E+02  0.25238327207E+03  0.00000000000E+00 0. -1.
         -1    1    6    6    0  503 -0.15249619924E+02  0.10065868018E+02 -0.64115879719E+01  0.19364427880E+02  0.00000000000E+00 0.  1.
<mgrwt>
<rscale>  0 0.15548041E+04</rscale>
<asrwt>0</asrwt>
<pdfrwt beam="1">  1        2 0.35099068E+00 0.15548041E+04</pdfrwt>
<pdfrwt beam="2">  1       -1 0.40753889E-01 0.15548041E+04</pdfrwt>
<totfact> 0.29996264E+01</totfact>
</mgrwt>
</event>
<event>
12    7  0.1701638E-007  0.1629174E+04  0.7818608E-02  0.8802823E-01
          2   -1    0    0  501    0  0.00000000000E+00  0.00000000000E+00  0.32402069913E+04  0.32402069913E+04  0.00000000000E+00 0. -1.
         -1   -1    0    0    0  501 -0.00000000000E+00 -0.00000000000E+00 -0.20478697598E+03  0.20478697598E+03  0.00000000000E+00 0.  1.
         24    2    1    2    0    0  0.47087259813E+03  0.27890616170E+03  0.81207843277E+03  0.98267824555E+03  0.81703748986E+02 0.  0.
        254    2    1    2    0    0 -0.47087259813E+03 -0.27890616170E+03  0.22233415826E+04  0.24623157217E+04  0.90567172313E+03 0.  0.
         23    2    4    4    0    0 -0.34513156280E+03  0.28138396823E+03  0.12299420571E+04  0.13112474511E+04  0.91212284660E+02 0.  0.
         23    2    4    4    0    0 -0.12574103533E+03 -0.56029012993E+03  0.99339952541E+03  0.11510682706E+04  0.91540749985E+02 0.  0.
          2    1    3    3  502    0  0.19736344220E+03  0.10334843386E+03  0.40000762216E+03  0.45786387157E+03  0.00000000000E+00 0. -1.
         -1    1    3    3    0  502  0.27350915593E+03  0.17555772784E+03  0.41207081061E+03  0.52481437398E+03  0.00000000000E+00 0.  1.
         13    1    5    5    0    0 -0.86506743451E+02  0.25029048995E+02  0.22412325602E+03  0.24153903173E+03  0.00000000000E+00 0. -1.
        -13    1    5    5    0    0 -0.25862481935E+03  0.25635491923E+03  0.10058188011E+04  0.10697084194E+04  0.00000000000E+00 0.  1.
          1    1    6    6  503    0 -0.73463576392E+02 -0.20364905904E+03  0.44416007355E+03  0.49411335465E+03  0.00000000000E+00 0. -1.
         -1    1    6    6    0  503 -0.52277458934E+02 -0.35664107089E+03  0.54923945186E+03  0.65695491599E+03  0.00000000000E+00 0.  1.
<mgrwt>
<rscale>  0 0.16291743E+04</rscale>
<asrwt>0</asrwt>
<pdfrwt beam="1">  1        2 0.49849334E+00 0.16291743E+04</pdfrwt>
<pdfrwt beam="2">  1       -1 0.31505691E-01 0.16291743E+04</pdfrwt>
<totfact> 0.12544402E+01</totfact>
</mgrwt>
</event>
<event>
12    7  0.1701638E-007  0.1556234E+04  0.7818608E-02  0.8847896E-01
         -1   -1    0    0    0  501 -0.00000000000E+00  0.00000000000E+00  0.52165206306E+03  0.52165206306E+03  0.00000000000E+00 0.  1.
          2   -1    0    0  501    0  0.00000000000E+00 -0.00000000000E+00 -0.11606705657E+04  0.11606705657E+04  0.00000000000E+00 0. -1.
         24    2    1    2    0    0  0.22988597013E+03  0.16173569619E+03 -0.71460942985E+03  0.77196345546E+03  0.79088208045E+02 0.  0.
        254    2    1    2    0    0 -0.22988597013E+03 -0.16173569619E+03  0.75590927213E+02  0.91035917329E+03  0.86257396288E+03 0.  0.
         23    2    4    4    0    0 -0.19504448260E+03 -0.30197522932E+03  0.39913243057E+03  0.54475768458E+03  0.90679923139E+02 0.  0.
         23    2    4    4    0    0 -0.34841487534E+02  0.14023953312E+03 -0.32354150336E+03  0.36560148872E+03  0.90023820474E+02 0.  0.
          2    1    3    3  502    0  0.21508938479E+03  0.17069474018E+03 -0.67695818655E+03  0.73052893448E+03  0.00000000000E+00 0. -1.
         -1    1    3    3    0  502  0.14796585343E+02 -0.89590439891E+01 -0.37651243299E+02  0.41434520982E+02  0.00000000000E+00 0.  1.
         13    1    5    5    0    0 -0.68223397639E+02 -0.12264736653E+03  0.22176578004E+03  0.26244403155E+03  0.00000000000E+00 0.  1.
        -13    1    5    5    0    0 -0.12682108496E+03 -0.17932786279E+03  0.17736665053E+03  0.28231365302E+03  0.00000000000E+00 0. -1.
          1    1    6    6  503    0 -0.33673162533E+02  0.14466915281E+03 -0.24212059452E+03  0.28405180503E+03  0.00000000000E+00 0. -1.
         -1    1    6    6    0  503 -0.11683250008E+01 -0.44296196847E+01 -0.81420908832E+02  0.81549683684E+02  0.00000000000E+00 0.  1.
<mgrwt>
<rscale>  0 0.15562342E+04</rscale>
<asrwt>0</asrwt>
<pdfrwt beam="1">  1        2 0.17856470E+00 0.15562342E+04</pdfrwt>
<pdfrwt beam="2">  1       -1 0.80254164E-01 0.15562342E+04</pdfrwt>
<totfact> 0.34007322E+01</totfact>
</mgrwt>
</event>
<event>
12    7  0.1701638E-007  0.1826378E+04  0.7818608E-02  0.8692396E-01
         -1   -1    0    0    0  501 -0.00000000000E+00  0.00000000000E+00  0.59096625183E+03  0.59096625183E+03  0.00000000000E+00 0.  1.
          2   -1    0    0  501    0  0.00000000000E+00 -0.00000000000E+00 -0.14111035045E+04  0.14111035045E+04  0.00000000000E+00 0. -1.
         24    2    1    2    0    0  0.49992151318E+02 -0.17908192603E+03 -0.10239311185E+04  0.10437353398E+04  0.79868470331E+02 0.  0.
        254    2    1    2    0    0 -0.49992151318E+02  0.17908192603E+03  0.20379386589E+03  0.95833441654E+03  0.91777086613E+03 0.  0.
         23    2    4    4    0    0  0.34985405683E+03 -0.13643112461E+03 -0.34700097566E+02  0.38844380228E+03  0.93129898069E+02 0.  0.
         23    2    4    4    0    0 -0.39984620815E+03  0.31551305064E+03  0.23849396346E+03  0.56989061426E+03  0.92035136349E+02 0.  0.
          2    1    3    3  502    0  0.43906627693E+02 -0.18709039736E+03 -0.98045087685E+03  0.99910686648E+03  0.00000000000E+00 0. -1.
         -1    1    3    3    0  502  0.60855236252E+01  0.80084713256E+01 -0.43480241679E+02  0.44628473279E+02  0.00000000000E+00 0.  1.
         13    1    5    5    0    0  0.91520130377E+02 -0.16234759135E+02 -0.45129685422E+02  0.10332565110E+03  0.00000000000E+00 0.  1.
        -13    1    5    5    0    0  0.25833392645E+03 -0.12019636547E+03  0.10429587856E+02  0.28511815118E+03  0.00000000000E+00 0. -1.
          3    1    6    6  503    0 -0.32045330118E+03  0.28243334860E+03  0.16920703066E+03  0.45944524578E+03  0.00000000000E+00 0. -1.
         -3    1    6    6    0  503 -0.79392906964E+02  0.33079702037E+02  0.69286932797E+02  0.11044536848E+03  0.00000000000E+00 0.  1.
<mgrwt>
<rscale>  0 0.18263784E+04</rscale>
<asrwt>0</asrwt>
<pdfrwt beam="1">  1        2 0.21709284E+00 0.18263784E+04</pdfrwt>
<pdfrwt beam="2">  1       -1 0.90917886E-01 0.18263784E+04</pdfrwt>
<totfact> 0.18084261E+01</totfact>
</mgrwt>
</event>
<event>
12    7  0.1701638E-007  0.1901820E+04  0.7818608E-02  0.8653951E-01
         -1   -1    0    0    0  501 -0.00000000000E+00  0.00000000000E+00  0.69851369900E+03  0.69851369900E+03  0.00000000000E+00 0.  1.
          2   -1    0    0  501    0  0.00000000000E+00 -0.00000000000E+00 -0.12945052081E+04  0.12945052081E+04  0.00000000000E+00 0. -1.
         24    2    1    2    0    0  0.41455830417E+03  0.16674433775E+03 -0.83603302054E+03  0.95144306156E+03  0.81427429137E+02 0.  0.
        254    2    1    2    0    0 -0.41455830417E+03 -0.16674433775E+03  0.24004151147E+03  0.10415758455E+04  0.90972416313E+03 0.  0.
         23    2    4    4    0    0 -0.98684339571E+01  0.33687562787E+03  0.92082391492E+01  0.34947451167E+03  0.92005804120E+02 0.  0.
         23    2    4    4    0    0 -0.40468987021E+03 -0.50361996562E+03  0.23083327232E+03  0.69210133384E+03  0.91177277143E+02 0.  0.
          2    1    3    3  502    0  0.38121775107E+03  0.15805767450E+03 -0.71446972415E+03  0.82509162457E+03  0.00000000000E+00 0. -1.
         -1    1    3    3    0  502  0.33340553095E+02  0.86866632444E+01 -0.12156329639E+03  0.12635143699E+03  0.00000000000E+00 0.  1.
         13    1    5    5    0    0  0.28609099352E+02  0.16448404538E+03  0.36082963928E+02  0.17080826103E+03  0.00000000000E+00 0. -1.
        -13    1    5    5    0    0 -0.38477533309E+02  0.17239158249E+03 -0.26874724779E+02  0.17866625064E+03  0.00000000000E+00 0.  1.
          3    1    6    6  503    0 -0.19586260528E+03 -0.24798455331E+03  0.64685544358E+02  0.32255653532E+03  0.00000000000E+00 0. -1.
         -3    1    6    6    0  503 -0.20882726494E+03 -0.25563541231E+03  0.16614772797E+03  0.36954479852E+03  0.00000000000E+00 0.  1.
<mgrwt>
<rscale>  0 0.19018198E+04</rscale>
<asrwt>0</asrwt>
<pdfrwt beam="1">  1        2 0.19915465E+00 0.19018198E+04</pdfrwt>
<pdfrwt beam="2">  1       -1 0.10746365E+00 0.19018198E+04</pdfrwt>
<totfact> 0.14336435E+01</totfact>
</mgrwt>
</event>
<event>
12    7  0.1701638E-007  0.1306782E+04  0.7818608E-02  0.9024204E-01
         -1   -1    0    0    0  501 -0.00000000000E+00  0.00000000000E+00  0.15113351296E+03  0.15113351296E+03  0.00000000000E+00 0.  1.
          2   -1    0    0  501    0  0.00000000000E+00 -0.00000000000E+00 -0.28247876768E+04  0.28247876768E+04  0.00000000000E+00 0. -1.
         24    2    1    2    0    0  0.28215446474E+03 -0.12721695983E+03 -0.68762095995E+03  0.75834962151E+03  0.80475257398E+02 0.  0.
        254    2    1    2    0    0 -0.28215446474E+03  0.12721695983E+03 -0.19860332039E+04  0.22175715683E+04  0.93674995412E+03 0.  0.
         23    2    4    4    0    0 -0.23298736533E+03  0.14786249023E+03 -0.20644372880E+04  0.20848477649E+04  0.92425419003E+02 0.  0.
         23    2    4    4    0    0 -0.49167099404E+02 -0.20645530400E+02  0.78404084122E+02  0.13272380339E+03  0.92869618234E+02 0.  0.
          4    1    3    3  502    0  0.27037088988E+03 -0.10009941509E+03 -0.59587851137E+03  0.66196035479E+03  0.00000000000E+00 0. -1.
         -3    1    3    3    0  502  0.11783574850E+02 -0.27117544742E+02 -0.91742448577E+02  0.96389266726E+02  0.00000000000E+00 0.  1.
         13    1    5    5    0    0  0.45154910430E+01  0.13819585845E+02 -0.51242423059E+02  0.53264965345E+02  0.00000000000E+00 0. -1.
        -13    1    5    5    0    0 -0.23750285637E+03  0.13404290438E+03 -0.20131948650E+04  0.20315827995E+04  0.00000000000E+00 0.  1.
          1    1    6    6  503    0 -0.26125889703E+01 -0.35809942918E+02 -0.47578036563E+01  0.36218977465E+02  0.00000000000E+00 0. -1.
         -1    1    6    6    0  503 -0.46554510433E+02  0.15164412519E+02  0.83161887778E+02  0.96504825929E+02  0.00000000000E+00 0.  1.
<mgrwt>
<rscale>  0 0.13067824E+04</rscale>
<asrwt>0</asrwt>
<pdfrwt beam="1">  1        2 0.43458266E+00 0.13067824E+04</pdfrwt>
<pdfrwt beam="2">  1       -1 0.23251313E-01 0.13067824E+04</pdfrwt>
<totfact> 0.39865996E+01</totfact>
</mgrwt>
</event>
<event>
12    7  0.1701638E-007  0.1682679E+04  0.7818608E-02  0.8771305E-01
          2   -1    0    0  501    0  0.00000000000E+00  0.00000000000E+00  0.41856770001E+03  0.41856770001E+03  0.00000000000E+00 0. -1.
         -1   -1    0    0    0  501 -0.00000000000E+00 -0.00000000000E+00 -0.16911300003E+04  0.16911300003E+04  0.00000000000E+00 0.  1.
         24    2    1    2    0    0 -0.49233255785E+03  0.10780959039E+03 -0.40508871003E+02  0.51189311804E+03  0.79870772943E+02 0.  0.
        254    2    1    2    0    0  0.49233255785E+03 -0.10780959039E+03 -0.12320534293E+04  0.15978045822E+04  0.88374746121E+03 0.  0.
         23    2    4    4    0    0  0.59039556531E+03  0.23164231803E+03 -0.89226304222E+03  0.10984773832E+04  0.91072157819E+02 0.  0.
         23    2    4    4    0    0 -0.98063007460E+02 -0.33945190842E+03 -0.33979038704E+03  0.49932719901E+03  0.95006278667E+02 0.  0.
          4    1    3    3  502    0 -0.42379647914E+03  0.12043065783E+03 -0.36662536134E+02  0.44209856439E+03  0.00000000000E+00 0. -1.
         -3    1    3    3    0  502 -0.68536078713E+02 -0.12621067439E+02 -0.38463348691E+01  0.69794553660E+02  0.00000000000E+00 0.  1.
         13    1    5    5    0    0  0.55768075907E+03  0.23870725434E+03 -0.85569114033E+03  0.10489024311E+04  0.00000000000E+00 0.  1.
        -13    1    5    5    0    0  0.32714806238E+02 -0.70649363064E+01 -0.36571901886E+02  0.49574952141E+02  0.00000000000E+00 0. -1.
          2    1    6    6  503    0  0.10799359275E+02 -0.76845935266E+02 -0.44576721197E+02  0.89493061185E+02  0.00000000000E+00 0. -1.
         -2    1    6    6    0  503 -0.10886236674E+03 -0.26260597315E+03 -0.29521366584E+03  0.40983413782E+03  0.00000000000E+00 0.  1.
<mgrwt>
<rscale>  0 0.16826793E+04</rscale>
<asrwt>0</asrwt>
<pdfrwt beam="1">  1        2 0.64395030E-01 0.16826793E+04</pdfrwt>
<pdfrwt beam="2">  1       -1 0.26017385E+00 0.16826793E+04</pdfrwt>
<totfact> 0.49277175E+00</totfact>
</mgrwt>
</event>
<event>
12    7  0.1701638E-007  0.2092853E+04  0.7818608E-02  0.8564398E-01
          2   -1    0    0  501    0  0.00000000000E+00  0.00000000000E+00  0.12319116074E+04  0.12319116074E+04  0.00000000000E+00 0. -1.
         -1   -1    0    0    0  501 -0.00000000000E+00 -0.00000000000E+00 -0.88886953835E+03  0.88886953835E+03  0.00000000000E+00 0.  1.
         24    2    1    2    0    0  0.31358841298E+03 -0.50419775915E+03  0.75213195782E+03  0.96167600071E+03  0.81025769200E+02 0.  0.
        254    2    1    2    0    0 -0.31358841298E+03  0.50419775915E+03 -0.40908988875E+03  0.11591051451E+04  0.90753354050E+03 0.  0.
         23    2    4    4    0    0 -0.18345105667E+03 -0.50816447843E+02 -0.52864186532E+03  0.56916268838E+03  0.90814880473E+02 0.  0.
         23    2    4    4    0    0 -0.13013735631E+03  0.55501420700E+03  0.11955197657E+03  0.58994245667E+03  0.93610499456E+02 0.  0.
          4    1    3    3  502    0  0.17667484403E+03 -0.35470490959E+03  0.48356348811E+03  0.62519054730E+03  0.00000000000E+00 0. -1.
         -3    1    3    3    0  502  0.13691356895E+03 -0.14949284956E+03  0.26856846971E+03  0.33648545340E+03  0.00000000000E+00 0.  1.
         13    1    5    5    0    0 -0.92236709975E+02 -0.13406664880E+02 -0.13983346900E+03  0.16804983898E+03  0.00000000000E+00 0.  1.
        -13    1    5    5    0    0 -0.91214346692E+02 -0.37409782963E+02 -0.38880839632E+03  0.40111284940E+03  0.00000000000E+00 0. -1.
          3    1    6    6  503    0 -0.92837562290E+02  0.19986952739E+03  0.53639751565E+02  0.22681239803E+03  0.00000000000E+00 0. -1.
         -3    1    6    6    0  503 -0.37299794019E+02  0.35514467961E+03  0.65912225008E+02  0.36313005865E+03  0.00000000000E+00 0.  1.
<mgrwt>
<rscale>  0 0.20928533E+04</rscale>
<asrwt>0</asrwt>
<pdfrwt beam="1">  1        2 0.18952486E+00 0.20928533E+04</pdfrwt>
<pdfrwt beam="2">  1       -1 0.13674916E+00 0.20928533E+04</pdfrwt>
<totfact> 0.84929754E+00</totfact>
</mgrwt>
</event>
<event>
12    7  0.1701638E-007  0.1473023E+04  0.7818608E-02  0.8902593E-01
         -1   -1    0    0    0  501 -0.00000000000E+00  0.00000000000E+00  0.40843486424E+03  0.40843486424E+03  0.00000000000E+00 0.  1.
          2   -1    0    0  501    0  0.00000000000E+00 -0.00000000000E+00 -0.13281167796E+04  0.13281167796E+04  0.00000000000E+00 0. -1.
         24    2    1    2    0    0 -0.64673692640E+02 -0.31411177646E+03  0.88784363030E+02  0.34113487042E+03  0.75109533800E+02 0.  0.
        254    2    1    2    0    0  0.64673692640E+02  0.31411177646E+03 -0.10084662784E+04  0.13954167735E+04  0.90957948652E+03 0.  0.
         23    2    4    4    0    0  0.10402602874E+03  0.24534949031E+03 -0.11649079354E+04  0.11985721073E+04  0.92448966292E+02 0.  0.
         23    2    4    4    0    0 -0.39352336102E+02  0.68762286153E+02  0.15644165700E+03  0.19684466614E+03  0.89425791528E+02 0.  0.
          4    1    3    3  502    0 -0.23639163221E+02 -0.19530272867E+02  0.17424614575E+02  0.35268382287E+02  0.00000000000E+00 0. -1.
         -3    1    3    3    0  502 -0.41034529419E+02 -0.29458150359E+03  0.71359748456E+02  0.30586648813E+03  0.00000000000E+00 0.  1.
         13    1    5    5    0    0  0.69002207981E+02  0.23251662341E+03 -0.10545138530E+04  0.10820465568E+04  0.00000000000E+00 0. -1.
        -13    1    5    5    0    0  0.35023820760E+02  0.12832866900E+02 -0.11039408243E+03  0.11652555054E+03  0.00000000000E+00 0.  1.
          4    1    6    6  503    0 -0.20311291180E+01  0.70564596022E+02  0.13837364303E+03  0.15534076343E+03  0.00000000000E+00 0. -1.
         -4    1    6    6    0  503 -0.37321206984E+02 -0.18023098682E+01  0.18068013965E+02  0.41503902711E+02  0.00000000000E+00 0.  1.
<mgrwt>
<rscale>  0 0.14730230E+04</rscale>
<asrwt>0</asrwt>
<pdfrwt beam="1">  1        2 0.20432566E+00 0.14730230E+04</pdfrwt>
<pdfrwt beam="2">  1       -1 0.62836133E-01 0.14730230E+04</pdfrwt>
<totfact> 0.45129763E+01</totfact>
</mgrwt>
</event>
<event>
12    7  0.1701638E-007  0.1673468E+04  0.7818608E-02  0.8776643E-01
          2   -1    0    0  501    0  0.00000000000E+00  0.00000000000E+00  0.48304717205E+04  0.48304717205E+04  0.00000000000E+00 0. -1.
         -1   -1    0    0    0  501 -0.00000000000E+00 -0.00000000000E+00 -0.14493896249E+03  0.14493896249E+03  0.00000000000E+00 0.  1.
         24    2    1    2    0    0 -0.22011289155E+03  0.45400600866E+03  0.24371082823E+04  0.24900040125E+04  0.77794995243E+02 0.  0.
        254    2    1    2    0    0  0.22011289155E+03 -0.45400600866E+03  0.22484244756E+04  0.24854066705E+04  0.93126932417E+03 0.  0.
         23    2    4    4    0    0  0.26067100568E+03 -0.54252000955E+03  0.68682727631E+03  0.91816156182E+03  0.94929511552E+02 0.  0.
         23    2    4    4    0    0 -0.40558114126E+02  0.88514000887E+02  0.15615971993E+04  0.15672451087E+04  0.90508169339E+02 0.  0.
          2    1    3    3  502    0 -0.66487512880E+02  0.22373265868E+03  0.11571419688E+04  0.11804467069E+04  0.00000000000E+00 0. -1.
         -1    1    3    3    0  502 -0.15362537867E+03  0.23027334998E+03  0.12799663135E+04  0.13095573055E+04  0.00000000000E+00 0.  1.
         13    1    5    5    0    0  0.17064903906E+03 -0.31881426328E+03  0.47654775504E+03  0.59821517186E+03  0.00000000000E+00 0.  1.
        -13    1    5    5    0    0  0.90021966616E+02 -0.22370574627E+03  0.21027952126E+03  0.31994638996E+03  0.00000000000E+00 0. -1.
          1    1    6    6  503    0 -0.36876181018E+02 -0.16598707098E+01  0.27192735729E+03  0.27442138317E+03  0.00000000000E+00 0.  1.
         -1    1    6    6    0  503 -0.36819331081E+01  0.90173871597E+02  0.12896698420E+04  0.12928237255E+04  0.00000000000E+00 0. -1.
<mgrwt>
<rscale>  0 0.16734677E+04</rscale>
<asrwt>0</asrwt>
<pdfrwt beam="1">  1        2 0.74314937E+00 0.16734677E+04</pdfrwt>
<pdfrwt beam="2">  1       -1 0.22298306E-01 0.16734677E+04</pdfrwt>
<totfact> 0.10525792E+00</totfact>
</mgrwt>
</event>
<event>
12    7  0.1701638E-007  0.3325599E+04  0.7818608E-02  0.8156412E-01
          2   -1    0    0  501    0  0.00000000000E+00  0.00000000000E+00  0.33122728011E+04  0.33122728011E+04  0.00000000000E+00 0. -1.
         -1   -1    0    0    0  501 -0.00000000000E+00 -0.00000000000E+00 -0.83474453307E+03  0.83474453307E+03  0.00000000000E+00 0.  1.
         24    2    1    2    0    0 -0.65875902681E+03  0.44358224737E+03  0.27921740977E+04  0.29040412632E+04  0.80565507354E+02 0.  0.
        254    2    1    2    0    0  0.65875902681E+03 -0.44358224737E+03 -0.31464582967E+03  0.12429760710E+04  0.90291685623E+03 0.  0.
         23    2    4    4    0    0  0.16183486066E+03 -0.57235475644E+03 -0.38991872489E+03  0.71684536886E+03  0.89722803687E+02 0.  0.
         23    2    4    4    0    0  0.49692416615E+03  0.12877250906E+03  0.75272895220E+02  0.52613070210E+03  0.87358576801E+02 0.  0.
          4    1    3    3  502    0 -0.49659117161E+03  0.29120749392E+03  0.19977407449E+04  0.20790316689E+04  0.00000000000E+00 0. -1.
         -3    1    3    3    0  502 -0.16216785519E+03  0.15237475346E+03  0.79443335282E+03  0.82500959438E+03  0.00000000000E+00 0.  1.
         13    1    5    5    0    0  0.14767852555E+03 -0.51003774991E+03 -0.31123217253E+03  0.61547779689E+03  0.00000000000E+00 0.  1.
        -13    1    5    5    0    0  0.14156335111E+02 -0.62317006522E+02 -0.78686552362E+02  0.10136757198E+03  0.00000000000E+00 0. -1.
          4    1    6    6  503    0  0.13835454106E+01  0.65474963841E+01  0.93520163938E+01  0.11499744233E+02  0.00000000000E+00 0. -1.
         -4    1    6    6    0  503  0.49554062074E+03  0.12222501268E+03  0.65920878827E+02  0.51463095786E+03  0.00000000000E+00 0.  1.
<mgrwt>
<rscale>  0 0.33255987E+04</rscale>
<asrwt>0</asrwt>
<pdfrwt beam="1">  1        2 0.50958042E+00 0.33255987E+04</pdfrwt>
<pdfrwt beam="2">  1       -1 0.12842224E+00 0.33255987E+04</pdfrwt>
<totfact> 0.54038258E-01</totfact>
</mgrwt>
</event>
<event>
12    7  0.1701638E-007  0.1097460E+04  0.7818608E-02  0.9207671E-01
         -1   -1    0    0    0  501 -0.00000000000E+00  0.00000000000E+00  0.63150797697E+03  0.63150797697E+03  0.00000000000E+00 0.  1.
          2   -1    0    0  501    0  0.00000000000E+00 -0.00000000000E+00 -0.47680292555E+03  0.47680292555E+03  0.00000000000E+00 0. -1.
         24    2    1    2    0    0 -0.21752945764E+02  0.74950383488E+02 -0.11744153521E+03  0.16742803804E+03  0.90271164247E+02 0.  0.
        254    2    1    2    0    0  0.21752945764E+02 -0.74950383488E+02  0.27214658663E+03  0.94088286448E+03  0.89727701933E+03 0.  0.
         23    2    4    4    0    0  0.28639972256E+03  0.11573843699E+03  0.45404449986E+03  0.55694890566E+03  0.92819657304E+02 0.  0.
         23    2    4    4    0    0 -0.26464677680E+03 -0.19068882048E+03 -0.18189791323E+03  0.38393395882E+03  0.88984780557E+02 0.  0.
          4    1    3    3  502    0 -0.20451956760E+02  0.55171324329E+02 -0.13086782430E+03  0.14348709001E+03  0.00000000000E+00 0. -1.
         -3    1    3    3    0  502 -0.13009890037E+01  0.19779059160E+02  0.13426289090E+02  0.23940948025E+02  0.00000000000E+00 0.  1.
         13    1    5    5    0    0  0.25278522150E+03  0.13200028674E+03  0.40386399127E+03  0.49439919837E+03  0.00000000000E+00 0.  1.
        -13    1    5    5    0    0  0.33614501064E+02 -0.16261849754E+02  0.50180508590E+02  0.62549707286E+02  0.00000000000E+00 0. -1.
          2    1    6    6  503    0 -0.95553844978E+02 -0.20598060545E+02 -0.43117950223E+02  0.10683620650E+03  0.00000000000E+00 0. -1.
         -2    1    6    6    0  503 -0.16909293182E+03 -0.17009075993E+03 -0.13877996301E+03  0.27709775231E+03  0.00000000000E+00 0.  1.
<mgrwt>
<rscale>  0 0.10974604E+04</rscale>
<asrwt>0</asrwt>
<pdfrwt beam="1">  1        2 0.73354296E-01 0.10974604E+04</pdfrwt>
<pdfrwt beam="2">  1       -1 0.97155073E-01 0.10974604E+04</pdfrwt>
<totfact> 0.75274490E+01</totfact>
</mgrwt>
</event>
<event>
12    7  0.1701638E-007  0.1617783E+04  0.7818608E-02  0.8809697E-01
         -1   -1    0    0    0  501 -0.00000000000E+00  0.00000000000E+00  0.10417588061E+04  0.10417588061E+04  0.00000000000E+00 0.  1.
          2   -1    0    0  501    0  0.00000000000E+00 -0.00000000000E+00 -0.62807744201E+03  0.62807744201E+03  0.00000000000E+00 0. -1.
         24    2    1    2    0    0 -0.27924101457E+03  0.45556860671E+03  0.27720961327E+03  0.60732298049E+03  0.80484366812E+02 0.  0.
        254    2    1    2    0    0  0.27924101457E+03 -0.45556860671E+03  0.13647175077E+03  0.10625132676E+04  0.90818038152E+03 0.  0.
         23    2    4    4    0    0  0.38553264097E+03 -0.59580462963E+03  0.32691556357E+03  0.78739096562E+03  0.97427784015E+02 0.  0.
         23    2    4    4    0    0 -0.10629162639E+03  0.14023602292E+03 -0.19044381280E+03  0.27512230196E+03  0.91974905479E+02 0.  0.
          4    1    3    3  502    0 -0.22384125236E+03  0.35051495841E+03  0.25078418686E+03  0.48565249995E+03  0.00000000000E+00 0. -1.
         -3    1    3    3    0  502 -0.55399762211E+02  0.10505364830E+03  0.26425426417E+02  0.12167048054E+03  0.00000000000E+00 0.  1.
         13    1    5    5    0    0  0.57707524833E+02 -0.79623564313E+02  0.10510286893E+02  0.98896595224E+02  0.00000000000E+00 0. -1.
        -13    1    5    5    0    0  0.32782511613E+03 -0.51618106531E+03  0.31640527668E+03  0.68849437039E+03  0.00000000000E+00 0.  1.
          1    1    6    6  503    0  0.10017638200E+02 -0.12708457795E+01  0.10205849096E+01  0.10149370308E+02  0.00000000000E+00 0. -1.
         -1    1    6    6    0  503 -0.11630926459E+03  0.14150686870E+03 -0.19146439771E+03  0.26497293165E+03  0.00000000000E+00 0.  1.
<mgrwt>
<rscale>  0 0.16177827E+04</rscale>
<asrwt>0</asrwt>
<pdfrwt beam="1">  1        2 0.96627299E-01 0.16177827E+04</pdfrwt>
<pdfrwt beam="2">  1       -1 0.16027059E+00 0.16177827E+04</pdfrwt>
<totfact> 0.14925321E+01</totfact>
</mgrwt>
</event>
<event>
12    7  0.1701638E-007  0.1419990E+04  0.7818608E-02  0.8939474E-01
          2   -1    0    0  501    0  0.00000000000E+00  0.00000000000E+00  0.11735870643E+04  0.11735870643E+04  0.00000000000E+00 0. -1.
         -1   -1    0    0    0  501 -0.00000000000E+00 -0.00000000000E+00 -0.42953185497E+03  0.42953185497E+03  0.00000000000E+00 0.  1.
         24    2    1    2    0    0  0.28333823383E+03 -0.18925000225E+03 -0.51731753266E+02  0.35360723393E+03  0.79156702121E+02 0.  0.
        254    2    1    2    0    0 -0.28333823383E+03  0.18925000225E+03  0.79578696261E+03  0.12495116853E+04  0.90105851301E+03 0.  0.
         23    2    4    4    0    0  0.11821830143E+03  0.32319093997E+03  0.72799171056E+03  0.81037695638E+03  0.91164303946E+02 0.  0.
         23    2    4    4    0    0 -0.40155653526E+03 -0.13394093772E+03  0.67795252044E+02  0.43913472897E+03  0.95159277969E+02 0.  0.
          2    1    3    3  502    0  0.19969079847E+03 -0.10107761061E+03 -0.64470747479E+01  0.22390771119E+03  0.00000000000E+00 0. -1.
         -1    1    3    3    0  502  0.83647435363E+02 -0.88172391631E+02 -0.45284678518E+02  0.12969952273E+03  0.00000000000E+00 0.  1.
         13    1    5    5    0    0  0.12463080802E+02  0.64099148500E+02  0.23058391187E+03  0.23965176744E+03  0.00000000000E+00 0. -1.
        -13    1    5    5    0    0  0.10575522063E+03  0.25909179147E+03  0.49740779869E+03  0.57072518894E+03  0.00000000000E+00 0.  1.
          3    1    6    6  503    0 -0.88616960981E+02  0.94678531903E+01  0.22634691591E+02  0.91950722025E+02  0.00000000000E+00 0. -1.
         -3    1    6    6    0  503 -0.31293957427E+03 -0.14340879091E+03  0.45160560454E+02  0.34718400694E+03  0.00000000000E+00 0.  1.
<mgrwt>
<rscale>  0 0.14199902E+04</rscale>
<asrwt>0</asrwt>
<pdfrwt beam="1">  1        2 0.18055185E+00 0.14199902E+04</pdfrwt>
<pdfrwt beam="2">  1       -1 0.66081824E-01 0.14199902E+04</pdfrwt>
<totfact> 0.50533488E+01</totfact>
</mgrwt>
</event>
<event>
12    7  0.1701638E-007  0.1203374E+04  0.7818608E-02  0.9109908E-01
          2   -1    0    0  501    0  0.00000000000E+00  0.00000000000E+00  0.21717929575E+04  0.21717929575E+04  0.00000000000E+00 0. -1.
         -1   -1    0    0    0  501 -0.00000000000E+00 -0.00000000000E+00 -0.16669516669E+03  0.16669516669E+03  0.00000000000E+00 0.  1.
         24    2    1    2    0    0  0.18811592605E+03 -0.15692265212E+03  0.57459972665E+03  0.62969988954E+03  0.79654156493E+02 0.  0.
        254    2    1    2    0    0 -0.18811592605E+03  0.15692265212E+03  0.14304980641E+04  0.17087882346E+04  0.90200897939E+03 0.  0.
         23    2    4    4    0    0 -0.40571786175E+03 -0.23188327524E+03  0.79917446621E+03  0.93054157425E+03  0.94079526476E+02 0.  0.
         23    2    4    4    0    0  0.21760193570E+03  0.38880592735E+03  0.63132359793E+03  0.77824666037E+03  0.92616021858E+02 0.  0.
          4    1    3    3  502    0  0.10588460953E+03 -0.13359034102E+03  0.41513779353E+03  0.44877312460E+03  0.00000000000E+00 0. -1.
         -3    1    3    3    0  502  0.82231316523E+02 -0.23332311093E+02  0.15946193312E+03  0.18092676494E+03  0.00000000000E+00 0.  1.
         13    1    5    5    0    0 -0.42876634113E+02 -0.22322056908E+02  0.15256168707E+03  0.16003670935E+03  0.00000000000E+00 0.  1.
        -13    1    5    5    0    0 -0.36284122763E+03 -0.20956121833E+03  0.64661277913E+03  0.77050486490E+03  0.00000000000E+00 0. -1.
          1    1    6    6  503    0  0.13047427252E+03  0.23732394258E+03  0.45823879755E+03  0.53228656295E+03  0.00000000000E+00 0. -1.
         -1    1    6    6    0  503  0.87127663174E+02  0.15148198477E+03  0.17308480038E+03  0.24596009742E+03  0.00000000000E+00 0.  1.
<mgrwt>
<rscale>  0 0.12033742E+04</rscale>
<asrwt>0</asrwt>
<pdfrwt beam="1">  1        2 0.33412197E+00 0.12033742E+04</pdfrwt>
<pdfrwt beam="2">  1       -1 0.25645412E-01 0.12033742E+04</pdfrwt>
<totfact> 0.80904887E+01</totfact>
</mgrwt>
</event>
<event>
12    7  0.2092688E-007  0.1870097E+04  0.7818608E-02  0.8669886E-01
          2   -1    0    0  501    0  0.00000000000E+00  0.00000000000E+00  0.17183824900E+04  0.17183824900E+04  0.00000000000E+00 0. -1.
         -1   -1    0    0    0  501 -0.00000000000E+00 -0.00000000000E+00 -0.50880134499E+03  0.50880134499E+03  0.00000000000E+00 0.  1.
         24    2    1    2    0    0 -0.42043910384E+03 -0.78046931835E+02 -0.22131972314E+03  0.48858415142E+03  0.82895654626E+02 0.  0.
        254    2    1    2    0    0  0.42043910384E+03  0.78046931835E+02  0.14309008681E+04  0.17385996835E+04  0.89016358138E+03 0.  0.
         23    2    4    4    0    0  0.57428905734E+03  0.16192533624E+03  0.49057266222E+03  0.77779308647E+03  0.90955002870E+02 0.  0.
         23    2    4    4    0    0 -0.15384995350E+03 -0.83878404404E+02  0.94032820590E+03  0.96080659707E+03  0.90701638556E+02 0.  0.
          2    1    3    3  502    0 -0.15647969658E+03 -0.48699232735E+02 -0.45525252262E+02  0.17008838674E+03  0.00000000000E+00 0. -1.
         -3    1    3    3    0  502 -0.26395940726E+03 -0.29347699100E+02 -0.17579447088E+03  0.31849576467E+03  0.00000000000E+00 0.  1.
         13    1    5    5    0    0 -0.32926132444E+00 -0.40237460619E+01 -0.29970210570E+00  0.40483041811E+01  0.00000000000E+00 0.  1.
        -13    1    5    5    0    0  0.57461831867E+03  0.16594908230E+03  0.49087236433E+03  0.77374478229E+03  0.00000000000E+00 0. -1.
          3    1    6    6  503    0  0.40642900195E+01 -0.21818634559E+01  0.89772326234E+00  0.46994561981E+01  0.00000000000E+00 0.  1.
         -3    1    6    6    0  503 -0.15791424352E+03 -0.81696540948E+02  0.93943048264E+03  0.95610714087E+03  0.00000000000E+00 0. -1.
<mgrwt>
<rscale>  0 0.18700966E+04</rscale>
<asrwt>0</asrwt>
<pdfrwt beam="1">  1        2 0.26436654E+00 0.18700966E+04</pdfrwt>
<pdfrwt beam="2">  1       -1 0.78277131E-01 0.18700966E+04</pdfrwt>
<totfact> 0.16733597E+01</totfact>
</mgrwt>
</event>
<event>
12    7  0.1701638E-007  0.3136027E+04  0.7818608E-02  0.8205920E-01
          2   -1    0    0  501    0  0.00000000000E+00  0.00000000000E+00  0.16085072862E+04  0.16085072862E+04  0.00000000000E+00 0. -1.
         -1   -1    0    0    0  501 -0.00000000000E+00 -0.00000000000E+00 -0.15285392039E+04  0.15285392039E+04  0.00000000000E+00 0.  1.
         24    2    1    2    0    0  0.79271853418E+03  0.10615521509E+04 -0.52157714729E+03  0.14260408985E+04  0.79084006503E+02 0.  0.
        254    2    1    2    0    0 -0.79271853418E+03 -0.10615521509E+04  0.60154522956E+03  0.17110055917E+04  0.90021543428E+03 0.  0.
         23    2    4    4    0    0 -0.20043315316E+03 -0.76096847429E+03 -0.26109508444E+02  0.79255448254E+03  0.90633512716E+02 0.  0.
         23    2    4    4    0    0 -0.59228538102E+03 -0.30058367659E+03  0.62765473800E+03  0.91845110914E+03  0.91920892891E+02 0.  0.
          2    1    3    3  502    0  0.56311378296E+03  0.77562221042E+03 -0.34147171457E+03  0.10174919546E+04  0.00000000000E+00 0. -1.
         -1    1    3    3    0  502  0.22960475123E+03  0.28592994045E+03 -0.18010543272E+03  0.40854894386E+03  0.00000000000E+00 0.  1.
         13    1    5    5    0    0 -0.20686937113E+01  0.25295269500E+01 -0.37355929757E+00  0.32890039238E+01  0.00000000000E+00 0. -1.
        -13    1    5    5    0    0 -0.19836445945E+03 -0.76349800124E+03 -0.25735949146E+02  0.78926547862E+03  0.00000000000E+00 0.  1.
          3    1    6    6  503    0 -0.48608224949E+02 -0.20125982909E+02  0.20254430209E+02  0.56374255328E+02  0.00000000000E+00 0. -1.
         -3    1    6    6    0  503 -0.54367715607E+03 -0.28045769368E+03  0.60740030779E+03  0.86207685381E+03  0.00000000000E+00 0.  1.
<mgrwt>
<rscale>  0 0.31360271E+04</rscale>
<asrwt>0</asrwt>
<pdfrwt beam="1">  1        2 0.24746266E+00 0.31360271E+04</pdfrwt>
<pdfrwt beam="2">  1       -1 0.23515988E+00 0.31360271E+04</pdfrwt>
<totfact> 0.92740835E-01</totfact>
</mgrwt>
</event>
<event>
12    7  0.1701638E-007  0.1330451E+04  0.7818608E-02  0.9005760E-01
          2   -1    0    0  501    0  0.00000000000E+00  0.00000000000E+00  0.15342673245E+04  0.15342673245E+04  0.00000000000E+00 0. -1.
         -1   -1    0    0    0  501 -0.00000000000E+00 -0.00000000000E+00 -0.28842749626E+03  0.28842749626E+03  0.00000000000E+00 0.  1.
         24    2    1    2    0    0  0.17383172863E+03 -0.24800270165E+03  0.49048046034E+03  0.58157808831E+03  0.77066081525E+02 0.  0.
        254    2    1    2    0    0 -0.17383172863E+03  0.24800270165E+03  0.75535936788E+03  0.12411167324E+04  0.93705931454E+03 0.  0.
         23    2    4    4    0    0  0.12607608322E+03  0.18785059271E+03  0.86855390851E+03  0.90226600515E+03  0.92276910027E+02 0.  0.
         23    2    4    4    0    0 -0.29990781185E+03  0.60152108944E+02 -0.11319454063E+03  0.33885072728E+03  0.91890366901E+02 0.  0.
          4    1    3    3  502    0  0.94307641783E+02 -0.13040251821E+03  0.18822568599E+03  0.24764421439E+03  0.00000000000E+00 0. -1.
         -3    1    3    3    0  502  0.79524086851E+02 -0.11760018345E+03  0.30225477436E+03  0.33393387393E+03  0.00000000000E+00 0.  1.
         13    1    5    5    0    0  0.13404424047E+03  0.18699821477E+03  0.86114877890E+03  0.89135481719E+03  0.00000000000E+00 0. -1.
        -13    1    5    5    0    0 -0.79681572548E+01  0.85237794357E+00  0.74051296143E+01  0.10911187965E+02  0.00000000000E+00 0.  1.
          3    1    6    6  503    0 -0.10326548449E+03  0.12024252240E+02  0.56180392328E+01  0.10411486587E+03  0.00000000000E+00 0. -1.
         -3    1    6    6    0  503 -0.19664232736E+03  0.48127856704E+02 -0.11881257986E+03  0.23473586141E+03  0.00000000000E+00 0.  1.
<mgrwt>
<rscale>  0 0.13304509E+04</rscale>
<asrwt>0</asrwt>
<pdfrwt beam="1">  1        2 0.23604112E+00 0.13304509E+04</pdfrwt>
<pdfrwt beam="2">  1       -1 0.44373462E-01 0.13304509E+04</pdfrwt>
<totfact> 0.68011311E+01</totfact>
</mgrwt>
</event>
<event>
12    7  0.1701638E-007  0.2402236E+04  0.7818608E-02  0.8438667E-01
          2   -1    0    0  501    0  0.00000000000E+00  0.00000000000E+00  0.12742321582E+04  0.12742321582E+04  0.00000000000E+00 0. -1.
         -1   -1    0    0    0  501 -0.00000000000E+00 -0.00000000000E+00 -0.11321992602E+04  0.11321992602E+04  0.00000000000E+00 0.  1.
         24    2    1    2    0    0  0.16108916161E+03 -0.45298722921E+03 -0.85502347289E+03  0.98424406287E+03  0.80771828522E+02 0.  0.
        254    2    1    2    0    0 -0.16108916161E+03  0.45298722921E+03  0.99705637098E+03  0.14221873555E+04  0.89294362613E+03 0.  0.
         23    2    4    4    0    0  0.92462014093E+02  0.62696122564E+03  0.43530483426E+03  0.77519015507E+03  0.98994319451E+02 0.  0.
         23    2    4    4    0    0 -0.25355117570E+03 -0.17397399642E+03  0.56175153672E+03  0.64699720044E+03  0.92116438537E+02 0.  0.
          4    1    3    3  502    0  0.45565017294E+02 -0.55311642952E+02 -0.15781981987E+03  0.17332814022E+03  0.00000000000E+00 0. -1.
         -3    1    3    3    0  502  0.11552414431E+03 -0.39767558626E+03 -0.69720365302E+03  0.81091592266E+03  0.00000000000E+00 0.  1.
         13    1    5    5    0    0  0.85076829301E+02  0.47544824283E+03  0.28092492601E+03  0.55875568234E+03  0.00000000000E+00 0.  1.
        -13    1    5    5    0    0  0.73851847921E+01  0.15151298280E+03  0.15437990825E+03  0.21643447273E+03  0.00000000000E+00 0. -1.
          3    1    6    6  503    0 -0.13903969779E+03 -0.11318938622E+03  0.23586950999E+03  0.29627402933E+03  0.00000000000E+00 0. -1.
         -3    1    6    6    0  503 -0.11451147791E+03 -0.60784610204E+02  0.32588202673E+03  0.35072317111E+03  0.00000000000E+00 0.  1.
<mgrwt>
<rscale>  0 0.24022362E+04</rscale>
<asrwt>0</asrwt>
<pdfrwt beam="1">  1        2 0.19603572E+00 0.24022362E+04</pdfrwt>
<pdfrwt beam="2">  1       -1 0.17418450E+00 0.24022362E+04</pdfrwt>
<totfact> 0.40214290E+00</totfact>
</mgrwt>
</event>
<event>
12    7  0.1701638E-007  0.1607653E+04  0.7818608E-02  0.8815861E-01
         -1   -1    0    0    0  501 -0.00000000000E+00  0.00000000000E+00  0.31391470701E+03  0.31391470701E+03  0.00000000000E+00 0.  1.
          2   -1    0    0  501    0  0.00000000000E+00 -0.00000000000E+00 -0.20583191222E+04  0.20583191222E+04  0.00000000000E+00 0. -1.
         24    2    1    2    0    0 -0.40945291087E+03  0.29150607301E+03 -0.93430017150E+03  0.10635732981E+04  0.75125716284E+02 0.  0.
        254    2    1    2    0    0  0.40945291087E+03 -0.29150607301E+03 -0.81010424365E+03  0.13086605310E+04  0.89649094978E+03 0.  0.
         23    2    4    4    0    0  0.23377184809E+03 -0.53809364629E+03 -0.79302073167E+03  0.99073034776E+03  0.92036362192E+02 0.  0.
         23    2    4    4    0    0  0.17568106278E+03  0.24658757328E+03 -0.17083511977E+02  0.31793018326E+03  0.95490774082E+02 0.  0.
          4    1    3    3  502    0 -0.32478213556E+03  0.21256160155E+03 -0.77358961094E+03  0.86550953558E+03  0.00000000000E+00 0. -1.
         -3    1    3    3    0  502 -0.84670775303E+02  0.78944471462E+02 -0.16071056056E+03  0.19806376256E+03  0.00000000000E+00 0.  1.
         13    1    5    5    0    0  0.40456755357E+02 -0.20305006039E+03 -0.27723638348E+03  0.34601457831E+03  0.00000000000E+00 0.  1.
        -13    1    5    5    0    0  0.19331509274E+03 -0.33504358590E+03 -0.51578434819E+03  0.64471576944E+03  0.00000000000E+00 0. -1.
          3    1    6    6  503    0  0.98374035840E+02  0.13310019954E+03 -0.56802840401E+02  0.17498478998E+03  0.00000000000E+00 0.  1.
         -3    1    6    6    0  503  0.77307026936E+02  0.11348737373E+03  0.39719328425E+02  0.14294539328E+03  0.00000000000E+00 0. -1.
<mgrwt>
<rscale>  0 0.16076525E+04</rscale>
<asrwt>0</asrwt>
<pdfrwt beam="1">  1        2 0.31666448E+00 0.16076525E+04</pdfrwt>
<pdfrwt beam="2">  1       -1 0.48294570E-01 0.16076525E+04</pdfrwt>
<totfact> 0.29024746E+01</totfact>
</mgrwt>
</event>
<event>
12    7  0.1701638E-007  0.1653361E+04  0.7818608E-02  0.8788421E-01
          2   -1    0    0  501    0  0.00000000000E+00  0.00000000000E+00  0.23272051180E+04  0.23272051180E+04  0.00000000000E+00 0. -1.
         -1   -1    0    0    0  501 -0.00000000000E+00 -0.00000000000E+00 -0.29365717424E+03  0.29365717424E+03  0.00000000000E+00 0.  1.
         24    2    1    2    0    0  0.72648196929E+02  0.22194571630E+03  0.15635133119E+04  0.15826948556E+04  0.76232984462E+02 0.  0.
        254    2    1    2    0    0 -0.72648196929E+02 -0.22194571630E+03  0.47003463180E+03  0.10381674366E+04  0.89572395848E+03 0.  0.
         23    2    4    4    0    0 -0.31060156703E+03 -0.21665302585E+03  0.62708351098E+03  0.73819629821E+03  0.91039430441E+02 0.  0.
         23    2    4    4    0    0  0.23795337010E+03 -0.52926904469E+01 -0.15704887917E+03  0.29997113838E+03  0.93104857537E+02 0.  0.
          4    1    3    3  502    0  0.82845975050E+02  0.14786607145E+03  0.10039092025E+04  0.10181166522E+04  0.00000000000E+00 0. -1.
         -3    1    3    3    0  502 -0.10197778120E+02  0.74079644848E+02  0.55960410947E+03  0.56457820344E+03  0.00000000000E+00 0.  1.
         13    1    5    5    0    0 -0.20479903907E+03 -0.10496339426E+03  0.43474961486E+03  0.49190160414E+03  0.00000000000E+00 0. -1.
        -13    1    5    5    0    0 -0.10580252796E+03 -0.11168963159E+03  0.19233389612E+03  0.24629469407E+03  0.00000000000E+00 0.  1.
          3    1    6    6  503    0  0.17649929865E+03  0.10485075244E+02 -0.15710393616E+03  0.23652396492E+03  0.00000000000E+00 0. -1.
         -3    1    6    6    0  503  0.61454071457E+02 -0.15777765691E+02  0.55056985679E-01  0.63447173460E+02  0.00000000000E+00 0.  1.
<mgrwt>
<rscale>  0 0.16533608E+04</rscale>
<asrwt>0</asrwt>
<pdfrwt beam="1">  1        2 0.35803154E+00 0.16533608E+04</pdfrwt>
<pdfrwt beam="2">  1       -1 0.45178029E-01 0.16533608E+04</pdfrwt>
<totfact> 0.23156125E+01</totfact>
</mgrwt>
</event>
<event>
12    7  0.1701638E-007  0.1266984E+04  0.7818608E-02  0.9056165E-01
          2   -1    0    0  501    0  0.00000000000E+00  0.00000000000E+00  0.94343650459E+03  0.94343650459E+03  0.00000000000E+00 0. -1.
         -1   -1    0    0    0  501 -0.00000000000E+00 -0.00000000000E+00 -0.42537239361E+03  0.42537239361E+03  0.00000000000E+00 0.  1.
         24    2    1    2    0    0 -0.18892045563E+03 -0.23506001386E+03 -0.21360684878E+01  0.31208237768E+03  0.80291338245E+02 0.  0.
        254    2    1    2    0    0  0.18892045563E+03  0.23506001386E+03  0.52020017947E+03  0.10567265205E+04  0.86897558296E+03 0.  0.
         23    2    4    4    0    0 -0.17731045076E+02  0.51866076876E+03  0.43710558234E+03  0.68442816466E+03  0.89762127111E+02 0.  0.
         23    2    4    4    0    0  0.20665150071E+03 -0.28360075490E+03  0.83094597137E+02  0.37229835586E+03  0.92558753131E+02 0.  0.
          4    1    3    3  502    0 -0.84510284194E+02 -0.83046514302E+02  0.35858298586E+02  0.12379228267E+03  0.00000000000E+00 0. -1.
         -3    1    3    3    0  502 -0.10441017144E+03 -0.15201349955E+03 -0.37994367074E+02  0.18829009500E+03  0.00000000000E+00 0.  1.
         13    1    5    5    0    0 -0.36628731262E+02  0.11477534940E+03  0.12540915276E+03  0.17390371008E+03  0.00000000000E+00 0.  1.
        -13    1    5    5    0    0  0.18897686186E+02  0.40388541936E+03  0.31169642957E+03  0.51052445458E+03  0.00000000000E+00 0. -1.
          3    1    6    6  503    0  0.20130808397E+03 -0.27887401101E+03  0.96404848674E+02  0.35719679945E+03  0.00000000000E+00 0. -1.
         -3    1    6    6    0  503  0.53434167388E+01 -0.47267438945E+01 -0.13310251538E+02  0.15101556419E+02  0.00000000000E+00 0.  1.
<mgrwt>
<rscale>  0 0.12669836E+04</rscale>
<asrwt>0</asrwt>
<pdfrwt beam="1">  1        2 0.14514408E+00 0.12669836E+04</pdfrwt>
<pdfrwt beam="2">  1       -1 0.65441907E-01 0.12669836E+04</pdfrwt>
<totfact> 0.72768127E+01</totfact>
</mgrwt>
</event>
<event>
12    7  0.1701638E-007  0.1297193E+04  0.7818608E-02  0.9031794E-01
          2   -1    0    0  501    0  0.00000000000E+00  0.00000000000E+00  0.21578195099E+04  0.21578195099E+04  0.00000000000E+00 0. -1.
         -1   -1    0    0    0  501 -0.00000000000E+00 -0.00000000000E+00 -0.19495501535E+03  0.19495501535E+03  0.00000000000E+00 0.  1.
         24    2    1    2    0    0  0.28214760940E+02  0.16702269393E+03 -0.35985865957E+01  0.18702441038E+03  0.79199288071E+02 0.  0.
        254    2    1    2    0    0 -0.28214760940E+02 -0.16702269393E+03  0.19664630811E+04  0.21657501149E+04  0.89151772699E+03 0.  0.
         23    2    4    4    0    0 -0.40533719210E+03 -0.84417702996E+02  0.14697395338E+04  0.15296048714E+04  0.90178586614E+02 0.  0.
         23    2    4    4    0    0  0.37712243116E+03 -0.82604990931E+02  0.49672354736E+03  0.63614524350E+03  0.94348162230E+02 0.  0.
          2    1    3    3  502    0  0.25576801689E+01  0.56908817656E+02 -0.38430369654E+02  0.68717163552E+02  0.00000000000E+00 0. -1.
         -1    1    3    3    0  502  0.25657080771E+02  0.11011387627E+03  0.34831783058E+02  0.11830724683E+03  0.00000000000E+00 0.  1.
         13    1    5    5    0    0 -0.29172981037E+03 -0.99487856414E+02  0.10253440415E+04  0.10706701263E+04  0.00000000000E+00 0.  1.
        -13    1    5    5    0    0 -0.11360738173E+03  0.15070153419E+02  0.44439549226E+03  0.45893474509E+03  0.00000000000E+00 0. -1.
          4    1    6    6  503    0  0.54813529950E+02 -0.27840970493E+02  0.13637982225E+03  0.14959645257E+03  0.00000000000E+00 0. -1.
         -4    1    6    6    0  503  0.32230890121E+03 -0.54764020438E+02  0.36034372511E+03  0.48654879093E+03  0.00000000000E+00 0.  1.
<mgrwt>
<rscale>  0 0.12971935E+04</rscale>
<asrwt>0</asrwt>
<pdfrwt beam="1">  1        2 0.33197222E+00 0.12971935E+04</pdfrwt>
<pdfrwt beam="2">  1       -1 0.29993081E-01 0.12971935E+04</pdfrwt>
<totfact> 0.62280563E+01</totfact>
</mgrwt>
</event>
<event>
12    7  0.1701638E-007  0.2034272E+04  0.7818608E-02  0.8590763E-01
         -1   -1    0    0    0  501 -0.00000000000E+00  0.00000000000E+00  0.20010999075E+04  0.20010999075E+04  0.00000000000E+00 0.  1.
          2   -1    0    0  501    0  0.00000000000E+00 -0.00000000000E+00 -0.51699838444E+03  0.51699838444E+03  0.00000000000E+00 0. -1.
         24    2    1    2    0    0 -0.75065807803E+03  0.13873149792E+03  0.92917842695E+03  0.12054064221E+04  0.83054889901E+02 0.  0.
        254    2    1    2    0    0  0.75065807803E+03 -0.13873149792E+03  0.55492309613E+03  0.13126918698E+04  0.91240688505E+03 0.  0.
         23    2    4    4    0    0  0.70361044080E+03  0.27533999953E+03  0.38827422353E+03  0.85444036134E+03  0.91824237971E+02 0.  0.
         23    2    4    4    0    0  0.47047637237E+02 -0.41407149745E+03  0.16664887260E+03  0.45825150850E+03  0.92487367430E+02 0.  0.
          2    1    3    3  502    0 -0.11242798411E+03  0.20456850051E+02  0.96127579153E+02  0.14932865030E+03  0.00000000000E+00 0. -1.
         -1    1    3    3    0  502 -0.63823009392E+03  0.11827464787E+03  0.83305084780E+03  0.10560777718E+04  0.00000000000E+00 0.  1.
         13    1    5    5    0    0  0.28780530304E+03  0.92353113375E+02  0.20143053620E+03  0.36322892357E+03  0.00000000000E+00 0.  1.
        -13    1    5    5    0    0  0.41580513776E+03  0.18298688616E+03  0.18684368733E+03  0.49121143776E+03  0.00000000000E+00 0. -1.
          4    1    6    6  503    0 -0.96529757280E+01 -0.24228451619E+02 -0.80690765046E+01  0.27300326077E+02  0.00000000000E+00 0.  1.
         -4    1    6    6    0  503  0.56700612964E+02 -0.38984304583E+03  0.17471794910E+03  0.43095118242E+03  0.00000000000E+00 0. -1.
<mgrwt>
<rscale>  0 0.20342718E+04</rscale>
<asrwt>0</asrwt>
<pdfrwt beam="1">  1        2 0.79538214E-01 0.20342718E+04</pdfrwt>
<pdfrwt beam="2">  1       -1 0.30786152E+00 0.20342718E+04</pdfrwt>
<totfact> 0.18415398E+00</totfact>
</mgrwt>
</event>
<event>
12    7  0.1701638E-007  0.2022403E+04  0.7818608E-02  0.8596218E-01
         -1   -1    0    0    0  501 -0.00000000000E+00  0.00000000000E+00  0.12926877123E+04  0.12926877123E+04  0.00000000000E+00 0.  1.
          2   -1    0    0  501    0  0.00000000000E+00 -0.00000000000E+00 -0.79100980247E+03  0.79100980247E+03  0.00000000000E+00 0. -1.
         24    2    1    2    0    0  0.69341176278E+03  0.34377777510E+03  0.46111682772E+03  0.90451968013E+03  0.80771848494E+02 0.  0.
        254    2    1    2    0    0 -0.69341176278E+03 -0.34377777510E+03  0.40561082098E+02  0.11791778346E+04  0.88871375195E+03 0.  0.
         23    2    4    4    0    0 -0.99358645789E+02 -0.53180893715E+03  0.96308416456E+01  0.54907048708E+03  0.93234974934E+02 0.  0.
         23    2    4    4    0    0 -0.59405311700E+03  0.18803116205E+03  0.30930240453E+02  0.63010734756E+03  0.88452054572E+02 0.  0.
          4    1    3    3  502    0  0.34233132168E+03  0.20728789110E+03  0.21161134445E+03  0.45270118699E+03  0.00000000000E+00 0. -1.
         -3    1    3    3    0  502  0.35108044110E+03  0.13648988399E+03  0.24950548327E+03  0.45181849314E+03  0.00000000000E+00 0.  1.
         13    1    5    5    0    0 -0.11089481286E+01 -0.22291804033E+03 -0.18648445616E+02  0.22369945685E+03  0.00000000000E+00 0. -1.
        -13    1    5    5    0    0 -0.98249697660E+02 -0.30889089681E+03  0.28279287262E+02  0.32537103023E+03  0.00000000000E+00 0.  1.
          3    1    6    6  503    0 -0.21771358655E+03  0.24886036558E+02  0.13994367444E+02  0.21957769219E+03  0.00000000000E+00 0. -1.
         -3    1    6    6    0  503 -0.37633953044E+03  0.16314512549E+03  0.16935873009E+02  0.41052965537E+03  0.00000000000E+00 0.  1.
<mgrwt>
<rscale>  0 0.20224032E+04</rscale>
<asrwt>0</asrwt>
<pdfrwt beam="1">  1        2 0.12169382E+00 0.20224032E+04</pdfrwt>
<pdfrwt beam="2">  1       -1 0.19887503E+00 0.20224032E+04</pdfrwt>
<totfact> 0.56700744E+00</totfact>
</mgrwt>
</event>
<event>
12    7  0.1701638E-007  0.1262474E+04  0.7818608E-02  0.9059865E-01
         -1   -1    0    0    0  501 -0.00000000000E+00  0.00000000000E+00  0.51259162842E+03  0.51259162842E+03  0.00000000000E+00 0.  1.
          2   -1    0    0  501    0  0.00000000000E+00 -0.00000000000E+00 -0.77734427663E+03  0.77734427663E+03  0.00000000000E+00 0. -1.
         24    2    1    2    0    0 -0.13571459537E+03  0.17663278941E+03  0.15048422759E+03  0.28016250138E+03  0.78917239793E+02 0.  0.
        254    2    1    2    0    0  0.13571459537E+03 -0.17663278941E+03 -0.41523687580E+03  0.10097734037E+04  0.89308626126E+03 0.  0.
         23    2    4    4    0    0  0.25553294616E+03  0.11789047590E+03 -0.57193326900E+03  0.64373750892E+03  0.89972580906E+02 0.  0.
         23    2    4    4    0    0 -0.11981835079E+03 -0.29452326530E+03  0.15669639320E+03  0.36603589476E+03  0.91258564610E+02 0.  0.
          4    1    3    3  502    0 -0.62919079385E+02  0.70683610701E+02  0.19463139421E+02  0.96611578853E+02  0.00000000000E+00 0. -1.
         -3    1    3    3    0  502 -0.72795515985E+02  0.10594917870E+03  0.13102108816E+03  0.18355092252E+03  0.00000000000E+00 0.  1.
         13    1    5    5    0    0  0.22847316144E+03  0.12477796618E+03 -0.46181795665E+03  0.53013710625E+03  0.00000000000E+00 0.  1.
        -13    1    5    5    0    0  0.27059784726E+02 -0.68874902765E+01 -0.11011531236E+03  0.11360040267E+03  0.00000000000E+00 0. -1.
          2    1    6    6  503    0 -0.77107008957E+01 -0.24192958319E+02 -0.12168621825E+02  0.28157228160E+02  0.00000000000E+00 0. -1.
         -2    1    6    6    0  503 -0.11210764990E+03 -0.27033030699E+03  0.16886501503E+03  0.33787866660E+03  0.00000000000E+00 0.  1.
<mgrwt>
<rscale>  0 0.12624740E+04</rscale>
<asrwt>0</asrwt>
<pdfrwt beam="1">  1        2 0.11959143E+00 0.12624740E+04</pdfrwt>
<pdfrwt beam="2">  1       -1 0.78860250E-01 0.12624740E+04</pdfrwt>
<totfact> 0.64598185E+01</totfact>
</mgrwt>
</event>
<event>
12    7  0.1701638E-007  0.1203087E+04  0.7818608E-02  0.9110159E-01
          2   -1    0    0  501    0  0.00000000000E+00  0.00000000000E+00  0.12289669045E+04  0.12289669045E+04  0.00000000000E+00 0. -1.
         -1   -1    0    0    0  501 -0.00000000000E+00 -0.00000000000E+00 -0.29443782862E+03  0.29443782862E+03  0.00000000000E+00 0.  1.
         24    2    1    2    0    0 -0.67247550847E+02 -0.11633462684E+03 -0.73102184255E+02  0.16464133520E+03  0.60883999685E+02 0.  0.
        254    2    1    2    0    0  0.67247550847E+02  0.11633462684E+03  0.10076312601E+04  0.13587633979E+04  0.90158817461E+03 0.  0.
         23    2    4    4    0    0  0.39979631192E+03  0.20918842930E+03  0.85342333261E+03  0.96959242988E+03  0.90450016450E+02 0.  0.
         23    2    4    4    0    0 -0.33254876107E+03 -0.92853802456E+02  0.15420792752E+03  0.38917096801E+03  0.91997012533E+02 0.  0.
          4    1    3    3  502    0  0.11075892043E+02 -0.75205057662E+01 -0.52750483676E+01  0.14389563121E+02  0.00000000000E+00 0. -1.
         -3    1    3    3    0  502 -0.78323442890E+02 -0.10881412107E+03 -0.67827135887E+02  0.15025177208E+03  0.00000000000E+00 0.  1.
         13    1    5    5    0    0  0.24025856951E+03  0.15601358386E+03  0.46248476179E+03  0.54401890910E+03  0.00000000000E+00 0. -1.
        -13    1    5    5    0    0  0.15953774241E+03  0.53174845440E+02  0.39093857081E+03  0.42557352078E+03  0.00000000000E+00 0.  1.
          2    1    6    6  503    0 -0.24327604039E+03 -0.39356304650E+02  0.14189521662E+03  0.28437018663E+03  0.00000000000E+00 0. -1.
         -2    1    6    6    0  503 -0.89272720680E+02 -0.53497497806E+02  0.12312710897E+02  0.10480078138E+03  0.00000000000E+00 0.  1.
<mgrwt>
<rscale>  0 0.12030866E+04</rscale>
<asrwt>0</asrwt>
<pdfrwt beam="1">  1        2 0.18907183E+00 0.12030866E+04</pdfrwt>
<pdfrwt beam="2">  1       -1 0.45298128E-01 0.12030866E+04</pdfrwt>
<totfact> 0.98976085E+01</totfact>
</mgrwt>
</event>
<event>
12    7  0.1701638E-007  0.1843785E+04  0.7818608E-02  0.8683356E-01
         -1   -1    0    0    0  501 -0.00000000000E+00  0.00000000000E+00  0.31304991479E+03  0.31304991479E+03  0.00000000000E+00 0.  1.
          2   -1    0    0  501    0  0.00000000000E+00 -0.00000000000E+00 -0.27148566476E+04  0.27148566476E+04  0.00000000000E+00 0. -1.
         24    2    1    2    0    0  0.34774677491E+03  0.55186524105E+02  0.88855334256E+02  0.37172475881E+03  0.79439624758E+02 0.  0.
        254    2    1    2    0    0 -0.34774677491E+03 -0.55186524105E+02 -0.24906620671E+04  0.26561818036E+04  0.85318864823E+03 0.  0.
         23    2    4    4    0    0 -0.24352114584E+03 -0.32855375019E+03 -0.55014013573E+03  0.69151997874E+03  0.91080167013E+02 0.  0.
         23    2    4    4    0    0 -0.10422562907E+03  0.27336722608E+03 -0.19405219314E+04  0.19646618249E+04  0.93156309176E+02 0.  0.
          4    1    3    3  502    0  0.15247923225E+03  0.64234381655E+02  0.42414411797E+02  0.17080677499E+03  0.00000000000E+00 0. -1.
         -3    1    3    3    0  502  0.19526754266E+03 -0.90478575499E+01  0.46440922460E+02  0.20091798382E+03  0.00000000000E+00 0.  1.
         13    1    5    5    0    0 -0.20697209282E+03 -0.26914252532E+03 -0.50469075865E+03  0.60826631339E+03  0.00000000000E+00 0. -1.
        -13    1    5    5    0    0 -0.36549053022E+02 -0.59411224867E+02 -0.45449377080E+02  0.83253665348E+02  0.00000000000E+00 0.  1.
          4    1    6    6  503    0 -0.21060759007E+02  0.15728203191E+03 -0.12052070930E+04  0.12156090367E+04  0.00000000000E+00 0. -1.
         -4    1    6    6    0  503 -0.83164870064E+02  0.11608519417E+03 -0.73531483840E+03  0.74905278819E+03  0.00000000000E+00 0.  1.
<mgrwt>
<rscale>  0 0.18437848E+04</rscale>
<asrwt>0</asrwt>
<pdfrwt beam="1">  1        2 0.41767025E+00 0.18437848E+04</pdfrwt>
<pdfrwt beam="2">  1       -1 0.48161526E-01 0.18437848E+04</pdfrwt>
<totfact> 0.12033360E+01</totfact>
</mgrwt>
</event>
<event>
12    7  0.1701638E-007  0.1705459E+04  0.7818608E-02  0.8758257E-01
         -1   -1    0    0    0  501 -0.00000000000E+00  0.00000000000E+00  0.57263528848E+03  0.57263528848E+03  0.00000000000E+00 0.  1.
          2   -1    0    0  501    0  0.00000000000E+00 -0.00000000000E+00 -0.12698271781E+04  0.12698271781E+04  0.00000000000E+00 0. -1.
         24    2    1    2    0    0 -0.28394991833E+02  0.14452608394E+03 -0.91966590742E+03  0.93480002808E+03  0.79822595341E+02 0.  0.
        254    2    1    2    0    0  0.28394991833E+02 -0.14452608394E+03  0.22247401782E+03  0.90766243847E+03  0.86756115007E+03 0.  0.
         23    2    4    4    0    0  0.20010713162E+03  0.21569523792E+02  0.49067674630E+03  0.53818707165E+03  0.91507083036E+02 0.  0.
         23    2    4    4    0    0 -0.17171213979E+03 -0.16609560774E+03 -0.26820272848E+03  0.36947536682E+03  0.86640251989E+02 0.  0.
          2    1    3    3  502    0 -0.54347869989E+02  0.93916319099E+02 -0.67065053020E+03  0.67937184194E+03  0.00000000000E+00 0. -1.
         -1    1    3    3    0  502  0.25952878156E+02  0.50609764843E+02 -0.24901537722E+03  0.25542818614E+03  0.00000000000E+00 0.  1.
         13    1    5    5    0    0  0.48780281598E+02  0.14191969367E+02  0.46458396925E+02  0.68842650386E+02  0.00000000000E+00 0.  1.
        -13    1    5    5    0    0  0.15132685003E+03  0.73775544255E+01  0.44421834938E+03  0.46934442126E+03  0.00000000000E+00 0. -1.
          4    1    6    6  503    0 -0.63056999537E+02 -0.40694924389E+02 -0.14340666452E+03  0.16185713914E+03  0.00000000000E+00 0. -1.
         -4    1    6    6    0  503 -0.10865514025E+03 -0.12540068335E+03 -0.12479606397E+03  0.20761822769E+03  0.00000000000E+00 0.  1.
<mgrwt>
<rscale>  0 0.17054593E+04</rscale>
<asrwt>0</asrwt>
<pdfrwt beam="1">  1        2 0.19535803E+00 0.17054593E+04</pdfrwt>
<pdfrwt beam="2">  1       -1 0.88097738E-01 0.17054593E+04</pdfrwt>
<totfact> 0.23642292E+01</totfact>
</mgrwt>
</event>
<event>
12    7  0.1701638E-007  0.1648183E+04  0.7818608E-02  0.8791482E-01
         -3   -1    0    0    0  501 -0.00000000000E+00  0.00000000000E+00  0.68128252417E+03  0.68128252417E+03  0.00000000000E+00 0.  1.
          2   -1    0    0  501    0  0.00000000000E+00 -0.00000000000E+00 -0.99683582888E+03  0.99683582888E+03  0.00000000000E+00 0. -1.
         24    2    1    2    0    0  0.50494861027E+03 -0.24409424199E+03 -0.22857651787E+03  0.61075896283E+03  0.78893524227E+02 0.  0.
        254    2    1    2    0    0 -0.50494861027E+03  0.24409424199E+03 -0.86976786844E+02  0.10673593902E+04  0.90395575581E+03 0.  0.
         23    2    4    4    0    0 -0.27572731121E+03  0.55307248332E+03 -0.20179968039E+03  0.65588395429E+03  0.86867304233E+02 0.  0.
         23    2    4    4    0    0 -0.22922129906E+03 -0.30897824132E+03  0.11482289354E+03  0.41147543594E+03  0.90098723309E+02 0.  0.
          2    1    3    3  502    0  0.39243453639E+03 -0.22436922351E+03 -0.18697808242E+03  0.48919036899E+03  0.00000000000E+00 0. -1.
         -1    1    3    3    0  502  0.11251407388E+03 -0.19725018487E+02 -0.41598435446E+02  0.12156859384E+03  0.00000000000E+00 0.  1.
         13    1    5    5    0    0 -0.21131459537E+03  0.49022697629E+03 -0.16618491718E+03  0.55910086138E+03  0.00000000000E+00 0. -1.
        -13    1    5    5    0    0 -0.64412715836E+02  0.62845507025E+02 -0.35614763210E+02  0.96783092909E+02  0.00000000000E+00 0.  1.
          3    1    6    6  503    0 -0.17427197025E+02 -0.85277604275E+02  0.23077536998E+02  0.90047485812E+02  0.00000000000E+00 0. -1.
         -3    1    6    6    0  503 -0.21179410204E+03 -0.22370063705E+03  0.91745356546E+02  0.32142795012E+03  0.00000000000E+00 0.  1.
<mgrwt>
<rscale>  0 0.16481830E+04</rscale>
<asrwt>0</asrwt>
<pdfrwt beam="1">  1        2 0.15335936E+00 0.16481830E+04</pdfrwt>
<pdfrwt beam="2">  1       -3 0.10481270E+00 0.16481830E+04</pdfrwt>
<totfact> 0.11983160E+01</totfact>
</mgrwt>
</event>
<event>
12    7  0.1701638E-007  0.2438917E+04  0.7818608E-02  0.8425076E-01
         -3   -1    0    0    0  501 -0.00000000000E+00  0.00000000000E+00  0.48772066270E+03  0.48772066270E+03  0.00000000000E+00 0.  1.
          2   -1    0    0  501    0  0.00000000000E+00 -0.00000000000E+00 -0.30490392627E+04  0.30490392627E+04  0.00000000000E+00 0. -1.
         24    2    1    2    0    0  0.66509819525E+03  0.76926491666E+03 -0.14916142787E+04  0.18070761459E+04  0.80541412759E+02 0.  0.
        254    2    1    2    0    0 -0.66509819525E+03 -0.76926491666E+03 -0.10697043213E+04  0.17296837796E+04  0.90189496114E+03 0.  0.
         23    2    4    4    0    0 -0.12027234029E+03  0.19308626192E+03 -0.14427715136E+03  0.28474766601E+03  0.92290825719E+02 0.  0.
         23    2    4    4    0    0 -0.54482585496E+03 -0.96235117858E+03 -0.92542716994E+03  0.14449361135E+04  0.92032180339E+02 0.  0.
          2    1    3    3  502    0  0.47493634478E+03  0.58299479178E+03 -0.11493726876E+04  0.13735010134E+04  0.00000000000E+00 0. -1.
         -1    1    3    3    0  502  0.19016185047E+03  0.18627012488E+03 -0.34224159111E+03  0.43357513245E+03  0.00000000000E+00 0.  1.
         13    1    5    5    0    0 -0.12570606238E+03  0.12936968842E+03 -0.11835135153E+03  0.21574423007E+03  0.00000000000E+00 0. -1.
        -13    1    5    5    0    0  0.54337220881E+01  0.63716573498E+02 -0.25925799832E+02  0.69003435936E+02  0.00000000000E+00 0.  1.
          1    1    6    6  503    0 -0.28918179982E+03 -0.59889347017E+03 -0.57062875436E+03  0.87630855140E+03  0.00000000000E+00 0. -1.
         -1    1    6    6    0  503 -0.25564405514E+03 -0.36345770841E+03 -0.35479841559E+03  0.56862756215E+03  0.00000000000E+00 0.  1.
<mgrwt>
<rscale>  0 0.24389173E+04</rscale>
<asrwt>0</asrwt>
<pdfrwt beam="1">  1        2 0.46908297E+00 0.24389173E+04</pdfrwt>
<pdfrwt beam="2">  1       -3 0.75033947E-01 0.24389173E+04</pdfrwt>
<totfact> 0.15656684E+00</totfact>
</mgrwt>
</event>
<event>
12    7  0.1701638E-007  0.1289307E+04  0.7818608E-02  0.9038088E-01
         -1   -1    0    0    0  501 -0.00000000000E+00  0.00000000000E+00  0.16691827447E+03  0.16691827447E+03  0.00000000000E+00 0.  1.
          2   -1    0    0  501    0  0.00000000000E+00 -0.00000000000E+00 -0.24897103215E+04  0.24897103215E+04  0.00000000000E+00 0. -1.
         24    2    1    2    0    0 -0.14517903733E+03 -0.12567202889E+03 -0.56768043098E+02  0.21534996726E+03  0.79262765243E+02 0.  0.
        254    2    1    2    0    0  0.14517903733E+03  0.12567202889E+03 -0.22660240039E+04  0.24412786287E+04  0.88775342571E+03 0.  0.
         23    2    4    4    0    0  0.11729528276E+03 -0.25117853585E+03 -0.23948447301E+03  0.37773604396E+03  0.92102474818E+02 0.  0.
         23    2    4    4    0    0  0.27883754577E+02  0.37685056474E+03 -0.20265395309E+04  0.20635425847E+04  0.92475276418E+02 0.  0.
          4    1    3    3  502    0 -0.49428072979E+02 -0.48322650155E+02 -0.60994195300E+02  0.92187335230E+02  0.00000000000E+00 0. -1.
         -3    1    3    3    0  502 -0.95750964353E+02 -0.77349378737E+02  0.42261522021E+01  0.12316263203E+03  0.00000000000E+00 0.  1.
         13    1    5    5    0    0  0.45948976672E+02 -0.47327841687E+02 -0.17989060577E+02  0.68372796903E+02  0.00000000000E+00 0.  1.
        -13    1    5    5    0    0  0.71346306084E+02 -0.20385069416E+03 -0.22149541243E+03  0.30936324706E+03  0.00000000000E+00 0. -1.
          4    1    6    6  503    0  0.27871532160E+02  0.35309097532E+03 -0.19784464551E+04  0.20099006032E+04  0.00000000000E+00 0. -1.
         -4    1    6    6    0  503  0.12222417029E-01  0.23759589425E+02 -0.48093075817E+02  0.53641981512E+02  0.00000000000E+00 0.  1.
<mgrwt>
<rscale>  0 0.12893070E+04</rscale>
<asrwt>0</asrwt>
<pdfrwt beam="1">  1        2 0.38303232E+00 0.12893070E+04</pdfrwt>
<pdfrwt beam="2">  1       -1 0.25679737E-01 0.12893070E+04</pdfrwt>
<totfact> 0.52992060E+01</totfact>
</mgrwt>
</event>
<event>
12    7  0.1701638E-007  0.1286194E+04  0.7818608E-02  0.9040586E-01
          2   -1    0    0  501    0  0.00000000000E+00  0.00000000000E+00  0.18543525199E+04  0.18543525199E+04  0.00000000000E+00 0. -1.
         -1   -1    0    0    0  501 -0.00000000000E+00 -0.00000000000E+00 -0.22302868938E+03  0.22302868938E+03  0.00000000000E+00 0.  1.
         24    2    1    2    0    0 -0.13188375911E+03 -0.28630900804E+03  0.33597866402E+03  0.46821178299E+03  0.83513095089E+02 0.  0.
        254    2    1    2    0    0  0.13188375911E+03  0.28630900804E+03  0.12953451665E+04  0.16091694263E+04  0.90118864183E+03 0.  0.
         23    2    4    4    0    0  0.45281386670E+03  0.18454484822E+03  0.37078436201E+03  0.62121703557E+03  0.96604157719E+02 0.  0.
         23    2    4    4    0    0 -0.32093010759E+03  0.10176415982E+03  0.92456080450E+03  0.98795239074E+03  0.88798462610E+02 0.  0.
          2    1    3    3  502    0 -0.38204550071E+02 -0.19427221233E+02  0.52290744298E+02  0.67611585621E+02  0.00000000000E+00 0. -1.
         -1    1    3    3    0  502 -0.93679209041E+02 -0.26688178680E+03  0.28368791972E+03  0.40060019737E+03  0.00000000000E+00 0.  1.
         13    1    5    5    0    0  0.59836710433E+02 -0.86241337717E+01  0.41287111413E+02  0.73208149598E+02  0.00000000000E+00 0. -1.
        -13    1    5    5    0    0  0.39297715627E+03  0.19316898199E+03  0.32949725060E+03  0.54800888597E+03  0.00000000000E+00 0.  1.
          3    1    6    6  503    0 -0.18878982457E+02  0.12303492623E+02  0.20081742303E+02  0.30183907687E+02  0.00000000000E+00 0. -1.
         -3    1    6    6    0  503 -0.30205112513E+03  0.89460667196E+02  0.90447906220E+03  0.95776848305E+03  0.00000000000E+00 0.  1.
<mgrwt>
<rscale>  0 0.12861941E+04</rscale>
<asrwt>0</asrwt>
<pdfrwt beam="1">  1        2 0.28528499E+00 0.12861941E+04</pdfrwt>
<pdfrwt beam="2">  1       -1 0.34312107E-01 0.12861941E+04</pdfrwt>
<totfact> 0.72365169E+01</totfact>
</mgrwt>
</event>
<event>
12    7  0.1701638E-007  0.2592181E+04  0.7818608E-02  0.8370862E-01
          2   -1    0    0  501    0  0.00000000000E+00  0.00000000000E+00  0.26796337758E+04  0.26796337758E+04  0.00000000000E+00 0. -1.
         -1   -1    0    0    0  501 -0.00000000000E+00 -0.00000000000E+00 -0.62689570793E+03  0.62689570793E+03  0.00000000000E+00 0.  1.
         24    2    1    2    0    0  0.82504665504E+03  0.15090797183E+03 -0.48781225117E+02  0.84359624477E+03  0.76156531625E+02 0.  0.
        254    2    1    2    0    0 -0.82504665504E+03 -0.15090797183E+03  0.21015192929E+04  0.24629332389E+04  0.97271866528E+03 0.  0.
         23    2    4    4    0    0  0.56934581190E+02 -0.24269946305E+03  0.12225197694E+03  0.29217255392E+03  0.90965265334E+02 0.  0.
         23    2    4    4    0    0 -0.88198123623E+03  0.91791491217E+02  0.19792673160E+04  0.21707606850E+04  0.91576549390E+02 0.  0.
          2    1    3    3  502    0  0.19813593398E+03  0.72730568191E+01 -0.26734912731E+02  0.20006374296E+03  0.00000000000E+00 0. -1.
         -1    1    3    3    0  502  0.62691072106E+03  0.14363491501E+03 -0.22046312386E+02  0.64353250181E+03  0.00000000000E+00 0.  1.
         13    1    5    5    0    0  0.70328742507E+02 -0.23425027918E+03  0.12706991550E+03  0.27561946365E+03  0.00000000000E+00 0. -1.
        -13    1    5    5    0    0 -0.13394161317E+02 -0.84491838735E+01 -0.48179385594E+01  0.16553090270E+02  0.00000000000E+00 0.  1.
          3    1    6    6  503    0 -0.10423999643E+03  0.32368356651E+02  0.19547361338E+03  0.22388305183E+03  0.00000000000E+00 0. -1.
         -3    1    6    6    0  503 -0.77774123980E+03  0.59423134566E+02  0.17837937026E+04  0.19468776332E+04  0.00000000000E+00 0.  1.
<mgrwt>
<rscale>  0 0.25921813E+04</rscale>
<asrwt>0</asrwt>
<pdfrwt beam="1">  1        2 0.41225134E+00 0.25921813E+04</pdfrwt>
<pdfrwt beam="2">  1       -1 0.96445495E-01 0.25921813E+04</pdfrwt>
<totfact> 0.28437131E+00</totfact>
</mgrwt>
</event>
<event>
12    7  0.1701638E-007  0.1931681E+04  0.7818608E-02  0.8639245E-01
          2   -1    0    0  501    0  0.00000000000E+00  0.00000000000E+00  0.57910512627E+03  0.57910512627E+03  0.00000000000E+00 0. -1.
         -1   -1    0    0    0  501 -0.00000000000E+00 -0.00000000000E+00 -0.16108443009E+04  0.16108443009E+04  0.00000000000E+00 0.  1.
         24    2    1    2    0    0 -0.50055572820E+03  0.49735166120E+03 -0.11533730382E+03  0.71914101556E+03  0.77112869755E+02 0.  0.
        254    2    1    2    0    0  0.50055572820E+03 -0.49735166120E+03 -0.91640187086E+03  0.14708084116E+04  0.90860898241E+03 0.  0.
         23    2    4    4    0    0  0.15443960504E+03  0.23134387130E+03 -0.77408875744E+02  0.30334268431E+03  0.93021888214E+02 0.  0.
         23    2    4    4    0    0  0.34611612315E+03 -0.72869553250E+03 -0.83899299512E+03  0.11674657273E+04  0.90958390746E+02 0.  0.
          4    1    3    3  502    0 -0.44429562541E+03  0.47142254346E+03 -0.10203515550E+03  0.65578120605E+03  0.00000000000E+00 0. -1.
         -3    1    3    3    0  502 -0.56260102782E+02  0.25929117736E+02 -0.13302148321E+02  0.63359809514E+02  0.00000000000E+00 0.  1.
         13    1    5    5    0    0  0.90403497543E+02  0.14387006462E+03  0.37496732810E+00  0.16991623955E+03  0.00000000000E+00 0.  1.
        -13    1    5    5    0    0  0.64036107499E+02  0.87473806681E+02 -0.77783843072E+02  0.13342644476E+03  0.00000000000E+00 0. -1.
          4    1    6    6  503    0  0.91795491452E+02 -0.27864940624E+03 -0.26992240845E+03  0.39866026945E+03  0.00000000000E+00 0. -1.
         -4    1    6    6    0  503  0.25432063170E+03 -0.45004612626E+03 -0.56907058666E+03  0.76880545789E+03  0.00000000000E+00 0.  1.
<mgrwt>
<rscale>  0 0.19316813E+04</rscale>
<asrwt>0</asrwt>
<pdfrwt beam="1">  1        2 0.89093099E-01 0.19316813E+04</pdfrwt>
<pdfrwt beam="2">  1       -1 0.24782219E+00 0.19316813E+04</pdfrwt>
<totfact> 0.39791026E+00</totfact>
</mgrwt>
</event>
<event>
12    7  0.1701638E-007  0.1802012E+04  0.7818608E-02  0.8705230E-01
         -1   -1    0    0    0  501 -0.00000000000E+00  0.00000000000E+00  0.54484980131E+03  0.54484980131E+03  0.00000000000E+00 0.  1.
          2   -1    0    0  501    0  0.00000000000E+00 -0.00000000000E+00 -0.14899743670E+04  0.14899743670E+04  0.00000000000E+00 0. -1.
         24    2    1    2    0    0  0.52014273882E+03  0.32389475990E+03 -0.67128244265E+03  0.91263365787E+03  0.82606243316E+02 0.  0.
        254    2    1    2    0    0 -0.52014273882E+03 -0.32389475990E+03 -0.27384212307E+03  0.11221905105E+04  0.89936963989E+03 0.  0.
         23    2    4    4    0    0 -0.54720511348E+03  0.89307253929E+02  0.83207935306E+02  0.56810841734E+03  0.91729992524E+02 0.  0.
         23    2    4    4    0    0  0.27062374663E+02 -0.41320201383E+03 -0.35705005837E+03  0.55408209312E+03  0.89743776254E+02 0.  0.
          4    1    3    3  502    0  0.22958120878E+03  0.16539731350E+03 -0.25586544774E+03  0.38148516365E+03  0.00000000000E+00 0. -1.
         -3    1    3    3    0  502  0.29056153003E+03  0.15849744640E+03 -0.41541699491E+03  0.53114849422E+03  0.00000000000E+00 0.  1.
         13    1    5    5    0    0 -0.26198457263E+03  0.14485440959E+02  0.75918202558E+02  0.27314706255E+03  0.00000000000E+00 0. -1.
        -13    1    5    5    0    0 -0.28522054085E+03  0.74821812969E+02  0.72897327479E+01  0.29496135479E+03  0.00000000000E+00 0.  1.
          4    1    6    6  503    0  0.58685288037E+02 -0.21223103964E+03 -0.19030273408E+03  0.29103454746E+03  0.00000000000E+00 0. -1.
         -4    1    6    6    0  503 -0.31622913374E+02 -0.20097097419E+03 -0.16674732429E+03  0.26304754566E+03  0.00000000000E+00 0.  1.
<mgrwt>
<rscale>  0 0.18020125E+04</rscale>
<asrwt>0</asrwt>
<pdfrwt beam="1">  1        2 0.22922682E+00 0.18020125E+04</pdfrwt>
<pdfrwt beam="2">  1       -1 0.83823048E-01 0.18020125E+04</pdfrwt>
<totfact> 0.19519281E+01</totfact>
</mgrwt>
</event>
<event>
12    7  0.1701638E-007  0.1767370E+04  0.7818608E-02  0.8723847E-01
         -1   -1    0    0    0  501 -0.00000000000E+00  0.00000000000E+00  0.88864770251E+03  0.88864770251E+03  0.00000000000E+00 0.  1.
          2   -1    0    0  501    0  0.00000000000E+00 -0.00000000000E+00 -0.87874962024E+03  0.87874962024E+03  0.00000000000E+00 0. -1.
         24    2    1    2    0    0 -0.46198860789E+03 -0.34685868778E+03 -0.31503429184E+03  0.66289998615E+03  0.80283021158E+02 0.  0.
        254    2    1    2    0    0  0.46198860789E+03  0.34685868778E+03  0.32493237410E+03  0.11044973366E+04  0.88350942027E+03 0.  0.
         23    2    4    4    0    0 -0.11032243771E+03  0.38319995225E+03  0.32775764524E+03  0.52413976171E+03  0.91017427585E+02 0.  0.
         23    2    4    4    0    0  0.57231104560E+03 -0.36341264469E+02 -0.28252711394E+01  0.58035757489E+03  0.89142089719E+02 0.  0.
          4    1    3    3  502    0 -0.34709624745E+03 -0.24924250831E+03 -0.19272871133E+03  0.46876645477E+03  0.00000000000E+00 0. -1.
         -3    1    3    3    0  502 -0.11489236044E+03 -0.97616179468E+02 -0.12230558051E+03  0.19413353137E+03  0.00000000000E+00 0.  1.
         13    1    5    5    0    0 -0.39892921051E+02  0.22581308820E+03  0.23502240049E+03  0.32835731252E+03  0.00000000000E+00 0.  1.
        -13    1    5    5    0    0 -0.70429516658E+02  0.15738686405E+03  0.92735244754E+02  0.19578244919E+03  0.00000000000E+00 0. -1.
          4    1    6    6  503    0  0.23963617426E+03 -0.57587441805E+02  0.11167362180E+02  0.24671140924E+03  0.00000000000E+00 0. -1.
         -4    1    6    6    0  503  0.33267487134E+03  0.21246177336E+02 -0.13992633319E+02  0.33364616566E+03  0.00000000000E+00 0.  1.
<mgrwt>
<rscale>  0 0.17673696E+04</rscale>
<asrwt>0</asrwt>
<pdfrwt beam="1">  1        2 0.13519225E+00 0.17673696E+04</pdfrwt>
<pdfrwt beam="2">  1       -1 0.13671503E+00 0.17673696E+04</pdfrwt>
<totfact> 0.14604852E+01</totfact>
</mgrwt>
</event>
<event>
12    7  0.1701638E-007  0.1882175E+04  0.7818608E-02  0.8663780E-01
         -1   -1    0    0    0  501 -0.00000000000E+00  0.00000000000E+00  0.10987200378E+04  0.10987200378E+04  0.00000000000E+00 0.  1.
          2   -1    0    0  501    0  0.00000000000E+00 -0.00000000000E+00 -0.80607055011E+03  0.80607055011E+03  0.00000000000E+00 0. -1.
         24    2    1    2    0    0  0.59875954896E+03 -0.70716474003E+02 -0.23649131754E+03  0.65252337272E+03  0.79654199591E+02 0.  0.
        254    2    1    2    0    0 -0.59875954896E+03  0.70716474003E+02  0.52914080521E+03  0.12522672152E+04  0.96159730100E+03 0.  0.
         23    2    4    4    0    0 -0.82243836968E+03  0.17082191962E+03  0.27697822185E+03  0.88943608180E+03  0.93779571782E+02 0.  0.
         23    2    4    4    0    0  0.22367882073E+03 -0.10010544562E+03  0.25216258336E+03  0.36283113337E+03  0.89482667663E+02 0.  0.
          4    1    3    3  502    0  0.52290368151E+03 -0.53872723171E+02 -0.23228580874E+03  0.57470620962E+03  0.00000000000E+00 0. -1.
         -3    1    3    3    0  502  0.75855867451E+02 -0.16843750831E+02 -0.42055088021E+01  0.77817163101E+02  0.00000000000E+00 0.  1.
         13    1    5    5    0    0 -0.65099289232E+02 -0.10912736248E+02  0.14734934349E+02  0.67632267160E+02  0.00000000000E+00 0. -1.
        -13    1    5    5    0    0 -0.75733908045E+03  0.18173465587E+03  0.26224328750E+03  0.82180381464E+03  0.00000000000E+00 0.  1.
          1    1    6    6  503    0 -0.53264594144E+01  0.40452014316E+01  0.17759136777E+02  0.18976874442E+02  0.00000000000E+00 0. -1.
         -1    1    6    6    0  503  0.22900528014E+03 -0.10415064705E+03  0.23440344659E+03  0.34385425893E+03  0.00000000000E+00 0.  1.
<mgrwt>
<rscale>  0 0.18821752E+04</rscale>
<asrwt>0</asrwt>
<pdfrwt beam="1">  1        2 0.12401085E+00 0.18821752E+04</pdfrwt>
<pdfrwt beam="2">  1       -1 0.16903385E+00 0.18821752E+04</pdfrwt>
<totfact> 0.91306611E+00</totfact>
</mgrwt>
</event>
<event>
12    7  0.1701638E-007  0.1184058E+04  0.7818608E-02  0.9126926E-01
         -1   -1    0    0    0  501 -0.00000000000E+00  0.00000000000E+00  0.48141777573E+03  0.48141777573E+03  0.00000000000E+00 0.  1.
          2   -1    0    0  501    0  0.00000000000E+00 -0.00000000000E+00 -0.72805421394E+03  0.72805421394E+03  0.00000000000E+00 0. -1.
         24    2    1    2    0    0  0.45154009327E+02  0.22560507443E+01  0.18359708168E+03  0.20550262764E+03  0.80495137990E+02 0.  0.
        254    2    1    2    0    0 -0.45154009327E+02 -0.22560507443E+01 -0.43023351989E+03  0.10039693620E+04  0.90598544355E+03 0.  0.
         23    2    4    4    0    0 -0.43034724495E+03 -0.11592411032E+03 -0.78588160803E+02  0.46167664425E+03  0.91280196305E+02 0.  0.
         23    2    4    4    0    0  0.38519323563E+03  0.11366805957E+03 -0.35164535909E+03  0.54229271778E+03  0.95565038831E+02 0.  0.
          2    1    3    3  502    0  0.28205540211E+02 -0.12160247921E+01  0.84020859387E+01  0.29455496312E+02  0.00000000000E+00 0. -1.
         -1    1    3    3    0  502  0.16948469116E+02  0.34720755363E+01  0.17519499574E+03  0.17604713133E+03  0.00000000000E+00 0.  1.
         13    1    5    5    0    0 -0.36158425199E+03 -0.71377606953E+02 -0.38810587680E+02  0.37059977843E+03  0.00000000000E+00 0. -1.
        -13    1    5    5    0    0 -0.68762992966E+02 -0.44546503364E+02 -0.39777573122E+02  0.91076865817E+02  0.00000000000E+00 0.  1.
          1    1    6    6  503    0  0.37069468451E+03  0.11146932664E+03 -0.35709672244E+03  0.52664791757E+03  0.00000000000E+00 0. -1.
         -1    1    6    6    0  503  0.14498551116E+02  0.21987329338E+01  0.54513633547E+01  0.15644800204E+02  0.00000000000E+00 0.  1.
<mgrwt>
<rscale>  0 0.11840578E+04</rscale>
<asrwt>0</asrwt>
<pdfrwt beam="1">  1        2 0.11200834E+00 0.11840578E+04</pdfrwt>
<pdfrwt beam="2">  1       -1 0.74064273E-01 0.11840578E+04</pdfrwt>
<totfact> 0.80714119E+01</totfact>
</mgrwt>
</event>
<event>
12    7  0.1701638E-007  0.1496327E+04  0.7818608E-02  0.8886899E-01
         -1   -1    0    0    0  501 -0.00000000000E+00  0.00000000000E+00  0.26940585068E+03  0.26940585068E+03  0.00000000000E+00 0.  1.
          2   -1    0    0  501    0  0.00000000000E+00 -0.00000000000E+00 -0.20777143440E+04  0.20777143440E+04  0.00000000000E+00 0. -1.
         24    2    1    2    0    0 -0.44983208398E+03 -0.29528780256E+02 -0.81126950377E+03  0.93179285109E+03  0.82818216217E+02 0.  0.
        254    2    1    2    0    0  0.44983208398E+03  0.29528780256E+02 -0.99703898956E+03  0.14153273436E+04  0.89768808070E+03 0.  0.
         23    2    4    4    0    0  0.17532397413E+03 -0.35068611630E+03 -0.80601880958E+03  0.90088992044E+03  0.90648106913E+02 0.  0.
         23    2    4    4    0    0  0.27450810986E+03  0.38021489656E+03 -0.19102017998E+03  0.51443742317E+03  0.90769396058E+02 0.  0.
          2    1    3    3  502    0 -0.42141051320E+03 -0.20018948486E+02 -0.78807379395E+03  0.89389478332E+03  0.00000000000E+00 0. -1.
         -1    1    3    3    0  502 -0.28421570787E+02 -0.95098317707E+01 -0.23195709820E+02  0.37898067766E+02  0.00000000000E+00 0.  1.
         13    1    5    5    0    0  0.23710580249E+02 -0.14383064650E+03 -0.27948927532E+03  0.31522008424E+03  0.00000000000E+00 0. -1.
        -13    1    5    5    0    0  0.15161339388E+03 -0.20685546979E+03 -0.52652953426E+03  0.58566983620E+03  0.00000000000E+00 0.  1.
          4    1    6    6  503    0  0.44624452221E+02  0.37843696105E+02 -0.54711284823E+02  0.80105004574E+02  0.00000000000E+00 0. -1.
         -4    1    6    6    0  503  0.22988365764E+03  0.34237120045E+03 -0.13630889516E+03  0.43433241860E+03  0.00000000000E+00 0.  1.
<mgrwt>
<rscale>  0 0.14963267E+04</rscale>
<asrwt>0</asrwt>
<pdfrwt beam="1">  1        2 0.31964837E+00 0.14963267E+04</pdfrwt>
<pdfrwt beam="2">  1       -1 0.41447053E-01 0.14963267E+04</pdfrwt>
<totfact> 0.38003511E+01</totfact>
</mgrwt>
</event>
<event>
12    7  0.1701638E-007  0.1330850E+04  0.7818608E-02  0.9005453E-01
         -1   -1    0    0    0  501 -0.00000000000E+00  0.00000000000E+00  0.39134101903E+03  0.39134101903E+03  0.00000000000E+00 0.  1.
          2   -1    0    0  501    0  0.00000000000E+00 -0.00000000000E+00 -0.11314690793E+04  0.11314690793E+04  0.00000000000E+00 0. -1.
         24    2    1    2    0    0  0.22456240712E+03 -0.18019420667E+03  0.39581919374E+01  0.29915053358E+03  0.81099615580E+02 0.  0.
        254    2    1    2    0    0 -0.22456240712E+03  0.18019420667E+03 -0.74408625225E+03  0.12236595648E+04  0.92778238447E+03 0.  0.
         23    2    4    4    0    0  0.81618591575E+02 -0.15159007415E+03 -0.73590968096E+03  0.76130382512E+03  0.91538574082E+02 0.  0.
         23    2    4    4    0    0 -0.30618099870E+03  0.33178428082E+03 -0.81765712898E+01  0.46235573968E+03  0.99389942833E+02 0.  0.
          2    1    3    3  502    0  0.49251269119E+02 -0.19305200496E+02 -0.26664726129E+02  0.59240070017E+02  0.00000000000E+00 0. -1.
         -1    1    3    3    0  502  0.17531113800E+03 -0.16088900617E+03  0.30622918067E+02  0.23991046356E+03  0.00000000000E+00 0.  1.
         13    1    5    5    0    0  0.26626224777E+02 -0.15305206554E+01 -0.46439185164E+02  0.53552742768E+02  0.00000000000E+00 0. -1.
        -13    1    5    5    0    0  0.54992366799E+02 -0.15005955349E+03 -0.68947049579E+03  0.70775108235E+03  0.00000000000E+00 0.  1.
          1    1    6    6  503    0 -0.27690133891E+03  0.32430406443E+03  0.10977095778E+02  0.42657704383E+03  0.00000000000E+00 0. -1.
         -1    1    6    6    0  503 -0.29279659784E+02  0.74802163931E+01 -0.19153667068E+02  0.35778695847E+02  0.00000000000E+00 0.  1.
<mgrwt>
<rscale>  0 0.13308497E+04</rscale>
<asrwt>0</asrwt>
<pdfrwt beam="1">  1        2 0.17407217E+00 0.13308497E+04</pdfrwt>
<pdfrwt beam="2">  1       -1 0.60206310E-01 0.13308497E+04</pdfrwt>
<totfact> 0.65014911E+01</totfact>
</mgrwt>
</event>
<event>
12    7  0.1701638E-007  0.1776702E+04  0.7818608E-02  0.8718788E-01
         -1   -1    0    0    0  501 -0.00000000000E+00  0.00000000000E+00  0.39261993450E+03  0.39261993450E+03  0.00000000000E+00 0.  1.
          2   -1    0    0  501    0  0.00000000000E+00 -0.00000000000E+00 -0.20100046240E+04  0.20100046240E+04  0.00000000000E+00 0. -1.
         24    2    1    2    0    0 -0.36155873048E+03  0.15957868420E+02 -0.13267850449E+04  0.13775852382E+04  0.80019772688E+02 0.  0.
        254    2    1    2    0    0  0.36155873048E+03 -0.15957868420E+02 -0.29059964468E+03  0.10250393204E+04  0.91393549315E+03 0.  0.
         23    2    4    4    0    0 -0.17950364733E+03  0.27786639313E+03 -0.19682536850E+03  0.39565553532E+03  0.91497459555E+02 0.  0.
         23    2    4    4    0    0  0.54106237781E+03 -0.29382426156E+03 -0.93774276178E+02  0.62938378504E+03  0.90824779870E+02 0.  0.
          2    1    3    3  502    0 -0.31430899797E+03  0.37052207044E+02 -0.10791163992E+04  0.11245689020E+04  0.00000000000E+00 0. -1.
         -1    1    3    3    0  502 -0.47249732515E+02 -0.21094338624E+02 -0.24766864567E+03  0.25301633622E+03  0.00000000000E+00 0.  1.
         13    1    5    5    0    0 -0.18170937265E+03  0.22417034398E+03 -0.17610195782E+03  0.33805700522E+03  0.00000000000E+00 0.  1.
        -13    1    5    5    0    0  0.22057253272E+01  0.53696049156E+02 -0.20723410673E+02  0.57598530095E+02  0.00000000000E+00 0. -1.
          3    1    6    6  503    0  0.87515917217E+02 -0.11960296690E+02 -0.11040607462E+02  0.89016737057E+02  0.00000000000E+00 0. -1.
         -3    1    6    6    0  503  0.45354646059E+03 -0.28186396487E+03 -0.82733668716E+02  0.54036704798E+03  0.00000000000E+00 0.  1.
<mgrwt>
<rscale>  0 0.17767024E+04</rscale>
<asrwt>0</asrwt>
<pdfrwt beam="1">  1        2 0.30923148E+00 0.17767024E+04</pdfrwt>
<pdfrwt beam="2">  1       -1 0.60403067E-01 0.17767024E+04</pdfrwt>
<totfact> 0.19748267E+01</totfact>
</mgrwt>
</event>
<event>
12    7  0.1701638E-007  0.3575466E+04  0.7818608E-02  0.8096135E-01
         -1   -1    0    0    0  501 -0.00000000000E+00  0.00000000000E+00  0.11037637659E+04  0.11037637659E+04  0.00000000000E+00 0.  1.
          2   -1    0    0  501    0  0.00000000000E+00 -0.00000000000E+00 -0.28955367136E+04  0.28955367136E+04  0.00000000000E+00 0. -1.
         24    2    1    2    0    0  0.59329423868E+03  0.12190024182E+03  0.90551558285E+03  0.10921416084E+04  0.77182248222E+02 0.  0.
        254    2    1    2    0    0 -0.59329423868E+03 -0.12190024182E+03 -0.26972885306E+04  0.29071588711E+04  0.89963857289E+03 0.  0.
         23    2    4    4    0    0 -0.46994906242E+03 -0.41602185904E+03 -0.23180102735E+04  0.24032558210E+04  0.92415391682E+02 0.  0.
         23    2    4    4    0    0 -0.12334517626E+03  0.29412161722E+03 -0.37927825703E+03  0.50390305003E+03  0.91349490144E+02 0.  0.
          4    1    3    3  502    0  0.67403216041E+02  0.25922814058E+02  0.72352583306E+02  0.10222564322E+03  0.00000000000E+00 0. -1.
         -3    1    3    3    0  502  0.52589102264E+03  0.95977427761E+02  0.83316299955E+03  0.98991596519E+03  0.00000000000E+00 0.  1.
         13    1    5    5    0    0 -0.10093391582E+03 -0.11923373233E+03 -0.45803485466E+03  0.48394242052E+03  0.00000000000E+00 0.  1.
        -13    1    5    5    0    0 -0.36901514660E+03 -0.29678812671E+03 -0.18599754189E+04  0.19193134005E+04  0.00000000000E+00 0. -1.
          3    1    6    6  503    0 -0.10153165447E+03  0.28210111037E+03 -0.37234718096E+03  0.47805034934E+03  0.00000000000E+00 0. -1.
         -3    1    6    6    0  503 -0.21813521786E+02  0.12020506848E+02 -0.69310760740E+01  0.25852700693E+02  0.00000000000E+00 0.  1.
<mgrwt>
<rscale>  0 0.35754656E+04</rscale>
<asrwt>0</asrwt>
<pdfrwt beam="1">  1        2 0.44546718E+00 0.35754656E+04</pdfrwt>
<pdfrwt beam="2">  1       -1 0.16980981E+00 0.35754656E+04</pdfrwt>
<totfact> 0.46268201E-01</totfact>
</mgrwt>
</event>
<event>
12    7  0.1701638E-007  0.2628318E+04  0.7818608E-02  0.8358645E-01
         -1   -1    0    0    0  501 -0.00000000000E+00  0.00000000000E+00  0.91458005284E+03  0.91458005284E+03  0.00000000000E+00 0.  1.
          2   -1    0    0  501    0  0.00000000000E+00 -0.00000000000E+00 -0.18883131250E+04  0.18883131250E+04  0.00000000000E+00 0. -1.
         24    2    1    2    0    0 -0.11009476063E+04  0.16565688005E+03 -0.12201026208E+03  0.11228666640E+04  0.80094989603E+02 0.  0.
        254    2    1    2    0    0  0.11009476063E+04 -0.16565688005E+03 -0.85172281010E+03  0.16800265138E+04  0.92602889161E+03 0.  0.
         23    2    4    4    0    0  0.81365324116E+03  0.69681784043E+02 -0.97812297992E+03  0.12774760211E+04  0.91286761416E+02 0.  0.
         23    2    4    4    0    0  0.28729436517E+03 -0.23533866409E+03  0.12640016982E+03  0.40255049270E+03  0.90263819805E+02 0.  0.
          2    1    3    3  502    0 -0.58306081130E+02  0.89077892897E+01 -0.24975580155E+02  0.64052536334E+02  0.00000000000E+00 0. -1.
         -1    1    3    3    0  502 -0.10426415252E+04  0.15674909076E+03 -0.97034681929E+02  0.10588141277E+04  0.00000000000E+00 0.  1.
         13    1    5    5    0    0  0.74685096364E+03  0.87682232572E+02 -0.88213661258E+03  0.11591546657E+04  0.00000000000E+00 0.  1.
        -13    1    5    5    0    0  0.66802277514E+02 -0.18000448528E+02 -0.95986367341E+02  0.11832135540E+03  0.00000000000E+00 0. -1.
          2    1    6    6  503    0  0.75426424663E+02 -0.73499718168E+02 -0.47665022703E+01  0.10542330697E+03  0.00000000000E+00 0. -1.
         -2    1    6    6    0  503  0.21186794051E+03 -0.16183894593E+03  0.13116667209E+03  0.29712718573E+03  0.00000000000E+00 0.  1.
<mgrwt>
<rscale>  0 0.26283177E+04</rscale>
<asrwt>0</asrwt>
<pdfrwt beam="1">  1        2 0.29050971E+00 0.26283177E+04</pdfrwt>
<pdfrwt beam="2">  1       -1 0.14070462E+00 0.26283177E+04</pdfrwt>
<totfact> 0.32021316E+00</totfact>
</mgrwt>
</event>
<event>
12    7  0.1701638E-007  0.1667172E+04  0.7818608E-02  0.8780312E-01
          2   -1    0    0  501    0  0.00000000000E+00  0.00000000000E+00  0.65898768621E+03  0.65898768621E+03  0.00000000000E+00 0. -1.
         -1   -1    0    0    0  501 -0.00000000000E+00 -0.00000000000E+00 -0.10544440593E+04  0.10544440593E+04  0.00000000000E+00 0.  1.
         24    2    1    2    0    0  0.46244290706E+03 -0.24121942277E+03 -0.39695536101E+03  0.66028522505E+03  0.79766957915E+02 0.  0.
        254    2    1    2    0    0 -0.46244290706E+03  0.24121942277E+03  0.14989879648E+01  0.10531465204E+04  0.91491808064E+03 0.  0.
         23    2    4    4    0    0 -0.49589547953E+03  0.40427678831E+03  0.28824976233E+03  0.70875628277E+03  0.99476101120E+02 0.  0.
         23    2    4    4    0    0  0.33452572467E+02 -0.16305736554E+03 -0.28675077437E+03  0.34439023765E+03  0.93122769122E+02 0.  0.
          2    1    3    3  502    0  0.14912495320E+03 -0.95829179109E+02 -0.92971992361E+02  0.20016311997E+03  0.00000000000E+00 0. -1.
         -1    1    3    3    0  502  0.31331795386E+03 -0.14539024366E+03 -0.30398336865E+03  0.46012210508E+03  0.00000000000E+00 0.  1.
         13    1    5    5    0    0 -0.91164628726E+02  0.34439871057E+02  0.62919981786E+02  0.11600007913E+03  0.00000000000E+00 0.  1.
        -13    1    5    5    0    0 -0.40473085080E+03  0.36983691725E+03  0.22532978055E+03  0.59275620364E+03  0.00000000000E+00 0. -1.
          1    1    6    6  503    0  0.38476078675E+01 -0.14667761793E+03 -0.26842894943E+03  0.30591376004E+03  0.00000000000E+00 0. -1.
         -1    1    6    6    0  503  0.29604964599E+02 -0.16379747605E+02 -0.18321824938E+02  0.38476477614E+02  0.00000000000E+00 0.  1.
<mgrwt>
<rscale>  0 0.16671720E+04</rscale>
<asrwt>0</asrwt>
<pdfrwt beam="1">  1        2 0.10138272E+00 0.16671720E+04</pdfrwt>
<pdfrwt beam="2">  1       -1 0.16222216E+00 0.16671720E+04</pdfrwt>
<totfact> 0.13541328E+01</totfact>
</mgrwt>
</event>
<event>
12    7  0.1701638E-007  0.2189175E+04  0.7818608E-02  0.8522947E-01
         -3   -1    0    0    0  501 -0.00000000000E+00  0.00000000000E+00  0.78337291690E+03  0.78337291690E+03  0.00000000000E+00 0.  1.
          4   -1    0    0  501    0  0.00000000000E+00 -0.00000000000E+00 -0.15294401088E+04  0.15294401088E+04  0.00000000000E+00 0. -1.
         24    2    1    2    0    0  0.25230047153E+02 -0.43121140201E+03  0.53081986648E+03  0.68894810637E+03  0.79372124320E+02 0.  0.
        254    2    1    2    0    0 -0.25230047153E+02  0.43121140201E+03 -0.12768870583E+04  0.16238649193E+04  0.90549262166E+03 0.  0.
         23    2    4    4    0    0 -0.30831715704E+03  0.73429083279E+02 -0.10601992705E+04  0.11105019727E+04  0.93492452670E+02 0.  0.
         23    2    4    4    0    0  0.28308710989E+03  0.35778231873E+03 -0.21668778786E+03  0.51336294658E+03  0.91877190472E+02 0.  0.
          2    1    3    3  502    0  0.38000549015E+02 -0.12019989945E+03  0.18254052893E+03  0.22184026292E+03  0.00000000000E+00 0. -1.
         -1    1    3    3    0  502 -0.12770501862E+02 -0.31101150256E+03  0.34827933755E+03  0.46710784345E+03  0.00000000000E+00 0.  1.
         13    1    5    5    0    0 -0.18262207073E+03 -0.42635935035E+01 -0.58397956250E+03  0.61188326367E+03  0.00000000000E+00 0.  1.
        -13    1    5    5    0    0 -0.12569508632E+03  0.77692676783E+02 -0.47621970797E+03  0.49861870904E+03  0.00000000000E+00 0. -1.
          2    1    6    6  503    0  0.26209550991E+02  0.12104820310E+02 -0.36445012667E+02  0.46494152172E+02  0.00000000000E+00 0. -1.
         -2    1    6    6    0  503  0.25687755890E+03  0.34567749842E+03 -0.18024277519E+03  0.46686879441E+03  0.00000000000E+00 0.  1.
<mgrwt>
<rscale>  0 0.21891751E+04</rscale>
<asrwt>0</asrwt>
<pdfrwt beam="1">  1        4 0.23529848E+00 0.21891751E+04</pdfrwt>
<pdfrwt beam="2">  1       -3 0.12051891E+00 0.21891751E+04</pdfrwt>
<totfact> 0.91067016E-02</totfact>
</mgrwt>
</event>
<event>
12    7  0.1701638E-007  0.1431982E+04  0.7818608E-02  0.8930988E-01
          2   -1    0    0  501    0  0.00000000000E+00  0.00000000000E+00  0.24445728034E+04  0.24445728034E+04  0.00000000000E+00 0. -1.
         -1   -1    0    0    0  501 -0.00000000000E+00 -0.00000000000E+00 -0.20970674678E+03  0.20970674678E+03  0.00000000000E+00 0.  1.
         24    2    1    2    0    0  0.33197581811E+02 -0.16636001098E+03  0.15227937805E+04  0.15342208161E+04  0.78453056062E+02 0.  0.
        254    2    1    2    0    0 -0.33197581811E+02  0.16636001098E+03  0.71207227615E+03  0.11200587341E+04  0.84776583362E+03 0.  0.
         23    2    4    4    0    0  0.19009910267E+03  0.40245981589E+03  0.17753475875E+03  0.48777185689E+03  0.91056145110E+02 0.  0.
         23    2    4    4    0    0 -0.22329668448E+03 -0.23609980491E+03  0.53453751740E+03  0.63228687720E+03  0.91933728278E+02 0.  0.
          4    1    3    3  502    0  0.29461396486E+02 -0.16006353784E+03  0.15142409723E+04  0.15229622557E+04  0.00000000000E+00 0. -1.
         -3    1    3    3    0  502  0.37361853249E+01 -0.62964731410E+01  0.85528081251E+01  0.11258560371E+02  0.00000000000E+00 0.  1.
         13    1    5    5    0    0  0.12357295039E+03  0.23064565136E+03  0.14963592107E+03  0.30142760231E+03  0.00000000000E+00 0. -1.
        -13    1    5    5    0    0  0.66526152279E+02  0.17181416453E+03  0.27898837688E+02  0.18634425458E+03  0.00000000000E+00 0.  1.
          4    1    6    6  503    0 -0.21161974013E+02 -0.66891665903E+02  0.76430848952E+02  0.10374969293E+03  0.00000000000E+00 0. -1.
         -4    1    6    6    0  503 -0.20213471047E+03 -0.16920813900E+03  0.45810666845E+03  0.52853718427E+03  0.00000000000E+00 0.  1.
<mgrwt>
<rscale>  0 0.14319824E+04</rscale>
<asrwt>0</asrwt>
<pdfrwt beam="1">  1        2 0.37608810E+00 0.14319824E+04</pdfrwt>
<pdfrwt beam="2">  1       -1 0.32262578E-01 0.14319824E+04</pdfrwt>
<totfact> 0.37304852E+01</totfact>
</mgrwt>
</event>
<event>
12    7  0.1701638E-007  0.2110047E+04  0.7818608E-02  0.8556831E-01
          2   -1    0    0  501    0  0.00000000000E+00  0.00000000000E+00  0.29817642508E+04  0.29817642508E+04  0.00000000000E+00 0. -1.
         -1   -1    0    0    0  501 -0.00000000000E+00 -0.00000000000E+00 -0.37329390425E+03  0.37329390425E+03  0.00000000000E+00 0.  1.
         24    2    1    2    0    0 -0.71009471659E+03  0.48233093145E+03  0.10283172669E+04  0.13417811254E+04  0.77862398918E+02 0.  0.
        254    2    1    2    0    0  0.71009471659E+03 -0.48233093145E+03  0.15801530797E+04  0.20132770297E+04  0.90527510128E+03 0.  0.
         23    2    4    4    0    0  0.68060618195E+03  0.44146113863E+02  0.10837325401E+04  0.12837457322E+04  0.91396019095E+02 0.  0.
         23    2    4    4    0    0  0.29488534641E+02 -0.52647704531E+03  0.49642053960E+03  0.72953129744E+03  0.87948330820E+02 0.  0.
          4    1    3    3  502    0 -0.59000869184E+03  0.40292029941E+03  0.80773532347E+03  0.10783744141E+04  0.00000000000E+00 0. -1.
         -3    1    3    3    0  502 -0.12008602476E+03  0.79410632039E+02  0.22058194342E+03  0.26340671135E+03  0.00000000000E+00 0.  1.
         13    1    5    5    0    0  0.79328194519E+02 -0.19639807611E+02  0.16094402238E+03  0.18050391361E+03  0.00000000000E+00 0. -1.
        -13    1    5    5    0    0  0.60127798743E+03  0.63785921474E+02  0.92278851770E+03  0.11032418186E+04  0.00000000000E+00 0.  1.
          3    1    6    6  503    0  0.87247386182E+01 -0.98963411768E+02  0.50543065311E+02  0.11146514874E+03  0.00000000000E+00 0. -1.
         -3    1    6    6    0  503  0.20763796023E+02 -0.42751363354E+03  0.44587747429E+03  0.61806614870E+03  0.00000000000E+00 0.  1.
<mgrwt>
<rscale>  0 0.21100468E+04</rscale>
<asrwt>0</asrwt>
<pdfrwt beam="1">  1        2 0.45873294E+00 0.21100468E+04</pdfrwt>
<pdfrwt beam="2">  1       -1 0.57429834E-01 0.21100468E+04</pdfrwt>
<totfact> 0.57613170E+00</totfact>
</mgrwt>
</event>
<event>
12    7  0.1701638E-007  0.1527854E+04  0.7818608E-02  0.8866139E-01
         -1   -1    0    0    0  501 -0.00000000000E+00  0.00000000000E+00  0.26852583301E+03  0.26852583301E+03  0.00000000000E+00 0.  1.
          2   -1    0    0  501    0  0.00000000000E+00 -0.00000000000E+00 -0.21732902172E+04  0.21732902172E+04  0.00000000000E+00 0. -1.
         24    2    1    2    0    0  0.15632524009E+03 -0.26709753615E+03 -0.13108091266E+04  0.13491459137E+04  0.78711216596E+02 0.  0.
        254    2    1    2    0    0 -0.15632524009E+03  0.26709753615E+03 -0.59395525758E+03  0.10926701365E+04  0.86334610942E+03 0.  0.
         23    2    4    4    0    0 -0.11556196801E+03 -0.29991452889E+03 -0.28367525420E+03  0.43852617946E+03  0.92359445310E+02 0.  0.
         23    2    4    4    0    0 -0.40763272079E+02  0.56701206504E+03 -0.31028000338E+03  0.65414395702E+03  0.92012552186E+02 0.  0.
          2    1    3    3  502    0  0.59138001849E+02 -0.97122289407E+02 -0.65257623497E+03  0.66240907663E+03  0.00000000000E+00 0. -1.
         -1    1    3    3    0  502  0.97187238244E+02 -0.16997524674E+03 -0.65823289164E+03  0.68673683710E+03  0.00000000000E+00 0.  1.
         13    1    5    5    0    0  0.78834694371E+01 -0.30422315959E+02 -0.52742130597E+01  0.31866655332E+02  0.00000000000E+00 0. -1.
        -13    1    5    5    0    0 -0.12344543745E+03 -0.26949221293E+03 -0.27840104114E+03  0.40665952413E+03  0.00000000000E+00 0.  1.
          4    1    6    6  503    0  0.27479989467E+02  0.13874400825E+03 -0.62010147368E+02  0.15443544937E+03  0.00000000000E+00 0. -1.
         -4    1    6    6    0  503 -0.68243261546E+02  0.42826805679E+03 -0.24826985602E+03  0.49970850765E+03  0.00000000000E+00 0.  1.
<mgrwt>
<rscale>  0 0.15278541E+04</rscale>
<asrwt>0</asrwt>
<pdfrwt beam="1">  1        2 0.33435233E+00 0.15278541E+04</pdfrwt>
<pdfrwt beam="2">  1       -1 0.41311668E-01 0.15278541E+04</pdfrwt>
<totfact> 0.33725831E+01</totfact>
</mgrwt>
</event>
<event>
12    7  0.1701638E-007  0.1286850E+04  0.7818608E-02  0.9040058E-01
          2   -1    0    0  501    0  0.00000000000E+00  0.00000000000E+00  0.48816421916E+03  0.48816421916E+03  0.00000000000E+00 0. -1.
         -1   -1    0    0    0  501 -0.00000000000E+00 -0.00000000000E+00 -0.84806707428E+03  0.84806707428E+03  0.00000000000E+00 0.  1.
         24    2    1    2    0    0 -0.15064309757E+03  0.13962165700E+03  0.17867989441E+03  0.28034845812E+03  0.66941790786E+02 0.  0.
        254    2    1    2    0    0  0.15064309757E+03 -0.13962165700E+03 -0.53858274953E+03  0.10558828353E+04  0.88466357101E+03 0.  0.
         23    2    4    4    0    0 -0.98708949290E+02 -0.46279794618E+03 -0.36128322031E+03  0.60174534524E+03  0.87444265595E+02 0.  0.
         23    2    4    4    0    0  0.24935204686E+03  0.32317628918E+03 -0.17729952922E+03  0.45413749007E+03  0.90478614398E+02 0.  0.
          2    1    3    3  502    0 -0.14846527313E+03  0.14489573128E+03  0.17980838980E+03  0.27453190581E+03  0.00000000000E+00 0. -1.
         -1    1    3    3    0  502 -0.21778244433E+01 -0.52740742846E+01 -0.11284953854E+01  0.58165523036E+01  0.00000000000E+00 0.  1.
         13    1    5    5    0    0 -0.11039445756E+03 -0.45205612855E+03 -0.34881487610E+03  0.58156125852E+03  0.00000000000E+00 0. -1.
        -13    1    5    5    0    0  0.11685508271E+02 -0.10741817627E+02 -0.12468344207E+02  0.20184086721E+02  0.00000000000E+00 0.  1.
          3    1    6    6  503    0  0.23876390969E+03  0.29150979224E+03 -0.13503646969E+03  0.40027616927E+03  0.00000000000E+00 0. -1.
         -3    1    6    6    0  503  0.10588137170E+02  0.31666496948E+02 -0.42263059529E+02  0.53861320801E+02  0.00000000000E+00 0.  1.
<mgrwt>
<rscale>  0 0.12868504E+04</rscale>
<asrwt>0</asrwt>
<pdfrwt beam="1">  1        2 0.75102188E-01 0.12868504E+04</pdfrwt>
<pdfrwt beam="2">  1       -1 0.13047186E+00 0.12868504E+04</pdfrwt>
<totfact> 0.35709736E+01</totfact>
</mgrwt>
</event>
<event>
12    7  0.1701638E-007  0.1685084E+04  0.7818608E-02  0.8769918E-01
         -1   -1    0    0    0  501 -0.00000000000E+00  0.00000000000E+00  0.13438979456E+04  0.13438979456E+04  0.00000000000E+00 0.  1.
          2   -1    0    0  501    0  0.00000000000E+00 -0.00000000000E+00 -0.52822228821E+03  0.52822228821E+03  0.00000000000E+00 0. -1.
         24    2    1    2    0    0  0.58137972144E+03 -0.50986361548E+02  0.13159188350E+03  0.60399813002E+03  0.83038109907E+02 0.  0.
        254    2    1    2    0    0 -0.58137972144E+03  0.50986361548E+02  0.68408377385E+03  0.12681221038E+04  0.89418178846E+03 0.  0.
         23    2    4    4    0    0 -0.27130727304E+03 -0.12983506954E+03  0.81635219066E+03  0.87475739480E+03  0.91130778966E+02 0.  0.
         23    2    4    4    0    0 -0.31007244840E+03  0.18082143109E+03 -0.13226841681E+03  0.39336470895E+03  0.91649042369E+02 0.  0.
          4    1    3    3  502    0  0.12543882835E+02 -0.95976239419E+01  0.15165484314E+02  0.21896467669E+02  0.00000000000E+00 0. -1.
         -1    1    3    3    0  502  0.56883583861E+03 -0.41388737606E+02  0.11642639919E+03  0.58210166235E+03  0.00000000000E+00 0.  1.
         13    1    5    5    0    0 -0.15811384889E+03 -0.88909170268E+02  0.36441674885E+03  0.40706804912E+03  0.00000000000E+00 0. -1.
        -13    1    5    5    0    0 -0.11319342415E+03 -0.40925899271E+02  0.45193544181E+03  0.46768934568E+03  0.00000000000E+00 0.  1.
          4    1    6    6  503    0 -0.25640005482E+02  0.38550159027E+02  0.57952272098E+01  0.46659503861E+02  0.00000000000E+00 0. -1.
         -4    1    6    6    0  503 -0.28443244292E+03  0.14227127206E+03 -0.13806364402E+03  0.34670520509E+03  0.00000000000E+00 0.  1.
<mgrwt>
<rscale>  0 0.16850838E+04</rscale>
<asrwt>0</asrwt>
<pdfrwt beam="1">  1        2 0.81264968E-01 0.16850838E+04</pdfrwt>
<pdfrwt beam="2">  1       -1 0.20675353E+00 0.16850838E+04</pdfrwt>
<totfact> 0.85025475E+00</totfact>
</mgrwt>
</event>
<event>
12    7  0.1701638E-007  0.2362754E+04  0.7818608E-02  0.8453581E-01
          2   -1    0    0  501    0  0.00000000000E+00  0.00000000000E+00  0.10205749023E+04  0.10205749023E+04  0.00000000000E+00 0. -1.
         -1   -1    0    0    0  501 -0.00000000000E+00 -0.00000000000E+00 -0.13675152303E+04  0.13675152303E+04  0.00000000000E+00 0.  1.
         24    2    1    2    0    0 -0.94380337822E+03  0.28843665456E+03  0.48956873847E+02  0.99128322245E+03  0.79278819261E+02 0.  0.
        254    2    1    2    0    0  0.94380337822E+03 -0.28843665456E+03 -0.39589720187E+03  0.13968069102E+04  0.90574523429E+03 0.  0.
         23    2    4    4    0    0  0.10580217631E+04 -0.13526300180E+03 -0.47406388230E+03  0.11708041247E+04  0.91321426274E+02 0.  0.
         23    2    4    4    0    0 -0.11421838492E+03 -0.15317365276E+03  0.78166680423E+02  0.22600278551E+03  0.91974027723E+02 0.  0.
          2    1    3    3  502    0 -0.82769950563E+03  0.22917887545E+03  0.56620860799E+02  0.86070630906E+03  0.00000000000E+00 0. -1.
         -1    1    3    3    0  502 -0.11610387259E+03  0.59257779113E+02 -0.76639869511E+01  0.13057691339E+03  0.00000000000E+00 0.  1.
         13    1    5    5    0    0  0.21815201172E+03 -0.53961598675E+02 -0.12949165792E+03  0.25936507826E+03  0.00000000000E+00 0.  1.
        -13    1    5    5    0    0  0.83986975142E+03 -0.81301403123E+02 -0.34457222438E+03  0.91143904641E+03  0.00000000000E+00 0. -1.
          3    1    6    6  503    0 -0.12223761911E+03 -0.15645589400E+03  0.62589196191E+02  0.20817754387E+03  0.00000000000E+00 0. -1.
         -3    1    6    6    0  503  0.80192341903E+01  0.32822412343E+01  0.15577484232E+02  0.17825241639E+02  0.00000000000E+00 0.  1.
<mgrwt>
<rscale>  0 0.23627541E+04</rscale>
<asrwt>0</asrwt>
<pdfrwt beam="1">  1        2 0.15701152E+00 0.23627541E+04</pdfrwt>
<pdfrwt beam="2">  1       -1 0.21038696E+00 0.23627541E+04</pdfrwt>
<totfact> 0.32111924E+00</totfact>
</mgrwt>
</event>
<event>
12    7  0.1701638E-007  0.2070659E+04  0.7818608E-02  0.8574280E-01
          2   -1    0    0  501    0  0.00000000000E+00  0.00000000000E+00  0.21233049514E+04  0.21233049514E+04  0.00000000000E+00 0. -1.
         -1   -1    0    0    0  501 -0.00000000000E+00 -0.00000000000E+00 -0.50482955385E+03  0.50482955385E+03  0.00000000000E+00 0.  1.
         24    2    1    2    0    0  0.25297207745E+03  0.68979436038E+02  0.16726778467E+04  0.16949667794E+04  0.79423988117E+02 0.  0.
        254    2    1    2    0    0 -0.25297207745E+03 -0.68979436038E+02 -0.54202449185E+02  0.93316772580E+03  0.89393012278E+03 0.  0.
         23    2    4    4    0    0  0.51640934873E+02  0.36102682023E+03  0.74976865348E+02  0.38390477889E+03  0.93563870374E+02 0.  0.
         23    2    4    4    0    0 -0.30461301232E+03 -0.43000625626E+03 -0.12917931453E+03  0.54926294691E+03  0.85486968857E+02 0.  0.
          4    1    3    3  502    0  0.25434560886E+03  0.56493391709E+02  0.15622917293E+04  0.15838682519E+04  0.00000000000E+00 0. -1.
         -3    1    3    3    0  502 -0.13735314104E+01  0.12486044328E+02  0.11038611743E+03  0.11109852750E+03  0.00000000000E+00 0.  1.
         13    1    5    5    0    0  0.72210808145E+02  0.20420375735E+03  0.61542324010E+02  0.22516889877E+03  0.00000000000E+00 0. -1.
        -13    1    5    5    0    0 -0.20569873272E+02  0.15682306287E+03  0.13434541338E+02  0.15873588012E+03  0.00000000000E+00 0.  1.
          2    1    6    6  503    0 -0.27725951834E+03 -0.39941908135E+03 -0.14155165472E+03  0.50640429897E+03  0.00000000000E+00 0. -1.
         -2    1    6    6    0  503 -0.27353493985E+02 -0.30587174910E+02  0.12372340182E+02  0.42858647946E+02  0.00000000000E+00 0.  1.
<mgrwt>
<rscale>  0 0.20706589E+04</rscale>
<asrwt>0</asrwt>
<pdfrwt beam="1">  1        2 0.32666229E+00 0.20706589E+04</pdfrwt>
<pdfrwt beam="2">  1       -1 0.77666086E-01 0.20706589E+04</pdfrwt>
<totfact> 0.99599323E+00</totfact>
</mgrwt>
</event>
<event>
12    7  0.1701638E-007  0.1554289E+04  0.7818608E-02  0.8849133E-01
         -1   -1    0    0    0  501 -0.00000000000E+00  0.00000000000E+00  0.29576147476E+04  0.29576147476E+04  0.00000000000E+00 0.  1.
          2   -1    0    0  501    0  0.00000000000E+00 -0.00000000000E+00 -0.20420288718E+03  0.20420288718E+03  0.00000000000E+00 0. -1.
         24    2    1    2    0    0  0.25369898628E+02  0.39954097583E+03  0.15049526923E+04  0.15594267164E+04  0.81562580599E+02 0.  0.
        254    2    1    2    0    0 -0.25369898628E+02 -0.39954097583E+03  0.12484591681E+04  0.16023909183E+04  0.92126529174E+03 0.  0.
         23    2    4    4    0    0 -0.83402995401E+02  0.23649592392E+03  0.97979133114E+02  0.28362398777E+03  0.89197949759E+02 0.  0.
         23    2    4    4    0    0  0.58033096772E+02 -0.63603689975E+03  0.11504800349E+04  0.13187669306E+04  0.87356328990E+02 0.  0.
          2    1    3    3  502    0 -0.33287534225E+01  0.31747872659E+01  0.78963732993E+02  0.79097604273E+02  0.00000000000E+00 0. -1.
         -1    1    3    3    0  502  0.28698652051E+02  0.39636618856E+03  0.14259889593E+04  0.14803291121E+04  0.00000000000E+00 0.  1.
         13    1    5    5    0    0 -0.32987375183E+02  0.44687721822E+02 -0.12031452094E+02  0.56832343279E+02  0.00000000000E+00 0. -1.
        -13    1    5    5    0    0 -0.50415620218E+02  0.19180820210E+03  0.11001058521E+03  0.22679164449E+03  0.00000000000E+00 0.  1.
          3    1    6    6  503    0 -0.11016881826E+02 -0.17953005166E+03  0.26724038042E+03  0.32213325202E+03  0.00000000000E+00 0. -1.
         -3    1    6    6    0  503  0.69049978598E+02 -0.45650684809E+03  0.88323965453E+03  0.99663367855E+03  0.00000000000E+00 0.  1.
<mgrwt>
<rscale>  0 0.15542889E+04</rscale>
<asrwt>0</asrwt>
<pdfrwt beam="1">  1        2 0.31415831E-01 0.15542889E+04</pdfrwt>
<pdfrwt beam="2">  1       -1 0.45501762E+00 0.15542889E+04</pdfrwt>
<totfact> 0.55975782E-01</totfact>
</mgrwt>
</event>
<event>
12    7  0.1701638E-007  0.3021975E+04  0.7818608E-02  0.8237484E-01
          2   -1    0    0  501    0  0.00000000000E+00  0.00000000000E+00  0.37424865125E+04  0.37424865125E+04  0.00000000000E+00 0. -1.
         -1   -1    0    0    0  501 -0.00000000000E+00 -0.00000000000E+00 -0.61004429040E+03  0.61004429040E+03  0.00000000000E+00 0.  1.
         24    2    1    2    0    0 -0.20259855619E+03 -0.73584029974E+01  0.34435513443E+04  0.34504621130E+04  0.80886406202E+02 0.  0.
        254    2    1    2    0    0  0.20259855619E+03  0.73584029974E+01 -0.31110912225E+03  0.90206868994E+03  0.82209410310E+03 0.  0.
         23    2    4    4    0    0  0.24651536004E+03 -0.34001369359E+03 -0.69720582096E+01  0.42926115078E+03  0.88529042744E+02 0.  0.
         23    2    4    4    0    0 -0.43916803853E+02  0.34737209659E+03 -0.30413706404E+03  0.47280753915E+03  0.91932345821E+02 0.  0.
          4    1    3    3  502    0 -0.10197288194E+03  0.36741220945E+02  0.17321154433E+04  0.17355034702E+04  0.00000000000E+00 0. -1.
         -3    1    3    3    0  502 -0.10062567425E+03 -0.44099623943E+02  0.17114359010E+04  0.17149586428E+04  0.00000000000E+00 0.  1.
         13    1    5    5    0    0  0.72883847790E+02 -0.14366046304E+03 -0.37439618381E+02  0.16538473005E+03  0.00000000000E+00 0.  1.
        -13    1    5    5    0    0  0.17363151226E+03 -0.19635323055E+03  0.30467560171E+02  0.26387642073E+03  0.00000000000E+00 0. -1.
          3    1    6    6  503    0  0.44306928070E+01 -0.10794742480E+01 -0.20255479338E+02  0.20762484115E+02  0.00000000000E+00 0.  1.
         -3    1    6    6    0  503 -0.48347496660E+02  0.34845157083E+03 -0.28388158470E+03  0.45204505504E+03  0.00000000000E+00 0. -1.
<mgrwt>
<rscale>  0 0.30219745E+04</rscale>
<asrwt>0</asrwt>
<pdfrwt beam="1">  1        2 0.57576714E+00 0.30219745E+04</pdfrwt>
<pdfrwt beam="2">  1       -1 0.93852970E-01 0.30219745E+04</pdfrwt>
<totfact> 0.57920395E-01</totfact>
</mgrwt>
</event>
<event>
12    7  0.1701638E-007  0.3083734E+04  0.7818608E-02  0.8220216E-01
         -1   -1    0    0    0  501 -0.00000000000E+00  0.00000000000E+00  0.33313656464E+04  0.33313656464E+04  0.00000000000E+00 0.  1.
          2   -1    0    0  501    0  0.00000000000E+00 -0.00000000000E+00 -0.71362747474E+03  0.71362747474E+03  0.00000000000E+00 0. -1.
         24    2    1    2    0    0  0.13673008729E+04  0.18029106594E+02  0.79085631492E+03  0.15817615776E+04  0.81726690071E+02 0.  0.
        254    2    1    2    0    0 -0.13673008729E+04 -0.18029106594E+02  0.18268818567E+04  0.24632315435E+04  0.92745651808E+03 0.  0.
         23    2    4    4    0    0 -0.91391140760E+03 -0.44241974393E+03  0.12211474510E+04  0.15907771038E+04  0.91659183893E+02 0.  0.
         23    2    4    4    0    0 -0.45338946527E+03  0.42439063734E+03  0.60573440572E+03  0.87245443976E+03  0.92699292930E+02 0.  0.
          4    1    3    3  502    0  0.11673428580E+04  0.42419113719E+02  0.66255534987E+03  0.13429327314E+04  0.00000000000E+00 0. -1.
         -3    1    3    3    0  502  0.19995801488E+03 -0.24390007124E+02  0.12830096506E+03  0.23882884624E+03  0.00000000000E+00 0.  1.
         13    1    5    5    0    0 -0.52565965147E+03 -0.20562823470E+03  0.69492466242E+03  0.89527723446E+03  0.00000000000E+00 0.  1.
        -13    1    5    5    0    0 -0.38825175613E+03 -0.23679150923E+03  0.52622278860E+03  0.69549986932E+03  0.00000000000E+00 0. -1.
          3    1    6    6  503    0 -0.25262625700E+03  0.19072052853E+03  0.35157358242E+03  0.47307328141E+03  0.00000000000E+00 0. -1.
         -3    1    6    6    0  503 -0.20076320827E+03  0.23367010881E+03  0.25416082330E+03  0.39938115835E+03  0.00000000000E+00 0.  1.
<mgrwt>
<rscale>  0 0.30837341E+04</rscale>
<asrwt>0</asrwt>
<pdfrwt beam="1">  1        2 0.10978884E+00 0.30837341E+04</pdfrwt>
<pdfrwt beam="2">  1       -1 0.51251779E+00 0.30837341E+04</pdfrwt>
<totfact> 0.47917400E-02</totfact>
</mgrwt>
</event>
<event>
12    7  0.1701638E-007  0.1948058E+04  0.7818608E-02  0.8631298E-01
          2   -1    0    0  501    0  0.00000000000E+00  0.00000000000E+00  0.10712320660E+04  0.10712320660E+04  0.00000000000E+00 0. -1.
         -1   -1    0    0    0  501 -0.00000000000E+00 -0.00000000000E+00 -0.88564585873E+03  0.88564585873E+03  0.00000000000E+00 0.  1.
         24    2    1    2    0    0  0.22730423661E+03 -0.67200554318E+03  0.35302579933E+03  0.79623390231E+03  0.78118795087E+02 0.  0.
        254    2    1    2    0    0 -0.22730423661E+03  0.67200554318E+03 -0.16743959208E+03  0.11606440224E+04  0.90321639912E+03 0.  0.
         23    2    4    4    0    0 -0.29823403867E+03  0.57019358912E+03 -0.48280332889E+03  0.80954627301E+03  0.90564026270E+02 0.  0.
         23    2    4    4    0    0  0.70929802057E+02  0.10181195406E+03  0.31536373681E+03  0.35109774938E+03  0.91753105206E+02 0.  0.
          4    1    3    3  502    0  0.20899328424E+03 -0.60732789903E+03  0.29237737848E+03  0.70569816582E+03  0.00000000000E+00 0. -1.
         -3    1    3    3    0  502  0.18310952379E+02 -0.64677644155E+02  0.60648420853E+02  0.90535736493E+02  0.00000000000E+00 0.  1.
         13    1    5    5    0    0 -0.17510283328E+02  0.10327516470E+03 -0.86418329066E+02  0.13579579251E+03  0.00000000000E+00 0. -1.
        -13    1    5    5    0    0 -0.28072375534E+03  0.46691842442E+03 -0.39638499983E+03  0.67375048049E+03  0.00000000000E+00 0.  1.
          3    1    6    6  503    0  0.18005250139E+02 -0.12910905306E+02  0.20002715584E+02  0.29849441187E+02  0.00000000000E+00 0. -1.
         -3    1    6    6    0  503  0.52924551918E+02  0.11472285937E+03  0.29536102122E+03  0.32124830819E+03  0.00000000000E+00 0.  1.
<mgrwt>
<rscale>  0 0.19480577E+04</rscale>
<asrwt>0</asrwt>
<pdfrwt beam="1">  1        2 0.16480493E+00 0.19480577E+04</pdfrwt>
<pdfrwt beam="2">  1       -1 0.13625321E+00 0.19480577E+04</pdfrwt>
<totfact> 0.10867003E+01</totfact>
</mgrwt>
</event>
<event>
12    7  0.1701638E-007  0.1398085E+04  0.7818608E-02  0.8955206E-01
          2   -1    0    0  501    0  0.00000000000E+00  0.00000000000E+00  0.11847737583E+04  0.11847737583E+04  0.00000000000E+00 0. -1.
         -1   -1    0    0    0  501 -0.00000000000E+00 -0.00000000000E+00 -0.41245032823E+03  0.41245032823E+03  0.00000000000E+00 0.  1.
         24    2    1    2    0    0 -0.20003211617E+03  0.30397885866E+03  0.42843396644E+03  0.56774819533E+03  0.79789445977E+02 0.  0.
        254    2    1    2    0    0  0.20003211617E+03 -0.30397885866E+03  0.34388946364E+03  0.10294758912E+04  0.89952468190E+03 0.  0.
         23    2    4    4    0    0  0.10703159454E+03 -0.48737425077E+03  0.53199553777E+03  0.73559841968E+03  0.95374840944E+02 0.  0.
         23    2    4    4    0    0  0.93000521629E+02  0.18339539211E+03 -0.18810607413E+03  0.29387747152E+03  0.93258277244E+02 0.  0.
          4    1    3    3  502    0 -0.20564777383E+03  0.29501325321E+03  0.40255852175E+03  0.53979365492E+03  0.00000000000E+00 0. -1.
         -3    1    3    3    0  502  0.56156576603E+01  0.89656054486E+01  0.25875444685E+02  0.27954540413E+02  0.00000000000E+00 0.  1.
         13    1    5    5    0    0  0.42444580170E+02 -0.81582773739E+02  0.60005624065E+02  0.10980877140E+03  0.00000000000E+00 0.  1.
        -13    1    5    5    0    0  0.64587014369E+02 -0.40579147703E+03  0.47198991371E+03  0.62578964828E+03  0.00000000000E+00 0. -1.
          3    1    6    6  503    0  0.10594802362E+03  0.13134018442E+03 -0.11942234222E+03  0.20672910674E+03  0.00000000000E+00 0. -1.
         -3    1    6    6    0  503 -0.12947501991E+02  0.52055207687E+02 -0.68683731906E+02  0.87148364779E+02  0.00000000000E+00 0.  1.
<mgrwt>
<rscale>  0 0.13980849E+04</rscale>
<asrwt>0</asrwt>
<pdfrwt beam="1">  1        2 0.18227288E+00 0.13980849E+04</pdfrwt>
<pdfrwt beam="2">  1       -1 0.63453897E-01 0.13980849E+04</pdfrwt>
<totfact> 0.54083492E+01</totfact>
</mgrwt>
</event>
<event>
12    7  0.1701638E-007  0.1344751E+04  0.7818608E-02  0.8994811E-01
          2   -1    0    0  501    0  0.00000000000E+00  0.00000000000E+00  0.79375555768E+03  0.79375555768E+03  0.00000000000E+00 0. -1.
         -1   -1    0    0    0  501 -0.00000000000E+00 -0.00000000000E+00 -0.56955641293E+03  0.56955641293E+03  0.00000000000E+00 0.  1.
         24    2    1    2    0    0 -0.60192423482E+02  0.10017836395E+03 -0.28885003953E+03  0.32151607149E+03  0.79242705915E+02 0.  0.
        254    2    1    2    0    0  0.60192423482E+02 -0.10017836395E+03  0.51304918427E+03  0.10417958991E+04  0.89914425844E+03 0.  0.
         23    2    4    4    0    0  0.21854503269E+03  0.17139701204E+03  0.62906540701E+03  0.69410114797E+03  0.94415307342E+02 0.  0.
         23    2    4    4    0    0 -0.15835260921E+03 -0.27157537599E+03 -0.11601622273E+03  0.34769475116E+03  0.92753125854E+02 0.  0.
          2    1    3    3  502    0 -0.72268129114E+01  0.39360089032E+00  0.35427588019E+01  0.80580944674E+01  0.00000000000E+00 0. -1.
         -1    1    3    3    0  502 -0.52965610571E+02  0.99784763058E+02 -0.29239279833E+03  0.31345797702E+03  0.00000000000E+00 0.  1.
         13    1    5    5    0    0  0.17194202039E+03  0.84298221641E+02  0.46041480127E+03  0.49865021586E+03  0.00000000000E+00 0. -1.
        -13    1    5    5    0    0  0.46603012298E+02  0.87098790402E+02  0.16865060574E+03  0.19545093210E+03  0.00000000000E+00 0.  1.
          3    1    6    6  503    0 -0.91759437571E+02 -0.20238414894E+03 -0.41297437399E+02  0.22601906216E+03  0.00000000000E+00 0. -1.
         -3    1    6    6    0  503 -0.66593171639E+02 -0.69191227051E+02 -0.74718785336E+02  0.12167568899E+03  0.00000000000E+00 0.  1.
<mgrwt>
<rscale>  0 0.13447506E+04</rscale>
<asrwt>0</asrwt>
<pdfrwt beam="1">  1        2 0.12211624E+00 0.13447506E+04</pdfrwt>
<pdfrwt beam="2">  1       -1 0.87624064E-01 0.13447506E+04</pdfrwt>
<totfact> 0.49774147E+01</totfact>
</mgrwt>
</event>
<event>
12    7  0.1701638E-007  0.1480642E+04  0.7818608E-02  0.8897428E-01
          2   -1    0    0  501    0  0.00000000000E+00  0.00000000000E+00  0.35412883166E+04  0.35412883166E+04  0.00000000000E+00 0. -1.
         -1   -1    0    0    0  501 -0.00000000000E+00 -0.00000000000E+00 -0.15476727786E+03  0.15476727786E+03  0.00000000000E+00 0.  1.
         24    2    1    2    0    0 -0.30662111914E+03 -0.26801930833E+03  0.12053075361E+04  0.12753227159E+04  0.88492445013E+02 0.  0.
        254    2    1    2    0    0  0.30662111914E+03  0.26801930833E+03  0.21812135027E+04  0.24207328786E+04  0.96767993923E+03 0.  0.
         23    2    4    4    0    0  0.74944212663E+02  0.39397746965E+03  0.20843109855E+04  0.21244856872E+04  0.90842000380E+02 0.  0.
         23    2    4    4    0    0  0.23167690648E+03 -0.12595816132E+03  0.96902517112E+02  0.29624719136E+03  0.93982196014E+02 0.  0.
          4    1    3    3  502    0 -0.15841563573E+03 -0.13356848197E+03  0.74760437499E+03  0.77578885950E+03  0.00000000000E+00 0. -1.
         -3    1    3    3    0  502 -0.14820548341E+03 -0.13445082636E+03  0.45770316112E+03  0.49953385643E+03  0.00000000000E+00 0.  1.
         13    1    5    5    0    0  0.31457682979E+02  0.34049738049E+03  0.17019400315E+04  0.17359515900E+04  0.00000000000E+00 0. -1.
        -13    1    5    5    0    0  0.43486529684E+02  0.53480089158E+02  0.38237095402E+03  0.38853409719E+03  0.00000000000E+00 0.  1.
          3    1    6    6  503    0  0.19912988774E+03 -0.84198474810E+02  0.10872474380E+03  0.24199827533E+03  0.00000000000E+00 0. -1.
         -3    1    6    6    0  503  0.32547018741E+02 -0.41759686507E+02 -0.11822226686E+02  0.54248916025E+02  0.00000000000E+00 0.  1.
<mgrwt>
<rscale>  0 0.14806425E+04</rscale>
<asrwt>0</asrwt>
<pdfrwt beam="1">  1        2 0.54481352E+00 0.14806425E+04</pdfrwt>
<pdfrwt beam="2">  1       -1 0.23810353E-01 0.14806425E+04</pdfrwt>
<totfact> 0.12955437E+01</totfact>
</mgrwt>
</event>
<event>
12    7  0.1701638E-007  0.1564700E+04  0.7818608E-02  0.8842533E-01
          2   -1    0    0  501    0  0.00000000000E+00  0.00000000000E+00  0.29642732177E+04  0.29642732177E+04  0.00000000000E+00 0. -1.
         -1   -1    0    0    0  501 -0.00000000000E+00 -0.00000000000E+00 -0.20648275101E+03  0.20648275101E+03  0.00000000000E+00 0.  1.
         24    2    1    2    0    0 -0.36657783928E+03  0.36356892617E+03  0.85578577285E+03  0.10021894445E+04  0.73842516663E+02 0.  0.
        254    2    1    2    0    0  0.36657783928E+03 -0.36356892617E+03  0.19020046938E+04  0.21685665242E+04  0.90470837199E+03 0.  0.
         23    2    4    4    0    0  0.20584657316E+03 -0.20718485368E+03  0.60812669965E+02  0.31148170730E+03  0.89578445391E+02 0.  0.
         23    2    4    4    0    0  0.16073126612E+03 -0.15638407249E+03  0.18411920239E+04  0.18570848169E+04  0.92116396542E+02 0.  0.
          2    1    3    3  502    0 -0.23747183024E+00 -0.31707515323E+01  0.49035133778E+01  0.58441852807E+01  0.00000000000E+00 0. -1.
         -1    1    3    3    0  502 -0.36634036745E+03  0.36673967771E+03  0.85088225947E+03  0.99634525919E+03  0.00000000000E+00 0.  1.
         13    1    5    5    0    0  0.49920074650E+02 -0.83062415144E+02 -0.15369040931E+02  0.98120263359E+02  0.00000000000E+00 0. -1.
        -13    1    5    5    0    0  0.15592649851E+03 -0.12412243853E+03  0.76181710896E+02  0.21336144394E+03  0.00000000000E+00 0.  1.
          3    1    6    6  503    0  0.13429008223E+03 -0.77204497295E+02  0.13489509654E+04  0.13578155499E+04  0.00000000000E+00 0. -1.
         -3    1    6    6    0  503  0.26441183893E+02 -0.79179575200E+02  0.49224105844E+03  0.49926926698E+03  0.00000000000E+00 0.  1.
<mgrwt>
<rscale>  0 0.15646997E+04</rscale>
<asrwt>0</asrwt>
<pdfrwt beam="1">  1        2 0.45604200E+00 0.15646997E+04</pdfrwt>
<pdfrwt beam="2">  1       -1 0.31766579E-01 0.15646997E+04</pdfrwt>
<totfact> 0.18624596E+01</totfact>
</mgrwt>
</event>
<event>
12    7  0.1701638E-007  0.2803009E+04  0.7818608E-02  0.8302335E-01
          2   -1    0    0  501    0  0.00000000000E+00  0.00000000000E+00  0.17511118652E+04  0.17511118652E+04  0.00000000000E+00 0. -1.
         -1   -1    0    0    0  501 -0.00000000000E+00 -0.00000000000E+00 -0.11216957493E+04  0.11216957493E+04  0.00000000000E+00 0.  1.
         24    2    1    2    0    0  0.36769736207E+03 -0.23803485802E+03  0.14684066050E+04  0.15339415270E+04  0.69976474355E+02 0.  0.
        254    2    1    2    0    0 -0.36769736207E+03  0.23803485802E+03 -0.83899048919E+03  0.13388660875E+04  0.94699282758E+03 0.  0.
         23    2    4    4    0    0 -0.42979547157E+03 -0.24808261415E+03 -0.23721362340E+03  0.55688229417E+03  0.87054325619E+02 0.  0.
         23    2    4    4    0    0  0.62098109500E+02  0.48611747217E+03 -0.60177686579E+03  0.78198379329E+03  0.95900390113E+02 0.  0.
          4    1    3    3  502    0  0.30221207865E+03 -0.16353573543E+03  0.11756371063E+04  0.12248259807E+04  0.00000000000E+00 0. -1.
         -3    1    3    3    0  502  0.65485283418E+02 -0.74499122587E+02  0.29276949877E+03  0.30911554639E+03  0.00000000000E+00 0.  1.
         13    1    5    5    0    0 -0.59950445552E+02 -0.14753447036E+02 -0.54849809394E+01  0.61982296966E+02  0.00000000000E+00 0. -1.
        -13    1    5    5    0    0 -0.36984502601E+03 -0.23332916711E+03 -0.23172864246E+03  0.49489999720E+03  0.00000000000E+00 0.  1.
          4    1    6    6  503    0 -0.26984972071E+01  0.32392271562E+01  0.31448583314E+01  0.52597161207E+01  0.00000000000E+00 0. -1.
         -4    1    6    6    0  503  0.64796606707E+02  0.48287824501E+03 -0.60492172412E+03  0.77672407717E+03  0.00000000000E+00 0.  1.
<mgrwt>
<rscale>  0 0.28030089E+04</rscale>
<asrwt>0</asrwt>
<pdfrwt beam="1">  1        2 0.26940183E+00 0.28030089E+04</pdfrwt>
<pdfrwt beam="2">  1       -1 0.17256858E+00 0.28030089E+04</pdfrwt>
<totfact> 0.21430738E+00</totfact>
</mgrwt>
</event>
<event>
12    7  0.1701638E-007  0.1882277E+04  0.7818608E-02  0.8663729E-01
          2   -1    0    0  501    0  0.00000000000E+00  0.00000000000E+00  0.15246372050E+04  0.15246372050E+04  0.00000000000E+00 0. -1.
         -3   -1    0    0    0  501 -0.00000000000E+00 -0.00000000000E+00 -0.58095222431E+03  0.58095222431E+03  0.00000000000E+00 0.  1.
         24    2    1    2    0    0 -0.26986662507E+03  0.16677269611E+03  0.10748675502E+04  0.11234972789E+04  0.79150223381E+02 0.  0.
        254    2    1    2    0    0  0.26986662507E+03 -0.16677269611E+03 -0.13118256951E+03  0.98209215034E+03  0.92013857528E+03 0.  0.
         23    2    4    4    0    0 -0.18948999117E+03 -0.32057960250E+03 -0.27085893754E+03  0.46938099560E+03  0.90973714272E+02 0.  0.
         23    2    4    4    0    0  0.45935661625E+03  0.15380690639E+03  0.13967636803E+03  0.51271115474E+03  0.93264007341E+02 0.  0.
          4    1    3    3  502    0 -0.22277863161E+03  0.16833973633E+03  0.94262884202E+03  0.98311633053E+03  0.00000000000E+00 0. -1.
         -3    1    3    3    0  502 -0.47087993462E+02 -0.15670402168E+01  0.13223870814E+03  0.14038094840E+03  0.00000000000E+00 0.  1.
         13    1    5    5    0    0 -0.17961246061E+03 -0.32544024185E+03 -0.26717898139E+03  0.45777351946E+03  0.00000000000E+00 0. -1.
        -13    1    5    5    0    0 -0.98775305663E+01  0.48606393537E+01 -0.36799561550E+01  0.11607476139E+02  0.00000000000E+00 0.  1.
          2    1    6    6  503    0  0.27923266840E+03  0.12219120527E+03  0.12436663708E+03  0.32919391574E+03  0.00000000000E+00 0. -1.
         -2    1    6    6    0  503  0.18012394785E+03  0.31615701119E+02  0.15309730952E+02  0.18351723900E+03  0.00000000000E+00 0.  1.
<mgrwt>
<rscale>  0 0.18822767E+04</rscale>
<asrwt>0</asrwt>
<pdfrwt beam="1">  1        2 0.23455957E+00 0.18822767E+04</pdfrwt>
<pdfrwt beam="2">  1       -3 0.89377266E-01 0.18822767E+04</pdfrwt>
<totfact> 0.83185074E+00</totfact>
</mgrwt>
</event>
<event>
12    7  0.1701638E-007  0.3312454E+04  0.7818608E-02  0.8159734E-01
          2   -1    0    0  501    0  0.00000000000E+00  0.00000000000E+00  0.34555227733E+04  0.34555227733E+04  0.00000000000E+00 0. -1.
         -1   -1    0    0    0  501 -0.00000000000E+00 -0.00000000000E+00 -0.79382720636E+03  0.79382720636E+03  0.00000000000E+00 0.  1.
         24    2    1    2    0    0  0.44899221160E+03 -0.83560983644E+03 -0.31204682886E+03  0.10016870344E+04  0.78523160160E+02 0.  0.
        254    2    1    2    0    0 -0.44899221160E+03  0.83560983644E+03  0.29737423958E+04  0.32476629453E+04  0.89684612090E+03 0.  0.
         23    2    4    4    0    0 -0.96717181572E+00  0.36135218434E+03  0.22008826850E+04  0.22319393608E+04  0.84216272997E+02 0.  0.
         23    2    4    4    0    0 -0.44802503978E+03  0.47425765210E+03  0.77285971081E+03  0.10157235845E+04  0.93463953384E+02 0.  0.
          2    1    3    3  502    0  0.24129757360E+02 -0.18717610938E+02 -0.16105368485E+02  0.34525020543E+02  0.00000000000E+00 0. -1.
         -1    1    3    3    0  502  0.42486245424E+03 -0.81689222550E+03 -0.29594146037E+03  0.96716201387E+03  0.00000000000E+00 0.  1.
         13    1    5    5    0    0 -0.20164048856E+02  0.18971524392E+02  0.13817005520E+03  0.14091654181E+03  0.00000000000E+00 0.  1.
        -13    1    5    5    0    0  0.19196877041E+02  0.34238065995E+03  0.20627126298E+04  0.20910228190E+04  0.00000000000E+00 0. -1.
          3    1    6    6  503    0  0.17291937005E+00 -0.27944649768E+01  0.10702086611E+02  0.11062259871E+02  0.00000000000E+00 0.  1.
         -3    1    6    6    0  503 -0.44819795915E+03  0.47705211708E+03  0.76215762420E+03  0.10046613246E+04  0.00000000000E+00 0. -1.
<mgrwt>
<rscale>  0 0.33124541E+04</rscale>
<asrwt>0</asrwt>
<pdfrwt beam="1">  1        2 0.53161888E+00 0.33124541E+04</pdfrwt>
<pdfrwt beam="2">  1       -1 0.12212726E+00 0.33124541E+04</pdfrwt>
<totfact> 0.48971838E-01</totfact>
</mgrwt>
</event>
<event>
12    7  0.1701638E-007  0.1248977E+04  0.7818608E-02  0.9071035E-01
          2   -1    0    0  501    0  0.00000000000E+00  0.00000000000E+00  0.71647648638E+03  0.71647648638E+03  0.00000000000E+00 0. -1.
         -1   -1    0    0    0  501 -0.00000000000E+00 -0.00000000000E+00 -0.54431062657E+03  0.54431062657E+03  0.00000000000E+00 0.  1.
         24    2    1    2    0    0  0.33887873796E+02 -0.14241830331E+03  0.29699324151E+03  0.34195780857E+03  0.85432992642E+02 0.  0.
        254    2    1    2    0    0 -0.33887873796E+02  0.14241830331E+03 -0.12482738170E+03  0.91882930439E+03  0.89846204943E+03 0.  0.
         23    2    4    4    0    0 -0.20700211963E+03  0.37749798828E+03  0.19221967319E+03  0.47995645885E+03  0.89750715592E+02 0.  0.
         23    2    4    4    0    0  0.17311424583E+03 -0.23507968497E+03 -0.31704705489E+03  0.43887284553E+03  0.82822334766E+02 0.  0.
          4    1    3    3  502    0  0.35927444106E+02 -0.12599400177E+03  0.29784305796E+03  0.32538555115E+03  0.00000000000E+00 0. -1.
         -3    1    3    3    0  502 -0.20395703107E+01 -0.16424301536E+02 -0.84981644917E+00  0.16572257420E+02  0.00000000000E+00 0.  1.
         13    1    5    5    0    0 -0.12175666467E+03  0.28676036238E+03  0.16492460329E+03  0.35250009305E+03  0.00000000000E+00 0. -1.
        -13    1    5    5    0    0 -0.85245454961E+02  0.90737625893E+02  0.27295069897E+02  0.12745636581E+03  0.00000000000E+00 0.  1.
          3    1    6    6  503    0  0.10150373867E+03 -0.16009168703E+03 -0.14771537199E+03  0.24031684989E+03  0.00000000000E+00 0.  1.
         -3    1    6    6    0  503  0.71610507166E+02 -0.74987997940E+02 -0.16933168290E+03  0.19855599564E+03  0.00000000000E+00 0. -1.
<mgrwt>
<rscale>  0 0.12489768E+04</rscale>
<asrwt>0</asrwt>
<pdfrwt beam="1">  1        2 0.11022715E+00 0.12489768E+04</pdfrwt>
<pdfrwt beam="2">  1       -1 0.83740096E-01 0.12489768E+04</pdfrwt>
<totfact> 0.63218307E+01</totfact>
</mgrwt>
</event>
<event>
12    7  0.1701638E-007  0.1290378E+04  0.7818608E-02  0.9037230E-01
          2   -1    0    0  501    0  0.00000000000E+00  0.00000000000E+00  0.18928757864E+04  0.18928757864E+04  0.00000000000E+00 0. -1.
         -1   -1    0    0    0  501 -0.00000000000E+00 -0.00000000000E+00 -0.21991348920E+03  0.21991348920E+03  0.00000000000E+00 0.  1.
         24    2    1    2    0    0 -0.15564409155E+02  0.31160296207E+03  0.57205729640E+03  0.65637804818E+03  0.79018573534E+02 0.  0.
        254    2    1    2    0    0  0.15564409155E+02 -0.31160296207E+03  0.11009050008E+04  0.14564112275E+04  0.90100121299E+03 0.  0.
         23    2    4    4    0    0  0.11477583995E+03 -0.34861854628E+03  0.32928508183E+02  0.37946913894E+03  0.90576798987E+02 0.  0.
         23    2    4    4    0    0 -0.99211430799E+02  0.37015584202E+02  0.10679764927E+04  0.10769420885E+04  0.89540000475E+02 0.  0.
          4    1    3    3  502    0 -0.11795377401E+01  0.30015220585E+03  0.55653324395E+03  0.63231478681E+03  0.00000000000E+00 0. -1.
         -3    1    3    3    0  502 -0.14384871415E+02  0.11450756222E+02  0.15524052448E+02  0.24063261377E+02  0.00000000000E+00 0.  1.
         13    1    5    5    0    0  0.10164829516E+02 -0.17464682313E+03  0.19457986405E+02  0.17602116300E+03  0.00000000000E+00 0.  1.
        -13    1    5    5    0    0  0.10461101044E+03 -0.17397172315E+03  0.13470521778E+02  0.20344797595E+03  0.00000000000E+00 0. -1.
          1    1    6    6  503    0 -0.96436292634E+02  0.38012694796E+02  0.59536816226E+03  0.60432455860E+03  0.00000000000E+00 0. -1.
         -1    1    6    6    0  503 -0.27751381651E+01 -0.99711059370E+00  0.47260833040E+03  0.47261752992E+03  0.00000000000E+00 0.  1.
<mgrwt>
<rscale>  0 0.12903781E+04</rscale>
<asrwt>0</asrwt>
<pdfrwt beam="1">  1        2 0.29121165E+00 0.12903781E+04</pdfrwt>
<pdfrwt beam="2">  1       -1 0.33832846E-01 0.12903781E+04</pdfrwt>
<totfact> 0.70631703E+01</totfact>
</mgrwt>
</event>
<event>
12    7  0.2100733E-007  0.2027286E+04  0.7818608E-02  0.8593969E-01
          2   -1    0    0  501    0  0.00000000000E+00  0.00000000000E+00  0.80675735912E+03  0.80675735912E+03  0.00000000000E+00 0. -1.
         -1   -1    0    0    0  501 -0.00000000000E+00 -0.00000000000E+00 -0.12735822177E+04  0.12735822177E+04  0.00000000000E+00 0.  1.
         24    2    1    2    0    0  0.63978861292E+02  0.35843113779E+03  0.55688782367E+03  0.67012833564E+03  0.79885936540E+02 0.  0.
        254    2    1    2    0    0 -0.63978861292E+02 -0.35843113779E+03 -0.10237126823E+04  0.14102112412E+04  0.89896713719E+03 0.  0.
         23    2    4    4    0    0 -0.54512172326E+02 -0.44429224020E+03 -0.11484486973E+04  0.12359335765E+04  0.90720580442E+02 0.  0.
         23    2    4    4    0    0 -0.94666889658E+01  0.85861102417E+02  0.12473601499E+03  0.17427766467E+03  0.85743127193E+02 0.  0.
          2    1    3    3  502    0  0.80938275304E+02  0.31702042002E+03  0.50344422967E+03  0.60042405307E+03  0.00000000000E+00 0. -1.
         -1    1    3    3    0  502 -0.16959414012E+02  0.41410717765E+02  0.53443593993E+02  0.69704282568E+02  0.00000000000E+00 0.  1.
         13    1    5    5    0    0 -0.44332754701E+02 -0.78992663433E+02 -0.20185976142E+03  0.22125233851E+03  0.00000000000E+00 0. -1.
        -13    1    5    5    0    0 -0.10179417626E+02 -0.36529957677E+03 -0.94658893586E+03  0.10146812380E+04  0.00000000000E+00 0.  1.
          1    1    6    6  503    0  0.23783453373E+02  0.34185701670E+02  0.80720888554E+01  0.42420201219E+02  0.00000000000E+00 0. -1.
         -1    1    6    6    0  503 -0.33250142339E+02  0.51675400747E+02  0.11666392613E+03  0.13185746345E+03  0.00000000000E+00 0.  1.
<mgrwt>
<rscale>  0 0.20272857E+04</rscale>
<asrwt>0</asrwt>
<pdfrwt beam="1">  1        2 0.12411652E+00 0.20272857E+04</pdfrwt>
<pdfrwt beam="2">  1       -1 0.19593573E+00 0.20272857E+04</pdfrwt>
<totfact> 0.57861285E+00</totfact>
</mgrwt>
</event>
<event>
12    7  0.1701638E-007  0.1123434E+04  0.7818608E-02  0.9182648E-01
         -1   -1    0    0    0  501 -0.00000000000E+00  0.00000000000E+00  0.34006752413E+03  0.34006752413E+03  0.00000000000E+00 0.  1.
          2   -1    0    0  501    0  0.00000000000E+00 -0.00000000000E+00 -0.92783306301E+03  0.92783306301E+03  0.00000000000E+00 0. -1.
         24    2    1    2    0    0 -0.15110400472E+03  0.69764591642E+02 -0.13812776757E+02  0.18516506663E+03  0.79973686964E+02 0.  0.
        254    2    1    2    0    0  0.15110400472E+03 -0.69764591642E+02 -0.57395276213E+03  0.10827355205E+04  0.90288145165E+03 0.  0.
         23    2    4    4    0    0 -0.33088048605E+03 -0.21142909243E+03 -0.30463016304E+03  0.50469143647E+03  0.87919011859E+02 0.  0.
         23    2    4    4    0    0  0.48198449077E+03  0.14166450078E+03 -0.26932259909E+03  0.57804408404E+03  0.96033434729E+02 0.  0.
          2    1    3    3  502    0 -0.14990531720E+03  0.80796083512E+02 -0.21530835959E+02  0.17164844343E+03  0.00000000000E+00 0. -1.
         -1    1    3    3    0  502 -0.11986875218E+01 -0.11031491870E+02  0.77180592026E+01  0.13516623192E+02  0.00000000000E+00 0.  1.
         13    1    5    5    0    0 -0.29337579220E+03 -0.17443692127E+03 -0.22358068744E+03  0.40802686033E+03  0.00000000000E+00 0. -1.
        -13    1    5    5    0    0 -0.37504693849E+02 -0.36992171157E+02 -0.81049475595E+02  0.96664576147E+02  0.00000000000E+00 0.  1.
          3    1    6    6  503    0  0.43574672961E+03  0.12885134165E+03 -0.27269776448E+03  0.52994523430E+03  0.00000000000E+00 0. -1.
         -3    1    6    6    0  503  0.46237761162E+02  0.12813159137E+02  0.33751653917E+01  0.48098849734E+02  0.00000000000E+00 0.  1.
<mgrwt>
<rscale>  0 0.11234338E+04</rscale>
<asrwt>0</asrwt>
<pdfrwt beam="1">  1        2 0.14274354E+00 0.11234338E+04</pdfrwt>
<pdfrwt beam="2">  1       -1 0.52318082E-01 0.11234338E+04</pdfrwt>
<totfact> 0.11688493E+02</totfact>
</mgrwt>
</event>
<event>
12    7  0.1701638E-007  0.2257356E+04  0.7818608E-02  0.8494927E-01
          2   -1    0    0  501    0  0.00000000000E+00  0.00000000000E+00  0.19346989913E+04  0.19346989913E+04  0.00000000000E+00 0. -1.
         -1   -1    0    0    0  501 -0.00000000000E+00 -0.00000000000E+00 -0.65845584846E+03  0.65845584846E+03  0.00000000000E+00 0.  1.
         24    2    1    2    0    0  0.59224494829E+03  0.31855619288E+03  0.13049343983E+04  0.14694025658E+04  0.63702351020E+02 0.  0.
        254    2    1    2    0    0 -0.59224494829E+03 -0.31855619288E+03 -0.28691255445E+02  0.11237522740E+04  0.89986880070E+03 0.  0.
         23    2    4    4    0    0  0.53094421444E+02 -0.28313736295E+03 -0.29131208800E+03  0.42020733192E+03  0.93411376674E+02 0.  0.
         23    2    4    4    0    0 -0.64533936974E+03 -0.35418829925E+02  0.26262083255E+03  0.70354494212E+03  0.91040585726E+02 0.  0.
          4    1    3    3  502    0  0.41310558976E+03  0.24676923111E+03  0.97162908394E+03  0.10842575148E+04  0.00000000000E+00 0. -1.
         -3    1    3    3    0  502  0.17913935853E+03  0.71786961772E+02  0.33330531439E+03  0.38514505093E+03  0.00000000000E+00 0.  1.
         13    1    5    5    0    0  0.16044356071E+01 -0.93623616228E+02 -0.15522117876E+03  0.18127760497E+03  0.00000000000E+00 0.  1.
        -13    1    5    5    0    0  0.51489985837E+02 -0.18951374673E+03 -0.13609090924E+03  0.23892972695E+03  0.00000000000E+00 0. -1.
          3    1    6    6  503    0 -0.10538326602E+03  0.24258207189E+02  0.27358144622E+02  0.11154623010E+03  0.00000000000E+00 0. -1.
         -3    1    6    6    0  503 -0.53995610372E+03 -0.59677037114E+02  0.23526268793E+03  0.59199871202E+03  0.00000000000E+00 0.  1.
<mgrwt>
<rscale>  0 0.22573559E+04</rscale>
<asrwt>0</asrwt>
<pdfrwt beam="1">  1        2 0.29764600E+00 0.22573559E+04</pdfrwt>
<pdfrwt beam="2">  1       -1 0.10130090E+00 0.22573559E+04</pdfrwt>
<totfact> 0.69590974E+00</totfact>
</mgrwt>
</event>
<event>
12    7  0.1701638E-007  0.2192221E+04  0.7818608E-02  0.8521673E-01
         -1   -1    0    0    0  501 -0.00000000000E+00  0.00000000000E+00  0.51392195800E+03  0.51392195800E+03  0.00000000000E+00 0.  1.
          2   -1    0    0  501    0  0.00000000000E+00 -0.00000000000E+00 -0.23378222586E+04  0.23378222586E+04  0.00000000000E+00 0. -1.
         24    2    1    2    0    0  0.16119418316E+03  0.48599566501E+03 -0.17360270885E+04  0.18116893154E+04  0.79074474093E+02 0.  0.
        254    2    1    2    0    0 -0.16119418316E+03 -0.48599566501E+03 -0.87873212130E+02  0.10400549012E+04  0.90100895947E+03 0.  0.
         23    2    4    4    0    0  0.21658998290E+03 -0.96432493503E+02 -0.34759755150E+03  0.43097056448E+03  0.93279811001E+02 0.  0.
         23    2    4    4    0    0 -0.37778416607E+03 -0.38956317150E+03  0.25972433937E+03  0.60908433674E+03  0.95113911095E+02 0.  0.
          4    1    3    3  502    0  0.10940501425E+03  0.39129409576E+03 -0.12739059495E+04  0.13371300964E+04  0.00000000000E+00 0. -1.
         -3    1    3    3    0  502  0.51789168917E+02  0.94701569252E+02 -0.46212113898E+03  0.47455921899E+03  0.00000000000E+00 0.  1.
         13    1    5    5    0    0  0.19897318365E+02  0.46337358814E+00  0.10881949086E+00  0.19903010699E+02  0.00000000000E+00 0. -1.
        -13    1    5    5    0    0  0.19669266454E+03 -0.96895867091E+02 -0.34770637099E+03  0.41106755378E+03  0.00000000000E+00 0.  1.
          3    1    6    6  503    0 -0.63140504701E+02 -0.25750833283E+02  0.16830187680E+02  0.70235916495E+02  0.00000000000E+00 0. -1.
         -3    1    6    6    0  503 -0.31464366137E+03 -0.36381233822E+03  0.24289415169E+03  0.53884842025E+03  0.00000000000E+00 0.  1.
<mgrwt>
<rscale>  0 0.21922210E+04</rscale>
<asrwt>0</asrwt>
<pdfrwt beam="1">  1        2 0.35966497E+00 0.21922210E+04</pdfrwt>
<pdfrwt beam="2">  1       -1 0.79064916E-01 0.21922210E+04</pdfrwt>
<totfact> 0.71826430E+00</totfact>
</mgrwt>
</event>
<event>
12    7  0.1701638E-007  0.2019677E+04  0.7818608E-02  0.8597476E-01
          2   -1    0    0  501    0  0.00000000000E+00  0.00000000000E+00  0.19509065231E+04  0.19509065231E+04  0.00000000000E+00 0. -1.
         -1   -1    0    0    0  501 -0.00000000000E+00 -0.00000000000E+00 -0.52271814677E+03  0.52271814677E+03  0.00000000000E+00 0.  1.
         24    2    1    2    0    0  0.19534585680E+03 -0.55579794948E+03 -0.10021079469E+03  0.60276795811E+03  0.78839352711E+02 0.  0.
        254    2    1    2    0    0 -0.19534585680E+03  0.55579794948E+03  0.15283991710E+04  0.18708567118E+04  0.90389681135E+03 0.  0.
         23    2    4    4    0    0 -0.47954863405E+03  0.45182932894E+03  0.62006759955E+03  0.90925020783E+03  0.90196882003E+02 0.  0.
         23    2    4    4    0    0  0.28420277725E+03  0.10396862054E+03  0.90833157149E+03  0.96160650395E+03  0.89666783216E+02 0.  0.
          2    1    3    3  502    0  0.10219962623E+03 -0.21524951288E+03 -0.70362413726E+02  0.24845117360E+03  0.00000000000E+00 0. -1.
         -1    1    3    3    0  502  0.93146230569E+02 -0.34054843660E+03 -0.29848380961E+02  0.35431678451E+03  0.00000000000E+00 0.  1.
         13    1    5    5    0    0 -0.22334630350E+03  0.16728076969E+03  0.30502042398E+03  0.41340523248E+03  0.00000000000E+00 0.  1.
        -13    1    5    5    0    0 -0.25620233055E+03  0.28454855925E+03  0.31504717557E+03  0.49584497536E+03  0.00000000000E+00 0. -1.
          2    1    6    6  503    0  0.78984844660E+02 -0.33721679474E+01  0.31257750069E+03  0.32242002286E+03  0.00000000000E+00 0. -1.
         -2    1    6    6    0  503  0.20521793259E+03  0.10734078849E+03  0.59575407080E+03  0.63918648109E+03  0.00000000000E+00 0.  1.
<mgrwt>
<rscale>  0 0.20196774E+04</rscale>
<asrwt>0</asrwt>
<pdfrwt beam="1">  1        2 0.30013946E+00 0.20196774E+04</pdfrwt>
<pdfrwt beam="2">  1       -1 0.80418178E-01 0.20196774E+04</pdfrwt>
<totfact> 0.11590803E+01</totfact>
</mgrwt>
</event>
<event>
12    7  0.1701638E-007  0.3348755E+04  0.7818608E-02  0.8150599E-01
         -1   -1    0    0    0  501 -0.00000000000E+00  0.00000000000E+00  0.74433927978E+03  0.74433927978E+03  0.00000000000E+00 0.  1.
          2   -1    0    0  501    0  0.00000000000E+00 -0.00000000000E+00 -0.37664814430E+04  0.37664814430E+04  0.00000000000E+00 0. -1.
         24    2    1    2    0    0  0.89349406601E+02  0.13416692846E+04 -0.37105147599E+03  0.13970026550E+04  0.76664428896E+02 0.  0.
        254    2    1    2    0    0 -0.89349406601E+02 -0.13416692846E+04 -0.26510906872E+04  0.31138180678E+04  0.92710373828E+03 0.  0.
         23    2    4    4    0    0 -0.45900063574E+03 -0.81152076248E+03 -0.19009938835E+04  0.21192514032E+04  0.90560659700E+02 0.  0.
         23    2    4    4    0    0  0.36965122914E+03 -0.53014852209E+03 -0.75009680372E+03  0.99456666460E+03  0.93904998270E+02 0.  0.
          4    1    3    3  502    0  0.10218073877E+02  0.72256673690E+02 -0.37837440055E+02  0.82201628916E+02  0.00000000000E+00 0. -1.
         -3    1    3    3    0  502  0.79131332724E+02  0.12694126109E+04 -0.33321403593E+03  0.13148010261E+04  0.00000000000E+00 0.  1.
         13    1    5    5    0    0 -0.18728096248E+02 -0.91396130238E+01 -0.31865265367E+02  0.38074522350E+02  0.00000000000E+00 0.  1.
        -13    1    5    5    0    0 -0.44027253949E+03 -0.80238114945E+03 -0.18691286181E+04  0.20811768808E+04  0.00000000000E+00 0. -1.
          4    1    6    6  503    0  0.30202911166E+03 -0.48575391001E+03 -0.64897484818E+03  0.86507040115E+03  0.00000000000E+00 0. -1.
         -4    1    6    6    0  503  0.67622117480E+02 -0.44394612082E+02 -0.10112195554E+03  0.12949626344E+03  0.00000000000E+00 0.  1.
<mgrwt>
<rscale>  0 0.33487550E+04</rscale>
<asrwt>0</asrwt>
<pdfrwt beam="1">  1        2 0.57945868E+00 0.33487550E+04</pdfrwt>
<pdfrwt beam="2">  1       -1 0.11451374E+00 0.33487550E+04</pdfrwt>
<totfact> 0.34034929E-01</totfact>
</mgrwt>
</event>
<event>
12    7  0.1701638E-007  0.2824075E+04  0.7818608E-02  0.8295833E-01
          2   -1    0    0  501    0  0.00000000000E+00  0.00000000000E+00  0.17362202561E+04  0.17362202561E+04  0.00000000000E+00 0. -1.
         -1   -1    0    0    0  501 -0.00000000000E+00 -0.00000000000E+00 -0.11483852927E+04  0.11483852927E+04  0.00000000000E+00 0.  1.
         24    2    1    2    0    0 -0.60635142257E+03  0.69624175637E+03  0.11480568810E+04  0.14755052186E+04  0.81648129590E+02 0.  0.
        254    2    1    2    0    0  0.60635142257E+03 -0.69624175637E+03 -0.56022191770E+03  0.14091003302E+04  0.90515220403E+03 0.  0.
         23    2    4    4    0    0  0.44382605713E+03 -0.74951594269E+03 -0.73793577462E+03  0.11452158308E+04  0.90633185579E+02 0.  0.
         23    2    4    4    0    0  0.16252536544E+03  0.53274186321E+02  0.17771385693E+03  0.26388449937E+03  0.93809278444E+02 0.  0.
          4    1    3    3  502    0 -0.22976943965E+03  0.31087432741E+03  0.43877854275E+03  0.58477641233E+03  0.00000000000E+00 0. -1.
         -3    1    3    3    0  502 -0.37658198292E+03  0.38536742896E+03  0.70927833829E+03  0.89072880627E+03  0.00000000000E+00 0.  1.
         13    1    5    5    0    0  0.44035992730E+03 -0.70970629991E+03 -0.69504234234E+03  0.10865927274E+04  0.00000000000E+00 0.  1.
        -13    1    5    5    0    0  0.34661298348E+01 -0.39809642779E+02 -0.42893432283E+02  0.58623103357E+02  0.00000000000E+00 0. -1.
          3    1    6    6  503    0  0.52717904697E+02  0.50052610940E+02  0.27356551801E+02  0.77671244769E+02  0.00000000000E+00 0. -1.
         -3    1    6    6    0  503  0.10980746075E+03  0.32215753811E+01  0.15035730513E+03  0.18621325460E+03  0.00000000000E+00 0.  1.
<mgrwt>
<rscale>  0 0.28240749E+04</rscale>
<asrwt>0</asrwt>
<pdfrwt beam="1">  1        2 0.26711081E+00 0.28240749E+04</pdfrwt>
<pdfrwt beam="2">  1       -1 0.17667466E+00 0.28240749E+04</pdfrwt>
<totfact> 0.20354828E+00</totfact>
</mgrwt>
</event>
<event>
12    7  0.1737563E-007  0.3471673E+04  0.7818608E-02  0.8120536E-01
          2   -1    0    0  501    0  0.00000000000E+00  0.00000000000E+00  0.29974661597E+04  0.29974661597E+04  0.00000000000E+00 0. -1.
         -1   -1    0    0    0  501 -0.00000000000E+00 -0.00000000000E+00 -0.10052251603E+04  0.10052251603E+04  0.00000000000E+00 0.  1.
         24    2    1    2    0    0 -0.90560619415E+03  0.84451469813E+03 -0.27381301937E+03  0.12706454093E+04  0.78984380232E+02 0.  0.
        254    2    1    2    0    0  0.90560619415E+03 -0.84451469813E+03  0.22660540188E+04  0.27320459107E+04  0.89204618033E+03 0.  0.
         23    2    4    4    0    0  0.16097445209E+03 -0.41782282964E+02 -0.25535722172E+02  0.19066860112E+03  0.89687841700E+02 0.  0.
         23    2    4    4    0    0  0.74463174206E+03 -0.80273241516E+03  0.22915897410E+04  0.25413773096E+04  0.91429355931E+02 0.  0.
          4    1    3    3  502    0 -0.28926610446E+03  0.27801041315E+03 -0.12625656264E+03  0.42060122280E+03  0.00000000000E+00 0. -1.
         -3    1    3    3    0  502 -0.61634008969E+03  0.56650428497E+03 -0.14755645674E+03  0.85004418648E+03  0.00000000000E+00 0.  1.
         13    1    5    5    0    0 -0.93784165607E+01 -0.54958559761E-01 -0.11326064273E+02  0.14705014435E+02  0.00000000000E+00 0. -1.
        -13    1    5    5    0    0  0.17035286865E+03 -0.41727324405E+02 -0.14209657900E+02  0.17596358668E+03  0.00000000000E+00 0.  1.
          3    1    6    6  503    0  0.38812435189E+03 -0.38842366238E+03  0.10537829231E+04  0.11882642396E+04  0.00000000000E+00 0. -1.
         -3    1    6    6    0  503  0.35650739017E+03 -0.41430875278E+03  0.12378068179E+04  0.13531130701E+04  0.00000000000E+00 0.  1.
<mgrwt>
<rscale>  0 0.34716730E+04</rscale>
<asrwt>0</asrwt>
<pdfrwt beam="1">  1        2 0.46114864E+00 0.34716730E+04</pdfrwt>
<pdfrwt beam="2">  1       -1 0.15465003E+00 0.34716730E+04</pdfrwt>
<totfact> 0.52448934E-01</totfact>
</mgrwt>
</event>
<event>
12    7  0.1701638E-007  0.2293796E+04  0.7818608E-02  0.8480371E-01
         -1   -1    0    0    0  501 -0.00000000000E+00  0.00000000000E+00  0.15294953687E+04  0.15294953687E+04  0.00000000000E+00 0.  1.
          2   -1    0    0  501    0  0.00000000000E+00 -0.00000000000E+00 -0.86000603765E+03  0.86000603765E+03  0.00000000000E+00 0. -1.
         24    2    1    2    0    0  0.33903538954E+03  0.79096735869E+03 -0.17498194416E+03  0.88200436824E+03  0.82089383791E+02 0.  0.
        254    2    1    2    0    0 -0.33903538954E+03 -0.79096735869E+03  0.84447127523E+03  0.15074970381E+04  0.90489846251E+03 0.  0.
         23    2    4    4    0    0 -0.47935575074E+03 -0.53779404029E+02  0.29395574486E+03  0.57214795146E+03  0.90934802803E+02 0.  0.
         23    2    4    4    0    0  0.14032036120E+03 -0.73718795466E+03  0.55051553037E+03  0.93534908668E+03  0.93137964935E+02 0.  0.
          4    1    3    3  502    0  0.28249901502E+03  0.71280908690E+03 -0.17027177255E+03  0.78542661299E+03  0.00000000000E+00 0. -1.
         -3    1    3    3    0  502  0.56536374516E+02  0.78158271790E+02 -0.47101716044E+01  0.96577755250E+02  0.00000000000E+00 0.  1.
         13    1    5    5    0    0 -0.13982053012E+02 -0.14749308160E+02 -0.73921574758E-02  0.20323384371E+02  0.00000000000E+00 0. -1.
        -13    1    5    5    0    0 -0.46537369773E+03 -0.39030095869E+02  0.29396313701E+03  0.55182456709E+03  0.00000000000E+00 0.  1.
          4    1    6    6  503    0  0.83347332289E+02 -0.33455755457E+03  0.30508205068E+03  0.46038092138E+03  0.00000000000E+00 0. -1.
         -4    1    6    6    0  503  0.56973028911E+02 -0.40263040009E+03  0.24543347969E+03  0.47496816531E+03  0.00000000000E+00 0.  1.
<mgrwt>
<rscale>  0 0.22937962E+04</rscale>
<asrwt>0</asrwt>
<pdfrwt beam="1">  1        2 0.13230862E+00 0.22937962E+04</pdfrwt>
<pdfrwt beam="2">  1       -1 0.23530698E+00 0.22937962E+04</pdfrwt>
<totfact> 0.28131890E+00</totfact>
</mgrwt>
</event>
<event>
12    7  0.1701638E-007  0.1592822E+04  0.7818608E-02  0.8824970E-01
         -1   -1    0    0    0  501 -0.00000000000E+00  0.00000000000E+00  0.36965560424E+03  0.36965560424E+03  0.00000000000E+00 0.  1.
          2   -1    0    0  501    0  0.00000000000E+00 -0.00000000000E+00 -0.17158416280E+04  0.17158416280E+04  0.00000000000E+00 0. -1.
         24    2    1    2    0    0  0.27074456634E+03 -0.18414110942E+03 -0.10230717547E+04  0.10771559908E+04  0.79866418496E+02 0.  0.
        254    2    1    2    0    0 -0.27074456634E+03  0.18414110942E+03 -0.32311426905E+03  0.10083412415E+04  0.89729519112E+03 0.  0.
         23    2    4    4    0    0  0.22194385335E+03  0.31196440680E+03  0.99052867771E+01  0.39305470282E+03  0.88391286620E+02 0.  0.
         23    2    4    4    0    0 -0.49268841969E+03 -0.12782329738E+03 -0.33301955583E+03  0.61528653865E+03  0.92708283505E+02 0.  0.
          2    1    3    3  502    0  0.26771168528E+03 -0.16224571015E+03 -0.92190770911E+03  0.97360517717E+03  0.00000000000E+00 0. -1.
         -1    1    3    3    0  502  0.30328810591E+01 -0.21895399272E+02 -0.10116404557E+03  0.10355081358E+03  0.00000000000E+00 0.  1.
         13    1    5    5    0    0  0.22804736384E+03  0.31243324785E+03  0.98468165022E+01  0.38693293257E+03  0.00000000000E+00 0. -1.
        -13    1    5    5    0    0 -0.61035104853E+01 -0.46884104723E+00  0.58470274861E-01  0.61217702460E+01  0.00000000000E+00 0.  1.
          1    1    6    6  503    0 -0.24208930277E+03 -0.27378897465E+02 -0.12111056525E+03  0.27207462865E+03  0.00000000000E+00 0. -1.
         -1    1    6    6    0  503 -0.25059911692E+03 -0.10044439992E+03 -0.21190899058E+03  0.34321191000E+03  0.00000000000E+00 0.  1.
<mgrwt>
<rscale>  0 0.15928220E+04</rscale>
<asrwt>0</asrwt>
<pdfrwt beam="1">  1        2 0.26397564E+00 0.15928220E+04</pdfrwt>
<pdfrwt beam="2">  1       -1 0.56870093E-01 0.15928220E+04</pdfrwt>
<totfact> 0.32876946E+01</totfact>
</mgrwt>
</event>
<event>
12    7  0.1701638E-007  0.1434050E+04  0.7818608E-02  0.8929534E-01
          2   -1    0    0  501    0  0.00000000000E+00  0.00000000000E+00  0.13228976523E+04  0.13228976523E+04  0.00000000000E+00 0. -1.
         -1   -1    0    0    0  501 -0.00000000000E+00 -0.00000000000E+00 -0.38863515057E+03  0.38863515057E+03  0.00000000000E+00 0.  1.
         24    2    1    2    0    0 -0.16565420828E+02 -0.27452020628E+03 -0.10939405445E+03  0.30586620952E+03  0.77144812857E+02 0.  0.
        254    2    1    2    0    0  0.16565420828E+02  0.27452020628E+03  0.10436565562E+04  0.14056665933E+04  0.90057970639E+03 0.  0.
         23    2    4    4    0    0  0.70290598769E+02  0.49132413979E+03  0.22498555891E+03  0.55252862590E+03  0.91264462473E+02 0.  0.
         23    2    4    4    0    0 -0.53725177940E+02 -0.21680393351E+03  0.81867099726E+03  0.85313796743E+03  0.87930935353E+02 0.  0.
          2    1    3    3  502    0  0.26509606229E+02 -0.71410461187E+02 -0.14319986577E+02  0.77506613943E+02  0.00000000000E+00 0. -1.
         -1    1    3    3    0  502 -0.43075027057E+02 -0.20310974509E+03 -0.95074067873E+02  0.22835959557E+03  0.00000000000E+00 0.  1.
         13    1    5    5    0    0  0.12601104058E+01  0.55282272420E+00  0.13698039091E+02  0.13766981010E+02  0.00000000000E+00 0. -1.
        -13    1    5    5    0    0  0.69030488363E+02  0.49077131706E+03  0.21128751982E+03  0.53876164489E+03  0.00000000000E+00 0.  1.
          3    1    6    6  503    0 -0.74713827212E+02 -0.12931216266E+03  0.54242597247E+03  0.56260974662E+03  0.00000000000E+00 0. -1.
         -3    1    6    6    0  503  0.20988649271E+02 -0.87491770844E+02  0.27624502479E+03  0.29052822081E+03  0.00000000000E+00 0.  1.
<mgrwt>
<rscale>  0 0.14340496E+04</rscale>
<asrwt>0</asrwt>
<pdfrwt beam="1">  1        2 0.20352271E+00 0.14340496E+04</pdfrwt>
<pdfrwt beam="2">  1       -1 0.59790024E-01 0.14340496E+04</pdfrwt>
<totfact> 0.50317714E+01</totfact>
</mgrwt>
</event>
<event>
12    7  0.1701638E-007  0.2024440E+04  0.7818608E-02  0.8595279E-01
          2   -1    0    0  501    0  0.00000000000E+00  0.00000000000E+00  0.38238823609E+04  0.38238823609E+04  0.00000000000E+00 0. -1.
         -1   -1    0    0    0  501 -0.00000000000E+00 -0.00000000000E+00 -0.26794467330E+03  0.26794467330E+03  0.00000000000E+00 0.  1.
         24    2    1    2    0    0  0.79321725861E+03 -0.11976275584E+03  0.16474015074E+04  0.18340663199E+04  0.79566336195E+02 0.  0.
        254    2    1    2    0    0 -0.79321725861E+03  0.11976275584E+03  0.19085361801E+04  0.22577607143E+04  0.90079762167E+03 0.  0.
         23    2    4    4    0    0 -0.67394227868E+03  0.11811303956E+03  0.52834550764E+03  0.86930290463E+03  0.91595193286E+02 0.  0.
         23    2    4    4    0    0 -0.11927497992E+03  0.16497162780E+01  0.13801906725E+04  0.13884578097E+04  0.93056727196E+02 0.  0.
          2    1    3    3  502    0  0.78089306562E+03 -0.11278155313E+03  0.16342339392E+04  0.18147270392E+04  0.00000000000E+00 0. -1.
         -1    1    3    3    0  502  0.12324192981E+02 -0.69812027003E+01  0.13167568240E+02  0.19339280678E+02  0.00000000000E+00 0.  1.
         13    1    5    5    0    0 -0.55222175464E+01  0.19674305392E+01  0.21937399973E+02  0.22707161582E+02  0.00000000000E+00 0. -1.
        -13    1    5    5    0    0 -0.66842006114E+03  0.11614560902E+03  0.50640810767E+03  0.84659574304E+03  0.00000000000E+00 0.  1.
          4    1    6    6  503    0  0.10310233143E+02  0.11174727321E+02  0.60316031777E+02  0.62202886810E+02  0.00000000000E+00 0. -1.
         -4    1    6    6    0  503 -0.12958521306E+03 -0.95250110433E+01  0.13198746407E+04  0.13262549229E+04  0.00000000000E+00 0.  1.
<mgrwt>
<rscale>  0 0.20244396E+04</rscale>
<asrwt>0</asrwt>
<pdfrwt beam="1">  1        2 0.58828956E+00 0.20244396E+04</pdfrwt>
<pdfrwt beam="2">  1       -1 0.41222260E-01 0.20244396E+04</pdfrwt>
<totfact> 0.28878311E+00</totfact>
</mgrwt>
</event>
<event>
12    7  0.1701638E-007  0.1792958E+04  0.7818608E-02  0.8710054E-01
         -1   -1    0    0    0  501 -0.00000000000E+00  0.00000000000E+00  0.12328720975E+04  0.12328720975E+04  0.00000000000E+00 0.  1.
          2   -1    0    0  501    0  0.00000000000E+00 -0.00000000000E+00 -0.65187153521E+03  0.65187153521E+03  0.00000000000E+00 0. -1.
         24    2    1    2    0    0 -0.36995051086E+03  0.53738039099E+03  0.60449087411E+02  0.66001017327E+03  0.79487555923E+02 0.  0.
        254    2    1    2    0    0  0.36995051086E+03 -0.53738039099E+03  0.52055147487E+03  0.12247334594E+04  0.89630192657E+03 0.  0.
         23    2    4    4    0    0  0.38003192057E+03 -0.73781870085E+03  0.55390270215E+03  0.10020635242E+04  0.92316883946E+02 0.  0.
         23    2    4    4    0    0 -0.10081409713E+02  0.20043830986E+03 -0.33351227275E+02  0.22266993526E+03  0.90512125317E+02 0.  0.
          4    1    3    3  502    0 -0.11505387131E+03  0.15323684343E+03  0.53454974360E+02  0.19893807522E+03  0.00000000000E+00 0. -1.
         -3    1    3    3    0  502 -0.25489663955E+03  0.38414354755E+03  0.69941130518E+01  0.46107209805E+03  0.00000000000E+00 0.  1.
         13    1    5    5    0    0  0.22496137623E+03 -0.52993056507E+03  0.38287330216E+03  0.69139423638E+03  0.00000000000E+00 0.  1.
        -13    1    5    5    0    0  0.15507054434E+03 -0.20788813577E+03  0.17102939999E+03  0.31066928780E+03  0.00000000000E+00 0. -1.
          4    1    6    6  503    0 -0.33597172645E+02  0.54154807371E+02 -0.38431911882E+02  0.74421267270E+02  0.00000000000E+00 0. -1.
         -4    1    6    6    0  503  0.23515762933E+02  0.14628350249E+03  0.50806846063E+01  0.14824866799E+03  0.00000000000E+00 0.  1.
<mgrwt>
<rscale>  0 0.17929576E+04</rscale>
<asrwt>0</asrwt>
<pdfrwt beam="1">  1        2 0.10028793E+00 0.17929576E+04</pdfrwt>
<pdfrwt beam="2">  1       -1 0.18967263E+00 0.17929576E+04</pdfrwt>
<totfact> 0.85843380E+00</totfact>
</mgrwt>
</event>
<event>
12    7  0.1701638E-007  0.3031835E+04  0.7818608E-02  0.8234698E-01
          2   -1    0    0  501    0  0.00000000000E+00  0.00000000000E+00  0.22280971893E+04  0.22280971893E+04  0.00000000000E+00 0. -1.
         -1   -1    0    0    0  501 -0.00000000000E+00 -0.00000000000E+00 -0.10313758623E+04  0.10313758623E+04  0.00000000000E+00 0.  1.
         24    2    1    2    0    0  0.80779948687E+03 -0.10767383501E+04  0.23283308725E+03  0.13683561535E+04  0.79258000618E+02 0.  0.
        254    2    1    2    0    0 -0.80779948687E+03  0.10767383501E+04  0.96388823973E+03  0.18911168981E+04  0.91396777733E+03 0.  0.
         23    2    4    4    0    0 -0.13855312149E+03  0.65950808625E+03  0.84984422145E+03  0.10889977607E+04  0.97637281784E+02 0.  0.
         23    2    4    4    0    0 -0.66924636539E+03  0.41723026385E+03  0.11404401828E+03  0.80211913738E+03  0.91745745381E+02 0.  0.
          4    1    3    3  502    0  0.82243635481E+01 -0.26833480874E+02 -0.10576063591E+01  0.28085483488E+02  0.00000000000E+00 0. -1.
         -1    1    3    3    0  502  0.79957512333E+03 -0.10499048692E+04  0.23389069361E+03  0.13402706700E+04  0.00000000000E+00 0.  1.
         13    1    5    5    0    0 -0.40823356010E+02  0.36480294938E+03  0.40611214451E+03  0.54742562251E+03  0.00000000000E+00 0.  1.
        -13    1    5    5    0    0 -0.97729765476E+02  0.29470513687E+03  0.44373207695E+03  0.54157213820E+03  0.00000000000E+00 0. -1.
          2    1    6    6  503    0 -0.25296182144E+03  0.19219935836E+03  0.80397112659E+02  0.32771019543E+03  0.00000000000E+00 0. -1.
         -2    1    6    6    0  503 -0.41628454394E+03  0.22503090549E+03  0.33646905619E+02  0.47440894196E+03  0.00000000000E+00 0.  1.
<mgrwt>
<rscale>  0 0.30318349E+04</rscale>
<asrwt>0</asrwt>
<pdfrwt beam="1">  1        2 0.34278418E+00 0.30318349E+04</pdfrwt>
<pdfrwt beam="2">  1       -1 0.15867321E+00 0.30318349E+04</pdfrwt>
<totfact> 0.14456074E+00</totfact>
</mgrwt>
</event>
<event>
12    7  0.1701638E-007  0.2128032E+04  0.7818608E-02  0.8548995E-01
         -1   -1    0    0    0  501 -0.00000000000E+00  0.00000000000E+00  0.97393628991E+03  0.97393628991E+03  0.00000000000E+00 0.  1.
          2   -1    0    0  501    0  0.00000000000E+00 -0.00000000000E+00 -0.11624269070E+04  0.11624269070E+04  0.00000000000E+00 0. -1.
         24    2    1    2    0    0  0.64854434007E+03  0.52322745095E+03  0.92430944022E+02  0.84153061124E+03  0.72481471935E+02 0.  0.
        254    2    1    2    0    0 -0.64854434007E+03 -0.52322745095E+03 -0.28092156108E+03  0.12948325856E+04  0.95041978876E+03 0.  0.
         23    2    4    4    0    0  0.30690676387E+02  0.20017213533E+03  0.78617674802E+02  0.23523832563E+03  0.90252588206E+02 0.  0.
         23    2    4    4    0    0 -0.67923501646E+03 -0.72339958627E+03 -0.35953923588E+03  0.10595942600E+04  0.93831576088E+02 0.  0.
          2    1    3    3  502    0  0.37549457230E+03  0.25786257242E+03  0.41804308807E+02  0.45742417986E+03  0.00000000000E+00 0. -1.
         -1    1    3    3    0  502  0.27304976777E+03  0.26536487852E+03  0.50626635215E+02  0.38410643138E+03  0.00000000000E+00 0.  1.
         13    1    5    5    0    0  0.20710303698E+02  0.20346957915E+03  0.86539627177E+02  0.22207632335E+03  0.00000000000E+00 0. -1.
        -13    1    5    5    0    0  0.99803726886E+01 -0.32974438252E+01 -0.79219523751E+01  0.13162002287E+02  0.00000000000E+00 0.  1.
          4    1    6    6  503    0 -0.46319701168E+03 -0.55045676614E+03 -0.24331442311E+03  0.75944455460E+03  0.00000000000E+00 0. -1.
         -4    1    6    6    0  503 -0.21603800478E+03 -0.17294282013E+03 -0.11622481277E+03  0.30014970539E+03  0.00000000000E+00 0.  1.
<mgrwt>
<rscale>  0 0.21280317E+04</rscale>
<asrwt>0</asrwt>
<pdfrwt beam="1">  1        2 0.17883491E+00 0.21280317E+04</pdfrwt>
<pdfrwt beam="2">  1       -1 0.14983635E+00 0.21280317E+04</pdfrwt>
<totfact> 0.73199518E+00</totfact>
</mgrwt>
</event>
<event>
12    7  0.1701638E-007  0.1858947E+04  0.7818608E-02  0.8675565E-01
          2   -1    0    0  501    0  0.00000000000E+00  0.00000000000E+00  0.53535562751E+03  0.53535562751E+03  0.00000000000E+00 0. -1.
         -1   -1    0    0    0  501 -0.00000000000E+00 -0.00000000000E+00 -0.16137329300E+04  0.16137329300E+04  0.00000000000E+00 0.  1.
         24    2    1    2    0    0 -0.78332598108E+02 -0.37962965855E+03 -0.10921479519E+04  0.11613576457E+04  0.75562945856E+02 0.  0.
        254    2    1    2    0    0  0.78332598108E+02  0.37962965855E+03  0.13770649461E+02  0.98773091176E+03  0.90838760982E+03 0.  0.
         23    2    4    4    0    0  0.31238933865E+03  0.58012414641E+03  0.35266580513E+02  0.66546452209E+03  0.86418599342E+02 0.  0.
         23    2    4    4    0    0 -0.23405674054E+03 -0.20049448786E+03 -0.21495931051E+02  0.32226638967E+03  0.91722153287E+02 0.  0.
          4    1    3    3  502    0 -0.23790128061E+02 -0.19740501385E+02 -0.87833006307E+02  0.93114416634E+02  0.00000000000E+00 0. -1.
         -3    1    3    3    0  502 -0.54542470047E+02 -0.35988915717E+03 -0.10043149456E+04  0.10682432291E+04  0.00000000000E+00 0.  1.
         13    1    5    5    0    0  0.62020180325E+02  0.18205956519E+03 -0.12799987984E+02  0.19275898873E+03  0.00000000000E+00 0. -1.
        -13    1    5    5    0    0  0.25036915833E+03  0.39806458122E+03  0.48066568496E+02  0.47270553336E+03  0.00000000000E+00 0.  1.
          3    1    6    6  503    0 -0.19334521206E+02  0.91207188932E+01  0.54132763414E+00  0.21384673460E+02  0.00000000000E+00 0. -1.
         -3    1    6    6    0  503 -0.21472221934E+03 -0.20961520675E+03 -0.22037258685E+02  0.30088171621E+03  0.00000000000E+00 0.  1.
<mgrwt>
<rscale>  0 0.18589470E+04</rscale>
<asrwt>0</asrwt>
<pdfrwt beam="1">  1        2 0.82362407E-01 0.18589470E+04</pdfrwt>
<pdfrwt beam="2">  1       -1 0.24826660E+00 0.18589470E+04</pdfrwt>
<totfact> 0.43667667E+00</totfact>
</mgrwt>
</event>
<event>
12    7  0.1701638E-007  0.3105968E+04  0.7818608E-02  0.8214102E-01
         -1   -1    0    0    0  501 -0.00000000000E+00  0.00000000000E+00  0.10864524553E+04  0.10864524553E+04  0.00000000000E+00 0.  1.
          2   -1    0    0  501    0  0.00000000000E+00 -0.00000000000E+00 -0.22198478047E+04  0.22198478047E+04  0.00000000000E+00 0. -1.
         24    2    1    2    0    0  0.10638370179E+04  0.94072738191E+03 -0.51931304495E+03  0.15141865538E+04  0.79735018456E+02 0.  0.
        254    2    1    2    0    0 -0.10638370179E+04 -0.94072738191E+03 -0.61408230447E+03  0.17921137063E+04  0.90435460505E+03 0.  0.
         23    2    4    4    0    0 -0.61812165743E+03 -0.94851003724E+03 -0.15657132532E+03  0.11465838879E+04  0.91620728515E+02 0.  0.
         23    2    4    4    0    0 -0.44571536050E+03  0.77826553295E+01 -0.45751097915E+03  0.64552981838E+03  0.93111213405E+02 0.  0.
          2    1    3    3  502    0  0.68075196877E+03  0.59406298731E+03 -0.37052244064E+03  0.97653517852E+03  0.00000000000E+00 0. -1.
         -1    1    3    3    0  502  0.38308504916E+03  0.34666439460E+03 -0.14879060431E+03  0.53765137525E+03  0.00000000000E+00 0.  1.
         13    1    5    5    0    0 -0.29738091423E+03 -0.53892151442E+03 -0.92023721736E+02  0.62236658990E+03  0.00000000000E+00 0. -1.
        -13    1    5    5    0    0 -0.32074074321E+03 -0.40958852282E+03 -0.64547603585E+02  0.52421729798E+03  0.00000000000E+00 0.  1.
          1    1    6    6  503    0 -0.26073246156E+03  0.14960826104E+02 -0.20281678801E+03  0.33066583181E+03  0.00000000000E+00 0. -1.
         -1    1    6    6    0  503 -0.18498289894E+03 -0.71781707746E+01 -0.25469419114E+03  0.31486398656E+03  0.00000000000E+00 0.  1.
<mgrwt>
<rscale>  0 0.31059679E+04</rscale>
<asrwt>0</asrwt>
<pdfrwt beam="1">  1        2 0.34151504E+00 0.31059679E+04</pdfrwt>
<pdfrwt beam="2">  1       -1 0.16714653E+00 0.31059679E+04</pdfrwt>
<totfact> 0.12541970E+00</totfact>
</mgrwt>
</event>
<event>
12    7  0.1701638E-007  0.3450642E+04  0.7818608E-02  0.8125588E-01
          2   -1    0    0  501    0  0.00000000000E+00  0.00000000000E+00  0.27189127568E+04  0.27189127568E+04  0.00000000000E+00 0. -1.
         -1   -1    0    0    0  501 -0.00000000000E+00 -0.00000000000E+00 -0.10948247528E+04  0.10948247528E+04  0.00000000000E+00 0.  1.
         24    2    1    2    0    0 -0.83603054544E+02 -0.14949609657E+04  0.13956394619E+04  0.20484087911E+04  0.79191590401E+02 0.  0.
        254    2    1    2    0    0  0.83603054544E+02  0.14949609657E+04  0.22844854215E+03  0.17653287185E+04  0.90680702928E+03 0.  0.
         23    2    4    4    0    0  0.18032778972E+03  0.35554802489E+03 -0.29303283808E+03  0.50519482308E+03  0.10208357029E+03 0.  0.
         23    2    4    4    0    0 -0.96724735176E+02  0.11394129408E+04  0.52148138023E+03  0.12601338954E+04  0.91526392093E+02 0.  0.
          2    1    3    3  502    0 -0.35511945187E+02 -0.59776428532E+03  0.61147497920E+03  0.85585331059E+03  0.00000000000E+00 0. -1.
         -1    1    3    3    0  502 -0.48091109357E+02 -0.89719668037E+03  0.78416448274E+03  0.11925554805E+04  0.00000000000E+00 0.  1.
         13    1    5    5    0    0  0.14184659146E+02  0.13181088039E+03 -0.85897526071E+02  0.15796739451E+03  0.00000000000E+00 0. -1.
        -13    1    5    5    0    0  0.16614313057E+03  0.22373714450E+03 -0.20713531201E+03  0.34722742856E+03  0.00000000000E+00 0.  1.
          1    1    6    6  503    0 -0.13213188797E+00  0.14862359236E+03  0.99781087148E+02  0.17901188513E+03  0.00000000000E+00 0. -1.
         -1    1    6    6    0  503 -0.96592603288E+02  0.99078934844E+03  0.42170029308E+03  0.10811220103E+04  0.00000000000E+00 0.  1.
<mgrwt>
<rscale>  0 0.34506423E+04</rscale>
<asrwt>0</asrwt>
<pdfrwt beam="1">  1        2 0.41829427E+00 0.34506423E+04</pdfrwt>
<pdfrwt beam="2">  1       -1 0.16843458E+00 0.34506423E+04</pdfrwt>
<totfact> 0.61257603E-01</totfact>
</mgrwt>
</event>
<event>
12    7  0.1701638E-007  0.2357953E+04  0.7818608E-02  0.8455415E-01
         -1   -1    0    0    0  501 -0.00000000000E+00  0.00000000000E+00  0.71676130646E+03  0.71676130646E+03  0.00000000000E+00 0.  1.
          2   -1    0    0  501    0  0.00000000000E+00 -0.00000000000E+00 -0.19392585219E+04  0.19392585219E+04  0.00000000000E+00 0. -1.
         24    2    1    2    0    0 -0.28407186208E+03 -0.25219501020E+03 -0.15785541549E+04  0.16256399803E+04  0.81073913128E+02 0.  0.
        254    2    1    2    0    0  0.28407186208E+03  0.25219501020E+03  0.35605693949E+03  0.10303798481E+04  0.88916080727E+03 0.  0.
         23    2    4    4    0    0  0.52318393167E+03  0.39949609269E+03  0.19202698334E+03  0.69181814244E+03  0.91757427256E+02 0.  0.
         23    2    4    4    0    0 -0.23911206958E+03 -0.14730108249E+03  0.16402995616E+03  0.33856170564E+03  0.94053236458E+02 0.  0.
          4    1    3    3  502    0 -0.28686512824E+03 -0.24573093178E+03 -0.15021686799E+04  0.15489306103E+04  0.00000000000E+00 0. -1.
         -3    1    3    3    0  502  0.27932661582E+01 -0.64640784200E+01 -0.76385475025E+02  0.76709369965E+02  0.00000000000E+00 0.  1.
         13    1    5    5    0    0  0.44837959007E+03  0.34573567721E+03  0.19720000891E+03  0.59955421673E+03  0.00000000000E+00 0.  1.
        -13    1    5    5    0    0  0.74804341600E+02  0.53760415480E+02 -0.51730255712E+01  0.92263925715E+02  0.00000000000E+00 0. -1.
          4    1    6    6  503    0  0.65998375595E+01 -0.14204929137E+02  0.15755739194E+02  0.22216687088E+02  0.00000000000E+00 0. -1.
         -4    1    6    6    0  503 -0.24571190714E+03 -0.13309615335E+03  0.14827421696E+03  0.31634501856E+03  0.00000000000E+00 0.  1.
<mgrwt>
<rscale>  0 0.23579529E+04</rscale>
<asrwt>0</asrwt>
<pdfrwt beam="1">  1        2 0.29834746E+00 0.23579529E+04</pdfrwt>
<pdfrwt beam="2">  1       -1 0.11027097E+00 0.23579529E+04</pdfrwt>
<totfact> 0.56268823E+00</totfact>
</mgrwt>
</event>
<event>
12    7  0.1701638E-007  0.2786723E+04  0.7818608E-02  0.8307402E-01
         -1   -1    0    0    0  501 -0.00000000000E+00  0.00000000000E+00  0.17332446924E+04  0.17332446924E+04  0.00000000000E+00 0.  1.
          2   -1    0    0  501    0  0.00000000000E+00 -0.00000000000E+00 -0.11201283704E+04  0.11201283704E+04  0.00000000000E+00 0. -1.
         24    2    1    2    0    0  0.64701418545E+03 -0.27306903440E+03  0.13283262202E+04  0.15048033883E+04  0.82393181418E+02 0.  0.
        254    2    1    2    0    0 -0.64701418545E+03  0.27306903440E+03 -0.71520989816E+03  0.13485696745E+04  0.90217565637E+03 0.  0.
         23    2    4    4    0    0  0.18646337455E+03 -0.92663447832E+02 -0.16356714143E+03  0.28014953302E+03  0.91512001849E+02 0.  0.
         23    2    4    4    0    0 -0.83347756000E+03  0.36573248223E+03 -0.55164275673E+03  0.10684201415E+04  0.93631064131E+02 0.  0.
          4    1    3    3  502    0  0.56911882003E+02 -0.32772367972E+01  0.13356441781E+03  0.14522106011E+03  0.00000000000E+00 0. -1.
         -3    1    3    3    0  502  0.59010230344E+03 -0.26979179760E+03  0.11947618024E+04  0.13595823281E+04  0.00000000000E+00 0.  1.
         13    1    5    5    0    0  0.54797455617E+02 -0.51454338932E+02 -0.13625822009E+02  0.76393541366E+02  0.00000000000E+00 0.  1.
        -13    1    5    5    0    0  0.13166591893E+03 -0.41209108901E+02 -0.14994131942E+03  0.20375599165E+03  0.00000000000E+00 0. -1.
          1    1    6    6  503    0 -0.51218038009E+03  0.21440389197E+03 -0.28365331020E+03  0.62350378590E+03  0.00000000000E+00 0. -1.
         -1    1    6    6    0  503 -0.32129717990E+03  0.15132859027E+03 -0.26798944653E+03  0.44491635562E+03  0.00000000000E+00 0.  1.
<mgrwt>
<rscale>  0 0.27867232E+04</rscale>
<asrwt>0</asrwt>
<pdfrwt beam="1">  1        2 0.17232744E+00 0.27867232E+04</pdfrwt>
<pdfrwt beam="2">  1       -1 0.26665303E+00 0.27867232E+04</pdfrwt>
<totfact> 0.11416414E+00</totfact>
</mgrwt>
</event>
<event>
12    7  0.1701638E-007  0.2234335E+04  0.7818608E-02  0.8504271E-01
         -1   -1    0    0    0  501 -0.00000000000E+00  0.00000000000E+00  0.41420131203E+03  0.41420131203E+03  0.00000000000E+00 0.  1.
          2   -1    0    0  501    0  0.00000000000E+00 -0.00000000000E+00 -0.30131816105E+04  0.30131816105E+04  0.00000000000E+00 0. -1.
         24    2    1    2    0    0 -0.67057978461E+03 -0.62106248164E+03 -0.13985985149E+04  0.16729409976E+04  0.85193437213E+02 0.  0.
        254    2    1    2    0    0  0.67057978461E+03  0.62106248164E+03 -0.12003817835E+04  0.17544419249E+04  0.89540727500E+03 0.  0.
         23    2    4    4    0    0  0.27622531383E+03  0.67157603493E+03 -0.11205281264E+04  0.13383738017E+04  0.91358395174E+02 0.  0.
         23    2    4    4    0    0  0.39435447078E+03 -0.50513553294E+02 -0.79853657125E+02  0.41606812322E+03  0.93107512682E+02 0.  0.
          2    1    3    3  502    0 -0.32787247616E+03 -0.31621181831E+03 -0.77269389022E+03  0.89696495062E+03  0.00000000000E+00 0. -1.
         -1    1    3    3    0  502 -0.34270730845E+03 -0.30485066333E+03 -0.62590462473E+03  0.77597604696E+03  0.00000000000E+00 0.  1.
         13    1    5    5    0    0  0.65505173095E+02  0.26601961417E+03 -0.38835391201E+03  0.47526426733E+03  0.00000000000E+00 0.  1.
        -13    1    5    5    0    0  0.21072014074E+03  0.40555642076E+03 -0.73217421434E+03  0.86310953434E+03  0.00000000000E+00 0. -1.
          1    1    6    6  503    0  0.66078789905E+02  0.15116002901E+02  0.12190740337E+02  0.68873174524E+02  0.00000000000E+00 0. -1.
         -1    1    6    6    0  503  0.32827568087E+03 -0.65629556194E+02 -0.92044397462E+02  0.34719494870E+03  0.00000000000E+00 0.  1.
<mgrwt>
<rscale>  0 0.22343355E+04</rscale>
<asrwt>0</asrwt>
<pdfrwt beam="1">  1        2 0.46356641E+00 0.22343355E+04</pdfrwt>
<pdfrwt beam="2">  1       -1 0.63723278E-01 0.22343355E+04</pdfrwt>
<totfact> 0.44296006E+00</totfact>
</mgrwt>
</event>
<event>
12    7  0.1701638E-007  0.1348504E+04  0.7818608E-02  0.8991961E-01
          2   -1    0    0  501    0  0.00000000000E+00  0.00000000000E+00  0.92182138991E+03  0.92182138991E+03  0.00000000000E+00 0. -1.
         -1   -1    0    0    0  501 -0.00000000000E+00 -0.00000000000E+00 -0.49317153906E+03  0.49317153906E+03  0.00000000000E+00 0.  1.
         24    2    1    2    0    0 -0.23062460748E+03 -0.13302302603E+03  0.37207128724E+03  0.46450225643E+03  0.80264988708E+02 0.  0.
        254    2    1    2    0    0  0.23062460748E+03  0.13302302603E+03  0.56578563610E+02  0.95049067255E+03  0.91068575794E+03 0.  0.
         23    2    4    4    0    0  0.28241539469E+03 -0.12327258094E+03  0.39811993047E+03  0.51177114901E+03  0.91954584188E+02 0.  0.
         23    2    4    4    0    0 -0.51790787216E+02  0.25629560697E+03 -0.34154136686E+03  0.43871952354E+03  0.86339974899E+02 0.  0.
          2    1    3    3  502    0 -0.42307148301E+01  0.27949649982E+01  0.39765770145E+02  0.40087744418E+02  0.00000000000E+00 0. -1.
         -1    1    3    3    0  502 -0.22639389265E+03 -0.13581799103E+03  0.33230551709E+03  0.42441451201E+03  0.00000000000E+00 0.  1.
         13    1    5    5    0    0  0.56494408691E+02 -0.28872097397E+02  0.31314155275E+02  0.70751625720E+02  0.00000000000E+00 0.  1.
        -13    1    5    5    0    0  0.22592098600E+03 -0.94400483547E+02  0.36680577519E+03  0.44101952329E+03  0.00000000000E+00 0. -1.
          4    1    6    6  503    0 -0.58100165540E+02  0.11786797587E+03 -0.20955596873E+03  0.24735034466E+03  0.00000000000E+00 0. -1.
         -4    1    6    6    0  503  0.63093783242E+01  0.13842763110E+03 -0.13198539812E+03  0.19136917888E+03  0.00000000000E+00 0.  1.
<mgrwt>
<rscale>  0 0.13485045E+04</rscale>
<asrwt>0</asrwt>
<pdfrwt beam="1">  1        2 0.14181867E+00 0.13485045E+04</pdfrwt>
<pdfrwt beam="2">  1       -1 0.75872545E-01 0.13485045E+04</pdfrwt>
<totfact> 0.55157785E+01</totfact>
</mgrwt>
</event>
<event>
12    7  0.1701638E-007  0.1885597E+04  0.7818608E-02  0.8662059E-01
         -1   -1    0    0    0  501 -0.00000000000E+00  0.00000000000E+00  0.47573916276E+03  0.47573916276E+03  0.00000000000E+00 0.  1.
          2   -1    0    0  501    0  0.00000000000E+00 -0.00000000000E+00 -0.18683957946E+04  0.18683957946E+04  0.00000000000E+00 0. -1.
         24    2    1    2    0    0  0.20099665397E+03  0.90352930476E+02 -0.14111740281E+04  0.14304071654E+04  0.78033417008E+02 0.  0.
        254    2    1    2    0    0 -0.20099665397E+03 -0.90352930476E+02  0.18517396331E+02  0.91372779194E+03  0.88656205471E+03 0.  0.
         23    2    4    4    0    0  0.15078791888E+03 -0.39741154553E+03 -0.28573051941E+02  0.43523893009E+03  0.89126729835E+02 0.  0.
         23    2    4    4    0    0 -0.35178457284E+03  0.30705861505E+03  0.47090448272E+02  0.47848886185E+03  0.93256108790E+02 0.  0.
          2    1    3    3  502    0  0.19816566418E+03  0.73393535082E+02 -0.13623952878E+04  0.13786867526E+04  0.00000000000E+00 0. -1.
         -1    1    3    3    0  502  0.28309897854E+01  0.16959395394E+02 -0.48778740336E+02  0.51720412837E+02  0.00000000000E+00 0.  1.
         13    1    5    5    0    0  0.92020756160E+02 -0.15885620671E+03 -0.44948454686E+02  0.18900655426E+03  0.00000000000E+00 0.  1.
        -13    1    5    5    0    0  0.58767162716E+02 -0.23855533881E+03  0.16375402745E+02  0.24623237583E+03  0.00000000000E+00 0. -1.
          2    1    6    6  503    0 -0.19365049953E+03  0.22872768963E+03  0.29782651619E+02  0.30117084571E+03  0.00000000000E+00 0. -1.
         -2    1    6    6    0  503 -0.15813407332E+03  0.78330925422E+02  0.17307796654E+02  0.17731801613E+03  0.00000000000E+00 0.  1.
<mgrwt>
<rscale>  0 0.18855970E+04</rscale>
<asrwt>0</asrwt>
<pdfrwt beam="1">  1        2 0.28744551E+00 0.18855970E+04</pdfrwt>
<pdfrwt beam="2">  1       -1 0.73190640E-01 0.18855970E+04</pdfrwt>
<totfact> 0.15883451E+01</totfact>
</mgrwt>
</event>
<event>
12    7  0.1701638E-007  0.1115205E+04  0.7818608E-02  0.9190497E-01
          2   -1    0    0  501    0  0.00000000000E+00  0.00000000000E+00  0.19275012853E+04  0.19275012853E+04  0.00000000000E+00 0. -1.
         -1   -1    0    0    0  501 -0.00000000000E+00 -0.00000000000E+00 -0.16130760323E+03  0.16130760323E+03  0.00000000000E+00 0.  1.
         24    2    1    2    0    0 -0.92575149523E+02  0.13274178271E+03  0.90511116509E+03  0.92293842174E+03  0.79991061850E+02 0.  0.
        254    2    1    2    0    0  0.92575149523E+02 -0.13274178271E+03  0.86108251702E+03  0.11658704668E+04  0.76915557927E+03 0.  0.
         23    2    4    4    0    0  0.26109307984E+03 -0.32857596369E+03  0.76168827336E+03  0.87438723914E+03  0.90841939338E+02 0.  0.
         23    2    4    4    0    0 -0.16851793032E+03  0.19583418098E+03  0.99394243664E+02  0.29148322769E+03  0.91290399679E+02 0.  0.
          4    1    3    3  502    0 -0.78324677058E+02  0.14284133447E+03  0.82806502779E+03  0.84393725604E+03  0.00000000000E+00 0. -1.
         -3    1    3    3    0  502 -0.14250472465E+02 -0.10099551759E+02  0.77046137291E+02  0.79001165705E+02  0.00000000000E+00 0.  1.
         13    1    5    5    0    0  0.99270252199E+02 -0.19718186885E+03  0.40475128767E+03  0.46104107978E+03  0.00000000000E+00 0.  1.
        -13    1    5    5    0    0  0.16182282764E+03 -0.13139409485E+03  0.35693698569E+03  0.41334615937E+03  0.00000000000E+00 0. -1.
          2    1    6    6  503    0 -0.48118520853E+02  0.72641466204E+01  0.30309146814E+02  0.57330657207E+02  0.00000000000E+00 0. -1.
         -2    1    6    6    0  503 -0.12039940947E+03  0.18857003436E+03  0.69085096850E+02  0.23415257049E+03  0.00000000000E+00 0.  1.
<mgrwt>
<rscale>  0 0.11152051E+04</rscale>
<asrwt>0</asrwt>
<pdfrwt beam="1">  1        2 0.29653864E+00 0.11152051E+04</pdfrwt>
<pdfrwt beam="2">  1       -1 0.24816556E-01 0.11152051E+04</pdfrwt>
<totfact> 0.11768286E+02</totfact>
</mgrwt>
</event>
<event>
12    7  0.1701638E-007  0.2102071E+04  0.7818608E-02  0.8560332E-01
         -1   -1    0    0    0  501 -0.00000000000E+00  0.00000000000E+00  0.30769058612E+03  0.30769058612E+03  0.00000000000E+00 0.  1.
          2   -1    0    0  501    0  0.00000000000E+00 -0.00000000000E+00 -0.35902162696E+04  0.35902162696E+04  0.00000000000E+00 0. -1.
         24    2    1    2    0    0 -0.78460523500E+03 -0.34164217022E+03 -0.12869027406E+04  0.15474560833E+04  0.78593376453E+02 0.  0.
        254    2    1    2    0    0  0.78460523500E+03  0.34164217022E+03 -0.19956229429E+04  0.23504507724E+04  0.89987952304E+03 0.  0.
         23    2    4    4    0    0  0.29436208775E+03 -0.10737659522E+03 -0.14474826613E+04  0.14838413909E+04  0.91653950536E+02 0.  0.
         23    2    4    4    0    0  0.49024314725E+03  0.44901876543E+03 -0.54814028160E+03  0.86660938150E+03  0.92724628160E+02 0.  0.
          2    1    3    3  502    0 -0.53196857283E+03 -0.25603617075E+03 -0.93683211275E+03  0.11073389231E+04  0.00000000000E+00 0. -1.
         -1    1    3    3    0  502 -0.25263666217E+03 -0.85605999471E+02 -0.35007062783E+03  0.44011716018E+03  0.00000000000E+00 0.  1.
         13    1    5    5    0    0  0.15414975212E+02 -0.11427030843E+02 -0.27442756399E+02  0.33485868265E+02  0.00000000000E+00 0. -1.
        -13    1    5    5    0    0  0.27894711254E+03 -0.95949564375E+02 -0.14200399049E+04  0.14503555227E+04  0.00000000000E+00 0.  1.
          1    1    6    6  503    0  0.14766152659E+03  0.15510792302E+03 -0.12533585648E+03  0.24813599323E+03  0.00000000000E+00 0. -1.
         -1    1    6    6    0  503  0.34258162066E+03  0.29391084241E+03 -0.42280442512E+03  0.61847338827E+03  0.00000000000E+00 0.  1.
<mgrwt>
<rscale>  0 0.21020711E+04</rscale>
<asrwt>0</asrwt>
<pdfrwt beam="1">  1        2 0.55234094E+00 0.21020711E+04</pdfrwt>
<pdfrwt beam="2">  1       -1 0.47337015E-01 0.21020711E+04</pdfrwt>
<totfact> 0.32932289E+00</totfact>
</mgrwt>
</event>
<event>
12    7  0.1701638E-007  0.1484142E+04  0.7818608E-02  0.8895067E-01
          2   -1    0    0  501    0  0.00000000000E+00  0.00000000000E+00  0.15018027301E+04  0.15018027301E+04  0.00000000000E+00 0. -1.
         -1   -1    0    0    0  501 -0.00000000000E+00 -0.00000000000E+00 -0.36667218772E+03  0.36667218772E+03  0.00000000000E+00 0.  1.
         24    2    1    2    0    0  0.14076986327E+03  0.22361394042E+03  0.83475398430E+03  0.87924800001E+03  0.80271305252E+02 0.  0.
        254    2    1    2    0    0 -0.14076986327E+03 -0.22361394042E+03  0.30037655804E+03  0.98922691777E+03  0.90472342153E+03 0.  0.
         23    2    4    4    0    0  0.16526253718E+03 -0.44217391722E+03 -0.28720498844E+02  0.48122930097E+03  0.89035351334E+02 0.  0.
         23    2    4    4    0    0 -0.30603240045E+03  0.21855997680E+03  0.32909705688E+03  0.50799761681E+03  0.91282047794E+02 0.  0.
          4    1    3    3  502    0  0.11648148964E+03  0.14070435294E+03  0.65197079461E+03  0.67707574863E+03  0.00000000000E+00 0. -1.
         -3    1    3    3    0  502  0.24288373636E+02  0.82909587480E+02  0.18278318969E+03  0.20217225137E+03  0.00000000000E+00 0.  1.
         13    1    5    5    0    0  0.14089787103E+03 -0.42711405866E+03 -0.37382740285E+02  0.45130488413E+03  0.00000000000E+00 0. -1.
        -13    1    5    5    0    0  0.24364666147E+02 -0.15059858565E+02  0.86622414412E+01  0.29924416840E+02  0.00000000000E+00 0.  1.
          4    1    6    6  503    0 -0.29323002905E+03  0.22517466476E+03  0.30229176530E+03  0.47756443645E+03  0.00000000000E+00 0. -1.
         -4    1    6    6    0  503 -0.12802371396E+02 -0.66146879606E+01  0.26805291581E+02  0.30433180361E+02  0.00000000000E+00 0.  1.
<mgrwt>
<rscale>  0 0.14841419E+04</rscale>
<asrwt>0</asrwt>
<pdfrwt beam="1">  1        2 0.23104657E+00 0.14841419E+04</pdfrwt>
<pdfrwt beam="2">  1       -1 0.56411106E-01 0.14841419E+04</pdfrwt>
<totfact> 0.44389576E+01</totfact>
</mgrwt>
</event>
<event>
12    7  0.1701638E-007  0.3271695E+04  0.7818608E-02  0.8170135E-01
          2   -1    0    0  501    0  0.00000000000E+00  0.00000000000E+00  0.22791628843E+04  0.22791628843E+04  0.00000000000E+00 0. -1.
         -1   -1    0    0    0  501 -0.00000000000E+00 -0.00000000000E+00 -0.11741142891E+04  0.11741142891E+04  0.00000000000E+00 0.  1.
         24    2    1    2    0    0 -0.44754594162E+03 -0.14215830459E+04  0.26055470508E+03  0.15150573995E+04  0.79463469796E+02 0.  0.
        254    2    1    2    0    0  0.44754594162E+03  0.14215830459E+04  0.84449389010E+03  0.19382197739E+04  0.90682425806E+03 0.  0.
         23    2    4    4    0    0 -0.19047075374E+03  0.51108710077E+03  0.56059044385E+03  0.78739411072E+03  0.90767324836E+02 0.  0.
         23    2    4    4    0    0  0.63801669536E+03  0.91049594518E+03  0.28390344625E+03  0.11508256631E+04  0.87922525049E+02 0.  0.
          2    1    3    3  502    0 -0.34000584143E+01 -0.29810681008E+02 -0.43308933758E+01  0.30314909481E+02  0.00000000000E+00 0. -1.
         -1    1    3    3    0  502 -0.44414588320E+03 -0.13917723649E+04  0.26488559846E+03  0.14847424900E+04  0.00000000000E+00 0.  1.
         13    1    5    5    0    0 -0.14225808523E+03  0.43240062158E+03  0.50403457360E+03  0.67916015176E+03  0.00000000000E+00 0. -1.
        -13    1    5    5    0    0 -0.48212668516E+02  0.78686479189E+02  0.56555870252E+02  0.10823395896E+03  0.00000000000E+00 0.  1.
          3    1    6    6  503    0  0.33528048734E+03  0.43474353575E+03  0.10281755819E+03  0.55855742528E+03  0.00000000000E+00 0. -1.
         -3    1    6    6    0  503  0.30273620803E+03  0.47575240944E+03  0.18108588806E+03  0.59226823787E+03  0.00000000000E+00 0.  1.
<mgrwt>
<rscale>  0 0.32716954E+04</rscale>
<asrwt>0</asrwt>
<pdfrwt beam="1">  1        2 0.35064044E+00 0.32716954E+04</pdfrwt>
<pdfrwt beam="2">  1       -1 0.18063297E+00 0.32716954E+04</pdfrwt>
<totfact> 0.91301694E-01</totfact>
</mgrwt>
</event>
<event>
12    7  0.1701638E-007  0.1006523E+04  0.7818608E-02  0.9301419E-01
          2   -1    0    0  501    0  0.00000000000E+00  0.00000000000E+00  0.12984386299E+03  0.12984386299E+03  0.00000000000E+00 0. -1.
         -1   -1    0    0    0  501 -0.00000000000E+00 -0.00000000000E+00 -0.19505895873E+04  0.19505895873E+04  0.00000000000E+00 0.  1.
         24    2    1    2    0    0  0.25349719500E+02  0.33242669139E+02 -0.29431690783E+03  0.30756426529E+03  0.78902799177E+02 0.  0.
        254    2    1    2    0    0 -0.25349719500E+02 -0.33242669139E+02 -0.15264288164E+04  0.17728691850E+04  0.90073999134E+03 0.  0.
         23    2    4    4    0    0  0.26321200068E+03  0.15292509762E+02 -0.74611770696E+02  0.28910631140E+03  0.92201544500E+02 0.  0.
         23    2    4    4    0    0 -0.28856172018E+03 -0.48535178900E+02 -0.14518170457E+04  0.14837628736E+04  0.90310579189E+02 0.  0.
          4    1    3    3  502    0 -0.21353032623E+02 -0.11321127605E+02 -0.96530382869E+02  0.99509973115E+02  0.00000000000E+00 0. -1.
         -3    1    3    3    0  502  0.46702752123E+02  0.44563796744E+02 -0.19778652496E+03  0.20805429218E+03  0.00000000000E+00 0.  1.
         13    1    5    5    0    0  0.18294893893E+03 -0.32590859496E+02 -0.47915458622E+02  0.19190718995E+03  0.00000000000E+00 0.  1.
        -13    1    5    5    0    0  0.80263061748E+02  0.47883369257E+02 -0.26696312074E+02  0.97199121451E+02  0.00000000000E+00 0. -1.
          3    1    6    6  503    0 -0.19772073084E+03 -0.38673720812E+02 -0.77297657722E+03  0.79880030860E+03  0.00000000000E+00 0. -1.
         -3    1    6    6    0  503 -0.90840989334E+02 -0.98614580884E+01 -0.67884046852E+03  0.68496256497E+03  0.00000000000E+00 0.  1.
<mgrwt>
<rscale>  0 0.10065229E+04</rscale>
<asrwt>0</asrwt>
<pdfrwt beam="1">  1        2 0.19975979E-01 0.10065229E+04</pdfrwt>
<pdfrwt beam="2">  1       -1 0.30009070E+00 0.10065229E+04</pdfrwt>
<totfact> 0.10917711E+01</totfact>
</mgrwt>
</event>
<event>
12    7  0.1701638E-007  0.1495209E+04  0.7818608E-02  0.8887645E-01
         -1   -1    0    0    0  501 -0.00000000000E+00  0.00000000000E+00  0.19655649358E+03  0.19655649358E+03  0.00000000000E+00 0.  1.
          2   -1    0    0  501    0  0.00000000000E+00 -0.00000000000E+00 -0.28435223316E+04  0.28435223316E+04  0.00000000000E+00 0. -1.
         24    2    1    2    0    0  0.12036530934E+03 -0.21036738488E+03 -0.17051165482E+04  0.17236419663E+04  0.69115416389E+02 0.  0.
        254    2    1    2    0    0 -0.12036530934E+03  0.21036738488E+03 -0.94184928980E+03  0.13164368588E+04  0.88723372022E+03 0.  0.
         23    2    4    4    0    0 -0.20743992343E+03 -0.31112079427E+03 -0.39352293670E+03  0.54999158623E+03  0.88334436971E+02 0.  0.
         23    2    4    4    0    0  0.87074614091E+02  0.52148817915E+03 -0.54832635311E+03  0.76644527261E+03  0.85115550775E+02 0.  0.
          2    1    3    3  502    0  0.11524477856E+03 -0.14201850847E+03 -0.11857559579E+04  0.11997782326E+04  0.00000000000E+00 0. -1.
         -1    1    3    3    0  502  0.51205307873E+01 -0.68348876412E+02 -0.51936059032E+03  0.52386373373E+03  0.00000000000E+00 0.  1.
         13    1    5    5    0    0 -0.18522308734E+02 -0.88425047988E+02 -0.71033672895E+02  0.11492540066E+03  0.00000000000E+00 0. -1.
        -13    1    5    5    0    0 -0.18891761470E+03 -0.22269574628E+03 -0.32248926380E+03  0.43506618557E+03  0.00000000000E+00 0.  1.
          4    1    6    6  503    0  0.29295968254E+02  0.88376315323E+02 -0.58073759332E+02  0.10973234887E+03  0.00000000000E+00 0. -1.
         -4    1    6    6    0  503  0.57778645837E+02  0.43311186383E+03 -0.49025259377E+03  0.65671292374E+03  0.00000000000E+00 0.  1.
<mgrwt>
<rscale>  0 0.14952094E+04</rscale>
<asrwt>0</asrwt>
<pdfrwt beam="1">  1        2 0.43746498E+00 0.14952094E+04</pdfrwt>
<pdfrwt beam="2">  1       -1 0.30239460E-01 0.14952094E+04</pdfrwt>
<totfact> 0.24236028E+01</totfact>
</mgrwt>
</event>
<event>
12    7  0.1701638E-007  0.1319162E+04  0.7818608E-02  0.9014506E-01
          2   -1    0    0  501    0  0.00000000000E+00  0.00000000000E+00  0.15031390328E+04  0.15031390328E+04  0.00000000000E+00 0. -1.
         -1   -1    0    0    0  501 -0.00000000000E+00 -0.00000000000E+00 -0.28942556303E+03  0.28942556303E+03  0.00000000000E+00 0.  1.
         24    2    1    2    0    0 -0.30975458933E+03 -0.48558461147E+02  0.50846165516E+03  0.60368675220E+03  0.87170007757E+02 0.  0.
        254    2    1    2    0    0  0.30975458933E+03  0.48558461147E+02  0.70525181461E+03  0.11888778436E+04  0.90429230634E+03 0.  0.
         23    2    4    4    0    0  0.34970942902E+03  0.42542344287E+03  0.49109625005E+03  0.74392142889E+03  0.94666652284E+02 0.  0.
         23    2    4    4    0    0 -0.39954839690E+02 -0.37686498172E+03  0.21415556456E+03  0.44495641474E+03  0.92195452837E+02 0.  0.
          4    1    3    3  502    0 -0.10660918267E+03 -0.28799960827E+02  0.25767226222E+03  0.28033899174E+03  0.00000000000E+00 0. -1.
         -3    1    3    3    0  502 -0.20314540666E+03 -0.19758500320E+02  0.25078939294E+03  0.32334776046E+03  0.00000000000E+00 0.  1.
         13    1    5    5    0    0  0.12303895389E+03  0.20650411263E+03  0.25277804168E+03  0.34882555965E+03  0.00000000000E+00 0. -1.
        -13    1    5    5    0    0  0.22667047514E+03  0.21891933024E+03  0.23831820836E+03  0.39509586924E+03  0.00000000000E+00 0.  1.
          2    1    6    6  503    0  0.19243107968E+02 -0.35564577366E+02  0.61383319264E+01  0.40900067070E+02  0.00000000000E+00 0. -1.
         -2    1    6    6    0  503 -0.59197947658E+02 -0.34130040436E+03  0.20801723263E+03  0.40405634767E+03  0.00000000000E+00 0.  1.
<mgrwt>
<rscale>  0 0.13191616E+04</rscale>
<asrwt>0</asrwt>
<pdfrwt beam="1">  1        2 0.23125215E+00 0.13191616E+04</pdfrwt>
<pdfrwt beam="2">  1       -1 0.44527011E-01 0.13191616E+04</pdfrwt>
<totfact> 0.70418088E+01</totfact>
</mgrwt>
</event>
<event>
12    7  0.1701638E-007  0.9262815E+03  0.7818608E-02  0.9393312E-01
         -1   -1    0    0    0  501 -0.00000000000E+00  0.00000000000E+00  0.14297072620E+03  0.14297072620E+03  0.00000000000E+00 0.  1.
          2   -1    0    0  501    0  0.00000000000E+00 -0.00000000000E+00 -0.15003027126E+04  0.15003027126E+04  0.00000000000E+00 0. -1.
         24    2    1    2    0    0  0.20164023150E+01  0.80200795895E+02 -0.15932012384E+03  0.19650226108E+03  0.82425743605E+02 0.  0.
        254    2    1    2    0    0 -0.20164023150E+01 -0.80200795895E+02 -0.11980118626E+04  0.14467711778E+04  0.80714198522E+03 0.  0.
         23    2    4    4    0    0  0.91194384620E+01 -0.39447451846E+03 -0.96181586936E+03  0.10434408849E+04  0.89363324683E+02 0.  0.
         23    2    4    4    0    0 -0.11135840777E+02  0.31427372256E+03 -0.23619599325E+03  0.40333029289E+03  0.89413635941E+02 0.  0.
          4    1    3    3  502    0 -0.12347700412E+02  0.87807218742E+02 -0.15668615143E+03  0.18003645025E+03  0.00000000000E+00 0. -1.
         -3    1    3    3    0  502  0.14364102727E+02 -0.76064228473E+01 -0.26339724109E+01  0.16465810831E+02  0.00000000000E+00 0.  1.
         13    1    5    5    0    0 -0.29546017067E+01  0.44690629658E+01 -0.10432648839E+02  0.11727845362E+02  0.00000000000E+00 0. -1.
        -13    1    5    5    0    0  0.12074040169E+02 -0.39894358142E+03 -0.95138322053E+03  0.10317130395E+04  0.00000000000E+00 0.  1.
          2    1    6    6  503    0 -0.13538011181E+02  0.26794634680E+01 -0.19072037597E+02  0.23541450450E+02  0.00000000000E+00 0. -1.
         -2    1    6    6    0  503  0.24021704037E+01  0.31159425909E+03 -0.21712395565E+03  0.37978884244E+03  0.00000000000E+00 0.  1.
<mgrwt>
<rscale>  0 0.92628153E+03</rscale>
<asrwt>0</asrwt>
<pdfrwt beam="1">  1        2 0.23081580E+00 0.92628153E+03</pdfrwt>
<pdfrwt beam="2">  1       -1 0.21995497E-01 0.92628153E+03</pdfrwt>
<totfact> 0.25226552E+02</totfact>
</mgrwt>
</event>
<event>
12    7  0.1701638E-007  0.3711209E+04  0.7818608E-02  0.8065482E-01
          4   -1    0    0  501    0  0.00000000000E+00  0.00000000000E+00  0.13640899065E+04  0.13640899065E+04  0.00000000000E+00 0. -1.
         -3   -1    0    0    0  501 -0.00000000000E+00 -0.00000000000E+00 -0.25242242003E+04  0.25242242003E+04  0.00000000000E+00 0.  1.
         24    2    1    2    0    0  0.86092864588E+03  0.35142016463E+03  0.10039624936E+04  0.13707952700E+04  0.80279003018E+02 0.  0.
        254    2    1    2    0    0 -0.86092864588E+03 -0.35142016463E+03 -0.21640967874E+04  0.25175188367E+04  0.88875864148E+03 0.  0.
         23    2    4    4    0    0 -0.13724136929E+01 -0.55221997567E+02 -0.11419957391E+04  0.11468922522E+04  0.90311778996E+02 0.  0.
         23    2    4    4    0    0 -0.85955623219E+03 -0.29619816706E+03 -0.10221010483E+04  0.13706265846E+04  0.85769522391E+02 0.  0.
          4    1    3    3  502    0  0.59730569711E+03  0.27510747938E+03  0.67497283593E+03  0.94236221818E+03  0.00000000000E+00 0. -1.
         -3    1    3    3    0  502  0.26362294877E+03  0.76312685249E+02  0.32898965764E+03  0.42843305181E+03  0.00000000000E+00 0.  1.
         13    1    5    5    0    0  0.17585327057E+02  0.20899761701E+02 -0.31784832431E+03  0.31901975023E+03  0.00000000000E+00 0.  1.
        -13    1    5    5    0    0 -0.18957740750E+02 -0.76121759267E+02 -0.82414741480E+03  0.82787250196E+03  0.00000000000E+00 0. -1.
          4    1    6    6  503    0 -0.42987105232E+03 -0.13144054778E+03 -0.56494645282E+03  0.72196276482E+03  0.00000000000E+00 0.  1.
         -4    1    6    6    0  503 -0.42968517987E+03 -0.16475761928E+03 -0.45715459543E+03  0.64866381973E+03  0.00000000000E+00 0. -1.
<mgrwt>
<rscale>  0 0.37112094E+04</rscale>
<asrwt>0</asrwt>
<pdfrwt beam="1">  1        4 0.20985999E+00 0.37112094E+04</pdfrwt>
<pdfrwt beam="2">  1       -3 0.38834218E+00 0.37112094E+04</pdfrwt>
<totfact> 0.25371704E-03</totfact>
</mgrwt>
</event>
<event>
12    7  0.1701638E-007  0.1522091E+04  0.7818608E-02  0.8869894E-01
         -1   -1    0    0    0  501 -0.00000000000E+00  0.00000000000E+00  0.19754994938E+03  0.19754994938E+03  0.00000000000E+00 0.  1.
          2   -1    0    0  501    0  0.00000000000E+00 -0.00000000000E+00 -0.29318675044E+04  0.29318675044E+04  0.00000000000E+00 0. -1.
         24    2    1    2    0    0  0.87337376031E+02 -0.30774006421E+03 -0.16758429366E+04  0.17080079790E+04  0.80684223316E+02 0.  0.
        254    2    1    2    0    0 -0.87337376031E+02  0.30774006421E+03 -0.10584746184E+04  0.14214094747E+04  0.89314310874E+03 0.  0.
         23    2    4    4    0    0 -0.24448249282E+03  0.49253961579E+03 -0.10162374978E+04  0.11590415074E+04  0.90948345267E+02 0.  0.
         23    2    4    4    0    0  0.15714511679E+03 -0.18479955158E+03 -0.42237120552E+02  0.26236796730E+03  0.90595330562E+02 0.  0.
          2    1    3    3  502    0  0.69348996280E+02 -0.12332037927E+03 -0.84410609974E+03  0.85588101208E+03  0.00000000000E+00 0. -1.
         -1    1    3    3    0  502  0.17988379751E+02 -0.18441968494E+03 -0.83173683686E+03  0.85212696694E+03  0.00000000000E+00 0.  1.
         13    1    5    5    0    0 -0.22217539822E+03  0.37299579439E+03 -0.75601904365E+03  0.87180993603E+03  0.00000000000E+00 0. -1.
        -13    1    5    5    0    0 -0.22307094599E+02  0.11954382140E+03 -0.26021845418E+03  0.28723157138E+03  0.00000000000E+00 0.  1.
          2    1    6    6  503    0  0.93365165786E+02 -0.52623931910E+02 -0.43336946998E+02  0.11560459925E+03  0.00000000000E+00 0. -1.
         -2    1    6    6    0  503  0.63779951000E+02 -0.13217561967E+03  0.10998264459E+01  0.14676336805E+03  0.00000000000E+00 0.  1.
<mgrwt>
<rscale>  0 0.15220910E+04</rscale>
<asrwt>0</asrwt>
<pdfrwt beam="1">  1        2 0.45105651E+00 0.15220910E+04</pdfrwt>
<pdfrwt beam="2">  1       -1 0.30392302E-01 0.15220910E+04</pdfrwt>
<totfact> 0.21166016E+01</totfact>
</mgrwt>
</event>
<event>
12    7  0.1701638E-007  0.1911423E+04  0.7818608E-02  0.8649191E-01
          2   -1    0    0  501    0  0.00000000000E+00  0.00000000000E+00  0.32499203301E+04  0.32499203301E+04  0.00000000000E+00 0. -1.
         -1   -1    0    0    0  501 -0.00000000000E+00 -0.00000000000E+00 -0.28104829120E+03  0.28104829120E+03  0.00000000000E+00 0.  1.
         24    2    1    2    0    0 -0.65425053953E+03 -0.29347118178E+03  0.13093483093E+04  0.14952615718E+04  0.85117977890E+02 0.  0.
        254    2    1    2    0    0  0.65425053953E+03  0.29347118178E+03  0.16595237296E+04  0.20357070495E+04  0.93590334923E+03 0.  0.
         23    2    4    4    0    0  0.84573336231E+03  0.22226871940E+03  0.96657450547E+03  0.13074623404E+04  0.10258261645E+03 0.  0.
         23    2    4    4    0    0 -0.19148282278E+03  0.71202462384E+02  0.69294922416E+03  0.72824470908E+03  0.91794700134E+02 0.  0.
          4    1    3    3  502    0 -0.62886470085E+03 -0.26523843776E+03  0.12602405390E+04  0.14331882140E+04  0.00000000000E+00 0. -1.
         -3    1    3    3    0  502 -0.25385838685E+02 -0.28232744023E+02  0.49107770308E+02  0.62073357775E+02  0.00000000000E+00 0.  1.
         13    1    5    5    0    0  0.38603505993E+03  0.15435575101E+03  0.45316157722E+03  0.61498307329E+03  0.00000000000E+00 0. -1.
        -13    1    5    5    0    0  0.45969830238E+03  0.67912968393E+02  0.51341292825E+03  0.69247926711E+03  0.00000000000E+00 0.  1.
          3    1    6    6  503    0 -0.27739431907E+02 -0.94762416560E+01  0.20841599437E+03  0.21046734176E+03  0.00000000000E+00 0. -1.
         -3    1    6    6    0  503 -0.16374339087E+03  0.80678704040E+02  0.48453322979E+03  0.51777736732E+03  0.00000000000E+00 0.  1.
<mgrwt>
<rscale>  0 0.19114231E+04</rscale>
<asrwt>0</asrwt>
<pdfrwt beam="1">  1        2 0.49998772E+00 0.19114231E+04</pdfrwt>
<pdfrwt beam="2">  1       -1 0.43238201E-01 0.19114231E+04</pdfrwt>
<totfact> 0.67888173E+00</totfact>
</mgrwt>
</event>
<event>
12    7  0.1701638E-007  0.2108309E+04  0.7818608E-02  0.8557592E-01
         -1   -1    0    0    0  501 -0.00000000000E+00  0.00000000000E+00  0.30454937306E+03  0.30454937306E+03  0.00000000000E+00 0.  1.
          2   -1    0    0  501    0  0.00000000000E+00 -0.00000000000E+00 -0.36488053989E+04  0.36488053989E+04  0.00000000000E+00 0. -1.
         24    2    1    2    0    0 -0.44679876570E+03  0.46857765566E+03 -0.23903686696E+04  0.24777429328E+04  0.78444296777E+02 0.  0.
        254    2    1    2    0    0  0.44679876570E+03 -0.46857765566E+03 -0.95388735623E+03  0.14756118392E+04  0.92105106006E+03 0.  0.
         23    2    4    4    0    0  0.63409927164E+03 -0.56976931404E+03 -0.57793254701E+03  0.10341276329E+04  0.93246848791E+02 0.  0.
         23    2    4    4    0    0 -0.18730050594E+03  0.10119165838E+03 -0.37595480922E+03  0.44148420627E+03  0.90802282766E+02 0.  0.
          2    1    3    3  502    0 -0.42237331814E+03  0.43976233174E+03 -0.21647898270E+04  0.22490231487E+04  0.00000000000E+00 0. -1.
         -1    1    3    3    0  502 -0.24425447558E+02  0.28815323929E+02 -0.22557884264E+03  0.22871978408E+03  0.00000000000E+00 0.  1.
         13    1    5    5    0    0  0.57843652730E+03 -0.50811407357E+03 -0.55113827887E+03  0.94684852554E+03  0.00000000000E+00 0.  1.
        -13    1    5    5    0    0  0.55662744336E+02 -0.61655240471E+02 -0.26794268143E+02  0.87279107408E+02  0.00000000000E+00 0. -1.
          2    1    6    6  503    0 -0.70013450153E+02  0.57182271825E+02 -0.24076715612E+03  0.25717799066E+03  0.00000000000E+00 0. -1.
         -2    1    6    6    0  503 -0.11728705579E+03  0.44009386554E+02 -0.13518765310E+03  0.18430621561E+03  0.00000000000E+00 0.  1.
<mgrwt>
<rscale>  0 0.21083087E+04</rscale>
<asrwt>0</asrwt>
<pdfrwt beam="1">  1        2 0.56135466E+00 0.21083087E+04</pdfrwt>
<pdfrwt beam="2">  1       -1 0.46853751E-01 0.21083087E+04</pdfrwt>
<totfact> 0.30451068E+00</totfact>
</mgrwt>
</event>
<event>
12    7  0.1701638E-007  0.1344190E+04  0.7818608E-02  0.8995238E-01
         -1   -1    0    0    0  501 -0.00000000000E+00  0.00000000000E+00  0.25222876357E+03  0.25222876357E+03  0.00000000000E+00 0.  1.
          2   -1    0    0  501    0  0.00000000000E+00 -0.00000000000E+00 -0.17908808764E+04  0.17908808764E+04  0.00000000000E+00 0. -1.
         24    2    1    2    0    0  0.21745925939E+03 -0.29947470203E+03 -0.43402927740E+03  0.57600510811E+03  0.80167601193E+02 0.  0.
        254    2    1    2    0    0 -0.21745925939E+03  0.29947470203E+03 -0.11046228355E+04  0.14671045319E+04  0.89175695803E+03 0.  0.
         23    2    4    4    0    0 -0.17105452635E+03 -0.22789586942E+03 -0.79056168502E+03  0.84509106123E+03  0.89414460055E+02 0.  0.
         23    2    4    4    0    0 -0.46404733045E+02  0.52737057145E+03 -0.31406115044E+03  0.62201347066E+03  0.89404880079E+02 0.  0.
          4    1    3    3  502    0  0.42028486991E+02 -0.11509194797E+03 -0.11652616205E+03  0.16908842849E+03  0.00000000000E+00 0. -1.
         -3    1    3    3    0  502  0.17543077240E+03 -0.18438275406E+03 -0.31750311535E+03  0.40691667962E+03  0.00000000000E+00 0.  1.
         13    1    5    5    0    0 -0.14594194824E+03 -0.12717873565E+03 -0.47651714141E+03  0.51433653294E+03  0.00000000000E+00 0. -1.
        -13    1    5    5    0    0 -0.25112578105E+02 -0.10071713377E+03 -0.31404454361E+03  0.33075452829E+03  0.00000000000E+00 0.  1.
          3    1    6    6  503    0 -0.36292691753E+01  0.16711222510E+02 -0.33930947547E+02  0.37996654510E+02  0.00000000000E+00 0. -1.
         -3    1    6    6    0  503 -0.42775463870E+02  0.51065934894E+03 -0.28013020290E+03  0.58401681615E+03  0.00000000000E+00 0.  1.
<mgrwt>
<rscale>  0 0.13441900E+04</rscale>
<asrwt>0</asrwt>
<pdfrwt beam="1">  1        2 0.27552013E+00 0.13441900E+04</pdfrwt>
<pdfrwt beam="2">  1       -1 0.38804426E-01 0.13441900E+04</pdfrwt>
<totfact> 0.62576481E+01</totfact>
</mgrwt>
</event>
<event>
12    7  0.1701638E-007  0.2338645E+04  0.7818608E-02  0.8462838E-01
         -1   -1    0    0    0  501 -0.00000000000E+00  0.00000000000E+00  0.10885130603E+04  0.10885130603E+04  0.00000000000E+00 0.  1.
          2   -1    0    0  501    0  0.00000000000E+00 -0.00000000000E+00 -0.12561313946E+04  0.12561313946E+04  0.00000000000E+00 0. -1.
         24    2    1    2    0    0 -0.19101873711E+03 -0.51191466128E+03  0.76140694244E+03  0.94027842760E+03  0.76408187052E+02 0.  0.
        254    2    1    2    0    0  0.19101873711E+03  0.51191466128E+03 -0.92902527677E+03  0.14043660273E+04  0.90033948894E+03 0.  0.
         23    2    4    4    0    0 -0.11521038388E+03 -0.90221967103E+02 -0.64236809687E+03  0.66500875389E+03  0.90478919981E+02 0.  0.
         23    2    4    4    0    0  0.30622912099E+03  0.60213662838E+03 -0.28665717989E+03  0.73935727339E+03  0.90177852887E+02 0.  0.
          4    1    3    3  502    0 -0.66212571970E+02 -0.90066943180E+02  0.15453043647E+03  0.19072444714E+03  0.00000000000E+00 0. -1.
         -3    1    3    3    0  502 -0.12480616514E+03 -0.42184771810E+03  0.60687650597E+03  0.74955398046E+03  0.00000000000E+00 0.  1.
         13    1    5    5    0    0 -0.94355250928E+01 -0.43441078069E+02 -0.86707274515E+02  0.97438738967E+02  0.00000000000E+00 0.  1.
        -13    1    5    5    0    0 -0.10577485879E+03 -0.46780889034E+02 -0.55566082236E+03  0.56757001492E+03  0.00000000000E+00 0. -1.
          2    1    6    6  503    0  0.29536084600E+03  0.55357716828E+03 -0.24199658051E+03  0.67249390746E+03  0.00000000000E+00 0. -1.
         -2    1    6    6    0  503  0.10868274990E+02  0.48559460104E+02 -0.44660599382E+02  0.66863365934E+02  0.00000000000E+00 0.  1.
<mgrwt>
<rscale>  0 0.23386453E+04</rscale>
<asrwt>0</asrwt>
<pdfrwt beam="1">  1        2 0.19325098E+00 0.23386453E+04</pdfrwt>
<pdfrwt beam="2">  1       -1 0.16746355E+00 0.23386453E+04</pdfrwt>
<totfact> 0.46419803E+00</totfact>
</mgrwt>
</event>
<event>
12    7  0.1701638E-007  0.2008301E+04  0.7818608E-02  0.8602749E-01
          2   -1    0    0  501    0  0.00000000000E+00  0.00000000000E+00  0.81019464867E+03  0.81019464867E+03  0.00000000000E+00 0. -1.
         -1   -1    0    0    0  501 -0.00000000000E+00 -0.00000000000E+00 -0.12445382857E+04  0.12445382857E+04  0.00000000000E+00 0.  1.
         24    2    1    2    0    0  0.23442230811E+02 -0.18180169041E+03  0.62429015742E+03  0.65458431917E+03  0.71701028120E+02 0.  0.
        254    2    1    2    0    0 -0.23442230811E+02  0.18180169041E+03 -0.10586337945E+04  0.14001486152E+04  0.89783586534E+03 0.  0.
         23    2    4    4    0    0  0.24741665900E+03  0.11033400503E+03  0.15323573062E+02  0.28645683083E+03  0.91837400997E+02 0.  0.
         23    2    4    4    0    0 -0.27085888982E+03  0.71467685387E+02 -0.10739573675E+04  0.11136917844E+04  0.91939083630E+02 0.  0.
          4    1    3    3  502    0  0.70418070273E+01 -0.15915819583E+03  0.58537372995E+03  0.60666574162E+03  0.00000000000E+00 0. -1.
         -3    1    3    3    0  502  0.16400423784E+02 -0.22643494582E+02  0.38916427470E+02  0.47918577548E+02  0.00000000000E+00 0.  1.
         13    1    5    5    0    0  0.91268223432E+02  0.46326056924E+02 -0.38453383917E+02  0.10933734446E+03  0.00000000000E+00 0. -1.
        -13    1    5    5    0    0  0.15614843557E+03  0.64007948102E+02  0.53776956978E+02  0.17711948638E+03  0.00000000000E+00 0.  1.
          3    1    6    6  503    0 -0.69415278841E+02 -0.21555066872E+02 -0.28567975369E+03  0.29478131473E+03  0.00000000000E+00 0. -1.
         -3    1    6    6    0  503 -0.20144361097E+03  0.93022752259E+02 -0.78827761383E+03  0.81891046965E+03  0.00000000000E+00 0.  1.
<mgrwt>
<rscale>  0 0.20083010E+04</rscale>
<asrwt>0</asrwt>
<pdfrwt beam="1">  1        2 0.12464533E+00 0.20083010E+04</pdfrwt>
<pdfrwt beam="2">  1       -1 0.19146743E+00 0.20083010E+04</pdfrwt>
<totfact> 0.61917558E+00</totfact>
</mgrwt>
</event>
<event>
12    7  0.1701638E-007  0.1971817E+04  0.7818608E-02  0.8619912E-01
         -1   -1    0    0    0  501 -0.00000000000E+00  0.00000000000E+00  0.20367662019E+04  0.20367662019E+04  0.00000000000E+00 0.  1.
          2   -1    0    0  501    0  0.00000000000E+00 -0.00000000000E+00 -0.47723474299E+03  0.47723474299E+03  0.00000000000E+00 0. -1.
         24    2    1    2    0    0  0.13936324426E+03  0.53801146204E+03  0.13223995275E+04  0.14367716954E+04  0.81816546327E+02 0.  0.
        254    2    1    2    0    0 -0.13936324426E+03 -0.53801146204E+03  0.23713193146E+03  0.10772292495E+04  0.89180314868E+03 0.  0.
         23    2    4    4    0    0  0.35998470738E+03 -0.28325982811E+03  0.20197893104E+03  0.50825294291E+03  0.87752183016E+02 0.  0.
         23    2    4    4    0    0 -0.49934795163E+03 -0.25475163392E+03  0.35153000420E+02  0.56897630662E+03  0.90837945117E+02 0.  0.
          4    1    3    3  502    0  0.37042855583E+02  0.22675970180E+03  0.45898853260E+03  0.51328608842E+03  0.00000000000E+00 0. -1.
         -3    1    3    3    0  502  0.10232038867E+03  0.31125176023E+03  0.86341099489E+03  0.92348560697E+03  0.00000000000E+00 0.  1.
         13    1    5    5    0    0  0.10902492695E+03 -0.13102098057E+03  0.49533861828E+02  0.17750080426E+03  0.00000000000E+00 0. -1.
        -13    1    5    5    0    0  0.25095978043E+03 -0.15223884754E+03  0.15244506921E+03  0.33075213865E+03  0.00000000000E+00 0.  1.
          1    1    6    6  503    0 -0.25859195655E+02 -0.21976162330E+02  0.23419120963E+02  0.41232328789E+02  0.00000000000E+00 0. -1.
         -1    1    6    6    0  503 -0.47348875598E+03 -0.23277547159E+03  0.11733879457E+02  0.52774397784E+03  0.00000000000E+00 0.  1.
<mgrwt>
<rscale>  0 0.19718170E+04</rscale>
<asrwt>0</asrwt>
<pdfrwt beam="1">  1        2 0.73420731E-01 0.19718170E+04</pdfrwt>
<pdfrwt beam="2">  1       -1 0.31334864E+00 0.19718170E+04</pdfrwt>
<totfact> 0.18721764E+00</totfact>
</mgrwt>
</event>
<event>
12    7  0.1701638E-007  0.2062013E+04  0.7818608E-02  0.8578164E-01
          2   -1    0    0  501    0  0.00000000000E+00  0.00000000000E+00  0.32803457322E+04  0.32803457322E+04  0.00000000000E+00 0. -1.
         -1   -1    0    0    0  501 -0.00000000000E+00 -0.00000000000E+00 -0.32404355905E+03  0.32404355905E+03  0.00000000000E+00 0.  1.
         24    2    1    2    0    0  0.27461871577E+03  0.78142284130E+02 -0.16755669102E+03  0.34262828417E+03  0.88301986305E+02 0.  0.
        254    2    1    2    0    0 -0.27461871577E+03 -0.78142284130E+02  0.31238588642E+04  0.32617610071E+04  0.89390659939E+03 0.  0.
         23    2    4    4    0    0 -0.58141092698E+03  0.27857792005E+02  0.22233030798E+04  0.23000584581E+04  0.91529248062E+02 0.  0.
         23    2    4    4    0    0  0.30679221121E+03 -0.10600007614E+03  0.90055578439E+03  0.96170254904E+03  0.92269144510E+02 0.  0.
          4    1    3    3  502    0  0.19790995842E+01 -0.25168869402E+01  0.79023122097E+01  0.85263176867E+01  0.00000000000E+00 0. -1.
         -3    1    3    3    0  502  0.27263961619E+03  0.80659171071E+02 -0.17545900323E+03  0.33410196648E+03  0.00000000000E+00 0.  1.
         13    1    5    5    0    0  0.24400295070E+01  0.50426757007E+00  0.33500872575E+02  0.33593399546E+02  0.00000000000E+00 0. -1.
        -13    1    5    5    0    0 -0.58385095649E+03  0.27353524435E+02  0.21898022072E+04  0.22664650585E+04  0.00000000000E+00 0.  1.
          2    1    6    6  503    0  0.10120562334E+02 -0.19977230464E+02  0.26636526784E+02  0.34799713764E+02  0.00000000000E+00 0. -1.
         -2    1    6    6    0  503  0.29667164888E+03 -0.86022845672E+02  0.87391925760E+03  0.92690283527E+03  0.00000000000E+00 0.  1.
<mgrwt>
<rscale>  0 0.20620135E+04</rscale>
<asrwt>0</asrwt>
<pdfrwt beam="1">  1        2 0.50466855E+00 0.20620135E+04</pdfrwt>
<pdfrwt beam="2">  1       -1 0.49852857E-01 0.20620135E+04</pdfrwt>
<totfact> 0.48919130E+00</totfact>
</mgrwt>
</event>
<event>
12    7  0.1701638E-007  0.1456206E+04  0.7818608E-02  0.8914109E-01
          2   -1    0    0  501    0  0.00000000000E+00  0.00000000000E+00  0.26535133783E+04  0.26535133783E+04  0.00000000000E+00 0. -1.
         -1   -1    0    0    0  501 -0.00000000000E+00 -0.00000000000E+00 -0.19978574456E+03  0.19978574456E+03  0.00000000000E+00 0.  1.
         24    2    1    2    0    0  0.41340018787E+03 -0.16109535763E+03  0.94423366635E+03  0.10462081904E+04  0.78249162125E+02 0.  0.
        254    2    1    2    0    0 -0.41340018787E+03  0.16109535763E+03  0.15094939674E+04  0.18070909324E+04  0.88890616548E+03 0.  0.
         23    2    4    4    0    0 -0.19718755163E+03  0.34747906331E+03  0.18762620566E+03  0.45147423342E+03  0.94872337575E+02 0.  0.
         23    2    4    4    0    0 -0.21621263624E+03 -0.18638370567E+03  0.13218677617E+04  0.13556166990E+04  0.94209688652E+02 0.  0.
          2    1    3    3  502    0  0.20990463428E+03 -0.61723320916E+02  0.38438647718E+03  0.44229253632E+03  0.00000000000E+00 0. -1.
         -1    1    3    3    0  502  0.20349555359E+03 -0.99372036717E+02  0.55984718916E+03  0.60391565406E+03  0.00000000000E+00 0.  1.
         13    1    5    5    0    0 -0.15705833859E+03  0.19851768060E+03  0.14366679084E+03  0.29106139906E+03  0.00000000000E+00 0.  1.
        -13    1    5    5    0    0 -0.40129213045E+02  0.14896138270E+03  0.43959414822E+02  0.16041283436E+03  0.00000000000E+00 0. -1.
          1    1    6    6  503    0 -0.20697638977E+03 -0.16179994984E+03  0.10454289745E+04  0.10779332959E+04  0.00000000000E+00 0. -1.
         -1    1    6    6    0  503 -0.92362464697E+01 -0.24583755831E+02  0.27643878719E+03  0.27768340311E+03  0.00000000000E+00 0.  1.
<mgrwt>
<rscale>  0 0.14562062E+04</rscale>
<asrwt>0</asrwt>
<pdfrwt beam="1">  1        2 0.40823280E+00 0.14562062E+04</pdfrwt>
<pdfrwt beam="2">  1       -1 0.30736270E-01 0.14562062E+04</pdfrwt>
<totfact> 0.30679986E+01</totfact>
</mgrwt>
</event>
<event>
12    7  0.1701638E-007  0.2037466E+04  0.7818608E-02  0.8589302E-01
         -1   -1    0    0    0  501 -0.00000000000E+00  0.00000000000E+00  0.47166675404E+03  0.47166675404E+03  0.00000000000E+00 0.  1.
          2   -1    0    0  501    0  0.00000000000E+00 -0.00000000000E+00 -0.22003178911E+04  0.22003178911E+04  0.00000000000E+00 0. -1.
         24    2    1    2    0    0  0.12638904746E+03  0.10515636651E+03 -0.17543267236E+04  0.17636114424E+04  0.75040081620E+02 0.  0.
        254    2    1    2    0    0 -0.12638904746E+03 -0.10515636651E+03  0.25675586566E+02  0.90837320273E+03  0.89300088855E+03 0.  0.
         23    2    4    4    0    0  0.18868510421E+03 -0.37159228411E+03  0.17201062228E+03  0.46000219968E+03  0.91276915859E+02 0.  0.
         23    2    4    4    0    0 -0.31507415167E+03  0.26643591760E+03 -0.14633503571E+03  0.44837100305E+03  0.96761534001E+02 0.  0.
          2    1    3    3  502    0  0.10488161088E+03  0.73418483833E+02 -0.15769673646E+04  0.15821556482E+04  0.00000000000E+00 0. -1.
         -1    1    3    3    0  502  0.21507436584E+02  0.31737882674E+02 -0.17735935899E+03  0.18145579419E+03  0.00000000000E+00 0.  1.
         13    1    5    5    0    0  0.59517060687E+02 -0.12797657698E+03  0.10588773874E+03  0.17644403641E+03  0.00000000000E+00 0. -1.
        -13    1    5    5    0    0  0.12916804352E+03 -0.24361570713E+03  0.66122883537E+02  0.28355816327E+03  0.00000000000E+00 0.  1.
          3    1    6    6  503    0 -0.26674603673E+02  0.51693670195E+02  0.47237380736E+01  0.58361663107E+02  0.00000000000E+00 0. -1.
         -3    1    6    6    0  503 -0.28839954800E+03  0.21474224741E+03 -0.15105877379E+03  0.39000933995E+03  0.00000000000E+00 0.  1.
<mgrwt>
<rscale>  0 0.20374659E+04</rscale>
<asrwt>0</asrwt>
<pdfrwt beam="1">  1        2 0.33851045E+00 0.20374659E+04</pdfrwt>
<pdfrwt beam="2">  1       -1 0.72564114E-01 0.20374659E+04</pdfrwt>
<totfact> 0.10424723E+01</totfact>
</mgrwt>
</event>
<event>
12    7  0.1701638E-007  0.1579881E+04  0.7818608E-02  0.8833004E-01
         -1   -1    0    0    0  501 -0.00000000000E+00  0.00000000000E+00  0.28272628249E+03  0.28272628249E+03  0.00000000000E+00 0.  1.
          2   -1    0    0  501    0  0.00000000000E+00 -0.00000000000E+00 -0.22071014968E+04  0.22071014968E+04  0.00000000000E+00 0. -1.
         24    2    1    2    0    0 -0.35555321204E+02 -0.23501422579E+03 -0.13821486587E+04  0.14045104681E+04  0.76281539363E+02 0.  0.
        254    2    1    2    0    0  0.35555321204E+02  0.23501422579E+03 -0.54222655562E+03  0.10853173111E+04  0.90961978927E+03 0.  0.
         23    2    4    4    0    0  0.13803388466E+03 -0.32268919235E+03 -0.16449563783E+03  0.39796522985E+03  0.90198897587E+02 0.  0.
         23    2    4    4    0    0 -0.10247856346E+03  0.55770341815E+03 -0.37773091779E+03  0.68735208128E+03  0.90759455757E+02 0.  0.
          4    1    3    3  502    0 -0.43540056001E+02 -0.23732896011E+03 -0.13323459160E+04  0.13540186157E+04  0.00000000000E+00 0. -1.
         -3    1    3    3    0  502  0.79847347972E+01  0.23147343189E+01 -0.49802742667E+02  0.50491852431E+02  0.00000000000E+00 0.  1.
         13    1    5    5    0    0  0.37174906246E+02 -0.44921382510E+02 -0.62178513066E+02  0.85241256139E+02  0.00000000000E+00 0. -1.
        -13    1    5    5    0    0  0.10085897842E+03 -0.27776780984E+03 -0.10231712477E+03  0.31272397371E+03  0.00000000000E+00 0.  1.
          2    1    6    6  503    0  0.16680680231E+02  0.66932184991E+02 -0.38937928625E+02  0.79210635436E+02  0.00000000000E+00 0. -1.
         -2    1    6    6    0  503 -0.11915924369E+03  0.49077123316E+03 -0.33879298916E+03  0.60814144585E+03  0.00000000000E+00 0.  1.
<mgrwt>
<rscale>  0 0.15798805E+04</rscale>
<asrwt>0</asrwt>
<pdfrwt beam="1">  1        2 0.33955408E+00 0.15798805E+04</pdfrwt>
<pdfrwt beam="2">  1       -1 0.43496350E-01 0.15798805E+04</pdfrwt>
<totfact> 0.29226835E+01</totfact>
</mgrwt>
</event>
<event>
12    7  0.1701638E-007  0.2114191E+04  0.7818608E-02  0.8555018E-01
         -1   -1    0    0    0  501 -0.00000000000E+00  0.00000000000E+00  0.29346707067E+04  0.29346707067E+04  0.00000000000E+00 0.  1.
          2   -1    0    0  501    0  0.00000000000E+00 -0.00000000000E+00 -0.38077573378E+03  0.38077573378E+03  0.00000000000E+00 0. -1.
         24    2    1    2    0    0  0.34098951129E+03 -0.72248636844E+03  0.53426852656E+03  0.96438390227E+03  0.79580481821E+02 0.  0.
        254    2    1    2    0    0 -0.34098951129E+03  0.72248636844E+03  0.20196264464E+04  0.23510625382E+04  0.90019091105E+03 0.  0.
         23    2    4    4    0    0 -0.30082543720E+03  0.48526079742E+03  0.20124655976E+04  0.20938627236E+04  0.90935902912E+02 0.  0.
         23    2    4    4    0    0 -0.40164074089E+02  0.23722557102E+03  0.71608487329E+01  0.25719981462E+03  0.90616458171E+02 0.  0.
          4    1    3    3  502    0  0.18949340280E+03 -0.33247958938E+03  0.22322024574E+03  0.44303239743E+03  0.00000000000E+00 0. -1.
         -1    1    3    3    0  502  0.15149610849E+03 -0.39000677906E+03  0.31104828082E+03  0.52135150484E+03  0.00000000000E+00 0.  1.
         13    1    5    5    0    0 -0.13276514938E+03  0.14870604307E+03  0.60531169911E+03  0.63729296655E+03  0.00000000000E+00 0. -1.
        -13    1    5    5    0    0 -0.16806028783E+03  0.33655475435E+03  0.14071538985E+04  0.14565697571E+04  0.00000000000E+00 0.  1.
          1    1    6    6  503    0 -0.10987011195E+01  0.17068642092E+02 -0.26037375485E+02  0.31152698265E+02  0.00000000000E+00 0. -1.
         -1    1    6    6    0  503 -0.39065372970E+02  0.22015692893E+03  0.33198224218E+02  0.22604711635E+03  0.00000000000E+00 0.  1.
<mgrwt>
<rscale>  0 0.21141915E+04</rscale>
<asrwt>0</asrwt>
<pdfrwt beam="1">  1        2 0.58580884E-01 0.21141915E+04</pdfrwt>
<pdfrwt beam="2">  1       -1 0.45148779E+00 0.21141915E+04</pdfrwt>
<totfact> 0.27945958E-01</totfact>
</mgrwt>
</event>
<event>
12    7  0.1701638E-007  0.3536712E+04  0.7818608E-02  0.8105144E-01
         -1   -1    0    0    0  501 -0.00000000000E+00  0.00000000000E+00  0.15700747789E+04  0.15700747789E+04  0.00000000000E+00 0.  1.
          2   -1    0    0  501    0  0.00000000000E+00 -0.00000000000E+00 -0.19916781802E+04  0.19916781802E+04  0.00000000000E+00 0. -1.
         24    2    1    2    0    0  0.67779470379E+03 -0.10024885999E+02 -0.17144321775E+04  0.18451611425E+04  0.76392353594E+02 0.  0.
        254    2    1    2    0    0 -0.67779470379E+03  0.10024885999E+02  0.12928287762E+04  0.17165918166E+04  0.90320266910E+03 0.  0.
         23    2    4    4    0    0 -0.60499361122E+03 -0.37911936169E+03  0.75732801644E+03  0.10447204469E+04  0.90257009440E+02 0.  0.
         23    2    4    4    0    0 -0.72801092574E+02  0.38914424769E+03  0.53550075979E+03  0.67187136970E+03  0.88976564867E+02 0.  0.
          2    1    3    3  502    0  0.54235030899E+03  0.91493371487E+01 -0.14335093676E+04  0.15327024091E+04  0.00000000000E+00 0. -1.
         -1    1    3    3    0  502  0.13544439480E+03 -0.19174223148E+02 -0.28092280989E+03  0.31245873333E+03  0.00000000000E+00 0.  1.
         13    1    5    5    0    0 -0.54825348474E+03 -0.31235837854E+03  0.68259325057E+03  0.92956074890E+03  0.00000000000E+00 0.  1.
        -13    1    5    5    0    0 -0.56740126481E+02 -0.66760983145E+02  0.74734765873E+02  0.11515969804E+03  0.00000000000E+00 0. -1.
          3    1    6    6  503    0 -0.50057882742E+02  0.71594828940E+02  0.11104562183E+03  0.14128956537E+03  0.00000000000E+00 0. -1.
         -3    1    6    6    0  503 -0.22743209832E+02  0.31754941875E+03  0.42445513796E+03  0.53058180433E+03  0.00000000000E+00 0.  1.
<mgrwt>
<rscale>  0 0.35367124E+04</rscale>
<asrwt>0</asrwt>
<pdfrwt beam="1">  1        2 0.30641203E+00 0.35367124E+04</pdfrwt>
<pdfrwt beam="2">  1       -1 0.24154997E+00 0.35367124E+04</pdfrwt>
<totfact> 0.49838490E-01</totfact>
</mgrwt>
</event>
<event>
12    7  0.1701638E-007  0.2633400E+04  0.7818608E-02  0.8356944E-01
          2   -1    0    0  501    0  0.00000000000E+00  0.00000000000E+00  0.35069375892E+04  0.35069375892E+04  0.00000000000E+00 0. -1.
         -1   -1    0    0    0  501 -0.00000000000E+00 -0.00000000000E+00 -0.49436250941E+03  0.49436250941E+03  0.00000000000E+00 0.  1.
         24    2    1    2    0    0  0.15697985795E+03 -0.10254077975E+04  0.21168279587E+04  0.23586325025E+04  0.77992616384E+02 0.  0.
        254    2    1    2    0    0 -0.15697985795E+03  0.10254077975E+04  0.89574712107E+03  0.16426675961E+04  0.90547782929E+03 0.  0.
         23    2    4    4    0    0 -0.21066712322E+03  0.14151104077E+03  0.67435257222E+03  0.72550246955E+03  0.84831775935E+02 0.  0.
         23    2    4    4    0    0  0.53687265273E+02  0.88389675673E+03  0.22139454886E+03  0.91716512653E+03  0.89557378571E+02 0.  0.
          4    1    3    3  502    0  0.72455228823E+02 -0.68063720373E+03  0.14377641494E+04  0.15923826527E+04  0.00000000000E+00 0. -1.
         -3    1    3    3    0  502  0.84524629126E+02 -0.34477059377E+03  0.67906380931E+03  0.76624984984E+03  0.00000000000E+00 0.  1.
         13    1    5    5    0    0 -0.97387413266E+02  0.17748607061E+02  0.27813667747E+03  0.29522759470E+03  0.00000000000E+00 0.  1.
        -13    1    5    5    0    0 -0.11327970996E+03  0.12376243371E+03  0.39621589474E+03  0.43027487486E+03  0.00000000000E+00 0. -1.
          3    1    6    6  503    0  0.44783572165E+02  0.72967918058E+03  0.14689529939E+03  0.74566447139E+03  0.00000000000E+00 0. -1.
         -3    1    6    6    0  503  0.89036931075E+01  0.15421757614E+03  0.74499249462E+02  0.17150065514E+03  0.00000000000E+00 0.  1.
<mgrwt>
<rscale>  0 0.26333997E+04</rscale>
<asrwt>0</asrwt>
<pdfrwt beam="1">  1        2 0.53952884E+00 0.26333997E+04</pdfrwt>
<pdfrwt beam="2">  1       -1 0.76055773E-01 0.26333997E+04</pdfrwt>
<totfact> 0.14005888E+00</totfact>
</mgrwt>
</event>
<event>
12    7  0.1701638E-007  0.2853955E+04  0.7818608E-02  0.8286711E-01
          2   -1    0    0  501    0  0.00000000000E+00  0.00000000000E+00  0.12244047730E+04  0.12244047730E+04  0.00000000000E+00 0. -1.
         -1   -1    0    0    0  501 -0.00000000000E+00 -0.00000000000E+00 -0.16630650833E+04  0.16630650833E+04  0.00000000000E+00 0.  1.
         24    2    1    2    0    0 -0.79788421504E+03  0.83381127185E+02  0.78661799383E+03  0.11265989978E+04  0.82980724107E+02 0.  0.
        254    2    1    2    0    0  0.79788421504E+03 -0.83381127185E+02 -0.12252783041E+04  0.17608708585E+04  0.97764391522E+03 0.  0.
         23    2    4    4    0    0  0.88916354222E+03  0.23199522020E+03 -0.88082302296E+03  0.12762382613E+04  0.92202574319E+02 0.  0.
         23    2    4    4    0    0 -0.91279327177E+02 -0.31537634738E+03 -0.34445528110E+03  0.48463259726E+03  0.91788657179E+02 0.  0.
          4    1    3    3  502    0 -0.78877521116E+03  0.91703425774E+02  0.77649139151E+03  0.11106370843E+04  0.00000000000E+00 0. -1.
         -3    1    3    3    0  502 -0.91090038810E+01 -0.83222985888E+01  0.10126602322E+02  0.15961913422E+02  0.00000000000E+00 0.  1.
         13    1    5    5    0    0  0.45370856834E+03  0.10715899109E+03 -0.38476591622E+03  0.60446614847E+03  0.00000000000E+00 0.  1.
        -13    1    5    5    0    0  0.43545497387E+03  0.12483622911E+03 -0.49605710675E+03  0.67177211279E+03  0.00000000000E+00 0. -1.
          3    1    6    6  503    0  0.17183482973E+02 -0.22214609958E+02 -0.23572754615E+02  0.36666548007E+02  0.00000000000E+00 0. -1.
         -3    1    6    6    0  503 -0.10846281015E+03 -0.29316173743E+03 -0.32088252649E+03  0.44796604925E+03  0.00000000000E+00 0.  1.
<mgrwt>
<rscale>  0 0.28539550E+04</rscale>
<asrwt>0</asrwt>
<pdfrwt beam="1">  1        2 0.18836997E+00 0.28539550E+04</pdfrwt>
<pdfrwt beam="2">  1       -1 0.25585617E+00 0.28539550E+04</pdfrwt>
<totfact> 0.11542019E+00</totfact>
</mgrwt>
</event>
<event>
12    7  0.1701638E-007  0.1045430E+04  0.7818608E-02  0.9260075E-01
         -1   -1    0    0    0  501 -0.00000000000E+00  0.00000000000E+00  0.77478647798E+03  0.77478647798E+03  0.00000000000E+00 0.  1.
          4   -1    0    0  501    0  0.00000000000E+00 -0.00000000000E+00 -0.35265314693E+03  0.35265314693E+03  0.00000000000E+00 0. -1.
         24    2    1    2    0    0 -0.10565876495E+03 -0.50751203980E+02  0.52977105627E+02  0.14760635665E+03  0.72398919093E+02 0.  0.
        254    2    1    2    0    0  0.10565876495E+03  0.50751203980E+02  0.36915622542E+03  0.97983326826E+03  0.90003191916E+03 0.  0.
         23    2    4    4    0    0 -0.83191227887E+02  0.31053490392E+03  0.51602715936E+03  0.61492186741E+03  0.92152953704E+02 0.  0.
         23    2    4    4    0    0  0.18884999284E+03 -0.25978369994E+03 -0.14687093393E+03  0.36491140085E+03  0.91855150564E+02 0.  0.
          2    1    3    3  502    0 -0.80217728439E+01 -0.31384136328E+02  0.32689190740E+02  0.46020604558E+02  0.00000000000E+00 0. -1.
         -1    1    3    3    0  502 -0.97636992109E+02 -0.19367067652E+02  0.20287914887E+02  0.10158575209E+03  0.00000000000E+00 0.  1.
         13    1    5    5    0    0 -0.50928576313E+02  0.48309862845E+02  0.11188626759E+03  0.13208368412E+03  0.00000000000E+00 0. -1.
        -13    1    5    5    0    0 -0.32262651575E+02  0.26222504108E+03  0.40414089176E+03  0.48283818330E+03  0.00000000000E+00 0.  1.
          2    1    6    6  503    0  0.15943198710E+03 -0.25200742932E+03 -0.15091063780E+03  0.33421598338E+03  0.00000000000E+00 0.  1.
         -2    1    6    6    0  503  0.29418005744E+02 -0.77762706211E+01  0.40397038648E+01  0.30695417476E+02  0.00000000000E+00 0. -1.
<mgrwt>
<rscale>  0 0.10454298E+04</rscale>
<asrwt>0</asrwt>
<pdfrwt beam="1">  1        4 0.54254330E-01 0.10454298E+04</pdfrwt>
<pdfrwt beam="2">  1       -1 0.11919792E+00 0.10454298E+04</pdfrwt>
<totfact> 0.85085395E+00</totfact>
</mgrwt>
</event>
<event>
12    7  0.1701638E-007  0.1627729E+04  0.7818608E-02  0.8803692E-01
          2   -1    0    0  501    0  0.00000000000E+00  0.00000000000E+00  0.42774135324E+04  0.42774135324E+04  0.00000000000E+00 0. -1.
         -1   -1    0    0    0  501 -0.00000000000E+00 -0.00000000000E+00 -0.15485410318E+03  0.15485410318E+03  0.00000000000E+00 0.  1.
         24    2    1    2    0    0  0.24749982204E+03  0.13733502666E+03  0.27562900961E+04  0.27719389382E+04  0.79958188803E+02 0.  0.
        254    2    1    2    0    0 -0.24749982204E+03 -0.13733502666E+03  0.13662693331E+04  0.16603286973E+04  0.89993467604E+03 0.  0.
         23    2    4    4    0    0 -0.31976252908E+03 -0.34384316858E+03  0.29266860855E+03  0.56070848028E+03  0.90900417208E+02 0.  0.
         23    2    4    4    0    0  0.72262707045E+02  0.20650814192E+03  0.10736007246E+04  0.10996202171E+04  0.93158974137E+02 0.  0.
          2    1    3    3  502    0  0.25232607046E+03  0.13231625311E+03  0.26145845897E+04  0.26300624733E+04  0.00000000000E+00 0. -1.
         -1    1    3    3    0  502 -0.48262484246E+01  0.50187735508E+01  0.14170550636E+03  0.14187646490E+03  0.00000000000E+00 0.  1.
         13    1    5    5    0    0 -0.14640178483E+03 -0.14382625651E+03  0.76715494658E+02  0.21909984433E+03  0.00000000000E+00 0. -1.
        -13    1    5    5    0    0 -0.17336074425E+03 -0.20001691207E+03  0.21595311389E+03  0.34160863595E+03  0.00000000000E+00 0.  1.
          4    1    6    6  503    0  0.70083420562E+02  0.17157371875E+03  0.10114577220E+04  0.10282975980E+04  0.00000000000E+00 0. -1.
         -4    1    6    6    0  503  0.21792864833E+01  0.34934423169E+02  0.62143002603E+02  0.71322619023E+02  0.00000000000E+00 0.  1.
<mgrwt>
<rscale>  0 0.16277285E+04</rscale>
<asrwt>0</asrwt>
<pdfrwt beam="1">  1        2 0.65806353E+00 0.16277285E+04</pdfrwt>
<pdfrwt beam="2">  1       -1 0.23823711E-01 0.16277285E+04</pdfrwt>
<totfact> 0.33764143E+00</totfact>
</mgrwt>
</event>
<event>
12    7  0.1701638E-007  0.1380912E+04  0.7818608E-02  0.8967752E-01
         -1   -1    0    0    0  501 -0.00000000000E+00  0.00000000000E+00  0.54477127446E+03  0.54477127446E+03  0.00000000000E+00 0.  1.
          2   -1    0    0  501    0  0.00000000000E+00 -0.00000000000E+00 -0.87510090051E+03  0.87510090051E+03  0.00000000000E+00 0. -1.
         24    2    1    2    0    0 -0.23783974113E+03 -0.14446970269E+03 -0.38371321194E+03  0.48016327525E+03  0.76692270958E+02 0.  0.
        254    2    1    2    0    0  0.23783974113E+03  0.14446970269E+03  0.53383585890E+02  0.93970889971E+03  0.89597085416E+03 0.  0.
         23    2    4    4    0    0 -0.21215133606E+03 -0.19337551667E+03 -0.14700061871E+03  0.33577764629E+03  0.93462110007E+02 0.  0.
         23    2    4    4    0    0  0.44999107719E+03  0.33784521936E+03  0.20038420460E+03  0.60393125342E+03  0.89150252982E+02 0.  0.
          2    1    3    3  502    0 -0.10275796727E+03 -0.67094445841E+02 -0.23375440970E+03  0.26401134171E+03  0.00000000000E+00 0. -1.
         -1    1    3    3    0  502 -0.13508177386E+03 -0.77375256846E+02 -0.14995880225E+03  0.21615193354E+03  0.00000000000E+00 0.  1.
         13    1    5    5    0    0 -0.44858249326E+02 -0.96506059010E+02 -0.33328989513E+02  0.11151907236E+03  0.00000000000E+00 0. -1.
        -13    1    5    5    0    0 -0.16729308673E+03 -0.96869457664E+02 -0.11367162920E+03  0.22425857393E+03  0.00000000000E+00 0.  1.
          3    1    6    6  503    0 -0.15730638899E+01  0.91265566211E+01  0.10491994121E+02  0.13994659925E+02  0.00000000000E+00 0. -1.
         -3    1    6    6    0  503  0.45156414108E+03  0.32871866274E+03  0.18989221048E+03  0.58993659350E+03  0.00000000000E+00 0.  1.
<mgrwt>
<rscale>  0 0.13809125E+04</rscale>
<asrwt>0</asrwt>
<pdfrwt beam="1">  1        2 0.13463091E+00 0.13809125E+04</pdfrwt>
<pdfrwt beam="2">  1       -1 0.83810965E-01 0.13809125E+04</pdfrwt>
<totfact> 0.47896929E+01</totfact>
</mgrwt>
</event>
<event>
12    7  0.1701638E-007  0.1652688E+04  0.7818608E-02  0.8788818E-01
          2   -1    0    0  501    0  0.00000000000E+00  0.00000000000E+00  0.18527380975E+04  0.18527380975E+04  0.00000000000E+00 0. -1.
         -1   -1    0    0    0  501 -0.00000000000E+00 -0.00000000000E+00 -0.36855943303E+03  0.36855943303E+03  0.00000000000E+00 0.  1.
         24    2    1    2    0    0 -0.28711532947E+02 -0.31691165825E+03  0.11704247084E+04  0.12155417877E+04  0.79940531080E+02 0.  0.
        254    2    1    2    0    0  0.28711532947E+02  0.31691165825E+03  0.31375395608E+03  0.10057557428E+04  0.90102481537E+03 0.  0.
         23    2    4    4    0    0  0.12171084804E+03  0.27416039151E+02 -0.28727936322E+03  0.32585808638E+03  0.89938257657E+02 0.  0.
         23    2    4    4    0    0 -0.92999315097E+02  0.28949561909E+03  0.60103331931E+03  0.67989765640E+03  0.92537485240E+02 0.  0.
          4    1    3    3  502    0 -0.18925313866E+02 -0.30910884627E+03  0.10571386383E+04  0.11015664061E+04  0.00000000000E+00 0. -1.
         -3    1    3    3    0  502 -0.97862190819E+01 -0.78028119752E+01  0.11328607006E+03  0.11397538168E+03  0.00000000000E+00 0.  1.
         13    1    5    5    0    0  0.11055410930E+03  0.90836479574E+01 -0.14811122269E+03  0.18504501623E+03  0.00000000000E+00 0. -1.
        -13    1    5    5    0    0  0.11156738743E+02  0.18332391194E+02 -0.13916814054E+03  0.14081307015E+03  0.00000000000E+00 0.  1.
          3    1    6    6  503    0 -0.93901682166E+02  0.14144567787E+03  0.32311820889E+03  0.36500655147E+03  0.00000000000E+00 0. -1.
         -3    1    6    6    0  503  0.90236706911E+00  0.14804994122E+03  0.27791511042E+03  0.31489110493E+03  0.00000000000E+00 0.  1.
<mgrwt>
<rscale>  0 0.16526876E+04</rscale>
<asrwt>0</asrwt>
<pdfrwt beam="1">  1        2 0.28503663E+00 0.16526876E+04</pdfrwt>
<pdfrwt beam="2">  1       -1 0.56701452E-01 0.16526876E+04</pdfrwt>
<totfact> 0.27627806E+01</totfact>
</mgrwt>
</event>
<event>
12    7  0.1701638E-007  0.2309137E+04  0.7818608E-02  0.8474327E-01
         -1   -1    0    0    0  501 -0.00000000000E+00  0.00000000000E+00  0.66881236953E+03  0.66881236953E+03  0.00000000000E+00 0.  1.
          2   -1    0    0  501    0  0.00000000000E+00 -0.00000000000E+00 -0.19931283856E+04  0.19931283856E+04  0.00000000000E+00 0. -1.
         24    2    1    2    0    0 -0.59766609922E+03 -0.72028232595E+03 -0.27096835017E+03  0.97761010732E+03  0.79286063773E+02 0.  0.
        254    2    1    2    0    0  0.59766609922E+03  0.72028232595E+03 -0.10533476659E+04  0.16843306478E+04  0.92272261850E+03 0.  0.
         23    2    4    4    0    0 -0.14168215622E+03  0.20504299240E+03  0.35414046607E+02  0.26798473980E+03  0.91897790747E+02 0.  0.
         23    2    4    4    0    0  0.73934825544E+03  0.51523933356E+03 -0.10887617125E+04  0.14163459080E+04  0.92337700204E+02 0.  0.
          4    1    3    3  502    0 -0.13623238617E+02 -0.39726838857E+02 -0.18882367008E+02  0.46047346719E+02  0.00000000000E+00 0. -1.
         -3    1    3    3    0  502 -0.58404286060E+03 -0.68055548710E+03 -0.25208598316E+03  0.93156276060E+03  0.00000000000E+00 0.  1.
         13    1    5    5    0    0 -0.14611583944E+03  0.18414913130E+03  0.10699401431E+02  0.23531939632E+03  0.00000000000E+00 0. -1.
        -13    1    5    5    0    0  0.44336832156E+01  0.20893861098E+02  0.24714645175E+02  0.32665343478E+02  0.00000000000E+00 0.  1.
          1    1    6    6  503    0  0.70102785566E+03  0.45933160608E+03 -0.10072577252E+04  0.13103410639E+04  0.00000000000E+00 0. -1.
         -1    1    6    6    0  503  0.38320399781E+02  0.55907727481E+02 -0.81503987309E+02  0.10600484413E+03  0.00000000000E+00 0.  1.
<mgrwt>
<rscale>  0 0.23091374E+04</rscale>
<asrwt>0</asrwt>
<pdfrwt beam="1">  1        2 0.30663513E+00 0.23091374E+04</pdfrwt>
<pdfrwt beam="2">  1       -1 0.10289421E+00 0.23091374E+04</pdfrwt>
<totfact> 0.62016116E+00</totfact>
</mgrwt>
</event>
<event>
12    7  0.1701638E-007  0.1963943E+04  0.7818608E-02  0.8623666E-01
         -1   -1    0    0    0  501 -0.00000000000E+00  0.00000000000E+00  0.10254161300E+04  0.10254161300E+04  0.00000000000E+00 0.  1.
          2   -1    0    0  501    0  0.00000000000E+00 -0.00000000000E+00 -0.94036786470E+03  0.94036786470E+03  0.00000000000E+00 0. -1.
         24    2    1    2    0    0 -0.12914222940E+03 -0.44597929442E+03  0.65031691374E+03  0.80303304426E+03  0.79841940170E+02 0.  0.
        254    2    1    2    0    0  0.12914222940E+03  0.44597929442E+03 -0.56526864844E+03  0.11627509504E+04  0.90381739382E+03 0.  0.
         23    2    4    4    0    0 -0.10314973525E+02 -0.12761761251E+03  0.15872602266E+03  0.22398241526E+03  0.92636485126E+02 0.  0.
         23    2    4    4    0    0  0.13945720293E+03  0.57359690693E+03 -0.72399467109E+03  0.93876853518E+03  0.93039538813E+02 0.  0.
          4    1    3    3  502    0 -0.34304751385E+02 -0.73208407618E+02  0.16525423067E+03  0.18397077938E+03  0.00000000000E+00 0. -1.
         -3    1    3    3    0  502 -0.94837478018E+02 -0.37277088680E+03  0.48506268308E+03  0.61906226488E+03  0.00000000000E+00 0.  1.
         13    1    5    5    0    0  0.27910948759E+02 -0.35322747274E+02  0.95980236003E+02  0.10601378797E+03  0.00000000000E+00 0.  1.
        -13    1    5    5    0    0 -0.38225922284E+02 -0.92294865236E+02  0.62745786654E+02  0.11796862730E+03  0.00000000000E+00 0. -1.
          4    1    6    6  503    0 -0.17193800292E+01  0.13953472831E+02 -0.16533845907E+01  0.14155894615E+02  0.00000000000E+00 0. -1.
         -4    1    6    6    0  503  0.14117658296E+03  0.55964343410E+03 -0.72234128650E+03  0.92461264056E+03  0.00000000000E+00 0.  1.
<mgrwt>
<rscale>  0 0.19639434E+04</rscale>
<asrwt>0</asrwt>
<pdfrwt beam="1">  1        2 0.14467198E+00 0.19639434E+04</pdfrwt>
<pdfrwt beam="2">  1       -1 0.15775633E+00 0.19639434E+04</pdfrwt>
<totfact> 0.89027451E+00</totfact>
</mgrwt>
</event>
<event>
12    7  0.1701638E-007  0.1820618E+04  0.7818608E-02  0.8695411E-01
          2   -1    0    0  501    0  0.00000000000E+00  0.00000000000E+00  0.12426107619E+04  0.12426107619E+04  0.00000000000E+00 0. -1.
         -1   -1    0    0    0  501 -0.00000000000E+00 -0.00000000000E+00 -0.66687191513E+03  0.66687191513E+03  0.00000000000E+00 0.  1.
         24    2    1    2    0    0  0.21851870516E+03 -0.34176991494E+03  0.80291839462E+03  0.90303863549E+03  0.79017273399E+02 0.  0.
        254    2    1    2    0    0 -0.21851870516E+03  0.34176991494E+03 -0.22717954789E+03  0.10064440415E+04  0.89261523762E+03 0.  0.
         23    2    4    4    0    0  0.13633222193E+03 -0.94806417920E+02  0.21441815159E+03  0.28655776451E+03  0.92549862530E+02 0.  0.
         23    2    4    4    0    0 -0.35485092709E+03  0.43657633286E+03 -0.44159769948E+03  0.71988627700E+03  0.81912445648E+02 0.  0.
          4    1    3    3  502    0  0.18694966825E+03 -0.24077801274E+03  0.54894513494E+03  0.62790524050E+03  0.00000000000E+00 0. -1.
         -3    1    3    3    0  502  0.31569036916E+02 -0.10099190220E+03  0.25397325969E+03  0.27513339499E+03  0.00000000000E+00 0.  1.
         13    1    5    5    0    0  0.13807216796E+02  0.65400940759E+01  0.70352110815E+02  0.71991885392E+02  0.00000000000E+00 0.  1.
        -13    1    5    5    0    0  0.12252500513E+03 -0.10134651200E+03  0.14406604077E+03  0.21456587911E+03  0.00000000000E+00 0. -1.
          2    1    6    6  503    0  0.40892894877E+00  0.14664279587E+01  0.30951657410E+01  0.34493020754E+01  0.00000000000E+00 0.  1.
         -2    1    6    6    0  503 -0.35525985604E+03  0.43510990490E+03 -0.44469286522E+03  0.71643697492E+03  0.00000000000E+00 0. -1.
<mgrwt>
<rscale>  0 0.18206177E+04</rscale>
<asrwt>0</asrwt>
<pdfrwt beam="1">  1        2 0.19117089E+00 0.18206177E+04</pdfrwt>
<pdfrwt beam="2">  1       -1 0.10259568E+00 0.18206177E+04</pdfrwt>
<totfact> 0.17251078E+01</totfact>
</mgrwt>
</event>
<event>
12    7  0.1701638E-007  0.1399523E+04  0.7818608E-02  0.8954164E-01
         -1   -1    0    0    0  501 -0.00000000000E+00  0.00000000000E+00  0.69462766775E+03  0.69462766775E+03  0.00000000000E+00 0.  1.
          2   -1    0    0  501    0  0.00000000000E+00 -0.00000000000E+00 -0.70493329729E+03  0.70493329729E+03  0.00000000000E+00 0. -1.
         24    2    1    2    0    0 -0.32364000258E+03 -0.13486239919E+03  0.19026015315E+03  0.40669111649E+03  0.79170830282E+02 0.  0.
        254    2    1    2    0    0  0.32364000258E+03  0.13486239919E+03 -0.20056578269E+03  0.99286984855E+03  0.90699128165E+03 0.  0.
         23    2    4    4    0    0  0.32205074318E+03  0.94409581760E+02  0.31365737951E+03  0.46934394936E+03  0.96296109836E+02 0.  0.
         23    2    4    4    0    0  0.15892594067E+01  0.40452817434E+02 -0.51422316220E+03  0.52352589920E+03  0.89526255355E+02 0.  0.
          2    1    3    3  502    0 -0.36151535552E+02  0.99186990944E+01  0.22290702678E+02  0.43614097954E+02  0.00000000000E+00 0. -1.
         -1    1    3    3    0  502 -0.28748846703E+03 -0.14478109829E+03  0.16796945048E+03  0.36307701854E+03  0.00000000000E+00 0.  1.
         13    1    5    5    0    0  0.23357814637E+03  0.89768922584E+02  0.27748136983E+03  0.37364839158E+03  0.00000000000E+00 0.  1.
        -13    1    5    5    0    0  0.88472596803E+02  0.46406591759E+01  0.36176009679E+02  0.95695557781E+02  0.00000000000E+00 0. -1.
          3    1    6    6  503    0 -0.43871027304E+02  0.22317327667E+02 -0.24670516876E+03  0.25156742723E+03  0.00000000000E+00 0. -1.
         -3    1    6    6    0  503  0.45460286711E+02  0.18135489766E+02 -0.26751799344E+03  0.27195847196E+03  0.00000000000E+00 0.  1.
<mgrwt>
<rscale>  0 0.13995230E+04</rscale>
<asrwt>0</asrwt>
<pdfrwt beam="1">  1        2 0.10845128E+00 0.13995230E+04</pdfrwt>
<pdfrwt beam="2">  1       -1 0.10686579E+00 0.13995230E+04</pdfrwt>
<totfact> 0.36900384E+01</totfact>
</mgrwt>
</event>
<event>
12    7  0.1701638E-007  0.1411406E+04  0.7818608E-02  0.8945603E-01
         -3   -1    0    0    0  501 -0.00000000000E+00  0.00000000000E+00  0.29384842614E+03  0.29384842614E+03  0.00000000000E+00 0.  1.
          2   -1    0    0  501    0  0.00000000000E+00 -0.00000000000E+00 -0.16948083136E+04  0.16948083136E+04  0.00000000000E+00 0. -1.
         24    2    1    2    0    0 -0.38260898148E+03 -0.14861028843E+03 -0.30228205627E+03  0.51570639830E+03  0.78128081860E+02 0.  0.
        254    2    1    2    0    0  0.38260898148E+03  0.14861028843E+03 -0.10986778312E+04  0.14729503415E+04  0.89107523872E+03 0.  0.
         23    2    4    4    0    0  0.49277369878E+03 -0.19826112426E+03 -0.37102801748E+03  0.65424164043E+03  0.90757604119E+02 0.  0.
         23    2    4    4    0    0 -0.11016471731E+03  0.34687141269E+03 -0.72764981374E+03  0.81870870104E+03  0.91398270428E+02 0.  0.
          4    1    3    3  502    0 -0.14404119104E+02  0.83572418292E+01 -0.59501033602E+01  0.17684056892E+02  0.00000000000E+00 0. -1.
         -3    1    3    3    0  502 -0.36820486237E+03 -0.15696753026E+03 -0.29633195291E+03  0.49802234141E+03  0.00000000000E+00 0.  1.
         13    1    5    5    0    0  0.29898594301E+03 -0.16725261433E+03 -0.23860347244E+03  0.41748969829E+03  0.00000000000E+00 0.  1.
        -13    1    5    5    0    0  0.19378775577E+03 -0.31008509930E+02 -0.13242454505E+03  0.23675194214E+03  0.00000000000E+00 0. -1.
          2    1    6    6  503    0 -0.61922154116E+01  0.64002390101E+02 -0.21104901305E+03  0.22062714108E+03  0.00000000000E+00 0. -1.
         -2    1    6    6    0  503 -0.10397250189E+03  0.28286902259E+03 -0.51660080069E+03  0.59808155996E+03  0.00000000000E+00 0.  1.
<mgrwt>
<rscale>  0 0.14114060E+04</rscale>
<asrwt>0</asrwt>
<pdfrwt beam="1">  1        2 0.26073974E+00 0.14114060E+04</pdfrwt>
<pdfrwt beam="2">  1       -3 0.45207450E-01 0.14114060E+04</pdfrwt>
<totfact> 0.30010319E+01</totfact>
</mgrwt>
</event>
<event>
12    7  0.1701638E-007  0.1601763E+04  0.7818608E-02  0.8819465E-01
          2   -1    0    0  501    0  0.00000000000E+00  0.00000000000E+00  0.15959465209E+04  0.15959465209E+04  0.00000000000E+00 0. -1.
         -1   -1    0    0    0  501 -0.00000000000E+00 -0.00000000000E+00 -0.40190037467E+03  0.40190037467E+03  0.00000000000E+00 0.  1.
         24    2    1    2    0    0  0.92224790925E+02  0.42035853499E+03  0.81775481814E+03  0.92736933546E+03  0.78001485653E+02 0.  0.
        254    2    1    2    0    0 -0.92224790925E+02 -0.42035853499E+03  0.37629132813E+03  0.10704775601E+04  0.90505266870E+03 0.  0.
         23    2    4    4    0    0  0.18198111032E+03 -0.25545531930E+03  0.59138718275E+03  0.67571247847E+03  0.92054380460E+02 0.  0.
         23    2    4    4    0    0 -0.27420590124E+03 -0.16490321570E+03 -0.21509585462E+03  0.39476508167E+03  0.84801510635E+02 0.  0.
          2    1    3    3  502    0  0.10058665450E+03  0.40091655556E+03  0.74966502524E+03  0.85606624139E+03  0.00000000000E+00 0. -1.
         -3    1    3    3    0  502 -0.83618635770E+01  0.19441979435E+02  0.68089792904E+02  0.71303094074E+02  0.00000000000E+00 0.  1.
         13    1    5    5    0    0  0.94466838869E+02 -0.61012751956E+02  0.23227830227E+03  0.25806927219E+03  0.00000000000E+00 0.  1.
        -13    1    5    5    0    0  0.87514271450E+02 -0.19444256734E+03  0.35910888049E+03  0.41764320627E+03  0.00000000000E+00 0. -1.
          2    1    6    6  503    0  0.24853165301E+01 -0.17123331591E+02 -0.10024275196E+02  0.19996784147E+02  0.00000000000E+00 0. -1.
         -2    1    6    6    0  503 -0.27669121777E+03 -0.14777988411E+03 -0.20507157943E+03  0.37476829752E+03  0.00000000000E+00 0.  1.
<mgrwt>
<rscale>  0 0.16017634E+04</rscale>
<asrwt>0</asrwt>
<pdfrwt beam="1">  1        2 0.24553023E+00 0.16017634E+04</pdfrwt>
<pdfrwt beam="2">  1       -1 0.61830828E-01 0.16017634E+04</pdfrwt>
<totfact> 0.32488545E+01</totfact>
</mgrwt>
</event>
<event>
12    7  0.1701638E-007  0.1131665E+04  0.7818608E-02  0.9174867E-01
         -1   -1    0    0    0  501 -0.00000000000E+00  0.00000000000E+00  0.57648557737E+03  0.57648557737E+03  0.00000000000E+00 0.  1.
          2   -1    0    0  501    0  0.00000000000E+00 -0.00000000000E+00 -0.55537606067E+03  0.55537606067E+03  0.00000000000E+00 0. -1.
         24    2    1    2    0    0  0.59811756782E+02 -0.97871909270E+02  0.15020811090E+03  0.20581371917E+03  0.81488978065E+02 0.  0.
        254    2    1    2    0    0 -0.59811756782E+02  0.97871909270E+02 -0.12909859420E+03  0.92604791887E+03  0.90980324474E+03 0.  0.
         23    2    4    4    0    0 -0.10143866766E+03 -0.38718511228E+03  0.13575339459E+02  0.41051429425E+03  0.90197458254E+02 0.  0.
         23    2    4    4    0    0  0.41626910874E+02  0.48505702155E+03 -0.14267393366E+03  0.51553362462E+03  0.91683983880E+02 0.  0.
          4    1    3    3  502    0 -0.49103902482E+01 -0.35093128445E+01 -0.83350938271E+01  0.10290821062E+02  0.00000000000E+00 0. -1.
         -3    1    3    3    0  502  0.64722147030E+02 -0.94362596426E+02  0.15854320473E+03  0.19552289811E+03  0.00000000000E+00 0.  1.
         13    1    5    5    0    0 -0.72087659295E+02 -0.34722103144E+03  0.35303419942E+02  0.35637817940E+03  0.00000000000E+00 0. -1.
        -13    1    5    5    0    0 -0.29351008360E+02 -0.39964080846E+02 -0.21728080483E+02  0.54136114850E+02  0.00000000000E+00 0.  1.
          4    1    6    6  503    0 -0.28492375624E+02  0.12033711070E+03 -0.43889408932E+02  0.13122162892E+03  0.00000000000E+00 0.  1.
         -4    1    6    6    0  503  0.70119286498E+02  0.36471991085E+03 -0.98784524728E+02  0.38431199570E+03  0.00000000000E+00 0. -1.
<mgrwt>
<rscale>  0 0.11316648E+04</rscale>
<asrwt>0</asrwt>
<pdfrwt beam="1">  1        2 0.85442471E-01 0.11316648E+04</pdfrwt>
<pdfrwt beam="2">  1       -1 0.88690088E-01 0.11316648E+04</pdfrwt>
<totfact> 0.76960312E+01</totfact>
</mgrwt>
</event>
<event>
12    7  0.1701638E-007  0.1190919E+04  0.7818608E-02  0.9120843E-01
         -1   -1    0    0    0  501 -0.00000000000E+00  0.00000000000E+00  0.32766691841E+03  0.32766691841E+03  0.00000000000E+00 0.  1.
          2   -1    0    0  501    0  0.00000000000E+00 -0.00000000000E+00 -0.10821104048E+04  0.10821104048E+04  0.00000000000E+00 0. -1.
         24    2    1    2    0    0  0.19334873354E+03  0.13208303059E+03 -0.70969307242E+02  0.25734195952E+03  0.79740716245E+02 0.  0.
        254    2    1    2    0    0 -0.19334873354E+03 -0.13208303059E+03 -0.68347417915E+03  0.11524353637E+04  0.89785335897E+03 0.  0.
         23    2    4    4    0    0  0.20209352113E+03  0.25466787792E+03 -0.12234522682E+03  0.35925128095E+03  0.91627555988E+02 0.  0.
         23    2    4    4    0    0 -0.39544225467E+03 -0.38675090851E+03 -0.56112895234E+03  0.79318408275E+03  0.91238401812E+02 0.  0.
          2    1    3    3  502    0  0.95656455214E+02  0.57783188553E+02  0.69341348045E+01  0.11196935531E+03  0.00000000000E+00 0. -1.
         -1    1    3    3    0  502  0.97692278325E+02  0.74299842041E+02 -0.77903442046E+02  0.14537260421E+03  0.00000000000E+00 0.  1.
         13    1    5    5    0    0  0.37361803668E+01 -0.38144797387E+01 -0.15445987584E+02  0.16342822028E+02  0.00000000000E+00 0.  1.
        -13    1    5    5    0    0  0.19835734076E+03  0.25848235766E+03 -0.10689923923E+03  0.34290845892E+03  0.00000000000E+00 0. -1.
          3    1    6    6  503    0 -0.23017107190E+03 -0.25372960064E+03 -0.28946200544E+03  0.44849268129E+03  0.00000000000E+00 0. -1.
         -3    1    6    6    0  503 -0.16527118276E+03 -0.13302130787E+03 -0.27166694690E+03  0.34469140146E+03  0.00000000000E+00 0.  1.
<mgrwt>
<rscale>  0 0.11909186E+04</rscale>
<asrwt>0</asrwt>
<pdfrwt beam="1">  1        2 0.16647852E+00 0.11909186E+04</pdfrwt>
<pdfrwt beam="2">  1       -1 0.50410296E-01 0.11909186E+04</pdfrwt>
<totfact> 0.99411519E+01</totfact>
</mgrwt>
</event>
<event>
12    7  0.1701638E-007  0.1819344E+04  0.7818608E-02  0.8696080E-01
          2   -1    0    0  501    0  0.00000000000E+00  0.00000000000E+00  0.22458756832E+04  0.22458756832E+04  0.00000000000E+00 0. -1.
         -1   -1    0    0    0  501 -0.00000000000E+00 -0.00000000000E+00 -0.36845465188E+03  0.36845465188E+03  0.00000000000E+00 0.  1.
         24    2    1    2    0    0 -0.34452394348E+03 -0.48119757443E+03  0.11392636550E+04  0.12864561815E+04  0.82461980403E+02 0.  0.
        254    2    1    2    0    0  0.34452394348E+03  0.48119757443E+03  0.73815737632E+03  0.13278741535E+04  0.93173258077E+03 0.  0.
         23    2    4    4    0    0  0.40003605240E+03 -0.81206248906E+02  0.33630744808E+02  0.41948575386E+03  0.90630969422E+02 0.  0.
         23    2    4    4    0    0 -0.55512108917E+02  0.56240382333E+03  0.70452663151E+03  0.90838839964E+03  0.97118769385E+02 0.  0.
          4    1    3    3  502    0 -0.33181548335E+03 -0.43749384103E+03  0.10815796190E+04  0.12129785028E+04  0.00000000000E+00 0. -1.
         -3    1    3    3    0  502 -0.12708460131E+02 -0.43703733402E+02  0.57684035957E+02  0.73477678763E+02  0.00000000000E+00 0.  1.
         13    1    5    5    0    0  0.31198738628E+03 -0.62451191930E+02 -0.12315208457E+02  0.31841473730E+03  0.00000000000E+00 0.  1.
        -13    1    5    5    0    0  0.88048666115E+02 -0.18755056976E+02  0.45945953266E+02  0.10107101656E+03  0.00000000000E+00 0. -1.
          1    1    6    6  503    0 -0.36613684231E+02  0.16154918823E+03  0.14708248369E+03  0.22152191562E+03  0.00000000000E+00 0. -1.
         -1    1    6    6    0  503 -0.18898424686E+02  0.40085463510E+03  0.55744414782E+03  0.68686648403E+03  0.00000000000E+00 0.  1.
<mgrwt>
<rscale>  0 0.18193442E+04</rscale>
<asrwt>0</asrwt>
<pdfrwt beam="1">  1        2 0.34551933E+00 0.18193442E+04</pdfrwt>
<pdfrwt beam="2">  1       -1 0.56685332E-01 0.18193442E+04</pdfrwt>
<totfact> 0.16455628E+01</totfact>
</mgrwt>
</event>
<event>
12    7  0.1701638E-007  0.1958827E+04  0.7818608E-02  0.8626116E-01
          2   -1    0    0  501    0  0.00000000000E+00  0.00000000000E+00  0.29193947038E+04  0.29193947038E+04  0.00000000000E+00 0. -1.
         -1   -1    0    0    0  501 -0.00000000000E+00 -0.00000000000E+00 -0.32857868447E+03  0.32857868447E+03  0.00000000000E+00 0.  1.
         24    2    1    2    0    0  0.40160530419E+03 -0.58386807940E+03  0.15571600785E+04  0.17127527306E+04  0.81152025956E+02 0.  0.
        254    2    1    2    0    0 -0.40160530419E+03  0.58386807940E+03  0.10336559408E+04  0.15352206577E+04  0.88671816800E+03 0.  0.
         23    2    4    4    0    0  0.33648639612E+02  0.63184798691E+03  0.38106106980E+03  0.74413488902E+03  0.90360857818E+02 0.  0.
         23    2    4    4    0    0 -0.43525394380E+03 -0.47979907511E+02  0.65259487097E+03  0.79108576869E+03  0.90490666280E+02 0.  0.
          2    1    3    3  502    0  0.35705942318E+03 -0.53346139661E+03  0.13480281970E+04  0.14930681543E+04  0.00000000000E+00 0. -1.
         -1    1    3    3    0  502  0.44545881012E+02 -0.50406682791E+02  0.20913188152E+03  0.21968457628E+03  0.00000000000E+00 0.  1.
         13    1    5    5    0    0 -0.80143953549E+00  0.52330663024E+03  0.28973917665E+03  0.59816324029E+03  0.00000000000E+00 0.  1.
        -13    1    5    5    0    0  0.34450079147E+02  0.10854135667E+03  0.91321893158E+02  0.14597164873E+03  0.00000000000E+00 0. -1.
          3    1    6    6  503    0 -0.19657080989E+03 -0.26203618357E+02  0.21742541948E+03  0.29427967302E+03  0.00000000000E+00 0. -1.
         -3    1    6    6    0  503 -0.23868313391E+03 -0.21776289154E+02  0.43516945149E+03  0.49680609567E+03  0.00000000000E+00 0.  1.
<mgrwt>
<rscale>  0 0.19588271E+04</rscale>
<asrwt>0</asrwt>
<pdfrwt beam="1">  1        2 0.44913763E+00 0.19588271E+04</pdfrwt>
<pdfrwt beam="2">  1       -1 0.50550569E-01 0.19588271E+04</pdfrwt>
<totfact> 0.81701282E+00</totfact>
</mgrwt>
</event>
<event>
12    7  0.1701638E-007  0.2309604E+04  0.7818608E-02  0.8474144E-01
         -1   -1    0    0    0  501 -0.00000000000E+00  0.00000000000E+00  0.12399589180E+04  0.12399589180E+04  0.00000000000E+00 0.  1.
          2   -1    0    0  501    0  0.00000000000E+00 -0.00000000000E+00 -0.10754934635E+04  0.10754934635E+04  0.00000000000E+00 0. -1.
         24    2    1    2    0    0  0.46971806266E+03 -0.52807798054E+03  0.74824972966E+03  0.10323122916E+04  0.79306982925E+02 0.  0.
        254    2    1    2    0    0 -0.46971806266E+03  0.52807798054E+03 -0.58378427511E+03  0.12831400899E+04  0.89785466455E+03 0.  0.
         23    2    4    4    0    0 -0.66141114841E+03  0.62202962820E+03 -0.46585921565E+03  0.10244638681E+04  0.90087971956E+02 0.  0.
         23    2    4    4    0    0  0.19169308575E+03 -0.93951647662E+02 -0.11792505946E+03  0.25867622183E+03  0.86220165086E+02 0.  0.
          4    1    3    3  502    0  0.70266493674E+02 -0.43768501482E+02  0.73839234922E+02  0.11092923181E+03  0.00000000000E+00 0. -1.
         -3    1    3    3    0  502  0.39945156899E+03 -0.48430947905E+03  0.67441049473E+03  0.92138305979E+03  0.00000000000E+00 0.  1.
         13    1    5    5    0    0 -0.28028089751E+03  0.31469313275E+03 -0.18732302837E+03  0.46117140660E+03  0.00000000000E+00 0. -1.
        -13    1    5    5    0    0 -0.38113025090E+03  0.30733649545E+03 -0.27853618727E+03  0.56329246152E+03  0.00000000000E+00 0.  1.
          1    1    6    6  503    0  0.86440924063E+02 -0.27031427219E+02 -0.96105864398E+02  0.13205706563E+03  0.00000000000E+00 0. -1.
         -1    1    6    6    0  503  0.10525216168E+03 -0.66920220444E+02 -0.21819195064E+02  0.12661915620E+03  0.00000000000E+00 0.  1.
<mgrwt>
<rscale>  0 0.23096040E+04</rscale>
<asrwt>0</asrwt>
<pdfrwt beam="1">  1        2 0.16546053E+00 0.23096040E+04</pdfrwt>
<pdfrwt beam="2">  1       -1 0.19076291E+00 0.23096040E+04</pdfrwt>
<totfact> 0.40674109E+00</totfact>
</mgrwt>
</event>
<event>
12    7  0.1701638E-007  0.2483868E+04  0.7818608E-02  0.8408755E-01
         -1   -1    0    0    0  501 -0.00000000000E+00  0.00000000000E+00  0.10928247771E+04  0.10928247771E+04  0.00000000000E+00 0.  1.
          2   -1    0    0  501    0  0.00000000000E+00 -0.00000000000E+00 -0.14113878559E+04  0.14113878559E+04  0.00000000000E+00 0. -1.
         24    2    1    2    0    0  0.40676230001E+03 -0.71503779484E+03 -0.83875052423E+03  0.11775733920E+04  0.80262288303E+02 0.  0.
        254    2    1    2    0    0 -0.40676230001E+03  0.71503779484E+03  0.52018744546E+03  0.13266392410E+04  0.90146662759E+03 0.  0.
         23    2    4    4    0    0 -0.31598561160E+03  0.29325266474E+03  0.71793806575E+03  0.84317714798E+03  0.98329062439E+02 0.  0.
         23    2    4    4    0    0 -0.90776688416E+02  0.42178513010E+03 -0.19775062029E+03  0.48346209304E+03  0.92125916309E+02 0.  0.
          2    1    3    3  502    0  0.30489125895E+03 -0.48162749000E+03 -0.54260913130E+03  0.78698690477E+03  0.00000000000E+00 0. -1.
         -1    1    3    3    0  502  0.10187104107E+03 -0.23341030484E+03 -0.29614139293E+03  0.39058648725E+03  0.00000000000E+00 0.  1.
         13    1    5    5    0    0 -0.29743760055E+03  0.25278666022E+03  0.58752641488E+03  0.70537756556E+03  0.00000000000E+00 0.  1.
        -13    1    5    5    0    0 -0.18548011043E+02  0.40466004523E+02  0.13041165086E+03  0.13779958243E+03  0.00000000000E+00 0. -1.
          1    1    6    6  503    0 -0.60228540799E+02  0.11393682583E+03 -0.33302494879E+02  0.13310947965E+03  0.00000000000E+00 0. -1.
         -1    1    6    6    0  503 -0.30548147617E+02  0.30784830427E+03 -0.16444812541E+03  0.35035261340E+03  0.00000000000E+00 0.  1.
<mgrwt>
<rscale>  0 0.24838676E+04</rscale>
<asrwt>0</asrwt>
<pdfrwt beam="1">  1        2 0.21713659E+00 0.24838676E+04</pdfrwt>
<pdfrwt beam="2">  1       -1 0.16812689E+00 0.24838676E+04</pdfrwt>
<totfact> 0.36842258E+00</totfact>
</mgrwt>
</event>
<event>
12    7  0.1701638E-007  0.2181916E+04  0.7818608E-02  0.8525993E-01
         -1   -1    0    0    0  501 -0.00000000000E+00  0.00000000000E+00  0.51547723082E+03  0.51547723082E+03  0.00000000000E+00 0.  1.
          2   -1    0    0  501    0  0.00000000000E+00 -0.00000000000E+00 -0.23089080321E+04  0.23089080321E+04  0.00000000000E+00 0. -1.
         24    2    1    2    0    0  0.71210701985E+03 -0.12323095254E+02 -0.11962798536E+03  0.72761080174E+03  0.88647377453E+02 0.  0.
        254    2    1    2    0    0 -0.71210701985E+03  0.12323095254E+02 -0.16738028159E+04  0.20967744611E+04  0.10428801504E+04 0.  0.
         23    2    4    4    0    0 -0.50429957261E+03  0.50552265582E+03 -0.93097602548E+03  0.11767191704E+04  0.89891220960E+02 0.  0.
         23    2    4    4    0    0 -0.20780744724E+03 -0.49319956057E+03 -0.74282679041E+03  0.92005529069E+03  0.90996459899E+02 0.  0.
          4    1    3    3  502    0  0.80005689161E+02 -0.25061781775E+01 -0.42836537465E+02  0.90786343517E+02  0.00000000000E+00 0. -1.
         -3    1    3    3    0  502  0.63210133069E+03 -0.98169170770E+01 -0.76791447899E+02  0.63682445822E+03  0.00000000000E+00 0.  1.
         13    1    5    5    0    0 -0.46489293884E+03  0.49082365469E+03 -0.89312263039E+03  0.11201345176E+04  0.00000000000E+00 0.  1.
        -13    1    5    5    0    0 -0.39406633764E+02  0.14699001128E+02 -0.37853395082E+02  0.56584652849E+02  0.00000000000E+00 0. -1.
          1    1    6    6  503    0 -0.15602434563E+03 -0.35514931220E+03 -0.60205883990E+03  0.71620491278E+03  0.00000000000E+00 0. -1.
         -1    1    6    6    0  503 -0.51783101609E+02 -0.13805024836E+03 -0.14076795051E+03  0.20385037792E+03  0.00000000000E+00 0.  1.
<mgrwt>
<rscale>  0 0.21819161E+04</rscale>
<asrwt>0</asrwt>
<pdfrwt beam="1">  1        2 0.35521663E+00 0.21819161E+04</pdfrwt>
<pdfrwt beam="2">  1       -1 0.79304187E-01 0.21819161E+04</pdfrwt>
<totfact> 0.74185893E+00</totfact>
</mgrwt>
</event>
<event>
12    7  0.1701638E-007  0.1536321E+04  0.7818608E-02  0.8860652E-01
          2   -1    0    0  501    0  0.00000000000E+00  0.00000000000E+00  0.12270905094E+04  0.12270905094E+04  0.00000000000E+00 0. -1.
         -1   -1    0    0    0  501 -0.00000000000E+00 -0.00000000000E+00 -0.48086989963E+03  0.48086989963E+03  0.00000000000E+00 0.  1.
         24    2    1    2    0    0 -0.48144094138E+02 -0.48698586216E+03  0.34425662709E+03  0.60375387676E+03  0.80827190112E+02 0.  0.
        254    2    1    2    0    0  0.48144094138E+02  0.48698586216E+03  0.40196398271E+03  0.11042065323E+04  0.90455731649E+03 0.  0.
         23    2    4    4    0    0 -0.18780126481E+03 -0.19404867361E+03  0.20612769040E+03  0.35157996409E+03  0.90529794046E+02 0.  0.
         23    2    4    4    0    0  0.23594535895E+03  0.68103453577E+03  0.19583629232E+03  0.75262656820E+03  0.92825893199E+02 0.  0.
          4    1    3    3  502    0 -0.50798158802E+01 -0.37747139475E+03  0.27681622299E+03  0.46812143691E+03  0.00000000000E+00 0. -1.
         -3    1    3    3    0  502 -0.43064278258E+02 -0.10951446741E+03  0.67440404091E+02  0.13563243985E+03  0.00000000000E+00 0.  1.
         13    1    5    5    0    0 -0.74808216478E+02 -0.59580967155E+02  0.12689242032E+03  0.15889571182E+03  0.00000000000E+00 0.  1.
        -13    1    5    5    0    0 -0.11299304833E+03 -0.13446770645E+03  0.79235270075E+02  0.19268425227E+03  0.00000000000E+00 0. -1.
          4    1    6    6  503    0  0.11435643378E+03  0.34383083779E+03  0.14627998578E+03  0.39076191371E+03  0.00000000000E+00 0. -1.
         -4    1    6    6    0  503  0.12158892516E+03  0.33720369798E+03  0.49556306542E+02  0.36186465449E+03  0.00000000000E+00 0.  1.
<mgrwt>
<rscale>  0 0.15363214E+04</rscale>
<asrwt>0</asrwt>
<pdfrwt beam="1">  1        2 0.18878315E+00 0.15363214E+04</pdfrwt>
<pdfrwt beam="2">  1       -1 0.73979985E-01 0.15363214E+04</pdfrwt>
<totfact> 0.36890403E+01</totfact>
</mgrwt>
</event>
<event>
12    7  0.1701638E-007  0.1208083E+04  0.7818608E-02  0.9105811E-01
         -1   -1    0    0    0  501 -0.00000000000E+00  0.00000000000E+00  0.61090589802E+03  0.61090589802E+03  0.00000000000E+00 0.  1.
          2   -1    0    0  501    0  0.00000000000E+00 -0.00000000000E+00 -0.59725393431E+03  0.59725393431E+03  0.00000000000E+00 0. -1.
         24    2    1    2    0    0  0.11848221476E+03 -0.13663803475E+03 -0.19462987042E+03  0.27697946164E+03  0.78286959040E+02 0.  0.
        254    2    1    2    0    0 -0.11848221476E+03  0.13663803475E+03  0.20828183414E+03  0.93118037069E+03  0.88938606498E+03 0.  0.
         23    2    4    4    0    0  0.26871813403E+03 -0.52238892142E+02 -0.18208847131E+03  0.34348108353E+03  0.99421858522E+02 0.  0.
         23    2    4    4    0    0 -0.38720034879E+03  0.18887692689E+03  0.39037030545E+03  0.58769928715E+03  0.86039950794E+02 0.  0.
          4    1    3    3  502    0  0.12972764755E+03 -0.11856013840E+03 -0.17523794398E+03  0.24818159876E+03  0.00000000000E+00 0. -1.
         -3    1    3    3    0  502 -0.11245432790E+02 -0.18077896344E+02 -0.19391926447E+02  0.28797862875E+02  0.00000000000E+00 0.  1.
         13    1    5    5    0    0  0.16342360107E+03  0.17486848583E+02 -0.92000050479E+02  0.18835358385E+03  0.00000000000E+00 0. -1.
        -13    1    5    5    0    0  0.10529453296E+03 -0.69725740725E+02 -0.90088420831E+02  0.15512749969E+03  0.00000000000E+00 0.  1.
          1    1    6    6  503    0 -0.17069505636E+03  0.51065282689E+02  0.20197455703E+03  0.26932914259E+03  0.00000000000E+00 0. -1.
         -1    1    6    6    0  503 -0.21650529243E+03  0.13781164420E+03  0.18839574842E+03  0.31837014456E+03  0.00000000000E+00 0.  1.
<mgrwt>
<rscale>  0 0.12080827E+04</rscale>
<asrwt>0</asrwt>
<pdfrwt beam="1">  1        2 0.91885220E-01 0.12080827E+04</pdfrwt>
<pdfrwt beam="2">  1       -1 0.93985523E-01 0.12080827E+04</pdfrwt>
<totfact> 0.61693109E+01</totfact>
</mgrwt>
</event>
<event>
12    7  0.1701638E-007  0.1946597E+04  0.7818608E-02  0.8632003E-01
          4   -1    0    0  501    0  0.00000000000E+00  0.00000000000E+00  0.17787516335E+04  0.17787516335E+04  0.00000000000E+00 0. -1.
         -3   -1    0    0    0  501 -0.00000000000E+00 -0.00000000000E+00 -0.53257037964E+03  0.53257037964E+03  0.00000000000E+00 0.  1.
         24    2    1    2    0    0  0.38128706887E+03 -0.18824029388E+03 -0.26191934049E+03  0.50553996652E+03  0.78451766730E+02 0.  0.
        254    2    1    2    0    0 -0.38128706887E+03  0.18824029388E+03  0.15081005943E+04  0.18057820466E+04  0.89758963901E+03 0.  0.
         23    2    4    4    0    0 -0.53231861193E+03  0.23127856330E+03  0.46937779929E+03  0.75202039678E+03  0.91467372686E+02 0.  0.
         23    2    4    4    0    0  0.15103154306E+03 -0.43038269418E+02  0.10387227951E+04  0.10537616498E+04  0.82496969894E+02 0.  0.
          4    1    3    3  502    0  0.11538078667E+03 -0.34539330625E+02 -0.41074526457E+02  0.12725096469E+03  0.00000000000E+00 0. -1.
         -1    1    3    3    0  502  0.26590628220E+03 -0.15370096326E+03 -0.22084481403E+03  0.37828900183E+03  0.00000000000E+00 0.  1.
         13    1    5    5    0    0 -0.10032613000E+02 -0.60044122437E+01  0.15692680983E+01  0.11796986579E+02  0.00000000000E+00 0. -1.
        -13    1    5    5    0    0 -0.52228599893E+03  0.23728297554E+03  0.46780853119E+03  0.74022341020E+03  0.00000000000E+00 0.  1.
          4    1    6    6  503    0  0.45170667443E+02 -0.38765601006E+02  0.20930457640E+03  0.21760415143E+03  0.00000000000E+00 0. -1.
         -4    1    6    6    0  503  0.10586087562E+03 -0.42726684121E+01  0.82941821865E+03  0.83615749839E+03  0.00000000000E+00 0.  1.
<mgrwt>
<rscale>  0 0.19465975E+04</rscale>
<asrwt>0</asrwt>
<pdfrwt beam="1">  1        4 0.27365409E+00 0.19465975E+04</pdfrwt>
<pdfrwt beam="2">  1       -3 0.81933906E-01 0.19465975E+04</pdfrwt>
<totfact> 0.13233092E-01</totfact>
</mgrwt>
</event>
<event>
12    7  0.1701638E-007  0.1087959E+04  0.7818608E-02  0.9217008E-01
         -1   -1    0    0    0  501 -0.00000000000E+00  0.00000000000E+00  0.15488704817E+03  0.15488704817E+03  0.00000000000E+00 0.  1.
          2   -1    0    0  501    0  0.00000000000E+00 -0.00000000000E+00 -0.19105115083E+04  0.19105115083E+04  0.00000000000E+00 0. -1.
         24    2    1    2    0    0 -0.17932336680E+02  0.17486102639E+03 -0.20625741615E+03  0.28254802626E+03  0.79958227699E+02 0.  0.
        254    2    1    2    0    0  0.17932336680E+02 -0.17486102639E+03 -0.15493670439E+04  0.17828505302E+04  0.86436093666E+03 0.  0.
         23    2    4    4    0    0  0.34925218098E+03 -0.23968557576E+03 -0.12507142619E+04  0.13233971311E+04  0.87564494349E+02 0.  0.
         23    2    4    4    0    0 -0.33131984430E+03  0.64824549368E+02 -0.29865278205E+03  0.45945339903E+03  0.89044259902E+02 0.  0.
          4    1    3    3  502    0 -0.10766414314E+02  0.22320110316E+02 -0.82029850384E+02  0.85691302685E+02  0.00000000000E+00 0. -1.
         -3    1    3    3    0  502 -0.71659223659E+01  0.15254091607E+03 -0.12422756576E+03  0.19685672357E+03  0.00000000000E+00 0.  1.
         13    1    5    5    0    0  0.45998527492E+02 -0.21777986959E+02 -0.82346450313E+02  0.96804354895E+02  0.00000000000E+00 0.  1.
        -13    1    5    5    0    0  0.30325365349E+03 -0.21790758880E+03 -0.11683678116E+04  0.12265927762E+04  0.00000000000E+00 0. -1.
          2    1    6    6  503    0 -0.24977621608E+03  0.28680367538E+02 -0.17230726405E+03  0.30479585766E+03  0.00000000000E+00 0. -1.
         -2    1    6    6    0  503 -0.81543628225E+02  0.36144181830E+02 -0.12634551800E+03  0.15465754137E+03  0.00000000000E+00 0.  1.
<mgrwt>
<rscale>  0 0.10879586E+04</rscale>
<asrwt>0</asrwt>
<pdfrwt beam="1">  1        2 0.29392485E+00 0.10879586E+04</pdfrwt>
<pdfrwt beam="2">  1       -1 0.23828776E-01 0.10879586E+04</pdfrwt>
<totfact> 0.12915058E+02</totfact>
</mgrwt>
</event>
<event>
12    7  0.1701638E-007  0.1258718E+04  0.7818608E-02  0.9062959E-01
         -1   -1    0    0    0  501 -0.00000000000E+00  0.00000000000E+00  0.66524746521E+03  0.66524746521E+03  0.00000000000E+00 0.  1.
          2   -1    0    0  501    0  0.00000000000E+00 -0.00000000000E+00 -0.59540621478E+03  0.59540621478E+03  0.00000000000E+00 0. -1.
         24    2    1    2    0    0  0.99084031847E+02 -0.54925634658E+02 -0.26126243118E+03  0.29548504847E+03  0.78859908763E+02 0.  0.
        254    2    1    2    0    0 -0.99084031847E+02  0.54925634658E+02  0.33110368161E+03  0.96516863152E+03  0.89949228379E+03 0.  0.
         23    2    4    4    0    0  0.32563965845E+03 -0.19405245998E+03  0.22925693670E+03  0.45241520231E+03  0.91778144905E+02 0.  0.
         23    2    4    4    0    0 -0.42472369029E+03  0.24897809463E+03  0.10184674490E+03  0.51275342921E+03  0.10081178014E+03 0.  0.
          4    1    3    3  502    0  0.81082696690E+02 -0.14784454252E+02 -0.22092618289E+03  0.23579941068E+03  0.00000000000E+00 0. -1.
         -3    1    3    3    0  502  0.18001335157E+02 -0.40141180406E+02 -0.40336248293E+02  0.59685637788E+02  0.00000000000E+00 0.  1.
         13    1    5    5    0    0  0.15225041359E+01 -0.23338213188E+02  0.96103329838E+01  0.25285345830E+02  0.00000000000E+00 0.  1.
        -13    1    5    5    0    0  0.32411715431E+03 -0.17071424679E+03  0.21964660372E+03  0.42712985648E+03  0.00000000000E+00 0. -1.
          3    1    6    6  503    0 -0.31602314505E+03  0.19455861936E+03  0.31841171353E+02  0.37247489146E+03  0.00000000000E+00 0. -1.
         -3    1    6    6    0  503 -0.10870054524E+03  0.54419475276E+02  0.70005573551E+02  0.14027853775E+03  0.00000000000E+00 0.  1.
<mgrwt>
<rscale>  0 0.12587176E+04</rscale>
<asrwt>0</asrwt>
<pdfrwt beam="1">  1        2 0.91600956E-01 0.12587176E+04</pdfrwt>
<pdfrwt beam="2">  1       -1 0.10234576E+00 0.12587176E+04</pdfrwt>
<totfact> 0.50837077E+01</totfact>
</mgrwt>
</event>
<event>
12    7  0.1701638E-007  0.1773312E+04  0.7818608E-02  0.8720622E-01
          2   -1    0    0  501    0  0.00000000000E+00  0.00000000000E+00  0.87291468879E+03  0.87291468879E+03  0.00000000000E+00 0. -1.
         -1   -1    0    0    0  501 -0.00000000000E+00 -0.00000000000E+00 -0.90061399055E+03  0.90061399055E+03  0.00000000000E+00 0.  1.
         24    2    1    2    0    0 -0.20322142695E+03 -0.55687128885E+03 -0.27322806893E+03  0.65837316597E+03  0.86006204997E+02 0.  0.
        254    2    1    2    0    0  0.20322142695E+03  0.55687128885E+03  0.24552876717E+03  0.11151555134E+04  0.91207612772E+03 0.  0.
         23    2    4    4    0    0 -0.21402450706E+03 -0.74712861534E+01 -0.17546497856E+03  0.29153512987E+03  0.91337087275E+02 0.  0.
         23    2    4    4    0    0  0.41724593401E+03  0.56434257501E+03  0.42099374573E+03  0.82362038349E+03  0.92401789730E+02 0.  0.
          2    1    3    3  502    0  0.46072493839E+01 -0.63136546301E+02 -0.29552535034E+02  0.69862740804E+02  0.00000000000E+00 0. -1.
         -1    1    3    3    0  502 -0.20782867634E+03 -0.49373474255E+03 -0.24367553390E+03  0.58851042517E+03  0.00000000000E+00 0.  1.
         13    1    5    5    0    0 -0.10387736354E+03  0.40103228881E+02 -0.68062018393E+02  0.13050369332E+03  0.00000000000E+00 0. -1.
        -13    1    5    5    0    0 -0.11014714352E+03 -0.47574515034E+02 -0.10740296017E+03  0.16103143655E+03  0.00000000000E+00 0.  1.
          1    1    6    6  503    0  0.20149683382E+03  0.21840419888E+03  0.14012832740E+03  0.32853815040E+03  0.00000000000E+00 0. -1.
         -1    1    6    6    0  503  0.21574910019E+03  0.34593837613E+03  0.28086541833E+03  0.49508223309E+03  0.00000000000E+00 0.  1.
<mgrwt>
<rscale>  0 0.17733124E+04</rscale>
<asrwt>0</asrwt>
<pdfrwt beam="1">  1        2 0.13429457E+00 0.17733124E+04</pdfrwt>
<pdfrwt beam="2">  1       -1 0.13855600E+00 0.17733124E+04</pdfrwt>
<totfact> 0.14229982E+01</totfact>
</mgrwt>
</event>
<event>
12    7  0.1701638E-007  0.2036506E+04  0.7818608E-02  0.8589740E-01
          2   -1    0    0  501    0  0.00000000000E+00  0.00000000000E+00  0.18105754174E+04  0.18105754174E+04  0.00000000000E+00 0. -1.
         -1   -1    0    0    0  501 -0.00000000000E+00 -0.00000000000E+00 -0.57265750409E+03  0.57265750409E+03  0.00000000000E+00 0.  1.
         24    2    1    2    0    0 -0.28058429804E+03  0.48921056501E+03  0.11720649472E+04  0.13032888020E+04  0.82285696013E+02 0.  0.
        254    2    1    2    0    0  0.28058429804E+03 -0.48921056501E+03  0.65852966194E+02  0.10799441196E+04  0.91863385687E+03 0.  0.
         23    2    4    4    0    0  0.56350634846E+03 -0.50244955466E+03 -0.47194665997E+02  0.76187540944E+03  0.90729506135E+02 0.  0.
         23    2    4    4    0    0 -0.28292205042E+03  0.13238989653E+02  0.11304763219E+03  0.31806871012E+03  0.90375769701E+02 0.  0.
          4    1    3    3  502    0 -0.26043028105E+03  0.47050104373E+03  0.11434861820E+04  0.12636280354E+04  0.00000000000E+00 0. -1.
         -3    1    3    3    0  502 -0.20154016981E+02  0.18709521281E+02  0.28578765187E+02  0.39660766592E+02  0.00000000000E+00 0.  1.
         13    1    5    5    0    0  0.44045970881E+03 -0.37142930038E+03 -0.48253726546E+00  0.57616379017E+03  0.00000000000E+00 0. -1.
        -13    1    5    5    0    0  0.12304663965E+03 -0.13102025428E+03 -0.46712128732E+02  0.18571161927E+03  0.00000000000E+00 0.  1.
          4    1    6    6  503    0 -0.81337006906E+02 -0.13862094622E+02 -0.54150646166E+01  0.82687298205E+02  0.00000000000E+00 0. -1.
         -4    1    6    6    0  503 -0.20158504352E+03  0.27101084275E+02  0.11846269681E+03  0.23538141191E+03  0.00000000000E+00 0.  1.
<mgrwt>
<rscale>  0 0.20365064E+04</rscale>
<asrwt>0</asrwt>
<pdfrwt beam="1">  1        2 0.27855006E+00 0.20365064E+04</pdfrwt>
<pdfrwt beam="2">  1       -1 0.88101155E-01 0.20365064E+04</pdfrwt>
<totfact> 0.11368086E+01</totfact>
</mgrwt>
</event>
<event>
12    7  0.1701638E-007  0.1270076E+04  0.7818608E-02  0.9053638E-01
          2   -1    0    0  501    0  0.00000000000E+00  0.00000000000E+00  0.12586384100E+04  0.12586384100E+04  0.00000000000E+00 0. -1.
         -1   -1    0    0    0  501 -0.00000000000E+00 -0.00000000000E+00 -0.32040445464E+03  0.32040445464E+03  0.00000000000E+00 0.  1.
         24    2    1    2    0    0 -0.10691440863E+02  0.20216432378E+03  0.52648592003E+03  0.56981349461E+03  0.80717246780E+02 0.  0.
        254    2    1    2    0    0  0.10691440863E+02 -0.20216432378E+03  0.41174803531E+03  0.10092293700E+04  0.89890085994E+03 0.  0.
         23    2    4    4    0    0 -0.28423001934E+03  0.10067117115E+03  0.47699750769E+03  0.57170541866E+03  0.91646466269E+02 0.  0.
         23    2    4    4    0    0  0.29492146021E+03 -0.30283549492E+03 -0.65249472387E+02  0.43752395136E+03  0.92096198007E+02 0.  0.
          4    1    3    3  502    0 -0.72014232353E+01  0.15313231051E+03  0.47275469129E+03  0.49698929883E+03  0.00000000000E+00 0. -1.
         -3    1    3    3    0  502 -0.34900176276E+01  0.49032013265E+02  0.53731228747E+02  0.72824195777E+02  0.00000000000E+00 0.  1.
         13    1    5    5    0    0 -0.27184883601E+03  0.10629673332E+03  0.47560760887E+03  0.55803528811E+03  0.00000000000E+00 0. -1.
        -13    1    5    5    0    0 -0.12381183330E+02 -0.56255621776E+01  0.13898988211E+01  0.13670130548E+02  0.00000000000E+00 0.  1.
          4    1    6    6  503    0  0.20471801332E+03 -0.25014725219E+03 -0.20527607702E+02  0.32388963465E+03  0.00000000000E+00 0. -1.
         -4    1    6    6    0  503  0.90203446882E+02 -0.52688242735E+02 -0.44721864685E+02  0.11363431670E+03  0.00000000000E+00 0.  1.
<mgrwt>
<rscale>  0 0.12700761E+04</rscale>
<asrwt>0</asrwt>
<pdfrwt beam="1">  1        2 0.19363668E+00 0.12700761E+04</pdfrwt>
<pdfrwt beam="2">  1       -1 0.49292994E-01 0.12700761E+04</pdfrwt>
<totfact> 0.80697201E+01</totfact>
</mgrwt>
</event>
<event>
12    7  0.1701638E-007  0.1410744E+04  0.7818608E-02  0.8946078E-01
         -3   -1    0    0    0  501 -0.00000000000E+00  0.00000000000E+00  0.35851204226E+03  0.35851204226E+03  0.00000000000E+00 0.  1.
          4   -1    0    0  501    0  0.00000000000E+00 -0.00000000000E+00 -0.13878185328E+04  0.13878185328E+04  0.00000000000E+00 0. -1.
         24    2    1    2    0    0 -0.36282660065E+03 -0.17588320908E+02 -0.78111134045E+02  0.37998898170E+03  0.79610211547E+02 0.  0.
        254    2    1    2    0    0  0.36282660065E+03  0.17588320908E+02 -0.95119535646E+03  0.13663415933E+04  0.91113349864E+03 0.  0.
         23    2    4    4    0    0  0.49272564728E+03  0.34321431870E+03 -0.69191947671E+03  0.92092482705E+03  0.93676799573E+02 0.  0.
         23    2    4    4    0    0 -0.12989904663E+03 -0.32562599779E+03 -0.25927587976E+03  0.44541676629E+03  0.90917881152E+02 0.  0.
          4    1    3    3  502    0 -0.23334251761E+03 -0.31995730362E+02 -0.82704974313E+02  0.24962485866E+03  0.00000000000E+00 0. -1.
         -3    1    3    3    0  502 -0.12948408304E+03  0.14407409454E+02  0.45938402677E+01  0.13036412304E+03  0.00000000000E+00 0.  1.
         13    1    5    5    0    0  0.12823719364E+02  0.24949977947E+02 -0.58490253708E+02  0.64869553388E+02  0.00000000000E+00 0. -1.
        -13    1    5    5    0    0  0.47990192791E+03  0.31826434075E+03 -0.63342922300E+03  0.85605527366E+03  0.00000000000E+00 0.  1.
          1    1    6    6  503    0 -0.13228555810E+02 -0.18258363887E+02  0.55917328743E+01  0.23229937950E+02  0.00000000000E+00 0. -1.
         -1    1    6    6    0  503 -0.11667049082E+03 -0.30736763391E+03 -0.26486761263E+03  0.42218682834E+03  0.00000000000E+00 0.  1.
<mgrwt>
<rscale>  0 0.14107440E+04</rscale>
<asrwt>0</asrwt>
<pdfrwt beam="1">  1        4 0.21351055E+00 0.14107440E+04</pdfrwt>
<pdfrwt beam="2">  1       -3 0.55155697E-01 0.14107440E+04</pdfrwt>
<totfact> 0.77398188E-01</totfact>
</mgrwt>
</event>
<event>
12    7  0.1701638E-007  0.1142141E+04  0.7818608E-02  0.9165065E-01
         -3   -1    0    0    0  501 -0.00000000000E+00  0.00000000000E+00  0.27663911626E+03  0.27663911626E+03  0.00000000000E+00 0.  1.
          2   -1    0    0  501    0  0.00000000000E+00 -0.00000000000E+00 -0.11788690239E+04  0.11788690239E+04  0.00000000000E+00 0. -1.
         24    2    1    2    0    0  0.85258464983E+02 -0.14815607645E+03 -0.49597821843E+02  0.19480934041E+03  0.79192842725E+02 0.  0.
        254    2    1    2    0    0 -0.85258464983E+02  0.14815607645E+03 -0.85263208575E+03  0.12606987997E+04  0.91277640258E+03 0.  0.
         23    2    4    4    0    0 -0.10581942996E+01  0.18304966658E+03  0.14762578036E+03  0.25219830604E+03  0.91117036473E+02 0.  0.
         23    2    4    4    0    0 -0.84200270684E+02 -0.34893590130E+02 -0.10002578661E+04  0.10085004937E+04  0.90830605038E+02 0.  0.
          2    1    3    3  502    0 -0.46977048196E+01 -0.61892094418E+02 -0.43728906058E+01  0.62223966076E+02  0.00000000000E+00 0. -1.
         -1    1    3    3    0  502  0.89956169803E+02 -0.86263982031E+02 -0.45224931237E+02  0.13258537433E+03  0.00000000000E+00 0.  1.
         13    1    5    5    0    0 -0.34794690533E+01  0.65471257568E+02  0.11118893608E+03  0.12907971095E+03  0.00000000000E+00 0.  1.
        -13    1    5    5    0    0  0.24212747537E+01  0.11757840901E+03  0.36436844277E+02  0.12311859509E+03  0.00000000000E+00 0. -1.
          1    1    6    6  503    0 -0.64892467983E+02 -0.49378925643E+02 -0.42591585917E+03  0.43365150731E+03  0.00000000000E+00 0. -1.
         -1    1    6    6    0  503 -0.19307802700E+02  0.14485335513E+02 -0.57434200693E+03  0.57484898636E+03  0.00000000000E+00 0.  1.
<mgrwt>
<rscale>  0 0.11421406E+04</rscale>
<asrwt>0</asrwt>
<pdfrwt beam="1">  1        2 0.18136447E+00 0.11421406E+04</pdfrwt>
<pdfrwt beam="2">  1       -3 0.42559864E-01 0.11421406E+04</pdfrwt>
<totfact> 0.67861384E+01</totfact>
</mgrwt>
</event>
<event>
12    7  0.1701638E-007  0.1692923E+04  0.7818608E-02  0.8765411E-01
          2   -1    0    0  501    0  0.00000000000E+00  0.00000000000E+00  0.17705954389E+04  0.17705954389E+04  0.00000000000E+00 0. -1.
         -1   -1    0    0    0  501 -0.00000000000E+00 -0.00000000000E+00 -0.40466445618E+03  0.40466445618E+03  0.00000000000E+00 0.  1.
         24    2    1    2    0    0 -0.25918210566E+03 -0.15381859452E+03 -0.18143620057E+03  0.36045331826E+03  0.78561923719E+02 0.  0.
        254    2    1    2    0    0  0.25918210566E+03  0.15381859452E+03  0.15473671832E+04  0.18148065768E+04  0.89907852128E+03 0.  0.
         23    2    4    4    0    0  0.35859045656E+03  0.25786466961E+03  0.15788603874E+04  0.16419660294E+04  0.90393670980E+02 0.  0.
         23    2    4    4    0    0 -0.99408350898E+02 -0.10404607510E+03 -0.31493204103E+02  0.17284054733E+03  0.90412537436E+02 0.  0.
          4    1    3    3  502    0 -0.19070136539E+03 -0.13449253240E+03 -0.10459051523E+03  0.25572334252E+03  0.00000000000E+00 0. -1.
         -3    1    3    3    0  502 -0.68480740267E+02 -0.19326062116E+02 -0.76845685335E+02  0.10472997574E+03  0.00000000000E+00 0.  1.
         13    1    5    5    0    0  0.24248597761E+02  0.91845393770E+01  0.39839305332E+02  0.47534413915E+02  0.00000000000E+00 0.  1.
        -13    1    5    5    0    0  0.33434185880E+03  0.24868013024E+03  0.15390210820E+04  0.15944316155E+04  0.00000000000E+00 0. -1.
          4    1    6    6  503    0 -0.89815393326E+02 -0.29177640073E+02 -0.19135873678E+02  0.96355182631E+02  0.00000000000E+00 0. -1.
         -4    1    6    6    0  503 -0.95929575715E+01 -0.74868435023E+02 -0.12357330425E+02  0.76485364698E+02  0.00000000000E+00 0.  1.
<mgrwt>
<rscale>  0 0.16929230E+04</rscale>
<asrwt>0</asrwt>
<pdfrwt beam="1">  1        2 0.27239929E+00 0.16929230E+04</pdfrwt>
<pdfrwt beam="2">  1       -1 0.62256071E-01 0.16929230E+04</pdfrwt>
<totfact> 0.25427055E+01</totfact>
</mgrwt>
</event>
<event>
12    7  0.1701638E-007  0.2462974E+04  0.7818608E-02  0.8416296E-01
         -1   -1    0    0    0  501 -0.00000000000E+00  0.00000000000E+00  0.61418040108E+03  0.61418040108E+03  0.00000000000E+00 0.  1.
          2   -1    0    0  501    0  0.00000000000E+00 -0.00000000000E+00 -0.24692430131E+04  0.24692430131E+04  0.00000000000E+00 0. -1.
         24    2    1    2    0    0 -0.13478683625E+03  0.36879488267E+03 -0.20481202890E+04  0.20870274598E+04  0.81913021100E+02 0.  0.
        254    2    1    2    0    0  0.13478683625E+03 -0.36879488267E+03  0.19305767697E+03  0.99639595438E+03  0.89518516216E+03 0.  0.
         23    2    4    4    0    0 -0.24215367737E+03  0.85203369222E+01 -0.20080088111E+03  0.32698117457E+03  0.88795805437E+02 0.  0.
         23    2    4    4    0    0  0.37694051361E+03 -0.37731521960E+03  0.39385855809E+03  0.66941477981E+03  0.92415679968E+02 0.  0.
          4    1    3    3  502    0 -0.12444104482E+03  0.27937454845E+03 -0.17097488824E+04  0.17368871445E+04  0.00000000000E+00 0. -1.
         -3    1    3    3    0  502 -0.10345791425E+02  0.89420334226E+02 -0.33837140659E+03  0.35014031526E+03  0.00000000000E+00 0.  1.
         13    1    5    5    0    0 -0.80148404027E+02  0.10171743204E+02 -0.12323451327E+03  0.14735662961E+03  0.00000000000E+00 0. -1.
        -13    1    5    5    0    0 -0.16200527334E+03 -0.16514062822E+01 -0.77566367842E+02  0.17962454496E+03  0.00000000000E+00 0.  1.
          1    1    6    6  503    0  0.24323357744E+03 -0.30218642786E+03  0.28143637756E+03  0.47925530251E+03  0.00000000000E+00 0. -1.
         -1    1    6    6    0  503  0.13370693618E+03 -0.75128791738E+02  0.11242218053E+03  0.19015947729E+03  0.00000000000E+00 0.  1.
<mgrwt>
<rscale>  0 0.24629744E+04</rscale>
<asrwt>0</asrwt>
<pdfrwt beam="1">  1        2 0.37988353E+00 0.24629744E+04</pdfrwt>
<pdfrwt beam="2">  1       -1 0.94489295E-01 0.24629744E+04</pdfrwt>
<totfact> 0.39992219E+00</totfact>
</mgrwt>
</event>
<event>
12    7  0.1701638E-007  0.1438268E+04  0.7818608E-02  0.8926575E-01
         -1   -1    0    0    0  501 -0.00000000000E+00  0.00000000000E+00  0.18718893237E+03  0.18718893237E+03  0.00000000000E+00 0.  1.
          2   -1    0    0  501    0  0.00000000000E+00 -0.00000000000E+00 -0.27627354982E+04  0.27627354982E+04  0.00000000000E+00 0. -1.
         24    2    1    2    0    0  0.12446714314E+03  0.12147008902E+03  0.23262147543E+02  0.19272514948E+03  0.79717021327E+02 0.  0.
        254    2    1    2    0    0 -0.12446714314E+03 -0.12147008902E+03 -0.25988087134E+04  0.27571992811E+04  0.90448554146E+03 0.  0.
         23    2    4    4    0    0 -0.50304327895E+03 -0.14243821813E+03 -0.15384514764E+04  0.16275098197E+04  0.92812076182E+02 0.  0.
         23    2    4    4    0    0  0.37857613581E+03  0.20968129115E+02 -0.10603572369E+04  0.11296894613E+04  0.89895807157E+02 0.  0.
          2    1    3    3  502    0  0.49677352191E+02  0.56660459329E+02 -0.29081699351E+02  0.80771233798E+02  0.00000000000E+00 0. -1.
         -1    1    3    3    0  502  0.74789790945E+02  0.64809629686E+02  0.52343846894E+02  0.11195391569E+03  0.00000000000E+00 0.  1.
         13    1    5    5    0    0 -0.40543337087E+03 -0.13439926990E+03 -0.13359026573E+04  0.14025246136E+04  0.00000000000E+00 0.  1.
        -13    1    5    5    0    0 -0.97609908083E+02 -0.80389482272E+01 -0.20254881912E+03  0.22498520611E+03  0.00000000000E+00 0. -1.
          2    1    6    6  503    0  0.83535593019E+02 -0.19058677712E+02 -0.33075162852E+03  0.34166953078E+03  0.00000000000E+00 0. -1.
         -2    1    6    6    0  503  0.29504054279E+03  0.40026806827E+02 -0.72960560840E+03  0.78801993057E+03  0.00000000000E+00 0.  1.
<mgrwt>
<rscale>  0 0.14382677E+04</rscale>
<asrwt>0</asrwt>
<pdfrwt beam="1">  1        2 0.42503619E+00 0.14382677E+04</pdfrwt>
<pdfrwt beam="2">  1       -1 0.28798300E-01 0.14382677E+04</pdfrwt>
<totfact> 0.29678630E+01</totfact>
</mgrwt>
</event>
<event>
12    7  0.1701638E-007  0.2551666E+04  0.7818608E-02  0.8384807E-01
         -3   -1    0    0    0  501 -0.00000000000E+00  0.00000000000E+00  0.18343787173E+04  0.18343787173E+04  0.00000000000E+00 0.  1.
          4   -1    0    0  501    0  0.00000000000E+00 -0.00000000000E+00 -0.88735728927E+03  0.88735728927E+03  0.00000000000E+00 0. -1.
         24    2    1    2    0    0  0.92275603115E+03 -0.28231557925E+03 -0.18763257945E+03  0.98615481394E+03  0.78195606499E+02 0.  0.
        254    2    1    2    0    0 -0.92275603115E+03  0.28231557925E+03  0.11346540074E+04  0.17355811926E+04  0.89085441020E+03 0.  0.
         23    2    4    4    0    0 -0.69759804746E+03  0.38394502663E+03  0.12194161613E+04  0.14592137375E+04  0.90951294493E+02 0.  0.
         23    2    4    4    0    0 -0.22515798369E+03 -0.10162944738E+03 -0.84762153907E+02  0.27636745505E+03  0.90386311377E+02 0.  0.
          2    1    3    3  502    0  0.80440342348E+03 -0.24854271912E+03 -0.13667957944E+03  0.85294762932E+03  0.00000000000E+00 0. -1.
         -1    1    3    3    0  502  0.11835260767E+03 -0.33772860133E+02 -0.50953000006E+02  0.13320718462E+03  0.00000000000E+00 0.  1.
         13    1    5    5    0    0 -0.89833535843E+02  0.52092273915E+02  0.10876055917E+03  0.15037462683E+03  0.00000000000E+00 0. -1.
        -13    1    5    5    0    0 -0.60776451162E+03  0.33185275272E+03  0.11106556022E+04  0.13088391107E+04  0.00000000000E+00 0.  1.
          1    1    6    6  503    0 -0.14464950658E+02 -0.30842029949E+02 -0.34509341626E+02  0.48490826642E+02  0.00000000000E+00 0. -1.
         -1    1    6    6    0  503 -0.21069303303E+03 -0.70787417431E+02 -0.50252812280E+02  0.22787662841E+03  0.00000000000E+00 0.  1.
<mgrwt>
<rscale>  0 0.25516656E+04</rscale>
<asrwt>0</asrwt>
<pdfrwt beam="1">  1        4 0.13651651E+00 0.25516656E+04</pdfrwt>
<pdfrwt beam="2">  1       -3 0.28221211E+00 0.25516656E+04</pdfrwt>
<totfact> 0.37000876E-02</totfact>
</mgrwt>
</event>
<event>
12    7  0.1701638E-007  0.1780926E+04  0.7818608E-02  0.8716509E-01
         -1   -1    0    0    0  501 -0.00000000000E+00  0.00000000000E+00  0.53172658240E+03  0.53172658240E+03  0.00000000000E+00 0.  1.
          2   -1    0    0  501    0  0.00000000000E+00 -0.00000000000E+00 -0.14912265262E+04  0.14912265262E+04  0.00000000000E+00 0. -1.
         24    2    1    2    0    0 -0.43100295686E+03 -0.24825395256E+03 -0.82695234256E+03  0.96824379026E+03  0.79071402725E+02 0.  0.
        254    2    1    2    0    0  0.43100295686E+03  0.24825395256E+03 -0.13254760128E+03  0.10547093184E+04  0.92057009831E+03 0.  0.
         23    2    4    4    0    0 -0.23607963906E+03  0.12478541563E+03  0.14342431496E+03  0.31666133598E+03  0.91645358007E+02 0.  0.
         23    2    4    4    0    0  0.66708259592E+03  0.12346853693E+03 -0.27597191624E+03  0.73804798241E+03  0.91162801539E+02 0.  0.
          2    1    3    3  502    0 -0.42211270795E+03 -0.23058280149E+03 -0.81068146605E+03  0.94263036550E+03  0.00000000000E+00 0. -1.
         -1    1    3    3    0  502 -0.88902489080E+01 -0.17671151068E+02 -0.16270876506E+02  0.25613424761E+02  0.00000000000E+00 0.  1.
         13    1    5    5    0    0 -0.17282591494E+03  0.12684570623E+03  0.85279504268E+02  0.23071892838E+03  0.00000000000E+00 0. -1.
        -13    1    5    5    0    0 -0.63253724121E+02 -0.20602905978E+01  0.58144810696E+02  0.85942407596E+02  0.00000000000E+00 0.  1.
          1    1    6    6  503    0  0.17354548748E+03 -0.66178023385E+01 -0.81740351873E+02  0.19194612957E+03  0.00000000000E+00 0. -1.
         -1    1    6    6    0  503  0.49353710845E+03  0.13008633926E+03 -0.19423156437E+03  0.54610185284E+03  0.00000000000E+00 0.  1.
<mgrwt>
<rscale>  0 0.17809265E+04</rscale>
<asrwt>0</asrwt>
<pdfrwt beam="1">  1        2 0.22941946E+00 0.17809265E+04</pdfrwt>
<pdfrwt beam="2">  1       -1 0.81804090E-01 0.17809265E+04</pdfrwt>
<totfact> 0.20573125E+01</totfact>
</mgrwt>
</event>
<event>
12    7  0.1701638E-007  0.1851205E+04  0.7818608E-02  0.8679534E-01
          2   -1    0    0  501    0  0.00000000000E+00  0.00000000000E+00  0.41801966163E+04  0.41801966163E+04  0.00000000000E+00 0. -1.
         -3   -1    0    0    0  501 -0.00000000000E+00 -0.00000000000E+00 -0.20495199425E+03  0.20495199425E+03  0.00000000000E+00 0.  1.
         24    2    1    2    0    0  0.64630533902E+03 -0.18492252279E+03  0.18595440120E+04  0.19789266111E+04  0.79622038081E+02 0.  0.
        254    2    1    2    0    0 -0.64630533902E+03  0.18492252279E+03  0.21157006101E+04  0.24062219994E+04  0.92833631217E+03 0.  0.
         23    2    4    4    0    0  0.98038799431E+02  0.14070918666E+03  0.39259434345E+02  0.19813257547E+03  0.91129209781E+02 0.  0.
         23    2    4    4    0    0 -0.74434413846E+03  0.44213336136E+02  0.20764411757E+04  0.22080894240E+04  0.89710269610E+02 0.  0.
          2    1    3    3  502    0  0.20976001404E+03 -0.57847546327E+02  0.71524505036E+03  0.74761024884E+03  0.00000000000E+00 0. -1.
         -1    1    3    3    0  502  0.43654532498E+03 -0.12707497647E+03  0.11442989617E+04  0.12313163623E+04  0.00000000000E+00 0.  1.
         13    1    5    5    0    0  0.56994430786E+01  0.55380377579E+02  0.46008221947E+02  0.72223447432E+02  0.00000000000E+00 0.  1.
        -13    1    5    5    0    0  0.92339356352E+02  0.85328809078E+02 -0.67487876017E+01  0.12590912804E+03  0.00000000000E+00 0. -1.
          1    1    6    6  503    0 -0.48639884102E+03  0.71049971722E+02  0.13790895884E+04  0.14640765089E+04  0.00000000000E+00 0. -1.
         -1    1    6    6    0  503 -0.25794529743E+03 -0.26836635586E+02  0.69735158734E+03  0.74401291510E+03  0.00000000000E+00 0.  1.
<mgrwt>
<rscale>  0 0.18512046E+04</rscale>
<asrwt>0</asrwt>
<pdfrwt beam="1">  1        2 0.64310711E+00 0.18512046E+04</pdfrwt>
<pdfrwt beam="2">  1       -3 0.31531079E-01 0.18512046E+04</pdfrwt>
<totfact> 0.14858935E+00</totfact>
</mgrwt>
</event>
<event>
12    7  0.1701638E-007  0.1264948E+04  0.7818608E-02  0.9057833E-01
          2   -1    0    0  501    0  0.00000000000E+00  0.00000000000E+00  0.13847461538E+04  0.13847461538E+04  0.00000000000E+00 0. -1.
         -1   -1    0    0    0  501 -0.00000000000E+00 -0.00000000000E+00 -0.28887862036E+03  0.28887862036E+03  0.00000000000E+00 0.  1.
         24    2    1    2    0    0 -0.22447304564E+03 -0.17933093381E+03  0.37942392272E+03  0.48266977185E+03  0.80373275915E+02 0.  0.
        254    2    1    2    0    0  0.22447304564E+03  0.17933093381E+03  0.71644361073E+03  0.11909550023E+04  0.90693695380E+03 0.  0.
         23    2    4    4    0    0 -0.83031832105E+02 -0.17578058306E+03  0.67762640315E+03  0.71034185970E+03  0.87263491031E+02 0.  0.
         23    2    4    4    0    0  0.30750487775E+03  0.35511151687E+03  0.38817207579E+02  0.48061314263E+03  0.93908348993E+02 0.  0.
          4    1    3    3  502    0 -0.22089800877E+03 -0.15599915339E+03  0.36735446924E+03  0.45615893306E+03  0.00000000000E+00 0. -1.
         -3    1    3    3    0  502 -0.35750368671E+01 -0.23331780416E+02  0.12069453489E+02  0.26510838793E+02  0.00000000000E+00 0.  1.
         13    1    5    5    0    0 -0.65676172230E+02 -0.16815618798E+03  0.66073004537E+03  0.68494821411E+03  0.00000000000E+00 0. -1.
        -13    1    5    5    0    0 -0.17355659875E+02 -0.76243950834E+01  0.16896357781E+02  0.25393645590E+02  0.00000000000E+00 0.  1.
          3    1    6    6  503    0  0.20808982983E+03  0.29030171949E+03  0.49966777746E+01  0.35721342697E+03  0.00000000000E+00 0. -1.
         -3    1    6    6    0  503  0.99415047917E+02  0.64809797381E+02  0.33820529805E+02  0.12339971566E+03  0.00000000000E+00 0.  1.
<mgrwt>
<rscale>  0 0.12649483E+04</rscale>
<asrwt>0</asrwt>
<pdfrwt beam="1">  1        2 0.21303787E+00 0.12649483E+04</pdfrwt>
<pdfrwt beam="2">  1       -1 0.44442865E-01 0.12649483E+04</pdfrwt>
<totfact> 0.82843683E+01</totfact>
</mgrwt>
</event>
<event>
12    7  0.1701638E-007  0.1400005E+04  0.7818608E-02  0.8953815E-01
         -1   -1    0    0    0  501 -0.00000000000E+00  0.00000000000E+00  0.39761971271E+03  0.39761971271E+03  0.00000000000E+00 0.  1.
          2   -1    0    0  501    0  0.00000000000E+00 -0.00000000000E+00 -0.12323418521E+04  0.12323418521E+04  0.00000000000E+00 0. -1.
         24    2    1    2    0    0  0.99253423346E+02 -0.24898453057E+03 -0.59576459069E+03  0.65816367617E+03  0.79996491142E+02 0.  0.
        254    2    1    2    0    0 -0.99253423346E+02  0.24898453057E+03 -0.23895754874E+03  0.97179788869E+03  0.90302042494E+03 0.  0.
         23    2    4    4    0    0 -0.69439441497E+02 -0.32726592671E+03 -0.16382420478E+03  0.38323458149E+03  0.90030836723E+02 0.  0.
         23    2    4    4    0    0 -0.29813981849E+02  0.57625045728E+03 -0.75133343967E+02  0.58856330720E+03  0.88364496137E+02 0.  0.
          2    1    3    3  502    0  0.24399853952E+02 -0.16216453421E+03 -0.37891144914E+03  0.41287598055E+03  0.00000000000E+00 0. -1.
         -1    1    3    3    0  502  0.74853569393E+02 -0.86819996365E+02 -0.21685314155E+03  0.24528769562E+03  0.00000000000E+00 0.  1.
         13    1    5    5    0    0 -0.24836021813E+01 -0.35788978276E+01  0.91770053998E+01  0.10158455471E+02  0.00000000000E+00 0. -1.
        -13    1    5    5    0    0 -0.66955839316E+02 -0.32368702888E+03 -0.17300121018E+03  0.37307612602E+03  0.00000000000E+00 0.  1.
          3    1    6    6  503    0  0.11276328358E+02  0.26877948904E+03  0.15533676970E+01  0.26902041235E+03  0.00000000000E+00 0. -1.
         -3    1    6    6    0  503 -0.41090310206E+02  0.30747096824E+03 -0.76686711664E+02  0.31954289485E+03  0.00000000000E+00 0.  1.
<mgrwt>
<rscale>  0 0.14000049E+04</rscale>
<asrwt>0</asrwt>
<pdfrwt beam="1">  1        2 0.18959105E+00 0.14000049E+04</pdfrwt>
<pdfrwt beam="2">  1       -1 0.61172264E-01 0.14000049E+04</pdfrwt>
<totfact> 0.54491779E+01</totfact>
</mgrwt>
</event>
<event>
12    7  0.1701638E-007  0.1167569E+04  0.7818608E-02  0.9141727E-01
          2   -1    0    0  501    0  0.00000000000E+00  0.00000000000E+00  0.17611716079E+04  0.17611716079E+04  0.00000000000E+00 0. -1.
         -1   -1    0    0    0  501 -0.00000000000E+00 -0.00000000000E+00 -0.19350999209E+03  0.19350999209E+03  0.00000000000E+00 0.  1.
         24    2    1    2    0    0 -0.20580874185E+02  0.19083744927E+03  0.14621573824E+03  0.25373279364E+03  0.78477920696E+02 0.  0.
        254    2    1    2    0    0  0.20580874185E+02 -0.19083744927E+03  0.14214458776E+04  0.17009488064E+04  0.91426251947E+03 0.  0.
         23    2    4    4    0    0  0.18286260555E+03 -0.30885394011E+03  0.13294750700E+03  0.39367394875E+03  0.92057859367E+02 0.  0.
         23    2    4    4    0    0 -0.16228173137E+03  0.11801649085E+03  0.12884983706E+04  0.13072748576E+04  0.92066551384E+02 0.  0.
          4    1    3    3  502    0  0.28962581829E+02  0.47759075324E+02  0.35948127064E+02  0.66423100360E+02  0.00000000000E+00 0. -1.
         -3    1    3    3    0  502 -0.49543456014E+02  0.14307837394E+03  0.11026761118E+03  0.18730969328E+03  0.00000000000E+00 0.  1.
         13    1    5    5    0    0  0.17209926387E+03 -0.23992581699E+03  0.79477567677E+02  0.30577645110E+03  0.00000000000E+00 0. -1.
        -13    1    5    5    0    0  0.10763341683E+02 -0.68928123118E+02  0.53469939324E+02  0.87897497644E+02  0.00000000000E+00 0.  1.
          2    1    6    6  503    0 -0.11862088859E+03  0.31139675569E+02  0.77663960060E+03  0.78626310089E+03  0.00000000000E+00 0. -1.
         -2    1    6    6    0  503 -0.43660842779E+02  0.86876815276E+02  0.51185877001E+03  0.52101175674E+03  0.00000000000E+00 0.  1.
<mgrwt>
<rscale>  0 0.11675689E+04</rscale>
<asrwt>0</asrwt>
<pdfrwt beam="1">  1        2 0.27094947E+00 0.11675689E+04</pdfrwt>
<pdfrwt beam="2">  1       -1 0.29770769E-01 0.11675689E+04</pdfrwt>
<totfact> 0.10566122E+02</totfact>
</mgrwt>
</event>
<event>
12    7  0.1701638E-007  0.1887832E+04  0.7818608E-02  0.8660937E-01
         -1   -1    0    0    0  501 -0.00000000000E+00  0.00000000000E+00  0.83218409467E+03  0.83218409467E+03  0.00000000000E+00 0.  1.
          2   -1    0    0  501    0  0.00000000000E+00 -0.00000000000E+00 -0.10706489083E+04  0.10706489083E+04  0.00000000000E+00 0. -1.
         24    2    1    2    0    0 -0.52657941653E+03 -0.24342155384E+03 -0.51849515025E+03  0.78226287270E+03  0.80981765737E+02 0.  0.
        254    2    1    2    0    0  0.52657941653E+03  0.24342155384E+03  0.28003033662E+03  0.11205701303E+04  0.91690811569E+03 0.  0.
         23    2    4    4    0    0  0.45999185666E+03 -0.27607322104E+03  0.21789365753E+03  0.58620537690E+03  0.91379244614E+02 0.  0.
         23    2    4    4    0    0  0.66587559871E+02  0.51949477488E+03  0.62136679087E+02  0.53436475336E+03  0.85883633418E+02 0.  0.
          2    1    3    3  502    0 -0.32423944202E+03 -0.11071257521E+03 -0.32781679426E+03  0.47418597688E+03  0.00000000000E+00 0. -1.
         -1    1    3    3    0  502 -0.20233997451E+03 -0.13270897863E+03 -0.19067835599E+03  0.30807689582E+03  0.00000000000E+00 0.  1.
         13    1    5    5    0    0  0.27173580890E+03 -0.13399847598E+03  0.16303494787E+03  0.34405862238E+03  0.00000000000E+00 0. -1.
        -13    1    5    5    0    0  0.18825604776E+03 -0.14207474505E+03  0.54858709660E+02  0.24214675452E+03  0.00000000000E+00 0.  1.
          2    1    6    6  503    0 -0.58621934065E+01  0.28668411165E+03  0.26790681183E+02  0.28799285717E+03  0.00000000000E+00 0. -1.
         -2    1    6    6    0  503  0.72449753277E+02  0.23281066323E+03  0.35345997904E+02  0.24637189619E+03  0.00000000000E+00 0.  1.
<mgrwt>
<rscale>  0 0.18878316E+04</rscale>
<asrwt>0</asrwt>
<pdfrwt beam="1">  1        2 0.16471522E+00 0.18878316E+04</pdfrwt>
<pdfrwt beam="2">  1       -1 0.12802832E+00 0.18878316E+04</pdfrwt>
<totfact> 0.12806411E+01</totfact>
</mgrwt>
</event>
<event>
12    7  0.1701638E-007  0.2015359E+04  0.7818608E-02  0.8599473E-01
          2   -1    0    0  501    0  0.00000000000E+00  0.00000000000E+00  0.19570113674E+04  0.19570113674E+04  0.00000000000E+00 0. -1.
         -1   -1    0    0    0  501 -0.00000000000E+00 -0.00000000000E+00 -0.51886155166E+03  0.51886155166E+03  0.00000000000E+00 0.  1.
         24    2    1    2    0    0 -0.48851078784E+03 -0.33601976563E+03 -0.83826168445E+02  0.60406808017E+03  0.79494315681E+02 0.  0.
        254    2    1    2    0    0  0.48851078784E+03  0.33601976563E+03  0.15219759842E+04  0.18718048389E+04  0.91416102832E+03 0.  0.
         23    2    4    4    0    0 -0.17040634438E+03  0.13182002554E+03  0.44087853141E+02  0.23837461201E+03  0.91999323453E+02 0.  0.
         23    2    4    4    0    0  0.65891713222E+03  0.20419974009E+03  0.14778881310E+04  0.16334302269E+04  0.89842402077E+02 0.  0.
          4    1    3    3  502    0 -0.11097056398E+02 -0.14507257229E+01  0.81998457796E+01  0.13873958939E+02  0.00000000000E+00 0. -1.
         -3    1    3    3    0  502 -0.47741373145E+03 -0.33456903991E+03 -0.92026014224E+02  0.59019412123E+03  0.00000000000E+00 0.  1.
         13    1    5    5    0    0 -0.31083459814E+02  0.30182367351E+01  0.37117787233E+02  0.48507951473E+02  0.00000000000E+00 0. -1.
        -13    1    5    5    0    0 -0.13932288457E+03  0.12880178881E+03  0.69700659086E+01  0.18986666053E+03  0.00000000000E+00 0.  1.
          4    1    6    6  503    0  0.27237865659E+03  0.69467114700E+02  0.70183381486E+03  0.75603340950E+03  0.00000000000E+00 0. -1.
         -4    1    6    6    0  503  0.38653847563E+03  0.13473262539E+03  0.77605431617E+03  0.87739681737E+03  0.00000000000E+00 0.  1.
<mgrwt>
<rscale>  0 0.20153590E+04</rscale>
<asrwt>0</asrwt>
<pdfrwt beam="1">  1        2 0.30107867E+00 0.20153590E+04</pdfrwt>
<pdfrwt beam="2">  1       -1 0.79824855E-01 0.20153590E+04</pdfrwt>
<totfact> 0.11687868E+01</totfact>
</mgrwt>
</event>
<event>
12    7  0.1701638E-007  0.2656191E+04  0.7818608E-02  0.8349361E-01
          2   -1    0    0  501    0  0.00000000000E+00  0.00000000000E+00  0.17518689081E+04  0.17518689081E+04  0.00000000000E+00 0. -1.
         -1   -1    0    0    0  501 -0.00000000000E+00 -0.00000000000E+00 -0.10068316483E+04  0.10068316483E+04  0.00000000000E+00 0.  1.
         24    2    1    2    0    0  0.92467858584E+03  0.82653680961E+02 -0.41715777170E+03  0.10209168861E+04  0.79928491162E+02 0.  0.
        254    2    1    2    0    0 -0.92467858584E+03 -0.82653680961E+02  0.11621950315E+04  0.17377836703E+04  0.89851693111E+03 0.  0.
         23    2    4    4    0    0 -0.10721585080E+04  0.15296536494E+02  0.10708852718E+04  0.15181712289E+04  0.91053636715E+02 0.  0.
         23    2    4    4    0    0  0.14747992212E+03 -0.97950217455E+02  0.91309759764E+02  0.21961244143E+03  0.92453121495E+02 0.  0.
          4    1    3    3  502    0  0.27153460900E+03  0.58521987221E+02 -0.13885620054E+03  0.31054292988E+03  0.00000000000E+00 0. -1.
         -1    1    3    3    0  502  0.65314397684E+03  0.24131693740E+02 -0.27830157116E+03  0.71037395619E+03  0.00000000000E+00 0.  1.
         13    1    5    5    0    0 -0.55929243684E+02  0.79230993563E+01  0.86598765992E+02  0.10339343342E+03  0.00000000000E+00 0. -1.
        -13    1    5    5    0    0 -0.10162292643E+04  0.73734371381E+01  0.98428650577E+03  0.14147777955E+04  0.00000000000E+00 0.  1.
          4    1    6    6  503    0  0.20783435333E+02 -0.59483850823E+02  0.88526562775E+01  0.63628996661E+02  0.00000000000E+00 0. -1.
         -4    1    6    6    0  503  0.12669648679E+03 -0.38466366633E+02  0.82457103486E+02  0.15598344477E+03  0.00000000000E+00 0.  1.
<mgrwt>
<rscale>  0 0.26561906E+04</rscale>
<asrwt>0</asrwt>
<pdfrwt beam="1">  1        2 0.26951829E+00 0.26561906E+04</pdfrwt>
<pdfrwt beam="2">  1       -1 0.15489718E+00 0.26561906E+04</pdfrwt>
<totfact> 0.29404182E+00</totfact>
</mgrwt>
</event>
<event>
12    7  0.1701638E-007  0.3721449E+04  0.7818608E-02  0.8063225E-01
         -1   -1    0    0    0  501 -0.00000000000E+00  0.00000000000E+00  0.91588474003E+03  0.91588474003E+03  0.00000000000E+00 0.  1.
          2   -1    0    0  501    0  0.00000000000E+00 -0.00000000000E+00 -0.37802746396E+04  0.37802746396E+04  0.00000000000E+00 0. -1.
         24    2    1    2    0    0 -0.43265199672E+03  0.10841068812E+04 -0.29978829285E+04  0.32181160864E+04  0.80582955065E+02 0.  0.
        254    2    1    2    0    0  0.43265199672E+03 -0.10841068812E+04  0.13349302898E+03  0.14780432932E+04  0.89683672293E+03 0.  0.
         23    2    4    4    0    0  0.61314822607E+03 -0.72528377509E+03 -0.16659145812E+03  0.96867781276E+03  0.92718334005E+02 0.  0.
         23    2    4    4    0    0 -0.18049622935E+03 -0.35882310608E+03  0.30008448711E+03  0.50936548040E+03  0.89830857463E+02 0.  0.
          4    1    3    3  502    0 -0.38903157735E+03  0.89691187192E+03 -0.25254204753E+04  0.27080518923E+04  0.00000000000E+00 0. -1.
         -3    1    3    3    0  502 -0.43620419366E+02  0.18719500925E+03 -0.47246245323E+03  0.51006419418E+03  0.00000000000E+00 0.  1.
         13    1    5    5    0    0  0.55232497073E+03 -0.64133178067E+03 -0.11937828804E+03  0.85476341864E+03  0.00000000000E+00 0.  1.
        -13    1    5    5    0    0  0.60823255342E+02 -0.83951994420E+02 -0.47213170082E+02  0.11391439412E+03  0.00000000000E+00 0. -1.
          1    1    6    6  503    0  0.21739141210E+01 -0.61107765115E+01 -0.52649366897E+01  0.83538644068E+01  0.00000000000E+00 0. -1.
         -1    1    6    6    0  503 -0.18267014348E+03 -0.35271232957E+03  0.30534942380E+03  0.50101161599E+03  0.00000000000E+00 0.  1.
<mgrwt>
<rscale>  0 0.37214491E+04</rscale>
<asrwt>0</asrwt>
<pdfrwt beam="1">  1        2 0.58158071E+00 0.37214491E+04</pdfrwt>
<pdfrwt beam="2">  1       -1 0.14090535E+00 0.37214491E+04</pdfrwt>
<totfact> 0.19136725E-01</totfact>
</mgrwt>
</event>
<event>
12    7  0.1701638E-007  0.1324518E+04  0.7818608E-02  0.9010345E-01
         -3   -1    0    0    0  501 -0.00000000000E+00  0.00000000000E+00  0.45766082655E+03  0.45766082655E+03  0.00000000000E+00 0.  1.
          2   -1    0    0  501    0  0.00000000000E+00 -0.00000000000E+00 -0.95832263485E+03  0.95832263485E+03  0.00000000000E+00 0. -1.
         24    2    1    2    0    0  0.21659194200E+03 -0.18349760345E+02 -0.42516079757E+03  0.48421267127E+03  0.80320758115E+02 0.  0.
        254    2    1    2    0    0 -0.21659194200E+03  0.18349760345E+02 -0.75501010725E+02  0.93177079012E+03  0.90291063769E+03 0.  0.
         23    2    4    4    0    0 -0.47955936709E+03 -0.22035923094E+02  0.20950346592E+03  0.53154454711E+03  0.90471735129E+02 0.  0.
         23    2    4    4    0    0  0.26296742509E+03  0.40385683439E+02 -0.28500447664E+03  0.40022624302E+03  0.90391502964E+02 0.  0.
          4    1    3    3  502    0  0.21040968392E+03 -0.99800210589E+00 -0.40788390331E+03  0.45895806963E+03  0.00000000000E+00 0. -1.
         -3    1    3    3    0  502  0.61822580834E+01 -0.17351758239E+02 -0.17276894259E+02  0.25254601644E+02  0.00000000000E+00 0.  1.
         13    1    5    5    0    0 -0.39896251477E+03 -0.31881040171E+02  0.13801471122E+03  0.42336219650E+03  0.00000000000E+00 0. -1.
        -13    1    5    5    0    0 -0.80596852324E+02  0.98451170772E+01  0.71488754700E+02  0.10818235061E+03  0.00000000000E+00 0.  1.
          3    1    6    6  503    0  0.48396721276E+02  0.30664864103E+02 -0.23774244739E+02  0.62030566930E+02  0.00000000000E+00 0. -1.
         -3    1    6    6    0  503  0.21457070381E+03  0.97208193356E+01 -0.26123023190E+03  0.33819567609E+03  0.00000000000E+00 0.  1.
<mgrwt>
<rscale>  0 0.13245176E+04</rscale>
<asrwt>0</asrwt>
<pdfrwt beam="1">  1        2 0.14743425E+00 0.13245176E+04</pdfrwt>
<pdfrwt beam="2">  1       -3 0.70409358E-01 0.13245176E+04</pdfrwt>
<totfact> 0.32120650E+01</totfact>
</mgrwt>
</event>
<event>
12    7  0.1701638E-007  0.1308075E+04  0.7818608E-02  0.9023186E-01
         -1   -1    0    0    0  501 -0.00000000000E+00  0.00000000000E+00  0.15684076265E+03  0.15684076265E+03  0.00000000000E+00 0.  1.
          2   -1    0    0  501    0  0.00000000000E+00 -0.00000000000E+00 -0.27273846560E+04  0.27273846560E+04  0.00000000000E+00 0. -1.
         24    2    1    2    0    0 -0.56794866317E+02 -0.31804851419E+03 -0.86280269450E+03  0.92637671566E+03  0.96771976652E+02 0.  0.
        254    2    1    2    0    0  0.56794866317E+02  0.31804851419E+03 -0.17077411989E+04  0.19578487030E+04  0.90133846436E+03 0.  0.
         23    2    4    4    0    0  0.16549837349E+03 -0.21489035090E+03 -0.11032236492E+04  0.11398064105E+04  0.92133917159E+02 0.  0.
         23    2    4    4    0    0 -0.10870350717E+03  0.53293886509E+03 -0.60451754971E+03  0.81804229256E+03  0.88946265296E+02 0.  0.
          4    1    3    3  502    0 -0.37484168231E+02 -0.38497349480E+02 -0.96559255463E+02  0.11050248233E+03  0.00000000000E+00 0. -1.
         -3    1    3    3    0  502 -0.19310698086E+02 -0.27955116471E+03 -0.76624343904E+03  0.81587423334E+03  0.00000000000E+00 0.  1.
         13    1    5    5    0    0  0.58728741747E+02 -0.76284027321E+02 -0.23188604570E+03  0.25107659413E+03  0.00000000000E+00 0. -1.
        -13    1    5    5    0    0  0.10676963174E+03 -0.13860632358E+03 -0.87133760348E+03  0.88872981633E+03  0.00000000000E+00 0.  1.
          3    1    6    6  503    0  0.90915255618E-01  0.13709534758E+02 -0.44848448155E+02  0.46897152481E+02  0.00000000000E+00 0. -1.
         -3    1    6    6    0  503 -0.10879442243E+03  0.51922933033E+03 -0.55966910155E+03  0.77114514008E+03  0.00000000000E+00 0.  1.
<mgrwt>
<rscale>  0 0.13080751E+04</rscale>
<asrwt>0</asrwt>
<pdfrwt beam="1">  1        2 0.41959764E+00 0.13080751E+04</pdfrwt>
<pdfrwt beam="2">  1       -1 0.24129348E-01 0.13080751E+04</pdfrwt>
<totfact> 0.42782720E+01</totfact>
</mgrwt>
</event>
<event>
12    7  0.1701638E-007  0.1621597E+04  0.7818608E-02  0.8807389E-01
         -1   -1    0    0    0  501 -0.00000000000E+00  0.00000000000E+00  0.78137124642E+03  0.78137124642E+03  0.00000000000E+00 0.  1.
          2   -1    0    0  501    0  0.00000000000E+00 -0.00000000000E+00 -0.84133368017E+03  0.84133368017E+03  0.00000000000E+00 0. -1.
         24    2    1    2    0    0 -0.25391125405E+03 -0.42539852301E+03 -0.26832066303E+03  0.56899829915E+03  0.79550348284E+02 0.  0.
        254    2    1    2    0    0  0.25391125405E+03  0.42539852301E+03  0.20835822928E+03  0.10537066274E+04  0.90633861040E+03 0.  0.
         23    2    4    4    0    0 -0.15358983788E+03  0.55438694335E+03  0.20155670882E+03  0.61627428241E+03  0.90742289099E+02 0.  0.
         23    2    4    4    0    0  0.40750109193E+03 -0.12898842033E+03  0.68015204592E+01  0.43743234504E+03  0.92766606608E+02 0.  0.
          4    1    3    3  502    0 -0.14562794397E+03 -0.31443371366E+03 -0.19269858593E+03  0.39649565366E+03  0.00000000000E+00 0. -1.
         -1    1    3    3    0  502 -0.10828331008E+03 -0.11096480935E+03 -0.75622077100E+02  0.17250264549E+03  0.00000000000E+00 0.  1.
         13    1    5    5    0    0  0.87082645221E+01  0.76596613306E+02  0.16711896770E+02  0.78880685434E+02  0.00000000000E+00 0.  1.
        -13    1    5    5    0    0 -0.16229810241E+03  0.47779033004E+03  0.18484481205E+03  0.53739359697E+03  0.00000000000E+00 0. -1.
          3    1    6    6  503    0  0.38017119139E+03 -0.12187961522E+03  0.30740016710E+02  0.40041194288E+03  0.00000000000E+00 0. -1.
         -3    1    6    6    0  503  0.27329900539E+02 -0.71088051107E+01 -0.23938496250E+02  0.37020402163E+02  0.00000000000E+00 0.  1.
<mgrwt>
<rscale>  0 0.16215967E+04</rscale>
<asrwt>0</asrwt>
<pdfrwt beam="1">  1        2 0.12943595E+00 0.16215967E+04</pdfrwt>
<pdfrwt beam="2">  1       -1 0.12021096E+00 0.16215967E+04</pdfrwt>
<totfact> 0.21686200E+01</totfact>
</mgrwt>
</event>
<event>
12    7  0.1701638E-007  0.1544128E+04  0.7818608E-02  0.8855627E-01
         -1   -1    0    0    0  501 -0.00000000000E+00  0.00000000000E+00  0.10077943296E+04  0.10077943296E+04  0.00000000000E+00 0.  1.
          2   -1    0    0  501    0  0.00000000000E+00 -0.00000000000E+00 -0.59147296475E+03  0.59147296475E+03  0.00000000000E+00 0. -1.
         24    2    1    2    0    0  0.48129206143E+03  0.10156705485E+03  0.72608244379E+02  0.50359272270E+03  0.79848344842E+02 0.  0.
        254    2    1    2    0    0 -0.48129206143E+03 -0.10156705485E+03  0.34371312044E+03  0.10956745716E+04  0.91673668123E+03 0.  0.
         23    2    4    4    0    0 -0.71307763128E+03 -0.18509571209E+03  0.37581063006E+03  0.83184966567E+03  0.89443310273E+02 0.  0.
         23    2    4    4    0    0  0.23178556984E+03  0.83528657239E+02 -0.32097509628E+02  0.26382490595E+03  0.88722848833E+02 0.  0.
          2    1    3    3  502    0  0.41619156644E+03  0.71757906777E+02  0.37918442519E+02  0.42403116094E+03  0.00000000000E+00 0. -1.
         -1    1    3    3    0  502  0.65100494990E+02  0.29809148070E+02  0.34689801860E+02  0.79561561760E+02  0.00000000000E+00 0.  1.
         13    1    5    5    0    0 -0.67127207452E+03 -0.15071487642E+03  0.34737939312E+03  0.77070981230E+03  0.00000000000E+00 0.  1.
        -13    1    5    5    0    0 -0.41805556755E+02 -0.34380835667E+02  0.28431236944E+02  0.61139853377E+02  0.00000000000E+00 0. -1.
          1    1    6    6  503    0  0.14551269352E+03  0.16005084308E+02  0.93560195002E+01  0.14668892869E+03  0.00000000000E+00 0. -1.
         -1    1    6    6    0  503  0.86272876322E+02  0.67523572931E+02 -0.41453529128E+02  0.11713597725E+03  0.00000000000E+00 0.  1.
<mgrwt>
<rscale>  0 0.15441284E+04</rscale>
<asrwt>0</asrwt>
<pdfrwt beam="1">  1        2 0.90995841E-01 0.15441284E+04</pdfrwt>
<pdfrwt beam="2">  1       -1 0.15504528E+00 0.15441284E+04</pdfrwt>
<totfact> 0.17706907E+01</totfact>
</mgrwt>
</event>
<event>
12    7  0.1701638E-007  0.2827559E+04  0.7818608E-02  0.8294763E-01
          2   -1    0    0  501    0  0.00000000000E+00  0.00000000000E+00  0.11633565384E+04  0.11633565384E+04  0.00000000000E+00 0. -1.
         -1   -1    0    0    0  501 -0.00000000000E+00 -0.00000000000E+00 -0.17181086341E+04  0.17181086341E+04  0.00000000000E+00 0.  1.
         24    2    1    2    0    0  0.55475795313E+03  0.64349401169E+03  0.64892232535E+03  0.10724860626E+04  0.85353620530E+02 0.  0.
        254    2    1    2    0    0 -0.55475795313E+03 -0.64349401169E+03 -0.12036744210E+04  0.18089791099E+04  0.10496344024E+04 0.  0.
         23    2    4    4    0    0 -0.49494640666E+03 -0.80725276532E+03 -0.12808632305E+04  0.15957424524E+04  0.95678558087E+02 0.  0.
         23    2    4    4    0    0 -0.59811546468E+02  0.16375875363E+03  0.77188809518E+02  0.21323665752E+03  0.95485126122E+02 0.  0.
          4    1    3    3  502    0  0.41122433708E+03  0.49785497857E+03  0.53397627047E+03  0.83791150638E+03  0.00000000000E+00 0. -1.
         -3    1    3    3    0  502  0.14353361605E+03  0.14563903312E+03  0.11494605488E+03  0.23457455624E+03  0.00000000000E+00 0.  1.
         13    1    5    5    0    0 -0.43012027950E+03 -0.63201569657E+03 -0.10107920651E+04  0.12673389028E+04  0.00000000000E+00 0.  1.
        -13    1    5    5    0    0 -0.64826127159E+02 -0.17523706876E+03 -0.27007116537E+03  0.32840354961E+03  0.00000000000E+00 0. -1.
          4    1    6    6  503    0 -0.77312590983E+02  0.10897207494E+03  0.79862607080E+02  0.15566048262E+03  0.00000000000E+00 0. -1.
         -4    1    6    6    0  503  0.17501044516E+02  0.54786678697E+02 -0.26737975626E+01  0.57576174892E+02  0.00000000000E+00 0.  1.
<mgrwt>
<rscale>  0 0.28275593E+04</rscale>
<asrwt>0</asrwt>
<pdfrwt beam="1">  1        2 0.17897793E+00 0.28275593E+04</pdfrwt>
<pdfrwt beam="2">  1       -1 0.26432440E+00 0.28275593E+04</pdfrwt>
<totfact> 0.11087079E+00</totfact>
</mgrwt>
</event>
<event>
12    7  0.1701638E-007  0.1222385E+04  0.7818608E-02  0.9093485E-01
          2   -1    0    0  501    0  0.00000000000E+00  0.00000000000E+00  0.16321531989E+04  0.16321531989E+04  0.00000000000E+00 0. -1.
         -1   -1    0    0    0  501 -0.00000000000E+00 -0.00000000000E+00 -0.22887343555E+03  0.22887343555E+03  0.00000000000E+00 0.  1.
         24    2    1    2    0    0  0.23262233877E+03  0.63663440224E+02  0.50764677229E+03  0.56811046409E+03  0.82934117723E+02 0.  0.
        254    2    1    2    0    0 -0.23262233877E+03 -0.63663440224E+02  0.89563299110E+03  0.12929161704E+04  0.90072614195E+03 0.  0.
         23    2    4    4    0    0 -0.34322201066E+03 -0.37551287235E+03  0.77050524153E+03  0.92774646293E+03  0.90685756091E+02 0.  0.
         23    2    4    4    0    0  0.11059967189E+03  0.31184943212E+03  0.12512774957E+03  0.36516970746E+03  0.90606874991E+02 0.  0.
          4    1    3    3  502    0  0.18798318306E+03  0.54025110793E+02  0.46947865826E+03  0.50859276466E+03  0.00000000000E+00 0. -1.
         -3    1    3    3    0  502  0.44639155710E+02  0.96383294309E+01  0.38168114030E+02  0.59517699429E+02  0.00000000000E+00 0.  1.
         13    1    5    5    0    0 -0.73869275241E+02 -0.43378155392E+02  0.91820149716E+02  0.12557577029E+03  0.00000000000E+00 0.  1.
        -13    1    5    5    0    0 -0.26935273542E+03 -0.33213471696E+03  0.67868509181E+03  0.80217069264E+03  0.00000000000E+00 0. -1.
          1    1    6    6  503    0  0.41730042480E+02  0.14535198995E+03  0.10433415389E+02  0.15158315733E+03  0.00000000000E+00 0. -1.
         -1    1    6    6    0  503  0.68869629410E+02  0.16649744217E+03  0.11469433418E+03  0.21358655013E+03  0.00000000000E+00 0.  1.
<mgrwt>
<rscale>  0 0.12223854E+04</rscale>
<asrwt>0</asrwt>
<pdfrwt beam="1">  1        2 0.25110048E+00 0.12223854E+04</pdfrwt>
<pdfrwt beam="2">  1       -1 0.35211299E-01 0.12223854E+04</pdfrwt>
<totfact> 0.92175933E+01</totfact>
</mgrwt>
</event>
<event>
12    7  0.1701638E-007  0.2886290E+04  0.7818608E-02  0.8276968E-01
         -1   -1    0    0    0  501 -0.00000000000E+00  0.00000000000E+00  0.18490718264E+04  0.18490718264E+04  0.00000000000E+00 0.  1.
          2   -1    0    0  501    0  0.00000000000E+00 -0.00000000000E+00 -0.11263315191E+04  0.11263315191E+04  0.00000000000E+00 0. -1.
         24    2    1    2    0    0  0.10702538902E+03 -0.38045747544E+03 -0.95177747484E+03  0.10335008023E+04  0.77725299950E+02 0.  0.
        254    2    1    2    0    0 -0.10702538902E+03  0.38045747544E+03  0.16745177821E+04  0.19419025432E+04  0.90042954197E+03 0.  0.
         23    2    4    4    0    0 -0.19129049385E+03  0.55535607550E+03  0.59535005835E+03  0.84130688500E+03  0.91340895218E+02 0.  0.
         23    2    4    4    0    0  0.84265104829E+02 -0.17489860007E+03  0.10791677238E+04  0.11005956582E+04  0.94961563631E+02 0.  0.
          4    1    3    3  502    0  0.10126381557E+03 -0.31000940674E+03 -0.70460305622E+03  0.77641848216E+03  0.00000000000E+00 0. -1.
         -3    1    3    3    0  502  0.57615734562E+01 -0.70448068695E+02 -0.24717441863E+03  0.25708232015E+03  0.00000000000E+00 0.  1.
         13    1    5    5    0    0 -0.10414190703E+03  0.18376620442E+03  0.24153715258E+03  0.32086718555E+03  0.00000000000E+00 0.  1.
        -13    1    5    5    0    0 -0.87148586823E+02  0.37158987109E+03  0.35381290577E+03  0.52043969946E+03  0.00000000000E+00 0. -1.
          1    1    6    6  503    0 -0.89526079668E+01 -0.88705686029E+02  0.44847571886E+03  0.45725191999E+03  0.00000000000E+00 0. -1.
         -1    1    6    6    0  503  0.93217712795E+02 -0.86192914039E+02  0.63069200490E+03  0.64334373818E+03  0.00000000000E+00 0.  1.
<mgrwt>
<rscale>  0 0.28862903E+04</rscale>
<asrwt>0</asrwt>
<pdfrwt beam="1">  1        2 0.17328177E+00 0.28862903E+04</pdfrwt>
<pdfrwt beam="2">  1       -1 0.28447259E+00 0.28862903E+04</pdfrwt>
<totfact> 0.86032838E-01</totfact>
</mgrwt>
</event>
<event>
12    7  0.1701638E-007  0.1611351E+04  0.7818608E-02  0.8813605E-01
         -1   -1    0    0    0  501 -0.00000000000E+00  0.00000000000E+00  0.30236340549E+03  0.30236340549E+03  0.00000000000E+00 0.  1.
          2   -1    0    0  501    0  0.00000000000E+00 -0.00000000000E+00 -0.21467966158E+04  0.21467966158E+04  0.00000000000E+00 0. -1.
         24    2    1    2    0    0 -0.38646754894E+03 -0.36092818439E+03 -0.36916993153E+03  0.64815972041E+03  0.64794013223E+02 0.  0.
        254    2    1    2    0    0  0.38646754894E+03  0.36092818439E+03 -0.14752632788E+04  0.18010003009E+04  0.88745367279E+03 0.  0.
         23    2    4    4    0    0 -0.60910504861E+02  0.26695093909E+03 -0.39928328879E+02  0.29156774084E+03  0.91894409892E+02 0.  0.
         23    2    4    4    0    0  0.44737805380E+03  0.93977245301E+02 -0.14353349499E+04  0.15094325600E+04  0.96028064680E+02 0.  0.
          2    1    3    3  502    0 -0.22215500543E+01 -0.14719530363E+02 -0.53997816619E+01  0.15835324460E+02  0.00000000000E+00 0. -1.
         -1    1    3    3    0  502 -0.38424599888E+03 -0.34620865403E+03 -0.36377014986E+03  0.63232439595E+03  0.00000000000E+00 0.  1.
         13    1    5    5    0    0 -0.33584540978E+02  0.15340182055E+03 -0.68512012247E+02  0.17132990330E+03  0.00000000000E+00 0.  1.
        -13    1    5    5    0    0 -0.27325963883E+02  0.11354911854E+03  0.28583683368E+02  0.12023783755E+03  0.00000000000E+00 0. -1.
          3    1    6    6  503    0  0.19403631604E+03  0.87447116279E+02 -0.60975693129E+03  0.64583326436E+03  0.00000000000E+00 0. -1.
         -3    1    6    6    0  503  0.25334173776E+03  0.65301290221E+01 -0.82557801859E+03  0.86359929565E+03  0.00000000000E+00 0.  1.
<mgrwt>
<rscale>  0 0.16113507E+04</rscale>
<asrwt>0</asrwt>
<pdfrwt beam="1">  1        2 0.33027641E+00 0.16113507E+04</pdfrwt>
<pdfrwt beam="2">  1       -1 0.46517446E-01 0.16113507E+04</pdfrwt>
<totfact> 0.27795429E+01</totfact>
</mgrwt>
</event>
<event>
12    7  0.1701638E-007  0.2680088E+04  0.7818608E-02  0.8341495E-01
         -1   -1    0    0    0  501 -0.00000000000E+00  0.00000000000E+00  0.51038519781E+03  0.51038519781E+03  0.00000000000E+00 0.  1.
          2   -1    0    0  501    0  0.00000000000E+00 -0.00000000000E+00 -0.35183593207E+04  0.35183593207E+04  0.00000000000E+00 0. -1.
         24    2    1    2    0    0 -0.98052397352E+02 -0.42554879817E+03 -0.29931364336E+04  0.30258774008E+04  0.79763915338E+02 0.  0.
        254    2    1    2    0    0  0.98052397352E+02  0.42554879817E+03 -0.14837689281E+02  0.10028671177E+04  0.90267172689E+03 0.  0.
         23    2    4    4    0    0 -0.10881996936E+03 -0.18356163867E+03 -0.22207246277E+03  0.32085878104E+03  0.89986208530E+02 0.  0.
         23    2    4    4    0    0  0.20687236671E+03  0.60911043684E+03  0.20723477349E+03  0.68200833668E+03  0.91528244739E+02 0.  0.
          2    1    3    3  502    0 -0.98261476744E+01 -0.21469858819E+03 -0.13836147798E+04  0.14002078046E+04  0.00000000000E+00 0. -1.
         -1    1    3    3    0  502 -0.88226249677E+02 -0.21085020997E+03 -0.16095216538E+04  0.16256695962E+04  0.00000000000E+00 0.  1.
         13    1    5    5    0    0 -0.12067431985E+03 -0.13496211754E+03 -0.16483720153E+03  0.24484355750E+03  0.00000000000E+00 0.  1.
        -13    1    5    5    0    0  0.11854350493E+02 -0.48599521133E+02 -0.57235261237E+02  0.76015223534E+02  0.00000000000E+00 0. -1.
          1    1    6    6  503    0  0.68475013630E+02  0.31286475768E+03  0.13250180845E+03  0.34659762453E+03  0.00000000000E+00 0. -1.
         -1    1    6    6    0  503  0.13839735308E+03  0.29624567916E+03  0.74732965039E+02  0.33541071215E+03  0.00000000000E+00 0.  1.
<mgrwt>
<rscale>  0 0.26800884E+04</rscale>
<asrwt>0</asrwt>
<pdfrwt beam="1">  1        2 0.54128605E+00 0.26800884E+04</pdfrwt>
<pdfrwt beam="2">  1       -1 0.78520800E-01 0.26800884E+04</pdfrwt>
<totfact> 0.12799797E+00</totfact>
</mgrwt>
</event>
<event>
12    7  0.1701638E-007  0.1302999E+04  0.7818608E-02  0.9027190E-01
         -1   -1    0    0    0  501 -0.00000000000E+00  0.00000000000E+00  0.25088215096E+03  0.25088215096E+03  0.00000000000E+00 0.  1.
          2   -1    0    0  501    0  0.00000000000E+00 -0.00000000000E+00 -0.16918375685E+04  0.16918375685E+04  0.00000000000E+00 0. -1.
         24    2    1    2    0    0  0.30245082378E+03 -0.29346766066E+02 -0.16943348917E+03  0.35805973613E+03  0.84624664845E+02 0.  0.
        254    2    1    2    0    0 -0.30245082378E+03  0.29346766066E+02 -0.12715219284E+04  0.15846599834E+04  0.89556770540E+03 0.  0.
         23    2    4    4    0    0 -0.90801108536E+02 -0.39340647232E+03 -0.33886413869E+03  0.53484872618E+03  0.90668415824E+02 0.  0.
         23    2    4    4    0    0 -0.21164971525E+03  0.42275323839E+03 -0.93265778973E+03  0.10498112572E+04  0.93473100161E+02 0.  0.
          4    1    3    3  502    0  0.47891698792E+02  0.13297477911E+02 -0.59468919870E+02  0.77504775095E+02  0.00000000000E+00 0. -1.
         -3    1    3    3    0  502  0.25455912499E+03 -0.42644243977E+02 -0.10996456930E+03  0.28055496103E+03  0.00000000000E+00 0.  1.
         13    1    5    5    0    0 -0.19377269836E+02 -0.25277618606E+03 -0.17952547748E+03  0.31064557922E+03  0.00000000000E+00 0. -1.
        -13    1    5    5    0    0 -0.71423838701E+02 -0.14063028626E+03 -0.15933866122E+03  0.22420314696E+03  0.00000000000E+00 0.  1.
          1    1    6    6  503    0 -0.16616215177E+03  0.32380004051E+03 -0.79448363924E+03  0.87387675328E+03  0.00000000000E+00 0. -1.
         -1    1    6    6    0  503 -0.45487563480E+02  0.98953197874E+02 -0.13817415049E+03  0.17593450391E+03  0.00000000000E+00 0.  1.
<mgrwt>
<rscale>  0 0.13029994E+04</rscale>
<asrwt>0</asrwt>
<pdfrwt beam="1">  1        2 0.26028270E+00 0.13029994E+04</pdfrwt>
<pdfrwt beam="2">  1       -1 0.38597255E-01 0.13029994E+04</pdfrwt>
<totfact> 0.71926814E+01</totfact>
</mgrwt>
</event>
<event>
12    7  0.1701638E-007  0.1166908E+04  0.7818608E-02  0.9142325E-01
         -1   -1    0    0    0  501 -0.00000000000E+00  0.00000000000E+00  0.30525841602E+03  0.30525841602E+03  0.00000000000E+00 0.  1.
          2   -1    0    0  501    0  0.00000000000E+00 -0.00000000000E+00 -0.11151820750E+04  0.11151820750E+04  0.00000000000E+00 0. -1.
         24    2    1    2    0    0  0.20084965915E+03 -0.11039290262E+03 -0.23253312475E+03  0.33589328418E+03  0.78901620486E+02 0.  0.
        254    2    1    2    0    0 -0.20084965915E+03  0.11039290262E+03 -0.57739053424E+03  0.10845472069E+04  0.88900823188E+03 0.  0.
         23    2    4    4    0    0 -0.61100516993E+02  0.43775328145E+03 -0.67661830433E+02  0.45613181935E+03  0.90093866239E+02 0.  0.
         23    2    4    4    0    0 -0.13974914216E+03 -0.32736037882E+03 -0.50972870381E+03  0.62841538751E+03  0.91585519700E+02 0.  0.
          4    1    3    3  502    0  0.17398761764E+03 -0.11444788412E+03 -0.17405582972E+03  0.27141378213E+03  0.00000000000E+00 0. -1.
         -3    1    3    3    0  502  0.26862041518E+02  0.40549815010E+01 -0.58477295037E+02  0.64479502048E+02  0.00000000000E+00 0.  1.
         13    1    5    5    0    0 -0.29065700455E+02  0.39932513014E+03 -0.52215002498E+02  0.40377194180E+03  0.00000000000E+00 0.  1.
        -13    1    5    5    0    0 -0.32034816538E+02  0.38428151311E+02 -0.15446827935E+02  0.52359877550E+02  0.00000000000E+00 0. -1.
          3    1    6    6  503    0  0.99717754609E+01 -0.36821724931E+02 -0.78876225735E+02  0.87616977344E+02  0.00000000000E+00 0. -1.
         -3    1    6    6    0  503 -0.14972091762E+03 -0.29053865389E+03 -0.43085247807E+03  0.54079841017E+03  0.00000000000E+00 0.  1.
<mgrwt>
<rscale>  0 0.11669082E+04</rscale>
<asrwt>0</asrwt>
<pdfrwt beam="1">  1        2 0.17156648E+00 0.11669082E+04</pdfrwt>
<pdfrwt beam="2">  1       -1 0.46962832E-01 0.11669082E+04</pdfrwt>
<totfact> 0.10861662E+02</totfact>
</mgrwt>
</event>
<event>
12    7  0.1701638E-007  0.2213284E+04  0.7818608E-02  0.8512919E-01
         -1   -1    0    0    0  501 -0.00000000000E+00  0.00000000000E+00  0.69067820100E+03  0.69067820100E+03  0.00000000000E+00 0.  1.
          2   -1    0    0  501    0  0.00000000000E+00 -0.00000000000E+00 -0.17731216801E+04  0.17731216801E+04  0.00000000000E+00 0. -1.
         24    2    1    2    0    0 -0.77879138603E+03 -0.82927678348E+02 -0.98848785908E+03  0.12630566262E+04  0.69359718811E+02 0.  0.
        254    2    1    2    0    0  0.77879138603E+03  0.82927678348E+02 -0.93955620036E+02  0.12007432549E+04  0.90529756598E+03 0.  0.
         23    2    4    4    0    0  0.88168712026E+03 -0.17291046985E+03 -0.11148140558E+03  0.90994664323E+03  0.91129474549E+02 0.  0.
         23    2    4    4    0    0 -0.10289573423E+03  0.25583814820E+03  0.17525785547E+02  0.29079661171E+03  0.90635677446E+02 0.  0.
          4    1    3    3  502    0 -0.37096545002E+03 -0.35860875518E+02 -0.52589140148E+03  0.64456429753E+03  0.00000000000E+00 0. -1.
         -3    1    3    3    0  502 -0.40782593601E+03 -0.47066802830E+02 -0.46259645760E+03  0.61849232865E+03  0.00000000000E+00 0.  1.
         13    1    5    5    0    0  0.87476800573E+03 -0.17921628762E+03 -0.10628822566E+03  0.89924119596E+03  0.00000000000E+00 0. -1.
        -13    1    5    5    0    0  0.69191145223E+01  0.63058177711E+01 -0.51931799223E+01  0.10705447270E+02  0.00000000000E+00 0.  1.
          2    1    6    6  503    0 -0.10758540352E+03  0.15452128932E+03  0.19971612906E+02  0.18934178943E+03  0.00000000000E+00 0. -1.
         -2    1    6    6    0  503  0.46896692940E+01  0.10131685888E+03 -0.24458273590E+01  0.10145482228E+03  0.00000000000E+00 0.  1.
<mgrwt>
<rscale>  0 0.22132840E+04</rscale>
<asrwt>0</asrwt>
<pdfrwt beam="1">  1        2 0.27278795E+00 0.22132840E+04</pdfrwt>
<pdfrwt beam="2">  1       -1 0.10625819E+00 0.22132840E+04</pdfrwt>
<totfact> 0.76867904E+00</totfact>
</mgrwt>
</event>
<event>
12    7  0.1701638E-007  0.1462153E+04  0.7818608E-02  0.8910018E-01
          2   -1    0    0  501    0  0.00000000000E+00  0.00000000000E+00  0.96272399899E+03  0.96272399899E+03  0.00000000000E+00 0. -1.
         -1   -1    0    0    0  501 -0.00000000000E+00 -0.00000000000E+00 -0.55516729786E+03  0.55516729786E+03  0.00000000000E+00 0.  1.
         24    2    1    2    0    0 -0.76204978270E+01 -0.22951375561E+03  0.47369291919E+03  0.53240933365E+03  0.79624624701E+02 0.  0.
        254    2    1    2    0    0  0.76204978270E+01  0.22951375561E+03 -0.66136218067E+02  0.98548196320E+03  0.95606802292E+03 0.  0.
         23    2    4    4    0    0  0.40006949703E+03  0.63054166340E+02  0.21382415155E+03  0.46695177564E+03  0.91059116179E+02 0.  0.
         23    2    4    4    0    0 -0.39244899920E+03  0.16645958927E+03 -0.27996036962E+03  0.51853018756E+03  0.93652202444E+02 0.  0.
          2    1    3    3  502    0  0.19474640297E+02 -0.11581848577E+03  0.30807960863E+03  0.32970627613E+03  0.00000000000E+00 0. -1.
         -1    1    3    3    0  502 -0.27095138124E+02 -0.11369526984E+03  0.16561331056E+03  0.20270305752E+03  0.00000000000E+00 0.  1.
         13    1    5    5    0    0  0.13168198581E+03  0.60288474679E+02  0.53988071889E+02  0.15456247110E+03  0.00000000000E+00 0.  1.
        -13    1    5    5    0    0  0.26838751122E+03  0.27656916609E+01  0.15983607966E+03  0.31238930454E+03  0.00000000000E+00 0. -1.
          1    1    6    6  503    0 -0.32475490700E+03  0.98366519918E+02 -0.23319916959E+03  0.41173240649E+03  0.00000000000E+00 0. -1.
         -1    1    6    6    0  503 -0.67694092205E+02  0.68093069351E+02 -0.46761200026E+02  0.10679778107E+03  0.00000000000E+00 0.  1.
<mgrwt>
<rscale>  0 0.14621530E+04</rscale>
<asrwt>0</asrwt>
<pdfrwt beam="1">  1        2 0.14811138E+00 0.14621530E+04</pdfrwt>
<pdfrwt beam="2">  1       -1 0.85410354E-01 0.14621530E+04</pdfrwt>
<totfact> 0.39902561E+01</totfact>
</mgrwt>
</event>
<event>
12    7  0.1701638E-007  0.2013203E+04  0.7818608E-02  0.8600473E-01
         -1   -1    0    0    0  501 -0.00000000000E+00  0.00000000000E+00  0.11172998331E+04  0.11172998331E+04  0.00000000000E+00 0.  1.
          2   -1    0    0  501    0  0.00000000000E+00 -0.00000000000E+00 -0.90687075715E+03  0.90687075715E+03  0.00000000000E+00 0. -1.
         24    2    1    2    0    0  0.63654776548E+03 -0.31898261024E+01 -0.40888955280E+03  0.76073558163E+03  0.79528146225E+02 0.  0.
        254    2    1    2    0    0 -0.63654776548E+03  0.31898261024E+01  0.61931862878E+03  0.12634350086E+04  0.89861517036E+03 0.  0.
         23    2    4    4    0    0 -0.34760606105E+03  0.33555891491E+03 -0.78595919640E+01  0.49136489815E+03  0.89151168765E+02 0.  0.
         23    2    4    4    0    0 -0.28894170443E+03 -0.33236908881E+03  0.62717822075E+03  0.77207011050E+03  0.93718809163E+02 0.  0.
          4    1    3    3  502    0  0.24593757426E+03  0.36731312141E+02 -0.16769168106E+03  0.29992495665E+03  0.00000000000E+00 0. -1.
         -1    1    3    3    0  502  0.39061019122E+03 -0.39921138243E+02 -0.24119787174E+03  0.46081062498E+03  0.00000000000E+00 0.  1.
         13    1    5    5    0    0 -0.20635964926E+03  0.15842928150E+03 -0.37618801225E+02  0.26286748807E+03  0.00000000000E+00 0.  1.
        -13    1    5    5    0    0 -0.14124641179E+03  0.17712963342E+03  0.29759209261E+02  0.22849741008E+03  0.00000000000E+00 0. -1.
          1    1    6    6  503    0 -0.80985219387E+02 -0.16152811659E+03  0.23531761977E+03  0.29668892864E+03  0.00000000000E+00 0. -1.
         -1    1    6    6    0  503 -0.20795648504E+03 -0.17084097223E+03  0.39186060098E+03  0.47538118185E+03  0.00000000000E+00 0.  1.
<mgrwt>
<rscale>  0 0.20132030E+04</rscale>
<asrwt>0</asrwt>
<pdfrwt beam="1">  1        2 0.13951858E+00 0.20132030E+04</pdfrwt>
<pdfrwt beam="2">  1       -1 0.17189228E+00 0.20132030E+04</pdfrwt>
<totfact> 0.73204024E+00</totfact>
</mgrwt>
</event>
<event>
12    7  0.1701638E-007  0.2397610E+04  0.7818608E-02  0.8440399E-01
          2   -1    0    0  501    0  0.00000000000E+00  0.00000000000E+00  0.30041456172E+04  0.30041456172E+04  0.00000000000E+00 0. -1.
         -1   -1    0    0    0  501 -0.00000000000E+00 -0.00000000000E+00 -0.47838351757E+03  0.47838351757E+03  0.00000000000E+00 0.  1.
         24    2    1    2    0    0  0.49975420850E+03  0.35612077582E+03 -0.11222803134E+03  0.62895846812E+03  0.80108349882E+02 0.  0.
        254    2    1    2    0    0 -0.49975420850E+03 -0.35612077582E+03  0.26379901310E+04  0.28535706666E+04  0.89849726908E+03 0.  0.
         23    2    4    4    0    0  0.21702009040E+03  0.40444899818E+02  0.36930530322E+03  0.43978114554E+03  0.91035923857E+02 0.  0.
         23    2    4    4    0    0 -0.71677429889E+03 -0.39656567564E+03  0.22686848277E+04  0.24137895211E+04  0.91756601170E+02 0.  0.
          2    1    3    3  502    0  0.24091277820E+03  0.13519285421E+03 -0.77301189263E+02  0.28686503515E+03  0.00000000000E+00 0. -1.
         -1    1    3    3    0  502  0.25884143030E+03  0.22092792161E+03 -0.34926842077E+02  0.34209343297E+03  0.00000000000E+00 0.  1.
         13    1    5    5    0    0  0.19224251046E+02 -0.18287172441E+02  0.17029586060E+02  0.31527754527E+02  0.00000000000E+00 0. -1.
        -13    1    5    5    0    0  0.19779583935E+03  0.58732072259E+02  0.35227571716E+03  0.40825339101E+03  0.00000000000E+00 0.  1.
          1    1    6    6  503    0 -0.33913359013E+03 -0.13674222084E+03  0.97820935496E+03  0.10443196680E+04  0.00000000000E+00 0. -1.
         -1    1    6    6    0  503 -0.37764070876E+03 -0.25982345479E+03  0.12904754728E+04  0.13694698531E+04  0.00000000000E+00 0.  1.
<mgrwt>
<rscale>  0 0.23976103E+04</rscale>
<asrwt>0</asrwt>
<pdfrwt beam="1">  1        2 0.46217624E+00 0.23976103E+04</pdfrwt>
<pdfrwt beam="2">  1       -1 0.73597466E-01 0.23976103E+04</pdfrwt>
<totfact> 0.32946873E+00</totfact>
</mgrwt>
</event>
<event>
12    7  0.1701638E-007  0.1447883E+04  0.7818608E-02  0.8919869E-01
         -1   -1    0    0    0  501 -0.00000000000E+00  0.00000000000E+00  0.81258773476E+03  0.81258773476E+03  0.00000000000E+00 0.  1.
          2   -1    0    0  501    0  0.00000000000E+00 -0.00000000000E+00 -0.64496603254E+03  0.64496603254E+03  0.00000000000E+00 0. -1.
         24    2    1    2    0    0 -0.31671312791E+03 -0.13644583324E+03  0.32261118786E+03  0.47912725656E+03  0.80995547130E+02 0.  0.
        254    2    1    2    0    0  0.31671312791E+03  0.13644583324E+03 -0.15498948565E+03  0.97842651074E+03  0.90242563431E+03 0.  0.
         23    2    4    4    0    0  0.27748922302E+03  0.37463038745E+03  0.22082628444E+03  0.52351565878E+03  0.89197539143E+02 0.  0.
         23    2    4    4    0    0  0.39223904884E+02 -0.23818455421E+03 -0.37581577009E+03  0.45491085196E+03  0.86232207462E+02 0.  0.
          4    1    3    3  502    0 -0.24926665822E+02  0.34665138277E+01  0.50118515697E+02  0.56082269951E+02  0.00000000000E+00 0. -1.
         -3    1    3    3    0  502 -0.29178646208E+03 -0.13991234707E+03  0.27249267216E+03  0.42304498661E+03  0.00000000000E+00 0.  1.
         13    1    5    5    0    0  0.12848649701E+03  0.24672809862E+03  0.13509881111E+03  0.30924945162E+03  0.00000000000E+00 0. -1.
        -13    1    5    5    0    0  0.14900272601E+03  0.12790228883E+03  0.85727473334E+02  0.21426620716E+03  0.00000000000E+00 0.  1.
          3    1    6    6  503    0  0.36698983894E+02 -0.87029988986E+02 -0.84626657620E+02  0.12681760754E+03  0.00000000000E+00 0. -1.
         -3    1    6    6    0  503  0.25249209905E+01 -0.15115456523E+03 -0.29118911247E+03  0.32809324442E+03  0.00000000000E+00 0.  1.
<mgrwt>
<rscale>  0 0.14478833E+04</rscale>
<asrwt>0</asrwt>
<pdfrwt beam="1">  1        2 0.99225544E-01 0.14478833E+04</pdfrwt>
<pdfrwt beam="2">  1       -1 0.12501350E+00 0.14478833E+04</pdfrwt>
<totfact> 0.28153462E+01</totfact>
</mgrwt>
</event>
<event>
12    7  0.1701638E-007  0.1550747E+04  0.7818608E-02  0.8851390E-01
          2   -1    0    0  501    0  0.00000000000E+00  0.00000000000E+00  0.23873094775E+04  0.23873094775E+04  0.00000000000E+00 0. -1.
         -1   -1    0    0    0  501 -0.00000000000E+00 -0.00000000000E+00 -0.25183346267E+03  0.25183346267E+03  0.00000000000E+00 0.  1.
         24    2    1    2    0    0 -0.28087141725E+03 -0.13631596398E+03  0.14121238422E+02  0.32286653395E+03  0.81071538191E+02 0.  0.
        254    2    1    2    0    0  0.28087141725E+03  0.13631596398E+03  0.21213547764E+04  0.23162764062E+04  0.87608190691E+03 0.  0.
         23    2    4    4    0    0  0.31074126269E+03 -0.64678452962E+02  0.20891132035E+03  0.39039568980E+03  0.89562381769E+02 0.  0.
         23    2    4    4    0    0 -0.29869845436E+02  0.20099441694E+03  0.19124434560E+04  0.19258807164E+04  0.10141793739E+03 0.  0.
          4    1    3    3  502    0 -0.51118106719E+02 -0.16293049161E+02 -0.27569652136E+02  0.60320891940E+02  0.00000000000E+00 0. -1.
         -3    1    3    3    0  502 -0.22975331053E+03 -0.12002291482E+03  0.41690890558E+02  0.26254564201E+03  0.00000000000E+00 0.  1.
         13    1    5    5    0    0  0.29361596714E+03 -0.68661142218E+02  0.16642594055E+03  0.34441585662E+03  0.00000000000E+00 0.  1.
        -13    1    5    5    0    0  0.17125295550E+02  0.39826892558E+01  0.42485379806E+02  0.45979833173E+02  0.00000000000E+00 0. -1.
          4    1    6    6  503    0  0.43642420763E+01  0.25819994947E+02  0.68758796390E+02  0.73576428488E+02  0.00000000000E+00 0. -1.
         -4    1    6    6    0  503 -0.34234087512E+02  0.17517442199E+03  0.18436846596E+04  0.18523042879E+04  0.00000000000E+00 0.  1.
<mgrwt>
<rscale>  0 0.15507474E+04</rscale>
<asrwt>0</asrwt>
<pdfrwt beam="1">  1        2 0.36727836E+00 0.15507474E+04</pdfrwt>
<pdfrwt beam="2">  1       -1 0.38743611E-01 0.15507474E+04</pdfrwt>
<totfact> 0.28664199E+01</totfact>
</mgrwt>
</event>
<event>
12    7  0.1701638E-007  0.1944511E+04  0.7818608E-02  0.8633012E-01
          2   -1    0    0  501    0  0.00000000000E+00  0.00000000000E+00  0.86503992269E+03  0.86503992269E+03  0.00000000000E+00 0. -1.
         -1   -1    0    0    0  501 -0.00000000000E+00 -0.00000000000E+00 -0.10927591381E+04  0.10927591381E+04  0.00000000000E+00 0.  1.
         24    2    1    2    0    0 -0.47248725968E+03 -0.11711472603E+03 -0.65209855409E+03  0.81782040654E+03  0.81471611638E+02 0.  0.
        254    2    1    2    0    0  0.47248725968E+03  0.11711472603E+03  0.42437933865E+03  0.11399786543E+04  0.93941121959E+03 0.  0.
         23    2    4    4    0    0 -0.22134457691E+03 -0.11217950507E+03 -0.43075603683E+02  0.26784124951E+03  0.91135965570E+02 0.  0.
         23    2    4    4    0    0  0.69383183659E+03  0.22929423111E+03  0.46745494233E+03  0.87213740476E+03  0.90172433601E+02 0.  0.
          2    1    3    3  502    0 -0.28072330645E+02  0.60602248845E+01 -0.66474424837E+02  0.72412921712E+02  0.00000000000E+00 0. -1.
         -1    1    3    3    0  502 -0.44441492903E+03 -0.12317495092E+03 -0.58562412925E+03  0.74540748483E+03  0.00000000000E+00 0.  1.
         13    1    5    5    0    0 -0.21104208453E+03 -0.11137071615E+03 -0.16347566836E+02  0.23918495103E+03  0.00000000000E+00 0.  1.
        -13    1    5    5    0    0 -0.10302492381E+02 -0.80878892154E+00 -0.26728036847E+02  0.28656298478E+02  0.00000000000E+00 0. -1.
          3    1    6    6  503    0  0.17018051540E+03  0.22992925376E+02  0.13518057473E+03  0.21854946860E+03  0.00000000000E+00 0. -1.
         -3    1    6    6    0  503  0.52365132119E+03  0.20630130573E+03  0.33227436760E+03  0.65358793616E+03  0.00000000000E+00 0.  1.
<mgrwt>
<rscale>  0 0.19445105E+04</rscale>
<asrwt>0</asrwt>
<pdfrwt beam="1">  1        2 0.13308307E+00 0.19445105E+04</pdfrwt>
<pdfrwt beam="2">  1       -1 0.16811679E+00 0.19445105E+04</pdfrwt>
<totfact> 0.83828938E+00</totfact>
</mgrwt>
</event>
<event>
12    7  0.1701638E-007  0.1504167E+04  0.7818608E-02  0.8881687E-01
          2   -1    0    0  501    0  0.00000000000E+00  0.00000000000E+00  0.96369994782E+03  0.96369994782E+03  0.00000000000E+00 0. -1.
         -1   -1    0    0    0  501 -0.00000000000E+00 -0.00000000000E+00 -0.58693519501E+03  0.58693519501E+03  0.00000000000E+00 0.  1.
         24    2    1    2    0    0  0.33561773190E+03 -0.22290392577E+03  0.38661448041E+03  0.56419106839E+03  0.80717922987E+02 0.  0.
        254    2    1    2    0    0 -0.33561773190E+03  0.22290392577E+03 -0.98497276009E+01  0.98644407444E+03  0.90036074590E+03 0.  0.
         23    2    4    4    0    0 -0.57712229681E+03 -0.69294613226E+02  0.53409322387E+02  0.59127063383E+03  0.94215273809E+02 0.  0.
         23    2    4    4    0    0  0.24150456490E+03  0.29219853900E+03 -0.63259049988E+02  0.39517344061E+03  0.91955966064E+02 0.  0.
          2    1    3    3  502    0  0.13191736011E+03 -0.74974720531E+02  0.95343529562E+02  0.17920320099E+03  0.00000000000E+00 0. -1.
         -1    1    3    3    0  502  0.20370037180E+03 -0.14792920524E+03  0.29127095085E+03  0.38498786740E+03  0.00000000000E+00 0.  1.
         13    1    5    5    0    0 -0.85980910207E+02 -0.43696868474E+02  0.18663756056E+02  0.98236800765E+02  0.00000000000E+00 0.  1.
        -13    1    5    5    0    0 -0.49114138660E+03 -0.25597744752E+02  0.34745566332E+02  0.49303383306E+03  0.00000000000E+00 0. -1.
          1    1    6    6  503    0  0.21010294949E+03  0.29053600840E+03 -0.55874509755E+02  0.36287240513E+03  0.00000000000E+00 0. -1.
         -1    1    6    6    0  503  0.31401615412E+02  0.16625305929E+01 -0.73845402328E+01  0.32301035477E+02  0.00000000000E+00 0.  1.
<mgrwt>
<rscale>  0 0.15041668E+04</rscale>
<asrwt>0</asrwt>
<pdfrwt beam="1">  1        2 0.14826153E+00 0.15041668E+04</pdfrwt>
<pdfrwt beam="2">  1       -1 0.90297723E-01 0.15041668E+04</pdfrwt>
<totfact> 0.35155467E+01</totfact>
</mgrwt>
</event>
<event>
12    7  0.1701638E-007  0.1625919E+04  0.7818608E-02  0.8804781E-01
          2   -1    0    0  501    0  0.00000000000E+00  0.00000000000E+00  0.15652272621E+04  0.15652272621E+04  0.00000000000E+00 0. -1.
         -1   -1    0    0    0  501 -0.00000000000E+00 -0.00000000000E+00 -0.42224089890E+03  0.42224089890E+03  0.00000000000E+00 0.  1.
         24    2    1    2    0    0 -0.50195950140E+03  0.66515436999E+02  0.69339003061E+03  0.86232152705E+03  0.80131373740E+02 0.  0.
        254    2    1    2    0    0  0.50195950140E+03 -0.66515436999E+02  0.44959633262E+03  0.11251466340E+04  0.89857133342E+03 0.  0.
         23    2    4    4    0    0  0.51414497467E+03 -0.41576055077E+03  0.33124529233E+03  0.74512047030E+03  0.90990005039E+02 0.  0.
         23    2    4    4    0    0 -0.12185473271E+02  0.34924511377E+03  0.11835104028E+03  0.38002616367E+03  0.91061962906E+02 0.  0.
          4    1    3    3  502    0 -0.12051778511E+03  0.35616579293E+02  0.22247491087E+03  0.25551548527E+03  0.00000000000E+00 0. -1.
         -3    1    3    3    0  502 -0.38144171629E+03  0.30898857705E+02  0.47091511974E+03  0.60680604178E+03  0.00000000000E+00 0.  1.
         13    1    5    5    0    0  0.35153108778E+03 -0.24787972473E+03  0.17726438143E+03  0.46523233393E+03  0.00000000000E+00 0. -1.
        -13    1    5    5    0    0  0.16261388689E+03 -0.16788082604E+03  0.15398091090E+03  0.27988813637E+03  0.00000000000E+00 0.  1.
          3    1    6    6  503    0 -0.47836323262E+02  0.26844563453E+03  0.93887055850E+02  0.28838542227E+03  0.00000000000E+00 0. -1.
         -3    1    6    6    0  503  0.35650849991E+02  0.80799479242E+02  0.24463984433E+02  0.91640741405E+02  0.00000000000E+00 0.  1.
<mgrwt>
<rscale>  0 0.16259188E+04</rscale>
<asrwt>0</asrwt>
<pdfrwt beam="1">  1        2 0.24080419E+00 0.16259188E+04</pdfrwt>
<pdfrwt beam="2">  1       -1 0.64960139E-01 0.16259188E+04</pdfrwt>
<totfact> 0.30557908E+01</totfact>
</mgrwt>
</event>
<event>
12    7  0.1701638E-007  0.1612142E+04  0.7818608E-02  0.8813123E-01
         -1   -1    0    0    0  501 -0.00000000000E+00  0.00000000000E+00  0.72232905113E+03  0.72232905113E+03  0.00000000000E+00 0.  1.
          2   -1    0    0  501    0  0.00000000000E+00 -0.00000000000E+00 -0.89952150015E+03  0.89952150015E+03  0.00000000000E+00 0. -1.
         24    2    1    2    0    0 -0.24038347285E+03 -0.48040560419E+03  0.42824045894E+02  0.54485693899E+03  0.80382998836E+02 0.  0.
        254    2    1    2    0    0  0.24038347285E+03  0.48040560419E+03 -0.22001649492E+03  0.10769936123E+04  0.90715722140E+03 0.  0.
         23    2    4    4    0    0  0.45043162030E+02  0.65191404103E+03  0.85857704161E+02  0.66527279016E+03  0.90529203164E+02 0.  0.
         23    2    4    4    0    0  0.19534031082E+03 -0.17150843684E+03 -0.30587419908E+03  0.41172082213E+03  0.91553420351E+02 0.  0.
          4    1    3    3  502    0 -0.15154263026E+03 -0.28294620487E+03  0.64026600419E+02  0.32729669903E+03  0.00000000000E+00 0. -1.
         -3    1    3    3    0  502 -0.88840842593E+02 -0.19745939932E+03 -0.21202554524E+02  0.21756023995E+03  0.00000000000E+00 0.  1.
         13    1    5    5    0    0  0.43046510698E+02  0.41534528455E+03  0.96056576710E+02  0.42847587262E+03  0.00000000000E+00 0. -1.
        -13    1    5    5    0    0  0.19966513321E+01  0.23656875647E+03 -0.10198872549E+02  0.23679691754E+03  0.00000000000E+00 0.  1.
          2    1    6    6  503    0  0.45515379128E+02  0.28649217497E+01 -0.46687713429E+02  0.65265611918E+02  0.00000000000E+00 0. -1.
         -2    1    6    6    0  503  0.14982493169E+03 -0.17437335859E+03 -0.25918648565E+03  0.34645521022E+03  0.00000000000E+00 0.  1.
<mgrwt>
<rscale>  0 0.16121421E+04</rscale>
<asrwt>0</asrwt>
<pdfrwt beam="1">  1        2 0.13838792E+00 0.16121421E+04</pdfrwt>
<pdfrwt beam="2">  1       -1 0.11112755E+00 0.16121421E+04</pdfrwt>
<totfact> 0.23906651E+01</totfact>
</mgrwt>
</event>
<event>
12    7  0.1701638E-007  0.1437178E+04  0.7818608E-02  0.8927338E-01
         -1   -1    0    0    0  501 -0.00000000000E+00  0.00000000000E+00  0.22712839976E+03  0.22712839976E+03  0.00000000000E+00 0.  1.
          2   -1    0    0  501    0  0.00000000000E+00 -0.00000000000E+00 -0.22734731354E+04  0.22734731354E+04  0.00000000000E+00 0. -1.
         24    2    1    2    0    0  0.31731643104E+03  0.28650477146E+03 -0.37779552025E+03  0.57613489328E+03  0.80170185601E+02 0.  0.
        254    2    1    2    0    0 -0.31731643104E+03 -0.28650477146E+03 -0.16685492154E+04  0.19244666419E+04  0.85833598901E+03 0.  0.
         23    2    4    4    0    0 -0.25471581243E+03 -0.29658145959E+02 -0.16178499172E+04  0.16403632149E+04  0.87139953170E+02 0.  0.
         23    2    4    4    0    0 -0.62600618605E+02 -0.25684662550E+03 -0.50699298233E+02  0.28410342703E+03  0.90858747114E+02 0.  0.
          4    1    3    3  502    0  0.41352981892E+01  0.30186528705E+01  0.41847728918E+01  0.66125093892E+01  0.00000000000E+00 0. -1.
         -3    1    3    3    0  502  0.31318113285E+03  0.28348611859E+03 -0.38198029315E+03  0.56952238390E+03  0.00000000000E+00 0.  1.
         13    1    5    5    0    0 -0.21480684326E+03  0.90493908758E+01 -0.13127085132E+04  0.13301982980E+04  0.00000000000E+00 0.  1.
        -13    1    5    5    0    0 -0.39908969174E+02 -0.38707536835E+02 -0.30514140397E+03  0.31016491685E+03  0.00000000000E+00 0. -1.
          2    1    6    6  503    0 -0.98608184116E+01 -0.48858251171E+02 -0.48464380379E+02  0.69520936507E+02  0.00000000000E+00 0. -1.
         -2    1    6    6    0  503 -0.52739800193E+02 -0.20798837433E+03 -0.22349178539E+01  0.21458249052E+03  0.00000000000E+00 0.  1.
<mgrwt>
<rscale>  0 0.14371782E+04</rscale>
<asrwt>0</asrwt>
<pdfrwt beam="1">  1        2 0.34976510E+00 0.14371782E+04</pdfrwt>
<pdfrwt beam="2">  1       -1 0.34942830E-01 0.14371782E+04</pdfrwt>
<totfact> 0.40454848E+01</totfact>
</mgrwt>
</event>
<event>
12    7  0.1701638E-007  0.1803113E+04  0.7818608E-02  0.8704646E-01
          2   -1    0    0  501    0  0.00000000000E+00  0.00000000000E+00  0.64681484411E+03  0.64681484411E+03  0.00000000000E+00 0. -1.
         -1   -1    0    0    0  501 -0.00000000000E+00 -0.00000000000E+00 -0.12566260989E+04  0.12566260989E+04  0.00000000000E+00 0.  1.
         24    2    1    2    0    0 -0.63899178836E+03  0.14776776710E+03 -0.30334015972E+03  0.72706321365E+03  0.80373164440E+02 0.  0.
        254    2    1    2    0    0  0.63899178836E+03 -0.14776776710E+03 -0.30647109505E+03  0.11763777293E+04  0.92725088913E+03 0.  0.
         23    2    4    4    0    0  0.29630831827E+03 -0.48600712843E+03 -0.36458232486E+03  0.68291648267E+03  0.97227065883E+02 0.  0.
         23    2    4    4    0    0  0.34268347009E+03  0.33823936133E+03  0.58111229811E+02  0.49346124667E+03  0.91045377208E+02 0.  0.
          2    1    3    3  502    0 -0.12355921062E+03  0.59365229414E+02 -0.49400487890E+02  0.14571038809E+03  0.00000000000E+00 0. -1.
         -1    1    3    3    0  502 -0.51543257774E+03  0.88402537688E+02 -0.25393967183E+03  0.58135282556E+03  0.00000000000E+00 0.  1.
         13    1    5    5    0    0  0.24481913134E+03 -0.31739668717E+03 -0.26349341469E+03  0.47969348931E+03  0.00000000000E+00 0.  1.
        -13    1    5    5    0    0  0.51489186927E+02 -0.16861044125E+03 -0.10108891017E+03  0.20322299336E+03  0.00000000000E+00 0. -1.
          1    1    6    6  503    0  0.30763419431E+03  0.29812259758E+03  0.21702696403E+02  0.42893692745E+03  0.00000000000E+00 0. -1.
         -1    1    6    6    0  503  0.35049275781E+02  0.40116763746E+02  0.36408533408E+02  0.64524319222E+02  0.00000000000E+00 0.  1.
<mgrwt>
<rscale>  0 0.18031133E+04</rscale>
<asrwt>0</asrwt>
<pdfrwt beam="1">  1        2 0.99509976E-01 0.18031133E+04</pdfrwt>
<pdfrwt beam="2">  1       -1 0.19332709E+00 0.18031133E+04</pdfrwt>
<totfact> 0.81643995E+00</totfact>
</mgrwt>
</event>
<event>
12    7  0.1701638E-007  0.3095728E+04  0.7818608E-02  0.8216911E-01
         -1   -1    0    0    0  501 -0.00000000000E+00  0.00000000000E+00  0.72482505872E+03  0.72482505872E+03  0.00000000000E+00 0.  1.
          2   -1    0    0  501    0  0.00000000000E+00 -0.00000000000E+00 -0.33054648168E+04  0.33054648168E+04  0.00000000000E+00 0. -1.
         24    2    1    2    0    0 -0.14978024983E+03 -0.11357317073E+04 -0.21964261411E+04  0.24784884776E+04  0.79351787118E+02 0.  0.
        254    2    1    2    0    0  0.14978024983E+03  0.11357317073E+04 -0.38421361699E+03  0.15518013979E+04  0.97372831985E+03 0.  0.
         23    2    4    4    0    0 -0.68966142521E+02 -0.91370485315E+02 -0.25674633358E+03  0.29518090574E+03  0.90045504644E+02 0.  0.
         23    2    4    4    0    0  0.21874639235E+03  0.12271021926E+04 -0.12746728341E+03  0.12566204922E+04  0.96007175312E+02 0.  0.
          2    1    3    3  502    0 -0.12421490702E+03 -0.65380579227E+03 -0.12962879177E+04  0.14571388824E+04  0.00000000000E+00 0. -1.
         -1    1    3    3    0  502 -0.25565342813E+02 -0.48192591505E+03 -0.90013822338E+03  0.10213495952E+04  0.00000000000E+00 0.  1.
         13    1    5    5    0    0 -0.11613537611E+01 -0.65416545476E+02 -0.16942951516E+03  0.18162332938E+03  0.00000000000E+00 0.  1.
        -13    1    5    5    0    0 -0.67804788760E+02 -0.25953939839E+02 -0.87316818419E+02  0.11355757637E+03  0.00000000000E+00 0. -1.
          3    1    6    6  503    0  0.73756566708E+02  0.27279509816E+03 -0.60839732622E+02  0.28906516528E+03  0.00000000000E+00 0. -1.
         -3    1    6    6    0  503  0.14498982564E+03  0.95430709446E+03 -0.66627550784E+02  0.96755532690E+03  0.00000000000E+00 0.  1.
<mgrwt>
<rscale>  0 0.30957285E+04</rscale>
<asrwt>0</asrwt>
<pdfrwt beam="1">  1        2 0.50853305E+00 0.30957285E+04</pdfrwt>
<pdfrwt beam="2">  1       -1 0.11151155E+00 0.30957285E+04</pdfrwt>
<totfact> 0.78656283E-01</totfact>
</mgrwt>
</event>
<event>
12    7  0.1701638E-007  0.1981141E+04  0.7818608E-02  0.8615489E-01
         -1   -1    0    0    0  501 -0.00000000000E+00  0.00000000000E+00  0.90482001729E+03  0.90482001729E+03  0.00000000000E+00 0.  1.
          2   -1    0    0  501    0  0.00000000000E+00 -0.00000000000E+00 -0.10844471032E+04  0.10844471032E+04  0.00000000000E+00 0. -1.
         24    2    1    2    0    0  0.63971698013E+03 -0.16095100972E+03  0.30314978016E+03  0.73029359944E+03  0.79283730780E+02 0.  0.
        254    2    1    2    0    0 -0.63971698013E+03  0.16095100972E+03 -0.48277686602E+03  0.12589735210E+04  0.95749557806E+03 0.  0.
         23    2    4    4    0    0 -0.60982468022E+03 -0.93784638853E+02  0.84372274416E+02  0.62961308760E+03  0.92802264523E+02 0.  0.
         23    2    4    4    0    0 -0.29892299915E+02  0.25473564857E+03 -0.56714914044E+03  0.62936043340E+03  0.93019392476E+02 0.  0.
          2    1    3    3  502    0  0.14739981762E+03 -0.56565908972E+02  0.42311702409E+02  0.16345240424E+03  0.00000000000E+00 0. -1.
         -1    1    3    3    0  502  0.49231716251E+03 -0.10438510075E+03  0.26083807775E+03  0.56684119519E+03  0.00000000000E+00 0.  1.
         13    1    5    5    0    0 -0.47230373205E+03 -0.81973049620E+02  0.26961436664E+02  0.48012218782E+03  0.00000000000E+00 0.  1.
        -13    1    5    5    0    0 -0.13752094817E+03 -0.11811589233E+02  0.57410837752E+02  0.14949089978E+03  0.00000000000E+00 0. -1.
          4    1    6    6  503    0 -0.51767213760E+02  0.86651508586E+02 -0.25317454545E+03  0.27255399250E+03  0.00000000000E+00 0. -1.
         -4    1    6    6    0  503  0.21874913845E+02  0.16808413999E+03 -0.31397459499E+03  0.35680644090E+03  0.00000000000E+00 0.  1.
<mgrwt>
<rscale>  0 0.19811405E+04</rscale>
<asrwt>0</asrwt>
<pdfrwt beam="1">  1        2 0.16683802E+00 0.19811405E+04</pdfrwt>
<pdfrwt beam="2">  1       -1 0.13920308E+00 0.19811405E+04</pdfrwt>
<totfact> 0.10058133E+01</totfact>
</mgrwt>
</event>
<event>
12    7  0.1701638E-007  0.1883734E+04  0.7818608E-02  0.8662996E-01
         -1   -1    0    0    0  501 -0.00000000000E+00  0.00000000000E+00  0.72307054193E+03  0.72307054193E+03  0.00000000000E+00 0.  1.
          2   -1    0    0  501    0  0.00000000000E+00 -0.00000000000E+00 -0.12268701463E+04  0.12268701463E+04  0.00000000000E+00 0. -1.
         24    2    1    2    0    0 -0.33474113306E+02 -0.71936672403E+03 -0.25596548720E+03  0.76795647195E+03  0.75032074930E+02 0.  0.
        254    2    1    2    0    0  0.33474113306E+02  0.71936672403E+03 -0.24783411716E+03  0.11819842163E+04  0.90391146580E+03 0.  0.
         23    2    4    4    0    0 -0.11531993655E+02  0.89373821366E+03 -0.34037586010E+03  0.96082015602E+03  0.91753281435E+02 0.  0.
         23    2    4    4    0    0  0.45006106960E+02 -0.17437148963E+03  0.92541742939E+02  0.22116406025E+03  0.88986523147E+02 0.  0.
          2    1    3    3  502    0 -0.36030873846E+02 -0.65198996538E+03 -0.20837050846E+03  0.68542498322E+03  0.00000000000E+00 0. -1.
         -1    1    3    3    0  502  0.25567605404E+01 -0.67376758649E+02 -0.47594978740E+02  0.82531488729E+02  0.00000000000E+00 0.  1.
         13    1    5    5    0    0  0.14761455139E+02  0.81999759446E+03 -0.31454764099E+03  0.87838156511E+03  0.00000000000E+00 0.  1.
        -13    1    5    5    0    0 -0.26293448794E+02  0.73740619200E+02 -0.25828219119E+02  0.82438590917E+02  0.00000000000E+00 0. -1.
          3    1    6    6  503    0  0.97598736044E+01 -0.90271005440E+02 -0.62371655800E+00  0.90799221243E+02  0.00000000000E+00 0. -1.
         -3    1    6    6    0  503  0.35246233356E+02 -0.84100484190E+02  0.93165459497E+02  0.13036483901E+03  0.00000000000E+00 0.  1.
<mgrwt>
<rscale>  0 0.18837342E+04</rscale>
<asrwt>0</asrwt>
<pdfrwt beam="1">  1        2 0.18874925E+00 0.18837342E+04</pdfrwt>
<pdfrwt beam="2">  1       -1 0.11124162E+00 0.18837342E+04</pdfrwt>
<totfact> 0.14505772E+01</totfact>
</mgrwt>
</event>
<event>
12    7  0.1701638E-007  0.1499222E+04  0.7818608E-02  0.8884970E-01
          2   -1    0    0  501    0  0.00000000000E+00  0.00000000000E+00  0.15133002388E+04  0.15133002388E+04  0.00000000000E+00 0. -1.
         -1   -1    0    0    0  501 -0.00000000000E+00 -0.00000000000E+00 -0.37131885304E+03  0.37131885304E+03  0.00000000000E+00 0.  1.
         24    2    1    2    0    0  0.28112401130E+03  0.35341184905E+03  0.53428613690E+03  0.70375894952E+03  0.76709439892E+02 0.  0.
        254    2    1    2    0    0 -0.28112401130E+03 -0.35341184905E+03  0.60769524883E+03  0.11808601423E+04  0.90620445564E+03 0.  0.
         23    2    4    4    0    0 -0.51904079482E+02 -0.10967186047E+03 -0.22925823687E+03  0.27481441172E+03  0.90783650883E+02 0.  0.
         23    2    4    4    0    0 -0.22921993182E+03 -0.24373998858E+03  0.83695348570E+03  0.90604573057E+03  0.92069373234E+02 0.  0.
          4    1    3    3  502    0  0.18519282858E+03  0.21395522715E+03  0.38676934645E+03  0.47923245960E+03  0.00000000000E+00 0. -1.
         -3    1    3    3    0  502  0.95931182723E+02  0.13945662191E+03  0.14751679044E+03  0.22452648992E+03  0.00000000000E+00 0.  1.
         13    1    5    5    0    0  0.51332823713E+01 -0.29617335702E+02 -0.56914017078E+01  0.30592960226E+02  0.00000000000E+00 0.  1.
        -13    1    5    5    0    0 -0.57037361853E+02 -0.80054524773E+02 -0.22356683516E+03  0.24422145149E+03  0.00000000000E+00 0. -1.
          1    1    6    6  503    0 -0.22337566825E+03 -0.20026404100E+03  0.76566985845E+03  0.82234585633E+03  0.00000000000E+00 0. -1.
         -1    1    6    6    0  503 -0.58442635704E+01 -0.43475947577E+02  0.71283627254E+02  0.83699874247E+02  0.00000000000E+00 0.  1.
<mgrwt>
<rscale>  0 0.14992223E+04</rscale>
<asrwt>0</asrwt>
<pdfrwt beam="1">  1        2 0.23281542E+00 0.14992223E+04</pdfrwt>
<pdfrwt beam="2">  1       -1 0.57125978E-01 0.14992223E+04</pdfrwt>
<totfact> 0.42618029E+01</totfact>
</mgrwt>
</event>
<event>
12    7  0.1701638E-007  0.2172256E+04  0.7818608E-02  0.8530065E-01
         -1   -1    0    0    0  501 -0.00000000000E+00  0.00000000000E+00  0.42793073406E+03  0.42793073406E+03  0.00000000000E+00 0.  1.
          2   -1    0    0  501    0  0.00000000000E+00 -0.00000000000E+00 -0.27566943185E+04  0.27566943185E+04  0.00000000000E+00 0. -1.
         24    2    1    2    0    0  0.26149910601E+03  0.28662032460E+03  0.22020908549E+03  0.45330148654E+03  0.80356726230E+02 0.  0.
        254    2    1    2    0    0 -0.26149910601E+03 -0.28662032460E+03 -0.25489726699E+04  0.27313235660E+04  0.90129559929E+03 0.  0.
         23    2    4    4    0    0 -0.13425299263E+03 -0.38494567558E+03 -0.41213668563E+03  0.58651102967E+03  0.89058975404E+02 0.  0.
         23    2    4    4    0    0 -0.12724611339E+03  0.98325350979E+02 -0.21368359843E+04  0.21448125363E+04  0.91067800411E+02 0.  0.
          2    1    3    3  502    0  0.26353049132E+02  0.36498467782E+02 -0.77800820212E+00  0.45024733711E+02  0.00000000000E+00 0. -1.
         -1    1    3    3    0  502  0.23514605688E+03  0.25012185682E+03  0.22098709369E+03  0.40827675283E+03  0.00000000000E+00 0.  1.
         13    1    5    5    0    0 -0.75308906312E+02 -0.94925881219E+02 -0.11199387296E+03  0.16499994507E+03  0.00000000000E+00 0. -1.
        -13    1    5    5    0    0 -0.58944086316E+02 -0.29001979436E+03 -0.30014281268E+03  0.42151108459E+03  0.00000000000E+00 0.  1.
          2    1    6    6  503    0 -0.19979431598E+02  0.67433063852E+02 -0.10161434632E+04  0.10185744615E+04  0.00000000000E+00 0. -1.
         -2    1    6    6    0  503 -0.10726668179E+03  0.30892287127E+02 -0.11206925211E+04  0.11262380748E+04  0.00000000000E+00 0.  1.
<mgrwt>
<rscale>  0 0.21722562E+04</rscale>
<asrwt>0</asrwt>
<pdfrwt beam="1">  1        2 0.42410684E+00 0.21722562E+04</pdfrwt>
<pdfrwt beam="2">  1       -1 0.65835494E-01 0.21722562E+04</pdfrwt>
<totfact> 0.59909466E+00</totfact>
</mgrwt>
</event>
<event>
12    7  0.1701638E-007  0.2458330E+04  0.7818608E-02  0.8417983E-01
          2   -1    0    0  501    0  0.00000000000E+00  0.00000000000E+00  0.34305234019E+04  0.34305234019E+04  0.00000000000E+00 0. -1.
         -1   -1    0    0    0  501 -0.00000000000E+00 -0.00000000000E+00 -0.44041272549E+03  0.44041272549E+03  0.00000000000E+00 0.  1.
         24    2    1    2    0    0 -0.91377608884E+03 -0.45715994577E+03  0.85311486226E+03  0.13336010993E+04  0.81883864680E+02 0.  0.
        254    2    1    2    0    0  0.91377608884E+03  0.45715994577E+03  0.21369958142E+04  0.25373350281E+04  0.90958011108E+03 0.  0.
         23    2    4    4    0    0  0.19819534461E+03  0.34651327866E+03  0.17477689072E+03  0.44375448013E+03  0.83774878079E+02 0.  0.
         23    2    4    4    0    0  0.71558074423E+03  0.11064666711E+03  0.19622189235E+04  0.20935805480E+04  0.92075625503E+02 0.  0.
          2    1    3    3  502    0 -0.39101798814E+03 -0.17921759163E+03  0.31035161916E+03  0.53040752230E+03  0.00000000000E+00 0. -1.
         -1    1    3    3    0  502 -0.52275810070E+03 -0.27794235414E+03  0.54276324310E+03  0.80319357700E+03  0.00000000000E+00 0.  1.
         13    1    5    5    0    0  0.41267205633E+02  0.13494828004E+03  0.88501397534E+02  0.16657286067E+03  0.00000000000E+00 0.  1.
        -13    1    5    5    0    0  0.15692813898E+03  0.21156499861E+03  0.86275493183E+02  0.27718161946E+03  0.00000000000E+00 0. -1.
          2    1    6    6  503    0  0.11432913901E+03  0.28911022784E+02  0.42137881769E+03  0.43756954563E+03  0.00000000000E+00 0. -1.
         -2    1    6    6    0  503  0.60125160522E+03  0.81735644330E+02  0.15408401058E+04  0.16560110023E+04  0.00000000000E+00 0.  1.
<mgrwt>
<rscale>  0 0.24583296E+04</rscale>
<asrwt>0</asrwt>
<pdfrwt beam="1">  1        2 0.52777281E+00 0.24583296E+04</pdfrwt>
<pdfrwt beam="2">  1       -1 0.67755806E-01 0.24583296E+04</pdfrwt>
<totfact> 0.20423714E+00</totfact>
</mgrwt>
</event>
<event>
12    7  0.1701638E-007  0.1763397E+04  0.7818608E-02  0.8726011E-01
         -1   -1    0    0    0  501 -0.00000000000E+00  0.00000000000E+00  0.72588600204E+03  0.72588600204E+03  0.00000000000E+00 0.  1.
          2   -1    0    0  501    0  0.00000000000E+00 -0.00000000000E+00 -0.10709558275E+04  0.10709558275E+04  0.00000000000E+00 0. -1.
         24    2    1    2    0    0 -0.10550802992E+03 -0.16139558765E+03 -0.75877054902E+03  0.78686016163E+03  0.78966371363E+02 0.  0.
        254    2    1    2    0    0  0.10550802992E+03  0.16139558765E+03  0.41370072356E+03  0.10099816679E+04  0.90096292972E+03 0.  0.
         23    2    4    4    0    0  0.23927290983E+03  0.48515496982E+03  0.32542059978E+03  0.63813253478E+03  0.93207805775E+02 0.  0.
         23    2    4    4    0    0 -0.13376487992E+03 -0.32375938216E+03  0.88280123777E+02  0.37184913313E+03  0.88120468198E+02 0.  0.
          2    1    3    3  502    0 -0.69751960013E+02 -0.14758734538E+03 -0.51963533174E+03  0.54467259747E+03  0.00000000000E+00 0. -1.
         -1    1    3    3    0  502 -0.35756069904E+02 -0.13808242277E+02 -0.23913521729E+03  0.24218756417E+03  0.00000000000E+00 0.  1.
         13    1    5    5    0    0  0.36992575705E+02  0.61197302203E+02  0.97346803970E+01  0.72168722149E+02  0.00000000000E+00 0.  1.
        -13    1    5    5    0    0  0.20228033413E+03  0.42395766761E+03  0.31568591939E+03  0.56596381263E+03  0.00000000000E+00 0. -1.
          1    1    6    6  503    0 -0.10599719810E+03 -0.31004818636E+03  0.92796402042E+02  0.34055316193E+03  0.00000000000E+00 0. -1.
         -1    1    6    6    0  503 -0.27767681815E+02 -0.13711195807E+02 -0.45162782652E+01  0.31295971197E+02  0.00000000000E+00 0.  1.
<mgrwt>
<rscale>  0 0.17633965E+04</rscale>
<asrwt>0</asrwt>
<pdfrwt beam="1">  1        2 0.16476243E+00 0.17633965E+04</pdfrwt>
<pdfrwt beam="2">  1       -1 0.11167477E+00 0.17633965E+04</pdfrwt>
<totfact> 0.18061769E+01</totfact>
</mgrwt>
</event>
<event>
12    7  0.1701638E-007  0.1825147E+04  0.7818608E-02  0.8693040E-01
          2   -1    0    0  501    0  0.00000000000E+00  0.00000000000E+00  0.43171562780E+03  0.43171562780E+03  0.00000000000E+00 0. -1.
         -1   -1    0    0    0  501 -0.00000000000E+00 -0.00000000000E+00 -0.19290263248E+04  0.19290263248E+04  0.00000000000E+00 0.  1.
         24    2    1    2    0    0 -0.56249765892E+03 -0.34703697270E+03 -0.82106376833E+03  0.10573829027E+04  0.84110728273E+02 0.  0.
        254    2    1    2    0    0  0.56249765892E+03  0.34703697270E+03 -0.67624692866E+03  0.13033590499E+04  0.89699310343E+03 0.  0.
         23    2    4    4    0    0  0.83788692227E+02 -0.17322879958E+03  0.11178057450E+03  0.24083844287E+03  0.92084183123E+02 0.  0.
         23    2    4    4    0    0  0.47870896670E+03  0.52026577228E+03 -0.78802750315E+03  0.10625206070E+04  0.90132934734E+02 0.  0.
          4    1    3    3  502    0 -0.17023437393E+03 -0.85833991251E+02 -0.18406874252E+03  0.26500663783E+03  0.00000000000E+00 0. -1.
         -3    1    3    3    0  502 -0.39226328499E+03 -0.26120298145E+03 -0.63699502581E+03  0.79237626490E+03  0.00000000000E+00 0.  1.
         13    1    5    5    0    0  0.15207540854E+02 -0.41618227431E+02  0.76325277012E+02  0.88254711287E+02  0.00000000000E+00 0.  1.
        -13    1    5    5    0    0  0.68581151373E+02 -0.13161057215E+03  0.35455297486E+02  0.15258373159E+03  0.00000000000E+00 0. -1.
          3    1    6    6  503    0  0.27176975720E+03  0.33041706655E+03 -0.41941714902E+03  0.59912017466E+03  0.00000000000E+00 0. -1.
         -3    1    6    6    0  503  0.20693920950E+03  0.18984870573E+03 -0.36861035414E+03  0.46340043232E+03  0.00000000000E+00 0.  1.
<mgrwt>
<rscale>  0 0.18251475E+04</rscale>
<asrwt>0</asrwt>
<pdfrwt beam="1">  1        2 0.66417789E-01 0.18251475E+04</pdfrwt>
<pdfrwt beam="2">  1       -1 0.29677328E+00 0.18251475E+04</pdfrwt>
<totfact> 0.27244897E+00</totfact>
</mgrwt>
</event>
<event>
12    7  0.1701638E-007  0.1748369E+04  0.7818608E-02  0.8734249E-01
         -1   -1    0    0    0  501 -0.00000000000E+00  0.00000000000E+00  0.33304668624E+03  0.33304668624E+03  0.00000000000E+00 0.  1.
          2   -1    0    0  501    0  0.00000000000E+00 -0.00000000000E+00 -0.22945684471E+04  0.22945684471E+04  0.00000000000E+00 0. -1.
         24    2    1    2    0    0 -0.11680285498E+03  0.40797791018E+03 -0.86274353525E+01  0.43307274502E+03  0.85957476181E+02 0.  0.
        254    2    1    2    0    0  0.11680285498E+03 -0.40797791018E+03 -0.19528943255E+04  0.21945423883E+04  0.90671448945E+03 0.  0.
         23    2    4    4    0    0  0.34119540583E+03 -0.13024932938E+03 -0.17159806612E+04  0.17562517694E+04  0.80320952187E+02 0.  0.
         23    2    4    4    0    0 -0.22439255085E+03 -0.27772858080E+03 -0.23691366435E+03  0.43829061890E+03  0.92116235179E+02 0.  0.
          4    1    3    3  502    0 -0.28529297583E+02  0.37334146118E+02 -0.21880902459E+02  0.51831777698E+02  0.00000000000E+00 0. -1.
         -3    1    3    3    0  502 -0.88273557401E+02  0.37064376406E+03  0.13253467107E+02  0.38124096732E+03  0.00000000000E+00 0.  1.
         13    1    5    5    0    0  0.15497755727E+03 -0.61919385747E+02 -0.97502336764E+03  0.98920302316E+03  0.00000000000E+00 0. -1.
        -13    1    5    5    0    0  0.18621784856E+03 -0.68329943629E+02 -0.74095729354E+03  0.76704874628E+03  0.00000000000E+00 0.  1.
          4    1    6    6  503    0 -0.13292495040E+03 -0.16569116937E+03 -0.85738110524E+02  0.22907123268E+03  0.00000000000E+00 0. -1.
         -4    1    6    6    0  503 -0.91467600452E+02 -0.11203741143E+03 -0.15117555383E+03  0.20921938622E+03  0.00000000000E+00 0.  1.
<mgrwt>
<rscale>  0 0.17483689E+04</rscale>
<asrwt>0</asrwt>
<pdfrwt beam="1">  1        2 0.35301053E+00 0.17483689E+04</pdfrwt>
<pdfrwt beam="2">  1       -1 0.51237951E-01 0.17483689E+04</pdfrwt>
<totfact> 0.18892136E+01</totfact>
</mgrwt>
</event>
<event>
12    7  0.1701638E-007  0.2235480E+04  0.7818608E-02  0.8503804E-01
         -1   -1    0    0    0  501 -0.00000000000E+00  0.00000000000E+00  0.17039844145E+04  0.17039844145E+04  0.00000000000E+00 0.  1.
          2   -1    0    0  501    0  0.00000000000E+00 -0.00000000000E+00 -0.73318929273E+03  0.73318929273E+03  0.00000000000E+00 0. -1.
         24    2    1    2    0    0 -0.34823314672E+03  0.33912883809E+03 -0.41278131489E+03  0.64264538035E+03  0.79561156735E+02 0.  0.
        254    2    1    2    0    0  0.34823314672E+03 -0.33912883809E+03  0.13835764367E+04  0.17945283269E+04  0.10342985384E+04 0.  0.
         23    2    4    4    0    0 -0.79545100393E+02 -0.58794204912E+03  0.98055359272E+03  0.11496176791E+04  0.90178621849E+02 0.  0.
         23    2    4    4    0    0  0.42777824711E+03  0.24881321103E+03  0.40302284394E+03  0.64491064775E+03  0.92628765308E+02 0.  0.
          4    1    3    3  502    0 -0.31238657911E+03  0.31610870933E+03 -0.40063380249E+03  0.59834566483E+03  0.00000000000E+00 0. -1.
         -3    1    3    3    0  502 -0.35846567613E+02  0.23020128768E+02 -0.12147512403E+02  0.44299715527E+02  0.00000000000E+00 0.  1.
         13    1    5    5    0    0 -0.76502233454E+02 -0.27821134633E+03  0.42818474025E+03  0.51632965897E+03  0.00000000000E+00 0. -1.
        -13    1    5    5    0    0 -0.30428669390E+01 -0.30973070279E+03  0.55236885248E+03  0.63328802016E+03  0.00000000000E+00 0.  1.
          4    1    6    6  503    0  0.63775646933E+01  0.21658842318E+02  0.32376273053E+02  0.39471532005E+02  0.00000000000E+00 0.  1.
         -4    1    6    6    0  503  0.42140068242E+03  0.22715436871E+03  0.37064657088E+03  0.60543911575E+03  0.00000000000E+00 0. -1.
<mgrwt>
<rscale>  0 0.22354804E+04</rscale>
<asrwt>0</asrwt>
<pdfrwt beam="1">  1        2 0.11279835E+00 0.22354804E+04</pdfrwt>
<pdfrwt beam="2">  1       -1 0.26215145E+00 0.22354804E+04</pdfrwt>
<totfact> 0.23333805E+00</totfact>
</mgrwt>
</event>
<event>
12    7  0.1701638E-007  0.2103675E+04  0.7818608E-02  0.8559626E-01
         -1   -1    0    0    0  501 -0.00000000000E+00  0.00000000000E+00  0.91566924669E+03  0.91566924669E+03  0.00000000000E+00 0.  1.
          2   -1    0    0  501    0  0.00000000000E+00 -0.00000000000E+00 -0.12082549952E+04  0.12082549952E+04  0.00000000000E+00 0. -1.
         24    2    1    2    0    0  0.69745669464E+02  0.81299748797E+03 -0.38142590660E+03  0.90430358336E+03  0.80311112601E+02 0.  0.
        254    2    1    2    0    0 -0.69745669464E+02 -0.81299748797E+03  0.88840158119E+02  0.12196206585E+04  0.90208237044E+03 0.  0.
         23    2    4    4    0    0 -0.33083983705E+03  0.70678094016E+00 -0.55184334603E+02  0.34814224448E+03  0.93285659583E+02 0.  0.
         23    2    4    4    0    0  0.26109416759E+03 -0.81370426891E+03  0.14402449272E+03  0.87147841401E+03  0.91906310967E+02 0.  0.
          2    1    3    3  502    0  0.43485637971E+02  0.73386757233E+03 -0.32604428886E+03  0.80421234305E+03  0.00000000000E+00 0. -1.
         -1    1    3    3    0  502  0.26260031493E+02  0.79129915644E+02 -0.55381617733E+02  0.10009124031E+03  0.00000000000E+00 0.  1.
         13    1    5    5    0    0 -0.15614473743E+03  0.38179056279E+02  0.13248672018E+01  0.16075003776E+03  0.00000000000E+00 0. -1.
        -13    1    5    5    0    0 -0.17469509962E+03 -0.37472275339E+02 -0.56509201805E+02  0.18739220672E+03  0.00000000000E+00 0.  1.
          1    1    6    6  503    0  0.14247981341E+03 -0.55399201030E+03  0.68251373588E+02  0.57607802831E+03  0.00000000000E+00 0. -1.
         -1    1    6    6    0  503  0.11861435418E+03 -0.25971225861E+03  0.75773119134E+02  0.29540038570E+03  0.00000000000E+00 0.  1.
<mgrwt>
<rscale>  0 0.21036748E+04</rscale>
<asrwt>0</asrwt>
<pdfrwt beam="1">  1        2 0.18588538E+00 0.21036748E+04</pdfrwt>
<pdfrwt beam="2">  1       -1 0.14087219E+00 0.21036748E+04</pdfrwt>
<totfact> 0.81117518E+00</totfact>
</mgrwt>
</event>
<event>
12    7  0.1701638E-007  0.2114412E+04  0.7818608E-02  0.8554921E-01
         -1   -1    0    0    0  501 -0.00000000000E+00  0.00000000000E+00  0.62775468230E+03  0.62775468230E+03  0.00000000000E+00 0.  1.
          2   -1    0    0  501    0  0.00000000000E+00 -0.00000000000E+00 -0.17804472460E+04  0.17804472460E+04  0.00000000000E+00 0. -1.
         24    2    1    2    0    0 -0.50688528515E+03 -0.23563314908E+03 -0.12533745918E+04  0.13751403629E+04  0.87220851520E+02 0.  0.
        254    2    1    2    0    0  0.50688528515E+03  0.23563314908E+03  0.10068202813E+03  0.10330615654E+04  0.86291578610E+03 0.  0.
         23    2    4    4    0    0  0.29642735774E+02  0.44488972300E+03  0.19445555083E+03  0.49500185553E+03  0.91696882748E+02 0.  0.
         23    2    4    4    0    0  0.47724254938E+03 -0.20925657392E+03 -0.93773522704E+02  0.53805970989E+03  0.95739297969E+02 0.  0.
          2    1    3    3  502    0 -0.18748332714E+03 -0.94416357264E+02 -0.57564996093E+03  0.61272940520E+03  0.00000000000E+00 0. -1.
         -1    1    3    3    0  502 -0.31940195801E+03 -0.14121679182E+03 -0.67772463090E+03  0.76241095769E+03  0.00000000000E+00 0.  1.
         13    1    5    5    0    0  0.33062113489E+02  0.51709633786E+02  0.17495055408E+02  0.63820580837E+02  0.00000000000E+00 0.  1.
        -13    1    5    5    0    0 -0.34193777143E+01  0.39318008922E+03  0.17696049543E+03  0.43118127469E+03  0.00000000000E+00 0. -1.
          1    1    6    6  503    0  0.45786783816E+03 -0.17446772301E+03 -0.85385163974E+02  0.49736562992E+03  0.00000000000E+00 0. -1.
         -1    1    6    6    0  503  0.19374711216E+02 -0.34788850909E+02 -0.83883587299E+01  0.40694079968E+02  0.00000000000E+00 0.  1.
<mgrwt>
<rscale>  0 0.21144116E+04</rscale>
<asrwt>0</asrwt>
<pdfrwt beam="1">  1        2 0.27391496E+00 0.21144116E+04</pdfrwt>
<pdfrwt beam="2">  1       -1 0.96577645E-01 0.21144116E+04</pdfrwt>
<totfact> 0.95667379E+00</totfact>
</mgrwt>
</event>
<event>
12    7  0.1701638E-007  0.3470951E+04  0.7818608E-02  0.8120709E-01
         -1   -1    0    0    0  501 -0.00000000000E+00  0.00000000000E+00  0.12390357447E+04  0.12390357447E+04  0.00000000000E+00 0.  1.
          2   -1    0    0  501    0  0.00000000000E+00 -0.00000000000E+00 -0.24308218805E+04  0.24308218805E+04  0.00000000000E+00 0. -1.
         24    2    1    2    0    0  0.13976466907E+04 -0.76658763739E+03 -0.83598115465E+03  0.18018633048E+04  0.82304315907E+02 0.  0.
        254    2    1    2    0    0 -0.13976466907E+04  0.76658763739E+03 -0.35580498112E+03  0.18679943204E+04  0.90649474277E+03 0.  0.
         23    2    4    4    0    0 -0.12992672973E+04  0.41884184508E+03 -0.22985764299E+02  0.13683093293E+04  0.90653594748E+02 0.  0.
         23    2    4    4    0    0 -0.98379393383E+02  0.34774579231E+03 -0.33281921682E+03  0.49968499110E+03  0.91163688708E+02 0.  0.
          4    1    3    3  502    0  0.12633668748E+04 -0.70486884710E+03 -0.73350199348E+03  0.16220237750E+04  0.00000000000E+00 0. -1.
         -3    1    3    3    0  502  0.13427981585E+03 -0.61718790293E+02 -0.10247916117E+03  0.17983952984E+03  0.00000000000E+00 0.  1.
         13    1    5    5    0    0 -0.79152882358E+03  0.21585111874E+03 -0.37712306757E+02  0.82129885066E+03  0.00000000000E+00 0. -1.
        -13    1    5    5    0    0 -0.50773847373E+03  0.20299072635E+03  0.14726542458E+02  0.54701047864E+03  0.00000000000E+00 0.  1.
          1    1    6    6  503    0 -0.99880477950E+02  0.33983004227E+03 -0.29483583148E+03  0.46085652325E+03  0.00000000000E+00 0. -1.
         -1    1    6    6    0  503  0.15010845663E+01  0.79157500426E+01 -0.37983385340E+02  0.38828467849E+02  0.00000000000E+00 0.  1.
<mgrwt>
<rscale>  0 0.34709510E+04</rscale>
<asrwt>0</asrwt>
<pdfrwt beam="1">  1        2 0.37397260E+00 0.34709510E+04</pdfrwt>
<pdfrwt beam="2">  1       -1 0.19062088E+00 0.34709510E+04</pdfrwt>
<totfact> 0.62496527E-01</totfact>
</mgrwt>
</event>
<event>
12    7  0.1701638E-007  0.2395590E+04  0.7818608E-02  0.8441156E-01
         -1   -1    0    0    0  501 -0.00000000000E+00  0.00000000000E+00  0.72723472724E+03  0.72723472724E+03  0.00000000000E+00 0.  1.
          2   -1    0    0  501    0  0.00000000000E+00 -0.00000000000E+00 -0.19728335469E+04  0.19728335469E+04  0.00000000000E+00 0. -1.
         24    2    1    2    0    0 -0.64257675342E+03  0.64764844801E+03 -0.10577632803E+04  0.13991573261E+04  0.80154038037E+02 0.  0.
        254    2    1    2    0    0  0.64257675342E+03 -0.64764844801E+03 -0.18783553939E+03  0.13009109480E+04  0.90814850583E+03 0.  0.
         23    2    4    4    0    0  0.23919071029E+03  0.12874510567E+03  0.18952654474E+03  0.34369239404E+03  0.91742315380E+02 0.  0.
         23    2    4    4    0    0  0.40338604313E+03 -0.77639355369E+03 -0.37736208413E+03  0.95721855401E+03  0.91421920836E+02 0.  0.
          2    1    3    3  502    0 -0.51357731968E+03  0.48296674202E+03 -0.85009508538E+03  0.11043913217E+04  0.00000000000E+00 0. -1.
         -1    1    3    3    0  502 -0.12899943374E+03  0.16468170599E+03 -0.20766819487E+03  0.29476600441E+03  0.00000000000E+00 0.  1.
         13    1    5    5    0    0  0.20171247161E+03  0.11715891989E+03  0.19505901962E+03  0.30407590310E+03  0.00000000000E+00 0.  1.
        -13    1    5    5    0    0  0.37478238687E+02  0.11586185782E+02 -0.55324748733E+01  0.39616490938E+02  0.00000000000E+00 0. -1.
          3    1    6    6  503    0  0.51033046500E+02 -0.17895950406E+03 -0.78808282005E+02  0.20209310043E+03  0.00000000000E+00 0. -1.
         -3    1    6    6    0  503  0.35235299663E+03 -0.59743404963E+03 -0.29855380213E+03  0.75512545359E+03  0.00000000000E+00 0.  1.
<mgrwt>
<rscale>  0 0.23955902E+04</rscale>
<asrwt>0</asrwt>
<pdfrwt beam="1">  1        2 0.30351285E+00 0.23955902E+04</pdfrwt>
<pdfrwt beam="2">  1       -1 0.11188227E+00 0.23955902E+04</pdfrwt>
<totfact> 0.51911193E+00</totfact>
</mgrwt>
</event>
<event>
12    7  0.1701638E-007  0.1812934E+04  0.7818608E-02  0.8699452E-01
         -1   -1    0    0    0  501 -0.00000000000E+00  0.00000000000E+00  0.76839672513E+03  0.76839672513E+03  0.00000000000E+00 0.  1.
          2   -1    0    0  501    0  0.00000000000E+00 -0.00000000000E+00 -0.10693463763E+04  0.10693463763E+04  0.00000000000E+00 0. -1.
         24    2    1    2    0    0  0.31782170131E+03 -0.15529475097E+03 -0.73610011546E+03  0.82059423609E+03  0.80027662906E+02 0.  0.
        254    2    1    2    0    0 -0.31782170131E+03  0.15529475097E+03  0.43515046429E+03  0.10171488653E+04  0.84859224258E+03 0.  0.
         23    2    4    4    0    0 -0.45483268200E+03 -0.18066827065E+03  0.82219009017E+02  0.50280426717E+03  0.80860206578E+02 0.  0.
         23    2    4    4    0    0  0.13701098070E+03  0.33596302161E+03  0.35293145528E+03  0.51434459816E+03  0.91359689170E+02 0.  0.
          4    1    3    3  502    0  0.21294304385E+03 -0.11703566261E+03 -0.57850669684E+03  0.62746480741E+03  0.00000000000E+00 0. -1.
         -3    1    3    3    0  502  0.10487865746E+03 -0.38259088352E+02 -0.15759341862E+03  0.19312942868E+03  0.00000000000E+00 0.  1.
         13    1    5    5    0    0 -0.21005618922E+02 -0.17374033579E+02  0.22667464410E+02  0.35452884394E+02  0.00000000000E+00 0. -1.
        -13    1    5    5    0    0 -0.43382706308E+03 -0.16329423707E+03  0.59551544607E+02  0.46735138278E+03  0.00000000000E+00 0.  1.
          3    1    6    6  503    0  0.14582800591E+01  0.96196996600E+02  0.11862439733E+03  0.15273420173E+03  0.00000000000E+00 0. -1.
         -3    1    6    6    0  503  0.13555270064E+03  0.23976602501E+03  0.23430705794E+03  0.36161039643E+03  0.00000000000E+00 0.  1.
<mgrwt>
<rscale>  0 0.18129338E+04</rscale>
<asrwt>0</asrwt>
<pdfrwt beam="1">  1        2 0.16451483E+00 0.18129338E+04</pdfrwt>
<pdfrwt beam="2">  1       -1 0.11821488E+00 0.18129338E+04</pdfrwt>
<totfact> 0.15727574E+01</totfact>
</mgrwt>
</event>
<event>
12    7  0.1701638E-007  0.1995264E+04  0.7818608E-02  0.8608838E-01
         -1   -1    0    0    0  501 -0.00000000000E+00  0.00000000000E+00  0.42134439295E+03  0.42134439295E+03  0.00000000000E+00 0.  1.
          2   -1    0    0  501    0  0.00000000000E+00 -0.00000000000E+00 -0.23621289445E+04  0.23621289445E+04  0.00000000000E+00 0. -1.
         24    2    1    2    0    0  0.20245627643E+03  0.63164443187E+03 -0.17195088309E+03  0.68993680783E+03  0.80513728175E+02 0.  0.
        254    2    1    2    0    0 -0.20245627643E+03 -0.63164443187E+03 -0.17688336685E+04  0.20935365297E+04  0.90230783109E+03 0.  0.
         23    2    4    4    0    0 -0.41807276408E+03 -0.53317844801E+03 -0.64020019889E+03  0.93658515947E+03  0.90947087886E+02 0.  0.
         23    2    4    4    0    0  0.21561648765E+03 -0.98465983867E+02 -0.11286334696E+04  0.11569513702E+04  0.92395587333E+02 0.  0.
          2    1    3    3  502    0  0.83111766442E+02  0.17500907457E+03 -0.23466111533E+02  0.19515737314E+03  0.00000000000E+00 0. -1.
         -1    1    3    3    0  502  0.11934450999E+03  0.45663535731E+03 -0.14848477156E+03  0.49477943469E+03  0.00000000000E+00 0.  1.
         13    1    5    5    0    0 -0.99494670390E+02 -0.93633451323E+02 -0.17242123626E+03  0.21998976193E+03  0.00000000000E+00 0.  1.
        -13    1    5    5    0    0 -0.31857809369E+03 -0.43954499668E+03 -0.46777896263E+03  0.71659539753E+03  0.00000000000E+00 0. -1.
          3    1    6    6  503    0  0.10915246429E+03 -0.93339732684E+00 -0.43923393898E+03  0.45259428282E+03  0.00000000000E+00 0.  1.
         -3    1    6    6    0  503  0.10646402336E+03 -0.97532586541E+02 -0.68939953062E+03  0.70435708737E+03  0.00000000000E+00 0. -1.
<mgrwt>
<rscale>  0 0.19952642E+04</rscale>
<asrwt>0</asrwt>
<pdfrwt beam="1">  1        2 0.36340445E+00 0.19952642E+04</pdfrwt>
<pdfrwt beam="2">  1       -1 0.64822215E-01 0.19952642E+04</pdfrwt>
<totfact> 0.10671789E+01</totfact>
</mgrwt>
</event>
<event>
12    7  0.1701638E-007  0.1380451E+04  0.7818608E-02  0.8968092E-01
          2   -1    0    0  501    0  0.00000000000E+00  0.00000000000E+00  0.12572391622E+04  0.12572391622E+04  0.00000000000E+00 0. -1.
         -1   -1    0    0    0  501 -0.00000000000E+00 -0.00000000000E+00 -0.37893427289E+03  0.37893427289E+03  0.00000000000E+00 0.  1.
         24    2    1    2    0    0 -0.27421029350E+03  0.14939606922E+03 -0.20356878420E+02  0.32450473330E+03  0.85897897981E+02 0.  0.
        254    2    1    2    0    0  0.27421029350E+03 -0.14939606922E+03  0.89866176773E+03  0.13116687018E+04  0.90297914700E+03 0.  0.
         23    2    4    4    0    0  0.29621327344E+02 -0.92571121644E+02 -0.16674659668E+03  0.21321335738E+03  0.90601725496E+02 0.  0.
         23    2    4    4    0    0  0.24458896615E+03 -0.56824947580E+02  0.10654083644E+04  0.10984553444E+04  0.91958271466E+02 0.  0.
          4    1    3    3  502    0 -0.65671032485E+02  0.28970977594E+02  0.31149771005E+02  0.78245193361E+02  0.00000000000E+00 0. -1.
         -3    1    3    3    0  502 -0.20853926101E+03  0.12042509163E+03 -0.51506649425E+02  0.24625953994E+03  0.00000000000E+00 0.  1.
         13    1    5    5    0    0  0.66309260929E+01 -0.17846457801E+02  0.88527649475E+01  0.20996111167E+02  0.00000000000E+00 0. -1.
        -13    1    5    5    0    0  0.22990401251E+02 -0.74724663842E+02 -0.17559936163E+03  0.19221724621E+03  0.00000000000E+00 0.  1.
          1    1    6    6  503    0  0.10106926132E+03 -0.11925396944E+02  0.26155040239E+03  0.28065249628E+03  0.00000000000E+00 0. -1.
         -1    1    6    6    0  503  0.14351970483E+03 -0.44899550636E+02  0.80385796201E+03  0.81780284813E+03  0.00000000000E+00 0.  1.
<mgrwt>
<rscale>  0 0.13804507E+04</rscale>
<asrwt>0</asrwt>
<pdfrwt beam="1">  1        2 0.19342141E+00 0.13804507E+04</pdfrwt>
<pdfrwt beam="2">  1       -1 0.58297581E-01 0.13804507E+04</pdfrwt>
<totfact> 0.58017961E+01</totfact>
</mgrwt>
</event>
<event>
12    7  0.1701638E-007  0.1544278E+04  0.7818608E-02  0.8855531E-01
         -1   -1    0    0    0  501 -0.00000000000E+00  0.00000000000E+00  0.32172662414E+03  0.32172662414E+03  0.00000000000E+00 0.  1.
          2   -1    0    0  501    0  0.00000000000E+00 -0.00000000000E+00 -0.18531217734E+04  0.18531217734E+04  0.00000000000E+00 0. -1.
         24    2    1    2    0    0  0.29996530071E+03  0.40158239922E+03 -0.57440959224E+03  0.76692933548E+03  0.83586009445E+02 0.  0.
        254    2    1    2    0    0 -0.29996530071E+03 -0.40158239922E+03 -0.95698555707E+03  0.14079190621E+04  0.90286606095E+03 0.  0.
         23    2    4    4    0    0 -0.22291760381E+03 -0.28654867129E+03 -0.11160450268E+04  0.11765427795E+04  0.83030182198E+02 0.  0.
         23    2    4    4    0    0 -0.77047696895E+02 -0.11503372792E+03  0.15905946973E+03  0.23137628256E+03  0.95215350978E+02 0.  0.
          2    1    3    3  502    0  0.29656506537E+03  0.35989975018E+03 -0.52689616372E+03  0.70363217345E+03  0.00000000000E+00 0. -1.
         -1    1    3    3    0  502  0.34002353401E+01  0.41682649034E+02 -0.47513428520E+02  0.63297162026E+02  0.00000000000E+00 0.  1.
         13    1    5    5    0    0 -0.11858157505E+03 -0.17545732348E+03 -0.52348867606E+03  0.56470103265E+03  0.00000000000E+00 0. -1.
        -13    1    5    5    0    0 -0.10433602876E+03 -0.11109134781E+03 -0.59255635073E+03  0.61184174690E+03  0.00000000000E+00 0.  1.
          4    1    6    6  503    0 -0.29210764898E+02  0.81361220498E+01  0.94276179690E+01  0.31754452420E+02  0.00000000000E+00 0. -1.
         -4    1    6    6    0  503 -0.47836931997E+02 -0.12316984997E+03  0.14963185176E+03  0.19962183014E+03  0.00000000000E+00 0.  1.
<mgrwt>
<rscale>  0 0.15442780E+04</rscale>
<asrwt>0</asrwt>
<pdfrwt beam="1">  1        2 0.28509566E+00 0.15442780E+04</pdfrwt>
<pdfrwt beam="2">  1       -1 0.49496404E-01 0.15442780E+04</pdfrwt>
<totfact> 0.36192811E+01</totfact>
</mgrwt>
</event>
<event>
12    7  0.1701638E-007  0.1995020E+04  0.7818608E-02  0.8608953E-01
         -1   -1    0    0    0  501 -0.00000000000E+00  0.00000000000E+00  0.71085267369E+03  0.71085267369E+03  0.00000000000E+00 0.  1.
          2   -1    0    0  501    0  0.00000000000E+00 -0.00000000000E+00 -0.13997638106E+04  0.13997638106E+04  0.00000000000E+00 0. -1.
         24    2    1    2    0    0  0.72784426161E+03 -0.25025126811E+03 -0.81897036610E+02  0.77815252158E+03  0.80195111382E+02 0.  0.
        254    2    1    2    0    0 -0.72784426161E+03  0.25025126811E+03 -0.60701410025E+03  0.13324639627E+04  0.90255810203E+03 0.  0.
         23    2    4    4    0    0 -0.16003480295E+03 -0.24126975142E+03  0.75395157775E+02  0.31368149620E+03  0.94283721496E+02 0.  0.
         23    2    4    4    0    0 -0.56780945866E+03  0.49152101952E+03 -0.68240925803E+03  0.10187824665E+04  0.90745934054E+02 0.  0.
          2    1    3    3  502    0  0.41346598518E+03 -0.13906639003E+03 -0.86213333668E+02  0.44466427857E+03  0.00000000000E+00 0. -1.
         -1    1    3    3    0  502  0.31437827644E+03 -0.11118487808E+03  0.43162970583E+01  0.33348824301E+03  0.00000000000E+00 0.  1.
         13    1    5    5    0    0 -0.14909062910E+03 -0.19062251324E+03  0.92555842859E+02  0.25909755361E+03  0.00000000000E+00 0. -1.
        -13    1    5    5    0    0 -0.10944173850E+02 -0.50647238179E+02 -0.17160685084E+02  0.54583942592E+02  0.00000000000E+00 0.  1.
          2    1    6    6  503    0 -0.16472722231E+03  0.17255825616E+03 -0.16957707173E+03  0.29269060934E+03  0.00000000000E+00 0.  1.
         -2    1    6    6    0  503 -0.40308223636E+03  0.31896276336E+03 -0.51283218630E+03  0.72609185712E+03  0.00000000000E+00 0. -1.
<mgrwt>
<rscale>  0 0.19950196E+04</rscale>
<asrwt>0</asrwt>
<pdfrwt beam="1">  1        2 0.21534828E+00 0.19950196E+04</pdfrwt>
<pdfrwt beam="2">  1       -1 0.10936195E+00 0.19950196E+04</pdfrwt>
<totfact> 0.11863912E+01</totfact>
</mgrwt>
</event>
<event>
12    7  0.1701638E-007  0.2194068E+04  0.7818608E-02  0.8520901E-01
         -1   -1    0    0    0  501 -0.00000000000E+00  0.00000000000E+00  0.55556642283E+03  0.55556642283E+03  0.00000000000E+00 0.  1.
          2   -1    0    0  501    0  0.00000000000E+00 -0.00000000000E+00 -0.21662273750E+04  0.21662273750E+04  0.00000000000E+00 0. -1.
         24    2    1    2    0    0  0.76253354237E+03 -0.47515123877E+03 -0.97139145233E+03  0.13254917519E+04  0.78108436120E+02 0.  0.
        254    2    1    2    0    0 -0.76253354237E+03  0.47515123877E+03 -0.63926949988E+03  0.13963020460E+04  0.85660247905E+03 0.  0.
         23    2    4    4    0    0 -0.82928069483E+03  0.15611192140E+03 -0.25926853169E+03  0.88733072898E+03  0.89767746127E+02 0.  0.
         23    2    4    4    0    0  0.66747152452E+02  0.31903931737E+03 -0.38000096819E+03  0.50897131698E+03  0.91704946976E+02 0.  0.
          2    1    3    3  502    0  0.20678791990E+03 -0.10633303316E+03 -0.21061150806E+03  0.31372785194E+03  0.00000000000E+00 0. -1.
         -1    1    3    3    0  502  0.55574562247E+03 -0.36881820561E+03 -0.76077994427E+03  0.10117639000E+04  0.00000000000E+00 0.  1.
         13    1    5    5    0    0 -0.48503078224E+00  0.42134569197E+00 -0.71194481122E+01  0.71483794299E+01  0.00000000000E+00 0.  1.
        -13    1    5    5    0    0 -0.82879566404E+03  0.15569057571E+03 -0.25214908358E+03  0.88018234955E+03  0.00000000000E+00 0. -1.
          3    1    6    6  503    0  0.12635196116E+02  0.25252505184E+03 -0.28587040266E+03  0.38164176541E+03  0.00000000000E+00 0. -1.
         -3    1    6    6    0  503  0.54111956336E+02  0.66514265531E+02 -0.94130565524E+02  0.12732955157E+03  0.00000000000E+00 0.  1.
<mgrwt>
<rscale>  0 0.21940676E+04</rscale>
<asrwt>0</asrwt>
<pdfrwt beam="1">  1        2 0.33326575E+00 0.21940676E+04</pdfrwt>
<pdfrwt beam="2">  1       -1 0.85471758E-01 0.21940676E+04</pdfrwt>
<totfact> 0.75943540E+00</totfact>
</mgrwt>
</event>
<event>
12    7  0.1701638E-007  0.1185416E+04  0.7818608E-02  0.9125719E-01
         -1   -1    0    0    0  501 -0.00000000000E+00  0.00000000000E+00  0.25410817396E+03  0.25410817396E+03  0.00000000000E+00 0.  1.
          2   -1    0    0  501    0  0.00000000000E+00 -0.00000000000E+00 -0.13824921200E+04  0.13824921200E+04  0.00000000000E+00 0. -1.
         24    2    1    2    0    0 -0.54717684831E+02 -0.20130304625E+03 -0.40928759812E+03  0.46623243712E+03  0.79620386787E+02 0.  0.
        254    2    1    2    0    0  0.54717684831E+02  0.20130304625E+03 -0.71909634790E+03  0.11703678568E+04  0.89952455289E+03 0.  0.
         23    2    4    4    0    0  0.12616634647E+03  0.54153726227E+03 -0.43996694171E+03  0.71505329188E+03  0.92464842128E+02 0.  0.
         23    2    4    4    0    0 -0.71448661643E+02 -0.34023421603E+03 -0.27912940619E+03  0.45531456494E+03  0.92379081162E+02 0.  0.
          2    1    3    3  502    0 -0.72116254389E+02 -0.17728547939E+03 -0.37407989491E+03  0.42019836164E+03  0.00000000000E+00 0. -1.
         -1    1    3    3    0  502  0.17398569558E+02 -0.24017566857E+02 -0.35207703205E+02  0.46034075481E+02  0.00000000000E+00 0.  1.
         13    1    5    5    0    0  0.47150501954E+02  0.72543944240E+02 -0.87740797038E+02  0.12322435289E+03  0.00000000000E+00 0.  1.
        -13    1    5    5    0    0  0.79015844520E+02  0.46899331803E+03 -0.35222614467E+03  0.59182893899E+03  0.00000000000E+00 0. -1.
          3    1    6    6  503    0 -0.75890301280E+02 -0.28742938087E+03 -0.26990435563E+03  0.40152627312E+03  0.00000000000E+00 0. -1.
         -3    1    6    6    0  503  0.44416396374E+01 -0.52804835160E+02 -0.92250505582E+01  0.53788291819E+02  0.00000000000E+00 0.  1.
<mgrwt>
<rscale>  0 0.11854156E+04</rscale>
<asrwt>0</asrwt>
<pdfrwt beam="1">  1        2 0.21269110E+00 0.11854156E+04</pdfrwt>
<pdfrwt beam="2">  1       -1 0.39093565E-01 0.11854156E+04</pdfrwt>
<totfact> 0.10581146E+02</totfact>
</mgrwt>
</event>
<event>
12    7  0.1701638E-007  0.1645720E+04  0.7818608E-02  0.8792942E-01
         -1   -1    0    0    0  501 -0.00000000000E+00  0.00000000000E+00  0.83675133459E+03  0.83675133459E+03  0.00000000000E+00 0.  1.
          2   -1    0    0  501    0  0.00000000000E+00 -0.00000000000E+00 -0.80919958933E+03  0.80919958933E+03  0.00000000000E+00 0. -1.
         24    2    1    2    0    0 -0.57966417161E+01  0.49127987302E+03 -0.27900827629E+03  0.57036053921E+03  0.77948776561E+02 0.  0.
        254    2    1    2    0    0  0.57966417161E+01 -0.49127987302E+03  0.30656002154E+03  0.10755903847E+04  0.90638077770E+03 0.  0.
         23    2    4    4    0    0 -0.42786091985E+02  0.98272355955E+02 -0.23140997861E+03  0.27095227647E+03  0.91522960586E+02 0.  0.
         23    2    4    4    0    0  0.48582733702E+02 -0.58955222897E+03  0.53797000015E+03  0.80463810823E+03  0.89992507822E+02 0.  0.
          4    1    3    3  502    0 -0.35316111532E+02  0.30193582599E+03 -0.14706799095E+03  0.33770025868E+03  0.00000000000E+00 0. -1.
         -3    1    3    3    0  502  0.29519469816E+02  0.18934404703E+03 -0.13194028534E+03  0.23266028054E+03  0.00000000000E+00 0.  1.
         13    1    5    5    0    0 -0.52343927640E+02  0.60442047575E+02 -0.21357321881E+03  0.22804966053E+03  0.00000000000E+00 0.  1.
        -13    1    5    5    0    0  0.95578356543E+01  0.37830308380E+02 -0.17836759797E+02  0.42902615941E+02  0.00000000000E+00 0. -1.
          2    1    6    6  503    0  0.21565052500E+02 -0.21002922130E+03  0.13596020028E+03  0.25112248276E+03  0.00000000000E+00 0. -1.
         -2    1    6    6    0  503  0.27017681202E+02 -0.37952300767E+03  0.40200979987E+03  0.55351562547E+03  0.00000000000E+00 0.  1.
<mgrwt>
<rscale>  0 0.16457203E+04</rscale>
<asrwt>0</asrwt>
<pdfrwt beam="1">  1        2 0.12449225E+00 0.16457203E+04</pdfrwt>
<pdfrwt beam="2">  1       -1 0.12873097E+00 0.16457203E+04</pdfrwt>
<totfact> 0.19242210E+01</totfact>
</mgrwt>
</event>
<event>
12    7  0.1701638E-007  0.1522318E+04  0.7818608E-02  0.8869746E-01
         -1   -1    0    0    0  501 -0.00000000000E+00  0.00000000000E+00  0.63415454449E+03  0.63415454449E+03  0.00000000000E+00 0.  1.
          2   -1    0    0  501    0  0.00000000000E+00 -0.00000000000E+00 -0.91359857905E+03  0.91359857905E+03  0.00000000000E+00 0. -1.
         24    2    1    2    0    0 -0.36107524938E+03  0.29293537569E+03  0.73923771850E+02  0.47807405076E+03  0.83087928880E+02 0.  0.
        254    2    1    2    0    0  0.36107524938E+03 -0.29293537569E+03 -0.35336780640E+03  0.10696790728E+04  0.89619085138E+03 0.  0.
         23    2    4    4    0    0  0.22122206799E+02  0.28220532844E+03  0.24391567244E+02  0.29736787966E+03  0.87769401654E+02 0.  0.
         23    2    4    4    0    0  0.33895304258E+03 -0.57514070413E+03 -0.37775937364E+03  0.77231119312E+03  0.89924635223E+02 0.  0.
          4    1    3    3  502    0 -0.19902510727E+02  0.13271153971E+02  0.24376116979E+02  0.34153016557E+02  0.00000000000E+00 0. -1.
         -3    1    3    3    0  502 -0.34117273865E+03  0.27966422172E+03  0.49547654871E+02  0.44392103421E+03  0.00000000000E+00 0.  1.
         13    1    5    5    0    0  0.34193389791E+00  0.25247544010E+03  0.42952768827E+02  0.25610330948E+03  0.00000000000E+00 0. -1.
        -13    1    5    5    0    0  0.21780272901E+02  0.29729888333E+02 -0.18561201584E+02  0.41264570180E+02  0.00000000000E+00 0.  1.
          3    1    6    6  503    0  0.28044937452E+03 -0.47076540973E+03 -0.34758356894E+03  0.64891159649E+03  0.00000000000E+00 0. -1.
         -3    1    6    6    0  503  0.58503668061E+02 -0.10437529440E+03 -0.30175804701E+02  0.12339959663E+03  0.00000000000E+00 0.  1.
<mgrwt>
<rscale>  0 0.15223176E+04</rscale>
<asrwt>0</asrwt>
<pdfrwt beam="1">  1        2 0.14055363E+00 0.15223176E+04</pdfrwt>
<pdfrwt beam="2">  1       -1 0.97562238E-01 0.15223176E+04</pdfrwt>
<totfact> 0.31873425E+01</totfact>
</mgrwt>
</event>
<event>
12    7  0.1701638E-007  0.1640448E+04  0.7818608E-02  0.8796077E-01
          2   -1    0    0  501    0  0.00000000000E+00  0.00000000000E+00  0.14319822098E+04  0.14319822098E+04  0.00000000000E+00 0. -1.
         -1   -1    0    0    0  501 -0.00000000000E+00 -0.00000000000E+00 -0.46981569496E+03  0.46981569496E+03  0.00000000000E+00 0.  1.
         24    2    1    2    0    0 -0.17379042541E+03  0.28395457669E+03 -0.20022817320E+03  0.39357043726E+03  0.63032167592E+02 0.  0.
        254    2    1    2    0    0  0.17379042541E+03 -0.28395457669E+03  0.11623946881E+04  0.15082274675E+04  0.90152946117E+03 0.  0.
         23    2    4    4    0    0  0.20788422741E+03 -0.47966872821E+02 -0.76751535479E+02  0.24315857354E+03  0.87855681607E+02 0.  0.
         23    2    4    4    0    0 -0.34093802006E+02 -0.23598770387E+03  0.12391462235E+04  0.12650688940E+04  0.89796210949E+02 0.  0.
          2    1    3    3  502    0 -0.87333651515E+02  0.11446358279E+03 -0.54654257911E+02  0.15400054020E+03  0.00000000000E+00 0. -1.
         -1    1    3    3    0  502 -0.86456773893E+02  0.16949099390E+03 -0.14557391529E+03  0.23956989706E+03  0.00000000000E+00 0.  1.
         13    1    5    5    0    0  0.13287343917E+03 -0.25843148713E+02 -0.91750483489E+02  0.16352788873E+03  0.00000000000E+00 0. -1.
        -13    1    5    5    0    0  0.75010788242E+02 -0.22123724108E+02  0.14998948010E+02  0.79630684805E+02  0.00000000000E+00 0.  1.
          1    1    6    6  503    0  0.50020628542E+01 -0.54015891933E+02  0.49648560741E+03  0.49944038241E+03  0.00000000000E+00 0. -1.
         -1    1    6    6    0  503 -0.39095864860E+02 -0.18197181194E+03  0.74266061613E+03  0.76562851157E+03  0.00000000000E+00 0.  1.
<mgrwt>
<rscale>  0 0.16404484E+04</rscale>
<asrwt>0</asrwt>
<pdfrwt beam="1">  1        2 0.22030495E+00 0.16404484E+04</pdfrwt>
<pdfrwt beam="2">  1       -1 0.72279338E-01 0.16404484E+04</pdfrwt>
<totfact> 0.29188998E+01</totfact>
</mgrwt>
</event>
<event>
12    7  0.1701638E-007  0.3830421E+04  0.7818608E-02  0.8039658E-01
          2   -1    0    0  501    0  0.00000000000E+00  0.00000000000E+00  0.17588611984E+04  0.17588611984E+04  0.00000000000E+00 0. -1.
         -1   -1    0    0    0  501 -0.00000000000E+00 -0.00000000000E+00 -0.20854585697E+04  0.20854585697E+04  0.00000000000E+00 0.  1.
         24    2    1    2    0    0 -0.73249025739E+03 -0.16491763676E+04 -0.11629343373E+03  0.18099288013E+04  0.77417274262E+02 0.  0.
        254    2    1    2    0    0  0.73249025739E+03  0.16491763676E+04 -0.21030393762E+03  0.20343909668E+04  0.91552945938E+03 0.  0.
         23    2    4    4    0    0  0.71106696398E+03  0.17333952527E+04 -0.11964494327E+03  0.18792589081E+04  0.83808126617E+02 0.  0.
         23    2    4    4    0    0  0.21423293410E+02 -0.84218885058E+02 -0.90658994355E+02  0.15513205868E+03  0.91077572825E+02 0.  0.
          2    1    3    3  502    0 -0.51260452882E+02 -0.16528121931E+03 -0.72609462043E+00  0.17304924935E+03  0.00000000000E+00 0. -1.
         -1    1    3    3    0  502 -0.68122980450E+03 -0.14838951483E+04 -0.11556733911E+03  0.16368795520E+04  0.00000000000E+00 0.  1.
         13    1    5    5    0    0  0.20861488282E+03  0.60196829276E+03 -0.22781013637E+02  0.63749899561E+03  0.00000000000E+00 0. -1.
        -13    1    5    5    0    0  0.50245208115E+03  0.11314269599E+04 -0.96863929629E+02  0.12417599125E+04  0.00000000000E+00 0.  1.
          1    1    6    6  503    0  0.54685872674E+02 -0.68777258169E+02 -0.53240865192E+02  0.10273969845E+03  0.00000000000E+00 0. -1.
         -1    1    6    6    0  503 -0.33262579264E+02 -0.15441626889E+02 -0.37418129163E+02  0.52392360229E+02  0.00000000000E+00 0.  1.
<mgrwt>
<rscale>  0 0.38304215E+04</rscale>
<asrwt>0</asrwt>
<pdfrwt beam="1">  1        2 0.27059403E+00 0.38304215E+04</pdfrwt>
<pdfrwt beam="2">  1       -1 0.32083978E+00 0.38304215E+04</pdfrwt>
<totfact> 0.20006167E-01</totfact>
</mgrwt>
</event>
<event>
12    7  0.1701638E-007  0.1890721E+04  0.7818608E-02  0.8659489E-01
          2   -1    0    0  501    0  0.00000000000E+00  0.00000000000E+00  0.94121530964E+03  0.94121530964E+03  0.00000000000E+00 0. -1.
         -1   -1    0    0    0  501 -0.00000000000E+00 -0.00000000000E+00 -0.94952357844E+03  0.94952357844E+03  0.00000000000E+00 0.  1.
         24    2    1    2    0    0 -0.70111275030E+03 -0.37371425562E+02  0.18555679287E+03  0.73106105057E+03  0.84042990162E+02 0.  0.
        254    2    1    2    0    0  0.70111275030E+03  0.37371425562E+02 -0.19386506167E+03  0.11596778375E+04  0.90239310312E+03 0.  0.
         23    2    4    4    0    0  0.23130919637E+03  0.22470198223E+03 -0.46863267844E+03  0.57686248859E+03  0.95701715192E+02 0.  0.
         23    2    4    4    0    0  0.46980355393E+03 -0.18733055666E+03  0.27476761677E+03  0.58281534891E+03  0.91478800567E+02 0.  0.
          4    1    3    3  502    0 -0.18940825769E+03 -0.45974138167E+01  0.88872097499E+02  0.20927224854E+03  0.00000000000E+00 0. -1.
         -3    1    3    3    0  502 -0.51170449261E+03 -0.32774011745E+02  0.96684695371E+02  0.52178880203E+03  0.00000000000E+00 0.  1.
         13    1    5    5    0    0  0.15729133531E+03  0.92550136484E+02 -0.29013003973E+03  0.34275579044E+03  0.00000000000E+00 0. -1.
        -13    1    5    5    0    0  0.74017861060E+02  0.13215184574E+03 -0.17850263871E+03  0.23410669815E+03  0.00000000000E+00 0.  1.
          1    1    6    6  503    0  0.27419556026E+03 -0.61369212105E+02  0.16093242702E+03  0.32380338406E+03  0.00000000000E+00 0. -1.
         -1    1    6    6    0  503  0.19560799367E+03 -0.12596134456E+03  0.11383518975E+03  0.25901196485E+03  0.00000000000E+00 0.  1.
<mgrwt>
<rscale>  0 0.18907206E+04</rscale>
<asrwt>0</asrwt>
<pdfrwt beam="1">  1        2 0.14480236E+00 0.18907206E+04</pdfrwt>
<pdfrwt beam="2">  1       -1 0.14608055E+00 0.18907206E+04</pdfrwt>
<totfact> 0.11023108E+01</totfact>
</mgrwt>
</event>
<event>
12    7  0.1701638E-007  0.1753330E+04  0.7818608E-02  0.8731519E-01
         -1   -1    0    0    0  501 -0.00000000000E+00  0.00000000000E+00  0.44067872731E+03  0.44067872731E+03  0.00000000000E+00 0.  1.
          2   -1    0    0  501    0  0.00000000000E+00 -0.00000000000E+00 -0.17439955815E+04  0.17439955815E+04  0.00000000000E+00 0. -1.
         24    2    1    2    0    0 -0.59799112323E+03 -0.23059659371E+03 -0.40630689642E+03  0.76304926657E+03  0.79941958040E+02 0.  0.
        254    2    1    2    0    0  0.59799112323E+03  0.23059659371E+03 -0.89700995777E+03  0.14216250422E+04  0.89756488561E+03 0.  0.
         23    2    4    4    0    0  0.18520619458E+03 -0.97983317950E+02  0.13112014137E+03  0.26260053999E+03  0.88681943033E+02 0.  0.
         23    2    4    4    0    0  0.41278492865E+03  0.32857991166E+03 -0.10281300991E+04  0.11590245023E+04  0.89051335674E+02 0.  0.
          2    1    3    3  502    0 -0.49283870510E+03 -0.17627972048E+03 -0.29628155554E+03  0.60145431185E+03  0.00000000000E+00 0. -1.
         -1    1    3    3    0  502 -0.10515241813E+03 -0.54316873230E+02 -0.11002534088E+03  0.16159495472E+03  0.00000000000E+00 0.  1.
         13    1    5    5    0    0  0.32154573045E+02 -0.35335441512E+02 -0.54989275495E+01  0.48091040733E+02  0.00000000000E+00 0.  1.
        -13    1    5    5    0    0  0.15305162153E+03 -0.62647876437E+02  0.13661906892E+03  0.21450949925E+03  0.00000000000E+00 0. -1.
          2    1    6    6  503    0  0.40146448407E+03  0.32841672786E+03 -0.97168284077E+03  0.11014530504E+04  0.00000000000E+00 0. -1.
         -2    1    6    6    0  503  0.11320444578E+02  0.16318380140E+00 -0.56447258381E+02  0.57571451894E+02  0.00000000000E+00 0.  1.
<mgrwt>
<rscale>  0 0.17533303E+04</rscale>
<asrwt>0</asrwt>
<pdfrwt beam="1">  1        2 0.26830700E+00 0.17533303E+04</pdfrwt>
<pdfrwt beam="2">  1       -1 0.67796730E-01 0.17533303E+04</pdfrwt>
<totfact> 0.22040147E+01</totfact>
</mgrwt>
</event>
<event>
12    7  0.1701638E-007  0.1597573E+04  0.7818608E-02  0.8822040E-01
         -1   -1    0    0    0  501 -0.00000000000E+00  0.00000000000E+00  0.57695586817E+03  0.57695586817E+03  0.00000000000E+00 0.  1.
          2   -1    0    0  501    0  0.00000000000E+00 -0.00000000000E+00 -0.11059076873E+04  0.11059076873E+04  0.00000000000E+00 0. -1.
         24    2    1    2    0    0  0.18202876518E+03 -0.41904629363E+03  0.21785758343E+03  0.51239662673E+03  0.79712664442E+02 0.  0.
        254    2    1    2    0    0 -0.18202876518E+03  0.41904629363E+03 -0.74680940255E+03  0.11704669287E+04  0.77687468743E+03 0.  0.
         23    2    4    4    0    0 -0.78692745364E+02  0.63459862553E+03 -0.54035053836E+03  0.84212540739E+03  0.91041385014E+02 0.  0.
         23    2    4    4    0    0 -0.10333601982E+03 -0.21555233190E+03 -0.20645886419E+03  0.32834152134E+03  0.89675811976E+02 0.  0.
          4    1    3    3  502    0  0.26007517976E+02 -0.27516492915E+02 -0.18881876455E+00  0.37862699667E+02  0.00000000000E+00 0. -1.
         -3    1    3    3    0  502  0.15602124721E+03 -0.39152980071E+03  0.21804640220E+03  0.47453392707E+03  0.00000000000E+00 0.  1.
         13    1    5    5    0    0 -0.27010553353E+02  0.46050618207E+02 -0.62941028728E+02  0.82533644819E+02  0.00000000000E+00 0. -1.
        -13    1    5    5    0    0 -0.51682192012E+02  0.58854800732E+03 -0.47740950963E+03  0.75959176257E+03  0.00000000000E+00 0.  1.
          1    1    6    6  503    0 -0.86363872764E+02 -0.10114023649E+03 -0.72918465813E+02  0.15167454834E+03  0.00000000000E+00 0.  1.
         -1    1    6    6    0  503 -0.16972147054E+02 -0.11441209540E+03 -0.13354039838E+03  0.17666697300E+03  0.00000000000E+00 0. -1.
<mgrwt>
<rscale>  0 0.15975731E+04</rscale>
<asrwt>0</asrwt>
<pdfrwt beam="1">  1        2 0.17013964E+00 0.15975731E+04</pdfrwt>
<pdfrwt beam="2">  1       -1 0.88762443E-01 0.15975731E+04</pdfrwt>
<totfact> 0.29437943E+01</totfact>
</mgrwt>
</event>
<event>
12    7  0.1701638E-007  0.2800099E+04  0.7818608E-02  0.8303237E-01
          2   -1    0    0  501    0  0.00000000000E+00  0.00000000000E+00  0.25870527024E+04  0.25870527024E+04  0.00000000000E+00 0. -1.
         -1   -1    0    0    0  501 -0.00000000000E+00 -0.00000000000E+00 -0.75767273605E+03  0.75767273605E+03  0.00000000000E+00 0.  1.
         24    2    1    2    0    0  0.33102713857E+03  0.94572506344E+03  0.16989657929E+04  0.19740957858E+04  0.81206798527E+02 0.  0.
        254    2    1    2    0    0 -0.33102713857E+03 -0.94572506344E+03  0.13041417343E+03  0.13706296526E+04  0.92609012836E+03 0.  0.
         23    2    4    4    0    0 -0.92963856596E+02  0.14531119651E+03 -0.11105799890E+03  0.22432333685E+03  0.90716359434E+02 0.  0.
         23    2    4    4    0    0 -0.23806328198E+03 -0.10910362599E+04  0.24147217233E+03  0.11463063157E+04  0.93140285361E+02 0.  0.
          4    1    3    3  502    0  0.96515477596E+02  0.22826825509E+03  0.36062811144E+03  0.43757772848E+03  0.00000000000E+00 0. -1.
         -3    1    3    3    0  502  0.23451166098E+03  0.71745680835E+03  0.13383376815E+04  0.15365180574E+04  0.00000000000E+00 0.  1.
         13    1    5    5    0    0 -0.61119157473E+02  0.88549556431E+02 -0.11702036981E+03  0.15896648170E+03  0.00000000000E+00 0.  1.
        -13    1    5    5    0    0 -0.31844699123E+02  0.56761640082E+02  0.59623709141E+01  0.65356855141E+02  0.00000000000E+00 0. -1.
          2    1    6    6  503    0 -0.24624531593E+03 -0.10670777556E+04  0.23873490327E+03  0.11208416687E+04  0.00000000000E+00 0. -1.
         -2    1    6    6    0  503  0.81820339577E+01 -0.23958504327E+02  0.27372690563E+01  0.25464647085E+02  0.00000000000E+00 0.  1.
<mgrwt>
<rscale>  0 0.28000995E+04</rscale>
<asrwt>0</asrwt>
<pdfrwt beam="1">  1        2 0.39800810E+00 0.28000995E+04</pdfrwt>
<pdfrwt beam="2">  1       -1 0.11656504E+00 0.28000995E+04</pdfrwt>
<totfact> 0.20348117E+00</totfact>
</mgrwt>
</event>
<event>
12    7  0.1701638E-007  0.1422652E+04  0.7818608E-02  0.8937583E-01
         -1   -1    0    0    0  501 -0.00000000000E+00  0.00000000000E+00  0.61140458958E+03  0.61140458958E+03  0.00000000000E+00 0.  1.
          2   -1    0    0  501    0  0.00000000000E+00 -0.00000000000E+00 -0.82757797188E+03  0.82757797188E+03  0.00000000000E+00 0. -1.
         24    2    1    2    0    0 -0.14078460716E+03 -0.35293770904E+03 -0.24073901053E+03  0.45473527938E+03  0.66660115860E+02 0.  0.
        254    2    1    2    0    0  0.14078460716E+03  0.35293770904E+03  0.24565628220E+02  0.98424728208E+03  0.90760889712E+03 0.  0.
         23    2    4    4    0    0 -0.37763748623E+03  0.11245951792E+03  0.31232232096E+02  0.40566572018E+03  0.91279844610E+02 0.  0.
         23    2    4    4    0    0  0.51842209339E+03  0.24047819112E+03 -0.66666038756E+01  0.57858156190E+03  0.90116329502E+02 0.  0.
          4    1    3    3  502    0 -0.57376171451E+02 -0.15002386592E+03 -0.63573485246E+02  0.17274482169E+03  0.00000000000E+00 0. -1.
         -3    1    3    3    0  502 -0.83408435711E+02 -0.20291384312E+03 -0.17716552528E+03  0.28199045768E+03  0.00000000000E+00 0.  1.
         13    1    5    5    0    0 -0.27739723726E+03  0.92510849664E+02  0.62023967729E+02  0.29892215896E+03  0.00000000000E+00 0.  1.
        -13    1    5    5    0    0 -0.10024024897E+03  0.19948668255E+02 -0.30791735633E+02  0.10674356122E+03  0.00000000000E+00 0. -1.
          2    1    6    6  503    0  0.90117013302E+02  0.81947692191E+02 -0.40168592515E+01  0.12187138918E+03  0.00000000000E+00 0. -1.
         -2    1    6    6    0  503  0.42830508009E+03  0.15853049893E+03 -0.26497446242E+01  0.45671017272E+03  0.00000000000E+00 0.  1.
<mgrwt>
<rscale>  0 0.14226524E+04</rscale>
<asrwt>0</asrwt>
<pdfrwt beam="1">  1        2 0.12731969E+00 0.14226524E+04</pdfrwt>
<pdfrwt beam="2">  1       -1 0.94062245E-01 0.14226524E+04</pdfrwt>
<totfact> 0.39991462E+01</totfact>
</mgrwt>
</event>
<event>
12    7  0.1701638E-007  0.1320685E+04  0.7818608E-02  0.9013320E-01
          2   -1    0    0  501    0  0.00000000000E+00  0.00000000000E+00  0.23452691197E+04  0.23452691197E+04  0.00000000000E+00 0. -1.
         -1   -1    0    0    0  501 -0.00000000000E+00 -0.00000000000E+00 -0.18592852964E+03  0.18592852964E+03  0.00000000000E+00 0.  1.
         24    2    1    2    0    0  0.45165481211E+02  0.73777737767E+02 -0.65846904216E+02  0.13554209543E+03  0.80949178841E+02 0.  0.
        254    2    1    2    0    0 -0.45165481211E+02 -0.73777737767E+02  0.22251874943E+04  0.23956555540E+04  0.88330236786E+03 0.  0.
         23    2    4    4    0    0 -0.17870380843E+03  0.27187593596E+03  0.36685092594E+03  0.49852594404E+03  0.89982994583E+02 0.  0.
         23    2    4    4    0    0  0.13353832722E+03 -0.34565367373E+03  0.18583365684E+04  0.18971296099E+04  0.91525998970E+02 0.  0.
          2    1    3    3  502    0  0.83403394926E+01  0.25116164251E+02  0.17878022901E+02  0.31937543305E+02  0.00000000000E+00 0. -1.
         -1    1    3    3    0  502  0.36825141719E+02  0.48661573516E+02 -0.83724927117E+02  0.10360455212E+03  0.00000000000E+00 0.  1.
         13    1    5    5    0    0 -0.18170408553E+03  0.27522242186E+03  0.34922146999E+03  0.48033258405E+03  0.00000000000E+00 0.  1.
        -13    1    5    5    0    0  0.30002771025E+01 -0.33464859065E+01  0.17629455947E+02  0.18193359986E+02  0.00000000000E+00 0. -1.
          3    1    6    6  503    0  0.77447881509E+02 -0.11670775589E+03  0.53903143030E+03  0.55693245325E+03  0.00000000000E+00 0. -1.
         -3    1    6    6    0  503  0.56090445709E+02 -0.22894591784E+03  0.13193051381E+04  0.13401971567E+04  0.00000000000E+00 0.  1.
<mgrwt>
<rscale>  0 0.13206853E+04</rscale>
<asrwt>0</asrwt>
<pdfrwt beam="1">  1        2 0.36081061E+00 0.13206853E+04</pdfrwt>
<pdfrwt beam="2">  1       -1 0.28604391E-01 0.13206853E+04</pdfrwt>
<totfact> 0.52997839E+01</totfact>
</mgrwt>
</event>
<event>
12    7  0.1701638E-007  0.1744009E+04  0.7818608E-02  0.8736655E-01
         -1   -1    0    0    0  501 -0.00000000000E+00  0.00000000000E+00  0.52444433195E+03  0.52444433195E+03  0.00000000000E+00 0.  1.
          2   -1    0    0  501    0  0.00000000000E+00 -0.00000000000E+00 -0.14499003101E+04  0.14499003101E+04  0.00000000000E+00 0. -1.
         24    2    1    2    0    0  0.51045760030E+03  0.45765821345E+02 -0.48881932324E+02  0.52104705962E+03  0.80244145761E+02 0.  0.
        254    2    1    2    0    0 -0.51045760030E+03 -0.45765821345E+02 -0.87657404582E+03  0.14532975824E+04  0.10397260857E+04 0.  0.
         23    2    4    4    0    0 -0.27192724735E+03  0.43515051653E+02 -0.10780041569E+04  0.11164820520E+04  0.92742776572E+02 0.  0.
         23    2    4    4    0    0 -0.23853035295E+03 -0.89280872998E+02  0.20143011109E+03  0.33681553041E+03  0.89458416654E+02 0.  0.
          4    1    3    3  502    0  0.63865521245E+02  0.24888872814E+01 -0.33355833318E+02  0.72094458734E+02  0.00000000000E+00 0. -1.
         -3    1    3    3    0  502  0.44659207905E+03  0.43276934063E+02 -0.15526099005E+02  0.44895260089E+03  0.00000000000E+00 0.  1.
         13    1    5    5    0    0 -0.17951920565E+03 -0.34100738650E+01 -0.79700279874E+03  0.81697749969E+03  0.00000000000E+00 0. -1.
        -13    1    5    5    0    0 -0.92408041694E+02  0.46925125518E+02 -0.28100135816E+03  0.29950455233E+03  0.00000000000E+00 0.  1.
          3    1    6    6  503    0 -0.29930140021E+02 -0.48430650795E+02  0.34802301533E+02  0.66727366275E+02  0.00000000000E+00 0.  1.
         -3    1    6    6    0  503 -0.20860021293E+03 -0.40850222204E+02  0.16662780955E+03  0.27008816413E+03  0.00000000000E+00 0. -1.
<mgrwt>
<rscale>  0 0.17440092E+04</rscale>
<asrwt>0</asrwt>
<pdfrwt beam="1">  1        2 0.22306158E+00 0.17440092E+04</pdfrwt>
<pdfrwt beam="2">  1       -1 0.80683746E-01 0.17440092E+04</pdfrwt>
<totfact> 0.22433207E+01</totfact>
</mgrwt>
</event>
<event>
12    7  0.1701638E-007  0.1477344E+04  0.7818608E-02  0.8899660E-01
         -1   -1    0    0    0  501 -0.00000000000E+00  0.00000000000E+00  0.27846365925E+03  0.27846365925E+03  0.00000000000E+00 0.  1.
          2   -1    0    0  501    0  0.00000000000E+00 -0.00000000000E+00 -0.19594535828E+04  0.19594535828E+04  0.00000000000E+00 0. -1.
         24    2    1    2    0    0  0.45743330039E+02 -0.29008225262E+03 -0.24312566811E+01  0.30437217093E+03  0.79977133624E+02 0.  0.
        254    2    1    2    0    0 -0.45743330039E+02  0.29008225262E+03 -0.16785586668E+04  0.19335450711E+04  0.91367235833E+03 0.  0.
         23    2    4    4    0    0 -0.15008141618E+03  0.18204064651E+03 -0.17317160453E+04  0.17501631476E+04  0.92559997001E+02 0.  0.
         23    2    4    4    0    0  0.10433808614E+03  0.10804160610E+03  0.53157378453E+02  0.18338192354E+03  0.90795364019E+02 0.  0.
          4    1    3    3  502    0  0.28062063188E+02 -0.12020403783E+03 -0.39495586529E+02  0.12960089296E+03  0.00000000000E+00 0. -1.
         -3    1    3    3    0  502  0.17681266851E+02 -0.16987821479E+03  0.37064329848E+02  0.17477127797E+03  0.00000000000E+00 0.  1.
         13    1    5    5    0    0 -0.13472024870E+03  0.17360023904E+03 -0.13272482113E+04  0.13453157260E+04  0.00000000000E+00 0. -1.
        -13    1    5    5    0    0 -0.15361167483E+02  0.84404074733E+01 -0.40446783402E+03  0.40484742151E+03  0.00000000000E+00 0.  1.
          1    1    6    6  503    0  0.11683944011E+03  0.10575363791E+03  0.35356262153E+02  0.16150960334E+03  0.00000000000E+00 0. -1.
         -1    1    6    6    0  503 -0.12501353968E+02  0.22879681928E+01  0.17801116300E+02  0.21872320202E+02  0.00000000000E+00 0.  1.
<mgrwt>
<rscale>  0 0.14773444E+04</rscale>
<asrwt>0</asrwt>
<pdfrwt beam="1">  1        2 0.30145441E+00 0.14773444E+04</pdfrwt>
<pdfrwt beam="2">  1       -1 0.42840562E-01 0.14773444E+04</pdfrwt>
<totfact> 0.41653945E+01</totfact>
</mgrwt>
</event>
<event>
12    7  0.1701638E-007  0.1782834E+04  0.7818608E-02  0.8715482E-01
         -1   -1    0    0    0  501 -0.00000000000E+00  0.00000000000E+00  0.27826293789E+03  0.27826293789E+03  0.00000000000E+00 0.  1.
          2   -1    0    0  501    0  0.00000000000E+00 -0.00000000000E+00 -0.28556608340E+04  0.28556608340E+04  0.00000000000E+00 0. -1.
         24    2    1    2    0    0 -0.48558038105E+03  0.33507848727E+03 -0.43405766584E+03  0.73674663261E+03  0.79521344888E+02 0.  0.
        254    2    1    2    0    0  0.48558038105E+03 -0.33507848727E+03 -0.21433402303E+04  0.23971771393E+04  0.89693087547E+03 0.  0.
         23    2    4    4    0    0  0.52453888562E+03 -0.22490890017E+03 -0.55486560936E+03  0.80170477176E+03  0.95549153394E+02 0.  0.
         23    2    4    4    0    0 -0.38958504570E+02 -0.11016958710E+03 -0.15884746209E+04  0.15954723675E+04  0.92872769365E+02 0.  0.
          4    1    3    3  502    0 -0.43131994635E+02  0.59589726358E+02 -0.43642788743E+02  0.85533604261E+02  0.00000000000E+00 0. -1.
         -3    1    3    3    0  502 -0.44244838641E+03  0.27548876091E+03 -0.39041487710E+03  0.65121302835E+03  0.00000000000E+00 0.  1.
         13    1    5    5    0    0  0.25079393315E+03 -0.66576994170E+02 -0.29058849099E+03  0.38957895753E+03  0.00000000000E+00 0. -1.
        -13    1    5    5    0    0  0.27374495247E+03 -0.15833190600E+03 -0.26427711837E+03  0.41212581423E+03  0.00000000000E+00 0.  1.
          1    1    6    6  503    0 -0.40636264085E+02 -0.11570131076E+03 -0.10760428775E+04  0.10830080210E+04  0.00000000000E+00 0. -1.
         -1    1    6    6    0  503  0.16777595143E+01  0.55317236609E+01 -0.51243174337E+03  0.51246434652E+03  0.00000000000E+00 0.  1.
<mgrwt>
<rscale>  0 0.17828343E+04</rscale>
<asrwt>0</asrwt>
<pdfrwt beam="1">  1        2 0.43933243E+00 0.17828343E+04</pdfrwt>
<pdfrwt beam="2">  1       -1 0.42809684E-01 0.17828343E+04</pdfrwt>
<totfact> 0.12410642E+01</totfact>
</mgrwt>
</event>
<event>
12    7  0.1701638E-007  0.1763332E+04  0.7818608E-02  0.8726046E-01
         -1   -1    0    0    0  501 -0.00000000000E+00  0.00000000000E+00  0.31768405473E+03  0.31768405473E+03  0.00000000000E+00 0.  1.
          2   -1    0    0  501    0  0.00000000000E+00 -0.00000000000E+00 -0.24468815723E+04  0.24468815723E+04  0.00000000000E+00 0. -1.
         24    2    1    2    0    0 -0.42823583483E+03  0.44978469404E+02 -0.27648168257E+02  0.43876206210E+03  0.79616160366E+02 0.  0.
        254    2    1    2    0    0  0.42823583483E+03 -0.44978469404E+02 -0.21015493493E+04  0.23258035650E+04  0.89857863433E+03 0.  0.
         23    2    4    4    0    0 -0.26992083254E+03 -0.31732174557E+01 -0.70167496703E+03  0.75827420504E+03  0.98816423348E+02 0.  0.
         23    2    4    4    0    0  0.69815666737E+03 -0.41805251948E+02 -0.13998743823E+04  0.15675293599E+04  0.91266623999E+02 0.  0.
          4    1    3    3  502    0 -0.20233399700E+03  0.59590984164E+02 -0.24707606355E+02  0.21236901268E+03  0.00000000000E+00 0. -1.
         -3    1    3    3    0  502 -0.22590183783E+03 -0.14612514760E+02 -0.29405619025E+01  0.22639304942E+03  0.00000000000E+00 0.  1.
         13    1    5    5    0    0  0.58230863665E+01 -0.60702331911E+01 -0.49283639987E+02  0.49996332227E+02  0.00000000000E+00 0.  1.
        -13    1    5    5    0    0 -0.27574391890E+03  0.28970157354E+01 -0.65239132705E+03  0.70827787282E+03  0.00000000000E+00 0. -1.
          2    1    6    6  503    0  0.38964546040E+03 -0.30547996066E+02 -0.88020973313E+03  0.96308148106E+03  0.00000000000E+00 0.  1.
         -2    1    6    6    0  503  0.30851120697E+03 -0.11257255882E+02 -0.51966464918E+03  0.60444787884E+03  0.00000000000E+00 0. -1.
<mgrwt>
<rscale>  0 0.17633324E+04</rscale>
<asrwt>0</asrwt>
<pdfrwt beam="1">  1        2 0.37644331E+00 0.17633324E+04</pdfrwt>
<pdfrwt beam="2">  1       -1 0.48874471E-01 0.17633324E+04</pdfrwt>
<totfact> 0.16903127E+01</totfact>
</mgrwt>
</event>
<event>
12    7  0.1701638E-007  0.1219433E+04  0.7818608E-02  0.9096015E-01
         -3   -1    0    0    0  501 -0.00000000000E+00  0.00000000000E+00  0.32854474148E+03  0.32854474148E+03  0.00000000000E+00 0.  1.
          2   -1    0    0  501    0  0.00000000000E+00 -0.00000000000E+00 -0.11315174108E+04  0.11315174108E+04  0.00000000000E+00 0. -1.
         24    2    1    2    0    0 -0.26331202050E+03 -0.44421995202E+02 -0.13375647995E+03  0.30947794162E+03  0.81112678565E+02 0.  0.
        254    2    1    2    0    0  0.26331202050E+03  0.44421995202E+02 -0.66921618933E+03  0.11505842106E+04  0.89704357970E+03 0.  0.
         23    2    4    4    0    0  0.58650426801E+03  0.76785985640E+02 -0.44577699414E+03  0.74620560343E+03  0.90677064880E+02 0.  0.
         23    2    4    4    0    0 -0.32319224751E+03 -0.32363990438E+02 -0.22343919519E+03  0.40437860719E+03  0.89979593674E+02 0.  0.
          4    1    3    3  502    0 -0.26594536216E+02 -0.15723903897E+02  0.82073547464E+01  0.31966719917E+02  0.00000000000E+00 0. -1.
         -3    1    3    3    0  502 -0.23671748428E+03 -0.28698091304E+02 -0.14196383469E+03  0.27751122170E+03  0.00000000000E+00 0.  1.
         13    1    5    5    0    0  0.18979242091E+03 -0.65322456210E+01 -0.17871406897E+03  0.26077298885E+03  0.00000000000E+00 0. -1.
        -13    1    5    5    0    0  0.39671184710E+03  0.83318231261E+02 -0.26706292517E+03  0.48543261457E+03  0.00000000000E+00 0.  1.
          4    1    6    6  503    0 -0.13667537640E+03  0.30825314948E+02 -0.92027716485E+02  0.16762893294E+03  0.00000000000E+00 0. -1.
         -4    1    6    6    0  503 -0.18651687111E+03 -0.63189305386E+02 -0.13141147870E+03  0.23674967425E+03  0.00000000000E+00 0.  1.
<mgrwt>
<rscale>  0 0.12194328E+04</rscale>
<asrwt>0</asrwt>
<pdfrwt beam="1">  1        2 0.17407960E+00 0.12194328E+04</pdfrwt>
<pdfrwt beam="2">  1       -3 0.50545346E-01 0.12194328E+04</pdfrwt>
<totfact> 0.50850602E+01</totfact>
</mgrwt>
</event>
<event>
12    7  0.1701638E-007  0.1523050E+04  0.7818608E-02  0.8869268E-01
         -1   -1    0    0    0  501 -0.00000000000E+00  0.00000000000E+00  0.38434353105E+03  0.38434353105E+03  0.00000000000E+00 0.  1.
          2   -1    0    0  501    0  0.00000000000E+00 -0.00000000000E+00 -0.15088598787E+04  0.15088598787E+04  0.00000000000E+00 0. -1.
         24    2    1    2    0    0  0.41074364869E+03 -0.12970135501E+03 -0.25120775031E+03  0.50500424315E+03  0.79944764378E+02 0.  0.
        254    2    1    2    0    0 -0.41074364869E+03  0.12970135501E+03 -0.87330859738E+03  0.13881991667E+04  0.98939185039E+03 0.  0.
         23    2    4    4    0    0  0.35074705587E+02  0.99177568735E+02  0.18706212659E+03  0.23373348546E+03  0.92588756933E+02 0.  0.
         23    2    4    4    0    0 -0.44581835428E+03  0.30523786278E+02 -0.10603707240E+04  0.11544656812E+04  0.93376818597E+02 0.  0.
          4    1    3    3  502    0  0.23689256576E+03 -0.89572660487E+02 -0.18914235120E+03  0.31609520439E+03  0.00000000000E+00 0. -1.
         -3    1    3    3    0  502  0.17385108292E+03 -0.40128694525E+02 -0.62065399118E+02  0.18890903876E+03  0.00000000000E+00 0.  1.
         13    1    5    5    0    0 -0.24331241799E+02  0.69633567948E+02  0.96040785079E+02  0.12109779317E+03  0.00000000000E+00 0.  1.
        -13    1    5    5    0    0  0.59405947387E+02  0.29544000787E+02  0.91021341512E+02  0.11263569229E+03  0.00000000000E+00 0. -1.
          1    1    6    6  503    0 -0.32510324023E+03 -0.43222868539E+00 -0.84866409862E+03  0.90880308974E+03  0.00000000000E+00 0. -1.
         -1    1    6    6    0  503 -0.12071511404E+03  0.30956014963E+02 -0.21170662535E+03  0.24566259145E+03  0.00000000000E+00 0.  1.
<mgrwt>
<rscale>  0 0.15230503E+04</rscale>
<asrwt>0</asrwt>
<pdfrwt beam="1">  1        2 0.23213229E+00 0.15230503E+04</pdfrwt>
<pdfrwt beam="2">  1       -1 0.59129774E-01 0.15230503E+04</pdfrwt>
<totfact> 0.39981367E+01</totfact>
</mgrwt>
</event>
<event>
12    7  0.1701638E-007  0.2638489E+04  0.7818608E-02  0.8355244E-01
         -1   -1    0    0    0  501 -0.00000000000E+00  0.00000000000E+00  0.12723756725E+04  0.12723756725E+04  0.00000000000E+00 0.  1.
          2   -1    0    0  501    0  0.00000000000E+00 -0.00000000000E+00 -0.13678399603E+04  0.13678399603E+04  0.00000000000E+00 0. -1.
         24    2    1    2    0    0  0.62332978100E+03 -0.81730314652E+03  0.50541538661E+03  0.11481462243E+04  0.79187058416E+02 0.  0.
        254    2    1    2    0    0 -0.62332978100E+03  0.81730314652E+03 -0.60087967434E+03  0.14920694085E+04  0.89927208757E+03 0.  0.
         23    2    4    4    0    0 -0.13722111246E+03  0.54021020422E+03 -0.71772942429E+03  0.91337025331E+03  0.91940169074E+02 0.  0.
         23    2    4    4    0    0 -0.48610866855E+03  0.27709294230E+03  0.11684974995E+03  0.57869915517E+03  0.90314516128E+02 0.  0.
          4    1    3    3  502    0  0.25600528286E+03 -0.34202044559E+03  0.16705615863E+03  0.45872044885E+03  0.00000000000E+00 0. -1.
         -3    1    3    3    0  502  0.36732449814E+03 -0.47528270093E+03  0.33835922798E+03  0.68942577548E+03  0.00000000000E+00 0.  1.
         13    1    5    5    0    0 -0.47696064525E+02  0.71681651272E+02 -0.85073356711E+02  0.12103986832E+03  0.00000000000E+00 0. -1.
        -13    1    5    5    0    0 -0.89525047932E+02  0.46852855295E+03 -0.63265606758E+03  0.79233038500E+03  0.00000000000E+00 0.  1.
          1    1    6    6  503    0 -0.11111989674E+02 -0.58685616923E+01 -0.31054873472E+01  0.12944511675E+02  0.00000000000E+00 0. -1.
         -1    1    6    6    0  503 -0.47499667887E+03  0.28296150399E+03  0.11995523730E+03  0.56575464349E+03  0.00000000000E+00 0.  1.
<mgrwt>
<rscale>  0 0.26384892E+04</rscale>
<asrwt>0</asrwt>
<pdfrwt beam="1">  1        2 0.21043692E+00 0.26384892E+04</pdfrwt>
<pdfrwt beam="2">  1       -1 0.19575010E+00 0.26384892E+04</pdfrwt>
<totfact> 0.24430537E+00</totfact>
</mgrwt>
</event>
<event>
12    7  0.1701638E-007  0.1988894E+04  0.7818608E-02  0.8611831E-01
          2   -1    0    0  501    0  0.00000000000E+00  0.00000000000E+00  0.61484585472E+03  0.61484585472E+03  0.00000000000E+00 0. -1.
         -1   -1    0    0    0  501 -0.00000000000E+00 -0.00000000000E+00 -0.16084116639E+04  0.16084116639E+04  0.00000000000E+00 0.  1.
         24    2    1    2    0    0 -0.32694862259E+03 -0.70389039816E+03 -0.54923752136E+03  0.95432132831E+03  0.81916105683E+02 0.  0.
        254    2    1    2    0    0  0.32694862259E+03  0.70389039816E+03 -0.44432828784E+03  0.12689361903E+04  0.90023015573E+03 0.  0.
         23    2    4    4    0    0  0.16521546374E+03 -0.12313816589E+03  0.11404791724E+03  0.25374679950E+03  0.94452916706E+02 0.  0.
         23    2    4    4    0    0  0.16173315885E+03  0.82702856405E+03 -0.55837620508E+03  0.10151893908E+04  0.93229031956E+02 0.  0.
          4    1    3    3  502    0 -0.19258396473E+03 -0.43290691260E+03 -0.38253596586E+03  0.60895873721E+03  0.00000000000E+00 0. -1.
         -1    1    3    3    0  502 -0.13436465786E+03 -0.27098348557E+03 -0.16670155550E+03  0.34536259111E+03  0.00000000000E+00 0.  1.
         13    1    5    5    0    0  0.14296174916E+03 -0.57215557216E+02  0.97403340306E+02  0.18220618105E+03  0.00000000000E+00 0.  1.
        -13    1    5    5    0    0  0.22253714575E+02 -0.65922608675E+02  0.16644576933E+02  0.71540618450E+02  0.00000000000E+00 0. -1.
          4    1    6    6  503    0  0.14602702672E+03  0.51342751850E+03 -0.34614605908E+03  0.63619871385E+03  0.00000000000E+00 0. -1.
         -4    1    6    6    0  503  0.15706132127E+02  0.31360104555E+03 -0.21223014600E+03  0.37899067697E+03  0.00000000000E+00 0.  1.
<mgrwt>
<rscale>  0 0.19888944E+04</rscale>
<asrwt>0</asrwt>
<pdfrwt beam="1">  1        2 0.94591671E-01 0.19888944E+04</pdfrwt>
<pdfrwt beam="2">  1       -1 0.24744795E+00 0.19888944E+04</pdfrwt>
<totfact> 0.37037955E+00</totfact>
</mgrwt>
</event>
<event>
12    7  0.1701638E-007  0.1418116E+04  0.7818608E-02  0.8940809E-01
         -1   -1    0    0    0  501 -0.00000000000E+00  0.00000000000E+00  0.20668430260E+03  0.20668430260E+03  0.00000000000E+00 0.  1.
          2   -1    0    0  501    0  0.00000000000E+00 -0.00000000000E+00 -0.24325185238E+04  0.24325185238E+04  0.00000000000E+00 0. -1.
         24    2    1    2    0    0 -0.29606206809E+03 -0.24215433925E+03 -0.33354459802E+03  0.51372453763E+03  0.79808705787E+02 0.  0.
        254    2    1    2    0    0  0.29606206809E+03  0.24215433925E+03 -0.18922896231E+04  0.21254782887E+04  0.88916053997E+03 0.  0.
         23    2    4    4    0    0 -0.26811052756E+03  0.25491735593E+03 -0.57524069613E+03  0.68982693145E+03  0.89962345025E+02 0.  0.
         23    2    4    4    0    0  0.56417259565E+03 -0.12763016679E+02 -0.13170489270E+04  0.14356513573E+04  0.89573049893E+02 0.  0.
          4    1    3    3  502    0 -0.18424938169E+03 -0.15642128598E+03 -0.25925481263E+03  0.35444112520E+03  0.00000000000E+00 0. -1.
         -3    1    3    3    0  502 -0.11181268640E+03 -0.85733053266E+02 -0.74289785384E+02  0.15928341243E+03  0.00000000000E+00 0.  1.
         13    1    5    5    0    0 -0.11118010530E+03  0.62205640690E+02 -0.14545793255E+03  0.19336123626E+03  0.00000000000E+00 0. -1.
        -13    1    5    5    0    0 -0.15693042226E+03  0.19271171524E+03 -0.42978276359E+03  0.49646569518E+03  0.00000000000E+00 0.  1.
          1    1    6    6  503    0  0.18169221255E+03  0.32803871677E+02 -0.47775688058E+03  0.51219116650E+03  0.00000000000E+00 0. -1.
         -1    1    6    6    0  503  0.38248038309E+03 -0.45566888356E+02 -0.83929204642E+03  0.92346019078E+03  0.00000000000E+00 0.  1.
<mgrwt>
<rscale>  0 0.14181162E+04</rscale>
<asrwt>0</asrwt>
<pdfrwt beam="1">  1        2 0.37423363E+00 0.14181162E+04</pdfrwt>
<pdfrwt beam="2">  1       -1 0.31797584E-01 0.14181162E+04</pdfrwt>
<totfact> 0.38934951E+01</totfact>
</mgrwt>
</event>
<event>
12    7  0.1701638E-007  0.1310268E+04  0.7818608E-02  0.9021462E-01
          2   -1    0    0  501    0  0.00000000000E+00  0.00000000000E+00  0.11175819312E+04  0.11175819312E+04  0.00000000000E+00 0. -1.
         -1   -1    0    0    0  501 -0.00000000000E+00 -0.00000000000E+00 -0.38404412607E+03  0.38404412607E+03  0.00000000000E+00 0.  1.
         24    2    1    2    0    0  0.20822431801E+03  0.20584726735E+03  0.21359784397E+03  0.37223867368E+03  0.84894800475E+02 0.  0.
        254    2    1    2    0    0 -0.20822431801E+03 -0.20584726735E+03  0.51993996115E+03  0.11293873836E+04  0.95887842552E+03 0.  0.
         23    2    4    4    0    0 -0.44306648770E+03 -0.41042035793E+03  0.52857015079E+03  0.80767289903E+03  0.90533556168E+02 0.  0.
         23    2    4    4    0    0  0.23484216969E+03  0.20457309058E+03 -0.86301896424E+01  0.32171448456E+03  0.80154446858E+02 0.  0.
          2    1    3    3  502    0  0.33164294451E+02  0.74290162678E+02  0.30814937728E+02  0.86996891234E+02  0.00000000000E+00 0. -1.
         -1    1    3    3    0  502  0.17506002356E+03  0.13155710467E+03  0.18278290624E+03  0.28524178245E+03  0.00000000000E+00 0.  1.
         13    1    5    5    0    0 -0.42985616494E+03 -0.41251479562E+03  0.50703935351E+03  0.78232581777E+03  0.00000000000E+00 0. -1.
        -13    1    5    5    0    0 -0.13210322760E+02  0.20944376924E+01  0.21530797285E+02  0.25347081260E+02  0.00000000000E+00 0.  1.
          3    1    6    6  503    0  0.20751111942E+03  0.14359829988E+03 -0.22897489745E+02  0.25338830172E+03  0.00000000000E+00 0. -1.
         -3    1    6    6    0  503  0.27331050267E+02  0.60974790702E+02  0.14267300102E+02  0.68326182844E+02  0.00000000000E+00 0.  1.
<mgrwt>
<rscale>  0 0.13102683E+04</rscale>
<asrwt>0</asrwt>
<pdfrwt beam="1">  1        2 0.17193568E+00 0.13102683E+04</pdfrwt>
<pdfrwt beam="2">  1       -1 0.59083712E-01 0.13102683E+04</pdfrwt>
<totfact> 0.68917141E+01</totfact>
</mgrwt>
</event>
<event>
12    7  0.1701638E-007  0.1561877E+04  0.7818608E-02  0.8844317E-01
          2   -1    0    0  501    0  0.00000000000E+00  0.00000000000E+00  0.99166047752E+03  0.99166047752E+03  0.00000000000E+00 0. -1.
         -1   -1    0    0    0  501 -0.00000000000E+00 -0.00000000000E+00 -0.61499334035E+03  0.61499334035E+03  0.00000000000E+00 0.  1.
         24    2    1    2    0    0  0.45410421617E+03  0.19381845715E+03 -0.39834407129E+02  0.50179704217E+03  0.80232525019E+02 0.  0.
        254    2    1    2    0    0 -0.45410421617E+03 -0.19381845715E+03  0.41650154431E+03  0.11048567757E+04  0.89635859170E+03 0.  0.
         23    2    4    4    0    0 -0.65953547677E+03 -0.22571642697E+03  0.49995330504E+03  0.86266916914E+03  0.91158310882E+02 0.  0.
         23    2    4    4    0    0  0.20543126060E+03  0.31897969823E+02 -0.83451760734E+02  0.24218760655E+03  0.92038888981E+02 0.  0.
          2    1    3    3  502    0 -0.39774607142E+00 -0.13833276659E+01  0.49230412774E+01  0.51291454247E+01  0.00000000000E+00 0. -1.
         -3    1    3    3    0  502  0.45450196224E+03  0.19520178482E+03 -0.44757448407E+02  0.49666789675E+03  0.00000000000E+00 0.  1.
         13    1    5    5    0    0 -0.21508767441E+03 -0.10908634565E+03  0.20617690672E+03  0.31728765396E+03  0.00000000000E+00 0.  1.
        -13    1    5    5    0    0 -0.44444780236E+03 -0.11663008133E+03  0.29377639832E+03  0.54538151519E+03  0.00000000000E+00 0. -1.
          1    1    6    6  503    0  0.21481722051E+03  0.29885370695E+02 -0.75274420210E+02  0.22957746394E+03  0.00000000000E+00 0. -1.
         -1    1    6    6    0  503 -0.93859599086E+01  0.20125991278E+01 -0.81773405242E+01  0.12610142612E+02  0.00000000000E+00 0.  1.
<mgrwt>
<rscale>  0 0.15618766E+04</rscale>
<asrwt>0</asrwt>
<pdfrwt beam="1">  1        2 0.15256315E+00 0.15618766E+04</pdfrwt>
<pdfrwt beam="2">  1       -1 0.94614360E-01 0.15618766E+04</pdfrwt>
<totfact> 0.30245484E+01</totfact>
</mgrwt>
</event>
<event>
12    7  0.1701638E-007  0.2047530E+04  0.7818608E-02  0.8584716E-01
          2   -1    0    0  501    0  0.00000000000E+00  0.00000000000E+00  0.14835639741E+04  0.14835639741E+04  0.00000000000E+00 0. -1.
         -1   -1    0    0    0  501 -0.00000000000E+00 -0.00000000000E+00 -0.70647086124E+03  0.70647086124E+03  0.00000000000E+00 0.  1.
         24    2    1    2    0    0  0.24966319043E+03 -0.54143141439E+03 -0.28808374225E+03  0.66699580675E+03  0.80071708720E+02 0.  0.
        254    2    1    2    0    0 -0.24966319043E+03  0.54143141439E+03  0.10651768551E+04  0.15230390285E+04  0.91080539346E+03 0.  0.
         23    2    4    4    0    0 -0.18873116594E+03  0.33404527703E+03  0.11925080444E+04  0.12561231557E+04  0.92543213030E+02 0.  0.
         23    2    4    4    0    0 -0.60932024488E+02  0.20738613736E+03 -0.12733118932E+03  0.26691587284E+03  0.91154428432E+02 0.  0.
          4    1    3    3  502    0  0.49159040026E+01 -0.63966841775E+01 -0.17766508274E+02  0.19512367793E+02  0.00000000000E+00 0. -1.
         -3    1    3    3    0  502  0.24474728642E+03 -0.53503473021E+03 -0.27031723398E+03  0.64748343896E+03  0.00000000000E+00 0.  1.
         13    1    5    5    0    0 -0.16903726440E+03  0.28264072959E+03  0.11023006741E+04  0.11504460678E+04  0.00000000000E+00 0.  1.
        -13    1    5    5    0    0 -0.19693901539E+02  0.51404547445E+02  0.90207370255E+02  0.10567708789E+03  0.00000000000E+00 0. -1.
          4    1    6    6  503    0  0.40405777298E+01  0.65656068870E+01  0.11814967240E+02  0.14107689856E+02  0.00000000000E+00 0. -1.
         -4    1    6    6    0  503 -0.64972602218E+02  0.20082053047E+03 -0.13914615656E+03  0.25280818298E+03  0.00000000000E+00 0.  1.
<mgrwt>
<rscale>  0 0.20475299E+04</rscale>
<asrwt>0</asrwt>
<pdfrwt beam="1">  1        2 0.22824061E+00 0.20475299E+04</pdfrwt>
<pdfrwt beam="2">  1       -1 0.10868783E+00 0.20475299E+04</pdfrwt>
<totfact> 0.10737145E+01</totfact>
</mgrwt>
</event>
<event>
12    7  0.1701638E-007  0.1332760E+04  0.7818608E-02  0.9003982E-01
          2   -1    0    0  501    0  0.00000000000E+00  0.00000000000E+00  0.34845114725E+04  0.34845114725E+04  0.00000000000E+00 0. -1.
         -1   -1    0    0    0  501 -0.00000000000E+00 -0.00000000000E+00 -0.12743883213E+03  0.12743883213E+03  0.00000000000E+00 0.  1.
         24    2    1    2    0    0 -0.32631120445E+03 -0.11204392986E+03  0.67866609419E+03  0.76547236597E+03  0.79545152577E+02 0.  0.
        254    2    1    2    0    0  0.32631120445E+03  0.11204392986E+03  0.26784065462E+04  0.28464779387E+04  0.89974562198E+03 0.  0.
         23    2    4    4    0    0  0.37814360040E+03  0.19363640411E+03  0.26799546229E+04  0.27150154981E+04  0.93084557366E+02 0.  0.
         23    2    4    4    0    0 -0.51832395954E+02 -0.81592474253E+02 -0.15480767052E+01  0.13146244053E+03  0.89084496986E+02 0.  0.
          2    1    3    3  502    0 -0.22077970890E+03 -0.38529808007E+02  0.46247318119E+03  0.51391601385E+03  0.00000000000E+00 0. -1.
         -3    1    3    3    0  502 -0.10553149555E+03 -0.73514121850E+02  0.21619291300E+03  0.25155635213E+03  0.00000000000E+00 0.  1.
         13    1    5    5    0    0  0.55333177223E+02  0.53594537930E+02  0.67909785570E+03  0.68345302151E+03  0.00000000000E+00 0.  1.
        -13    1    5    5    0    0  0.32281042318E+03  0.14004186618E+03  0.20008567672E+04  0.20315624766E+04  0.00000000000E+00 0. -1.
          2    1    6    6  503    0 -0.64401359971E+02 -0.71025880863E+02 -0.28394612124E+02  0.99992324286E+02  0.00000000000E+00 0. -1.
         -2    1    6    6    0  503  0.12568964017E+02 -0.10566593391E+02  0.26846535419E+02  0.31470116243E+02  0.00000000000E+00 0.  1.
<mgrwt>
<rscale>  0 0.13327597E+04</rscale>
<asrwt>0</asrwt>
<pdfrwt beam="1">  1        2 0.53607862E+00 0.13327597E+04</pdfrwt>
<pdfrwt beam="2">  1       -1 0.19605977E-01 0.13327597E+04</pdfrwt>
<totfact> 0.20014584E+01</totfact>
</mgrwt>
</event>
<event>
12    7  0.1701638E-007  0.2213334E+04  0.7818608E-02  0.8512899E-01
         -1   -1    0    0    0  501 -0.00000000000E+00  0.00000000000E+00  0.64681045880E+03  0.64681045880E+03  0.00000000000E+00 0.  1.
          2   -1    0    0  501    0  0.00000000000E+00 -0.00000000000E+00 -0.18934628200E+04  0.18934628200E+04  0.00000000000E+00 0. -1.
         24    2    1    2    0    0  0.77948336711E+03 -0.28019742030E+03 -0.77856985398E+03  0.11390776368E+04  0.72262931704E+02 0.  0.
        254    2    1    2    0    0 -0.77948336711E+03  0.28019742030E+03 -0.46808250722E+03  0.14011956419E+04  0.10286608185E+04 0.  0.
         23    2    4    4    0    0 -0.51183074229E+03 -0.34144820309E+03 -0.11654916666E+03  0.63305725669E+03  0.92845020650E+02 0.  0.
         23    2    4    4    0    0 -0.26765262482E+03  0.62164562339E+03 -0.35153334056E+03  0.76813838525E+03  0.91540595996E+02 0.  0.
          2    1    3    3  502    0  0.63907505701E+03 -0.20202553996E+03 -0.64347856554E+03  0.92913718664E+03  0.00000000000E+00 0. -1.
         -1    1    3    3    0  502  0.14040831010E+03 -0.78171880345E+02 -0.13509128844E+03  0.20994045021E+03  0.00000000000E+00 0.  1.
         13    1    5    5    0    0 -0.18103006129E+03 -0.13972087057E+03 -0.79885615035E+00  0.22867978252E+03  0.00000000000E+00 0.  1.
        -13    1    5    5    0    0 -0.33080068099E+03 -0.20172733253E+03 -0.11575031051E+03  0.40437747417E+03  0.00000000000E+00 0. -1.
          2    1    6    6  503    0 -0.87815979999E+02  0.25015680108E+03 -0.92200125357E+02  0.28069722938E+03  0.00000000000E+00 0. -1.
         -2    1    6    6    0  503 -0.17983664482E+03  0.37148882232E+03 -0.25933321520E+03  0.48744115587E+03  0.00000000000E+00 0.  1.
<mgrwt>
<rscale>  0 0.22133337E+04</rscale>
<asrwt>0</asrwt>
<pdfrwt beam="1">  1        2 0.29130197E+00 0.22133337E+04</pdfrwt>
<pdfrwt beam="2">  1       -1 0.99509303E-01 0.22133337E+04</pdfrwt>
<totfact> 0.76711332E+00</totfact>
</mgrwt>
</event>
<event>
12    7  0.1701638E-007  0.1211097E+04  0.7818608E-02  0.9103199E-01
          2   -1    0    0  501    0  0.00000000000E+00  0.00000000000E+00  0.66758601942E+03  0.66758601942E+03  0.00000000000E+00 0. -1.
         -1   -1    0    0    0  501 -0.00000000000E+00 -0.00000000000E+00 -0.54927567963E+03  0.54927567963E+03  0.00000000000E+00 0.  1.
         24    2    1    2    0    0 -0.33507284289E+02 -0.76169194487E+02  0.25230618692E+03  0.27736871538E+03  0.79690074813E+02 0.  0.
        254    2    1    2    0    0  0.33507284289E+02  0.76169194487E+02 -0.13399584713E+03  0.93949298367E+03  0.92615748932E+03 0.  0.
         23    2    4    4    0    0 -0.38826771512E+03  0.90938953954E+02  0.13498639976E+03  0.43074855446E+03  0.91111344526E+02 0.  0.
         23    2    4    4    0    0  0.42177499941E+03 -0.14769759467E+02 -0.26898224689E+03  0.50874442921E+03  0.91417444675E+02 0.  0.
          2    1    3    3  502    0  0.39098901160E+01 -0.62553712280E+02  0.21050993521E+03  0.21964217943E+03  0.00000000000E+00 0. -1.
         -1    1    3    3    0  502 -0.37417174405E+02 -0.13615482207E+02  0.41796251711E+02  0.57726535954E+02  0.00000000000E+00 0.  1.
         13    1    5    5    0    0 -0.18170210814E+01  0.12259451187E+02  0.12938566335E+02  0.17916534481E+02  0.00000000000E+00 0. -1.
        -13    1    5    5    0    0 -0.38645069404E+03  0.78679502767E+02  0.12204783342E+03  0.41283201998E+03  0.00000000000E+00 0.  1.
          4    1    6    6  503    0  0.48528383343E+01 -0.59258295936E+01  0.55640284735E+01  0.94669904999E+01  0.00000000000E+00 0. -1.
         -4    1    6    6    0  503  0.41692216107E+03 -0.88439298734E+01 -0.27454627536E+03  0.49927743871E+03  0.00000000000E+00 0.  1.
<mgrwt>
<rscale>  0 0.12110966E+04</rscale>
<asrwt>0</asrwt>
<pdfrwt beam="1">  1        2 0.10270554E+00 0.12110966E+04</pdfrwt>
<pdfrwt beam="2">  1       -1 0.84503951E-01 0.12110966E+04</pdfrwt>
<totfact> 0.67967992E+01</totfact>
</mgrwt>
</event>
<event>
12    7  0.1701638E-007  0.1384846E+04  0.7818608E-02  0.8964862E-01
          2   -1    0    0  501    0  0.00000000000E+00  0.00000000000E+00  0.19871644076E+03  0.19871644076E+03  0.00000000000E+00 0. -1.
         -1   -1    0    0    0  501 -0.00000000000E+00 -0.00000000000E+00 -0.24127309908E+04  0.24127309908E+04  0.00000000000E+00 0.  1.
         24    2    1    2    0    0 -0.33029937659E+03 -0.15679382487E+02 -0.22772176217E+03  0.40932778084E+03  0.79677537557E+02 0.  0.
        254    2    1    2    0    0  0.33029937659E+03  0.15679382487E+02 -0.19862927879E+04  0.22021196508E+04  0.89141931535E+03 0.  0.
         23    2    4    4    0    0  0.61101356540E+03  0.82706055357E+02 -0.15584483163E+04  0.16784310232E+04  0.90507880362E+02 0.  0.
         23    2    4    4    0    0 -0.28071418881E+03 -0.67026672871E+02 -0.42784447164E+03  0.52368862758E+03  0.88914881029E+02 0.  0.
          4    1    3    3  502    0 -0.28963502676E+03  0.51424861206E+01 -0.21818872697E+03  0.36265853701E+03  0.00000000000E+00 0. -1.
         -3    1    3    3    0  502 -0.40664349833E+02 -0.20821868607E+02 -0.95330351958E+01  0.46669243830E+02  0.00000000000E+00 0.  1.
         13    1    5    5    0    0  0.51653227494E+03  0.42805881247E+02 -0.13511152836E+04  0.14471179786E+04  0.00000000000E+00 0. -1.
        -13    1    5    5    0    0  0.94481290458E+02  0.39900174110E+02 -0.20733303269E+03  0.23131304457E+03  0.00000000000E+00 0.  1.
          2    1    6    6  503    0 -0.13215231954E+03  0.13726105264E+02 -0.19236842325E+03  0.23379104300E+03  0.00000000000E+00 0. -1.
         -2    1    6    6    0  503 -0.14856186928E+03 -0.80752778134E+02 -0.23547604839E+03  0.28989758458E+03  0.00000000000E+00 0.  1.
<mgrwt>
<rscale>  0 0.13848456E+04</rscale>
<asrwt>0</asrwt>
<pdfrwt beam="1">  1        2 0.30571759E-01 0.13848456E+04</pdfrwt>
<pdfrwt beam="2">  1       -1 0.37118939E+00 0.13848456E+04</pdfrwt>
<totfact> 0.22027845E+00</totfact>
</mgrwt>
</event>
<event>
12    7  0.1701638E-007  0.3461737E+04  0.7818608E-02  0.8122918E-01
         -1   -1    0    0    0  501 -0.00000000000E+00  0.00000000000E+00  0.20679821282E+04  0.20679821282E+04  0.00000000000E+00 0.  1.
          2   -1    0    0  501    0  0.00000000000E+00 -0.00000000000E+00 -0.14487096517E+04  0.14487096517E+04  0.00000000000E+00 0. -1.
         24    2    1    2    0    0 -0.14134534424E+03 -0.92781996427E+03  0.16247605764E+04  0.18780452463E+04  0.79866289027E+02 0.  0.
        254    2    1    2    0    0  0.14134534424E+03  0.92781996427E+03 -0.10054880998E+04  0.16386465336E+04  0.89068948059E+03 0.  0.
         23    2    4    4    0    0  0.12918060776E+02  0.11057305141E+03 -0.75593178624E+03  0.76955134414E+03  0.91559433294E+02 0.  0.
         23    2    4    4    0    0  0.12842728346E+03  0.81724691286E+03 -0.24955631360E+03  0.86909518949E+03  0.93069925443E+02 0.  0.
          4    1    3    3  502    0 -0.44483510886E+02 -0.28187313582E+03  0.42305945516E+03  0.51030437000E+03  0.00000000000E+00 0. -1.
         -3    1    3    3    0  502 -0.96861833351E+02 -0.64594682845E+03  0.12017011212E+04  0.13677408763E+04  0.00000000000E+00 0.  1.
         13    1    5    5    0    0  0.38762648531E+02  0.10029942924E+03 -0.68453302673E+03  0.69292711240E+03  0.00000000000E+00 0.  1.
        -13    1    5    5    0    0 -0.25844587754E+02  0.10273622173E+02 -0.71398759517E+02  0.76624231737E+02  0.00000000000E+00 0. -1.
          3    1    6    6  503    0  0.18365326889E+02  0.16791270265E+03 -0.13421043137E+02  0.16944640847E+03  0.00000000000E+00 0. -1.
         -3    1    6    6    0  503  0.11006195657E+03  0.64933421021E+03 -0.23613527046E+03  0.69964878102E+03  0.00000000000E+00 0.  1.
<mgrwt>
<rscale>  0 0.34617369E+04</rscale>
<asrwt>0</asrwt>
<pdfrwt beam="1">  1        2 0.22287841E+00 0.34617369E+04</pdfrwt>
<pdfrwt beam="2">  1       -1 0.31815110E+00 0.34617369E+04</pdfrwt>
<totfact> 0.32050790E-01</totfact>
</mgrwt>
</event>
<event>
12    7  0.1701638E-007  0.2127944E+04  0.7818608E-02  0.8549033E-01
          2   -1    0    0  501    0  0.00000000000E+00  0.00000000000E+00  0.13763707174E+04  0.13763707174E+04  0.00000000000E+00 0. -1.
         -1   -1    0    0    0  501 -0.00000000000E+00 -0.00000000000E+00 -0.82247897753E+03  0.82247897753E+03  0.00000000000E+00 0.  1.
         24    2    1    2    0    0  0.44648110349E+03  0.70293991656E+03 -0.30722887102E+02  0.83710670233E+03  0.79585383214E+02 0.  0.
        254    2    1    2    0    0 -0.44648110349E+03 -0.70293991656E+03  0.58461462695E+03  0.13617429926E+04  0.90504133261E+03 0.  0.
         23    2    4    4    0    0 -0.66596710664E+03 -0.39343029114E+03  0.58000698326E+03  0.97115459217E+03  0.91834416963E+02 0.  0.
         23    2    4    4    0    0  0.21948600315E+03 -0.30950962542E+03  0.46076436915E+01  0.39058840042E+03  0.92562164790E+02 0.  0.
          2    1    3    3  502    0  0.84324940756E+02  0.15080887007E+03  0.24422555206E+02  0.17450063646E+03  0.00000000000E+00 0. -1.
         -1    1    3    3    0  502  0.36215616273E+03  0.55213104650E+03 -0.55145442307E+02  0.66260606586E+03  0.00000000000E+00 0.  1.
         13    1    5    5    0    0 -0.88036406692E+02 -0.71397267975E+02  0.52080033902E+02  0.12474096644E+03  0.00000000000E+00 0. -1.
        -13    1    5    5    0    0 -0.57793069995E+03 -0.32203302316E+03  0.52792694936E+03  0.84641362572E+03  0.00000000000E+00 0.  1.
          3    1    6    6  503    0  0.64268583915E+02 -0.43563965939E+02 -0.24174508655E+02  0.81318367393E+02  0.00000000000E+00 0. -1.
         -3    1    6    6    0  503  0.15521741924E+03 -0.26594565948E+03  0.28782152347E+02  0.30927003302E+03  0.00000000000E+00 0.  1.
<mgrwt>
<rscale>  0 0.21279436E+04</rscale>
<asrwt>0</asrwt>
<pdfrwt beam="1">  1        2 0.21174934E+00 0.21279436E+04</pdfrwt>
<pdfrwt beam="2">  1       -1 0.12653523E+00 0.21279436E+04</pdfrwt>
<totfact> 0.84920955E+00</totfact>
</mgrwt>
</event>
<event>
12    7  0.1701638E-007  0.1900714E+04  0.7818608E-02  0.8654501E-01
         -1   -1    0    0    0  501 -0.00000000000E+00  0.00000000000E+00  0.12857104961E+04  0.12857104961E+04  0.00000000000E+00 0.  1.
          2   -1    0    0  501    0  0.00000000000E+00 -0.00000000000E+00 -0.70247382947E+03  0.70247382947E+03  0.00000000000E+00 0. -1.
         24    2    1    2    0    0 -0.15530676276E+03  0.11198977664E+03 -0.51872147918E+03  0.55849240296E+03  0.78612279984E+02 0.  0.
        254    2    1    2    0    0  0.15530676276E+03 -0.11198977664E+03  0.11019581458E+04  0.14296919226E+04  0.89053093028E+03 0.  0.
         23    2    4    4    0    0 -0.14144423751E+02 -0.48175171367E+03  0.53014223850E+03  0.72182575380E+03  0.87731678745E+02 0.  0.
         23    2    4    4    0    0  0.16945118651E+03  0.36976193703E+03  0.57181590726E+03  0.70786616876E+03  0.93077851210E+02 0.  0.
          2    1    3    3  502    0 -0.14220901991E+03  0.11009125019E+03 -0.51381127794E+03  0.54437626514E+03  0.00000000000E+00 0. -1.
         -1    1    3    3    0  502 -0.13097742851E+02  0.18985264541E+01 -0.49102012371E+01  0.14116137810E+02  0.00000000000E+00 0.  1.
         13    1    5    5    0    0  0.19320096777E+02 -0.31509210122E+03  0.29815617538E+03  0.43422736361E+03  0.00000000000E+00 0. -1.
        -13    1    5    5    0    0 -0.33464520527E+02 -0.16665961246E+03  0.23198606313E+03  0.28759839019E+03  0.00000000000E+00 0.  1.
          1    1    6    6  503    0  0.10747581067E+03  0.18882829824E+03  0.37523809242E+03  0.43360212419E+03  0.00000000000E+00 0. -1.
         -1    1    6    6    0  503  0.61975375844E+02  0.18093363879E+03  0.19657781484E+03  0.27426404457E+03  0.00000000000E+00 0.  1.
<mgrwt>
<rscale>  0 0.19007135E+04</rscale>
<asrwt>0</asrwt>
<pdfrwt beam="1">  1        2 0.10807290E+00 0.19007135E+04</pdfrwt>
<pdfrwt beam="2">  1       -1 0.19780161E+00 0.19007135E+04</pdfrwt>
<totfact> 0.67970258E+00</totfact>
</mgrwt>
</event>
<event>
12    7  0.1701638E-007  0.1408155E+04  0.7818608E-02  0.8947936E-01
          2   -1    0    0  501    0  0.00000000000E+00  0.00000000000E+00  0.11805904151E+04  0.11805904151E+04  0.00000000000E+00 0. -1.
         -1   -1    0    0    0  501 -0.00000000000E+00 -0.00000000000E+00 -0.41989610081E+03  0.41989610081E+03  0.00000000000E+00 0.  1.
         24    2    1    2    0    0 -0.56873105474E+02 -0.25922560823E+03  0.54597584440E+03  0.61178247148E+03  0.75866353912E+02 0.  0.
        254    2    1    2    0    0  0.56873105474E+02  0.25922560823E+03  0.21471846992E+03  0.98870404445E+03  0.92790042575E+03 0.  0.
         23    2    4    4    0    0 -0.54315486015E+02  0.51527818609E+03 -0.12306405169E+03  0.54038732293E+03  0.91716502778E+02 0.  0.
         23    2    4    4    0    0  0.11118859149E+03 -0.25605257786E+03  0.33778252161E+03  0.44831672153E+03  0.94683817988E+02 0.  0.
          4    1    3    3  502    0 -0.69856979104E+02 -0.24047270832E+03  0.47122560190E+03  0.53362973012E+03  0.00000000000E+00 0. -1.
         -3    1    3    3    0  502  0.12983873630E+02 -0.18752899910E+02  0.74750242494E+02  0.78152741362E+02  0.00000000000E+00 0.  1.
         13    1    5    5    0    0 -0.25845285361E+02  0.47577371924E+03 -0.12124239027E+03  0.49165875147E+03  0.00000000000E+00 0. -1.
        -13    1    5    5    0    0 -0.28470200654E+02  0.39504466844E+02 -0.18216614232E+01  0.48728571457E+02  0.00000000000E+00 0.  1.
          4    1    6    6  503    0 -0.48853938033E+01 -0.94657443873E+02  0.12835243461E+03  0.15955640452E+03  0.00000000000E+00 0. -1.
         -4    1    6    6    0  503  0.11607398529E+03 -0.16139513399E+03  0.20943008700E+03  0.28876031700E+03  0.00000000000E+00 0.  1.
<mgrwt>
<rscale>  0 0.14081553E+04</rscale>
<asrwt>0</asrwt>
<pdfrwt beam="1">  1        2 0.18162929E+00 0.14081553E+04</pdfrwt>
<pdfrwt beam="2">  1       -1 0.64599401E-01 0.14081553E+04</pdfrwt>
<totfact> 0.52437399E+01</totfact>
</mgrwt>
</event>
<event>
12    7  0.1701638E-007  0.1692159E+04  0.7818608E-02  0.8765849E-01
          2   -1    0    0  501    0  0.00000000000E+00  0.00000000000E+00  0.76571136975E+03  0.76571136975E+03  0.00000000000E+00 0. -1.
         -1   -1    0    0    0  501 -0.00000000000E+00 -0.00000000000E+00 -0.93488265862E+03  0.93488265862E+03  0.00000000000E+00 0.  1.
         24    2    1    2    0    0 -0.16138413424E+03 -0.17851784555E+02 -0.64590856363E+03  0.67161659639E+03  0.86645571062E+02 0.  0.
        254    2    1    2    0    0  0.16138413424E+03  0.17851784555E+02  0.47673727476E+03  0.10289774320E+04  0.89730295964E+03 0.  0.
         23    2    4    4    0    0 -0.31496063707E+02  0.22428643576E+03 -0.18304287679E+03  0.30543380801E+03  0.92134190377E+02 0.  0.
         23    2    4    4    0    0  0.19288019794E+03 -0.20643465120E+03  0.65978015155E+03  0.72354362397E+03  0.91583248607E+02 0.  0.
          4    1    3    3  502    0 -0.32979124268E+02 -0.21182975984E+02 -0.59115303105E+02  0.70929261735E+02  0.00000000000E+00 0. -1.
         -3    1    3    3    0  502 -0.12840500997E+03  0.33311914286E+01 -0.58679326052E+03  0.60068733466E+03  0.00000000000E+00 0.  1.
         13    1    5    5    0    0 -0.46534396307E+02  0.59698312331E+02 -0.34371287065E+02  0.83130763917E+02  0.00000000000E+00 0.  1.
        -13    1    5    5    0    0  0.15038332601E+02  0.16458812343E+03 -0.14867158973E+03  0.22230304409E+03  0.00000000000E+00 0. -1.
          1    1    6    6  503    0  0.85945227858E+02 -0.10317356115E+03  0.42454353204E+03  0.44527359737E+03  0.00000000000E+00 0. -1.
         -1    1    6    6    0  503  0.10693497009E+03 -0.10326109005E+03  0.23523661951E+03  0.27827002660E+03  0.00000000000E+00 0.  1.
<mgrwt>
<rscale>  0 0.16921587E+04</rscale>
<asrwt>0</asrwt>
<pdfrwt beam="1">  1        2 0.11780175E+00 0.16921587E+04</pdfrwt>
<pdfrwt beam="2">  1       -1 0.14382810E+00 0.16921587E+04</pdfrwt>
<totfact> 0.15491780E+01</totfact>
</mgrwt>
</event>
<event>
12    7  0.1701638E-007  0.2388170E+04  0.7818608E-02  0.8443946E-01
         -1   -1    0    0    0  501 -0.00000000000E+00  0.00000000000E+00  0.31148099499E+03  0.31148099499E+03  0.00000000000E+00 0.  1.
          2   -1    0    0  501    0  0.00000000000E+00 -0.00000000000E+00 -0.45776131680E+04  0.45776131680E+04  0.00000000000E+00 0. -1.
         24    2    1    2    0    0 -0.72063206312E+03  0.68857178688E+03 -0.14362304247E+04  0.17500092697E+04  0.79579740692E+02 0.  0.
        254    2    1    2    0    0  0.72063206312E+03 -0.68857178688E+03 -0.28299017483E+04  0.31390848933E+04  0.92307550398E+03 0.  0.
         23    2    4    4    0    0  0.41554104522E+03 -0.86026580691E+03 -0.23455380699E+04  0.25343157342E+04  0.92064023369E+02 0.  0.
         23    2    4    4    0    0  0.30509101790E+03  0.17169402003E+03 -0.48436367842E+03  0.60476915911E+03  0.92618557068E+02 0.  0.
          2    1    3    3  502    0 -0.10293928486E+03  0.71199439716E+02 -0.21226204578E+03  0.24641638067E+03  0.00000000000E+00 0. -1.
         -1    1    3    3    0  502 -0.61769277826E+03  0.61737234716E+03 -0.12239683789E+04  0.15035928890E+04  0.00000000000E+00 0.  1.
         13    1    5    5    0    0  0.26499843950E+02 -0.34111044558E+02 -0.15873634967E+03  0.16450846117E+03  0.00000000000E+00 0. -1.
        -13    1    5    5    0    0  0.38904120127E+03 -0.82615476235E+03 -0.21868017202E+04  0.23698072730E+04  0.00000000000E+00 0.  1.
          4    1    6    6  503    0  0.15210820621E+03  0.33859409907E+02 -0.19500014189E+03  0.24961654868E+03  0.00000000000E+00 0. -1.
         -4    1    6    6    0  503  0.15298281169E+03  0.13783461012E+03 -0.28936353653E+03  0.35515261043E+03  0.00000000000E+00 0.  1.
<mgrwt>
<rscale>  0 0.23881704E+04</rscale>
<asrwt>0</asrwt>
<pdfrwt beam="1">  1        2 0.70424818E+00 0.23881704E+04</pdfrwt>
<pdfrwt beam="2">  1       -1 0.47920153E-01 0.23881704E+04</pdfrwt>
<totfact> 0.46281560E-01</totfact>
</mgrwt>
</event>
<event>
12    7  0.1701638E-007  0.1231787E+04  0.7818608E-02  0.9085480E-01
          2   -1    0    0  501    0  0.00000000000E+00  0.00000000000E+00  0.31260075826E+04  0.31260075826E+04  0.00000000000E+00 0. -1.
         -1   -1    0    0    0  501 -0.00000000000E+00 -0.00000000000E+00 -0.12134478762E+03  0.12134478762E+03  0.00000000000E+00 0.  1.
         24    2    1    2    0    0 -0.16910064695E+03 -0.17521541284E+03  0.35321183200E+03  0.43608742797E+03  0.78218775693E+02 0.  0.
        254    2    1    2    0    0  0.16910064695E+03  0.17521541284E+03  0.26514509630E+04  0.28112649422E+04  0.90206590487E+03 0.  0.
         23    2    4    4    0    0  0.12873887194E+03 -0.22937266020E+03  0.24488203926E+03  0.36892851852E+03  0.83399785537E+02 0.  0.
         23    2    4    4    0    0  0.40361775010E+02  0.40458807304E+03  0.24065689237E+04  0.24423364237E+04  0.90070196622E+02 0.  0.
          2    1    3    3  502    0 -0.15687262496E+03 -0.17747129507E+03  0.35101891872E+03  0.42346116981E+03  0.00000000000E+00 0. -1.
         -1    1    3    3    0  502 -0.12228021991E+02  0.22558822304E+01  0.21929132791E+01  0.12626258159E+02  0.00000000000E+00 0.  1.
         13    1    5    5    0    0  0.44915359898E+02 -0.12769036177E+03  0.17018466114E+03  0.21745122886E+03  0.00000000000E+00 0. -1.
        -13    1    5    5    0    0  0.83823512042E+02 -0.10168229843E+03  0.74697378119E+02  0.15147728966E+03  0.00000000000E+00 0.  1.
          3    1    6    6  503    0  0.56607345485E+02  0.14450234518E+03  0.83244595263E+03  0.84678898397E+03  0.00000000000E+00 0. -1.
         -3    1    6    6    0  503 -0.16245570474E+02  0.26008572786E+03  0.15741229711E+04  0.15955474398E+04  0.00000000000E+00 0.  1.
<mgrwt>
<rscale>  0 0.12317869E+04</rscale>
<asrwt>0</asrwt>
<pdfrwt beam="1">  1        2 0.48092418E+00 0.12317869E+04</pdfrwt>
<pdfrwt beam="2">  1       -1 0.18668431E-01 0.12317869E+04</pdfrwt>
<totfact> 0.37867580E+01</totfact>
</mgrwt>
</event>
<event>
12    7  0.1701638E-007  0.1153176E+04  0.7818608E-02  0.9154858E-01
         -1   -1    0    0    0  501 -0.00000000000E+00  0.00000000000E+00  0.82306782703E+03  0.82306782703E+03  0.00000000000E+00 0.  1.
          2   -1    0    0  501    0  0.00000000000E+00 -0.00000000000E+00 -0.40392052829E+03  0.40392052829E+03  0.00000000000E+00 0. -1.
         24    2    1    2    0    0 -0.64828419940E+02  0.15409012296E+03 -0.60265856516E+02  0.19436260919E+03  0.78729666346E+02 0.  0.
        254    2    1    2    0    0  0.64828419940E+02 -0.15409012296E+03  0.47941315525E+03  0.10326257461E+04  0.89918433490E+03 0.  0.
         23    2    4    4    0    0 -0.13739229749E+03 -0.30789286101E+03  0.63288039221E+03  0.72229120485E+03  0.86558283782E+02 0.  0.
         23    2    4    4    0    0  0.20222071743E+03  0.15380273804E+03 -0.15346723696E+03  0.31033454128E+03  0.90591577428E+02 0.  0.
          4    1    3    3  502    0 -0.63991318066E+02  0.11446474134E+03 -0.76172840176E+02  0.15165542318E+03  0.00000000000E+00 0. -1.
         -3    1    3    3    0  502 -0.83710187446E+00  0.39625381616E+02  0.15906983660E+02  0.42707186010E+02  0.00000000000E+00 0.  1.
         13    1    5    5    0    0  0.11752115100E+02 -0.30623709168E+02  0.71169878901E+02  0.78365014103E+02  0.00000000000E+00 0.  1.
        -13    1    5    5    0    0 -0.14914441259E+03 -0.27726915184E+03  0.56171051331E+03  0.64392619075E+03  0.00000000000E+00 0. -1.
          4    1    6    6  503    0  0.15818674281E+03  0.97612459261E+02 -0.65584888711E+02  0.19711066798E+03  0.00000000000E+00 0. -1.
         -4    1    6    6    0  503  0.44033974623E+02  0.56190278784E+02 -0.87882348252E+02  0.11322387330E+03  0.00000000000E+00 0.  1.
<mgrwt>
<rscale>  0 0.11531765E+04</rscale>
<asrwt>0</asrwt>
<pdfrwt beam="1">  1        2 0.62141620E-01 0.11531765E+04</pdfrwt>
<pdfrwt beam="2">  1       -1 0.12662582E+00 0.11531765E+04</pdfrwt>
<totfact> 0.48286714E+01</totfact>
</mgrwt>
</event>
<event>
12    7  0.1701638E-007  0.1451807E+04  0.7818608E-02  0.8917149E-01
          2   -1    0    0  501    0  0.00000000000E+00  0.00000000000E+00  0.87040788905E+03  0.87040788905E+03  0.00000000000E+00 0. -1.
         -1   -1    0    0    0  501 -0.00000000000E+00 -0.00000000000E+00 -0.60538950078E+03  0.60538950078E+03  0.00000000000E+00 0.  1.
         24    2    1    2    0    0 -0.19142566947E+03 -0.15478964770E+03 -0.28132554052E+03  0.38240424346E+03  0.80531507510E+02 0.  0.
        254    2    1    2    0    0  0.19142566947E+03  0.15478964770E+03  0.54634392879E+03  0.10933931464E+04  0.91455631977E+03 0.  0.
         23    2    4    4    0    0  0.18553617159E+03  0.47895738569E+03  0.96140006972E+02  0.53066809609E+03  0.92422286254E+02 0.  0.
         23    2    4    4    0    0  0.58894978815E+01 -0.32416773799E+03  0.45020392181E+03  0.56272505028E+03  0.94108992416E+02 0.  0.
          2    1    3    3  502    0 -0.13512363749E+03 -0.68642163898E+02 -0.13160080042E+03  0.20072098730E+03  0.00000000000E+00 0. -1.
         -1    1    3    3    0  502 -0.56302031984E+02 -0.86147483799E+02 -0.14972474010E+03  0.18168325616E+03  0.00000000000E+00 0.  1.
         13    1    5    5    0    0  0.46026385662E+01  0.11221230423E+03  0.31516076354E+02  0.11664496805E+03  0.00000000000E+00 0. -1.
        -13    1    5    5    0    0  0.18093353303E+03  0.36674508145E+03  0.64623930619E+02  0.41402312804E+03  0.00000000000E+00 0.  1.
          1    1    6    6  503    0  0.48980932465E+02 -0.13566874264E+03  0.19321398108E+03  0.24111570243E+03  0.00000000000E+00 0. -1.
         -1    1    6    6    0  503 -0.43091434584E+02 -0.18849899535E+03  0.25698994073E+03  0.32160934785E+03  0.00000000000E+00 0.  1.
<mgrwt>
<rscale>  0 0.14518069E+04</rscale>
<asrwt>0</asrwt>
<pdfrwt beam="1">  1        2 0.13390891E+00 0.14518069E+04</pdfrwt>
<pdfrwt beam="2">  1       -1 0.93136847E-01 0.14518069E+04</pdfrwt>
<totfact> 0.38072228E+01</totfact>
</mgrwt>
</event>
<event>
12    7  0.1701638E-007  0.2175563E+04  0.7818608E-02  0.8528669E-01
         -1   -1    0    0    0  501 -0.00000000000E+00  0.00000000000E+00  0.67385740443E+03  0.67385740443E+03  0.00000000000E+00 0.  1.
          2   -1    0    0  501    0  0.00000000000E+00 -0.00000000000E+00 -0.17559622133E+04  0.17559622133E+04  0.00000000000E+00 0. -1.
         24    2    1    2    0    0 -0.36464708085E+03  0.15121413880E+03  0.45215963258E+03  0.60549073358E+03  0.79608327325E+02 0.  0.
        254    2    1    2    0    0  0.36464708085E+03 -0.15121413880E+03 -0.15342644415E+04  0.18243288842E+04  0.90464097404E+03 0.  0.
         23    2    4    4    0    0 -0.26046727968E+03 -0.21693833313E+03 -0.50927452837E+03  0.61848251627E+03  0.90855013746E+02 0.  0.
         23    2    4    4    0    0  0.62511436052E+03  0.65724194326E+02 -0.10249899131E+04  0.12058463679E+04  0.91506871711E+02 0.  0.
          4    1    3    3  502    0 -0.43735582181E+02  0.10815255010E+02  0.20247879133E+02  0.49393800209E+02  0.00000000000E+00 0. -1.
         -3    1    3    3    0  502 -0.32091149867E+03  0.14039888379E+03  0.43191175344E+03  0.55609693337E+03  0.00000000000E+00 0.  1.
         13    1    5    5    0    0 -0.17495232155E+03 -0.17731689557E+03 -0.30713507460E+03  0.39545107197E+03  0.00000000000E+00 0.  1.
        -13    1    5    5    0    0 -0.85514958131E+02 -0.39621437557E+02 -0.20213945377E+03  0.22303144430E+03  0.00000000000E+00 0. -1.
          1    1    6    6  503    0  0.54537290879E+03  0.85646171498E+02 -0.91306673252E+03  0.10669853487E+04  0.00000000000E+00 0. -1.
         -1    1    6    6    0  503  0.79741451730E+02 -0.19921977172E+02 -0.11192318061E+03  0.13886101921E+03  0.00000000000E+00 0.  1.
<mgrwt>
<rscale>  0 0.21755626E+04</rscale>
<asrwt>0</asrwt>
<pdfrwt beam="1">  1        2 0.27014803E+00 0.21755626E+04</pdfrwt>
<pdfrwt beam="2">  1       -1 0.10367037E+00 0.21755626E+04</pdfrwt>
<totfact> 0.83488763E+00</totfact>
</mgrwt>
</event>
<event>
12    7  0.1701638E-007  0.1603323E+04  0.7818608E-02  0.8818509E-01
         -1   -1    0    0    0  501 -0.00000000000E+00  0.00000000000E+00  0.27560415997E+03  0.27560415997E+03  0.00000000000E+00 0.  1.
          2   -1    0    0  501    0  0.00000000000E+00 -0.00000000000E+00 -0.23318260192E+04  0.23318260192E+04  0.00000000000E+00 0. -1.
         24    2    1    2    0    0 -0.43902567106E+03  0.71970029539E+02 -0.12012713040E+04  0.12834704838E+04  0.79501647425E+02 0.  0.
        254    2    1    2    0    0  0.43902567106E+03 -0.71970029539E+02 -0.85495055522E+03  0.13239596954E+04  0.90774754096E+03 0.  0.
         23    2    4    4    0    0  0.48224948532E+03  0.10032854288E+03 -0.62198042810E+02  0.50521408579E+03  0.93500231810E+02 0.  0.
         23    2    4    4    0    0 -0.43223814256E+02 -0.17229857242E+03 -0.79275251241E+03  0.81874560959E+03  0.10165004236E+03 0.  0.
          4    1    3    3  502    0 -0.13667752465E+03  0.11327502093E+02 -0.27657588510E+03  0.30871229044E+03  0.00000000000E+00 0. -1.
         -3    1    3    3    0  502 -0.30234814641E+03  0.60642527446E+02 -0.92469541893E+03  0.97475819338E+03  0.00000000000E+00 0.  1.
         13    1    5    5    0    0  0.22154290183E+03  0.90566366020E+02 -0.12743210143E+02  0.23967877130E+03  0.00000000000E+00 0. -1.
        -13    1    5    5    0    0  0.26070658349E+03  0.97621768616E+01 -0.49454832668E+02  0.26553531449E+03  0.00000000000E+00 0.  1.
          1    1    6    6  503    0  0.27390898074E+02 -0.95921713944E+02 -0.42629941824E+03  0.43781552108E+03  0.00000000000E+00 0. -1.
         -1    1    6    6    0  503 -0.70614712330E+02 -0.76376858476E+02 -0.36645309417E+03  0.38093008851E+03  0.00000000000E+00 0.  1.
<mgrwt>
<rscale>  0 0.16033227E+04</rscale>
<asrwt>0</asrwt>
<pdfrwt beam="1">  1        2 0.35874246E+00 0.16033227E+04</pdfrwt>
<pdfrwt beam="2">  1       -1 0.42400641E-01 0.16033227E+04</pdfrwt>
<totfact> 0.26007470E+01</totfact>
</mgrwt>
</event>
<event>
12    7  0.1701638E-007  0.1451898E+04  0.7818608E-02  0.8917086E-01
         -1   -1    0    0    0  501 -0.00000000000E+00  0.00000000000E+00  0.54887349573E+03  0.54887349573E+03  0.00000000000E+00 0.  1.
          2   -1    0    0  501    0  0.00000000000E+00 -0.00000000000E+00 -0.96015140782E+03  0.96015140782E+03  0.00000000000E+00 0. -1.
         24    2    1    2    0    0 -0.28823851227E+03  0.26419721119E+03 -0.34447983025E+03  0.52752278757E+03  0.82050786675E+02 0.  0.
        254    2    1    2    0    0  0.28823851227E+03 -0.26419721119E+03 -0.66798081841E+02  0.98150211598E+03  0.89777659447E+03 0.  0.
         23    2    4    4    0    0  0.54076935299E+03  0.67008225833E+02 -0.54934901346E+02  0.55546535530E+03  0.92748704000E+02 0.  0.
         23    2    4    4    0    0 -0.25253084072E+03 -0.33120543702E+03 -0.11863180495E+02  0.42603676068E+03  0.88869113701E+02 0.  0.
          4    1    3    3  502    0 -0.27222148721E+03  0.23135305854E+03 -0.33505289219E+03  0.48978486743E+03  0.00000000000E+00 0. -1.
         -3    1    3    3    0  502 -0.16017025067E+02  0.32844152653E+02 -0.94269380576E+01  0.37737920141E+02  0.00000000000E+00 0.  1.
         13    1    5    5    0    0  0.57315351900E+02  0.59753789787E+01 -0.35713073246E+02  0.67795120164E+02  0.00000000000E+00 0. -1.
        -13    1    5    5    0    0  0.48345400109E+03  0.61032846854E+02 -0.19221828099E+02  0.48767023514E+03  0.00000000000E+00 0.  1.
          1    1    6    6  503    0 -0.10296138045E+03 -0.86149357198E+02 -0.32741024435E+02  0.13818369040E+03  0.00000000000E+00 0. -1.
         -1    1    6    6    0  503 -0.14956946027E+03 -0.24505607983E+03  0.20877843940E+02  0.28785307028E+03  0.00000000000E+00 0.  1.
<mgrwt>
<rscale>  0 0.14518976E+04</rscale>
<asrwt>0</asrwt>
<pdfrwt beam="1">  1        2 0.14771560E+00 0.14518976E+04</pdfrwt>
<pdfrwt beam="2">  1       -1 0.84442077E-01 0.14518976E+04</pdfrwt>
<totfact> 0.41093199E+01</totfact>
</mgrwt>
</event>
<event>
12    7  0.1701638E-007  0.2078190E+04  0.7818608E-02  0.8570912E-01
          2   -1    0    0  501    0  0.00000000000E+00  0.00000000000E+00  0.13276155986E+04  0.13276155986E+04  0.00000000000E+00 0. -1.
         -1   -1    0    0    0  501 -0.00000000000E+00 -0.00000000000E+00 -0.81327648849E+03  0.81327648849E+03  0.00000000000E+00 0.  1.
         24    2    1    2    0    0 -0.51158435444E+03  0.34073604333E+03 -0.38157061893E+03  0.72802116956E+03  0.81234741116E+02 0.  0.
        254    2    1    2    0    0  0.51158435444E+03 -0.34073604333E+03  0.89590972906E+03  0.14128709175E+04  0.90317793600E+03 0.  0.
         23    2    4    4    0    0 -0.48938588412E+02 -0.46135521322E+03  0.22097754565E+03  0.52241066529E+03  0.94011750998E+02 0.  0.
         23    2    4    4    0    0  0.56052294286E+03  0.12061916989E+03  0.67493218341E+03  0.89046025226E+03  0.93011047899E+02 0.  0.
          2    1    3    3  502    0 -0.17087669626E+03  0.15012523249E+03 -0.17008356303E+03  0.28401557909E+03  0.00000000000E+00 0. -1.
         -1    1    3    3    0  502 -0.34070765818E+03  0.19061081084E+03 -0.21148705590E+03  0.44400559047E+03  0.00000000000E+00 0.  1.
         13    1    5    5    0    0 -0.30033834053E+02 -0.67696675538E+02  0.81570446353E+01  0.74507774387E+02  0.00000000000E+00 0. -1.
        -13    1    5    5    0    0 -0.18904754359E+02 -0.39365853768E+03  0.21282050101E+03  0.44790289090E+03  0.00000000000E+00 0.  1.
          3    1    6    6  503    0  0.11281476552E+03 -0.12048541427E+02  0.11846749873E+03  0.16403318849E+03  0.00000000000E+00 0. -1.
         -3    1    6    6    0  503  0.44770817734E+03  0.13266771132E+03  0.55646468468E+03  0.72642706377E+03  0.00000000000E+00 0.  1.
<mgrwt>
<rscale>  0 0.20781901E+04</rscale>
<asrwt>0</asrwt>
<pdfrwt beam="1">  1        2 0.20424855E+00 0.20781901E+04</pdfrwt>
<pdfrwt beam="2">  1       -1 0.12511946E+00 0.20781901E+04</pdfrwt>
<totfact> 0.93589891E+00</totfact>
</mgrwt>
</event>
<event>
12    7  0.1701638E-007  0.1331205E+04  0.7818608E-02  0.9005179E-01
         -1   -1    0    0    0  501 -0.00000000000E+00  0.00000000000E+00  0.10517852831E+04  0.10517852831E+04  0.00000000000E+00 0.  1.
          2   -1    0    0  501    0  0.00000000000E+00 -0.00000000000E+00 -0.42121409977E+03  0.42121409977E+03  0.00000000000E+00 0. -1.
         24    2    1    2    0    0  0.46600070346E+01  0.21427425593E+03  0.44822645383E+03  0.50297518405E+03  0.78370335181E+02 0.  0.
        254    2    1    2    0    0 -0.46600070346E+01 -0.21427425593E+03  0.18234472949E+03  0.97002419881E+03  0.92831146361E+03 0.  0.
         23    2    4    4    0    0  0.92097489544E+02 -0.41844709574E+03 -0.22719249803E+03  0.49353088388E+03  0.91522580094E+02 0.  0.
         23    2    4    4    0    0 -0.96757496579E+02  0.20417283981E+03  0.40953722752E+03  0.47649331493E+03  0.90975693384E+02 0.  0.
          2    1    3    3  502    0  0.35829723538E+01  0.77894528062E+02  0.25361761919E+03  0.26533430226E+03  0.00000000000E+00 0. -1.
         -1    1    3    3    0  502  0.10770346808E+01  0.13637972787E+03  0.19460883464E+03  0.23764088179E+03  0.00000000000E+00 0.  1.
         13    1    5    5    0    0  0.35862288957E+01  0.27952557250E+01 -0.10884361357E+02  0.11795923635E+02  0.00000000000E+00 0.  1.
        -13    1    5    5    0    0  0.88511260649E+02 -0.42124235146E+03 -0.21630813667E+03  0.48173496024E+03  0.00000000000E+00 0. -1.
          3    1    6    6  503    0 -0.97882277493E+02  0.20627128503E+03  0.41322393060E+03  0.47210464952E+03  0.00000000000E+00 0. -1.
         -3    1    6    6    0  503  0.11247809140E+01 -0.20984452182E+01 -0.36867030843E+01  0.43886654088E+01  0.00000000000E+00 0.  1.
<mgrwt>
<rscale>  0 0.13312052E+04</rscale>
<asrwt>0</asrwt>
<pdfrwt beam="1">  1        2 0.64802169E-01 0.13312052E+04</pdfrwt>
<pdfrwt beam="2">  1       -1 0.16181312E+00 0.13312052E+04</pdfrwt>
<totfact> 0.23763605E+01</totfact>
</mgrwt>
</event>
<event>
12    7  0.1701638E-007  0.2252313E+04  0.7818608E-02  0.8496964E-01
         -1   -1    0    0    0  501 -0.00000000000E+00  0.00000000000E+00  0.22165249494E+04  0.22165249494E+04  0.00000000000E+00 0.  1.
          2   -1    0    0  501    0  0.00000000000E+00 -0.00000000000E+00 -0.57216966693E+03  0.57216966693E+03  0.00000000000E+00 0. -1.
         24    2    1    2    0    0 -0.16833084797E+03 -0.15804864960E+02 -0.45772194879E+03  0.49453355609E+03  0.80430016536E+02 0.  0.
        254    2    1    2    0    0  0.16833084797E+03  0.15804864960E+02  0.21020772312E+04  0.22941610602E+04  0.90325036174E+03 0.  0.
         23    2    4    4    0    0 -0.30473514143E+03 -0.20307721904E+03  0.70091230810E+03  0.79649512288E+03  0.94987124458E+02 0.  0.
         23    2    4    4    0    0  0.47306598941E+03  0.21888208400E+03  0.14011649231E+04  0.14976659373E+04  0.89662260645E+02 0.  0.
          4    1    3    3  502    0 -0.63363659262E+02  0.11140291487E+02 -0.27201008027E+03  0.27951483535E+03  0.00000000000E+00 0. -1.
         -3    1    3    3    0  502 -0.10496718871E+03 -0.26945156447E+02 -0.18571186852E+03  0.21501872074E+03  0.00000000000E+00 0.  1.
         13    1    5    5    0    0 -0.11541097727E+03 -0.90630666071E+02  0.18936804275E+03  0.23957017119E+03  0.00000000000E+00 0. -1.
        -13    1    5    5    0    0 -0.18932416416E+03 -0.11244655297E+03  0.51154426534E+03  0.55692495169E+03  0.00000000000E+00 0.  1.
          4    1    6    6  503    0  0.22393474337E+02  0.35960417978E+02  0.12266242312E+03  0.12977168181E+03  0.00000000000E+00 0. -1.
         -4    1    6    6    0  503  0.45067251507E+03  0.18292166602E+03  0.12785025000E+04  0.13678942555E+04  0.00000000000E+00 0.  1.
<mgrwt>
<rscale>  0 0.22523129E+04</rscale>
<asrwt>0</asrwt>
<pdfrwt beam="1">  1        2 0.88026104E-01 0.22523129E+04</pdfrwt>
<pdfrwt beam="2">  1       -1 0.34100383E+00 0.22523129E+04</pdfrwt>
<totfact> 0.97303308E-01</totfact>
</mgrwt>
</event>
<event>
12    7  0.1701638E-007  0.2341539E+04  0.7818608E-02  0.8461721E-01
          2   -1    0    0  501    0  0.00000000000E+00  0.00000000000E+00  0.15488503801E+04  0.15488503801E+04  0.00000000000E+00 0. -1.
         -1   -1    0    0    0  501 -0.00000000000E+00 -0.00000000000E+00 -0.88497946594E+03  0.88497946594E+03  0.00000000000E+00 0.  1.
         24    2    1    2    0    0  0.38850433902E+03 -0.85331178148E+03  0.67258749559E+03  0.11571745266E+04  0.87191329464E+02 0.  0.
        254    2    1    2    0    0 -0.38850433902E+03  0.85331178148E+03 -0.87165814405E+01  0.12766553194E+04  0.86642726642E+03 0.  0.
         23    2    4    4    0    0 -0.43625802398E+03  0.81310245436E+03  0.27829493528E+03  0.96817706696E+03  0.91989658197E+02 0.  0.
         23    2    4    4    0    0  0.47753684966E+02  0.40209327125E+02 -0.28701151672E+03  0.30847825247E+03  0.94265672974E+02 0.  0.
          2    1    3    3  502    0  0.10886205735E+03 -0.16638792855E+03  0.16588848555E+03  0.25894957026E+03  0.00000000000E+00 0. -1.
         -1    1    3    3    0  502  0.27964228167E+03 -0.68692385293E+03  0.50669901004E+03  0.89822495634E+03  0.00000000000E+00 0.  1.
         13    1    5    5    0    0 -0.14204996665E+03  0.24675284605E+03  0.42860543132E+02  0.28792739747E+03  0.00000000000E+00 0. -1.
        -13    1    5    5    0    0 -0.29420805733E+03  0.56634960831E+03  0.23543439215E+03  0.68024966949E+03  0.00000000000E+00 0.  1.
          3    1    6    6  503    0  0.58050829148E+02  0.61441753716E+02 -0.17948974631E+03  0.19839747199E+03  0.00000000000E+00 0. -1.
         -3    1    6    6    0  503 -0.10297144182E+02 -0.21232426591E+02 -0.10752177042E+03  0.11008078048E+03  0.00000000000E+00 0.  1.
<mgrwt>
<rscale>  0 0.23415386E+04</rscale>
<asrwt>0</asrwt>
<pdfrwt beam="1">  1        2 0.23828467E+00 0.23415386E+04</pdfrwt>
<pdfrwt beam="2">  1       -1 0.13615069E+00 0.23415386E+04</pdfrwt>
<totfact> 0.55261211E+00</totfact>
</mgrwt>
</event>
<event>
12    7  0.1701638E-007  0.1433693E+04  0.7818608E-02  0.8929784E-01
         -1   -1    0    0    0  501 -0.00000000000E+00  0.00000000000E+00  0.50594387252E+03  0.50594387252E+03  0.00000000000E+00 0.  1.
          2   -1    0    0  501    0  0.00000000000E+00 -0.00000000000E+00 -0.10156643385E+04  0.10156643385E+04  0.00000000000E+00 0. -1.
         24    2    1    2    0    0  0.82500487820E+01  0.12025042195E+02 -0.61109428493E+03  0.61638877343E+03  0.79285748976E+02 0.  0.
        254    2    1    2    0    0 -0.82500487820E+01 -0.12025042195E+02  0.10137381899E+03  0.90521943754E+03  0.89940697906E+03 0.  0.
         23    2    4    4    0    0  0.16211432608E+03 -0.37644508808E+03  0.22561398699E+03  0.47459318514E+03  0.79655892435E+02 0.  0.
         23    2    4    4    0    0 -0.17036437486E+03  0.36442004588E+03 -0.12424016800E+03  0.43062625241E+03  0.90428755706E+02 0.  0.
          2    1    3    3  502    0 -0.26307327245E+02  0.28182990368E+02 -0.40187273133E+03  0.40371778335E+03  0.00000000000E+00 0. -1.
         -1    1    3    3    0  502  0.34557376027E+02 -0.16157948173E+02 -0.20922155360E+03  0.21267099007E+03  0.00000000000E+00 0.  1.
         13    1    5    5    0    0  0.92835698936E+02 -0.19649461111E+03  0.16367886310E+03  0.27206500954E+03  0.00000000000E+00 0. -1.
        -13    1    5    5    0    0  0.69278627140E+02 -0.17995047697E+03  0.61935123886E+02  0.20252817559E+03  0.00000000000E+00 0.  1.
          2    1    6    6  503    0 -0.81547564534E+02  0.18227645870E+03 -0.10877893091E+03  0.22739298250E+03  0.00000000000E+00 0. -1.
         -2    1    6    6    0  503 -0.88816810325E+02  0.18214358718E+03 -0.15461237083E+02  0.20323326991E+03  0.00000000000E+00 0.  1.
<mgrwt>
<rscale>  0 0.14336933E+04</rscale>
<asrwt>0</asrwt>
<pdfrwt beam="1">  1        2 0.15625605E+00 0.14336933E+04</pdfrwt>
<pdfrwt beam="2">  1       -1 0.77837519E-01 0.14336933E+04</pdfrwt>
<totfact> 0.45086923E+01</totfact>
</mgrwt>
</event>
<event>
12    7  0.1701638E-007  0.2287558E+04  0.7818608E-02  0.8482843E-01
          2   -1    0    0  501    0  0.00000000000E+00  0.00000000000E+00  0.19094552849E+04  0.19094552849E+04  0.00000000000E+00 0. -1.
         -1   -1    0    0    0  501 -0.00000000000E+00 -0.00000000000E+00 -0.68513255637E+03  0.68513255637E+03  0.00000000000E+00 0.  1.
         24    2    1    2    0    0  0.98328424323E+02 -0.57478889008E+03  0.13909474696E+04  0.15103830763E+04  0.80445178224E+02 0.  0.
        254    2    1    2    0    0 -0.98328424323E+02  0.57478889008E+03 -0.16662474107E+03  0.10842047650E+04  0.89871320282E+03 0.  0.
         23    2    4    4    0    0 -0.17653685860E+03  0.78576652568E+03 -0.42677317984E+02  0.81134945578E+03  0.88725929665E+02 0.  0.
         23    2    4    4    0    0  0.78208434279E+02 -0.21097763560E+03 -0.12394742308E+03  0.27285530922E+03  0.91972464148E+02 0.  0.
          2    1    3    3  502    0  0.10086115358E+03 -0.46001779154E+03  0.10543696685E+04  0.11547660969E+04  0.00000000000E+00 0. -1.
         -1    1    3    3    0  502 -0.25327292594E+01 -0.11477109854E+03  0.33657780115E+03  0.35561697935E+03  0.00000000000E+00 0.  1.
         13    1    5    5    0    0 -0.37958145367E+02  0.75765412588E+02 -0.22461621839E+02  0.87668369438E+02  0.00000000000E+00 0.  1.
        -13    1    5    5    0    0 -0.13857871324E+03  0.71000111309E+03 -0.20215696145E+02  0.72368108634E+03  0.00000000000E+00 0. -1.
          2    1    6    6  503    0  0.38252758204E+02 -0.12655782399E+03 -0.12128995756E+03  0.17941964811E+03  0.00000000000E+00 0. -1.
         -2    1    6    6    0  503  0.39955676075E+02 -0.84419811613E+02 -0.26574655248E+01  0.93435661106E+02  0.00000000000E+00 0.  1.
<mgrwt>
<rscale>  0 0.22875576E+04</rscale>
<asrwt>0</asrwt>
<pdfrwt beam="1">  1        2 0.29376235E+00 0.22875576E+04</pdfrwt>
<pdfrwt beam="2">  1       -1 0.10540501E+00 0.22875576E+04</pdfrwt>
<totfact> 0.65385794E+00</totfact>
</mgrwt>
</event>
<event>
12    7  0.1701638E-007  0.1470352E+04  0.7818608E-02  0.8904411E-01
         -1   -1    0    0    0  501 -0.00000000000E+00  0.00000000000E+00  0.28895038184E+03  0.28895038184E+03  0.00000000000E+00 0.  1.
          2   -1    0    0  501    0  0.00000000000E+00 -0.00000000000E+00 -0.18705077935E+04  0.18705077935E+04  0.00000000000E+00 0. -1.
         24    2    1    2    0    0 -0.11450159256E+03 -0.39950711916E+03 -0.78567717825E+03  0.89235461651E+03  0.79319482091E+02 0.  0.
        254    2    1    2    0    0  0.11450159256E+03  0.39950711916E+03 -0.79588023340E+03  0.12671035588E+04  0.89409704723E+03 0.  0.
         23    2    4    4    0    0  0.33402977801E+03  0.47589049292E+03 -0.82736015766E+03  0.10153408443E+04  0.91348485594E+02 0.  0.
         23    2    4    4    0    0 -0.21952818544E+03 -0.76383373764E+02  0.31479924258E+02  0.25176271448E+03  0.91468217328E+02 0.  0.
          2    1    3    3  502    0 -0.89384650570E+02 -0.28110233286E+03 -0.62573948290E+03  0.69177889369E+03  0.00000000000E+00 0. -1.
         -1    1    3    3    0  502 -0.25116941994E+02 -0.11840478630E+03 -0.15993769535E+03  0.20057572283E+03  0.00000000000E+00 0.  1.
         13    1    5    5    0    0  0.32356217754E+03  0.47543391316E+03 -0.82293282053E+03  0.10039662921E+04  0.00000000000E+00 0.  1.
        -13    1    5    5    0    0  0.10467600470E+02  0.45657975486E+00 -0.44273371222E+01  0.11374552240E+02  0.00000000000E+00 0. -1.
          2    1    6    6  503    0 -0.20008412989E+02 -0.15862329910E+02 -0.25017572686E+02  0.35746734726E+02  0.00000000000E+00 0. -1.
         -2    1    6    6    0  503 -0.19951977246E+03 -0.60521043853E+02  0.56497496944E+02  0.21601597976E+03  0.00000000000E+00 0.  1.
<mgrwt>
<rscale>  0 0.14703523E+04</rscale>
<asrwt>0</asrwt>
<pdfrwt beam="1">  1        2 0.28777043E+00 0.14703523E+04</pdfrwt>
<pdfrwt beam="2">  1       -1 0.44453904E-01 0.14703523E+04</pdfrwt>
<totfact> 0.43586878E+01</totfact>
</mgrwt>
</event>
<event>
12    7  0.1701638E-007  0.3548185E+04  0.7818608E-02  0.8102465E-01
          2   -1    0    0  501    0  0.00000000000E+00  0.00000000000E+00  0.28585054847E+04  0.28585054847E+04  0.00000000000E+00 0. -1.
         -1   -1    0    0    0  501 -0.00000000000E+00 -0.00000000000E+00 -0.11010661788E+04  0.11010661788E+04  0.00000000000E+00 0.  1.
         24    2    1    2    0    0  0.51459043245E+03  0.10033834139E+03  0.25735865658E+04  0.26277221030E+04  0.81881272869E+02 0.  0.
        254    2    1    2    0    0 -0.51459043245E+03 -0.10033834139E+03 -0.81614725995E+03  0.13318495605E+04  0.91260933924E+03 0.  0.
         23    2    4    4    0    0 -0.74005822049E+03  0.68172306566E+02 -0.65564873660E+03  0.99486400757E+03  0.86864806824E+02 0.  0.
         23    2    4    4    0    0  0.22546778804E+03 -0.16851064796E+03 -0.16049852335E+03  0.33698555297E+03  0.92563086553E+02 0.  0.
          4    1    3    3  502    0  0.37635423850E+03  0.10978613137E+03  0.19152822757E+04  0.19549940417E+04  0.00000000000E+00 0. -1.
         -3    1    3    3    0  502  0.13823619395E+03 -0.94477899786E+01  0.65830429004E+03  0.67272806121E+03  0.00000000000E+00 0.  1.
         13    1    5    5    0    0 -0.60836067764E+03  0.74140199323E+02 -0.57467575540E+03  0.84014981230E+03  0.00000000000E+00 0. -1.
        -13    1    5    5    0    0 -0.13169754285E+03 -0.59678927569E+01 -0.80972981198E+02  0.15471419528E+03  0.00000000000E+00 0.  1.
          2    1    6    6  503    0  0.61807213059E+02 -0.73422905818E+02 -0.12644100402E+02  0.96803553447E+02  0.00000000000E+00 0. -1.
         -2    1    6    6    0  503  0.16366057498E+03 -0.95087742142E+02 -0.14785442295E+03  0.24018199952E+03  0.00000000000E+00 0.  1.
<mgrwt>
<rscale>  0 0.35481847E+04</rscale>
<asrwt>0</asrwt>
<pdfrwt beam="1">  1        2 0.43977007E+00 0.35481847E+04</pdfrwt>
<pdfrwt beam="2">  1       -1 0.16939480E+00 0.35481847E+04</pdfrwt>
<totfact> 0.49211817E-01</totfact>
</mgrwt>
</event>
<event>
12    7  0.1701638E-007  0.1263190E+04  0.7818608E-02  0.9059276E-01
         -1   -1    0    0    0  501 -0.00000000000E+00  0.00000000000E+00  0.20366484219E+03  0.20366484219E+03  0.00000000000E+00 0.  1.
          2   -1    0    0  501    0  0.00000000000E+00 -0.00000000000E+00 -0.19586698899E+04  0.19586698899E+04  0.00000000000E+00 0. -1.
         24    2    1    2    0    0  0.24421077357E+03  0.20048766079E+03 -0.55707407062E+03  0.64526179384E+03  0.78721397201E+02 0.  0.
        254    2    1    2    0    0 -0.24421077357E+03 -0.20048766079E+03 -0.11979309771E+04  0.15170729382E+04  0.87557836316E+03 0.  0.
         23    2    4    4    0    0 -0.14861293671E+03  0.33535574760E+03 -0.44948137941E+03  0.58720531590E+03  0.90704411023E+02 0.  0.
         23    2    4    4    0    0 -0.95597836856E+02 -0.53584340839E+03 -0.74844959768E+03  0.92986762234E+03  0.90608443823E+02 0.  0.
          4    1    3    3  502    0  0.22429436748E+03  0.19177612282E+03 -0.54650399199E+03  0.62108989512E+03  0.00000000000E+00 0. -1.
         -3    1    3    3    0  502  0.19916406090E+02  0.87115379693E+01 -0.10570078636E+02  0.24171898720E+02  0.00000000000E+00 0.  1.
         13    1    5    5    0    0 -0.74782113806E+02  0.10065425123E+03 -0.10311717913E+03  0.16234776090E+03  0.00000000000E+00 0.  1.
        -13    1    5    5    0    0 -0.73830822904E+02  0.23470149636E+03 -0.34636420028E+03  0.42485755500E+03  0.00000000000E+00 0. -1.
          3    1    6    6  503    0 -0.41099290270E+02 -0.18832952297E+03 -0.19577512381E+03  0.27474544579E+03  0.00000000000E+00 0. -1.
         -3    1    6    6    0  503 -0.54498546586E+02 -0.34751388543E+03 -0.55267447387E+03  0.65512217655E+03  0.00000000000E+00 0.  1.
<mgrwt>
<rscale>  0 0.12631899E+04</rscale>
<asrwt>0</asrwt>
<pdfrwt beam="1">  1        2 0.30133384E+00 0.12631899E+04</pdfrwt>
<pdfrwt beam="2">  1       -1 0.31333051E-01 0.12631899E+04</pdfrwt>
<totfact> 0.74583283E+01</totfact>
</mgrwt>
</event>
<event>
12    7  0.1701638E-007  0.1146478E+04  0.7818608E-02  0.9161039E-01
         -1   -1    0    0    0  501 -0.00000000000E+00  0.00000000000E+00  0.34777962564E+03  0.34777962564E+03  0.00000000000E+00 0.  1.
          2   -1    0    0  501    0  0.00000000000E+00 -0.00000000000E+00 -0.94486019552E+03  0.94486019552E+03  0.00000000000E+00 0. -1.
         24    2    1    2    0    0  0.14851905602E+03 -0.20726693532E+03 -0.66407496496E+02  0.28086887580E+03  0.97261900669E+02 0.  0.
        254    2    1    2    0    0 -0.14851905602E+03  0.20726693532E+03 -0.53067307339E+03  0.10117709454E+04  0.82282989893E+03 0.  0.
         23    2    4    4    0    0  0.19859477415E+03  0.37678014666E+03 -0.14649809824E+03  0.45910232744E+03  0.88938692594E+02 0.  0.
         23    2    4    4    0    0 -0.34711383017E+03 -0.16951321134E+03 -0.38417497515E+03  0.55266861792E+03  0.92894831830E+02 0.  0.
          2    1    3    3  502    0  0.32444622011E+01 -0.68634731078E+02  0.19683106986E+01  0.68739559877E+02  0.00000000000E+00 0. -1.
         -1    1    3    3    0  502  0.14527459382E+03 -0.13863220424E+03 -0.68375807195E+02  0.21212931592E+03  0.00000000000E+00 0.  1.
         13    1    5    5    0    0  0.20552840349E+03  0.33999191873E+03 -0.13916271462E+03  0.42095449942E+03  0.00000000000E+00 0. -1.
        -13    1    5    5    0    0 -0.69336293406E+01  0.36788227925E+02 -0.73353836210E+01  0.38147828019E+02  0.00000000000E+00 0.  1.
          3    1    6    6  503    0 -0.30839734740E+03 -0.14003725601E+03 -0.28681897350E+03  0.44382933715E+03  0.00000000000E+00 0. -1.
         -3    1    6    6    0  503 -0.38716482779E+02 -0.29475955326E+02 -0.97356001650E+02  0.10883928077E+03  0.00000000000E+00 0.  1.
<mgrwt>
<rscale>  0 0.11464783E+04</rscale>
<asrwt>0</asrwt>
<pdfrwt beam="1">  1        2 0.14536311E+00 0.11464783E+04</pdfrwt>
<pdfrwt beam="2">  1       -1 0.53504558E-01 0.11464783E+04</pdfrwt>
<totfact> 0.10891013E+02</totfact>
</mgrwt>
</event>
<event>
12    7  0.1701638E-007  0.1647258E+04  0.7818608E-02  0.8792030E-01
          2   -1    0    0  501    0  0.00000000000E+00  0.00000000000E+00  0.13042912694E+04  0.13042912694E+04  0.00000000000E+00 0. -1.
         -1   -1    0    0    0  501 -0.00000000000E+00 -0.00000000000E+00 -0.52010195255E+03  0.52010195255E+03  0.00000000000E+00 0.  1.
         24    2    1    2    0    0  0.69532504891E+02  0.88520424421E+01 -0.35291556447E+03  0.36996545140E+03  0.86092460144E+02 0.  0.
        254    2    1    2    0    0 -0.69532504891E+02 -0.88520424421E+01  0.11371048813E+04  0.14544277705E+04  0.90412360920E+03 0.  0.
         23    2    4    4    0    0  0.24804569020E+03 -0.25057752195E+03  0.92425709235E+03  0.99337628418E+03  0.90716648229E+02 0.  0.
         23    2    4    4    0    0 -0.31757819509E+03  0.24172547951E+03  0.21284778897E+03  0.46105148637E+03  0.89315028816E+02 0.  0.
          2    1    3    3  502    0  0.23791390597E+02  0.67816818713E+01 -0.14935527919E+02  0.28897949231E+02  0.00000000000E+00 0. -1.
         -1    1    3    3    0  502  0.45741114294E+02  0.20703605708E+01 -0.33798003655E+03  0.34106750217E+03  0.00000000000E+00 0.  1.
         13    1    5    5    0    0  0.20351738546E+03 -0.21547871234E+03  0.84831245393E+03  0.89860136943E+03  0.00000000000E+00 0.  1.
        -13    1    5    5    0    0  0.44528304739E+02 -0.35098809614E+02  0.75944638420E+02  0.94774914741E+02  0.00000000000E+00 0. -1.
          2    1    6    6  503    0 -0.22640405095E+03  0.16789596372E+03  0.19413183108E+03  0.34224993318E+03  0.00000000000E+00 0. -1.
         -2    1    6    6    0  503 -0.91174144137E+02  0.73829515789E+02  0.18715957889E+02  0.11880155319E+03  0.00000000000E+00 0.  1.
<mgrwt>
<rscale>  0 0.16472576E+04</rscale>
<asrwt>0</asrwt>
<pdfrwt beam="1">  1        2 0.20066019E+00 0.16472576E+04</pdfrwt>
<pdfrwt beam="2">  1       -1 0.80015685E-01 0.16472576E+04</pdfrwt>
<totfact> 0.27916234E+01</totfact>
</mgrwt>
</event>
<event>
12    7  0.1701638E-007  0.1173187E+04  0.7818608E-02  0.9136655E-01
          2   -1    0    0  501    0  0.00000000000E+00  0.00000000000E+00  0.24445557110E+04  0.24445557110E+04  0.00000000000E+00 0. -1.
         -1   -1    0    0    0  501 -0.00000000000E+00 -0.00000000000E+00 -0.14075843928E+03  0.14075843928E+03  0.00000000000E+00 0.  1.
         24    2    1    2    0    0 -0.18190064829E+03  0.98494087003E+02  0.33523492855E+03  0.40226875808E+03  0.81539961875E+02 0.  0.
        254    2    1    2    0    0  0.18190064829E+03 -0.98494087003E+02  0.19685623431E+04  0.21830453922E+04  0.92068482905E+03 0.  0.
         23    2    4    4    0    0 -0.15149806074E+03  0.32845062789E+03  0.58350277267E+03  0.69313339110E+03  0.95534992401E+02 0.  0.
         23    2    4    4    0    0  0.33339870903E+03 -0.42694471490E+03  0.13850595705E+04  0.14899120011E+04  0.89505689403E+02 0.  0.
          4    1    3    3  502    0 -0.55240231851E+02  0.16899365898E+02  0.16558857115E+03  0.17537573001E+03  0.00000000000E+00 0. -1.
         -3    1    3    3    0  502 -0.12666041644E+03  0.81594721105E+02  0.16964635740E+03  0.22689302806E+03  0.00000000000E+00 0.  1.
         13    1    5    5    0    0 -0.52246665775E+02  0.17899358715E+03  0.36943857711E+03  0.41382759766E+03  0.00000000000E+00 0.  1.
        -13    1    5    5    0    0 -0.99251394965E+02  0.14945704074E+03  0.21406419556E+03  0.27930579344E+03  0.00000000000E+00 0. -1.
          1    1    6    6  503    0  0.24356345958E+03 -0.24166010420E+03  0.87182264513E+03  0.93690847439E+03  0.00000000000E+00 0. -1.
         -1    1    6    6    0  503  0.89835249452E+02 -0.18528461069E+03  0.51323692533E+03  0.55300352668E+03  0.00000000000E+00 0.  1.
<mgrwt>
<rscale>  0 0.11731869E+04</rscale>
<asrwt>0</asrwt>
<pdfrwt beam="1">  1        2 0.37608546E+00 0.11731869E+04</pdfrwt>
<pdfrwt beam="2">  1       -1 0.21655146E-01 0.11731869E+04</pdfrwt>
<totfact> 0.75965225E+01</totfact>
</mgrwt>
</event>
<event>
12    7  0.1701638E-007  0.1526751E+04  0.7818608E-02  0.8866856E-01
          2   -1    0    0  501    0  0.00000000000E+00  0.00000000000E+00  0.17820182576E+04  0.17820182576E+04  0.00000000000E+00 0. -1.
         -1   -1    0    0    0  501 -0.00000000000E+00 -0.00000000000E+00 -0.32701238870E+03  0.32701238870E+03  0.00000000000E+00 0.  1.
         24    2    1    2    0    0  0.20499207850E+03  0.15239784293E+03  0.10587888830E+04  0.10921269166E+04  0.80376914128E+02 0.  0.
        254    2    1    2    0    0 -0.20499207850E+03 -0.15239784293E+03  0.39621698590E+03  0.10169037297E+04  0.90103187562E+03 0.  0.
         23    2    4    4    0    0 -0.24195115494E+03  0.25342325705E+03 -0.95002150596E+02  0.37205111268E+03  0.81442699132E+02 0.  0.
         23    2    4    4    0    0  0.36959076446E+02 -0.40582109997E+03  0.49121913650E+03  0.64485261707E+03  0.92097335256E+02 0.  0.
          4    1    3    3  502    0  0.17493819035E+03  0.92090115620E+02  0.85204349166E+03  0.87467826743E+03  0.00000000000E+00 0. -1.
         -3    1    3    3    0  502  0.30053888152E+02  0.60307727306E+02  0.20674539138E+03  0.21744864916E+03  0.00000000000E+00 0.  1.
         13    1    5    5    0    0 -0.18712700927E+03  0.22833985543E+03 -0.99641323903E+02  0.31158305571E+03  0.00000000000E+00 0.  1.
        -13    1    5    5    0    0 -0.54824145671E+02  0.25083401615E+02  0.46391733063E+01  0.60468056973E+02  0.00000000000E+00 0. -1.
          4    1    6    6  503    0  0.50646495445E+02 -0.39249658499E+03  0.44900837424E+03  0.59852080738E+03  0.00000000000E+00 0.  1.
         -4    1    6    6    0  503 -0.13687418999E+02 -0.13324514981E+02  0.42210762256E+02  0.46331809683E+02  0.00000000000E+00 0. -1.
<mgrwt>
<rscale>  0 0.15267509E+04</rscale>
<asrwt>0</asrwt>
<pdfrwt beam="1">  1        2 0.27415665E+00 0.15267509E+04</pdfrwt>
<pdfrwt beam="2">  1       -1 0.50309599E-01 0.15267509E+04</pdfrwt>
<totfact> 0.38473958E+01</totfact>
</mgrwt>
</event>
<event>
12    7  0.1701638E-007  0.2905884E+04  0.7818608E-02  0.8271129E-01
          2   -1    0    0  501    0  0.00000000000E+00  0.00000000000E+00  0.19959510395E+04  0.19959510395E+04  0.00000000000E+00 0. -1.
         -1   -1    0    0    0  501 -0.00000000000E+00 -0.00000000000E+00 -0.10576613700E+04  0.10576613700E+04  0.00000000000E+00 0.  1.
         24    2    1    2    0    0 -0.99693391920E+03  0.80528287904E+03  0.13236156020E+03  0.12907074162E+04  0.77770798453E+02 0.  0.
        254    2    1    2    0    0  0.99693391920E+03 -0.80528287904E+03  0.80592810929E+03  0.17629049933E+04  0.90330290790E+03 0.  0.
         23    2    4    4    0    0  0.91529018745E+03 -0.39951940517E+03  0.87604340725E+03  0.13313228158E+04  0.87157938473E+02 0.  0.
         23    2    4    4    0    0  0.81643731748E+02 -0.40576347387E+03 -0.70115297954E+02  0.43158217743E+03  0.10018645222E+03 0.  0.
          4    1    3    3  502    0 -0.90133473906E+02  0.94606138390E+02 -0.28081678306E+01  0.13069908319E+03  0.00000000000E+00 0. -1.
         -3    1    3    3    0  502 -0.90680044529E+03  0.71067674065E+03  0.13516972803E+03  0.11600083330E+04  0.00000000000E+00 0.  1.
         13    1    5    5    0    0  0.85196826530E+03 -0.34633846626E+03  0.80925373532E+03  0.12250272921E+04  0.00000000000E+00 0. -1.
        -13    1    5    5    0    0  0.63321922151E+02 -0.53180938907E+02  0.66789671930E+02  0.10629552373E+03  0.00000000000E+00 0.  1.
          4    1    6    6  503    0  0.34104177277E+02 -0.26742649176E+02 -0.13670250504E+02  0.45443810816E+02  0.00000000000E+00 0.  1.
         -4    1    6    6    0  503  0.47539554471E+02 -0.37902082470E+03 -0.56445047450E+02  0.38613836662E+03  0.00000000000E+00 0. -1.
<mgrwt>
<rscale>  0 0.29058839E+04</rscale>
<asrwt>0</asrwt>
<pdfrwt beam="1">  1        2 0.30706939E+00 0.29058839E+04</pdfrwt>
<pdfrwt beam="2">  1       -1 0.16271713E+00 0.29058839E+04</pdfrwt>
<totfact> 0.18371469E+00</totfact>
</mgrwt>
</event>
<event>
12    7  0.1701638E-007  0.1860129E+04  0.7818608E-02  0.8674961E-01
         -1   -1    0    0    0  501 -0.00000000000E+00  0.00000000000E+00  0.54486191986E+03  0.54486191986E+03  0.00000000000E+00 0.  1.
          2   -1    0    0  501    0  0.00000000000E+00 -0.00000000000E+00 -0.15875953047E+04  0.15875953047E+04  0.00000000000E+00 0. -1.
         24    2    1    2    0    0  0.65741537126E+03  0.26269468703E+03 -0.33390536755E+03  0.78485784135E+03  0.57494066506E+02 0.  0.
        254    2    1    2    0    0 -0.65741537126E+03 -0.26269468703E+03 -0.70882801728E+03  0.13475993832E+04  0.90132317765E+03 0.  0.
         23    2    4    4    0    0 -0.24581176553E+03 -0.15010082392E+02 -0.80758644270E+03  0.84911064769E+03  0.90245791834E+02 0.  0.
         23    2    4    4    0    0 -0.41160360573E+03 -0.24768460464E+03  0.98758425424E+02  0.49848873551E+03  0.89289423856E+02 0.  0.
          2    1    3    3  502    0  0.26622278098E+03  0.12791411312E+03 -0.16136313359E+03  0.33656299608E+03  0.00000000000E+00 0. -1.
         -1    1    3    3    0  502  0.39119259028E+03  0.13478057391E+03 -0.17254223396E+03  0.44829484527E+03  0.00000000000E+00 0.  1.
         13    1    5    5    0    0 -0.11963485034E+03 -0.50415430890E+02 -0.35794822939E+03  0.38076390062E+03  0.00000000000E+00 0.  1.
        -13    1    5    5    0    0 -0.12617691519E+03  0.35405348498E+02 -0.44963821330E+03  0.46834674707E+03  0.00000000000E+00 0. -1.
          1    1    6    6  503    0 -0.26562198719E+03 -0.19909855081E+03  0.42478193837E+02  0.33466351753E+03  0.00000000000E+00 0. -1.
         -1    1    6    6    0  503 -0.14598161855E+03 -0.48586053824E+02  0.56280231587E+02  0.16382521798E+03  0.00000000000E+00 0.  1.
<mgrwt>
<rscale>  0 0.18601293E+04</rscale>
<asrwt>0</asrwt>
<pdfrwt beam="1">  1        2 0.24424543E+00 0.18601293E+04</pdfrwt>
<pdfrwt beam="2">  1       -1 0.83824912E-01 0.18601293E+04</pdfrwt>
<totfact> 0.17114518E+01</totfact>
</mgrwt>
</event>
<event>
12    7  0.1701638E-007  0.1242219E+04  0.7818608E-02  0.9076684E-01
         -1   -1    0    0    0  501 -0.00000000000E+00  0.00000000000E+00  0.32986544219E+03  0.32986544219E+03  0.00000000000E+00 0.  1.
          2   -1    0    0  501    0  0.00000000000E+00 -0.00000000000E+00 -0.11694981444E+04  0.11694981444E+04  0.00000000000E+00 0. -1.
         24    2    1    2    0    0 -0.13647447864E+03 -0.89933592534E+02  0.80090704825E+02  0.19833935487E+03  0.78807641151E+02 0.  0.
        254    2    1    2    0    0  0.13647447864E+03  0.89933592534E+02 -0.91972340699E+03  0.13010242317E+04  0.90557140618E+03 0.  0.
         23    2    4    4    0    0  0.45340480244E+03  0.62581396370E+02 -0.83989348270E+03  0.96071648040E+03  0.89792802440E+02 0.  0.
         23    2    4    4    0    0 -0.31693032381E+03  0.27352196164E+02 -0.79829924290E+02  0.34030775129E+03  0.90794140757E+02 0.  0.
          4    1    3    3  502    0 -0.62330790698E+02 -0.28255376838E+00  0.11799808914E+02  0.63438496169E+02  0.00000000000E+00 0. -1.
         -3    1    3    3    0  502 -0.74143687938E+02 -0.89651038765E+02  0.68290895911E+02  0.13490085870E+03  0.00000000000E+00 0.  1.
         13    1    5    5    0    0  0.39877541265E+03  0.28104078443E+02 -0.75177080534E+03  0.85145229621E+03  0.00000000000E+00 0.  1.
        -13    1    5    5    0    0  0.54629389796E+02  0.34477317926E+02 -0.88122677365E+02  0.10926418419E+03  0.00000000000E+00 0. -1.
          1    1    6    6  503    0 -0.17408767293E+03 -0.30331711814E+02 -0.45643262032E+02  0.18250982980E+03  0.00000000000E+00 0. -1.
         -1    1    6    6    0  503 -0.14284265088E+03  0.57683907978E+02 -0.34186662257E+02  0.15779792149E+03  0.00000000000E+00 0.  1.
<mgrwt>
<rscale>  0 0.12422190E+04</rscale>
<asrwt>0</asrwt>
<pdfrwt beam="1">  1        2 0.17992279E+00 0.12422190E+04</pdfrwt>
<pdfrwt beam="2">  1       -1 0.50748529E-01 0.12422190E+04</pdfrwt>
<totfact> 0.86462120E+01</totfact>
</mgrwt>
</event>
<event>
12    7  0.1701638E-007  0.1228897E+04  0.7818608E-02  0.9087932E-01
         -1   -1    0    0    0  501 -0.00000000000E+00  0.00000000000E+00  0.34127987426E+03  0.34127987426E+03  0.00000000000E+00 0.  1.
          2   -1    0    0  501    0  0.00000000000E+00 -0.00000000000E+00 -0.11062680052E+04  0.11062680052E+04  0.00000000000E+00 0. -1.
         24    2    1    2    0    0 -0.16930414795E+03 -0.18100326095E+03 -0.31676262000E+02  0.26248588249E+03  0.80432443359E+02 0.  0.
        254    2    1    2    0    0  0.16930414795E+03  0.18100326095E+03 -0.73331186894E+03  0.11850619970E+04  0.89732912833E+03 0.  0.
         23    2    4    4    0    0 -0.29295792785E+03 -0.16138857303E+03 -0.29610267403E+03  0.45616349220E+03  0.92399778403E+02 0.  0.
         23    2    4    4    0    0  0.46226207580E+03  0.34239183398E+03 -0.43720919491E+03  0.72889850478E+03  0.96035178193E+02 0.  0.
          2    1    3    3  502    0 -0.11195369372E+03 -0.73586341183E+02 -0.41683837325E+02  0.14030723945E+03  0.00000000000E+00 0. -1.
         -3    1    3    3    0  502 -0.57350454228E+02 -0.10741691977E+03  0.10007575325E+02  0.12217864304E+03  0.00000000000E+00 0.  1.
         13    1    5    5    0    0  0.55568109819E+00 -0.17078974140E+02 -0.29963010811E+02  0.34493218986E+02  0.00000000000E+00 0. -1.
        -13    1    5    5    0    0 -0.29351360895E+03 -0.14430959889E+03 -0.26613966322E+03  0.42167027321E+03  0.00000000000E+00 0.  1.
          4    1    6    6  503    0  0.23268846084E+03  0.14745087493E+03 -0.15459011970E+03  0.31588571578E+03  0.00000000000E+00 0. -1.
         -4    1    6    6    0  503  0.22957361496E+03  0.19494095905E+03 -0.28261907521E+03  0.41301278900E+03  0.00000000000E+00 0.  1.
<mgrwt>
<rscale>  0 0.12288971E+04</rscale>
<asrwt>0</asrwt>
<pdfrwt beam="1">  1        2 0.17019508E+00 0.12288971E+04</pdfrwt>
<pdfrwt beam="2">  1       -1 0.52504595E-01 0.12288971E+04</pdfrwt>
<totfact> 0.88619435E+01</totfact>
</mgrwt>
</event>
<event>
12    7  0.1701638E-007  0.2173095E+04  0.7818608E-02  0.8529711E-01
         -1   -1    0    0    0  501 -0.00000000000E+00  0.00000000000E+00  0.53063333124E+03  0.53063333124E+03  0.00000000000E+00 0.  1.
          2   -1    0    0  501    0  0.00000000000E+00 -0.00000000000E+00 -0.22248604443E+04  0.22248604443E+04  0.00000000000E+00 0. -1.
         24    2    1    2    0    0 -0.19574395273E+03 -0.48449477309E+03 -0.16321748317E+04  0.17157753001E+04  0.82700175251E+02 0.  0.
        254    2    1    2    0    0  0.19574395273E+03  0.48449477309E+03 -0.62052281300E+02  0.10397184754E+04  0.89672355957E+03 0.  0.
         23    2    4    4    0    0 -0.20818407365E+02  0.33582086150E+03  0.38083092124E+03  0.51629790580E+03  0.91226530440E+02 0.  0.
         23    2    4    4    0    0  0.21656236010E+03  0.14867391159E+03 -0.44288320254E+03  0.52342056960E+03  0.93916845035E+02 0.  0.
          2    1    3    3  502    0 -0.15716805769E+03 -0.34101001972E+03 -0.12689003591E+04  0.13232905022E+04  0.00000000000E+00 0. -1.
         -3    1    3    3    0  502 -0.38575895048E+02 -0.14348475338E+03 -0.36327447264E+03  0.39248479792E+03  0.00000000000E+00 0.  1.
         13    1    5    5    0    0  0.16156202325E+02  0.12500130558E+03  0.88593508554E+02  0.15406219208E+03  0.00000000000E+00 0. -1.
        -13    1    5    5    0    0 -0.36974609690E+02  0.21081955591E+03  0.29223741269E+03  0.36223571372E+03  0.00000000000E+00 0.  1.
          4    1    6    6  503    0  0.27177014221E+02  0.20167563455E+02 -0.13860431029E+03  0.14267612116E+03  0.00000000000E+00 0. -1.
         -4    1    6    6    0  503  0.18938534588E+03  0.12850634814E+03 -0.30427889225E+03  0.38074444843E+03  0.00000000000E+00 0.  1.
<mgrwt>
<rscale>  0 0.21730947E+04</rscale>
<asrwt>0</asrwt>
<pdfrwt beam="1">  1        2 0.34228623E+00 0.21730947E+04</pdfrwt>
<pdfrwt beam="2">  1       -1 0.81635896E-01 0.21730947E+04</pdfrwt>
<totfact> 0.77863239E+00</totfact>
</mgrwt>
</event>
<event>
12    7  0.1701638E-007  0.1861005E+04  0.7818608E-02  0.8674514E-01
          2   -1    0    0  501    0  0.00000000000E+00  0.00000000000E+00  0.25712152353E+04  0.25712152353E+04  0.00000000000E+00 0. -1.
         -1   -1    0    0    0  501 -0.00000000000E+00 -0.00000000000E+00 -0.33674160656E+03  0.33674160656E+03  0.00000000000E+00 0.  1.
         24    2    1    2    0    0  0.53181829140E+02 -0.43004171414E+03  0.17313650212E+04  0.17865549729E+04  0.79935298129E+02 0.  0.
        254    2    1    2    0    0 -0.53181829140E+02  0.43004171414E+03  0.50310860755E+03  0.11214018689E+04  0.90369225835E+03 0.  0.
         23    2    4    4    0    0 -0.41270473558E+03  0.41272653046E+03  0.45879615460E+03  0.74789980274E+03  0.90508650089E+02 0.  0.
         23    2    4    4    0    0  0.35952290644E+03  0.17315183673E+02  0.44312452953E+02  0.37350206620E+03  0.89351352132E+02 0.  0.
          4    1    3    3  502    0  0.29315486134E+02 -0.33104771822E+03  0.14417609174E+04  0.14795697119E+04  0.00000000000E+00 0. -1.
         -3    1    3    3    0  502  0.23866343007E+02 -0.98993995917E+02  0.28960410378E+03  0.30698526102E+03  0.00000000000E+00 0.  1.
         13    1    5    5    0    0 -0.35101560601E+03  0.32081410612E+03  0.40592172816E+03  0.62522483615E+03  0.00000000000E+00 0. -1.
        -13    1    5    5    0    0 -0.61689129569E+02  0.91912424343E+02  0.52874426442E+02  0.12267496659E+03  0.00000000000E+00 0.  1.
          4    1    6    6  503    0  0.25254899432E+03 -0.28689212372E+02  0.24087781676E+02  0.25531213576E+03  0.00000000000E+00 0. -1.
         -4    1    6    6    0  503  0.10697391212E+03  0.46004396045E+02  0.20224671277E+02  0.11818993044E+03  0.00000000000E+00 0.  1.
<mgrwt>
<rscale>  0 0.18610053E+04</rscale>
<asrwt>0</asrwt>
<pdfrwt beam="1">  1        2 0.39557156E+00 0.18610053E+04</pdfrwt>
<pdfrwt beam="2">  1       -1 0.51806403E-01 0.18610053E+04</pdfrwt>
<totfact> 0.12706732E+01</totfact>
</mgrwt>
</event>
<event>
12    7  0.1701638E-007  0.1603068E+04  0.7818608E-02  0.8818665E-01
         -1   -1    0    0    0  501 -0.00000000000E+00  0.00000000000E+00  0.55545059744E+03  0.55545059744E+03  0.00000000000E+00 0.  1.
          2   -1    0    0  501    0  0.00000000000E+00 -0.00000000000E+00 -0.11566410198E+04  0.11566410198E+04  0.00000000000E+00 0. -1.
         24    2    1    2    0    0 -0.42471898980E+03  0.67545328169E+02 -0.56476184046E+03  0.71440593478E+03  0.80444462549E+02 0.  0.
        254    2    1    2    0    0  0.42471898980E+03 -0.67545328169E+02 -0.36428581852E+02  0.99768568242E+03  0.89950046563E+03 0.  0.
         23    2    4    4    0    0  0.19121672548E+03  0.18006149569E+03 -0.40280554150E+03  0.48917999614E+03  0.89770741456E+02 0.  0.
         23    2    4    4    0    0  0.23350226432E+03 -0.24760682385E+03  0.36637695965E+03  0.50850568628E+03  0.92268682416E+02 0.  0.
          2    1    3    3  502    0 -0.38349525864E+03  0.48535698771E+02 -0.46421312389E+03  0.60408455686E+03  0.00000000000E+00 0. -1.
         -1    1    3    3    0  502 -0.41223731165E+02  0.19009629398E+02 -0.10054871658E+03  0.11032137792E+03  0.00000000000E+00 0.  1.
         13    1    5    5    0    0  0.12732954769E+03  0.12538555343E+03 -0.19236947534E+03  0.26256497437E+03  0.00000000000E+00 0. -1.
        -13    1    5    5    0    0  0.63887177792E+02  0.54675942257E+02 -0.21043606616E+03  0.22661502176E+03  0.00000000000E+00 0.  1.
          3    1    6    6  503    0  0.14702850900E+03 -0.21314737069E+03  0.25609786110E+03  0.36419129390E+03  0.00000000000E+00 0. -1.
         -3    1    6    6    0  503  0.86473755321E+02 -0.34459453163E+02  0.11027909855E+03  0.14431439238E+03  0.00000000000E+00 0.  1.
<mgrwt>
<rscale>  0 0.16030682E+04</rscale>
<asrwt>0</asrwt>
<pdfrwt beam="1">  1        2 0.17794477E+00 0.16030682E+04</pdfrwt>
<pdfrwt beam="2">  1       -1 0.85453938E-01 0.16030682E+04</pdfrwt>
<totfact> 0.29766613E+01</totfact>
</mgrwt>
</event>
<event>
12    7  0.1701638E-007  0.3362399E+04  0.7818608E-02  0.8147197E-01
          2   -1    0    0  501    0  0.00000000000E+00  0.00000000000E+00  0.19593750861E+04  0.19593750861E+04  0.00000000000E+00 0. -1.
         -1   -1    0    0    0  501 -0.00000000000E+00 -0.00000000000E+00 -0.14425172643E+04  0.14425172643E+04  0.00000000000E+00 0.  1.
         24    2    1    2    0    0  0.63575610279E+03 -0.14150435498E+04  0.38415869245E+03  0.16001243571E+04  0.79284219015E+02 0.  0.
        254    2    1    2    0    0 -0.63575610279E+03  0.14150435498E+04  0.13269912938E+03  0.18017679932E+04  0.90676610686E+03 0.  0.
         23    2    4    4    0    0 -0.75812357040E+03  0.11986770138E+04  0.34570756654E+03  0.14626819014E+04  0.91360231199E+02 0.  0.
         23    2    4    4    0    0  0.12236746761E+03  0.21636653598E+03 -0.21300843716E+03  0.33908609181E+03  0.88422329402E+02 0.  0.
          2    1    3    3  502    0  0.42366048898E+02 -0.55119478468E+02  0.20076471769E+02  0.72360926780E+02  0.00000000000E+00 0. -1.
         -1    1    3    3    0  502  0.59339005389E+03 -0.13599240713E+04  0.36408222069E+03  0.15277634304E+04  0.00000000000E+00 0.  1.
         13    1    5    5    0    0 -0.32364253957E+03  0.59486582053E+03  0.17536851074E+03  0.69954553276E+03  0.00000000000E+00 0.  1.
        -13    1    5    5    0    0 -0.43448103083E+03  0.60381119325E+03  0.17033905579E+03  0.76313636866E+03  0.00000000000E+00 0. -1.
          4    1    6    6  503    0  0.11075865992E+03  0.16134200597E+03 -0.11753955730E+03  0.22828550363E+03  0.00000000000E+00 0. -1.
         -4    1    6    6    0  503  0.11608807684E+02  0.55024530006E+02 -0.95468879858E+02  0.11080058817E+03  0.00000000000E+00 0.  1.
<mgrwt>
<rscale>  0 0.33623994E+04</rscale>
<asrwt>0</asrwt>
<pdfrwt beam="1">  1        2 0.30144232E+00 0.33623994E+04</pdfrwt>
<pdfrwt beam="2">  1       -1 0.22192573E+00 0.33623994E+04</pdfrwt>
<totfact> 0.71075119E-01</totfact>
</mgrwt>
</event>
<event>
12    7  0.1701638E-007  0.1855025E+04  0.7818608E-02  0.8677573E-01
         -1   -1    0    0    0  501 -0.00000000000E+00  0.00000000000E+00  0.40478643703E+03  0.40478643703E+03  0.00000000000E+00 0.  1.
          2   -1    0    0  501    0  0.00000000000E+00 -0.00000000000E+00 -0.21252682779E+04  0.21252682779E+04  0.00000000000E+00 0. -1.
         24    2    1    2    0    0  0.54191776109E+03  0.25284142944E+03 -0.12108364068E+04  0.13528442216E+04  0.80368125982E+02 0.  0.
        254    2    1    2    0    0 -0.54191776109E+03 -0.25284142944E+03 -0.50964543408E+03  0.11772104933E+04  0.87663129587E+03 0.  0.
         23    2    4    4    0    0  0.13218555651E+03 -0.25940107014E+02  0.13643350394E+03  0.21172825207E+03  0.89826728901E+02 0.  0.
         23    2    4    4    0    0 -0.67410331760E+03 -0.22690132243E+03 -0.64607893801E+03  0.96548224126E+03  0.94013143376E+02 0.  0.
          4    1    3    3  502    0  0.52786028361E+03  0.24641954600E+03 -0.11385866118E+04  0.12789599463E+04  0.00000000000E+00 0. -1.
         -3    1    3    3    0  502  0.14057477480E+02  0.64218834458E+01 -0.72249795025E+02  0.73884275332E+02  0.00000000000E+00 0.  1.
         13    1    5    5    0    0  0.31620272601E+02  0.16359812867E+01  0.93926767743E+02  0.99119906037E+02  0.00000000000E+00 0. -1.
        -13    1    5    5    0    0  0.10056528391E+03 -0.27576088300E+02  0.42506736193E+02  0.11260834603E+03  0.00000000000E+00 0.  1.
          2    1    6    6  503    0 -0.72225184240E+01 -0.15966734160E+00 -0.26241507602E+02  0.27217769697E+02  0.00000000000E+00 0. -1.
         -2    1    6    6    0  503 -0.66688079918E+03 -0.22674165509E+03 -0.61983743041E+03  0.93826447157E+03  0.00000000000E+00 0.  1.
<mgrwt>
<rscale>  0 0.18550254E+04</rscale>
<asrwt>0</asrwt>
<pdfrwt beam="1">  1        2 0.32696435E+00 0.18550254E+04</pdfrwt>
<pdfrwt beam="2">  1       -1 0.62274836E-01 0.18550254E+04</pdfrwt>
<totfact> 0.15922403E+01</totfact>
</mgrwt>
</event>
<event>
12    7  0.1701638E-007  0.1961943E+04  0.7818608E-02  0.8624623E-01
          2   -1    0    0  501    0  0.00000000000E+00  0.00000000000E+00  0.22669063703E+04  0.22669063703E+04  0.00000000000E+00 0. -1.
         -1   -1    0    0    0  501 -0.00000000000E+00 -0.00000000000E+00 -0.42450135657E+03  0.42450135657E+03  0.00000000000E+00 0.  1.
         24    2    1    2    0    0  0.23880865580E+03 -0.27553401401E+03 -0.20498928389E+03  0.42538224062E+03  0.77336131049E+02 0.  0.
        254    2    1    2    0    0 -0.23880865580E+03  0.27553401401E+03  0.20473942977E+04  0.22660254863E+04  0.90005529133E+03 0.  0.
         23    2    4    4    0    0  0.67350959914E+02  0.44646186661E+03  0.17027209925E+04  0.17639153604E+04  0.90963016044E+02 0.  0.
         23    2    4    4    0    0 -0.30615961572E+03 -0.17092785261E+03  0.34467330520E+03  0.50211012591E+03  0.10180790798E+03 0.  0.
          4    1    3    3  502    0  0.71400194436E+02 -0.11194168237E+03 -0.38836379695E+02  0.13833724157E+03  0.00000000000E+00 0. -1.
         -1    1    3    3    0  502  0.16740846137E+03 -0.16359233163E+03 -0.16615290420E+03  0.28704499905E+03  0.00000000000E+00 0.  1.
         13    1    5    5    0    0  0.48311200636E+02  0.13664646910E+03  0.67291543868E+03  0.68834687276E+03  0.00000000000E+00 0. -1.
        -13    1    5    5    0    0  0.19039759278E+02  0.30981539752E+03  0.10298055538E+04  0.10755684876E+04  0.00000000000E+00 0.  1.
          4    1    6    6  503    0 -0.12602957458E+02  0.92454101387E+01  0.11904361472E+01  0.15675754640E+02  0.00000000000E+00 0. -1.
         -4    1    6    6    0  503 -0.29355665826E+03 -0.18017326275E+03  0.34348286906E+03  0.48643437127E+03  0.00000000000E+00 0.  1.
<mgrwt>
<rscale>  0 0.19619427E+04</rscale>
<asrwt>0</asrwt>
<pdfrwt beam="1">  1        2 0.34875482E+00 0.19619427E+04</pdfrwt>
<pdfrwt beam="2">  1       -1 0.65307903E-01 0.19619427E+04</pdfrwt>
<totfact> 0.11939420E+01</totfact>
</mgrwt>
</event>
<event>
12    7  0.1701638E-007  0.1406262E+04  0.7818608E-02  0.8949298E-01
         -1   -1    0    0    0  501 -0.00000000000E+00  0.00000000000E+00  0.97942905925E+02  0.97942905925E+02  0.00000000000E+00 0.  1.
          2   -1    0    0  501    0  0.00000000000E+00 -0.00000000000E+00 -0.50477694788E+04  0.50477694788E+04  0.00000000000E+00 0. -1.
         24    2    1    2    0    0 -0.11322697988E+03 -0.30958484063E+03 -0.24254953225E+04  0.24490465992E+04  0.78348983970E+02 0.  0.
        254    2    1    2    0    0  0.11322697988E+03  0.30958484063E+03 -0.25243312503E+04  0.26966657854E+04  0.88943519968E+03 0.  0.
         23    2    4    4    0    0  0.44252287953E+03  0.97859125396E+02 -0.18919149059E+04  0.19478869770E+04  0.97564115331E+02 0.  0.
         23    2    4    4    0    0 -0.32929589965E+03  0.21172571523E+03 -0.63241634442E+03  0.74877880844E+03  0.86346414329E+02 0.  0.
          4    1    3    3  502    0 -0.21861270058E+02 -0.62394520542E+02 -0.75528436869E+03  0.75817245328E+03  0.00000000000E+00 0. -1.
         -3    1    3    3    0  502 -0.91365709822E+02 -0.24719032009E+03 -0.16702109538E+04  0.16908741460E+04  0.00000000000E+00 0.  1.
         13    1    5    5    0    0  0.34362872764E+03  0.10887104319E+03 -0.13737557150E+04  0.14202599660E+04  0.00000000000E+00 0. -1.
        -13    1    5    5    0    0  0.98894151886E+02 -0.11011917797E+02 -0.51815919093E+03  0.52762701102E+03  0.00000000000E+00 0.  1.
          1    1    6    6  503    0 -0.89107043515E+02  0.81338730261E+02 -0.13370253212E+03  0.18009003676E+03  0.00000000000E+00 0. -1.
         -1    1    6    6    0  503 -0.24018885613E+03  0.13038698497E+03 -0.49871381230E+03  0.56868877168E+03  0.00000000000E+00 0.  1.
<mgrwt>
<rscale>  0 0.14062620E+04</rscale>
<asrwt>0</asrwt>
<pdfrwt beam="1">  1        2 0.77658008E+00 0.14062620E+04</pdfrwt>
<pdfrwt beam="2">  1       -1 0.15068136E-01 0.14062620E+04</pdfrwt>
<totfact> 0.11471553E+00</totfact>
</mgrwt>
</event>
<event>
12    7  0.1701638E-007  0.1771548E+04  0.7818608E-02  0.8721578E-01
          2   -1    0    0  501    0  0.00000000000E+00  0.00000000000E+00  0.10348756943E+04  0.10348756943E+04  0.00000000000E+00 0. -1.
         -1   -1    0    0    0  501 -0.00000000000E+00 -0.00000000000E+00 -0.75815404658E+03  0.75815404658E+03  0.00000000000E+00 0.  1.
         24    2    1    2    0    0  0.25452594235E+03 -0.13153083635E+03 -0.49269610959E+03  0.57550981286E+03  0.79864084869E+02 0.  0.
        254    2    1    2    0    0 -0.25452594235E+03  0.13153083635E+03  0.76941775736E+03  0.12175199281E+04  0.89903685890E+03 0.  0.
         23    2    4    4    0    0 -0.21300151615E+03 -0.36575139868E+03  0.39675946463E+03  0.58772327458E+03  0.94110802702E+02 0.  0.
         23    2    4    4    0    0 -0.41524426192E+02  0.49728223503E+03  0.37265829273E+03  0.62979665349E+03  0.93572016969E+02 0.  0.
          4    1    3    3  502    0  0.17134085325E+03 -0.12069861258E+03 -0.30669509010E+03  0.37146698557E+03  0.00000000000E+00 0. -1.
         -3    1    3    3    0  502  0.83185089093E+02 -0.10832223773E+02 -0.18600101949E+03  0.20404282729E+03  0.00000000000E+00 0.  1.
         13    1    5    5    0    0 -0.63571851710E+02 -0.14904328960E+03  0.97250494432E+02  0.18897867914E+03  0.00000000000E+00 0. -1.
        -13    1    5    5    0    0 -0.14942966444E+03 -0.21670810909E+03  0.29950897020E+03  0.39874459544E+03  0.00000000000E+00 0.  1.
          1    1    6    6  503    0 -0.62988512856E+02  0.45836353615E+03  0.34827011179E+03  0.57909995233E+03  0.00000000000E+00 0. -1.
         -1    1    6    6    0  503  0.21464086664E+02  0.38918698884E+02  0.24388180938E+02  0.50696701161E+02  0.00000000000E+00 0.  1.
<mgrwt>
<rscale>  0 0.17715476E+04</rscale>
<asrwt>0</asrwt>
<pdfrwt beam="1">  1        2 0.15921165E+00 0.17715476E+04</pdfrwt>
<pdfrwt beam="2">  1       -1 0.11663908E+00 0.17715476E+04</pdfrwt>
<totfact> 0.17137552E+01</totfact>
</mgrwt>
</event>
<event>
12    7  0.1701638E-007  0.1702878E+04  0.7818608E-02  0.8759725E-01
          2   -1    0    0  501    0  0.00000000000E+00  0.00000000000E+00  0.15239471878E+04  0.15239471878E+04  0.00000000000E+00 0. -1.
         -1   -1    0    0    0  501 -0.00000000000E+00 -0.00000000000E+00 -0.47570420801E+03  0.47570420801E+03  0.00000000000E+00 0.  1.
         24    2    1    2    0    0  0.16622506697E+03 -0.22151420519E+03  0.10099158358E+04  0.10500732475E+04  0.77617740730E+02 0.  0.
        254    2    1    2    0    0 -0.16622506697E+03  0.22151420519E+03  0.38327143983E+02  0.94957814832E+03  0.90748574303E+03 0.  0.
         23    2    4    4    0    0 -0.43600091309E+03  0.12098111531E+03 -0.25544418251E+03  0.52760321753E+03  0.91543422989E+02 0.  0.
         23    2    4    4    0    0  0.26977584613E+03  0.10053308988E+03  0.29377132649E+03  0.42197493079E+03  0.94209026273E+02 0.  0.
          4    1    3    3  502    0  0.16775391694E+03 -0.20982161545E+03  0.89213203976E+03  0.93170062967E+03  0.00000000000E+00 0. -1.
         -3    1    3    3    0  502 -0.15288499712E+01 -0.11692589743E+02  0.11778379605E+03  0.11837261781E+03  0.00000000000E+00 0.  1.
         13    1    5    5    0    0 -0.11019541514E+03  0.70477723858E+00 -0.32442431992E+02  0.11487400760E+03  0.00000000000E+00 0. -1.
        -13    1    5    5    0    0 -0.32580549795E+03  0.12027633807E+03 -0.22300175052E+03  0.41272920993E+03  0.00000000000E+00 0.  1.
          4    1    6    6  503    0  0.18152485359E+01 -0.10530417068E+02  0.22129155936E+02  0.24574058544E+02  0.00000000000E+00 0. -1.
         -4    1    6    6    0  503  0.26796059759E+03  0.11106350695E+03  0.27164217055E+03  0.39740087224E+03  0.00000000000E+00 0.  1.
<mgrwt>
<rscale>  0 0.17028777E+04</rscale>
<asrwt>0</asrwt>
<pdfrwt beam="1">  1        2 0.23445341E+00 0.17028777E+04</pdfrwt>
<pdfrwt beam="2">  1       -1 0.73185264E-01 0.17028777E+04</pdfrwt>
<totfact> 0.25098878E+01</totfact>
</mgrwt>
</event>
<event>
12    7  0.1701638E-007  0.1482544E+04  0.7818608E-02  0.8896144E-01
          4   -1    0    0  501    0  0.00000000000E+00  0.00000000000E+00  0.28592320422E+04  0.28592320422E+04  0.00000000000E+00 0. -1.
         -3   -1    0    0    0  501 -0.00000000000E+00 -0.00000000000E+00 -0.19217899959E+03  0.19217899959E+03  0.00000000000E+00 0.  1.
         24    2    1    2    0    0 -0.70737390852E+02  0.41632742428E+03  0.46830813177E+03  0.63564084922E+03  0.79965494021E+02 0.  0.
        254    2    1    2    0    0  0.70737390852E+02 -0.41632742428E+03  0.21987449108E+04  0.24157701925E+04  0.90726740143E+03 0.  0.
         23    2    4    4    0    0 -0.14841384493E+03 -0.36067200017E+03  0.21191230005E+04  0.21567362119E+04  0.93369348547E+02 0.  0.
         23    2    4    4    0    0  0.21915123578E+03 -0.55655424110E+02  0.79621910282E+02  0.25903398065E+03  0.98153778102E+02 0.  0.
          4    1    3    3  502    0 -0.53552405577E+01  0.47612794374E+02  0.97546595524E+02  0.10867840212E+03  0.00000000000E+00 0. -1.
         -3    1    3    3    0  502 -0.65382150295E+02  0.36871462991E+03  0.37076153625E+03  0.52696244709E+03  0.00000000000E+00 0.  1.
         13    1    5    5    0    0 -0.12029249331E+03 -0.35111758420E+03  0.19442306711E+04  0.19793399770E+04  0.00000000000E+00 0. -1.
        -13    1    5    5    0    0 -0.28121351617E+02 -0.95544159714E+01  0.17489232942E+03  0.17739623494E+03  0.00000000000E+00 0.  1.
          3    1    6    6  503    0  0.90175490715E+02  0.25903305803E+02  0.27285678108E+02  0.97709306655E+02  0.00000000000E+00 0. -1.
         -3    1    6    6    0  503  0.12897574507E+03 -0.81558729913E+02  0.52336232175E+02  0.16132467399E+03  0.00000000000E+00 0.  1.
<mgrwt>
<rscale>  0 0.14825442E+04</rscale>
<asrwt>0</asrwt>
<pdfrwt beam="1">  1        4 0.43988182E+00 0.14825442E+04</pdfrwt>
<pdfrwt beam="2">  1       -3 0.29566002E-01 0.14825442E+04</pdfrwt>
<totfact> 0.88589740E-02</totfact>
</mgrwt>
</event>
<event>
12    7  0.1701638E-007  0.1296202E+04  0.7818608E-02  0.9032583E-01
          2   -1    0    0  501    0  0.00000000000E+00  0.00000000000E+00  0.28692914166E+04  0.28692914166E+04  0.00000000000E+00 0. -1.
         -3   -1    0    0    0  501 -0.00000000000E+00 -0.00000000000E+00 -0.14638973031E+03  0.14638973031E+03  0.00000000000E+00 0.  1.
         24    2    1    2    0    0 -0.14595172897E+01  0.11239555492E+03  0.14058050091E+04  0.14126211231E+04  0.81091448798E+02 0.  0.
        254    2    1    2    0    0  0.14595172897E+01 -0.11239555492E+03  0.13170966772E+04  0.16030600237E+04  0.90687534517E+03 0.  0.
         23    2    4    4    0    0  0.23229469539E+03  0.14689077525E+03  0.59730691051E+02  0.29556789436E+03  0.90856476753E+02 0.  0.
         23    2    4    4    0    0 -0.23083517810E+03 -0.25928633017E+03  0.12573659862E+04  0.13074921294E+04  0.89733855371E+02 0.  0.
          4    1    3    3  502    0 -0.24614636775E+01  0.64105287538E+02  0.11783130982E+04  0.11800581783E+04  0.00000000000E+00 0. -1.
         -3    1    3    3    0  502  0.10019463878E+01  0.48290267383E+02  0.22749191086E+03  0.23256294487E+03  0.00000000000E+00 0.  1.
         13    1    5    5    0    0  0.50583481243E+02  0.79962967152E+02  0.32352734358E+02  0.99997320518E+02  0.00000000000E+00 0. -1.
        -13    1    5    5    0    0  0.18171121414E+03  0.66927808096E+02  0.27377956693E+02  0.19557057385E+03  0.00000000000E+00 0.  1.
          2    1    6    6  503    0 -0.21112679435E+03 -0.18385208642E+03  0.10144204089E+04  0.10523425673E+04  0.00000000000E+00 0.  1.
         -2    1    6    6    0  503 -0.19708383741E+02 -0.75434243744E+02  0.24294557727E+03  0.25514956209E+03  0.00000000000E+00 0. -1.
<mgrwt>
<rscale>  0 0.12962018E+04</rscale>
<asrwt>0</asrwt>
<pdfrwt beam="1">  1        2 0.44142941E+00 0.12962018E+04</pdfrwt>
<pdfrwt beam="2">  1       -3 0.22521499E-01 0.12962018E+04</pdfrwt>
<totfact> 0.25048826E+01</totfact>
</mgrwt>
</event>
<event>
12    7  0.1701638E-007  0.1434830E+04  0.7818608E-02  0.8928986E-01
         -1   -1    0    0    0  501 -0.00000000000E+00  0.00000000000E+00  0.22009439266E+03  0.22009439266E+03  0.00000000000E+00 0.  1.
          2   -1    0    0  501    0  0.00000000000E+00 -0.00000000000E+00 -0.23384693843E+04  0.23384693843E+04  0.00000000000E+00 0. -1.
         24    2    1    2    0    0 -0.14350416367E+03  0.25337761221E+03 -0.12072171585E+04  0.12444045647E+04  0.79848565745E+02 0.  0.
        254    2    1    2    0    0  0.14350416367E+03 -0.25337761221E+03 -0.91115783318E+03  0.13141592123E+04  0.90111718384E+03 0.  0.
         23    2    4    4    0    0  0.47839414278E+03  0.19535239299E+02 -0.34789480520E+03  0.59906104306E+03  0.92740263145E+02 0.  0.
         23    2    4    4    0    0 -0.33488997910E+03 -0.27291285151E+03 -0.56326302798E+03  0.71509816927E+03  0.86414294976E+02 0.  0.
          4    1    3    3  502    0 -0.11278498626E+03  0.20652347307E+03 -0.81792653039E+03  0.85110293570E+03  0.00000000000E+00 0. -1.
         -3    1    3    3    0  502 -0.30719177416E+02  0.46854139138E+02 -0.38929062811E+03  0.39330162897E+03  0.00000000000E+00 0.  1.
         13    1    5    5    0    0  0.70315455535E+02 -0.29247325182E+02 -0.65017984323E+02  0.10013494696E+03  0.00000000000E+00 0. -1.
        -13    1    5    5    0    0  0.40807868724E+03  0.48782564481E+02 -0.28287682088E+03  0.49892609610E+03  0.00000000000E+00 0.  1.
          2    1    6    6  503    0 -0.30552342173E+03 -0.20951515854E+03 -0.48227718606E+03  0.60813850978E+03  0.00000000000E+00 0. -1.
         -2    1    6    6    0  503 -0.29366557374E+02 -0.63397692973E+02 -0.80985841926E+02  0.10695965949E+03  0.00000000000E+00 0.  1.
<mgrwt>
<rscale>  0 0.14348296E+04</rscale>
<asrwt>0</asrwt>
<pdfrwt beam="1">  1        2 0.35976450E+00 0.14348296E+04</pdfrwt>
<pdfrwt beam="2">  1       -1 0.33860677E-01 0.14348296E+04</pdfrwt>
<totfact> 0.39333327E+01</totfact>
</mgrwt>
</event>
<event>
12    7  0.1701638E-007  0.2219180E+04  0.7818608E-02  0.8510487E-01
         -1   -1    0    0    0  501 -0.00000000000E+00  0.00000000000E+00  0.12239061448E+04  0.12239061448E+04  0.00000000000E+00 0.  1.
          2   -1    0    0  501    0  0.00000000000E+00 -0.00000000000E+00 -0.10059510017E+04  0.10059510017E+04  0.00000000000E+00 0. -1.
         24    2    1    2    0    0 -0.74084190512E+03  0.24933488339E+03 -0.40879724121E+03  0.88576171855E+03  0.80274685726E+02 0.  0.
        254    2    1    2    0    0  0.74084190512E+03 -0.24933488339E+03  0.62675238438E+03  0.13440954280E+04  0.89596838989E+03 0.  0.
         23    2    4    4    0    0  0.74309203872E+03 -0.50926055771E+03  0.55003984758E+03  0.10589750350E+04  0.85744953654E+02 0.  0.
         23    2    4    4    0    0 -0.22501336006E+01  0.25992567432E+03  0.76712536800E+02  0.28512039301E+03  0.88557359597E+02 0.  0.
          4    1    3    3  502    0 -0.44096163577E+03  0.12503702297E+03 -0.20212494380E+03  0.50093503994E+03  0.00000000000E+00 0. -1.
         -3    1    3    3    0  502 -0.29988026934E+03  0.12429786043E+03 -0.20667229742E+03  0.38482667861E+03  0.00000000000E+00 0.  1.
         13    1    5    5    0    0  0.58445136855E+01 -0.17608790753E+02  0.14747340193E+02  0.23700461910E+02  0.00000000000E+00 0.  1.
        -13    1    5    5    0    0  0.73724752503E+03 -0.49165176696E+03  0.53529250739E+03  0.10352745730E+04  0.00000000000E+00 0. -1.
          1    1    6    6  503    0  0.22912357917E+02  0.21431981150E+03  0.34945285260E+02  0.21835551449E+03  0.00000000000E+00 0. -1.
         -1    1    6    6    0  503 -0.25162491518E+02  0.45605862813E+02  0.41767251539E+02  0.66764878517E+02  0.00000000000E+00 0.  1.
<mgrwt>
<rscale>  0 0.22191797E+04</rscale>
<asrwt>0</asrwt>
<pdfrwt beam="1">  1        2 0.15476169E+00 0.22191797E+04</pdfrwt>
<pdfrwt beam="2">  1       -1 0.18829325E+00 0.22191797E+04</pdfrwt>
<totfact> 0.47202485E+00</totfact>
</mgrwt>
</event>
<event>
12    7  0.1701638E-007  0.1718654E+04  0.7818608E-02  0.8750796E-01
         -1   -1    0    0    0  501 -0.00000000000E+00  0.00000000000E+00  0.32688304189E+03  0.32688304189E+03  0.00000000000E+00 0.  1.
          2   -1    0    0  501    0  0.00000000000E+00 -0.00000000000E+00 -0.22590429303E+04  0.22590429303E+04  0.00000000000E+00 0. -1.
         24    2    1    2    0    0 -0.99036082213E+01  0.13308260767E+03  0.20706899778E+03  0.25842142740E+03  0.78070496234E+02 0.  0.
        254    2    1    2    0    0  0.99036082213E+01 -0.13308260767E+03 -0.21392288862E+04  0.23275045448E+04  0.90728612718E+03 0.  0.
         23    2    4    4    0    0 -0.35968089967E+03 -0.32010965435E+03 -0.10281303566E+04  0.11388819412E+04  0.90329981324E+02 0.  0.
         23    2    4    4    0    0  0.36958450790E+03  0.18702704669E+03 -0.11110985297E+04  0.11886226036E+04  0.81926348184E+02 0.  0.
          2    1    3    3  502    0  0.16369490732E+02 -0.46515065551E+00  0.10949122549E+02  0.19699235431E+02  0.00000000000E+00 0. -1.
         -1    1    3    3    0  502 -0.26273098953E+02  0.13354775832E+03  0.19611987523E+03  0.23872219197E+03  0.00000000000E+00 0.  1.
         13    1    5    5    0    0 -0.10401812596E+03 -0.61054581767E+02 -0.33409070449E+03  0.35519576477E+03  0.00000000000E+00 0.  1.
        -13    1    5    5    0    0 -0.25566277371E+03 -0.25905507259E+03 -0.69403965210E+03  0.78368617646E+03  0.00000000000E+00 0. -1.
          1    1    6    6  503    0  0.23935087222E+03  0.15682007928E+03 -0.81396858320E+03  0.86280138602E+03  0.00000000000E+00 0. -1.
         -1    1    6    6    0  503  0.13023363568E+03  0.30206967411E+02 -0.29712994646E+03  0.32582121758E+03  0.00000000000E+00 0.  1.
<mgrwt>
<rscale>  0 0.17186539E+04</rscale>
<asrwt>0</asrwt>
<pdfrwt beam="1">  1        2 0.34754506E+00 0.17186539E+04</pdfrwt>
<pdfrwt beam="2">  1       -1 0.50289699E-01 0.17186539E+04</pdfrwt>
<totfact> 0.20556424E+01</totfact>
</mgrwt>
</event>
<event>
12    7  0.1701638E-007  0.1967188E+04  0.7818608E-02  0.8622117E-01
          2   -1    0    0  501    0  0.00000000000E+00  0.00000000000E+00  0.22715992593E+04  0.22715992593E+04  0.00000000000E+00 0. -1.
         -1   -1    0    0    0  501 -0.00000000000E+00 -0.00000000000E+00 -0.42589248054E+03  0.42589248054E+03  0.00000000000E+00 0.  1.
         24    2    1    2    0    0 -0.19512541002E+03  0.38624224139E+03  0.16118843344E+04  0.16710634538E+04  0.83815061155E+02 0.  0.
        254    2    1    2    0    0  0.19512541002E+03 -0.38624224139E+03  0.23382244439E+03  0.10264282861E+04  0.90090237888E+03 0.  0.
         23    2    4    4    0    0  0.27487513329E+03 -0.31799641722E+03 -0.26727209584E+03  0.50616652380E+03  0.89956191218E+02 0.  0.
         23    2    4    4    0    0 -0.79749723265E+02 -0.68245824175E+02  0.50109454023E+03  0.52026176227E+03  0.92515145536E+02 0.  0.
          4    1    3    3  502    0 -0.19429743299E+03  0.39000754876E+03  0.16057517450E+04  0.16638197160E+04  0.00000000000E+00 0. -1.
         -3    1    3    3    0  502 -0.82797703028E+00 -0.37653073641E+01  0.61325893599E+01  0.72437378311E+01  0.00000000000E+00 0.  1.
         13    1    5    5    0    0  0.18353583225E+03 -0.16070188317E+03 -0.18687628540E+03  0.30729992356E+03  0.00000000000E+00 0.  1.
        -13    1    5    5    0    0  0.91339301037E+02 -0.15729453405E+03 -0.80395810439E+02  0.19886660024E+03  0.00000000000E+00 0. -1.
          4    1    6    6  503    0 -0.11001403950E+02  0.22075487894E+02  0.61819757989E+02  0.66558549657E+02  0.00000000000E+00 0. -1.
         -4    1    6    6    0  503 -0.68748319315E+02 -0.90321312069E+02  0.43927478224E+03  0.45370321262E+03  0.00000000000E+00 0.  1.
<mgrwt>
<rscale>  0 0.19671879E+04</rscale>
<asrwt>0</asrwt>
<pdfrwt beam="1">  1        2 0.34947680E+00 0.19671879E+04</pdfrwt>
<pdfrwt beam="2">  1       -1 0.65521922E-01 0.19671879E+04</pdfrwt>
<totfact> 0.11783228E+01</totfact>
</mgrwt>
</event>
<event>
12    7  0.1701638E-007  0.1599124E+04  0.7818608E-02  0.8821087E-01
         -1   -1    0    0    0  501 -0.00000000000E+00  0.00000000000E+00  0.69778748822E+03  0.69778748822E+03  0.00000000000E+00 0.  1.
          2   -1    0    0  501    0  0.00000000000E+00 -0.00000000000E+00 -0.91618031742E+03  0.91618031742E+03  0.00000000000E+00 0. -1.
         24    2    1    2    0    0 -0.14840073145E+02 -0.10325413452E+03  0.46066646020E+03  0.47917737170E+03  0.80720021851E+02 0.  0.
        254    2    1    2    0    0  0.14840073145E+02  0.10325413452E+03 -0.67905928940E+03  0.11347904339E+04  0.90318667306E+03 0.  0.
         23    2    4    4    0    0 -0.27785181157E+03  0.13160116705E+03  0.67272824127E+02  0.32783510210E+03  0.91813533559E+02 0.  0.
         23    2    4    4    0    0  0.29269188471E+03 -0.28347032524E+02 -0.74633211353E+03  0.80695533184E+03  0.87710833275E+02 0.  0.
          4    1    3    3  502    0 -0.17356151103E+02  0.82793584012E+01  0.48324087206E+02  0.52009625657E+02  0.00000000000E+00 0. -1.
         -3    1    3    3    0  502  0.25160779585E+01 -0.11153349292E+03  0.41234237299E+03  0.42716774604E+03  0.00000000000E+00 0.  1.
         13    1    5    5    0    0 -0.26059991620E+03  0.11454523765E+03  0.85797370898E+02  0.29731148085E+03  0.00000000000E+00 0.  1.
        -13    1    5    5    0    0 -0.17251895371E+02  0.17055929398E+02 -0.18524546771E+02  0.30523621256E+02  0.00000000000E+00 0. -1.
          4    1    6    6  503    0  0.29728322190E+03 -0.32284712013E+02 -0.74029872643E+03  0.79841206217E+03  0.00000000000E+00 0.  1.
         -4    1    6    6    0  503 -0.45913371862E+01  0.39376794892E+01 -0.60333870952E+01  0.85432696761E+01  0.00000000000E+00 0. -1.
<mgrwt>
<rscale>  0 0.15991237E+04</rscale>
<asrwt>0</asrwt>
<pdfrwt beam="1">  1        2 0.14095082E+00 0.15991237E+04</pdfrwt>
<pdfrwt beam="2">  1       -1 0.10735192E+00 0.15991237E+04</pdfrwt>
<totfact> 0.25302326E+01</totfact>
</mgrwt>
</event>
<event>
12    7  0.1701638E-007  0.1926544E+04  0.7818608E-02  0.8641755E-01
          2   -1    0    0  501    0  0.00000000000E+00  0.00000000000E+00  0.31315923622E+04  0.31315923622E+04  0.00000000000E+00 0. -1.
         -1   -1    0    0    0  501 -0.00000000000E+00 -0.00000000000E+00 -0.29630073802E+03  0.29630073802E+03  0.00000000000E+00 0.  1.
         24    2    1    2    0    0 -0.56280631386E+02 -0.47720815242E+03  0.86524277935E+02  0.49464199910E+03  0.79304012462E+02 0.  0.
        254    2    1    2    0    0  0.56280631386E+02  0.47720815242E+03  0.27487673462E+04  0.29332511011E+04  0.90407132918E+03 0.  0.
         23    2    4    4    0    0  0.91053286956E+01  0.26146968296E+03  0.26665234006E+04  0.26813017605E+04  0.10287265395E+03 0.  0.
         23    2    4    4    0    0  0.47175302690E+02  0.21573846946E+03  0.82243945641E+02  0.25194934060E+03  0.89139257585E+02 0.  0.
          4    1    3    3  502    0 -0.22565606658E+02 -0.34373826083E+02 -0.42704217446E+01  0.41340089808E+02  0.00000000000E+00 0. -1.
         -3    1    3    3    0  502 -0.33715024728E+02 -0.44283432634E+03  0.90794699679E+02  0.45330190929E+03  0.00000000000E+00 0.  1.
         13    1    5    5    0    0 -0.14451364484E+02  0.58641875970E+02  0.10807287003E+04  0.10824150013E+04  0.00000000000E+00 0.  1.
        -13    1    5    5    0    0  0.23556693180E+02  0.20282780699E+03  0.15857947003E+04  0.15988867591E+04  0.00000000000E+00 0. -1.
          2    1    6    6  503    0  0.15133679547E+02  0.19095173491E+03  0.44655368287E+02  0.19668679477E+03  0.00000000000E+00 0. -1.
         -2    1    6    6    0  503  0.32041623143E+02  0.24786734554E+02  0.37588577355E+02  0.55262545825E+02  0.00000000000E+00 0.  1.
<mgrwt>
<rscale>  0 0.19265442E+04</rscale>
<asrwt>0</asrwt>
<pdfrwt beam="1">  1        2 0.48178342E+00 0.19265442E+04</pdfrwt>
<pdfrwt beam="2">  1       -1 0.45584731E-01 0.19265442E+04</pdfrwt>
<totfact> 0.73309774E+00</totfact>
</mgrwt>
</event>
<event>
12    7  0.1701638E-007  0.1778582E+04  0.7818608E-02  0.8717773E-01
          2   -1    0    0  501    0  0.00000000000E+00  0.00000000000E+00  0.18415637975E+04  0.18415637975E+04  0.00000000000E+00 0. -1.
         -1   -1    0    0    0  501 -0.00000000000E+00 -0.00000000000E+00 -0.42943867560E+03  0.42943867560E+03  0.00000000000E+00 0.  1.
         24    2    1    2    0    0  0.58238901405E+03 -0.90455349099E+02  0.97316599647E+03  0.11405271029E+04  0.79942991955E+02 0.  0.
        254    2    1    2    0    0 -0.58238901405E+03  0.90455349099E+02  0.43895912539E+03  0.11304753701E+04  0.85902870431E+03 0.  0.
         23    2    4    4    0    0 -0.69325897524E+03 -0.91075444740E+02  0.88664999149E+02  0.71059990786E+03  0.90487587980E+02 0.  0.
         23    2    4    4    0    0  0.11086996119E+03  0.18153079384E+03  0.35029412625E+03  0.41987546227E+03  0.91344685289E+02 0.  0.
          2    1    3    3  502    0  0.54193063995E+03 -0.85252131557E+02  0.85840962987E+03  0.10187363924E+04  0.00000000000E+00 0. -1.
         -1    1    3    3    0  502  0.40458374104E+02 -0.52032175420E+01  0.11475636659E+03  0.12179071057E+03  0.00000000000E+00 0.  1.
         13    1    5    5    0    0 -0.29232336197E+02 -0.15358065134E+02  0.20349248370E+02  0.38787775825E+02  0.00000000000E+00 0.  1.
        -13    1    5    5    0    0 -0.66402663905E+03 -0.75717379606E+02  0.68315750778E+02  0.67181213203E+03  0.00000000000E+00 0. -1.
          3    1    6    6  503    0  0.10113798558E+03  0.18246131446E+03  0.35272638748E+03  0.40980108325E+03  0.00000000000E+00 0. -1.
         -3    1    6    6    0  503  0.97319756181E+01 -0.93052062419E+00 -0.24322612386E+01  0.10074379028E+02  0.00000000000E+00 0.  1.
<mgrwt>
<rscale>  0 0.17785823E+04</rscale>
<asrwt>0</asrwt>
<pdfrwt beam="1">  1        2 0.28331750E+00 0.17785823E+04</pdfrwt>
<pdfrwt beam="2">  1       -1 0.66067490E-01 0.17785823E+04</pdfrwt>
<totfact> 0.20461990E+01</totfact>
</mgrwt>
</event>
<event>
12    7  0.1701638E-007  0.2497654E+04  0.7818608E-02  0.8403822E-01
         -1   -1    0    0    0  501 -0.00000000000E+00  0.00000000000E+00  0.12234654500E+04  0.12234654500E+04  0.00000000000E+00 0.  1.
          2   -1    0    0  501    0  0.00000000000E+00 -0.00000000000E+00 -0.12747137807E+04  0.12747137807E+04  0.00000000000E+00 0. -1.
         24    2    1    2    0    0  0.28637693049E+03  0.30564669350E+03 -0.10238822681E+04  0.11093262383E+04  0.82693146857E+02 0.  0.
        254    2    1    2    0    0 -0.28637693049E+03 -0.30564669350E+03  0.97263393737E+03  0.13888529924E+04  0.89859012395E+03 0.  0.
         23    2    4    4    0    0 -0.46602440894E+03  0.65804711258E+02  0.80418214051E+03  0.93617024161E+03  0.90536160813E+02 0.  0.
         23    2    4    4    0    0  0.17964747845E+03 -0.37145140476E+03  0.16845179686E+03  0.45268275081E+03  0.79349243259E+02 0.  0.
          2    1    3    3  502    0  0.17649993829E+03  0.24249856775E+03 -0.73753902480E+03  0.79619193457E+03  0.00000000000E+00 0. -1.
         -1    1    3    3    0  502  0.10987699220E+03  0.63148125756E+02 -0.28634324327E+03  0.31313430372E+03  0.00000000000E+00 0.  1.
         13    1    5    5    0    0 -0.41748583496E+03  0.73267110017E+02  0.75952245311E+03  0.86979126725E+03  0.00000000000E+00 0. -1.
        -13    1    5    5    0    0 -0.48538573977E+02 -0.74623987589E+01  0.44659687403E+02  0.66378974367E+02  0.00000000000E+00 0.  1.
          1    1    6    6  503    0  0.14120217959E+03 -0.24254489574E+03  0.80520370580E+02  0.29197536206E+03  0.00000000000E+00 0. -1.
         -1    1    6    6    0  503  0.38445298856E+02 -0.12890650902E+03  0.87931426282E+02  0.16070738875E+03  0.00000000000E+00 0.  1.
<mgrwt>
<rscale>  0 0.24976535E+04</rscale>
<asrwt>0</asrwt>
<pdfrwt beam="1">  1        2 0.19610981E+00 0.24976535E+04</pdfrwt>
<pdfrwt beam="2">  1       -1 0.18822545E+00 0.24976535E+04</pdfrwt>
<totfact> 0.31620467E+00</totfact>
</mgrwt>
</event>
<event>
12    7  0.1701638E-007  0.3012717E+04  0.7818608E-02  0.8240109E-01
          2   -1    0    0  501    0  0.00000000000E+00  0.00000000000E+00  0.17945747071E+04  0.17945747071E+04  0.00000000000E+00 0. -1.
         -1   -1    0    0    0  501 -0.00000000000E+00 -0.00000000000E+00 -0.12644309637E+04  0.12644309637E+04  0.00000000000E+00 0.  1.
         24    2    1    2    0    0 -0.59376417972E+03 -0.37126246728E+03  0.14316459576E+04  0.15957272459E+04  0.79646561465E+02 0.  0.
        254    2    1    2    0    0  0.59376417972E+03  0.37126246728E+03 -0.90150221426E+03  0.14632784249E+04  0.91547025381E+03 0.  0.
         23    2    4    4    0    0  0.28563634425E+03 -0.21652385266E+03 -0.65022132814E+03  0.74806838194E+03  0.91366452027E+02 0.  0.
         23    2    4    4    0    0  0.30812783547E+03  0.58778631995E+03 -0.25128088612E+03  0.71521004292E+03  0.89150439485E+02 0.  0.
          2    1    3    3  502    0 -0.42981317153E+03 -0.26288642202E+03  0.11063271495E+04  0.12156514283E+04  0.00000000000E+00 0. -1.
         -1    1    3    3    0  502 -0.16395100819E+03 -0.10837604527E+03  0.32531880807E+03  0.38007581765E+03  0.00000000000E+00 0.  1.
         13    1    5    5    0    0  0.38871888529E+02 -0.53015461427E+02 -0.18819234096E+03  0.19934397423E+03  0.00000000000E+00 0. -1.
        -13    1    5    5    0    0  0.24676445572E+03 -0.16350839124E+03 -0.46202898719E+03  0.54872440771E+03  0.00000000000E+00 0.  1.
          4    1    6    6  503    0  0.60754202554E+01 -0.23571879380E+01 -0.10260472843E+01  0.65969568200E+01  0.00000000000E+00 0. -1.
         -4    1    6    6    0  503  0.30205241521E+03  0.59014350788E+03 -0.25025483883E+03  0.70861308610E+03  0.00000000000E+00 0.  1.
<mgrwt>
<rscale>  0 0.30127169E+04</rscale>
<asrwt>0</asrwt>
<pdfrwt beam="1">  1        2 0.27608842E+00 0.30127169E+04</pdfrwt>
<pdfrwt beam="2">  1       -1 0.19452784E+00 0.30127169E+04</pdfrwt>
<totfact> 0.13889046E+00</totfact>
</mgrwt>
</event>
<event>
12    7  0.1701638E-007  0.2855266E+04  0.7818608E-02  0.8286313E-01
          2   -1    0    0  501    0  0.00000000000E+00  0.00000000000E+00  0.34030357327E+04  0.34030357327E+04  0.00000000000E+00 0. -1.
         -1   -1    0    0    0  501 -0.00000000000E+00 -0.00000000000E+00 -0.59891686853E+03  0.59891686853E+03  0.00000000000E+00 0.  1.
         24    2    1    2    0    0 -0.28087564585E+03  0.82290822955E+03 -0.71388144086E+02  0.87611349757E+03  0.80059420478E+02 0.  0.
        254    2    1    2    0    0  0.28087564585E+03 -0.82290822955E+03  0.28755070083E+04  0.31258391037E+04  0.86386368415E+03 0.  0.
         23    2    4    4    0    0  0.28281628265E+03 -0.98112977167E+03  0.22149353707E+04  0.24404668038E+04  0.85667062860E+02 0.  0.
         23    2    4    4    0    0 -0.19406368020E+01  0.15822154211E+03  0.66057163762E+03  0.68537229989E+03  0.91337169699E+02 0.  0.
          2    1    3    3  502    0 -0.19605016990E+01  0.46707577204E+02  0.83055553232E+01  0.47480770680E+02  0.00000000000E+00 0. -1.
         -1    1    3    3    0  502 -0.27891514415E+03  0.77620065235E+03 -0.79693699409E+02  0.82863272689E+03  0.00000000000E+00 0.  1.
         13    1    5    5    0    0  0.10977740294E+03 -0.39045634148E+03  0.98104578979E+03  0.10615828156E+04  0.00000000000E+00 0.  1.
        -13    1    5    5    0    0  0.17303887972E+03 -0.59067343018E+03  0.12338895809E+04  0.13788839882E+04  0.00000000000E+00 0. -1.
          4    1    6    6  503    0  0.15654000045E+02  0.60312287029E+02  0.42666631122E+03  0.43119225505E+03  0.00000000000E+00 0. -1.
         -4    1    6    6    0  503 -0.17594636847E+02  0.97909255085E+02  0.23390532640E+03  0.25418004484E+03  0.00000000000E+00 0.  1.
<mgrwt>
<rscale>  0 0.28552657E+04</rscale>
<asrwt>0</asrwt>
<pdfrwt beam="1">  1        2 0.52354395E+00 0.28552657E+04</pdfrwt>
<pdfrwt beam="2">  1       -1 0.92141058E-01 0.28552657E+04</pdfrwt>
<totfact> 0.10704498E+00</totfact>
</mgrwt>
</event>
<event>
12    7  0.1701638E-007  0.1908606E+04  0.7818608E-02  0.8650585E-01
         -1   -1    0    0    0  501 -0.00000000000E+00  0.00000000000E+00  0.40515303610E+03  0.40515303610E+03  0.00000000000E+00 0.  1.
          2   -1    0    0  501    0  0.00000000000E+00 -0.00000000000E+00 -0.22477772840E+04  0.22477772840E+04  0.00000000000E+00 0. -1.
         24    2    1    2    0    0  0.63874688919E+03 -0.35615168659E+03 -0.84838033351E+03  0.11229389001E+04  0.80006066600E+02 0.  0.
        254    2    1    2    0    0 -0.63874688919E+03  0.35615168659E+03 -0.99424391440E+03  0.15299914200E+04  0.90416324398E+03 0.  0.
         23    2    4    4    0    0 -0.69602822600E+02 -0.27973552237E+03 -0.30013585091E+03  0.42633534282E+03  0.92648692114E+02 0.  0.
         23    2    4    4    0    0 -0.56914406659E+03  0.63588720895E+03 -0.69410806349E+03  0.11036560772E+04  0.89404820482E+02 0.  0.
          2    1    3    3  502    0  0.27591009083E+03 -0.16623868539E+03 -0.43239622443E+03  0.53919214909E+03  0.00000000000E+00 0. -1.
         -1    1    3    3    0  502  0.36283679836E+03 -0.18991300120E+03 -0.41598410908E+03  0.58374675097E+03  0.00000000000E+00 0.  1.
         13    1    5    5    0    0 -0.71663565990E+02 -0.12269659262E+03 -0.10981444825E+03  0.17958099447E+03  0.00000000000E+00 0. -1.
        -13    1    5    5    0    0  0.20607433900E+01 -0.15703892975E+03 -0.19032140266E+03  0.24675434835E+03  0.00000000000E+00 0.  1.
          1    1    6    6  503    0 -0.11740756302E+03  0.18445276039E+03 -0.15689096914E+03  0.26911360588E+03  0.00000000000E+00 0. -1.
         -1    1    6    6    0  503 -0.45173650357E+03  0.45143444857E+03 -0.53721709435E+03  0.83454247134E+03  0.00000000000E+00 0.  1.
<mgrwt>
<rscale>  0 0.19086056E+04</rscale>
<asrwt>0</asrwt>
<pdfrwt beam="1">  1        2 0.34581189E+00 0.19086056E+04</pdfrwt>
<pdfrwt beam="2">  1       -1 0.62331237E-01 0.19086056E+04</pdfrwt>
<totfact> 0.13503858E+01</totfact>
</mgrwt>
</event>
<event>
12    7  0.1701638E-007  0.2761213E+04  0.7818608E-02  0.8315412E-01
          2   -1    0    0  501    0  0.00000000000E+00  0.00000000000E+00  0.21391942200E+04  0.21391942200E+04  0.00000000000E+00 0. -1.
         -1   -1    0    0    0  501 -0.00000000000E+00 -0.00000000000E+00 -0.89102439533E+03  0.89102439533E+03  0.00000000000E+00 0.  1.
         24    2    1    2    0    0  0.25322220610E+03  0.55337790702E+03  0.17806084879E+04  0.18835350660E+04  0.82396382934E+02 0.  0.
        254    2    1    2    0    0 -0.25322220610E+03 -0.55337790702E+03 -0.53243866317E+03  0.11466835494E+04  0.81304590203E+03 0.  0.
         23    2    4    4    0    0 -0.96387353920E+02 -0.34342279102E+03  0.15843406894E+03  0.40175506423E+03  0.95268263573E+02 0.  0.
         23    2    4    4    0    0 -0.15683485218E+03 -0.20995511601E+03 -0.69087273211E+03  0.74492848519E+03  0.94525099686E+02 0.  0.
          2    1    3    3  502    0  0.23347926954E+03  0.49210753984E+03  0.16560527611E+04  0.17433281812E+04  0.00000000000E+00 0. -1.
         -1    1    3    3    0  502  0.19742936560E+02  0.61270367182E+02  0.12455572682E+03  0.14020688472E+03  0.00000000000E+00 0.  1.
         13    1    5    5    0    0 -0.55875214316E+01 -0.16684519218E+03  0.10077238865E+03  0.19499644321E+03  0.00000000000E+00 0. -1.
        -13    1    5    5    0    0 -0.90799832488E+02 -0.17657759884E+03  0.57661680285E+02  0.20675862102E+03  0.00000000000E+00 0.  1.
          1    1    6    6  503    0 -0.59827672835E+02 -0.48428619718E+02 -0.10995957093E+03  0.13422290745E+03  0.00000000000E+00 0. -1.
         -1    1    6    6    0  503 -0.97007179349E+02 -0.16152649629E+03 -0.58091316118E+03  0.61070557774E+03  0.00000000000E+00 0.  1.
<mgrwt>
<rscale>  0 0.27612129E+04</rscale>
<asrwt>0</asrwt>
<pdfrwt beam="1">  1        2 0.32910680E+00 0.27612129E+04</pdfrwt>
<pdfrwt beam="2">  1       -1 0.13708068E+00 0.27612129E+04</pdfrwt>
<totfact> 0.24559663E+00</totfact>
</mgrwt>
</event>
<event>
12    7  0.1701638E-007  0.1762008E+04  0.7818608E-02  0.8726768E-01
          2   -1    0    0  501    0  0.00000000000E+00  0.00000000000E+00  0.18302124798E+04  0.18302124798E+04  0.00000000000E+00 0. -1.
         -1   -1    0    0    0  501 -0.00000000000E+00 -0.00000000000E+00 -0.42408626967E+03  0.42408626967E+03  0.00000000000E+00 0.  1.
         24    2    1    2    0    0  0.26291212048E+03 -0.58503673191E+03  0.42192694989E+03  0.77362346851E+03  0.95289869394E+02 0.  0.
        254    2    1    2    0    0 -0.26291212048E+03  0.58503673191E+03  0.98419926026E+03  0.14806752810E+04  0.90131034777E+03 0.  0.
         23    2    4    4    0    0 -0.17898823984E+03  0.76578087307E+03  0.98181818766E+03  0.12615126366E+04  0.94815838012E+02 0.  0.
         23    2    4    4    0    0 -0.83923880643E+02 -0.18074414116E+03  0.23810726030E+01  0.21916264437E+03  0.91186253767E+02 0.  0.
          4    1    3    3  502    0  0.63782615646E+02 -0.23889167206E+03  0.18994808122E+03  0.31179757311E+03  0.00000000000E+00 0. -1.
         -3    1    3    3    0  502  0.19912950483E+03 -0.34614505985E+03  0.23197886867E+03  0.46182589540E+03  0.00000000000E+00 0.  1.
         13    1    5    5    0    0 -0.12126900084E+03  0.60736849932E+03  0.71571620379E+03  0.94649476961E+03  0.00000000000E+00 0. -1.
        -13    1    5    5    0    0 -0.57719238992E+02  0.15841237374E+03  0.26610198387E+03  0.31501786699E+03  0.00000000000E+00 0.  1.
          4    1    6    6  503    0 -0.33351376804E+02 -0.15256011463E+03  0.22701230792E+02  0.15780446379E+03  0.00000000000E+00 0. -1.
         -4    1    6    6    0  503 -0.50572503839E+02 -0.28184026522E+02 -0.20320158189E+02  0.61358180582E+02  0.00000000000E+00 0.  1.
<mgrwt>
<rscale>  0 0.17620079E+04</rscale>
<asrwt>0</asrwt>
<pdfrwt beam="1">  1        2 0.28157115E+00 0.17620079E+04</pdfrwt>
<pdfrwt beam="2">  1       -1 0.65244042E-01 0.17620079E+04</pdfrwt>
<totfact> 0.21323552E+01</totfact>
</mgrwt>
</event>
<event>
12    7  0.1701638E-007  0.1967944E+04  0.7818608E-02  0.8621756E-01
          2   -1    0    0  501    0  0.00000000000E+00  0.00000000000E+00  0.16116179257E+04  0.16116179257E+04  0.00000000000E+00 0. -1.
         -1   -1    0    0    0  501 -0.00000000000E+00 -0.00000000000E+00 -0.60076358705E+03  0.60076358705E+03  0.00000000000E+00 0.  1.
         24    2    1    2    0    0 -0.17684866174E+03  0.25912447391E+03 -0.39460711169E+03  0.51051369871E+03  0.80551361492E+02 0.  0.
        254    2    1    2    0    0  0.17684866174E+03 -0.25912447391E+03  0.14054614504E+04  0.17018678141E+04  0.90697917614E+03 0.  0.
         23    2    4    4    0    0 -0.14993657773E+02  0.17607342662E+03  0.11254827560E+04  0.11429752774E+04  0.91947753418E+02 0.  0.
         23    2    4    4    0    0  0.19184231952E+03 -0.43519790052E+03  0.27997869433E+03  0.55889253664E+03  0.88159571518E+02 0.  0.
          2    1    3    3  502    0 -0.81063824678E+00 -0.57497823902E+01 -0.59063788882E+01  0.82826592030E+01  0.00000000000E+00 0. -1.
         -1    1    3    3    0  502 -0.17603802350E+03  0.26487425630E+03 -0.38870073280E+03  0.50223103951E+03  0.00000000000E+00 0.  1.
         13    1    5    5    0    0 -0.47177262973E+02  0.89709969794E+02  0.45265248703E+03  0.46386188337E+03  0.00000000000E+00 0.  1.
        -13    1    5    5    0    0  0.32183605200E+02  0.86363456825E+02  0.67283026899E+03  0.67911339406E+03  0.00000000000E+00 0. -1.
          4    1    6    6  503    0  0.16764762949E+03 -0.40423847301E+03  0.28012472275E+03  0.51960016458E+03  0.00000000000E+00 0. -1.
         -4    1    6    6    0  503  0.24194690027E+02 -0.30959427512E+02 -0.14602842026E+00  0.39292372055E+02  0.00000000000E+00 0.  1.
<mgrwt>
<rscale>  0 0.19679445E+04</rscale>
<asrwt>0</asrwt>
<pdfrwt beam="1">  1        2 0.24794122E+00 0.19679445E+04</pdfrwt>
<pdfrwt beam="2">  1       -1 0.92425168E-01 0.19679445E+04</pdfrwt>
<totfact> 0.13273940E+01</totfact>
</mgrwt>
</event>
<event>
12    7  0.1701638E-007  0.1402110E+04  0.7818608E-02  0.8952293E-01
          2   -1    0    0  501    0  0.00000000000E+00  0.00000000000E+00  0.23723763962E+04  0.23723763962E+04  0.00000000000E+00 0. -1.
         -1   -1    0    0    0  501 -0.00000000000E+00 -0.00000000000E+00 -0.20716695937E+03  0.20716695937E+03  0.00000000000E+00 0.  1.
         24    2    1    2    0    0 -0.30477566832E+03 -0.95284197961E+02  0.10646962153E+04  0.11142573123E+04  0.77614693012E+02 0.  0.
        254    2    1    2    0    0  0.30477566832E+03  0.95284197961E+02  0.11005132215E+04  0.14652860433E+04  0.91321769129E+03 0.  0.
         23    2    4    4    0    0 -0.14721867834E+03 -0.30048238119E+03  0.27933646470E+03  0.44348246772E+03  0.81760858655E+02 0.  0.
         23    2    4    4    0    0  0.45199434667E+03  0.39576657915E+03  0.82117675677E+03  0.10218035756E+04  0.93921278897E+02 0.  0.
          4    1    3    3  502    0 -0.16408288459E+03 -0.15379596499E+02  0.47553098617E+03  0.50327869398E+03  0.00000000000E+00 0. -1.
         -3    1    3    3    0  502 -0.14069278374E+03 -0.79904601462E+02  0.58916522918E+03  0.61097861829E+03  0.00000000000E+00 0.  1.
         13    1    5    5    0    0 -0.12777590193E+03 -0.20539767729E+03  0.23327766006E+03  0.33605558117E+03  0.00000000000E+00 0.  1.
        -13    1    5    5    0    0 -0.19442776415E+02 -0.95084703895E+02  0.46058804634E+02  0.10742688655E+03  0.00000000000E+00 0. -1.
          4    1    6    6  503    0  0.24273398769E+03  0.26253427133E+03  0.43919408616E+03  0.56633512845E+03  0.00000000000E+00 0. -1.
         -4    1    6    6    0  503  0.20926035898E+03  0.13323230782E+03  0.38198267061E+03  0.45546844714E+03  0.00000000000E+00 0.  1.
<mgrwt>
<rscale>  0 0.14021098E+04</rscale>
<asrwt>0</asrwt>
<pdfrwt beam="1">  1        2 0.36498096E+00 0.14021098E+04</pdfrwt>
<pdfrwt beam="2">  1       -1 0.31871842E-01 0.14021098E+04</pdfrwt>
<totfact> 0.42016275E+01</totfact>
</mgrwt>
</event>
<event>
12    7  0.1701638E-007  0.2728490E+04  0.7818608E-02  0.8325820E-01
         -1   -1    0    0    0  501 -0.00000000000E+00  0.00000000000E+00  0.13809757157E+04  0.13809757157E+04  0.00000000000E+00 0.  1.
          2   -1    0    0  501    0  0.00000000000E+00 -0.00000000000E+00 -0.13477166553E+04  0.13477166553E+04  0.00000000000E+00 0. -1.
         24    2    1    2    0    0 -0.98975603181E+03  0.41422255661E+02 -0.68549998691E+03  0.12073692186E+04  0.80606403038E+02 0.  0.
        254    2    1    2    0    0  0.98975603181E+03 -0.41422255661E+02  0.71875904722E+03  0.15213231524E+04  0.90359103596E+03 0.  0.
         23    2    4    4    0    0  0.98180606060E+03  0.26231299619E+03  0.59306328176E+03  0.11803964938E+04  0.94130642066E+02 0.  0.
         23    2    4    4    0    0  0.79499712152E+01 -0.30373525185E+03  0.12569576546E+03  0.34092665861E+03  0.90073613414E+02 0.  0.
          2    1    3    3  502    0 -0.30779511844E+03 -0.17119010156E+02 -0.18621721588E+03  0.36014961743E+03  0.00000000000E+00 0. -1.
         -3    1    3    3    0  502 -0.68196091337E+03  0.58541265817E+02 -0.49928277103E+03  0.84721960118E+03  0.00000000000E+00 0.  1.
         13    1    5    5    0    0  0.12959412263E+03  0.94247050406E+01  0.53506660267E+02  0.14052197116E+03  0.00000000000E+00 0.  1.
        -13    1    5    5    0    0  0.85221193797E+03  0.25288829115E+03  0.53955662149E+03  0.10398745226E+04  0.00000000000E+00 0. -1.
          2    1    6    6  503    0  0.26946928563E+02 -0.30000564504E+02  0.30237924052E+02  0.50403401477E+02  0.00000000000E+00 0. -1.
         -2    1    6    6    0  503 -0.18996957348E+02 -0.27373468735E+03  0.95457841412E+02  0.29052325713E+03  0.00000000000E+00 0.  1.
<mgrwt>
<rscale>  0 0.27284897E+04</rscale>
<asrwt>0</asrwt>
<pdfrwt beam="1">  1        2 0.20734102E+00 0.27284897E+04</pdfrwt>
<pdfrwt beam="2">  1       -1 0.21245780E+00 0.27284897E+04</pdfrwt>
<totfact> 0.19130890E+00</totfact>
</mgrwt>
</event>
<event>
12    7  0.1701638E-007  0.1380125E+04  0.7818608E-02  0.8968332E-01
          2   -1    0    0  501    0  0.00000000000E+00  0.00000000000E+00  0.21999066776E+04  0.21999066776E+04  0.00000000000E+00 0. -1.
         -1   -1    0    0    0  501 -0.00000000000E+00 -0.00000000000E+00 -0.21645732620E+03  0.21645732620E+03  0.00000000000E+00 0.  1.
         24    2    1    2    0    0  0.24870024431E+03 -0.13208401382E+03  0.10819321081E+04  0.11217315939E+04  0.91687971073E+02 0.  0.
        254    2    1    2    0    0 -0.24870024431E+03  0.13208401382E+03  0.90151724328E+03  0.12946324099E+04  0.88546131394E+03 0.  0.
         23    2    4    4    0    0 -0.56121345263E+03  0.14162689579E+03  0.45596827217E+03  0.74265844051E+03  0.92821209971E+02 0.  0.
         23    2    4    4    0    0  0.31251320832E+03 -0.95428819682E+01  0.44554897111E+03  0.55197396934E+03  0.91683178425E+02 0.  0.
          4    1    3    3  502    0  0.22279258879E+03 -0.81126847927E+02  0.91769551554E+03  0.94783076671E+03  0.00000000000E+00 0. -1.
         -3    1    3    3    0  502  0.25907655520E+02 -0.50957165897E+02  0.16423659258E+03  0.17390082724E+03  0.00000000000E+00 0.  1.
         13    1    5    5    0    0 -0.17402222108E+03  0.73140514832E+02  0.10729758711E+03  0.21713139004E+03  0.00000000000E+00 0.  1.
        -13    1    5    5    0    0 -0.38719123154E+03  0.68486380961E+02  0.34867068506E+03  0.52552705048E+03  0.00000000000E+00 0. -1.
          1    1    6    6  503    0  0.31804064385E+03 -0.13064090072E+02  0.42914171899E+03  0.53430621985E+03  0.00000000000E+00 0. -1.
         -1    1    6    6    0  503 -0.55274355338E+01  0.35212081033E+01  0.16407252120E+02  0.17667749495E+02  0.00000000000E+00 0.  1.
<mgrwt>
<rscale>  0 0.13801245E+04</rscale>
<asrwt>0</asrwt>
<pdfrwt beam="1">  1        2 0.33844717E+00 0.13801245E+04</pdfrwt>
<pdfrwt beam="2">  1       -1 0.33301129E-01 0.13801245E+04</pdfrwt>
<totfact> 0.48713179E+01</totfact>
</mgrwt>
</event>
<event>
12    7  0.1701638E-007  0.1067518E+04  0.7818608E-02  0.9237443E-01
         -1   -1    0    0    0  501 -0.00000000000E+00  0.00000000000E+00  0.11115775270E+03  0.11115775270E+03  0.00000000000E+00 0.  1.
          2   -1    0    0  501    0  0.00000000000E+00 -0.00000000000E+00 -0.25630098787E+04  0.25630098787E+04  0.00000000000E+00 0. -1.
         24    2    1    2    0    0  0.20355283282E+02  0.10195677991E+03 -0.14753591004E+03  0.19739113431E+03  0.79918036929E+02 0.  0.
        254    2    1    2    0    0 -0.20355283282E+02 -0.10195677991E+03 -0.23043162159E+04  0.24767764970E+04  0.90207486986E+03 0.  0.
         23    2    4    4    0    0  0.13898824515E+03 -0.42722199069E+03 -0.17460664073E+04  0.18052673291E+04  0.91683528322E+02 0.  0.
         23    2    4    4    0    0 -0.15934352843E+03  0.32526521078E+03 -0.55824980865E+03  0.67150916793E+03  0.89966084471E+02 0.  0.
          4    1    3    3  502    0 -0.30818844529E+02  0.35844633532E+02 -0.59330710185E+02  0.75860214225E+02  0.00000000000E+00 0. -1.
         -3    1    3    3    0  502  0.51174127811E+02  0.66112146378E+02 -0.88205199851E+02  0.12153092008E+03  0.00000000000E+00 0.  1.
         13    1    5    5    0    0  0.50146232302E+02 -0.50145095994E+02 -0.29017283515E+03  0.29871298855E+03  0.00000000000E+00 0.  1.
        -13    1    5    5    0    0  0.88842012849E+02 -0.37707689469E+03 -0.14558935721E+04  0.15065543406E+04  0.00000000000E+00 0. -1.
          3    1    6    6  503    0 -0.16234354348E+03  0.25805835840E+03 -0.47577979960E+03  0.56508048998E+03  0.00000000000E+00 0. -1.
         -3    1    6    6    0  503  0.30000150442E+01  0.67206852375E+02 -0.82470009059E+02  0.10642867795E+03  0.00000000000E+00 0.  1.
<mgrwt>
<rscale>  0 0.10675175E+04</rscale>
<asrwt>0</asrwt>
<pdfrwt beam="1">  1        2 0.39430915E+00 0.10675175E+04</pdfrwt>
<pdfrwt beam="2">  1       -1 0.17101195E-01 0.10675175E+04</pdfrwt>
<totfact> 0.97254307E+01</totfact>
</mgrwt>
</event>
<event>
12    7  0.1701638E-007  0.1894161E+04  0.7818608E-02  0.8657768E-01
          2   -1    0    0  501    0  0.00000000000E+00  0.00000000000E+00  0.14301236331E+04  0.14301236331E+04  0.00000000000E+00 0. -1.
         -1   -1    0    0    0  501 -0.00000000000E+00 -0.00000000000E+00 -0.62719158554E+03  0.62719158554E+03  0.00000000000E+00 0.  1.
         24    2    1    2    0    0 -0.59014086038E+03 -0.42121055206E+03  0.26402302401E+03  0.77590821616E+03  0.81491339654E+02 0.  0.
        254    2    1    2    0    0  0.59014086038E+03  0.42121055206E+03  0.53890902357E+03  0.12814070025E+04  0.90878842757E+03 0.  0.
         23    2    4    4    0    0  0.68562092216E+03  0.55845785124E+03  0.60990432116E+03  0.10780267598E+04  0.90593561074E+02 0.  0.
         23    2    4    4    0    0 -0.95480061778E+02 -0.13724729918E+03 -0.70995297590E+02  0.20338024271E+03  0.91487307947E+02 0.  0.
          2    1    3    3  502    0 -0.29122769289E+03 -0.19377097512E+03  0.16892082317E+03  0.38845206191E+03  0.00000000000E+00 0. -1.
         -1    1    3    3    0  502 -0.29891316750E+03 -0.22743957695E+03  0.95102200845E+02  0.38745615426E+03  0.00000000000E+00 0.  1.
         13    1    5    5    0    0  0.52425871633E+03  0.37771642152E+03  0.45890133876E+03  0.79253222992E+03  0.00000000000E+00 0. -1.
        -13    1    5    5    0    0  0.16136220583E+03  0.18074142973E+03  0.15100298239E+03  0.28549452986E+03  0.00000000000E+00 0.  1.
          4    1    6    6  503    0 -0.10125832783E+03 -0.11934029280E+03 -0.86657028812E+02  0.17889884036E+03  0.00000000000E+00 0. -1.
         -4    1    6    6    0  503  0.57782660497E+01 -0.17907006383E+02  0.15661731223E+02  0.24481402350E+02  0.00000000000E+00 0.  1.
<mgrwt>
<rscale>  0 0.18941610E+04</rscale>
<asrwt>0</asrwt>
<pdfrwt beam="1">  1        2 0.22001902E+00 0.18941610E+04</pdfrwt>
<pdfrwt beam="2">  1       -1 0.96491014E-01 0.18941610E+04</pdfrwt>
<totfact> 0.15353573E+01</totfact>
</mgrwt>
</event>
<event>
12    7  0.1701638E-007  0.1447278E+04  0.7818608E-02  0.8920290E-01
          2   -1    0    0  501    0  0.00000000000E+00  0.00000000000E+00  0.14373066315E+04  0.14373066315E+04  0.00000000000E+00 0. -1.
         -1   -1    0    0    0  501 -0.00000000000E+00 -0.00000000000E+00 -0.36432951815E+03  0.36432951815E+03  0.00000000000E+00 0.  1.
         24    2    1    2    0    0 -0.10062882859E+03  0.23807527220E+03  0.74331663307E+03  0.79103757621E+03  0.80092656354E+02 0.  0.
        254    2    1    2    0    0  0.10062882859E+03 -0.23807527220E+03  0.32966048029E+03  0.10105985735E+04  0.91968877780E+03 0.  0.
         23    2    4    4    0    0  0.50564877350E+02  0.34231925319E+03  0.18760289212E+03  0.40380339045E+03  0.90127992781E+02 0.  0.
         23    2    4    4    0    0  0.50063951237E+02 -0.58039452539E+03  0.14205758817E+03  0.60679518300E+03  0.93036720908E+02 0.  0.
          2    1    3    3  502    0 -0.10845718103E+03  0.17242073128E+03  0.58588834411E+03  0.62028785291E+03  0.00000000000E+00 0. -1.
         -1    1    3    3    0  502  0.78283524426E+01  0.65654540919E+02  0.15742828896E+03  0.17074972330E+03  0.00000000000E+00 0.  1.
         13    1    5    5    0    0  0.13703647752E+02  0.12533914403E+02 -0.61235358492E+01  0.19554709491E+02  0.00000000000E+00 0. -1.
        -13    1    5    5    0    0  0.36861229597E+02  0.32978533878E+03  0.19372642797E+03  0.38424868096E+03  0.00000000000E+00 0.  1.
          4    1    6    6  503    0 -0.22014629664E+02 -0.49772482431E+02  0.11928339593E+02  0.55715610129E+02  0.00000000000E+00 0. -1.
         -4    1    6    6    0  503  0.72078580902E+02 -0.53062204296E+03  0.13012924858E+03  0.55107957287E+03  0.00000000000E+00 0.  1.
<mgrwt>
<rscale>  0 0.14472778E+04</rscale>
<asrwt>0</asrwt>
<pdfrwt beam="1">  1        2 0.22112409E+00 0.14472778E+04</pdfrwt>
<pdfrwt beam="2">  1       -1 0.56050696E-01 0.14472778E+04</pdfrwt>
<totfact> 0.49038224E+01</totfact>
</mgrwt>
</event>
<event>
12    7  0.1701638E-007  0.1497270E+04  0.7818608E-02  0.8886270E-01
          2   -1    0    0  501    0  0.00000000000E+00  0.00000000000E+00  0.26940914112E+04  0.26940914112E+04  0.00000000000E+00 0. -1.
         -1   -1    0    0    0  501 -0.00000000000E+00 -0.00000000000E+00 -0.20803092293E+03  0.20803092293E+03  0.00000000000E+00 0.  1.
         24    2    1    2    0    0 -0.73716309590E+02  0.29801454979E+03  0.11624124141E+03  0.33798374469E+03  0.80462533418E+02 0.  0.
        254    2    1    2    0    0  0.73716309590E+02 -0.29801454979E+03  0.23698192469E+04  0.25641385894E+04  0.92979388943E+03 0.  0.
         23    2    4    4    0    0  0.26745354429E+03 -0.36103115281E+03  0.22761449996E+04  0.23218874045E+04  0.91924795541E+02 0.  0.
         23    2    4    4    0    0 -0.19373723470E+03  0.63016603012E+02  0.93674247214E+02  0.24225118495E+03  0.91681861078E+02 0.  0.
          4    1    3    3  502    0 -0.31884467503E+02  0.17825586669E+03  0.10803691421E+03  0.21086428837E+03  0.00000000000E+00 0. -1.
         -3    1    3    3    0  502 -0.41831842087E+02  0.11975868310E+03  0.82043271969E+01  0.12711945632E+03  0.00000000000E+00 0.  1.
         13    1    5    5    0    0  0.10624204664E+02  0.45995318550E+01  0.69734826937E+02  0.70689288481E+02  0.00000000000E+00 0. -1.
        -13    1    5    5    0    0  0.25682933963E+03 -0.36563068466E+03  0.22064101727E+04  0.22511981160E+04  0.00000000000E+00 0.  1.
          3    1    6    6  503    0 -0.49735529175E+01 -0.56818720226E+01  0.30878763595E+02  0.31788644819E+02  0.00000000000E+00 0. -1.
         -3    1    6    6    0  503 -0.18876368179E+03  0.68698475035E+02  0.62795483619E+02  0.21046254013E+03  0.00000000000E+00 0.  1.
<mgrwt>
<rscale>  0 0.14972699E+04</rscale>
<asrwt>0</asrwt>
<pdfrwt beam="1">  1        2 0.41447558E+00 0.14972699E+04</pdfrwt>
<pdfrwt beam="2">  1       -1 0.32004759E-01 0.14972699E+04</pdfrwt>
<totfact> 0.26935275E+01</totfact>
</mgrwt>
</event>
<event>
12    7  0.1701638E-007  0.2514712E+04  0.7818608E-02  0.8397763E-01
          2   -1    0    0  501    0  0.00000000000E+00  0.00000000000E+00  0.21268683311E+04  0.21268683311E+04  0.00000000000E+00 0. -1.
         -1   -1    0    0    0  501 -0.00000000000E+00 -0.00000000000E+00 -0.74332038099E+03  0.74332038099E+03  0.00000000000E+00 0.  1.
         24    2    1    2    0    0 -0.89358074171E+03  0.30187979019E+03  0.12474383111E+04  0.15665913224E+04  0.92130786411E+02 0.  0.
        254    2    1    2    0    0  0.89358074171E+03 -0.30187979019E+03  0.13610963907E+03  0.13035973897E+04  0.88950681334E+03 0.  0.
         23    2    4    4    0    0  0.33476296028E+03 -0.19444565199E+03 -0.36492562402E+03  0.53993096550E+03  0.92083577690E+02 0.  0.
         23    2    4    4    0    0  0.55881778144E+03 -0.10743413820E+03  0.50103526309E+03  0.76366642423E+03  0.91272480750E+02 0.  0.
          4    1    3    3  502    0 -0.85175129798E+03  0.27943385254E+03  0.12113436811E+04  0.15069562254E+04  0.00000000000E+00 0. -1.
         -3    1    3    3    0  502 -0.41829443739E+02  0.22445937645E+02  0.36094629953E+02  0.59635096979E+02  0.00000000000E+00 0.  1.
         13    1    5    5    0    0  0.19795604722E+03 -0.79344045694E+02 -0.15194899620E+03  0.26185983209E+03  0.00000000000E+00 0.  1.
        -13    1    5    5    0    0  0.13680691306E+03 -0.11510160630E+03 -0.21297662783E+03  0.27807113341E+03  0.00000000000E+00 0. -1.
          1    1    6    6  503    0  0.23511162182E+03 -0.53764453180E+02  0.15445434031E+03  0.28639873321E+03  0.00000000000E+00 0. -1.
         -1    1    6    6    0  503  0.32370615961E+03 -0.53669685015E+02  0.34658092279E+03  0.47726769103E+03  0.00000000000E+00 0.  1.
<mgrwt>
<rscale>  0 0.25147124E+04</rscale>
<asrwt>0</asrwt>
<pdfrwt beam="1">  1        2 0.32721051E+00 0.25147124E+04</pdfrwt>
<pdfrwt beam="2">  1       -1 0.11435698E+00 0.25147124E+04</pdfrwt>
<totfact> 0.40014003E+00</totfact>
</mgrwt>
</event>
<event>
12    7  0.1701638E-007  0.2139639E+04  0.7818608E-02  0.8543980E-01
         -1   -1    0    0    0  501 -0.00000000000E+00  0.00000000000E+00  0.24287292914E+04  0.24287292914E+04  0.00000000000E+00 0.  1.
          2   -1    0    0  501    0  0.00000000000E+00 -0.00000000000E+00 -0.47123956332E+03  0.47123956332E+03  0.00000000000E+00 0. -1.
         24    2    1    2    0    0 -0.38886669093E+03 -0.70454188950E+03  0.32808348038E+03  0.87274136417E+03  0.80262950700E+02 0.  0.
        254    2    1    2    0    0  0.38886669093E+03  0.70454188950E+03  0.16294062477E+04  0.20272274905E+04  0.89838187927E+03 0.  0.
         23    2    4    4    0    0  0.26791311196E+03 -0.98877321558E+02  0.83584810816E+03  0.88802889678E+03  0.91646611133E+02 0.  0.
         23    2    4    4    0    0  0.12095357898E+03  0.80341921106E+03  0.79355813949E+03  0.11391985937E+04  0.89032119034E+02 0.  0.
          2    1    3    3  502    0 -0.27615215595E+03 -0.50891037033E+03  0.27404159800E+03  0.64058455781E+03  0.00000000000E+00 0. -1.
         -1    1    3    3    0  502 -0.11271453498E+03 -0.19563151917E+03  0.54041882380E+02  0.23215680636E+03  0.00000000000E+00 0.  1.
         13    1    5    5    0    0  0.23881051382E+03 -0.71321292334E+02  0.78295501433E+03  0.82166644249E+03  0.00000000000E+00 0.  1.
        -13    1    5    5    0    0  0.29102598135E+02 -0.27556029223E+02  0.52893093827E+02  0.66362454290E+02  0.00000000000E+00 0. -1.
          1    1    6    6  503    0  0.99924782071E+02  0.68543939699E+03  0.71725625530E+03  0.99713021456E+03  0.00000000000E+00 0. -1.
         -1    1    6    6    0  503  0.21028796907E+02  0.11797981407E+03  0.76301884191E+02  0.14206837916E+03  0.00000000000E+00 0.  1.
<mgrwt>
<rscale>  0 0.21396386E+04</rscale>
<asrwt>0</asrwt>
<pdfrwt beam="1">  1        2 0.72498395E-01 0.21396386E+04</pdfrwt>
<pdfrwt beam="2">  1       -1 0.37365066E+00 0.21396386E+04</pdfrwt>
<totfact> 0.74818663E-01</totfact>
</mgrwt>
</event>
<event>
12    7  0.1701638E-007  0.1553272E+04  0.7818608E-02  0.8849781E-01
         -1   -1    0    0    0  501 -0.00000000000E+00  0.00000000000E+00  0.24970927415E+03  0.24970927415E+03  0.00000000000E+00 0.  1.
          2   -1    0    0  501    0  0.00000000000E+00 -0.00000000000E+00 -0.24154627277E+04  0.24154627277E+04  0.00000000000E+00 0. -1.
         24    2    1    2    0    0 -0.31991179820E+03  0.38070026042E+03 -0.97843643430E+03  0.11004222832E+04  0.79467594171E+02 0.  0.
        254    2    1    2    0    0  0.31991179820E+03 -0.38070026042E+03 -0.11873170193E+04  0.15647497187E+04  0.88963123308E+03 0.  0.
         23    2    4    4    0    0  0.52909246865E+03  0.22018678813E+02 -0.78976644491E+03  0.95466392862E+03  0.85020682738E+02 0.  0.
         23    2    4    4    0    0 -0.20918067046E+03 -0.40271893923E+03 -0.39755057439E+03  0.61008579006E+03  0.90659335580E+02 0.  0.
          2    1    3    3  502    0 -0.14267981494E+03  0.15865651928E+03 -0.50586830702E+03  0.54902838246E+03  0.00000000000E+00 0. -1.
         -1    1    3    3    0  502 -0.17723198325E+03  0.22204374114E+03 -0.47256812728E+03  0.55139390075E+03  0.00000000000E+00 0.  1.
         13    1    5    5    0    0  0.18142837701E+03  0.35427706367E+02 -0.32788480172E+03  0.37640380121E+03  0.00000000000E+00 0.  1.
        -13    1    5    5    0    0  0.34766409164E+03 -0.13409027554E+02 -0.46188164319E+03  0.57826012741E+03  0.00000000000E+00 0. -1.
          2    1    6    6  503    0 -0.12205642583E+03 -0.13887809233E+03 -0.16208301567E+03  0.24587761099E+03  0.00000000000E+00 0. -1.
         -2    1    6    6    0  503 -0.87124244628E+02 -0.26384084690E+03 -0.23546755872E+03  0.36420817907E+03  0.00000000000E+00 0.  1.
<mgrwt>
<rscale>  0 0.15532720E+04</rscale>
<asrwt>0</asrwt>
<pdfrwt beam="1">  1        2 0.37160965E+00 0.15532720E+04</pdfrwt>
<pdfrwt beam="2">  1       -1 0.38416811E-01 0.15532720E+04</pdfrwt>
<totfact> 0.28045829E+01</totfact>
</mgrwt>
</event>
<event>
12    7  0.1701638E-007  0.1329597E+04  0.7818608E-02  0.9006419E-01
          2   -1    0    0  501    0  0.00000000000E+00  0.00000000000E+00  0.21005593742E+04  0.21005593742E+04  0.00000000000E+00 0. -1.
         -1   -1    0    0    0  501 -0.00000000000E+00 -0.00000000000E+00 -0.21039954102E+03  0.21039954102E+03  0.00000000000E+00 0.  1.
         24    2    1    2    0    0 -0.28005407882E+03 -0.17434776665E+03  0.73136767841E+03  0.80632167700E+03  0.80178145237E+02 0.  0.
        254    2    1    2    0    0  0.28005407882E+03  0.17434776665E+03  0.11587921547E+04  0.15046372382E+04  0.90128049456E+03 0.  0.
         23    2    4    4    0    0  0.47066723589E+03  0.17103566304E+03  0.24043393686E+03  0.56326810262E+03  0.93175278177E+02 0.  0.
         23    2    4    4    0    0 -0.19061315707E+03  0.33121036069E+01  0.91835821786E+03  0.94136913556E+03  0.80309945794E+02 0.  0.
          2    1    3    3  502    0 -0.20818993460E+03 -0.85668130553E+02  0.49899822044E+03  0.54743154957E+03  0.00000000000E+00 0. -1.
         -1    1    3    3    0  502 -0.71864144217E+02 -0.88679636094E+02  0.23236945797E+03  0.25889012743E+03  0.00000000000E+00 0.  1.
         13    1    5    5    0    0  0.27329505802E+03  0.14421801054E+03  0.16475282724E+03  0.35018925938E+03  0.00000000000E+00 0. -1.
        -13    1    5    5    0    0  0.19737217787E+03  0.26817652499E+02  0.75681109622E+02  0.21307884324E+03  0.00000000000E+00 0.  1.
          1    1    6    6  503    0 -0.30717566628E+02  0.73111247216E+00  0.52197106686E+02  0.60569310474E+02  0.00000000000E+00 0. -1.
         -1    1    6    6    0  503 -0.15989559044E+03  0.25809911348E+01  0.86616111118E+03  0.88079982509E+03  0.00000000000E+00 0.  1.
<mgrwt>
<rscale>  0 0.13295965E+04</rscale>
<asrwt>0</asrwt>
<pdfrwt beam="1">  1        2 0.32316297E+00 0.13295965E+04</pdfrwt>
<pdfrwt beam="2">  1       -1 0.32369162E-01 0.13295965E+04</pdfrwt>
<totfact> 0.58444250E+01</totfact>
</mgrwt>
</event>
<event>
12    7  0.1701638E-007  0.2781432E+04  0.7818608E-02  0.8309056E-01
         -1   -1    0    0    0  501 -0.00000000000E+00  0.00000000000E+00  0.20893080016E+04  0.20893080016E+04  0.00000000000E+00 0.  1.
          2   -1    0    0  501    0  0.00000000000E+00 -0.00000000000E+00 -0.92570873759E+03  0.92570873759E+03  0.00000000000E+00 0. -1.
         24    2    1    2    0    0 -0.90641893953E+03  0.80788409078E+03  0.77353956730E+03  0.14418345880E+04  0.79066547186E+02 0.  0.
        254    2    1    2    0    0  0.90641893953E+03 -0.80788409078E+03  0.39005969667E+03  0.15731821512E+04  0.92113164949E+03 0.  0.
         23    2    4    4    0    0 -0.12217130389E+03 -0.25448112723E+02 -0.10287210057E+03  0.18695383015E+03  0.93785028636E+02 0.  0.
         23    2    4    4    0    0  0.10285902434E+04 -0.78243597805E+03  0.49293179724E+03  0.13862283210E+04  0.91887173491E+02 0.  0.
          2    1    3    3  502    0 -0.10465247334E+03  0.92332166583E+02  0.60205212585E+02  0.15199354192E+03  0.00000000000E+00 0. -1.
         -1    1    3    3    0  502 -0.80176646619E+03  0.71555192419E+03  0.71333435472E+03  0.12898410461E+04  0.00000000000E+00 0.  1.
         13    1    5    5    0    0 -0.25583310342E+02 -0.31410424773E+02  0.63753509492E+01  0.41009336159E+02  0.00000000000E+00 0.  1.
        -13    1    5    5    0    0 -0.96587993544E+02  0.59623120502E+01 -0.10924745152E+03  0.14594449399E+03  0.00000000000E+00 0. -1.
          4    1    6    6  503    0  0.88080214216E+03 -0.66665961631E+03  0.45506419915E+03  0.11947095392E+04  0.00000000000E+00 0. -1.
         -4    1    6    6    0  503  0.14778810126E+03 -0.11577636174E+03  0.37867598084E+02  0.19151878184E+03  0.00000000000E+00 0.  1.
<mgrwt>
<rscale>  0 0.27814318E+04</rscale>
<asrwt>0</asrwt>
<pdfrwt beam="1">  1        2 0.14241673E+00 0.27814318E+04</pdfrwt>
<pdfrwt beam="2">  1       -1 0.32143200E+00 0.27814318E+04</pdfrwt>
<totfact> 0.67048656E-01</totfact>
</mgrwt>
</event>
<event>
12    7  0.1701638E-007  0.2403969E+04  0.7818608E-02  0.8438019E-01
          2   -1    0    0  501    0  0.00000000000E+00  0.00000000000E+00  0.20006608456E+04  0.20006608456E+04  0.00000000000E+00 0. -1.
         -1   -1    0    0    0  501 -0.00000000000E+00 -0.00000000000E+00 -0.72214451341E+03  0.72214451341E+03  0.00000000000E+00 0.  1.
         24    2    1    2    0    0 -0.10868325188E+03  0.43627919241E+02 -0.61214881304E+03  0.62839939802E+03  0.80275709551E+02 0.  0.
        254    2    1    2    0    0  0.10868325188E+03 -0.43627919241E+02  0.18906651453E+04  0.20944059610E+04  0.89342385990E+03 0.  0.
         23    2    4    4    0    0  0.46500164851E+03  0.50722152310E+02  0.71747806052E+03  0.86124252890E+03  0.90358488252E+02 0.  0.
         23    2    4    4    0    0 -0.35631839664E+03 -0.94350071552E+02  0.11731870848E+04  0.12331634321E+04  0.91974880899E+02 0.  0.
          4    1    3    3  502    0 -0.48587607267E+01 -0.15488428809E+02 -0.15678005120E+03  0.15761815707E+03  0.00000000000E+00 0. -1.
         -3    1    3    3    0  502 -0.10382449115E+03  0.59116348051E+02 -0.45536876184E+03  0.47078124095E+03  0.00000000000E+00 0.  1.
         13    1    5    5    0    0  0.23103840849E+03  0.50463840129E+02  0.29272178728E+03  0.37631288857E+03  0.00000000000E+00 0. -1.
        -13    1    5    5    0    0  0.23396324002E+03  0.25831218146E+00  0.42475627324E+03  0.48492964032E+03  0.00000000000E+00 0.  1.
          1    1    6    6  503    0 -0.29631137133E+02 -0.15085183743E+02  0.21859440462E+03  0.22110875330E+03  0.00000000000E+00 0. -1.
         -1    1    6    6    0  503 -0.32668725950E+03 -0.79264887809E+02  0.95459268015E+03  0.10120546788E+04  0.00000000000E+00 0.  1.
<mgrwt>
<rscale>  0 0.24039686E+04</rscale>
<asrwt>0</asrwt>
<pdfrwt beam="1">  1        2 0.30779397E+00 0.24039686E+04</pdfrwt>
<pdfrwt beam="2">  1       -1 0.11109916E+00 0.24039686E+04</pdfrwt>
<totfact> 0.50899287E+00</totfact>
</mgrwt>
</event>
<event>
12    7  0.1701638E-007  0.1899840E+04  0.7818608E-02  0.8654936E-01
          2   -1    0    0  501    0  0.00000000000E+00  0.00000000000E+00  0.29608955034E+04  0.29608955034E+04  0.00000000000E+00 0. -1.
         -1   -1    0    0    0  501 -0.00000000000E+00 -0.00000000000E+00 -0.30475500458E+03  0.30475500458E+03  0.00000000000E+00 0.  1.
         24    2    1    2    0    0 -0.68937957417E+03 -0.25491618346E+03  0.10629873326E+04  0.12943875476E+04  0.72598871456E+02 0.  0.
        254    2    1    2    0    0  0.68937957417E+03  0.25491618346E+03  0.15931531662E+04  0.19712629605E+04  0.89861793342E+03 0.  0.
         23    2    4    4    0    0  0.12986006885E+03 -0.68202028043E+01 -0.83919182495E+02  0.18174548435E+03  0.95282943079E+02 0.  0.
         23    2    4    4    0    0  0.55951950531E+03  0.26173638626E+03  0.16770723487E+04  0.17895174761E+04  0.90736550782E+02 0.  0.
          4    1    3    3  502    0 -0.38323846898E+03 -0.10716934359E+03  0.60144601781E+03  0.72117564064E+03  0.00000000000E+00 0. -1.
         -3    1    3    3    0  502 -0.30614110519E+03 -0.14774683986E+03  0.46154131480E+03  0.57321190693E+03  0.00000000000E+00 0.  1.
         13    1    5    5    0    0  0.38045069287E+02  0.40269281445E+02 -0.14123911551E+02  0.57171034648E+02  0.00000000000E+00 0. -1.
        -13    1    5    5    0    0  0.91814999565E+02 -0.47089484250E+02 -0.69795270944E+02  0.12457444970E+03  0.00000000000E+00 0.  1.
          1    1    6    6  503    0 -0.15779691528E+01  0.22904498879E+01  0.32179662810E+02  0.32299641576E+02  0.00000000000E+00 0. -1.
         -1    1    6    6    0  503  0.56109747447E+03  0.25944593637E+03  0.16448926859E+04  0.17572178345E+04  0.00000000000E+00 0.  1.
<mgrwt>
<rscale>  0 0.18998397E+04</rscale>
<asrwt>0</asrwt>
<pdfrwt beam="1">  1        2 0.45552236E+00 0.18998397E+04</pdfrwt>
<pdfrwt beam="2">  1       -1 0.46885387E-01 0.18998397E+04</pdfrwt>
<totfact> 0.89298476E+00</totfact>
</mgrwt>
</event>
<event>
12    7  0.1701638E-007  0.1241102E+04  0.7818608E-02  0.9077622E-01
          2   -1    0    0  501    0  0.00000000000E+00  0.00000000000E+00  0.23561030299E+04  0.23561030299E+04  0.00000000000E+00 0. -1.
         -1   -1    0    0    0  501 -0.00000000000E+00 -0.00000000000E+00 -0.16344083391E+03  0.16344083391E+03  0.00000000000E+00 0.  1.
         24    2    1    2    0    0  0.14569782859E+03  0.10616874041E+03  0.95847891406E+03  0.97844442212E+03  0.78562075980E+02 0.  0.
        254    2    1    2    0    0 -0.14569782859E+03 -0.10616874041E+03  0.12341832820E+04  0.15410994417E+04  0.90514057311E+03 0.  0.
         23    2    4    4    0    0 -0.68259425438E+02  0.23431644889E+03  0.11369703438E+04  0.11658207876E+04  0.82903550761E+02 0.  0.
         23    2    4    4    0    0 -0.77438403153E+02 -0.34048518930E+03  0.97212938211E+02  0.37527865417E+03  0.97246298130E+02 0.  0.
          4    1    3    3  502    0  0.81814852145E+02  0.43279790606E+02  0.66986478981E+03  0.67622899001E+03  0.00000000000E+00 0. -1.
         -1    1    3    3    0  502  0.63882976446E+02  0.62888949800E+02  0.28861412425E+03  0.30221543211E+03  0.00000000000E+00 0.  1.
         13    1    5    5    0    0  0.17874736590E+02  0.32841173724E+02  0.12900326401E+03  0.13431266145E+03  0.00000000000E+00 0. -1.
        -13    1    5    5    0    0 -0.86134162028E+02  0.20147527517E+03  0.10079670798E+04  0.10315081261E+04  0.00000000000E+00 0.  1.
          4    1    6    6  503    0  0.22127828171E+02 -0.42079380830E+02  0.72738850612E+01  0.48095992291E+02  0.00000000000E+00 0. -1.
         -4    1    6    6    0  503 -0.99566231324E+02 -0.29840580847E+03  0.89939053150E+02  0.32718266187E+03  0.00000000000E+00 0.  1.
<mgrwt>
<rscale>  0 0.12411018E+04</rscale>
<asrwt>0</asrwt>
<pdfrwt beam="1">  1        2 0.36247736E+00 0.12411018E+04</pdfrwt>
<pdfrwt beam="2">  1       -1 0.25144745E-01 0.12411018E+04</pdfrwt>
<totfact> 0.65745605E+01</totfact>
</mgrwt>
</event>
<event>
12    7  0.1701638E-007  0.2116980E+04  0.7818608E-02  0.8553800E-01
          2   -1    0    0  501    0  0.00000000000E+00  0.00000000000E+00  0.62634341758E+03  0.62634341758E+03  0.00000000000E+00 0. -1.
         -1   -1    0    0    0  501 -0.00000000000E+00 -0.00000000000E+00 -0.17887960521E+04  0.17887960521E+04  0.00000000000E+00 0.  1.
         24    2    1    2    0    0 -0.25452613355E+03 -0.25806274458E+03 -0.13701863958E+04  0.14194999539E+04  0.78672912334E+02 0.  0.
        254    2    1    2    0    0  0.25452613355E+03  0.25806274458E+03  0.20773376124E+03  0.99563951580E+03  0.90375040639E+03 0.  0.
         23    2    4    4    0    0  0.27733677720E+03  0.41738642002E+03 -0.19972274038E+03  0.54697182979E+03  0.90343223058E+02 0.  0.
         23    2    4    4    0    0 -0.22810643649E+02 -0.15932367544E+03  0.40745650163E+03  0.44866768601E+03  0.96837661725E+02 0.  0.
          4    1    3    3  502    0 -0.47426113137E+02 -0.52187205671E+02 -0.16495372716E+03  0.17939474002E+03  0.00000000000E+00 0. -1.
         -3    1    3    3    0  502 -0.20710002041E+03 -0.20587553891E+03 -0.12052326686E+04  0.12401052139E+04  0.00000000000E+00 0.  1.
         13    1    5    5    0    0  0.19081463502E+03  0.35250275754E+03 -0.16383947823E+03  0.43302631980E+03  0.00000000000E+00 0.  1.
        -13    1    5    5    0    0  0.86522142184E+02  0.64883662480E+02 -0.35883262157E+02  0.11394550999E+03  0.00000000000E+00 0. -1.
          3    1    6    6  503    0  0.16035227987E+02 -0.14567008464E+03  0.32428514086E+03  0.35586198825E+03  0.00000000000E+00 0. -1.
         -3    1    6    6    0  503 -0.38845871636E+02 -0.13653590800E+02  0.83171360762E+02  0.92805697756E+02  0.00000000000E+00 0.  1.
<mgrwt>
<rscale>  0 0.21169796E+04</rscale>
<asrwt>0</asrwt>
<pdfrwt beam="1">  1        2 0.96360526E-01 0.21169796E+04</pdfrwt>
<pdfrwt beam="2">  1       -1 0.27519939E+00 0.21169796E+04</pdfrwt>
<totfact> 0.23645154E+00</totfact>
</mgrwt>
</event>
<event>
12    7  0.1701638E-007  0.1231953E+04  0.7818608E-02  0.9085339E-01
          2   -1    0    0  501    0  0.00000000000E+00  0.00000000000E+00  0.63836780412E+03  0.63836780412E+03  0.00000000000E+00 0. -1.
         -1   -1    0    0    0  501 -0.00000000000E+00 -0.00000000000E+00 -0.59437013237E+03  0.59437013237E+03  0.00000000000E+00 0.  1.
         24    2    1    2    0    0 -0.14076194262E+03 -0.18405593329E+03 -0.14817840557E+03  0.28637931280E+03  0.79785712089E+02 0.  0.
        254    2    1    2    0    0  0.14076194262E+03  0.18405593329E+03  0.19217607732E+03  0.94635862369E+03  0.89720259076E+03 0.  0.
         23    2    4    4    0    0  0.20076741286E+03 -0.22973785985E+03  0.36548791376E+03  0.48467109404E+03  0.90761313235E+02 0.  0.
         23    2    4    4    0    0 -0.60005470234E+02  0.41379379314E+03 -0.17331183644E+03  0.46168752965E+03  0.91062740353E+02 0.  0.
          2    1    3    3  502    0 -0.44610853456E+02 -0.14851973945E+02 -0.11032270191E+02  0.48295138075E+02  0.00000000000E+00 0. -1.
         -1    1    3    3    0  502 -0.96151089168E+02 -0.16920395935E+03 -0.13714613538E+03  0.23808417473E+03  0.00000000000E+00 0.  1.
         13    1    5    5    0    0  0.29306888922E+02 -0.71949260487E+02  0.49723971386E+02  0.92239162796E+02  0.00000000000E+00 0.  1.
        -13    1    5    5    0    0  0.17146052394E+03 -0.15778859936E+03  0.31576394237E+03  0.39243193124E+03  0.00000000000E+00 0. -1.
          4    1    6    6  503    0 -0.16969178514E+02  0.83671803607E+02  0.20717661272E+01  0.85400327594E+02  0.00000000000E+00 0.  1.
         -4    1    6    6    0  503 -0.43036291720E+02  0.33012198954E+03 -0.17538360257E+03  0.37628720205E+03  0.00000000000E+00 0. -1.
<mgrwt>
<rscale>  0 0.12319525E+04</rscale>
<asrwt>0</asrwt>
<pdfrwt beam="1">  1        2 0.98210432E-01 0.12319525E+04</pdfrwt>
<pdfrwt beam="2">  1       -1 0.91441559E-01 0.12319525E+04</pdfrwt>
<totfact> 0.60355948E+01</totfact>
</mgrwt>
</event>
<event>
12    7  0.1701638E-007  0.2016822E+04  0.7818608E-02  0.8598796E-01
         -1   -1    0    0    0  501 -0.00000000000E+00  0.00000000000E+00  0.33207625193E+03  0.33207625193E+03  0.00000000000E+00 0.  1.
          2   -1    0    0  501    0  0.00000000000E+00 -0.00000000000E+00 -0.30622270883E+04  0.30622270883E+04  0.00000000000E+00 0. -1.
         24    2    1    2    0    0 -0.12726763851E+03  0.71540034036E+03 -0.51922378028E+03  0.89691172889E+03  0.82840911429E+02 0.  0.
        254    2    1    2    0    0  0.12726763851E+03 -0.71540034036E+03 -0.22109270561E+04  0.24973916113E+04  0.90596452151E+03 0.  0.
         23    2    4    4    0    0  0.11099727935E+03 -0.37394109776E+03 -0.20829079465E+04  0.21210336419E+04  0.90143531375E+02 0.  0.
         23    2    4    4    0    0  0.16270359161E+02 -0.34145924261E+03 -0.12801910963E+03  0.37635796939E+03  0.91636727065E+02 0.  0.
          4    1    3    3  502    0  0.59854388998E+01  0.13712949398E+03 -0.83005052953E+02  0.16040624182E+03  0.00000000000E+00 0. -1.
         -3    1    3    3    0  502 -0.13325307741E+03  0.57827084638E+03 -0.43621872733E+03  0.73650548707E+03  0.00000000000E+00 0.  1.
         13    1    5    5    0    0  0.10166050008E+03 -0.18433030551E+03 -0.10921489403E+04  0.11122507930E+04  0.00000000000E+00 0. -1.
        -13    1    5    5    0    0  0.93367792752E+01 -0.18961079225E+03 -0.99075900619E+03  0.10087828490E+04  0.00000000000E+00 0.  1.
          4    1    6    6  503    0 -0.30722848219E+02 -0.14389510741E+03 -0.80801185122E+02  0.16786460870E+03  0.00000000000E+00 0.  1.
         -4    1    6    6    0  503  0.46993207379E+02 -0.19756413520E+03 -0.47217924513E+02  0.20849336069E+03  0.00000000000E+00 0. -1.
<mgrwt>
<rscale>  0 0.20168221E+04</rscale>
<asrwt>0</asrwt>
<pdfrwt beam="1">  1        2 0.47111187E+00 0.20168221E+04</pdfrwt>
<pdfrwt beam="2">  1       -1 0.51088653E-01 0.20168221E+04</pdfrwt>
<totfact> 0.64871183E+00</totfact>
</mgrwt>
</event>
<event>
12    7  0.1701638E-007  0.2089409E+04  0.7818608E-02  0.8565923E-01
          2   -1    0    0  501    0  0.00000000000E+00  0.00000000000E+00  0.40728567293E+04  0.40728567293E+04  0.00000000000E+00 0. -1.
         -1   -1    0    0    0  501 -0.00000000000E+00 -0.00000000000E+00 -0.26797099013E+03  0.26797099013E+03  0.00000000000E+00 0.  1.
         24    2    1    2    0    0 -0.28799048041E+03  0.56136341400E+03  0.27447148484E+04  0.28173257930E+04  0.76142139068E+02 0.  0.
        254    2    1    2    0    0  0.28799048041E+03 -0.56136341400E+03  0.10601708907E+04  0.15235019264E+04  0.89388388668E+03 0.  0.
         23    2    4    4    0    0  0.46356235777E+03 -0.23466598275E+03  0.10089868748E+04  0.11385977710E+04  0.91608883331E+02 0.  0.
         23    2    4    4    0    0 -0.17557187736E+03 -0.32669743125E+03  0.51184015875E+02  0.38490415542E+03  0.89301229966E+02 0.  0.
          4    1    3    3  502    0 -0.73778985543E+02  0.12127902518E+03  0.49308963843E+03  0.51311726943E+03  0.00000000000E+00 0. -1.
         -3    1    3    3    0  502 -0.21421149487E+03  0.44008438882E+03  0.22516252100E+04  0.23042085236E+04  0.00000000000E+00 0.  1.
         13    1    5    5    0    0  0.14106372636E+03 -0.79377190966E+02  0.41024223017E+03  0.44101972831E+03  0.00000000000E+00 0.  1.
        -13    1    5    5    0    0  0.32249863141E+03 -0.15528879179E+03  0.59874464466E+03  0.69757804267E+03  0.00000000000E+00 0. -1.
          3    1    6    6  503    0 -0.10089611953E+03 -0.10720304754E+03 -0.11543404711E+01  0.14722042264E+03  0.00000000000E+00 0. -1.
         -3    1    6    6    0  503 -0.74675757832E+02 -0.21949438370E+03  0.52338356346E+02  0.23768373278E+03  0.00000000000E+00 0.  1.
<mgrwt>
<rscale>  0 0.20894090E+04</rscale>
<asrwt>0</asrwt>
<pdfrwt beam="1">  1        2 0.62659330E+00 0.20894090E+04</pdfrwt>
<pdfrwt beam="2">  1       -1 0.41226309E-01 0.20894090E+04</pdfrwt>
<totfact> 0.18208605E+00</totfact>
</mgrwt>
</event>
<event>
12    7  0.1701638E-007  0.2187088E+04  0.7818608E-02  0.8523822E-01
          2   -1    0    0  501    0  0.00000000000E+00  0.00000000000E+00  0.27877687078E+04  0.27877687078E+04  0.00000000000E+00 0. -1.
         -1   -1    0    0    0  501 -0.00000000000E+00 -0.00000000000E+00 -0.42895881560E+03  0.42895881560E+03  0.00000000000E+00 0.  1.
         24    2    1    2    0    0 -0.94855017173E+02  0.73539540598E+03  0.20191357644E+03  0.77275892436E+03  0.81138063848E+02 0.  0.
        254    2    1    2    0    0  0.94855017173E+02 -0.73539540598E+03  0.21568963157E+04  0.24439685990E+04  0.87805291343E+03 0.  0.
         23    2    4    4    0    0 -0.35247877420E+03 -0.31350388979E+03  0.60799389897E+03  0.77506360851E+03  0.92417751968E+02 0.  0.
         23    2    4    4    0    0  0.44733379137E+03 -0.42189151619E+03  0.15489024168E+04  0.16689049905E+04  0.89695029828E+02 0.  0.
          2    1    3    3  502    0 -0.51831942236E+02  0.57423643196E+03  0.18284921387E+03  0.60487012246E+03  0.00000000000E+00 0. -1.
         -1    1    3    3    0  502 -0.43023074937E+02  0.16115897401E+03  0.19064362569E+02  0.16788880190E+03  0.00000000000E+00 0.  1.
         13    1    5    5    0    0 -0.31137904691E+03 -0.29501728922E+03  0.58215428850E+03  0.72311529330E+03  0.00000000000E+00 0. -1.
        -13    1    5    5    0    0 -0.41099727284E+02 -0.18486600572E+02  0.25839610477E+02  0.51948315210E+02  0.00000000000E+00 0.  1.
          1    1    6    6  503    0  0.25777996683E+03 -0.19296987230E+03  0.87512383557E+03  0.93248571598E+03  0.00000000000E+00 0. -1.
         -1    1    6    6    0  503  0.18955382454E+03 -0.22892164389E+03  0.67377858118E+03  0.73641927453E+03  0.00000000000E+00 0.  1.
<mgrwt>
<rscale>  0 0.21870875E+04</rscale>
<asrwt>0</asrwt>
<pdfrwt beam="1">  1        2 0.42888748E+00 0.21870875E+04</pdfrwt>
<pdfrwt beam="2">  1       -1 0.65993666E-01 0.21870875E+04</pdfrwt>
<totfact> 0.57031743E+00</totfact>
</mgrwt>
</event>
<event>
12    7  0.1701638E-007  0.2327207E+04  0.7818608E-02  0.8467270E-01
          2   -1    0    0  501    0  0.00000000000E+00  0.00000000000E+00  0.16178648025E+04  0.16178648025E+04  0.00000000000E+00 0. -1.
         -1   -1    0    0    0  501 -0.00000000000E+00 -0.00000000000E+00 -0.83688875190E+03  0.83688875190E+03  0.00000000000E+00 0.  1.
         24    2    1    2    0    0 -0.52337994689E+02 -0.98408569066E+03  0.36535851476E+03  0.10540334258E+04  0.79597148631E+02 0.  0.
        254    2    1    2    0    0  0.52337994689E+02  0.98408569066E+03  0.41561753588E+03  0.14007201287E+04  0.90449711471E+03 0.  0.
         23    2    4    4    0    0 -0.13805231061E+03  0.39164824112E+03 -0.24341046829E+03  0.48981492188E+03  0.90681951840E+02 0.  0.
         23    2    4    4    0    0  0.19039030530E+03  0.59243744954E+03  0.65902800417E+03  0.91090520680E+03  0.90552667141E+02 0.  0.
          2    1    3    3  502    0 -0.70013384182E+02 -0.79544322067E+03  0.31073706019E+03  0.85684847660E+03  0.00000000000E+00 0. -1.
         -1    1    3    3    0  502  0.17675389493E+02 -0.18864247000E+03  0.54621454568E+02  0.19718494917E+03  0.00000000000E+00 0.  1.
         13    1    5    5    0    0 -0.11168081268E+03  0.37858788787E+03 -0.21789529006E+03  0.45086555668E+03  0.00000000000E+00 0. -1.
        -13    1    5    5    0    0 -0.26371497931E+02  0.13060353245E+02 -0.25515178227E+02  0.38949365207E+02  0.00000000000E+00 0.  1.
          3    1    6    6  503    0  0.93512330599E+02  0.38442834974E+03  0.46385722231E+03  0.60966649469E+03  0.00000000000E+00 0. -1.
         -3    1    6    6    0  503  0.96877974702E+02  0.20800909981E+03  0.19517078185E+03  0.30123871211E+03  0.00000000000E+00 0.  1.
<mgrwt>
<rscale>  0 0.23272068E+04</rscale>
<asrwt>0</asrwt>
<pdfrwt beam="1">  1        2 0.24890228E+00 0.23272068E+04</pdfrwt>
<pdfrwt beam="2">  1       -1 0.12875212E+00 0.23272068E+04</pdfrwt>
<totfact> 0.58343029E+00</totfact>
</mgrwt>
</event>
<event>
12    7  0.1701638E-007  0.1226046E+04  0.7818608E-02  0.9090360E-01
          2   -1    0    0  501    0  0.00000000000E+00  0.00000000000E+00  0.10093576666E+04  0.10093576666E+04  0.00000000000E+00 0. -1.
         -1   -1    0    0    0  501 -0.00000000000E+00 -0.00000000000E+00 -0.37231294792E+03  0.37231294792E+03  0.00000000000E+00 0.  1.
         24    2    1    2    0    0 -0.25295442863E+03  0.10150130198E+03  0.18366543035E+03  0.33827816656E+03  0.80066662228E+02 0.  0.
        254    2    1    2    0    0  0.25295442863E+03 -0.10150130198E+03  0.45337928836E+03  0.10433924480E+04  0.89934785492E+03 0.  0.
         23    2    4    4    0    0 -0.23810575011E+03 -0.30087649058E+03  0.12553449083E+03  0.41370139596E+03  0.90382109997E+02 0.  0.
         23    2    4    4    0    0  0.49106017874E+03  0.19937518860E+03  0.32784479752E+03  0.62969105203E+03  0.90211112236E+02 0.  0.
          4    1    3    3  502    0 -0.75856502941E+02  0.30684711417E+02  0.10208331293E+03  0.13083104881E+03  0.00000000000E+00 0. -1.
         -3    1    3    3    0  502 -0.17709792569E+03  0.70816590562E+02  0.81582117420E+02  0.20744711775E+03  0.00000000000E+00 0.  1.
         13    1    5    5    0    0 -0.21136639448E+03 -0.26924087721E+03  0.14000919780E+03  0.36982290106E+03  0.00000000000E+00 0. -1.
        -13    1    5    5    0    0 -0.26739355629E+02 -0.31635613371E+02 -0.14474706969E+02  0.43878494900E+02  0.00000000000E+00 0.  1.
          2    1    6    6  503    0  0.47244916508E+03  0.19205706681E+03  0.33294378859E+03  0.60905311497E+03  0.00000000000E+00 0. -1.
         -2    1    6    6    0  503  0.18611013665E+02  0.73181217943E+01 -0.50989910704E+01  0.20637937062E+02  0.00000000000E+00 0.  1.
<mgrwt>
<rscale>  0 0.12260456E+04</rscale>
<asrwt>0</asrwt>
<pdfrwt beam="1">  1        2 0.15528579E+00 0.12260456E+04</pdfrwt>
<pdfrwt beam="2">  1       -1 0.57278916E-01 0.12260456E+04</pdfrwt>
<totfact> 0.86152325E+01</totfact>
</mgrwt>
</event>
<event>
12    7  0.1701638E-007  0.1767015E+04  0.7818608E-02  0.8724040E-01
         -1   -1    0    0    0  501 -0.00000000000E+00  0.00000000000E+00  0.78264229799E+03  0.78264229799E+03  0.00000000000E+00 0.  1.
          2   -1    0    0  501    0  0.00000000000E+00 -0.00000000000E+00 -0.99737167142E+03  0.99737167142E+03  0.00000000000E+00 0. -1.
         24    2    1    2    0    0 -0.57215352432E+03  0.20213075546E+03  0.15675118275E+03  0.63177160638E+03  0.79673908214E+02 0.  0.
        254    2    1    2    0    0  0.57215352432E+03 -0.20213075546E+03 -0.37148055618E+03  0.11482423630E+04  0.90124703770E+03 0.  0.
         23    2    4    4    0    0  0.26350725239E+03 -0.54025702108E+03 -0.13457456462E+03  0.62256373661E+03  0.90341418030E+02 0.  0.
         23    2    4    4    0    0  0.30864627193E+03  0.33812626563E+03 -0.23690599156E+03  0.52567862642E+03  0.10306151927E+03 0.  0.
          2    1    3    3  502    0 -0.29251485639E+01  0.31643969493E+01  0.10412424522E+02  0.11268916833E+02  0.00000000000E+00 0. -1.
         -1    1    3    3    0  502 -0.56922837575E+03  0.19896635851E+03  0.14633875823E+03  0.62050268955E+03  0.00000000000E+00 0.  1.
         13    1    5    5    0    0  0.21814470019E+02 -0.89643007117E+02 -0.47823104634E+02  0.10391722265E+03  0.00000000000E+00 0. -1.
        -13    1    5    5    0    0  0.24169278237E+03 -0.45061401397E+03 -0.86751459984E+02  0.51864651396E+03  0.00000000000E+00 0.  1.
          3    1    6    6  503    0  0.58323468200E+02  0.44888488863E+02 -0.84890350623E+00  0.73602472869E+02  0.00000000000E+00 0. -1.
         -3    1    6    6    0  503  0.25032280373E+03  0.29323777677E+03 -0.23605708806E+03  0.45207615355E+03  0.00000000000E+00 0.  1.
<mgrwt>
<rscale>  0 0.17670147E+04</rscale>
<asrwt>0</asrwt>
<pdfrwt beam="1">  1        2 0.15344180E+00 0.17670147E+04</pdfrwt>
<pdfrwt beam="2">  1       -1 0.12040651E+00 0.17670147E+04</pdfrwt>
<totfact> 0.16768106E+01</totfact>
</mgrwt>
</event>
<event>
12    7  0.1701638E-007  0.1627247E+04  0.7818608E-02  0.8803982E-01
         -1   -1    0    0    0  501 -0.00000000000E+00  0.00000000000E+00  0.26492329893E+03  0.26492329893E+03  0.00000000000E+00 0.  1.
          2   -1    0    0  501    0  0.00000000000E+00 -0.00000000000E+00 -0.24987736248E+04  0.24987736248E+04  0.00000000000E+00 0. -1.
         24    2    1    2    0    0 -0.31444995159E+03  0.16250150173E+03 -0.39150153924E+02  0.36484230835E+03  0.79320018192E+02 0.  0.
        254    2    1    2    0    0  0.31444995159E+03 -0.16250150173E+03 -0.21947001720E+04  0.23988546154E+04  0.90139287264E+03 0.  0.
         23    2    4    4    0    0  0.23528986214E+03  0.18994714103E+03 -0.18950530948E+04  0.19212243883E+04  0.91845970596E+02 0.  0.
         23    2    4    4    0    0  0.79160089455E+02 -0.35244864277E+03 -0.29964707711E+03  0.47763022708E+03  0.88633500721E+02 0.  0.
          2    1    3    3  502    0 -0.52365604343E+01 -0.51744040017E+01  0.69009111634E+01  0.10090520147E+02  0.00000000000E+00 0. -1.
         -1    1    3    3    0  502 -0.30921339116E+03  0.16767590574E+03 -0.46051065087E+02  0.35475178820E+03  0.00000000000E+00 0.  1.
         13    1    5    5    0    0  0.13791541731E+03  0.16283255709E+03 -0.13718197593E+04  0.13883171669E+04  0.00000000000E+00 0. -1.
        -13    1    5    5    0    0  0.97374444822E+02  0.27114583938E+02 -0.52323333555E+03  0.53290722138E+03  0.00000000000E+00 0.  1.
          3    1    6    6  503    0  0.85793059548E+02 -0.24468029727E+03 -0.24452805936E+03  0.35640267782E+03  0.00000000000E+00 0. -1.
         -3    1    6    6    0  503 -0.66329700932E+01 -0.10776834549E+03 -0.55119017746E+02  0.12122754926E+03  0.00000000000E+00 0.  1.
<mgrwt>
<rscale>  0 0.16272472E+04</rscale>
<asrwt>0</asrwt>
<pdfrwt beam="1">  1        2 0.38442673E+00 0.16272472E+04</pdfrwt>
<pdfrwt beam="2">  1       -1 0.40757429E-01 0.16272472E+04</pdfrwt>
<totfact> 0.22404702E+01</totfact>
</mgrwt>
</event>
<event>
12    7  0.1701638E-007  0.1296970E+04  0.7818608E-02  0.9031972E-01
         -1   -1    0    0    0  501 -0.00000000000E+00  0.00000000000E+00  0.42063170444E+03  0.42063170444E+03  0.00000000000E+00 0.  1.
          2   -1    0    0  501    0  0.00000000000E+00 -0.00000000000E+00 -0.99976446073E+03  0.99976446073E+03  0.00000000000E+00 0. -1.
         24    2    1    2    0    0 -0.25431239096E+03 -0.16787173816E+03 -0.27744948818E+03  0.41827308756E+03  0.71543305862E+02 0.  0.
        254    2    1    2    0    0  0.25431239096E+03  0.16787173816E+03 -0.30168326811E+03  0.10021230776E+04  0.90574949945E+03 0.  0.
         23    2    4    4    0    0 -0.28803847661E+03  0.25369522930E+03 -0.17335492621E+03  0.43096119976E+03  0.91368440287E+02 0.  0.
         23    2    4    4    0    0  0.54235086758E+03 -0.85823491141E+02 -0.12832834191E+03  0.57116187785E+03  0.90816255023E+02 0.  0.
          2    1    3    3  502    0 -0.24429445766E+03 -0.14814603672E+03 -0.23317431650E+03  0.36877810688E+03  0.00000000000E+00 0. -1.
         -1    1    3    3    0  502 -0.10017933306E+02 -0.19725701441E+02 -0.44275171685E+02  0.49494980683E+02  0.00000000000E+00 0.  1.
         13    1    5    5    0    0 -0.20893761490E+02  0.84143402587E+01 -0.37375024064E+02  0.43637630721E+02  0.00000000000E+00 0.  1.
        -13    1    5    5    0    0 -0.26714471512E+03  0.24528088904E+03 -0.13597990214E+03  0.38732356904E+03  0.00000000000E+00 0. -1.
          3    1    6    6  503    0  0.29841876369E+03 -0.80684787769E+02 -0.10310708962E+03  0.32587553672E+03  0.00000000000E+00 0. -1.
         -3    1    6    6    0  503  0.24393210388E+03 -0.51387033719E+01 -0.25221252286E+02  0.24528634113E+03  0.00000000000E+00 0.  1.
<mgrwt>
<rscale>  0 0.12969697E+04</rscale>
<asrwt>0</asrwt>
<pdfrwt beam="1">  1        2 0.15380992E+00 0.12969697E+04</pdfrwt>
<pdfrwt beam="2">  1       -1 0.64712570E-01 0.12969697E+04</pdfrwt>
<totfact> 0.68241203E+01</totfact>
</mgrwt>
</event>
<event>
12    7  0.1701638E-007  0.1844611E+04  0.7818608E-02  0.8682929E-01
         -1   -1    0    0    0  501 -0.00000000000E+00  0.00000000000E+00  0.18817180139E+03  0.18817180139E+03  0.00000000000E+00 0.  1.
          2   -1    0    0  501    0  0.00000000000E+00 -0.00000000000E+00 -0.45205912010E+04  0.45205912010E+04  0.00000000000E+00 0. -1.
         24    2    1    2    0    0 -0.54958613631E+03 -0.35755993157E+02 -0.27580636423E+04  0.28136195646E+04  0.78845337999E+02 0.  0.
        254    2    1    2    0    0  0.54958613631E+03  0.35755993157E+02 -0.15743557573E+04  0.18951434377E+04  0.89980508264E+03 0.  0.
         23    2    4    4    0    0 -0.17262220417E+03 -0.57169593075E+02 -0.81077553525E+03  0.83622136188E+03  0.94034088329E+02 0.  0.
         23    2    4    4    0    0  0.72220834048E+03  0.92925586232E+02 -0.76358022207E+03  0.10589220759E+04  0.89672490640E+02 0.  0.
          2    1    3    3  502    0 -0.45944446304E+03 -0.55424456163E+02 -0.22228241561E+04  0.22704863606E+04  0.00000000000E+00 0. -1.
         -1    1    3    3    0  502 -0.90141673268E+02  0.19668463006E+02 -0.53523948622E+03  0.54313320402E+03  0.00000000000E+00 0.  1.
         13    1    5    5    0    0 -0.17411092059E+03 -0.64937833992E+02 -0.67197853956E+03  0.69719917712E+03  0.00000000000E+00 0. -1.
        -13    1    5    5    0    0  0.14887164165E+01  0.77682409173E+01 -0.13879699569E+03  0.13902218477E+03  0.00000000000E+00 0.  1.
          4    1    6    6  503    0  0.63602573394E+03  0.78405421048E+02 -0.70985755917E+03  0.95633357078E+03  0.00000000000E+00 0. -1.
         -4    1    6    6    0  503  0.86182606533E+02  0.14520165184E+02 -0.53722662901E+02  0.10258850508E+03  0.00000000000E+00 0.  1.
<mgrwt>
<rscale>  0 0.18446114E+04</rscale>
<asrwt>0</asrwt>
<pdfrwt beam="1">  1        2 0.69547556E+00 0.18446114E+04</pdfrwt>
<pdfrwt beam="2">  1       -1 0.28949508E-01 0.18446114E+04</pdfrwt>
<totfact> 0.13960126E+00</totfact>
</mgrwt>
</event>
<event>
12    7  0.1701638E-007  0.2050207E+04  0.7818608E-02  0.8583501E-01
          2   -1    0    0  501    0  0.00000000000E+00  0.00000000000E+00  0.97433270379E+03  0.97433270379E+03  0.00000000000E+00 0. -1.
         -1   -1    0    0    0  501 -0.00000000000E+00 -0.00000000000E+00 -0.10785196009E+04  0.10785196009E+04  0.00000000000E+00 0.  1.
         24    2    1    2    0    0 -0.10976626079E+03 -0.70151790159E+03 -0.46221701621E+03  0.85185894382E+03  0.88561232118E+02 0.  0.
        254    2    1    2    0    0  0.10976626079E+03  0.70151790159E+03  0.35803011907E+03  0.12009933609E+04  0.90001304909E+03 0.  0.
         23    2    4    4    0    0 -0.20092660064E+03  0.66192995399E+03  0.48700538686E+03  0.85068547452E+03  0.89267949968E+02 0.  0.
         23    2    4    4    0    0  0.31069286143E+03  0.39587947601E+02 -0.12897526779E+03  0.35030788639E+03  0.89351753349E+02 0.  0.
          4    1    3    3  502    0 -0.85565960247E+02 -0.38356503533E+03 -0.29788832385E+03  0.49313398116E+03  0.00000000000E+00 0. -1.
         -3    1    3    3    0  502 -0.24200300545E+02 -0.31795286626E+03 -0.16432869236E+03  0.35872496267E+03  0.00000000000E+00 0.  1.
         13    1    5    5    0    0 -0.76129328111E+02  0.14924355496E+03  0.88677391076E+02  0.18955999837E+03  0.00000000000E+00 0. -1.
        -13    1    5    5    0    0 -0.12479727253E+03  0.51268639903E+03  0.39832799578E+03  0.66112547614E+03  0.00000000000E+00 0.  1.
          1    1    6    6  503    0  0.11656335967E+02 -0.15996094207E+02  0.35327396186E+00  0.19795706619E+02  0.00000000000E+00 0. -1.
         -1    1    6    6    0  503  0.29903652547E+03  0.55584041808E+02 -0.12932854175E+03  0.33051217978E+03  0.00000000000E+00 0.  1.
<mgrwt>
<rscale>  0 0.20502067E+04</rscale>
<asrwt>0</asrwt>
<pdfrwt beam="1">  1        2 0.14989734E+00 0.20502067E+04</pdfrwt>
<pdfrwt beam="2">  1       -1 0.16592609E+00 0.20502067E+04</pdfrwt>
<totfact> 0.72859995E+00</totfact>
</mgrwt>
</event>
<event>
12    7  0.1701638E-007  0.2134522E+04  0.7818608E-02  0.8546187E-01
          2   -1    0    0  501    0  0.00000000000E+00  0.00000000000E+00  0.13981534549E+04  0.13981534549E+04  0.00000000000E+00 0. -1.
         -1   -1    0    0    0  501 -0.00000000000E+00 -0.00000000000E+00 -0.81467915664E+03  0.81467915664E+03  0.00000000000E+00 0.  1.
         24    2    1    2    0    0 -0.60129964369E+03  0.31372771206E+03  0.77100144203E+03  0.10300103907E+04  0.80571971128E+02 0.  0.
        254    2    1    2    0    0  0.60129964369E+03 -0.31372771206E+03 -0.18752714376E+03  0.11828222208E+04  0.95074478051E+03 0.  0.
         23    2    4    4    0    0  0.18366800305E+03 -0.11585187811E+03  0.37962076576E+03  0.44570104815E+03  0.85918016267E+02 0.  0.
         23    2    4    4    0    0  0.41763164065E+03 -0.19787583395E+03 -0.56714790952E+03  0.73712117270E+03  0.90110149475E+02 0.  0.
          2    1    3    3  502    0 -0.54458737491E+03  0.26893289931E+03  0.65438169334E+03  0.89281337010E+03  0.00000000000E+00 0. -1.
         -1    1    3    3    0  502 -0.56712268779E+02  0.44794812746E+02  0.11661974869E+03  0.13719702061E+03  0.00000000000E+00 0.  1.
         13    1    5    5    0    0  0.43538807306E+02  0.93070976164E+01  0.91093206280E+02  0.10139142981E+03  0.00000000000E+00 0. -1.
        -13    1    5    5    0    0  0.14012919574E+03 -0.12515897572E+03  0.28852755948E+03  0.34430961834E+03  0.00000000000E+00 0.  1.
          4    1    6    6  503    0  0.71883452013E+02 -0.61250657527E+02 -0.76495858081E+02  0.12153390483E+03  0.00000000000E+00 0.  1.
         -4    1    6    6    0  503  0.34574818863E+03 -0.13662517642E+03 -0.49065205144E+03  0.61558726786E+03  0.00000000000E+00 0. -1.
<mgrwt>
<rscale>  0 0.21345224E+04</rscale>
<asrwt>0</asrwt>
<pdfrwt beam="1">  1        2 0.21510053E+00 0.21345224E+04</pdfrwt>
<pdfrwt beam="2">  1       -1 0.12533525E+00 0.21345224E+04</pdfrwt>
<totfact> 0.84448126E+00</totfact>
</mgrwt>
</event>
<event>
12    7  0.1701638E-007  0.2308033E+04  0.7818608E-02  0.8474761E-01
         -1   -1    0    0    0  501 -0.00000000000E+00  0.00000000000E+00  0.74874793084E+03  0.74874793084E+03  0.00000000000E+00 0.  1.
          2   -1    0    0  501    0  0.00000000000E+00 -0.00000000000E+00 -0.17786414005E+04  0.17786414005E+04  0.00000000000E+00 0. -1.
         24    2    1    2    0    0  0.12263292445E+03 -0.73357575958E+03 -0.10605590297E+04  0.12978746623E+04  0.80752426363E+02 0.  0.
        254    2    1    2    0    0 -0.12263292445E+03  0.73357575958E+03  0.30665560007E+02  0.12295146691E+04  0.97856717485E+03 0.  0.
         23    2    4    4    0    0  0.12877829632E+02 -0.35186063566E+02 -0.34426149349E+03  0.35874419601E+03  0.93688444919E+02 0.  0.
         23    2    4    4    0    0 -0.13551075408E+03  0.76876182314E+03  0.37492705349E+03  0.87077047305E+03  0.91175742996E+02 0.  0.
          2    1    3    3  502    0  0.47819081891E+02 -0.50253058696E+03 -0.73737403648E+03  0.89361296158E+03  0.00000000000E+00 0. -1.
         -1    1    3    3    0  502  0.74813842562E+02 -0.23104517261E+03 -0.32318499318E+03  0.40426170069E+03  0.00000000000E+00 0.  1.
         13    1    5    5    0    0  0.27556612983E+00  0.11081274779E+01 -0.30053383916E+03  0.30053600843E+03  0.00000000000E+00 0.  1.
        -13    1    5    5    0    0  0.12602263502E+02 -0.36294191044E+02 -0.43727654327E+02  0.58208187585E+02  0.00000000000E+00 0. -1.
          1    1    6    6  503    0 -0.91608067834E+02  0.43883733932E+03  0.26231547907E+03  0.51940317580E+03  0.00000000000E+00 0.  1.
         -1    1    6    6    0  503 -0.43902686251E+02  0.32992448382E+03  0.11261157443E+03  0.35136729725E+03  0.00000000000E+00 0. -1.
<mgrwt>
<rscale>  0 0.23080330E+04</rscale>
<asrwt>0</asrwt>
<pdfrwt beam="1">  1        2 0.27363714E+00 0.23080330E+04</pdfrwt>
<pdfrwt beam="2">  1       -1 0.11519199E+00 0.23080330E+04</pdfrwt>
<totfact> 0.62533018E+00</totfact>
</mgrwt>
</event>
<event>
12    7  0.1701638E-007  0.1446029E+04  0.7818608E-02  0.8921158E-01
         -1   -1    0    0    0  501 -0.00000000000E+00  0.00000000000E+00  0.32477433092E+03  0.32477433092E+03  0.00000000000E+00 0.  1.
          2   -1    0    0  501    0  0.00000000000E+00 -0.00000000000E+00 -0.16095800562E+04  0.16095800562E+04  0.00000000000E+00 0. -1.
         24    2    1    2    0    0 -0.18333487099E+03 -0.21703142438E+03  0.55393128473E+02  0.30056485445E+03  0.80972334548E+02 0.  0.
        254    2    1    2    0    0  0.18333487099E+03  0.21703142438E+03 -0.13401988537E+04  0.16337895326E+04  0.89018029373E+03 0.  0.
         23    2    4    4    0    0 -0.40108669277E+02  0.82003565916E+02  0.10241272599E+03  0.16483951492E+03  0.91380572664E+02 0.  0.
         23    2    4    4    0    0  0.22344354027E+03  0.13502785846E+03 -0.14426115797E+04  0.14689500177E+04  0.92338758826E+02 0.  0.
          4    1    3    3  502    0 -0.86135377378E+02 -0.16254966329E+03  0.36506381391E+02  0.18754842616E+03  0.00000000000E+00 0. -1.
         -3    1    3    3    0  502 -0.97199493611E+02 -0.54481761089E+02  0.18886747082E+02  0.11301642830E+03  0.00000000000E+00 0.  1.
         13    1    5    5    0    0 -0.30215248107E+02  0.71090672385E+02  0.11949210930E+03  0.14228566022E+03  0.00000000000E+00 0. -1.
        -13    1    5    5    0    0 -0.98934211699E+01  0.10912893531E+02 -0.17079383311E+02  0.22553854702E+02  0.00000000000E+00 0.  1.
          1    1    6    6  503    0  0.21168218606E+03  0.99213708665E+02 -0.13243640221E+04  0.13448393104E+04  0.00000000000E+00 0. -1.
         -1    1    6    6    0  503  0.11761354207E+02  0.35814149796E+02 -0.11824755761E+03  0.12411070727E+03  0.00000000000E+00 0.  1.
<mgrwt>
<rscale>  0 0.14460294E+04</rscale>
<asrwt>0</asrwt>
<pdfrwt beam="1">  1        2 0.24762770E+00 0.14460294E+04</pdfrwt>
<pdfrwt beam="2">  1       -1 0.49965282E-01 0.14460294E+04</pdfrwt>
<totfact> 0.48926398E+01</totfact>
</mgrwt>
</event>
<event>
12    7  0.1701638E-007  0.1740536E+04  0.7818608E-02  0.8738577E-01
          2   -1    0    0  501    0  0.00000000000E+00  0.00000000000E+00  0.70071207463E+03  0.70071207463E+03  0.00000000000E+00 0. -1.
         -1   -1    0    0    0  501 -0.00000000000E+00 -0.00000000000E+00 -0.10808528704E+04  0.10808528704E+04  0.00000000000E+00 0.  1.
         24    2    1    2    0    0  0.25284578266E+03  0.36551246873E+03 -0.60035424210E+03  0.75131683826E+03  0.80755314566E+02 0.  0.
        254    2    1    2    0    0 -0.25284578266E+03 -0.36551246873E+03  0.22021344637E+03  0.10302481067E+04  0.90298773241E+03 0.  0.
         23    2    4    4    0    0 -0.14655496523E+03 -0.65708672324E+03  0.10450841805E+03  0.68737720997E+03  0.91236503911E+02 0.  0.
         23    2    4    4    0    0 -0.10629081743E+03  0.29157425451E+03  0.11570502832E+03  0.34287089678E+03  0.88653902983E+02 0.  0.
          4    1    3    3  502    0  0.22879347926E+02  0.86313890284E+02 -0.10260580401E+03  0.13602023098E+03  0.00000000000E+00 0. -1.
         -3    1    3    3    0  502  0.22996643474E+03  0.27919857845E+03 -0.49774843809E+03  0.61529660728E+03  0.00000000000E+00 0.  1.
         13    1    5    5    0    0 -0.60941153937E+02 -0.43792884710E+03  0.43330347492E+02  0.44426683241E+03  0.00000000000E+00 0. -1.
        -13    1    5    5    0    0 -0.85613811293E+02 -0.21915787614E+03  0.61178070563E+02  0.24311037756E+03  0.00000000000E+00 0.  1.
          1    1    6    6  503    0 -0.11665416020E+03  0.27626800841E+03  0.93811672301E+02  0.31421781525E+03  0.00000000000E+00 0. -1.
         -1    1    6    6    0  503  0.10363342771E+02  0.15306246103E+02  0.21893356014E+02  0.28653081523E+02  0.00000000000E+00 0.  1.
<mgrwt>
<rscale>  0 0.17405363E+04</rscale>
<asrwt>0</asrwt>
<pdfrwt beam="1">  1        2 0.10780186E+00 0.17405363E+04</pdfrwt>
<pdfrwt beam="2">  1       -1 0.16628506E+00 0.17405363E+04</pdfrwt>
<totfact> 0.11618376E+01</totfact>
</mgrwt>
</event>
<event>
12    7  0.1701638E-007  0.1783375E+04  0.7818608E-02  0.8715190E-01
          2   -1    0    0  501    0  0.00000000000E+00  0.00000000000E+00  0.13681837158E+04  0.13681837158E+04  0.00000000000E+00 0. -1.
         -1   -1    0    0    0  501 -0.00000000000E+00 -0.00000000000E+00 -0.58114051335E+03  0.58114051335E+03  0.00000000000E+00 0.  1.
         24    2    1    2    0    0 -0.45303925291E+02  0.27672604416E+03 -0.34191571657E+03  0.44951288617E+03  0.80781980826E+02 0.  0.
        254    2    1    2    0    0  0.45303925291E+02 -0.27672604416E+03  0.11289589191E+04  0.14998113430E+04  0.94670801969E+03 0.  0.
         23    2    4    4    0    0  0.18757660411E+03 -0.57470093316E+03  0.52526705153E+03  0.80579248988E+03  0.89050077736E+02 0.  0.
         23    2    4    4    0    0 -0.14227267881E+03  0.29797488900E+03  0.60369186754E+03  0.69401885314E+03  0.90486175570E+02 0.  0.
          2    1    3    3  502    0 -0.28316788936E+02  0.33840391721E+02 -0.28071902410E+02  0.52297651499E+02  0.00000000000E+00 0. -1.
         -1    1    3    3    0  502 -0.16987136356E+02  0.24288565244E+03 -0.31384381416E+03  0.39721523467E+03  0.00000000000E+00 0.  1.
         13    1    5    5    0    0  0.12867438636E+03 -0.47289198255E+03  0.45526585300E+03  0.66891772422E+03  0.00000000000E+00 0. -1.
        -13    1    5    5    0    0  0.58902217750E+02 -0.10180895061E+03  0.70001198528E+02  0.13687476566E+03  0.00000000000E+00 0.  1.
          3    1    6    6  503    0 -0.12372619915E+03  0.28264877645E+03  0.49970500474E+03  0.58728493506E+03  0.00000000000E+00 0. -1.
         -3    1    6    6    0  503 -0.18546479661E+02  0.15326112544E+02  0.10398686280E+03  0.10673391807E+03  0.00000000000E+00 0.  1.
<mgrwt>
<rscale>  0 0.17833754E+04</rscale>
<asrwt>0</asrwt>
<pdfrwt beam="1">  1        2 0.21048980E+00 0.17833754E+04</pdfrwt>
<pdfrwt beam="2">  1       -1 0.89406233E-01 0.17833754E+04</pdfrwt>
<totfact> 0.19933615E+01</totfact>
</mgrwt>
</event>
<event>
12    7  0.1701638E-007  0.1308935E+04  0.7818608E-02  0.9022509E-01
          2   -1    0    0  501    0  0.00000000000E+00  0.00000000000E+00  0.13277178357E+04  0.13277178357E+04  0.00000000000E+00 0. -1.
         -1   -1    0    0    0  501 -0.00000000000E+00 -0.00000000000E+00 -0.32260469358E+03  0.32260469358E+03  0.00000000000E+00 0.  1.
         24    2    1    2    0    0  0.12303736333E+03 -0.18136370557E+03 -0.80742258982E+02  0.24678363916E+03  0.79698592836E+02 0.  0.
        254    2    1    2    0    0 -0.12303736333E+03  0.18136370557E+03  0.10858554011E+04  0.14035388901E+04  0.86186337520E+03 0.  0.
         23    2    4    4    0    0  0.30097719282E+03  0.30225519798E+03  0.48076313319E+03  0.64938652056E+03  0.92866503935E+02 0.  0.
         23    2    4    4    0    0 -0.42401455614E+03 -0.12089149240E+03  0.60509226795E+03  0.75415236959E+03  0.90587234573E+02 0.  0.
          4    1    3    3  502    0  0.29273973928E+02 -0.10101279145E+03 -0.13081926980E+02  0.10597965087E+03  0.00000000000E+00 0. -1.
         -3    1    3    3    0  502  0.93763389397E+02 -0.80350914126E+02 -0.67660332002E+02  0.14080398829E+03  0.00000000000E+00 0.  1.
         13    1    5    5    0    0  0.11023542269E+03  0.17252767242E+03  0.20284667839E+03  0.28820898859E+03  0.00000000000E+00 0.  1.
        -13    1    5    5    0    0  0.19074177012E+03  0.12972752556E+03  0.27791645479E+03  0.36117753197E+03  0.00000000000E+00 0. -1.
          1    1    6    6  503    0 -0.14408904269E+03  0.14668579086E+01  0.17718462075E+03  0.22838168430E+03  0.00000000000E+00 0. -1.
         -1    1    6    6    0  503 -0.27992551346E+03 -0.12235835031E+03  0.42790764720E+03  0.52577068529E+03  0.00000000000E+00 0.  1.
<mgrwt>
<rscale>  0 0.13089355E+04</rscale>
<asrwt>0</asrwt>
<pdfrwt beam="1">  1        2 0.20426428E+00 0.13089355E+04</pdfrwt>
<pdfrwt beam="2">  1       -1 0.49631492E-01 0.13089355E+04</pdfrwt>
<totfact> 0.72379797E+01</totfact>
</mgrwt>
</event>
<event>
12    7  0.1701638E-007  0.2056818E+04  0.7818608E-02  0.8580508E-01
         -1   -1    0    0    0  501 -0.00000000000E+00  0.00000000000E+00  0.83129743841E+03  0.83129743841E+03  0.00000000000E+00 0.  1.
          2   -1    0    0  501    0  0.00000000000E+00 -0.00000000000E+00 -0.12722579757E+04  0.12722579757E+04  0.00000000000E+00 0. -1.
         24    2    1    2    0    0 -0.80320559622E+03 -0.12279945553E+03 -0.37713852331E+01  0.81645424498E+03  0.79777031343E+02 0.  0.
        254    2    1    2    0    0  0.80320559622E+03  0.12279945553E+03 -0.43718915204E+03  0.12871011691E+04  0.89737178963E+03 0.  0.
         23    2    4    4    0    0 -0.48442315280E+02 -0.26986855036E+02 -0.40296599382E+03  0.41688851015E+03  0.91320805216E+02 0.  0.
         23    2    4    4    0    0  0.85164791150E+03  0.14978631056E+03 -0.34223158223E+02  0.87021265897E+03  0.91426163025E+02 0.  0.
          2    1    3    3  502    0 -0.66951948693E+02 -0.11540848090E+02  0.21951042696E+02  0.71397499143E+02  0.00000000000E+00 0. -1.
         -1    1    3    3    0  502 -0.73625364752E+03 -0.11125860744E+03 -0.25722427929E+02  0.74505674584E+03  0.00000000000E+00 0.  1.
         13    1    5    5    0    0  0.26320938498E+02 -0.10107983679E+02 -0.14758613902E+03  0.15025522143E+03  0.00000000000E+00 0. -1.
        -13    1    5    5    0    0 -0.74763253777E+02 -0.16878871358E+02 -0.25537985480E+03  0.26663328872E+03  0.00000000000E+00 0.  1.
          2    1    6    6  503    0  0.54942155395E+03  0.56745087358E+02 -0.41543269775E+02  0.55390422651E+03  0.00000000000E+00 0. -1.
         -2    1    6    6    0  503  0.30222635754E+03  0.93041223206E+02  0.73201115515E+01  0.31630843246E+03  0.00000000000E+00 0.  1.
<mgrwt>
<rscale>  0 0.20568177E+04</rscale>
<asrwt>0</asrwt>
<pdfrwt beam="1">  1        2 0.19573200E+00 0.20568177E+04</pdfrwt>
<pdfrwt beam="2">  1       -1 0.12789191E+00 0.20568177E+04</pdfrwt>
<totfact> 0.95619750E+00</totfact>
</mgrwt>
</event>
<event>
12    7  0.1701638E-007  0.1186719E+04  0.7818608E-02  0.9124561E-01
          2   -1    0    0  501    0  0.00000000000E+00  0.00000000000E+00  0.19288389930E+04  0.19288389930E+04  0.00000000000E+00 0. -1.
         -3   -1    0    0    0  501 -0.00000000000E+00 -0.00000000000E+00 -0.18253237449E+03  0.18253237449E+03  0.00000000000E+00 0.  1.
         24    2    1    2    0    0 -0.17988289508E+03 -0.99888141723E+02  0.58601848400E+03  0.62692794372E+03  0.85355059769E+02 0.  0.
        254    2    1    2    0    0  0.17988289508E+03  0.99888141723E+02  0.11602881345E+04  0.14844434238E+04  0.90275590638E+03 0.  0.
         23    2    4    4    0    0  0.18020474525E+03 -0.34500045829E+03  0.83572261978E+03  0.92675854374E+03  0.94604623335E+02 0.  0.
         23    2    4    4    0    0 -0.32185016216E+00  0.44488860002E+03  0.32456551474E+03  0.55768488005E+03  0.87998193502E+02 0.  0.
          2    1    3    3  502    0 -0.17617596699E+03 -0.74556812406E+02  0.45752829863E+03  0.49591212293E+03  0.00000000000E+00 0. -1.
         -1    1    3    3    0  502 -0.37069280884E+01 -0.25331329317E+02  0.12849018537E+03  0.13101582079E+03  0.00000000000E+00 0.  1.
         13    1    5    5    0    0  0.90653160140E+02 -0.22226917241E+03  0.41471765946E+03  0.47917879493E+03  0.00000000000E+00 0.  1.
        -13    1    5    5    0    0  0.89551585105E+02 -0.12273128589E+03  0.42100496032E+03  0.44757974881E+03  0.00000000000E+00 0. -1.
          3    1    6    6  503    0  0.21654930959E+02  0.95426023169E+02  0.10908184173E+03  0.14653979025E+03  0.00000000000E+00 0. -1.
         -3    1    6    6    0  503 -0.21976781121E+02  0.34946257685E+03  0.21548367302E+03  0.41114508980E+03  0.00000000000E+00 0.  1.
<mgrwt>
<rscale>  0 0.11867191E+04</rscale>
<asrwt>0</asrwt>
<pdfrwt beam="1">  1        2 0.29674445E+00 0.11867191E+04</pdfrwt>
<pdfrwt beam="2">  1       -3 0.28081905E-01 0.11867191E+04</pdfrwt>
<totfact> 0.57517125E+01</totfact>
</mgrwt>
</event>
<event>
12    7  0.1701638E-007  0.1041147E+04  0.7818608E-02  0.9264532E-01
         -3   -1    0    0    0  501 -0.00000000000E+00  0.00000000000E+00  0.32441212220E+03  0.32441212220E+03  0.00000000000E+00 0.  1.
          2   -1    0    0  501    0  0.00000000000E+00 -0.00000000000E+00 -0.83534742080E+03  0.83534742080E+03  0.00000000000E+00 0. -1.
         24    2    1    2    0    0  0.60570949378E+02  0.88365889281E+02 -0.95655131235E+02  0.16347025779E+03  0.78072086907E+02 0.  0.
        254    2    1    2    0    0 -0.60570949378E+02 -0.88365889281E+02 -0.41528016736E+03  0.99628928521E+03  0.89925377514E+03 0.  0.
         23    2    4    4    0    0 -0.38394882113E+03  0.10393143878E+03  0.25708586704E+02  0.40915235953E+03  0.92337861524E+02 0.  0.
         23    2    4    4    0    0  0.32337787175E+03 -0.19229732806E+03 -0.44098875407E+03  0.58713692567E+03  0.93312260494E+02 0.  0.
          4    1    3    3  502    0  0.73994490013E+01  0.77774991359E+02 -0.61065206140E+02  0.99159772727E+02  0.00000000000E+00 0. -1.
         -3    1    3    3    0  502  0.53171500377E+02  0.10590897922E+02 -0.34589925095E+02  0.64310485064E+02  0.00000000000E+00 0.  1.
         13    1    5    5    0    0 -0.26188020174E+03  0.57782151232E+02 -0.24566924110E+02  0.26930196959E+03  0.00000000000E+00 0. -1.
        -13    1    5    5    0    0 -0.12206861938E+03  0.46149287547E+02  0.50275510814E+02  0.13985038994E+03  0.00000000000E+00 0.  1.
          2    1    6    6  503    0  0.20337069322E+03 -0.70555954257E+02 -0.27058151757E+03  0.34576312584E+03  0.00000000000E+00 0. -1.
         -2    1    6    6    0  503  0.12000717853E+03 -0.12174137380E+03 -0.17040723650E+03  0.24137379983E+03  0.00000000000E+00 0.  1.
<mgrwt>
<rscale>  0 0.10411471E+04</rscale>
<asrwt>0</asrwt>
<pdfrwt beam="1">  1        2 0.12851499E+00 0.10411471E+04</pdfrwt>
<pdfrwt beam="2">  1       -3 0.49909557E-01 0.10411471E+04</pdfrwt>
<totfact> 0.82014019E+01</totfact>
</mgrwt>
</event>
<event>
12    7  0.1701638E-007  0.2579710E+04  0.7818608E-02  0.8375126E-01
         -1   -1    0    0    0  501 -0.00000000000E+00  0.00000000000E+00  0.18475251916E+04  0.18475251916E+04  0.00000000000E+00 0.  1.
          2   -1    0    0  501    0  0.00000000000E+00 -0.00000000000E+00 -0.90051603259E+03  0.90051603259E+03  0.00000000000E+00 0. -1.
         24    2    1    2    0    0  0.89508553077E+03  0.34841768505E+02 -0.31053854675E+03  0.95142681503E+03  0.79917076458E+02 0.  0.
        254    2    1    2    0    0 -0.89508553077E+03 -0.34841768505E+02  0.12575477057E+04  0.17966144091E+04  0.91869747290E+03 0.  0.
         23    2    4    4    0    0 -0.74933729962E+03  0.30633089911E+02  0.13819347139E+04  0.15749655612E+04  0.91258921936E+02 0.  0.
         23    2    4    4    0    0 -0.14574823116E+03 -0.65474858416E+02 -0.12438700812E+03  0.22164884793E+03  0.90147545899E+02 0.  0.
          4    1    3    3  502    0  0.73745686305E+03  0.90045010727E+00 -0.24109871945E+03  0.77586856374E+03  0.00000000000E+00 0. -1.
         -3    1    3    3    0  502  0.15762866772E+03  0.33941318397E+02 -0.69439827304E+02  0.17555825129E+03  0.00000000000E+00 0.  1.
         13    1    5    5    0    0 -0.68818981436E+03  0.27464263707E+01  0.12659073313E+04  0.14408796393E+04  0.00000000000E+00 0. -1.
        -13    1    5    5    0    0 -0.61147485257E+02  0.27886663541E+02  0.11602738253E+03  0.13408592191E+03  0.00000000000E+00 0.  1.
          2    1    6    6  503    0 -0.62475871316E+02 -0.76131082626E+02 -0.78727248764E+02  0.12608392418E+03  0.00000000000E+00 0. -1.
         -2    1    6    6    0  503 -0.83272359841E+02  0.10656224210E+02 -0.45659759357E+02  0.95564923755E+02  0.00000000000E+00 0.  1.
<mgrwt>
<rscale>  0 0.25797101E+04</rscale>
<asrwt>0</asrwt>
<pdfrwt beam="1">  1        2 0.13854093E+00 0.25797101E+04</pdfrwt>
<pdfrwt beam="2">  1       -1 0.28423464E+00 0.25797101E+04</pdfrwt>
<totfact> 0.12367929E+00</totfact>
</mgrwt>
</event>
<event>
12    7  0.1701638E-007  0.1569444E+04  0.7818608E-02  0.8839543E-01
          2   -1    0    0  501    0  0.00000000000E+00  0.00000000000E+00  0.14475150037E+04  0.14475150037E+04  0.00000000000E+00 0. -1.
         -1   -1    0    0    0  501 -0.00000000000E+00 -0.00000000000E+00 -0.42541080559E+03  0.42541080559E+03  0.00000000000E+00 0.  1.
         24    2    1    2    0    0  0.28392751776E+03 -0.35621480673E+03  0.66725549604E+03  0.81188477810E+03  0.80144694343E+02 0.  0.
        254    2    1    2    0    0 -0.28392751776E+03  0.35621480673E+03  0.35484870206E+03  0.10610410312E+04  0.89016102174E+03 0.  0.
         23    2    4    4    0    0  0.23601117711E+03  0.23409792675E+02  0.35337820766E+03  0.43622561950E+03  0.95746223649E+02 0.  0.
         23    2    4    4    0    0 -0.51993869486E+03  0.33280501406E+03  0.14704944001E+01  0.62481541169E+03  0.96419461369E+02 0.  0.
          4    1    3    3  502    0  0.19186558560E+03 -0.27337370237E+03  0.43229305089E+03  0.54628094047E+03  0.00000000000E+00 0. -1.
         -3    1    3    3    0  502  0.92061932161E+02 -0.82841104367E+02  0.23496244516E+03  0.26560383762E+03  0.00000000000E+00 0.  1.
         13    1    5    5    0    0  0.38115625442E+01 -0.85231686634E+01 -0.28877808494E+01  0.97730083049E+01  0.00000000000E+00 0.  1.
        -13    1    5    5    0    0  0.23219961456E+03  0.31932961338E+02  0.35626598851E+03  0.42645261119E+03  0.00000000000E+00 0. -1.
          4    1    6    6  503    0 -0.46250567252E+03  0.32579373175E+03 -0.10043664300E+02  0.56582146297E+03  0.00000000000E+00 0. -1.
         -4    1    6    6    0  503 -0.57433022345E+02  0.70112823068E+01  0.11514158701E+02  0.58993948722E+02  0.00000000000E+00 0.  1.
<mgrwt>
<rscale>  0 0.15694439E+04</rscale>
<asrwt>0</asrwt>
<pdfrwt beam="1">  1        2 0.22269461E+00 0.15694439E+04</pdfrwt>
<pdfrwt beam="2">  1       -1 0.65447817E-01 0.15694439E+04</pdfrwt>
<totfact> 0.35239472E+01</totfact>
</mgrwt>
</event>
<event>
12    7  0.1701638E-007  0.1395537E+04  0.7818608E-02  0.8957055E-01
          2   -1    0    0  501    0  0.00000000000E+00  0.00000000000E+00  0.13197721845E+04  0.13197721845E+04  0.00000000000E+00 0. -1.
         -1   -1    0    0    0  501 -0.00000000000E+00 -0.00000000000E+00 -0.36891279647E+03  0.36891279647E+03  0.00000000000E+00 0.  1.
         24    2    1    2    0    0 -0.23020878931E+03 -0.26747772735E+03  0.44402443550E+02  0.36458979295E+03  0.80085696771E+02 0.  0.
        254    2    1    2    0    0  0.23020878931E+03  0.26747772735E+03  0.90645694451E+03  0.13240951880E+04  0.89834484105E+03 0.  0.
         23    2    4    4    0    0  0.25680117717E+03 -0.23044635866E+03  0.98425173938E+02  0.37019265343E+03  0.91119245891E+02 0.  0.
         23    2    4    4    0    0 -0.26592387863E+02  0.49792408601E+03  0.80803177057E+03  0.95390253461E+03  0.91537712211E+02 0.  0.
          2    1    3    3  502    0 -0.23984515359E+02 -0.92208308443E+01  0.21149949389E+02  0.33280640883E+02  0.00000000000E+00 0. -1.
         -1    1    3    3    0  502 -0.20622427395E+03 -0.25825689651E+03  0.23252494161E+02  0.33130915207E+03  0.00000000000E+00 0.  1.
         13    1    5    5    0    0  0.34529272348E+02 -0.11980634683E+02  0.38009370006E+02  0.52730621697E+02  0.00000000000E+00 0.  1.
        -13    1    5    5    0    0  0.22227190483E+03 -0.21846572398E+03  0.60415803932E+02  0.31746203173E+03  0.00000000000E+00 0. -1.
          2    1    6    6  503    0  0.12980167357E+02  0.35439843572E+03  0.51611255248E+03  0.62620995107E+03  0.00000000000E+00 0. -1.
         -2    1    6    6    0  503 -0.39572555220E+02  0.14352565029E+03  0.29191921809E+03  0.32769258354E+03  0.00000000000E+00 0.  1.
<mgrwt>
<rscale>  0 0.13955370E+04</rscale>
<asrwt>0</asrwt>
<pdfrwt beam="1">  1        2 0.20304187E+00 0.13955370E+04</pdfrwt>
<pdfrwt beam="2">  1       -1 0.56755815E-01 0.13955370E+04</pdfrwt>
<totfact> 0.56139587E+01</totfact>
</mgrwt>
</event>
<event>
12    7  0.1701638E-007  0.2725033E+04  0.7818608E-02  0.8326928E-01
         -1   -1    0    0    0  501 -0.00000000000E+00  0.00000000000E+00  0.85472201672E+03  0.85472201672E+03  0.00000000000E+00 0.  1.
          2   -1    0    0  501    0  0.00000000000E+00 -0.00000000000E+00 -0.21719944630E+04  0.21719944630E+04  0.00000000000E+00 0. -1.
         24    2    1    2    0    0 -0.44970305322E+03  0.79695741742E+03  0.29824667173E+03  0.96565618485E+03  0.78529159514E+02 0.  0.
        254    2    1    2    0    0  0.44970305322E+03 -0.79695741742E+03 -0.16155191180E+04  0.20610602949E+04  0.89481481729E+03 0.  0.
         23    2    4    4    0    0  0.26822761774E+03 -0.65893205892E+03 -0.39996198977E+03  0.82124816857E+03  0.91331527534E+02 0.  0.
         23    2    4    4    0    0  0.18147543547E+03 -0.13802535849E+03 -0.12155571283E+04  0.12398121263E+04  0.87009443531E+02 0.  0.
          2    1    3    3  502    0 -0.13579698228E+03  0.25988516327E+03  0.58669210773E+02  0.29903711271E+03  0.00000000000E+00 0. -1.
         -1    1    3    3    0  502 -0.31390607093E+03  0.53707225415E+03  0.23957746096E+03  0.66661907214E+03  0.00000000000E+00 0.  1.
         13    1    5    5    0    0  0.11085027092E+03 -0.27827692226E+03 -0.11733198434E+03  0.32170269283E+03  0.00000000000E+00 0.  1.
        -13    1    5    5    0    0  0.15737734683E+03 -0.38065513666E+03 -0.28263000543E+03  0.49954547574E+03  0.00000000000E+00 0. -1.
          3    1    6    6  503    0  0.56226290321E+02 -0.29986767928E+02 -0.56394972604E+03  0.56753845286E+03  0.00000000000E+00 0. -1.
         -3    1    6    6    0  503  0.12524914515E+03 -0.10803859057E+03 -0.65160740221E+03  0.67227367346E+03  0.00000000000E+00 0.  1.
<mgrwt>
<rscale>  0 0.27250332E+04</rscale>
<asrwt>0</asrwt>
<pdfrwt beam="1">  1        2 0.33415299E+00 0.27250332E+04</pdfrwt>
<pdfrwt beam="2">  1       -1 0.13149569E+00 0.27250332E+04</pdfrwt>
<totfact> 0.26264696E+00</totfact>
</mgrwt>
</event>
<event>
12    7  0.1701638E-007  0.2027234E+04  0.7818608E-02  0.8593993E-01
          2   -1    0    0  501    0  0.00000000000E+00  0.00000000000E+00  0.18196280817E+04  0.18196280817E+04  0.00000000000E+00 0. -1.
         -1   -1    0    0    0  501 -0.00000000000E+00 -0.00000000000E+00 -0.56463168788E+03  0.56463168788E+03  0.00000000000E+00 0.  1.
         24    2    1    2    0    0  0.14300884360E+03 -0.26876811128E+03 -0.37961274581E+03  0.49302397171E+03  0.79239970446E+02 0.  0.
        254    2    1    2    0    0 -0.14300884360E+03  0.26876811128E+03  0.16346091396E+04  0.18912357979E+04  0.90118698214E+03 0.  0.
         23    2    4    4    0    0  0.35807219237E+02  0.55440491771E+03  0.12485962563E+04  0.13697013783E+04  0.91881905864E+02 0.  0.
         23    2    4    4    0    0 -0.17881606284E+03 -0.28563680644E+03  0.38601288332E+03  0.52153441959E+03  0.97101159698E+02 0.  0.
          2    1    3    3  502    0  0.15111478958E+02 -0.39959361277E+02 -0.10514701890E+03  0.11349450618E+03  0.00000000000E+00 0. -1.
         -1    1    3    3    0  502  0.12789736464E+03 -0.22880875000E+03 -0.27446572691E+03  0.37952946553E+03  0.00000000000E+00 0.  1.
         13    1    5    5    0    0  0.16557492356E+02  0.52045717406E+02  0.73392955301E+02  0.91484606034E+02  0.00000000000E+00 0.  1.
        -13    1    5    5    0    0  0.19249726881E+02  0.50235920031E+03  0.11752033010E+04  0.12782167722E+04  0.00000000000E+00 0. -1.
          1    1    6    6  503    0 -0.51599845223E+02 -0.90981578854E+02  0.19219700431E+03  0.21881471656E+03  0.00000000000E+00 0. -1.
         -1    1    6    6    0  503 -0.12721621761E+03 -0.19465522758E+03  0.19381587901E+03  0.30271970303E+03  0.00000000000E+00 0.  1.
<mgrwt>
<rscale>  0 0.20272342E+04</rscale>
<asrwt>0</asrwt>
<pdfrwt beam="1">  1        2 0.27994278E+00 0.20272342E+04</pdfrwt>
<pdfrwt beam="2">  1       -1 0.86866414E-01 0.20272342E+04</pdfrwt>
<totfact> 0.11598883E+01</totfact>
</mgrwt>
</event>
<event>
12    7  0.1701638E-007  0.1342466E+04  0.7818608E-02  0.8996551E-01
          2   -1    0    0  501    0  0.00000000000E+00  0.00000000000E+00  0.14522325490E+04  0.14522325490E+04  0.00000000000E+00 0. -1.
         -1   -1    0    0    0  501 -0.00000000000E+00 -0.00000000000E+00 -0.31024916794E+03  0.31024916794E+03  0.00000000000E+00 0.  1.
         24    2    1    2    0    0 -0.54677624669E+02  0.28400032345E+03  0.60739500231E+03  0.67738581747E+03  0.79227713060E+02 0.  0.
        254    2    1    2    0    0  0.54677624669E+02 -0.28400032345E+03  0.53458837870E+03  0.10850958994E+04  0.89888962056E+03 0.  0.
         23    2    4    4    0    0  0.26386854721E+03 -0.46456063937E+03  0.57698399097E+03  0.79156217814E+03  0.90647438867E+02 0.  0.
         23    2    4    4    0    0 -0.20919092254E+03  0.18056031592E+03 -0.42395612264E+02  0.29353372129E+03  0.89452712835E+02 0.  0.
          2    1    3    3  502    0 -0.48941922158E+02  0.28596823501E+03  0.60480442969E+03  0.67079172726E+03  0.00000000000E+00 0. -1.
         -1    1    3    3    0  502 -0.57357025115E+01 -0.19679115620E+01  0.25905726152E+01  0.65940902095E+01  0.00000000000E+00 0.  1.
         13    1    5    5    0    0  0.29989960411E+02 -0.62008714790E+02  0.12481585952E+03  0.14256043358E+03  0.00000000000E+00 0. -1.
        -13    1    5    5    0    0  0.23387858680E+03 -0.40255192458E+03  0.45216813145E+03  0.64900174456E+03  0.00000000000E+00 0.  1.
          1    1    6    6  503    0 -0.35713795992E+02 -0.21830711022E+01  0.77771270795E+01  0.36615908144E+02  0.00000000000E+00 0. -1.
         -1    1    6    6    0  503 -0.17347712655E+03  0.18274338702E+03 -0.50172739344E+02  0.25691781314E+03  0.00000000000E+00 0.  1.
<mgrwt>
<rscale>  0 0.13424663E+04</rscale>
<asrwt>0</asrwt>
<pdfrwt beam="1">  1        2 0.22342039E+00 0.13424663E+04</pdfrwt>
<pdfrwt beam="2">  1       -1 0.47730642E-01 0.13424663E+04</pdfrwt>
<totfact> 0.65948363E+01</totfact>
</mgrwt>
</event>
<event>
12    7  0.1701638E-007  0.1607459E+04  0.7818608E-02  0.8815979E-01
          2   -1    0    0  501    0  0.00000000000E+00  0.00000000000E+00  0.13081143580E+04  0.13081143580E+04  0.00000000000E+00 0. -1.
         -1   -1    0    0    0  501 -0.00000000000E+00 -0.00000000000E+00 -0.49382605005E+03  0.49382605005E+03  0.00000000000E+00 0.  1.
         24    2    1    2    0    0 -0.35394136459E+03  0.40521131420E+03  0.40986133140E+03  0.68125652354E+03  0.81568628596E+02 0.  0.
        254    2    1    2    0    0  0.35394136459E+03 -0.40521131420E+03  0.40442697653E+03  0.11206838845E+04  0.89604714768E+03 0.  0.
         23    2    4    4    0    0  0.11290272513E+03 -0.60459058321E+03  0.48039366142E+03  0.78560748995E+03  0.90134675205E+02 0.  0.
         23    2    4    4    0    0  0.24103863946E+03  0.19937926901E+03 -0.75966684894E+02  0.33507639453E+03  0.93024374961E+02 0.  0.
          4    1    3    3  502    0 -0.22476163034E+03  0.20765003492E+03  0.26100305628E+03  0.40219264397E+03  0.00000000000E+00 0. -1.
         -3    1    3    3    0  502 -0.12917973425E+03  0.19756127928E+03  0.14885827511E+03  0.27906387957E+03  0.00000000000E+00 0.  1.
         13    1    5    5    0    0  0.81064140008E+02 -0.24226677132E+03  0.16441644654E+03  0.30380479123E+03  0.00000000000E+00 0. -1.
        -13    1    5    5    0    0  0.31838585123E+02 -0.36232381190E+03  0.31597721488E+03  0.48180269872E+03  0.00000000000E+00 0.  1.
          4    1    6    6  503    0 -0.27929034357E+01  0.58882735007E+01 -0.17077960292E+02  0.18279190413E+02  0.00000000000E+00 0. -1.
         -4    1    6    6    0  503  0.24383154289E+03  0.19349099551E+03 -0.58888724602E+02  0.31679720412E+03  0.00000000000E+00 0.  1.
<mgrwt>
<rscale>  0 0.16074588E+04</rscale>
<asrwt>0</asrwt>
<pdfrwt beam="1">  1        2 0.20124836E+00 0.16074588E+04</pdfrwt>
<pdfrwt beam="2">  1       -1 0.75973239E-01 0.16074588E+04</pdfrwt>
<totfact> 0.31090251E+01</totfact>
</mgrwt>
</event>
<event>
12    7  0.1701638E-007  0.1782900E+04  0.7818608E-02  0.8715446E-01
         -1   -1    0    0    0  501 -0.00000000000E+00  0.00000000000E+00  0.38858203158E+03  0.38858203158E+03  0.00000000000E+00 0.  1.
          2   -1    0    0  501    0  0.00000000000E+00 -0.00000000000E+00 -0.20450855561E+04  0.20450855561E+04  0.00000000000E+00 0. -1.
         24    2    1    2    0    0 -0.14887933577E+03  0.17053914762E+03  0.23033106633E+03  0.33316559566E+03  0.81842877046E+02 0.  0.
        254    2    1    2    0    0  0.14887933577E+03 -0.17053914762E+03 -0.18868345909E+04  0.21005019921E+04  0.89482690381E+03 0.  0.
         23    2    4    4    0    0 -0.52715115211E+02 -0.34083077078E+03 -0.17561142082E+04  0.17922312134E+04  0.95974540787E+02 0.  0.
         23    2    4    4    0    0  0.20159445098E+03  0.17029162316E+03 -0.13072038268E+03  0.30827077862E+03  0.91123514639E+02 0.  0.
          4    1    3    3  502    0 -0.12990033631E+02 -0.87926896283E+01  0.16417738168E+02  0.22706705864E+02  0.00000000000E+00 0. -1.
         -3    1    3    3    0  502 -0.13588930214E+03  0.17933183725E+03  0.21391332816E+03  0.31045888980E+03  0.00000000000E+00 0.  1.
         13    1    5    5    0    0 -0.34005388271E+02 -0.13827625612E+03 -0.50515222238E+03  0.52483850584E+03  0.00000000000E+00 0.  1.
        -13    1    5    5    0    0 -0.18709726940E+02 -0.20255451467E+03 -0.12509619858E+04  0.12673927076E+04  0.00000000000E+00 0. -1.
          4    1    6    6  503    0  0.18900951741E+03  0.12914238231E+03 -0.13376440891E+03  0.26513255113E+03  0.00000000000E+00 0. -1.
         -4    1    6    6    0  503  0.12584933571E+02  0.41149240847E+02  0.30440262239E+01  0.43138227490E+02  0.00000000000E+00 0.  1.
<mgrwt>
<rscale>  0 0.17829004E+04</rscale>
<asrwt>0</asrwt>
<pdfrwt beam="1">  1        2 0.31462855E+00 0.17829004E+04</pdfrwt>
<pdfrwt beam="2">  1       -1 0.59781851E-01 0.17829004E+04</pdfrwt>
<totfact> 0.19260785E+01</totfact>
</mgrwt>
</event>
<event>
12    7  0.1701638E-007  0.3798068E+04  0.7818608E-02  0.8046570E-01
          2   -1    0    0  501    0  0.00000000000E+00  0.00000000000E+00  0.33299600713E+04  0.33299600713E+04  0.00000000000E+00 0. -1.
         -1   -1    0    0    0  501 -0.00000000000E+00 -0.00000000000E+00 -0.10829949850E+04  0.10829949850E+04  0.00000000000E+00 0.  1.
         24    2    1    2    0    0  0.11619358178E+04  0.23371735647E+03  0.25792676892E+04  0.28396676523E+04  0.79824277127E+02 0.  0.
        254    2    1    2    0    0 -0.11619358178E+04 -0.23371735647E+03 -0.33230260291E+03  0.15732874040E+04  0.97984161386E+03 0.  0.
         23    2    4    4    0    0 -0.10920359914E+04  0.15556627991E+03 -0.36670808472E+03  0.11659599415E+04  0.90798082155E+02 0.  0.
         23    2    4    4    0    0 -0.69899826424E+02 -0.38928363638E+03  0.34405481806E+02  0.40732746255E+03  0.91127324548E+02 0.  0.
          2    1    3    3  502    0  0.11137756462E+04  0.22912561479E+03  0.25053977217E+04  0.27513655666E+04  0.00000000000E+00 0. -1.
         -1    1    3    3    0  502  0.48160171676E+02  0.45917416778E+01  0.73869967526E+02  0.88302085648E+02  0.00000000000E+00 0.  1.
         13    1    5    5    0    0 -0.71333113442E+03  0.11889289192E+03 -0.28171626877E+03  0.77610623189E+03  0.00000000000E+00 0. -1.
        -13    1    5    5    0    0 -0.37870485699E+03  0.36673387988E+02 -0.84991815949E+02  0.38985370958E+03  0.00000000000E+00 0.  1.
          4    1    6    6  503    0 -0.75704314911E+02 -0.34378513555E+03  0.35356806020E+01  0.35203957698E+03  0.00000000000E+00 0. -1.
         -4    1    6    6    0  503  0.58044884869E+01 -0.45498500833E+02  0.30869801204E+02  0.55287885572E+02  0.00000000000E+00 0.  1.
<mgrwt>
<rscale>  0 0.37980680E+04</rscale>
<asrwt>0</asrwt>
<pdfrwt beam="1">  1        2 0.51230155E+00 0.37980680E+04</pdfrwt>
<pdfrwt beam="2">  1       -1 0.16661461E+00 0.37980680E+04</pdfrwt>
<totfact> 0.25202257E-01</totfact>
</mgrwt>
</event>
<event>
12    7  0.1701638E-007  0.1249145E+04  0.7818608E-02  0.9070895E-01
         -1   -1    0    0    0  501 -0.00000000000E+00  0.00000000000E+00  0.16089005423E+03  0.16089005423E+03  0.00000000000E+00 0.  1.
          2   -1    0    0  501    0  0.00000000000E+00 -0.00000000000E+00 -0.24245788586E+04  0.24245788586E+04  0.00000000000E+00 0. -1.
         24    2    1    2    0    0  0.18620575555E+03 -0.13968752494E+03 -0.17925767387E+03  0.30474962682E+03  0.80955749523E+02 0.  0.
        254    2    1    2    0    0 -0.18620575555E+03  0.13968752494E+03 -0.20844311305E+04  0.22807192860E+04  0.89590297231E+03 0.  0.
         23    2    4    4    0    0  0.32572988853E+03 -0.43050719151E+02 -0.51200279885E+03  0.61451871671E+03  0.86793216658E+02 0.  0.
         23    2    4    4    0    0 -0.51193564408E+03  0.18273824409E+03 -0.15724283317E+04  0.16662005693E+04  0.90675848211E+02 0.  0.
          2    1    3    3  502    0  0.89039697804E+02 -0.23255594681E+02 -0.90320292042E+02  0.12894435088E+03  0.00000000000E+00 0. -1.
         -1    1    3    3    0  502  0.97166057749E+02 -0.11643193026E+03 -0.88937381829E+02  0.17580527594E+03  0.00000000000E+00 0.  1.
         13    1    5    5    0    0  0.12333990578E+03 -0.52876827558E+02 -0.16495129284E+03  0.21264435158E+03  0.00000000000E+00 0. -1.
        -13    1    5    5    0    0  0.20238998274E+03  0.98261084072E+01 -0.34705150601E+03  0.40187436513E+03  0.00000000000E+00 0.  1.
          3    1    6    6  503    0 -0.28835972846E+03  0.13811331241E+03 -0.10069968504E+04  0.10565364531E+04  0.00000000000E+00 0. -1.
         -3    1    6    6    0  503 -0.22357591562E+03  0.44624931683E+02 -0.56543148125E+03  0.60966411618E+03  0.00000000000E+00 0.  1.
<mgrwt>
<rscale>  0 0.12491447E+04</rscale>
<asrwt>0</asrwt>
<pdfrwt beam="1">  1        2 0.37301208E+00 0.12491447E+04</pdfrwt>
<pdfrwt beam="2">  1       -1 0.24752319E-01 0.12491447E+04</pdfrwt>
<totfact> 0.61716108E+01</totfact>
</mgrwt>
</event>
<event>
12    7  0.1701638E-007  0.2765378E+04  0.7818608E-02  0.8314098E-01
          2   -1    0    0  501    0  0.00000000000E+00  0.00000000000E+00  0.24637714486E+04  0.24637714486E+04  0.00000000000E+00 0. -1.
         -1   -1    0    0    0  501 -0.00000000000E+00 -0.00000000000E+00 -0.77597670921E+03  0.77597670921E+03  0.00000000000E+00 0.  1.
         24    2    1    2    0    0 -0.11188208409E+04 -0.38297303707E+03  0.11753611315E+04  0.16693925240E+04  0.83481665639E+02 0.  0.
        254    2    1    2    0    0  0.11188208409E+04  0.38297303707E+03  0.51243360790E+03  0.15703556338E+04  0.89721802979E+03 0.  0.
         23    2    4    4    0    0  0.25277977928E+02  0.26759195105E+03  0.35648495827E+03  0.45594989654E+03  0.92543796379E+02 0.  0.
         23    2    4    4    0    0  0.10935428630E+04  0.11538108602E+03  0.15594864963E+03  0.11144057373E+04  0.91822534017E+02 0.  0.
          2    1    3    3  502    0 -0.11034006083E+04 -0.38586893326E+03  0.11663917137E+04  0.16513198860E+04  0.00000000000E+00 0. -1.
         -1    1    3    3    0  502 -0.15420232619E+02  0.28958961894E+01  0.89694178076E+01  0.18072638008E+02  0.00000000000E+00 0.  1.
         13    1    5    5    0    0  0.13930488142E+01  0.35811251163E+01 -0.58486310463E+01  0.69979659340E+01  0.00000000000E+00 0.  1.
        -13    1    5    5    0    0  0.23884929113E+02  0.26401082594E+03  0.36233358932E+03  0.44895193061E+03  0.00000000000E+00 0. -1.
          2    1    6    6  503    0  0.80137201851E+03  0.63769989454E+02  0.78239841890E+02  0.80770365634E+03  0.00000000000E+00 0. -1.
         -2    1    6    6    0  503  0.29217084449E+03  0.51611096564E+02  0.77708807739E+02  0.30670208095E+03  0.00000000000E+00 0.  1.
<mgrwt>
<rscale>  0 0.27653783E+04</rscale>
<asrwt>0</asrwt>
<pdfrwt beam="1">  1        2 0.37904176E+00 0.27653783E+04</pdfrwt>
<pdfrwt beam="2">  1       -1 0.11938103E+00 0.27653783E+04</pdfrwt>
<totfact> 0.22720221E+00</totfact>
</mgrwt>
</event>
<event>
12    7  0.1701638E-007  0.1831076E+04  0.7818608E-02  0.8689946E-01
          2   -1    0    0  501    0  0.00000000000E+00  0.00000000000E+00  0.10318234035E+04  0.10318234035E+04  0.00000000000E+00 0. -1.
         -1   -1    0    0    0  501 -0.00000000000E+00 -0.00000000000E+00 -0.81235802064E+03  0.81235802064E+03  0.00000000000E+00 0.  1.
         24    2    1    2    0    0  0.21109932197E+03 -0.15099890303E+03 -0.56413961199E+03  0.62596195827E+03  0.78811667543E+02 0.  0.
        254    2    1    2    0    0 -0.21109932197E+03  0.15099890303E+03  0.78360499479E+03  0.12182194658E+04  0.89591198596E+03 0.  0.
         23    2    4    4    0    0  0.27094461477E+03  0.11786611717E+03  0.16846951631E+02  0.30735749192E+03  0.82954217554E+02 0.  0.
         23    2    4    4    0    0 -0.48204393674E+03  0.33132785859E+02  0.76675804316E+03  0.91086197391E+03  0.91035708967E+02 0.  0.
          2    1    3    3  502    0  0.45313701213E+01 -0.26065074182E+02 -0.31279822211E+02  0.40967654130E+02  0.00000000000E+00 0. -1.
         -1    1    3    3    0  502  0.20656795185E+03 -0.12493382885E+03 -0.53285978977E+03  0.58499430414E+03  0.00000000000E+00 0.  1.
         13    1    5    5    0    0  0.23486441529E+03  0.70597214854E+02 -0.10833696267E+01  0.24524769928E+03  0.00000000000E+00 0. -1.
        -13    1    5    5    0    0  0.36080199479E+02  0.47268902316E+02  0.17930321258E+02  0.62109792634E+02  0.00000000000E+00 0.  1.
          3    1    6    6  503    0 -0.31228151458E+03  0.24917387810E+02  0.41279588166E+03  0.51820947548E+03  0.00000000000E+00 0. -1.
         -3    1    6    6    0  503 -0.16976242216E+03  0.82153980484E+01  0.35396216150E+03  0.39265249842E+03  0.00000000000E+00 0.  1.
<mgrwt>
<rscale>  0 0.18310762E+04</rscale>
<asrwt>0</asrwt>
<pdfrwt beam="1">  1        2 0.15874206E+00 0.18310762E+04</pdfrwt>
<pdfrwt beam="2">  1       -1 0.12497816E+00 0.18310762E+04</pdfrwt>
<totfact> 0.14458378E+01</totfact>
</mgrwt>
</event>
<event>
12    7  0.1701638E-007  0.2677626E+04  0.7818608E-02  0.8342301E-01
          2   -1    0    0  501    0  0.00000000000E+00  0.00000000000E+00  0.17261846202E+04  0.17261846202E+04  0.00000000000E+00 0. -1.
         -1   -1    0    0    0  501 -0.00000000000E+00 -0.00000000000E+00 -0.10383708123E+04  0.10383708123E+04  0.00000000000E+00 0.  1.
         24    2    1    2    0    0 -0.41900563076E+02 -0.76782764225E+03  0.12426039074E+04  0.14634226234E+04  0.78907278013E+02 0.  0.
        254    2    1    2    0    0  0.41900563076E+02  0.76782764225E+03 -0.55479009960E+03  0.13011328091E+04  0.89097676005E+03 0.  0.
         23    2    4    4    0    0 -0.33472146296E+03  0.93641844388E+02 -0.33640030462E+03  0.49264650262E+03  0.93424615687E+02 0.  0.
         23    2    4    4    0    0  0.37662202603E+03  0.67418579786E+03 -0.21838979498E+03  0.80848630649E+03  0.97904875731E+02 0.  0.
          4    1    3    3  502    0 -0.24020486598E+02 -0.44328557586E+03  0.79017170029E+03  0.90633901024E+03  0.00000000000E+00 0. -1.
         -3    1    3    3    0  502 -0.17880076479E+02 -0.32454206639E+03  0.45243220712E+03  0.55708361315E+03  0.00000000000E+00 0.  1.
         13    1    5    5    0    0 -0.27373458206E+02  0.24296945069E+02 -0.74227984134E+02  0.82761351985E+02  0.00000000000E+00 0.  1.
        -13    1    5    5    0    0 -0.30734800475E+03  0.69344899319E+02 -0.26217232048E+03  0.40988515064E+03  0.00000000000E+00 0. -1.
          2    1    6    6  503    0  0.34228069225E+03  0.54585093580E+03 -0.19836804534E+03  0.67413588972E+03  0.00000000000E+00 0. -1.
         -2    1    6    6    0  503  0.34341333788E+02  0.12833486206E+03 -0.20021749646E+02  0.13435041676E+03  0.00000000000E+00 0.  1.
<mgrwt>
<rscale>  0 0.26776256E+04</rscale>
<asrwt>0</asrwt>
<pdfrwt beam="1">  1        2 0.26556686E+00 0.26776256E+04</pdfrwt>
<pdfrwt beam="2">  1       -1 0.15974936E+00 0.26776256E+04</pdfrwt>
<totfact> 0.27850027E+00</totfact>
</mgrwt>
</event>
<event>
12    7  0.1701638E-007  0.1973933E+04  0.7818608E-02  0.8618906E-01
          2   -1    0    0  501    0  0.00000000000E+00  0.00000000000E+00  0.54958638197E+03  0.54958638197E+03  0.00000000000E+00 0. -1.
         -1   -1    0    0    0  501 -0.00000000000E+00 -0.00000000000E+00 -0.17724285365E+04  0.17724285365E+04  0.00000000000E+00 0.  1.
         24    2    1    2    0    0  0.23656789769E+03  0.29390003432E+03 -0.12510017409E+04  0.13091560172E+04  0.80885853387E+02 0.  0.
        254    2    1    2    0    0 -0.23656789769E+03 -0.29390003432E+03  0.28159586342E+02  0.10128589013E+04  0.93954701383E+03 0.  0.
         23    2    4    4    0    0 -0.28952673310E+02 -0.48278555848E+03 -0.29614219138E+03  0.57455290794E+03  0.92144960451E+02 0.  0.
         23    2    4    4    0    0 -0.20761522438E+03  0.18888552417E+03  0.32430177772E+03  0.43830599334E+03  0.90325401343E+02 0.  0.
          2    1    3    3  502    0  0.65822741202E+02  0.38216270686E+02 -0.30967234476E+03  0.31888881717E+03  0.00000000000E+00 0. -1.
         -1    1    3    3    0  502  0.17074515649E+03  0.25568376363E+03 -0.94132939610E+03  0.99026720001E+03  0.00000000000E+00 0.  1.
         13    1    5    5    0    0  0.23147389842E+02 -0.10590513539E+03 -0.38402225883E+02  0.11500621858E+03  0.00000000000E+00 0. -1.
        -13    1    5    5    0    0 -0.52100063153E+02 -0.37688042309E+03 -0.25773996549E+03  0.45954668936E+03  0.00000000000E+00 0.  1.
          4    1    6    6  503    0 -0.39496969685E+02  0.65055319386E+02  0.14205161672E+03  0.16115479207E+03  0.00000000000E+00 0. -1.
         -4    1    6    6    0  503 -0.16811825469E+03  0.12383020478E+03  0.18225016100E+03  0.27715120126E+03  0.00000000000E+00 0.  1.
<mgrwt>
<rscale>  0 0.19739327E+04</rscale>
<asrwt>0</asrwt>
<pdfrwt beam="1">  1        2 0.84551750E-01 0.19739327E+04</pdfrwt>
<pdfrwt beam="2">  1       -1 0.27268132E+00 0.19739327E+04</pdfrwt>
<totfact> 0.29095219E+00</totfact>
</mgrwt>
</event>
<event>
12    7  0.1701638E-007  0.2498478E+04  0.7818608E-02  0.8403528E-01
          2   -1    0    0  501    0  0.00000000000E+00  0.00000000000E+00  0.20413319271E+04  0.20413319271E+04  0.00000000000E+00 0. -1.
         -1   -1    0    0    0  501 -0.00000000000E+00 -0.00000000000E+00 -0.76449971696E+03  0.76449971696E+03  0.00000000000E+00 0.  1.
         24    2    1    2    0    0 -0.72975756930E+03  0.57050719569E+03  0.11866683419E+04  0.15075130276E+04  0.79932498596E+02 0.  0.
        254    2    1    2    0    0  0.72975756930E+03 -0.57050719569E+03  0.90163868234E+02  0.12983186165E+04  0.90524976471E+03 0.  0.
         23    2    4    4    0    0  0.59900499697E+03 -0.80509329416E+03  0.26815333386E+02  0.10077670918E+04  0.88843967272E+02 0.  0.
         23    2    4    4    0    0  0.13075257233E+03  0.23458609847E+03  0.63348534848E+02  0.29055152469E+03  0.90996037636E+02 0.  0.
          4    1    3    3  502    0 -0.60017740317E+03  0.45410109939E+03  0.91439480609E+03  0.11842882188E+04  0.00000000000E+00 0. -1.
         -3    1    3    3    0  502 -0.12958016613E+03  0.11640609630E+03  0.27227353585E+03  0.32322480882E+03  0.00000000000E+00 0.  1.
         13    1    5    5    0    0  0.56254436710E+03 -0.77294769599E+03  0.90850673660E+01  0.95602659175E+03  0.00000000000E+00 0.  1.
        -13    1    5    5    0    0  0.36460629873E+02 -0.32145598174E+02  0.17730266020E+02  0.51740500054E+02  0.00000000000E+00 0. -1.
          1    1    6    6  503    0  0.63022117558E+01  0.27986474518E+01  0.23470008829E+02  0.24462044375E+02  0.00000000000E+00 0. -1.
         -1    1    6    6    0  503  0.12445036057E+03  0.23178745102E+03  0.39878526020E+02  0.26608948031E+03  0.00000000000E+00 0.  1.
<mgrwt>
<rscale>  0 0.24984777E+04</rscale>
<asrwt>0</asrwt>
<pdfrwt beam="1">  1        2 0.31405106E+00 0.24984777E+04</pdfrwt>
<pdfrwt beam="2">  1       -1 0.11761534E+00 0.24984777E+04</pdfrwt>
<totfact> 0.41807753E+00</totfact>
</mgrwt>
</event>
<event>
12    7  0.1701638E-007  0.1526497E+04  0.7818608E-02  0.8867022E-01
          2   -1    0    0  501    0  0.00000000000E+00  0.00000000000E+00  0.21909940025E+04  0.21909940025E+04  0.00000000000E+00 0. -1.
         -1   -1    0    0    0  501 -0.00000000000E+00 -0.00000000000E+00 -0.26588297546E+03  0.26588297546E+03  0.00000000000E+00 0.  1.
         24    2    1    2    0    0  0.23277791052E+03  0.10603658187E+02  0.12524757719E+04  0.12765443138E+04  0.81066840421E+02 0.  0.
        254    2    1    2    0    0 -0.23277791052E+03 -0.10603658187E+02  0.67263525509E+03  0.11803326641E+04  0.94151421575E+03 0.  0.
         23    2    4    4    0    0  0.23499819890E+03  0.18461087943E+03 -0.23733942621E+02  0.31424499794E+03  0.94240587895E+02 0.  0.
         23    2    4    4    0    0 -0.46777610942E+03 -0.19521453761E+03  0.69636919771E+03  0.86608766620E+03  0.90854729033E+02 0.  0.
          4    1    3    3  502    0  0.20251379710E+03  0.19618569298E+02  0.90266956817E+03  0.92531566267E+03  0.00000000000E+00 0. -1.
         -3    1    3    3    0  502  0.30264113419E+02 -0.90149111111E+01  0.34980620377E+03  0.35122865114E+03  0.00000000000E+00 0.  1.
         13    1    5    5    0    0  0.13860787235E+03  0.13010020568E+03  0.27768592806E+02  0.19211793394E+03  0.00000000000E+00 0. -1.
        -13    1    5    5    0    0  0.96390326549E+02  0.54510673747E+02 -0.51502535427E+02  0.12212706399E+03  0.00000000000E+00 0.  1.
          2    1    6    6  503    0 -0.38866873675E+03 -0.19472002887E+03  0.60881908095E+03  0.74809087008E+03  0.00000000000E+00 0. -1.
         -2    1    6    6    0  503 -0.79107372670E+02 -0.49450873771E+00  0.87550116758E+02  0.11799679612E+03  0.00000000000E+00 0.  1.
<mgrwt>
<rscale>  0 0.15264966E+04</rscale>
<asrwt>0</asrwt>
<pdfrwt beam="1">  1        2 0.33707599E+00 0.15264966E+04</pdfrwt>
<pdfrwt beam="2">  1       -1 0.40905075E-01 0.15264966E+04</pdfrwt>
<totfact> 0.33573228E+01</totfact>
</mgrwt>
</event>
<event>
12    7  0.1701638E-007  0.1491863E+04  0.7818608E-02  0.8889882E-01
          2   -1    0    0  501    0  0.00000000000E+00  0.00000000000E+00  0.25938722506E+04  0.25938722506E+04  0.00000000000E+00 0. -1.
         -1   -1    0    0    0  501 -0.00000000000E+00 -0.00000000000E+00 -0.21451086425E+03  0.21451086425E+03  0.00000000000E+00 0.  1.
         24    2    1    2    0    0 -0.28700147774E+03 -0.16541534956E+03  0.13372930058E+03  0.36618948242E+03  0.80493012753E+02 0.  0.
        254    2    1    2    0    0  0.28700147774E+03  0.16541534956E+03  0.22456320857E+04  0.24421936324E+04  0.90095182312E+03 0.  0.
         23    2    4    4    0    0  0.35369966524E+03  0.48392764048E+03  0.12234701651E+04  0.13656153062E+04  0.93469274358E+02 0.  0.
         23    2    4    4    0    0 -0.66698187500E+02 -0.31851229093E+03  0.10221619206E+04  0.10765783262E+04  0.91143692864E+02 0.  0.
          2    1    3    3  502    0 -0.94909745156E+02 -0.51256557680E+02  0.85373886417E+02  0.13756378489E+03  0.00000000000E+00 0. -1.
         -1    1    3    3    0  502 -0.19209173259E+03 -0.11415879188E+03  0.48355414167E+02  0.22862569753E+03  0.00000000000E+00 0.  1.
         13    1    5    5    0    0  0.14201928134E+03  0.17574592571E+03  0.56324857876E+03  0.60688142841E+03  0.00000000000E+00 0.  1.
        -13    1    5    5    0    0  0.21168038390E+03  0.30818171477E+03  0.66022158633E+03  0.75873387779E+03  0.00000000000E+00 0. -1.
          2    1    6    6  503    0 -0.86103865177E+02 -0.28112849924E+03  0.85296788054E+03  0.90222021365E+03  0.00000000000E+00 0. -1.
         -2    1    6    6    0  503  0.19405677678E+02 -0.37383791687E+02  0.16919404009E+03  0.17435811254E+03  0.00000000000E+00 0.  1.
<mgrwt>
<rscale>  0 0.14918630E+04</rscale>
<asrwt>0</asrwt>
<pdfrwt beam="1">  1        2 0.39905725E+00 0.14918630E+04</pdfrwt>
<pdfrwt beam="2">  1       -1 0.33001673E-01 0.14918630E+04</pdfrwt>
<totfact> 0.29225953E+01</totfact>
</mgrwt>
</event>
<event>
12    7  0.1701638E-007  0.1101796E+04  0.7818608E-02  0.9203443E-01
          2   -1    0    0  501    0  0.00000000000E+00  0.00000000000E+00  0.19467155471E+04  0.19467155471E+04  0.00000000000E+00 0. -1.
         -1   -1    0    0    0  501 -0.00000000000E+00 -0.00000000000E+00 -0.15589783987E+03  0.15589783987E+03  0.00000000000E+00 0.  1.
         24    2    1    2    0    0  0.60421990842E+02  0.78435012320E+02  0.58547639588E+03  0.59911566104E+03  0.79712590233E+02 0.  0.
        254    2    1    2    0    0 -0.60421990842E+02 -0.78435012320E+02  0.12053413114E+04  0.15034977260E+04  0.89322722019E+03 0.  0.
         23    2    4    4    0    0  0.70421292253E+02  0.38048625867E+03  0.40352607333E+03  0.56608085284E+03  0.88799147808E+02 0.  0.
         23    2    4    4    0    0 -0.13084328309E+03 -0.45892127099E+03  0.80181523806E+03  0.93741687312E+03  0.90077857039E+02 0.  0.
          4    1    3    3  502    0 -0.45649405726E+01  0.57821615051E+02  0.23340567497E+03  0.24050444270E+03  0.00000000000E+00 0. -1.
         -3    1    3    3    0  502  0.64986931415E+02  0.20613397269E+02  0.35207072091E+03  0.35861121834E+03  0.00000000000E+00 0.  1.
         13    1    5    5    0    0  0.38074191814E+02  0.21368478801E+03  0.28794062983E+03  0.36058374757E+03  0.00000000000E+00 0. -1.
        -13    1    5    5    0    0  0.32347100439E+02  0.16680147066E+03  0.11558544350E+03  0.20549710526E+03  0.00000000000E+00 0.  1.
          3    1    6    6  503    0 -0.27841540240E+02 -0.59915679198E+02  0.17716802725E+03  0.18908609112E+03  0.00000000000E+00 0. -1.
         -3    1    6    6    0  503 -0.10300174286E+03 -0.39900559179E+03  0.62464721081E+03  0.74833078200E+03  0.00000000000E+00 0.  1.
<mgrwt>
<rscale>  0 0.11017963E+04</rscale>
<asrwt>0</asrwt>
<pdfrwt beam="1">  1        2 0.29949468E+00 0.11017963E+04</pdfrwt>
<pdfrwt beam="2">  1       -1 0.23984284E-01 0.11017963E+04</pdfrwt>
<totfact> 0.12186570E+02</totfact>
</mgrwt>
</event>
<event>
12    7  0.1701638E-007  0.1972352E+04  0.7818608E-02  0.8619657E-01
         -1   -1    0    0    0  501 -0.00000000000E+00  0.00000000000E+00  0.63068842344E+03  0.63068842344E+03  0.00000000000E+00 0.  1.
          2   -1    0    0  501    0  0.00000000000E+00 -0.00000000000E+00 -0.15420337759E+04  0.15420337759E+04  0.00000000000E+00 0. -1.
         24    2    1    2    0    0  0.77244981067E+03 -0.10968101656E+03 -0.29552330586E+03  0.83880625736E+03  0.86909594908E+02 0.  0.
        254    2    1    2    0    0 -0.77244981067E+03  0.10968101656E+03 -0.61582204665E+03  0.13339159420E+04  0.88959896124E+03 0.  0.
         23    2    4    4    0    0 -0.83037112212E+02  0.40444445532E+03 -0.16863682248E+03  0.45632520731E+03  0.96560020134E+02 0.  0.
         23    2    4    4    0    0 -0.68941269846E+03 -0.29476343877E+03 -0.44718522417E+03  0.87759073471E+03  0.89529432587E+02 0.  0.
          2    1    3    3  502    0  0.66828428404E+03 -0.12390725259E+03 -0.26259320405E+03  0.72863714038E+03  0.00000000000E+00 0. -1.
         -1    1    3    3    0  502  0.10416552663E+03  0.14226236034E+02 -0.32930101812E+02  0.11016911698E+03  0.00000000000E+00 0.  1.
         13    1    5    5    0    0 -0.52707551332E+01  0.84305681525E+01 -0.26741148425E+02  0.28529710096E+02  0.00000000000E+00 0. -1.
        -13    1    5    5    0    0 -0.77766357078E+02  0.39601388717E+03 -0.14189567406E+03  0.42779549722E+03  0.00000000000E+00 0.  1.
          1    1    6    6  503    0 -0.89595137661E+02 -0.79958146410E+01 -0.61653892485E+02  0.10905239201E+03  0.00000000000E+00 0. -1.
         -1    1    6    6    0  503 -0.59981756080E+03 -0.28676762412E+03 -0.38553133169E+03  0.76853834270E+03  0.00000000000E+00 0.  1.
<mgrwt>
<rscale>  0 0.19723517E+04</rscale>
<asrwt>0</asrwt>
<pdfrwt beam="1">  1        2 0.23723596E+00 0.19723517E+04</pdfrwt>
<pdfrwt beam="2">  1       -1 0.97028989E-01 0.19723517E+04</pdfrwt>
<totfact> 0.13017035E+01</totfact>
</mgrwt>
</event>
<event>
12    7  0.1701638E-007  0.1586532E+04  0.7818608E-02  0.8828865E-01
         -1   -1    0    0    0  501 -0.00000000000E+00  0.00000000000E+00  0.48391924253E+03  0.48391924253E+03  0.00000000000E+00 0.  1.
          2   -1    0    0  501    0  0.00000000000E+00 -0.00000000000E+00 -0.13003643609E+04  0.13003643609E+04  0.00000000000E+00 0. -1.
         24    2    1    2    0    0  0.15546008759E+03 -0.48166692966E+03 -0.46656831253E+03  0.69409484091E+03  0.88942610494E+02 0.  0.
        254    2    1    2    0    0 -0.15546008759E+03  0.48166692966E+03 -0.34987680583E+03  0.10901887625E+04  0.89995938169E+03 0.  0.
         23    2    4    4    0    0 -0.22582159886E+03 -0.11277158475E+03  0.14940259079E+03  0.30477715296E+03  0.82795857325E+02 0.  0.
         23    2    4    4    0    0  0.70361511270E+02  0.59443851441E+03 -0.49927939662E+03  0.78541160955E+03  0.96351392579E+02 0.  0.
          2    1    3    3  502    0  0.10217899899E+03 -0.28955733983E+03 -0.33911328807E+03  0.45747330308E+03  0.00000000000E+00 0. -1.
         -1    1    3    3    0  502  0.53281088600E+02 -0.19210958983E+03 -0.12745502447E+03  0.23662153783E+03  0.00000000000E+00 0.  1.
         13    1    5    5    0    0 -0.17215059088E+01  0.15421591092E+01  0.23217725858E+02  0.23332480179E+02  0.00000000000E+00 0. -1.
        -13    1    5    5    0    0 -0.22410009295E+03 -0.11431374386E+03  0.12618486493E+03  0.28144467278E+03  0.00000000000E+00 0.  1.
          4    1    6    6  503    0 -0.17734593297E+02  0.25370609960E+03 -0.20551497043E+03  0.32698272713E+03  0.00000000000E+00 0. -1.
         -4    1    6    6    0  503  0.88096104567E+02  0.34073241481E+03 -0.29376442619E+03  0.45842888242E+03  0.00000000000E+00 0.  1.
<mgrwt>
<rscale>  0 0.15865325E+04</rscale>
<asrwt>0</asrwt>
<pdfrwt beam="1">  1        2 0.20005605E+00 0.15865325E+04</pdfrwt>
<pdfrwt beam="2">  1       -1 0.74449115E-01 0.15865325E+04</pdfrwt>
<totfact> 0.32832032E+01</totfact>
</mgrwt>
</event>
<event>
12    7  0.1701638E-007  0.2999226E+04  0.7818608E-02  0.8243952E-01
         -1   -1    0    0    0  501 -0.00000000000E+00  0.00000000000E+00  0.11671058671E+04  0.11671058671E+04  0.00000000000E+00 0.  1.
          2   -1    0    0  501    0  0.00000000000E+00 -0.00000000000E+00 -0.19268514422E+04  0.19268514422E+04  0.00000000000E+00 0. -1.
         24    2    1    2    0    0  0.69990350141E+03 -0.92392182074E+03 -0.10866242097E+04  0.15907305869E+04  0.78582345547E+02 0.  0.
        254    2    1    2    0    0 -0.69990350141E+03  0.92392182074E+03  0.32687863463E+03  0.15032267224E+04  0.89963575685E+03 0.  0.
         23    2    4    4    0    0  0.15492970249E+03  0.27212547103E+03  0.26947412334E+03  0.42322846252E+03  0.91926838525E+02 0.  0.
         23    2    4    4    0    0 -0.85483320390E+03  0.65179634971E+03  0.57404511291E+02  0.10799982599E+04  0.86733358108E+02 0.  0.
          2    1    3    3  502    0  0.67867615806E+03 -0.86752073443E+03 -0.10331354572E+04  0.15101531132E+04  0.00000000000E+00 0. -1.
         -1    1    3    3    0  502  0.21227343348E+02 -0.56401086303E+02 -0.53488752428E+02  0.80577473763E+02  0.00000000000E+00 0.  1.
         13    1    5    5    0    0  0.88216082679E+02  0.67377482955E+02  0.90407527384E+02  0.14316187852E+03  0.00000000000E+00 0. -1.
        -13    1    5    5    0    0  0.66713619813E+02  0.20474798808E+03  0.17906659595E+03  0.28006658401E+03  0.00000000000E+00 0.  1.
          3    1    6    6  503    0 -0.83092995578E+03  0.64849172729E+03  0.52276710231E+02  0.10553288427E+04  0.00000000000E+00 0. -1.
         -3    1    6    6    0  503 -0.23903248122E+02  0.33046224162E+01  0.51278010600E+01  0.24669417176E+02  0.00000000000E+00 0.  1.
<mgrwt>
<rscale>  0 0.29992263E+04</rscale>
<asrwt>0</asrwt>
<pdfrwt beam="1">  1        2 0.29643868E+00 0.29992263E+04</pdfrwt>
<pdfrwt beam="2">  1       -1 0.17955475E+00 0.29992263E+04</pdfrwt>
<totfact> 0.14981920E+00</totfact>
</mgrwt>
</event>
<event>
12    7  0.1701638E-007  0.1998718E+04  0.7818608E-02  0.8607220E-01
         -1   -1    0    0    0  501 -0.00000000000E+00  0.00000000000E+00  0.65631499477E+03  0.65631499477E+03  0.00000000000E+00 0.  1.
          2   -1    0    0  501    0  0.00000000000E+00 -0.00000000000E+00 -0.15217060615E+04  0.15217060615E+04  0.00000000000E+00 0. -1.
         24    2    1    2    0    0 -0.68993771735E+03  0.32987123871E+03 -0.14302216680E+02  0.76962038687E+03  0.85334040965E+02 0.  0.
        254    2    1    2    0    0  0.68993771735E+03 -0.32987123871E+03 -0.85108885001E+03  0.14084006693E+04  0.82122538129E+03 0.  0.
         23    2    4    4    0    0  0.75381853748E+03 -0.47531781790E+03 -0.53340908669E+03  0.10427767665E+04  0.93213279433E+02 0.  0.
         23    2    4    4    0    0 -0.63880820131E+02  0.14544657920E+03 -0.31767976332E+03  0.36562390288E+03  0.86746410628E+02 0.  0.
          4    1    3    3  502    0 -0.55104316182E+03  0.24601198402E+03  0.19959501722E+02  0.60379536615E+03  0.00000000000E+00 0. -1.
         -3    1    3    3    0  502 -0.13889455552E+03  0.83859254691E+02 -0.34261718402E+02  0.16582502073E+03  0.00000000000E+00 0.  1.
         13    1    5    5    0    0  0.30882969817E+03 -0.15922129943E+03 -0.16815082099E+03  0.38600764664E+03  0.00000000000E+00 0.  1.
        -13    1    5    5    0    0  0.44498883930E+03 -0.31609651847E+03 -0.36525826570E+03  0.65676911983E+03  0.00000000000E+00 0. -1.
          1    1    6    6  503    0 -0.25033652850E+02  0.12686558158E+03 -0.18190364235E+03  0.22318264866E+03  0.00000000000E+00 0. -1.
         -1    1    6    6    0  503 -0.38847167282E+02  0.18580997618E+02 -0.13577612097E+03  0.14244125422E+03  0.00000000000E+00 0.  1.
<mgrwt>
<rscale>  0 0.19987181E+04</rscale>
<asrwt>0</asrwt>
<pdfrwt beam="1">  1        2 0.23410862E+00 0.19987181E+04</pdfrwt>
<pdfrwt beam="2">  1       -1 0.10097154E+00 0.19987181E+04</pdfrwt>
<totfact> 0.12177996E+01</totfact>
</mgrwt>
</event>
<event>
12    7  0.1701638E-007  0.2924304E+04  0.7818608E-02  0.8265683E-01
         -1   -1    0    0    0  501 -0.00000000000E+00  0.00000000000E+00  0.16411474874E+04  0.16411474874E+04  0.00000000000E+00 0.  1.
          2   -1    0    0  501    0  0.00000000000E+00 -0.00000000000E+00 -0.13026794186E+04  0.13026794186E+04  0.00000000000E+00 0. -1.
         24    2    1    2    0    0 -0.10913812565E+04 -0.58410981840E+03 -0.32078524365E+03  0.12811639051E+04  0.78615852821E+02 0.  0.
        254    2    1    2    0    0  0.10913812565E+04  0.58410981840E+03  0.65925331243E+03  0.16626630009E+04  0.89304870963E+03 0.  0.
         23    2    4    4    0    0  0.27383580787E+03  0.61331158150E+03  0.14824014765E+03  0.69387059508E+03  0.91346131071E+02 0.  0.
         23    2    4    4    0    0  0.81754544861E+03 -0.29201763105E+02  0.51101316478E+03  0.96879240585E+03  0.90503964278E+02 0.  0.
          2    1    3    3  502    0 -0.68582443835E+03 -0.40973874525E+03 -0.20680333641E+03  0.82523246394E+03  0.00000000000E+00 0. -1.
         -1    1    3    3    0  502 -0.40555681813E+03 -0.17437107315E+03 -0.11398190724E+03  0.45593144118E+03  0.00000000000E+00 0.  1.
         13    1    5    5    0    0  0.14197479409E+03  0.23607601427E+03  0.29887360882E+02  0.27709561709E+03  0.00000000000E+00 0.  1.
        -13    1    5    5    0    0  0.13186101378E+03  0.37723556723E+03  0.11835278677E+03  0.41677497799E+03  0.00000000000E+00 0. -1.
          2    1    6    6  503    0  0.18093536299E+03  0.25891758932E+01  0.15763549536E+03  0.23998595544E+03  0.00000000000E+00 0.  1.
         -2    1    6    6    0  503  0.63661008562E+03 -0.31790938998E+02  0.35337766941E+03  0.72880645041E+03  0.00000000000E+00 0. -1.
<mgrwt>
<rscale>  0 0.29243044E+04</rscale>
<asrwt>0</asrwt>
<pdfrwt beam="1">  1        2 0.20041222E+00 0.29243044E+04</pdfrwt>
<pdfrwt beam="2">  1       -1 0.25248423E+00 0.29243044E+04</pdfrwt>
<totfact> 0.10854226E+00</totfact>
</mgrwt>
</event>
<event>
12    7  0.1701638E-007  0.1657545E+04  0.7818608E-02  0.8785955E-01
          2   -1    0    0  501    0  0.00000000000E+00  0.00000000000E+00  0.27492455156E+04  0.27492455156E+04  0.00000000000E+00 0. -1.
         -1   -1    0    0    0  501 -0.00000000000E+00 -0.00000000000E+00 -0.24983720331E+03  0.24983720331E+03  0.00000000000E+00 0.  1.
         24    2    1    2    0    0 -0.72184048673E+02 -0.12546423832E+03  0.18618557440E+04  0.18699502150E+04  0.96203861533E+02 0.  0.
        254    2    1    2    0    0  0.72184048673E+02  0.12546423832E+03  0.63755256821E+03  0.11291325039E+04  0.92060584514E+03 0.  0.
         23    2    4    4    0    0 -0.12076665768E+03  0.44942147446E+03  0.13423361155E+03  0.49291077853E+03  0.91532102617E+02 0.  0.
         23    2    4    4    0    0  0.19295070635E+03 -0.32395723613E+03  0.50331895666E+03  0.63622172535E+03  0.96280038186E+02 0.  0.
          4    1    3    3  502    0 -0.93932560215E+02 -0.10277636778E+03  0.16366831482E+04  0.16425949091E+04  0.00000000000E+00 0. -1.
         -3    1    3    3    0  502  0.21748511543E+02 -0.22687870541E+02  0.22517259582E+03  0.22735530592E+03  0.00000000000E+00 0.  1.
         13    1    5    5    0    0  0.13318860370E+02  0.29547198981E+02  0.18020096957E+02  0.37083054129E+02  0.00000000000E+00 0. -1.
        -13    1    5    5    0    0 -0.13408551805E+03  0.41987427547E+03  0.11621351459E+03  0.45582772440E+03  0.00000000000E+00 0.  1.
          1    1    6    6  503    0  0.59385547170E+01 -0.71983786533E+00  0.43281270234E+02  0.43692710511E+02  0.00000000000E+00 0. -1.
         -1    1    6    6    0  503  0.18701215163E+03 -0.32323739827E+03  0.46003768642E+03  0.59252901484E+03  0.00000000000E+00 0.  1.
<mgrwt>
<rscale>  0 0.16575449E+04</rscale>
<asrwt>0</asrwt>
<pdfrwt beam="1">  1        2 0.42296083E+00 0.16575449E+04</pdfrwt>
<pdfrwt beam="2">  1       -1 0.38436495E-01 0.16575449E+04</pdfrwt>
<totfact> 0.17730221E+01</totfact>
</mgrwt>
</event>
<event>
12    7  0.1701638E-007  0.1173702E+04  0.7818608E-02  0.9136192E-01
         -1   -1    0    0    0  501 -0.00000000000E+00  0.00000000000E+00  0.25598507413E+03  0.25598507413E+03  0.00000000000E+00 0.  1.
          2   -1    0    0  501    0  0.00000000000E+00 -0.00000000000E+00 -0.13453671034E+04  0.13453671034E+04  0.00000000000E+00 0. -1.
         24    2    1    2    0    0 -0.56104418555E+02  0.19634447721E+03 -0.35405499503E+03  0.41668668230E+03  0.81080158996E+02 0.  0.
        254    2    1    2    0    0  0.56104418555E+02 -0.19634447721E+03 -0.73532703425E+03  0.11846654952E+04  0.90610574925E+03 0.  0.
         23    2    4    4    0    0 -0.25375135329E+03  0.23678444047E+03 -0.44294623255E+03  0.57011855105E+03  0.91526918290E+02 0.  0.
         23    2    4    4    0    0  0.30985577185E+03 -0.43312891768E+03 -0.29238080170E+03  0.61454694420E+03  0.92575130296E+02 0.  0.
          2    1    3    3  502    0 -0.34807605783E+02  0.12430268553E+03 -0.14291828509E+03  0.19258339301E+03  0.00000000000E+00 0. -1.
         -1    1    3    3    0  502 -0.21296812772E+02  0.72041791680E+02 -0.21113670995E+03  0.22410328929E+03  0.00000000000E+00 0.  1.
         13    1    5    5    0    0 -0.21879730788E+03  0.16178405863E+03 -0.37337481010E+03  0.46201200459E+03  0.00000000000E+00 0. -1.
        -13    1    5    5    0    0 -0.34954045416E+02  0.75000381835E+02 -0.69571422445E+02  0.10810654646E+03  0.00000000000E+00 0.  1.
          1    1    6    6  503    0  0.22873635340E+03 -0.29236332024E+03 -0.15690943459E+03  0.40301017488E+03  0.00000000000E+00 0. -1.
         -1    1    6    6    0  503  0.81119418447E+02 -0.14076559744E+03 -0.13547136711E+03  0.21153676933E+03  0.00000000000E+00 0.  1.
<mgrwt>
<rscale>  0 0.11737017E+04</rscale>
<asrwt>0</asrwt>
<pdfrwt beam="1">  1        2 0.20697956E+00 0.11737017E+04</pdfrwt>
<pdfrwt beam="2">  1       -1 0.39382318E-01 0.11737017E+04</pdfrwt>
<totfact> 0.10975670E+02</totfact>
</mgrwt>
</event>
<event>
12    7  0.1701638E-007  0.1848997E+04  0.7818608E-02  0.8680669E-01
          2   -1    0    0  501    0  0.00000000000E+00  0.00000000000E+00  0.17986951900E+04  0.17986951900E+04  0.00000000000E+00 0. -1.
         -3   -1    0    0    0  501 -0.00000000000E+00 -0.00000000000E+00 -0.47517652537E+03  0.47517652537E+03  0.00000000000E+00 0.  1.
         24    2    1    2    0    0  0.32538578492E+03  0.35397834715E+02 -0.26053375379E+03  0.42609898358E+03  0.80954253826E+02 0.  0.
        254    2    1    2    0    0 -0.32538578492E+03 -0.35397834715E+02  0.15840524184E+04  0.18477727318E+04  0.89325981011E+03 0.  0.
         23    2    4    4    0    0 -0.21460821250E+03 -0.35245108853E+03  0.13832967152E+04  0.14461835065E+04  0.87512727809E+02 0.  0.
         23    2    4    4    0    0 -0.11077757242E+03  0.31705325381E+03  0.20075570326E+03  0.40158922534E+03  0.90424649343E+02 0.  0.
          4    1    3    3  502    0  0.24411128591E+03 -0.56613120309E+01 -0.16878325284E+03  0.29683355067E+03  0.00000000000E+00 0. -1.
         -3    1    3    3    0  502  0.81274499003E+02  0.41059146746E+02 -0.91750500952E+02  0.12926543291E+03  0.00000000000E+00 0.  1.
         13    1    5    5    0    0 -0.13508860111E+03 -0.20264476644E+03  0.66673350365E+03  0.70982208785E+03  0.00000000000E+00 0.  1.
        -13    1    5    5    0    0 -0.79519611385E+02 -0.14980632209E+03  0.71656321152E+03  0.73636141862E+03  0.00000000000E+00 0. -1.
          1    1    6    6  503    0 -0.11712272079E+03  0.25468181647E+03  0.13640587675E+03  0.31174849250E+03  0.00000000000E+00 0. -1.
         -1    1    6    6    0  503  0.63451483714E+01  0.62371437346E+02  0.64349826506E+02  0.89840732833E+02  0.00000000000E+00 0.  1.
<mgrwt>
<rscale>  0 0.18489973E+04</rscale>
<asrwt>0</asrwt>
<pdfrwt beam="1">  1        2 0.27672233E+00 0.18489973E+04</pdfrwt>
<pdfrwt beam="2">  1       -3 0.73104082E-01 0.18489973E+04</pdfrwt>
<totfact> 0.92218450E+00</totfact>
</mgrwt>
</event>
<event>
12    7  0.1701638E-007  0.1427432E+04  0.7818608E-02  0.8934198E-01
         -1   -1    0    0    0  501 -0.00000000000E+00  0.00000000000E+00  0.19219742705E+03  0.19219742705E+03  0.00000000000E+00 0.  1.
          2   -1    0    0  501    0  0.00000000000E+00 -0.00000000000E+00 -0.26503507243E+04  0.26503507243E+04  0.00000000000E+00 0. -1.
         24    2    1    2    0    0  0.55844919242E+02  0.41995658304E+03 -0.62129148937E+03  0.75613509671E+03  0.79088450962E+02 0.  0.
        254    2    1    2    0    0 -0.55844919242E+02 -0.41995658304E+03 -0.18368618079E+04  0.20864130547E+04  0.89419010655E+03 0.  0.
         23    2    4    4    0    0  0.23318497708E+03  0.34773801038E+02 -0.12827695536E+04  0.13081939197E+04  0.10143546297E+03 0.  0.
         23    2    4    4    0    0 -0.28902989632E+03 -0.45473038408E+03 -0.55409225433E+03  0.77821913497E+03  0.91042806164E+02 0.  0.
          2    1    3    3  502    0 -0.18444900548E+02  0.12099395790E+03 -0.19383408902E+03  0.22924093498E+03  0.00000000000E+00 0. -1.
         -1    1    3    3    0  502  0.74289819790E+02  0.29896262514E+03 -0.42745740035E+03  0.52689416174E+03  0.00000000000E+00 0.  1.
         13    1    5    5    0    0  0.62542236387E+02  0.55074070837E+02 -0.48726075184E+03  0.49433563992E+03  0.00000000000E+00 0.  1.
        -13    1    5    5    0    0  0.17064274069E+03 -0.20300269800E+02 -0.79550880175E+03  0.81385827978E+03  0.00000000000E+00 0. -1.
          2    1    6    6  503    0 -0.89686098074E+01 -0.68213921884E+02 -0.79087922625E+02  0.10482592526E+03  0.00000000000E+00 0. -1.
         -2    1    6    6    0  503 -0.28006128651E+03 -0.38651646219E+03 -0.47500433170E+03  0.67339320971E+03  0.00000000000E+00 0.  1.
<mgrwt>
<rscale>  0 0.14274321E+04</rscale>
<asrwt>0</asrwt>
<pdfrwt beam="1">  1        2 0.40774626E+00 0.14274321E+04</pdfrwt>
<pdfrwt beam="2">  1       -1 0.29568836E-01 0.14274321E+04</pdfrwt>
<totfact> 0.33064496E+01</totfact>
</mgrwt>
</event>
<event>
12    7  0.1701638E-007  0.1455613E+04  0.7818608E-02  0.8914519E-01
          2   -1    0    0  501    0  0.00000000000E+00  0.00000000000E+00  0.19558704975E+04  0.19558704975E+04  0.00000000000E+00 0. -1.
         -1   -1    0    0    0  501 -0.00000000000E+00 -0.00000000000E+00 -0.27082671556E+03  0.27082671556E+03  0.00000000000E+00 0.  1.
         24    2    1    2    0    0 -0.35849417484E+02 -0.23918779382E+03 -0.51276691606E+02  0.26009654545E+03  0.80777053704E+02 0.  0.
        254    2    1    2    0    0  0.35849417484E+02  0.23918779382E+03  0.17363204736E+04  0.19666006676E+04  0.89118652231E+03 0.  0.
         23    2    4    4    0    0 -0.32356307968E+03  0.30768779871E+02  0.13516582926E+04  0.13931696302E+04  0.91113634181E+02 0.  0.
         23    2    4    4    0    0  0.35941249716E+03  0.20841901395E+03  0.38466218099E+03  0.57343103741E+03  0.90787293630E+02 0.  0.
          2    1    3    3  502    0 -0.17112964821E+02 -0.24913747249E+02  0.16683749500E+02  0.34523844866E+02  0.00000000000E+00 0. -1.
         -1    1    3    3    0  502 -0.18736452662E+02 -0.21427404657E+03 -0.67960441106E+02  0.22557270058E+03  0.00000000000E+00 0.  1.
         13    1    5    5    0    0 -0.24904135337E+03 -0.41074367831E+01  0.11191664157E+04  0.11465478328E+04  0.00000000000E+00 0.  1.
        -13    1    5    5    0    0 -0.74521726312E+02  0.34876216654E+02  0.23249187688E+03  0.24662179749E+03  0.00000000000E+00 0. -1.
          3    1    6    6  503    0  0.16961263221E+03  0.93923547733E+02  0.24091356344E+03  0.30924007320E+03  0.00000000000E+00 0. -1.
         -3    1    6    6    0  503  0.18979986495E+03  0.11449546622E+03  0.14374861755E+03  0.26419096420E+03  0.00000000000E+00 0.  1.
<mgrwt>
<rscale>  0 0.14556126E+04</rscale>
<asrwt>0</asrwt>
<pdfrwt beam="1">  1        2 0.30090314E+00 0.14556126E+04</pdfrwt>
<pdfrwt beam="2">  1       -1 0.41665650E-01 0.14556126E+04</pdfrwt>
<totfact> 0.44127221E+01</totfact>
</mgrwt>
</event>
<event>
12    7  0.1701638E-007  0.1418347E+04  0.7818608E-02  0.8940644E-01
         -1   -1    0    0    0  501 -0.00000000000E+00  0.00000000000E+00  0.18822879683E+03  0.18822879683E+03  0.00000000000E+00 0.  1.
          2   -1    0    0  501    0  0.00000000000E+00 -0.00000000000E+00 -0.26718930199E+04  0.26718930199E+04  0.00000000000E+00 0. -1.
         24    2    1    2    0    0  0.35523450881E+03 -0.87378755539E+02 -0.33596882724E+03  0.50495499174E+03  0.90982897504E+02 0.  0.
        254    2    1    2    0    0 -0.35523450881E+03  0.87378755539E+02 -0.21476953958E+04  0.23551668250E+04  0.89464443056E+03 0.  0.
         23    2    4    4    0    0 -0.30229667399E+03  0.37858817356E+03 -0.60024664285E+03  0.77701069997E+03  0.93473586360E+02 0.  0.
         23    2    4    4    0    0 -0.52937834814E+02 -0.29120941802E+03 -0.15474487530E+04  0.15781561250E+04  0.91508318593E+02 0.  0.
          2    1    3    3  502    0  0.14260028386E+01  0.18549267937E+01 -0.26220016919E+02  0.26324200362E+02  0.00000000000E+00 0. -1.
         -1    1    3    3    0  502  0.35380850597E+03 -0.89233682333E+02 -0.30974881032E+03  0.47863079138E+03  0.00000000000E+00 0.  1.
         13    1    5    5    0    0 -0.55391274696E+02  0.69810442120E+02 -0.59513794311E+02  0.10716148028E+03  0.00000000000E+00 0. -1.
        -13    1    5    5    0    0 -0.24690539930E+03  0.30877773144E+03 -0.54073284854E+03  0.66984921969E+03  0.00000000000E+00 0.  1.
          3    1    6    6  503    0  0.22408805375E+02 -0.27427459929E+02 -0.16767212532E+03  0.17137199808E+03  0.00000000000E+00 0. -1.
         -3    1    6    6    0  503 -0.75346640189E+02 -0.26378195809E+03 -0.13797766277E+04  0.14067841269E+04  0.00000000000E+00 0.  1.
<mgrwt>
<rscale>  0 0.14183472E+04</rscale>
<asrwt>0</asrwt>
<pdfrwt beam="1">  1        2 0.41106044E+00 0.14183472E+04</pdfrwt>
<pdfrwt beam="2">  1       -1 0.28958278E-01 0.14183472E+04</pdfrwt>
<totfact> 0.33334611E+01</totfact>
</mgrwt>
</event>
<event>
12    7  0.1701638E-007  0.2193868E+04  0.7818608E-02  0.8520985E-01
          2   -1    0    0  501    0  0.00000000000E+00  0.00000000000E+00  0.14186387495E+04  0.14186387495E+04  0.00000000000E+00 0. -1.
         -1   -1    0    0    0  501 -0.00000000000E+00 -0.00000000000E+00 -0.84818233028E+03  0.84818233028E+03  0.00000000000E+00 0.  1.
         24    2    1    2    0    0  0.14016727315E+03 -0.76672398206E+03 -0.22076591495E+03  0.81389192958E+03  0.78549059234E+02 0.  0.
        254    2    1    2    0    0 -0.14016727315E+03  0.76672398206E+03  0.79122233414E+03  0.14529291502E+04  0.93672717705E+03 0.  0.
         23    2    4    4    0    0  0.27740508915E+03  0.30818301040E+02  0.25723916364E+01  0.29333574630E+03  0.90199177906E+02 0.  0.
         23    2    4    4    0    0 -0.41757236230E+03  0.73590568102E+03  0.78864994250E+03  0.11595934039E+04  0.82245251321E+02 0.  0.
          2    1    3    3  502    0  0.59639849051E+02 -0.15605366109E+03 -0.57271701534E+02  0.17660607162E+03  0.00000000000E+00 0. -1.
         -1    1    3    3    0  502  0.80527424102E+02 -0.61067032096E+03 -0.16349421342E+03  0.63728585796E+03  0.00000000000E+00 0.  1.
         13    1    5    5    0    0  0.18444905742E+02  0.16496568599E+02  0.22191638202E+02  0.33238834659E+02  0.00000000000E+00 0. -1.
        -13    1    5    5    0    0  0.25896018341E+03  0.14321732440E+02 -0.19619246566E+02  0.26009691164E+03  0.00000000000E+00 0.  1.
          2    1    6    6  503    0 -0.64729747839E+02  0.17481748428E+03  0.19546744307E+03  0.27010852331E+03  0.00000000000E+00 0. -1.
         -2    1    6    6    0  503 -0.35284261446E+03  0.56108819674E+03  0.59318249943E+03  0.88948488055E+03  0.00000000000E+00 0.  1.
<mgrwt>
<rscale>  0 0.21938681E+04</rscale>
<asrwt>0</asrwt>
<pdfrwt beam="1">  1        2 0.21825211E+00 0.21938681E+04</pdfrwt>
<pdfrwt beam="2">  1       -1 0.13048959E+00 0.21938681E+04</pdfrwt>
<totfact> 0.73912003E+00</totfact>
</mgrwt>
</event>
<event>
12    7  0.1701638E-007  0.1344527E+04  0.7818608E-02  0.8994982E-01
         -1   -1    0    0    0  501 -0.00000000000E+00  0.00000000000E+00  0.11706036546E+03  0.11706036546E+03  0.00000000000E+00 0.  1.
          2   -1    0    0  501    0  0.00000000000E+00 -0.00000000000E+00 -0.38607266557E+04  0.38607266557E+04  0.00000000000E+00 0. -1.
         24    2    1    2    0    0  0.15156569537E+02  0.28048811526E+03 -0.14917654363E+04  0.15203181690E+04  0.84260985560E+02 0.  0.
        254    2    1    2    0    0 -0.15156569537E+02 -0.28048811526E+03 -0.22519008539E+04  0.24574688521E+04  0.94296998833E+03 0.  0.
         23    2    4    4    0    0  0.15535253157E+03 -0.37827725113E+03 -0.21927546538E+04  0.22323302859E+04  0.88867574373E+02 0.  0.
         23    2    4    4    0    0 -0.17050910110E+03  0.97789135867E+02 -0.59146200077E+02  0.22513856620E+03  0.92482605674E+02 0.  0.
          2    1    3    3  502    0  0.57283774413E+01  0.28263915385E+03 -0.14598431547E+04  0.14869632618E+04  0.00000000000E+00 0. -1.
         -1    1    3    3    0  502  0.94281920955E+01 -0.21510385833E+01 -0.31922281612E+02  0.33354907233E+02  0.00000000000E+00 0.  1.
         13    1    5    5    0    0  0.13085399020E+03 -0.31763994653E+03 -0.19855406462E+04  0.20150408334E+04  0.00000000000E+00 0.  1.
        -13    1    5    5    0    0  0.24498541362E+02 -0.60637304603E+02 -0.20721400758E+03  0.21728945252E+03  0.00000000000E+00 0. -1.
          1    1    6    6  503    0 -0.78343291828E+02  0.79494242657E+02 -0.68104083609E+02  0.13074850743E+03  0.00000000000E+00 0. -1.
         -1    1    6    6    0  503 -0.92165809276E+02  0.18294893211E+02  0.89578835325E+01  0.94390058769E+02  0.00000000000E+00 0.  1.
<mgrwt>
<rscale>  0 0.13445268E+04</rscale>
<asrwt>0</asrwt>
<pdfrwt beam="1">  1        2 0.59395805E+00 0.13445268E+04</pdfrwt>
<pdfrwt beam="2">  1       -1 0.18009284E-01 0.13445268E+04</pdfrwt>
<totfact> 0.12291297E+01</totfact>
</mgrwt>
</event>
<event>
12    7  0.1701638E-007  0.1528922E+04  0.7818608E-02  0.8865445E-01
         -1   -1    0    0    0  501 -0.00000000000E+00  0.00000000000E+00  0.37347941832E+03  0.37347941832E+03  0.00000000000E+00 0.  1.
          2   -1    0    0  501    0  0.00000000000E+00 -0.00000000000E+00 -0.15647467121E+04  0.15647467121E+04  0.00000000000E+00 0. -1.
         24    2    1    2    0    0 -0.37060487171E+03 -0.25545825163E+03 -0.11950299946E+03  0.47259181445E+03  0.80344053541E+02 0.  0.
        254    2    1    2    0    0  0.37060487171E+03  0.25545825163E+03 -0.10717642943E+04  0.14656343160E+04  0.89263562347E+03 0.  0.
         23    2    4    4    0    0  0.60709721737E+03  0.36617022252E+02 -0.45933240829E+03  0.76758403063E+03  0.91055725348E+02 0.  0.
         23    2    4    4    0    0 -0.23649234565E+03  0.21884122938E+03 -0.61243188603E+03  0.69805028533E+03  0.91549290541E+02 0.  0.
          2    1    3    3  502    0 -0.85070506217E+02 -0.46391424550E+02 -0.59338288555E+02  0.11362300730E+03  0.00000000000E+00 0. -1.
         -1    1    3    3    0  502 -0.28553436550E+03 -0.20906682708E+03 -0.60164710902E+02  0.35896880715E+03  0.00000000000E+00 0.  1.
         13    1    5    5    0    0  0.58346447154E+03  0.51240596281E+02 -0.42633838597E+03  0.72444517226E+03  0.00000000000E+00 0. -1.
        -13    1    5    5    0    0  0.23632745826E+02 -0.14623574029E+02 -0.32994022321E+02  0.43138858372E+02  0.00000000000E+00 0.  1.
          4    1    6    6  503    0 -0.13774521651E+02  0.13163949182E+02 -0.58528876481E+01  0.19931966752E+02  0.00000000000E+00 0.  1.
         -4    1    6    6    0  503 -0.22271782400E+03  0.20567728020E+03 -0.60657899838E+03  0.67811831858E+03  0.00000000000E+00 0. -1.
<mgrwt>
<rscale>  0 0.15289221E+04</rscale>
<asrwt>0</asrwt>
<pdfrwt beam="1">  1        2 0.24073026E+00 0.15289221E+04</pdfrwt>
<pdfrwt beam="2">  1       -1 0.57458373E-01 0.15289221E+04</pdfrwt>
<totfact> 0.39326914E+01</totfact>
</mgrwt>
</event>
<event>
12    7  0.1701638E-007  0.2569980E+04  0.7818608E-02  0.8378470E-01
         -1   -1    0    0    0  501 -0.00000000000E+00  0.00000000000E+00  0.17435009509E+04  0.17435009509E+04  0.00000000000E+00 0.  1.
          2   -1    0    0  501    0  0.00000000000E+00 -0.00000000000E+00 -0.94705951405E+03  0.94705951405E+03  0.00000000000E+00 0. -1.
         24    2    1    2    0    0 -0.10440164562E+03 -0.10781597264E+04  0.16882091804E+02  0.10862385888E+04  0.79379892743E+02 0.  0.
        254    2    1    2    0    0  0.10440164562E+03  0.10781597264E+04  0.77955934503E+03  0.16043218762E+04  0.89039755761E+03 0.  0.
         23    2    4    4    0    0  0.11592527454E+03  0.37811085698E+03  0.80091263760E+03  0.89791686349E+03  0.91581391322E+02 0.  0.
         23    2    4    4    0    0 -0.11523628921E+02  0.70004886947E+03 -0.21353292574E+02  0.70640501267E+03  0.91383068224E+02 0.  0.
          4    1    3    3  502    0 -0.37723288133E+02 -0.24116505577E+03 -0.26124006303E+02  0.24549153610E+03  0.00000000000E+00 0. -1.
         -3    1    3    3    0  502 -0.66678357485E+02 -0.83699467068E+03  0.43006098107E+02  0.84074705267E+03  0.00000000000E+00 0.  1.
         13    1    5    5    0    0  0.10065817857E+03  0.25607383518E+03  0.62893365241E+03  0.68648628327E+03  0.00000000000E+00 0. -1.
        -13    1    5    5    0    0  0.15267095966E+02  0.12203702180E+03  0.17197898519E+03  0.21143058023E+03  0.00000000000E+00 0.  1.
          1    1    6    6  503    0 -0.19685337505E+02  0.55027232372E+03 -0.52784366407E+02  0.55314856241E+03  0.00000000000E+00 0. -1.
         -1    1    6    6    0  503  0.81617085842E+01  0.14977654575E+03  0.31431073832E+02  0.15325645026E+03  0.00000000000E+00 0.  1.
<mgrwt>
<rscale>  0 0.25699799E+04</rscale>
<asrwt>0</asrwt>
<pdfrwt beam="1">  1        2 0.14570146E+00 0.25699799E+04</pdfrwt>
<pdfrwt beam="2">  1       -1 0.26823091E+00 0.25699799E+04</pdfrwt>
<totfact> 0.14627365E+00</totfact>
</mgrwt>
</event>
<event>
12    7  0.1701638E-007  0.1317978E+04  0.7818608E-02  0.9015429E-01
          2   -1    0    0  501    0  0.00000000000E+00  0.00000000000E+00  0.17274211955E+04  0.17274211955E+04  0.00000000000E+00 0. -1.
         -1   -1    0    0    0  501 -0.00000000000E+00 -0.00000000000E+00 -0.25139585262E+03  0.25139585262E+03  0.00000000000E+00 0.  1.
         24    2    1    2    0    0 -0.20218315018E+03  0.16495761196E+03  0.72664376690E+03  0.77620579099E+03  0.79970157191E+02 0.  0.
        254    2    1    2    0    0  0.20218315018E+03 -0.16495761196E+03  0.74938157593E+03  0.12026112571E+04  0.90366589476E+03 0.  0.
         23    2    4    4    0    0  0.43865371907E+03 -0.33942061809E+02  0.79512445655E+03  0.91327138802E+03  0.90953713289E+02 0.  0.
         23    2    4    4    0    0 -0.23647056890E+03 -0.13101555015E+03 -0.45742880618E+02  0.28933986906E+03  0.92421557891E+02 0.  0.
          2    1    3    3  502    0 -0.19601930497E+03  0.13456465626E+03  0.67835807449E+03  0.71881909537E+03  0.00000000000E+00 0. -1.
         -1    1    3    3    0  502 -0.61638452098E+01  0.30392955699E+02  0.48285692405E+02  0.57386695627E+02  0.00000000000E+00 0.  1.
         13    1    5    5    0    0  0.16109651291E+03 -0.56505233358E+02  0.31039745567E+03  0.35424780642E+03  0.00000000000E+00 0. -1.
        -13    1    5    5    0    0  0.27755720616E+03  0.22563171550E+02  0.48472700088E+03  0.55902358160E+03  0.00000000000E+00 0.  1.
          1    1    6    6  503    0 -0.88512762013E+02 -0.22336898828E+01 -0.30477770678E+01  0.88593382116E+02  0.00000000000E+00 0. -1.
         -1    1    6    6    0  503 -0.14795780689E+03 -0.12878186027E+03 -0.42695103550E+02  0.20074648694E+03  0.00000000000E+00 0.  1.
<mgrwt>
<rscale>  0 0.13179780E+04</rscale>
<asrwt>0</asrwt>
<pdfrwt beam="1">  1        2 0.26575710E+00 0.13179780E+04</pdfrwt>
<pdfrwt beam="2">  1       -1 0.38676286E-01 0.13179780E+04</pdfrwt>
<totfact> 0.68397862E+01</totfact>
</mgrwt>
</event>
<event>
12    7  0.1701638E-007  0.2650630E+04  0.7818608E-02  0.8351204E-01
         -1   -1    0    0    0  501 -0.00000000000E+00  0.00000000000E+00  0.19922402951E+04  0.19922402951E+04  0.00000000000E+00 0.  1.
          2   -1    0    0  501    0  0.00000000000E+00 -0.00000000000E+00 -0.88165052433E+03  0.88165052433E+03  0.00000000000E+00 0. -1.
         24    2    1    2    0    0 -0.70647448993E+03  0.52972786229E+03 -0.34141396107E+03  0.95001184992E+03  0.79001323870E+02 0.  0.
        254    2    1    2    0    0  0.70647448993E+03 -0.52972786229E+03  0.14520037319E+04  0.19238789695E+04  0.90181907223E+03 0.  0.
         23    2    4    4    0    0  0.21858468005E+03  0.22015275414E+03  0.61289356801E+03  0.69404372218E+03  0.99053849386E+02 0.  0.
         23    2    4    4    0    0  0.48788980988E+03 -0.74988061642E+03  0.83911016387E+03  0.12298352474E+04  0.89618430397E+02 0.  0.
          2    1    3    3  502    0 -0.51047569664E+03  0.37974300860E+03 -0.28333371986E+03  0.69646836701E+03  0.00000000000E+00 0. -1.
         -1    1    3    3    0  502 -0.19599879329E+03  0.14998485369E+03 -0.58080241216E+02  0.25354348291E+03  0.00000000000E+00 0.  1.
         13    1    5    5    0    0  0.94147686925E+02  0.11712238580E+03  0.19625056505E+03  0.24717549331E+03  0.00000000000E+00 0. -1.
        -13    1    5    5    0    0  0.12443699312E+03  0.10303036834E+03  0.41664300296E+03  0.44686822887E+03  0.00000000000E+00 0.  1.
          1    1    6    6  503    0  0.13680511728E+03 -0.21488000140E+03  0.29598424075E+03  0.39050701132E+03  0.00000000000E+00 0. -1.
         -1    1    6    6    0  503  0.35108469260E+03 -0.53500061502E+03  0.54312592312E+03  0.83932823605E+03  0.00000000000E+00 0.  1.
<mgrwt>
<rscale>  0 0.26506299E+04</rscale>
<asrwt>0</asrwt>
<pdfrwt beam="1">  1        2 0.13563854E+00 0.26506299E+04</pdfrwt>
<pdfrwt beam="2">  1       -1 0.30649851E+00 0.26506299E+04</pdfrwt>
<totfact> 0.90830256E-01</totfact>
</mgrwt>
</event>
<event>
12    7  0.1701638E-007  0.1256142E+04  0.7818608E-02  0.9065087E-01
          2   -1    0    0  501    0  0.00000000000E+00  0.00000000000E+00  0.62444376499E+03  0.62444376499E+03  0.00000000000E+00 0. -1.
         -1   -1    0    0    0  501 -0.00000000000E+00 -0.00000000000E+00 -0.63171909228E+03  0.63171909228E+03  0.00000000000E+00 0.  1.
         24    2    1    2    0    0 -0.15638969407E+03  0.60108990149E+02  0.25318842034E+03  0.31047205950E+03  0.64943794369E+02 0.  0.
        254    2    1    2    0    0  0.15638969407E+03 -0.60108990149E+02 -0.26046374763E+03  0.94569079777E+03  0.89354288876E+03 0.  0.
         23    2    4    4    0    0  0.35543475660E+03 -0.27934963102E+03  0.98813894880E+02  0.47200131505E+03  0.93010607134E+02 0.  0.
         23    2    4    4    0    0 -0.19904506253E+03  0.21924064087E+03 -0.35927764251E+03  0.47368948271E+03  0.87269158929E+02 0.  0.
          2    1    3    3  502    0 -0.14400145850E+03  0.57678723620E+02  0.18641435969E+03  0.24251508965E+03  0.00000000000E+00 0. -1.
         -1    1    3    3    0  502 -0.12388235576E+02  0.24302665294E+01  0.66774060647E+02  0.67956969851E+02  0.00000000000E+00 0.  1.
         13    1    5    5    0    0  0.27763074765E+03 -0.16455660256E+03  0.74275707848E+02  0.33117153903E+03  0.00000000000E+00 0.  1.
        -13    1    5    5    0    0  0.77804008950E+02 -0.11479302846E+03  0.24538187032E+02  0.14082977602E+03  0.00000000000E+00 0. -1.
          4    1    6    6  503    0 -0.33459504335E+02  0.33167614651E+02 -0.16393198920E+02  0.49883524963E+02  0.00000000000E+00 0. -1.
         -4    1    6    6    0  503 -0.16558555820E+03  0.18607302622E+03 -0.34288444359E+03  0.42380595775E+03  0.00000000000E+00 0.  1.
<mgrwt>
<rscale>  0 0.12561418E+04</rscale>
<asrwt>0</asrwt>
<pdfrwt beam="1">  1        2 0.96068272E-01 0.12561418E+04</pdfrwt>
<pdfrwt beam="2">  1       -1 0.97187552E-01 0.12561418E+04</pdfrwt>
<totfact> 0.54005110E+01</totfact>
</mgrwt>
</event>
<event>
12    7  0.1701638E-007  0.2125079E+04  0.7818608E-02  0.8550276E-01
         -1   -1    0    0    0  501 -0.00000000000E+00  0.00000000000E+00  0.89250258200E+03  0.89250258200E+03  0.00000000000E+00 0.  1.
          2   -1    0    0  501    0  0.00000000000E+00 -0.00000000000E+00 -0.12649708574E+04  0.12649708574E+04  0.00000000000E+00 0. -1.
         24    2    1    2    0    0  0.37725302501E+03  0.12924734531E+03 -0.93964992715E+03  0.10239522276E+04  0.80693603242E+02 0.  0.
        254    2    1    2    0    0 -0.37725302501E+03 -0.12924734531E+03  0.56718165177E+03  0.11335212118E+04  0.89674443982E+03 0.  0.
         23    2    4    4    0    0 -0.29606745422E+03 -0.48668242370E+03  0.20613725276E+03  0.61237486800E+03  0.89413047121E+02 0.  0.
         23    2    4    4    0    0 -0.81185570790E+02  0.35743507839E+03  0.36104439901E+03  0.52114634380E+03  0.83003141130E+02 0.  0.
          2    1    3    3  502    0  0.37836381356E+03  0.12327704570E+03 -0.90290116636E+03  0.98670508341E+03  0.00000000000E+00 0. -1.
         -1    1    3    3    0  502 -0.11107885511E+01  0.59702996080E+01 -0.36748760790E+02  0.37247144162E+02  0.00000000000E+00 0.  1.
         13    1    5    5    0    0 -0.49111515934E+02 -0.35684173178E+02  0.36961465464E+02  0.71073561484E+02  0.00000000000E+00 0. -1.
        -13    1    5    5    0    0 -0.24695593829E+03 -0.45099825052E+03  0.16917578729E+03  0.54130130652E+03  0.00000000000E+00 0.  1.
          1    1    6    6  503    0 -0.34425336615E+02  0.21395658405E+03  0.15812350932E+03  0.26826398913E+03  0.00000000000E+00 0. -1.
         -1    1    6    6    0  503 -0.46760234175E+02  0.14347849433E+03  0.20292088969E+03  0.25288235468E+03  0.00000000000E+00 0.  1.
<mgrwt>
<rscale>  0 0.21250786E+04</rscale>
<asrwt>0</asrwt>
<pdfrwt beam="1">  1        2 0.19461090E+00 0.21250786E+04</pdfrwt>
<pdfrwt beam="2">  1       -1 0.13730809E+00 0.21250786E+04</pdfrwt>
<totfact> 0.80119788E+00</totfact>
</mgrwt>
</event>
<event>
12    7  0.1701638E-007  0.1575458E+04  0.7818608E-02  0.8835769E-01
         -1   -1    0    0    0  501 -0.00000000000E+00  0.00000000000E+00  0.46180427870E+03  0.46180427870E+03  0.00000000000E+00 0.  1.
          2   -1    0    0  501    0  0.00000000000E+00 -0.00000000000E+00 -0.13436794851E+04  0.13436794851E+04  0.00000000000E+00 0. -1.
         24    2    1    2    0    0 -0.62999686765E+02  0.21966124884E+03  0.24515942454E+03  0.34393759799E+03  0.77265147987E+02 0.  0.
        254    2    1    2    0    0  0.62999686765E+02 -0.21966124884E+03 -0.11270346309E+04  0.14615461658E+04  0.90204773193E+03 0.  0.
         23    2    4    4    0    0  0.96536889176E+01 -0.16157700310E+03 -0.12645190307E+04  0.12780721993E+04  0.90883695387E+02 0.  0.
         23    2    4    4    0    0  0.53345997848E+02 -0.58084245747E+02  0.13748439971E+03  0.18347396651E+03  0.92418402572E+02 0.  0.
          2    1    3    3  502    0  0.41438943689E+01  0.33635059966E+02  0.74237665377E+01  0.34692959358E+02  0.00000000000E+00 0. -1.
         -1    1    3    3    0  502 -0.67143581134E+02  0.18602618888E+03  0.23773565800E+03  0.30924463863E+03  0.00000000000E+00 0.  1.
         13    1    5    5    0    0 -0.29405203422E+01 -0.21436407071E+02 -0.39837347628E+02  0.45334098359E+02  0.00000000000E+00 0. -1.
        -13    1    5    5    0    0  0.12594209260E+02 -0.14014059602E+03 -0.12246816830E+04  0.12327381009E+04  0.00000000000E+00 0.  1.
          3    1    6    6  503    0 -0.31996737060E+01  0.22577183262E+02  0.22028301285E+02  0.31705096962E+02  0.00000000000E+00 0. -1.
         -3    1    6    6    0  503  0.56545671554E+02 -0.80661429009E+02  0.11545609843E+03  0.15176886955E+03  0.00000000000E+00 0.  1.
<mgrwt>
<rscale>  0 0.15754579E+04</rscale>
<asrwt>0</asrwt>
<pdfrwt beam="1">  1        2 0.20671992E+00 0.15754579E+04</pdfrwt>
<pdfrwt beam="2">  1       -1 0.71046811E-01 0.15754579E+04</pdfrwt>
<totfact> 0.34169797E+01</totfact>
</mgrwt>
</event>
<event>
12    7  0.1701638E-007  0.1263238E+04  0.7818608E-02  0.9059236E-01
          2   -1    0    0  501    0  0.00000000000E+00  0.00000000000E+00  0.26415360610E+04  0.26415360610E+04  0.00000000000E+00 0. -1.
         -1   -1    0    0    0  501 -0.00000000000E+00 -0.00000000000E+00 -0.15102680148E+03  0.15102680148E+03  0.00000000000E+00 0.  1.
         24    2    1    2    0    0  0.13471244366E+03  0.23918553178E+03  0.93515923514E+03  0.97743285137E+03  0.74128420905E+02 0.  0.
        254    2    1    2    0    0 -0.13471244366E+03 -0.23918553178E+03  0.15553500243E+04  0.18151300111E+04  0.89455357455E+03 0.  0.
         23    2    4    4    0    0  0.29572101448E+03  0.12602041761E+03  0.80448920702E+03  0.87119996132E+03  0.91947943634E+02 0.  0.
         23    2    4    4    0    0 -0.43043345814E+03 -0.36520594939E+03  0.75086081733E+03  0.94393004974E+03  0.92539853284E+02 0.  0.
          2    1    3    3  502    0  0.10308241871E+03  0.21025277639E+03  0.85554666619E+03  0.88701314142E+03  0.00000000000E+00 0. -1.
         -1    1    3    3    0  502  0.31630024950E+02  0.28932755392E+02  0.79612568951E+02  0.90419709952E+02  0.00000000000E+00 0.  1.
         13    1    5    5    0    0  0.29493074053E+03  0.12700062777E+03  0.73963100146E+03  0.80632953529E+03  0.00000000000E+00 0.  1.
        -13    1    5    5    0    0  0.79027394788E+00 -0.98021016133E+00  0.64858205563E+02  0.64870426033E+02  0.00000000000E+00 0. -1.
          2    1    6    6  503    0 -0.20394583718E+03 -0.16136372947E+03  0.27181025490E+03  0.37618210000E+03  0.00000000000E+00 0. -1.
         -2    1    6    6    0  503 -0.22648762096E+03 -0.20384221992E+03  0.47905056243E+03  0.56774794974E+03  0.00000000000E+00 0.  1.
<mgrwt>
<rscale>  0 0.12632383E+04</rscale>
<asrwt>0</asrwt>
<pdfrwt beam="1">  1        2 0.40639013E+00 0.12632383E+04</pdfrwt>
<pdfrwt beam="2">  1       -1 0.23234894E-01 0.12632383E+04</pdfrwt>
<totfact> 0.51469813E+01</totfact>
</mgrwt>
</event>
<event>
12    7  0.1701638E-007  0.1105117E+04  0.7818608E-02  0.9200219E-01
          2   -1    0    0  501    0  0.00000000000E+00  0.00000000000E+00  0.21924638397E+04  0.21924638397E+04  0.00000000000E+00 0. -1.
         -1   -1    0    0    0  501 -0.00000000000E+00 -0.00000000000E+00 -0.13925919476E+03  0.13925919476E+03  0.00000000000E+00 0.  1.
         24    2    1    2    0    0  0.12480982360E+03 -0.38593515761E+02  0.53195624004E+03  0.55375877192E+03  0.81267365130E+02 0.  0.
        254    2    1    2    0    0 -0.12480982360E+03  0.38593515761E+02  0.15212484049E+04  0.17779642625E+04  0.91098477370E+03 0.  0.
         23    2    4    4    0    0  0.33751810922E+03 -0.18581514911E+03  0.60773144273E+03  0.72565812628E+03  0.93789477376E+02 0.  0.
         23    2    4    4    0    0 -0.46232793282E+03  0.22440866487E+03  0.91351696214E+03  0.10523061362E+04  0.93426965504E+02 0.  0.
          4    1    3    3  502    0  0.53968897058E+02 -0.53395149030E+02  0.34566586090E+03  0.35390474874E+03  0.00000000000E+00 0. -1.
         -3    1    3    3    0  502  0.70840926543E+02  0.14801633269E+02  0.18629037914E+03  0.19985402318E+03  0.00000000000E+00 0.  1.
         13    1    5    5    0    0  0.17073967826E+03 -0.13126641758E+03  0.27301931227E+03  0.34773906164E+03  0.00000000000E+00 0. -1.
        -13    1    5    5    0    0  0.16677843096E+03 -0.54548731536E+02  0.33471213046E+03  0.37791906465E+03  0.00000000000E+00 0.  1.
          1    1    6    6  503    0 -0.42784865891E+03  0.23114311110E+03  0.83493353064E+03  0.96622751634E+03  0.00000000000E+00 0. -1.
         -1    1    6    6    0  503 -0.34479273906E+02 -0.67344462283E+01  0.78583431502E+02  0.86078619887E+02  0.00000000000E+00 0.  1.
<mgrwt>
<rscale>  0 0.11051167E+04</rscale>
<asrwt>0</asrwt>
<pdfrwt beam="1">  1        2 0.33730210E+00 0.11051167E+04</pdfrwt>
<pdfrwt beam="2">  1       -1 0.21424493E-01 0.11051167E+04</pdfrwt>
<totfact> 0.10786591E+02</totfact>
</mgrwt>
</event>
<event>
12    7  0.1701638E-007  0.1128561E+04  0.7818608E-02  0.9177793E-01
          2   -1    0    0  501    0  0.00000000000E+00  0.00000000000E+00  0.19663516383E+04  0.19663516383E+04  0.00000000000E+00 0. -1.
         -1   -1    0    0    0  501 -0.00000000000E+00 -0.00000000000E+00 -0.16193045654E+03  0.16193045654E+03  0.00000000000E+00 0.  1.
         24    2    1    2    0    0  0.49078698038E+02 -0.13633521044E+03  0.51447764207E+03  0.54181680120E+03  0.88781719201E+02 0.  0.
        254    2    1    2    0    0 -0.49078698038E+02  0.13633521044E+03  0.12899435397E+04  0.15864652936E+04  0.91209746416E+03 0.  0.
         23    2    4    4    0    0 -0.33092923570E+03  0.10615230701E+02  0.12057118313E+04  0.12538001837E+04  0.92989453443E+02 0.  0.
         23    2    4    4    0    0  0.28185053766E+03  0.12571997974E+03  0.84231708415E+02  0.33266510992E+03  0.91246127438E+02 0.  0.
          2    1    3    3  502    0  0.53472980308E+02 -0.13876666402E+03  0.51564460400E+03  0.53666088389E+03  0.00000000000E+00 0. -1.
         -1    1    3    3    0  502 -0.43942822697E+01  0.24314535754E+01 -0.11669619279E+01  0.51559173090E+01  0.00000000000E+00 0.  1.
         13    1    5    5    0    0 -0.40355326836E+02 -0.27686394100E+02  0.22335558318E+03  0.22865433597E+03  0.00000000000E+00 0.  1.
        -13    1    5    5    0    0 -0.29057390886E+03  0.38301624801E+02  0.98235624810E+03  0.10251458477E+04  0.00000000000E+00 0. -1.
          3    1    6    6  503    0  0.27372493126E+03  0.13315627552E+03  0.66160182336E+02  0.31150136666E+03  0.00000000000E+00 0. -1.
         -3    1    6    6    0  503  0.81256064024E+01 -0.74362957764E+01  0.18071526079E+02  0.21163743268E+02  0.00000000000E+00 0.  1.
<mgrwt>
<rscale>  0 0.11285605E+04</rscale>
<asrwt>0</asrwt>
<pdfrwt beam="1">  1        2 0.30251562E+00 0.11285605E+04</pdfrwt>
<pdfrwt beam="2">  1       -1 0.24912379E-01 0.11285605E+04</pdfrwt>
<totfact> 0.11116906E+02</totfact>
</mgrwt>
</event>
<event>
12    7  0.1701638E-007  0.1463582E+04  0.7818608E-02  0.8909038E-01
          2   -1    0    0  501    0  0.00000000000E+00  0.00000000000E+00  0.36535442490E+04  0.36535442490E+04  0.00000000000E+00 0. -1.
         -1   -1    0    0    0  501 -0.00000000000E+00 -0.00000000000E+00 -0.14657504967E+03  0.14657504967E+03  0.00000000000E+00 0.  1.
         24    2    1    2    0    0 -0.15860609117E+03 -0.41435290414E+03  0.10125417707E+04  0.11084503353E+04  0.81099241273E+02 0.  0.
        254    2    1    2    0    0  0.15860609117E+03  0.41435290414E+03  0.24944274286E+04  0.26916689634E+04  0.90888359581E+03 0.  0.
         23    2    4    4    0    0  0.51454401154E+03  0.13868846638E+03  0.15557987967E+04  0.16466872454E+04  0.84136542797E+02 0.  0.
         23    2    4    4    0    0 -0.35593792036E+03  0.27566443777E+03  0.93862863192E+03  0.10449817180E+04  0.90996686553E+02 0.  0.
          2    1    3    3  502    0 -0.11751043452E+03 -0.20787446417E+03  0.58591758206E+03  0.63270839100E+03  0.00000000000E+00 0. -1.
         -1    1    3    3    0  502 -0.41095656655E+02 -0.20647843998E+03  0.42662418868E+03  0.47574194427E+03  0.00000000000E+00 0.  1.
         13    1    5    5    0    0  0.42116279784E+02 -0.11716311983E+02  0.12536528941E+03  0.13276862875E+03  0.00000000000E+00 0. -1.
        -13    1    5    5    0    0  0.47242773175E+03  0.15040477836E+03  0.14304335073E+04  0.15139186167E+04  0.00000000000E+00 0.  1.
          2    1    6    6  503    0 -0.13329903040E+03  0.15776111712E+03  0.45444384064E+03  0.49917572645E+03  0.00000000000E+00 0. -1.
         -2    1    6    6    0  503 -0.22263888996E+03  0.11790332065E+03  0.48418479128E+03  0.54580599159E+03  0.00000000000E+00 0.  1.
<mgrwt>
<rscale>  0 0.14635825E+04</rscale>
<asrwt>0</asrwt>
<pdfrwt beam="1">  1        2 0.56208366E+00 0.14635825E+04</pdfrwt>
<pdfrwt beam="2">  1       -1 0.22550010E-01 0.14635825E+04</pdfrwt>
<totfact> 0.11848521E+01</totfact>
</mgrwt>
</event>
<event>
12    7  0.1701638E-007  0.1978863E+04  0.7818608E-02  0.8616567E-01
          2   -1    0    0  501    0  0.00000000000E+00  0.00000000000E+00  0.20619762865E+04  0.20619762865E+04  0.00000000000E+00 0. -1.
         -1   -1    0    0    0  501 -0.00000000000E+00 -0.00000000000E+00 -0.47477507677E+03  0.47477507677E+03  0.00000000000E+00 0.  1.
         24    2    1    2    0    0 -0.39498990975E+03 -0.66713012655E+03  0.62946529519E+03  0.10022164251E+04  0.84448625082E+02 0.  0.
        254    2    1    2    0    0  0.39498990975E+03  0.66713012655E+03  0.95773591458E+03  0.15345349382E+04  0.91458174050E+03 0.  0.
         23    2    4    4    0    0  0.24816519393E+03 -0.96064825305E+02 -0.19599210681E+02  0.28253828162E+03  0.92894226853E+02 0.  0.
         23    2    4    4    0    0  0.14682471582E+03  0.76319495185E+03  0.97733512526E+03  0.12519966566E+04  0.91036527893E+02 0.  0.
          4    1    3    3  502    0 -0.93068429916E+02 -0.14236271642E+03  0.18398568688E+03  0.25055859325E+03  0.00000000000E+00 0. -1.
         -3    1    3    3    0  502 -0.30192147984E+03 -0.52476741013E+03  0.44547960831E+03  0.75165783182E+03  0.00000000000E+00 0.  1.
         13    1    5    5    0    0  0.23217320122E+03 -0.10939656160E+03 -0.31460550732E+02  0.25857642837E+03  0.00000000000E+00 0. -1.
        -13    1    5    5    0    0  0.15991992708E+02  0.13331736296E+02  0.11861340051E+02  0.23961853251E+02  0.00000000000E+00 0.  1.
          3    1    6    6  503    0  0.12232724456E+03  0.40133504999E+03  0.50834649536E+03  0.65912816391E+03  0.00000000000E+00 0. -1.
         -3    1    6    6    0  503  0.24497471259E+02  0.36185990186E+03  0.46898862990E+03  0.59286849271E+03  0.00000000000E+00 0.  1.
<mgrwt>
<rscale>  0 0.19788633E+04</rscale>
<asrwt>0</asrwt>
<pdfrwt beam="1">  1        2 0.31722712E+00 0.19788633E+04</pdfrwt>
<pdfrwt beam="2">  1       -1 0.73042321E-01 0.19788633E+04</pdfrwt>
<totfact> 0.12352745E+01</totfact>
</mgrwt>
</event>
<event>
12    7  0.1701638E-007  0.2715881E+04  0.7818608E-02  0.8329870E-01
         -1   -1    0    0    0  501 -0.00000000000E+00  0.00000000000E+00  0.67851185758E+03  0.67851185758E+03  0.00000000000E+00 0.  1.
          2   -1    0    0  501    0  0.00000000000E+00 -0.00000000000E+00 -0.27177159536E+04  0.27177159536E+04  0.00000000000E+00 0. -1.
         24    2    1    2    0    0  0.98722812125E+03  0.34982735436E+03 -0.16079823723E+03  0.10626950527E+04  0.80412441640E+02 0.  0.
        254    2    1    2    0    0 -0.98722812125E+03 -0.34982735436E+03 -0.18784058588E+04  0.23335327584E+04  0.90552085736E+03 0.  0.
         23    2    4    4    0    0 -0.92544133586E+03 -0.45770858146E+03 -0.19133350146E+04  0.21758092238E+04  0.85767643793E+02 0.  0.
         23    2    4    4    0    0 -0.61786785388E+02  0.10788122710E+03  0.34929155832E+02  0.15772353460E+03  0.90557724288E+02 0.  0.
          4    1    3    3  502    0  0.12815338509E+03  0.18819273658E+02 -0.11615093590E+02  0.13004755119E+03  0.00000000000E+00 0. -1.
         -3    1    3    3    0  502  0.85907473615E+03  0.33100808070E+03 -0.14918314364E+03  0.93264750154E+03  0.00000000000E+00 0.  1.
         13    1    5    5    0    0 -0.20556547333E+03 -0.96952885520E+02 -0.49901649418E+03  0.54833793166E+03  0.00000000000E+00 0. -1.
        -13    1    5    5    0    0 -0.71987586253E+03 -0.36075569594E+03 -0.14143185204E+04  0.16274712922E+04  0.00000000000E+00 0.  1.
          4    1    6    6  503    0 -0.52746894230E+02  0.16436466768E+02  0.35791940323E+02  0.65828985127E+02  0.00000000000E+00 0. -1.
         -4    1    6    6    0  503 -0.90398911583E+01  0.91444760335E+02 -0.86278449143E+00  0.91894549468E+02  0.00000000000E+00 0.  1.
<mgrwt>
<rscale>  0 0.27158811E+04</rscale>
<asrwt>0</asrwt>
<pdfrwt beam="1">  1        2 0.41811014E+00 0.27158811E+04</pdfrwt>
<pdfrwt beam="2">  1       -1 0.10438644E+00 0.27158811E+04</pdfrwt>
<totfact> 0.22271978E+00</totfact>
</mgrwt>
</event>
<event>
12    7  0.1701638E-007  0.1368670E+04  0.7818608E-02  0.8976815E-01
          2   -1    0    0  501    0  0.00000000000E+00  0.00000000000E+00  0.85547909243E+03  0.85547909243E+03  0.00000000000E+00 0. -1.
         -1   -1    0    0    0  501 -0.00000000000E+00 -0.00000000000E+00 -0.54742899799E+03  0.54742899799E+03  0.00000000000E+00 0.  1.
         24    2    1    2    0    0  0.33945199081E+03 -0.17308518132E+03  0.16743414991E+03  0.42579414373E+03  0.89890623671E+02 0.  0.
        254    2    1    2    0    0 -0.33945199081E+03  0.17308518132E+03  0.14061594453E+03  0.97711394669E+03  0.88870281135E+03 0.  0.
         23    2    4    4    0    0 -0.47673866668E+03 -0.30477155790E+02 -0.21790760691E+03  0.53295973881E+03  0.91398822280E+02 0.  0.
         23    2    4    4    0    0  0.13728667588E+03  0.20356233711E+03  0.35852355144E+03  0.44415420788E+03  0.91916086599E+02 0.  0.
          4    1    3    3  502    0  0.27283298041E+03 -0.17615628027E+03  0.14127319437E+03  0.35415672481E+03  0.00000000000E+00 0. -1.
         -3    1    3    3    0  502  0.66619010395E+02  0.30710989565E+01  0.26160955545E+02  0.71637418922E+02  0.00000000000E+00 0.  1.
         13    1    5    5    0    0 -0.43012947076E+03 -0.54011317032E+02 -0.18566490010E+03  0.47159308637E+03  0.00000000000E+00 0. -1.
        -13    1    5    5    0    0 -0.46609195919E+02  0.23534161242E+02 -0.32242706803E+02  0.61366652439E+02  0.00000000000E+00 0.  1.
          3    1    6    6  503    0  0.11117533919E+03  0.14195127707E+03  0.18572281179E+03  0.25884953916E+03  0.00000000000E+00 0. -1.
         -3    1    6    6    0  503  0.26111336684E+02  0.61611060032E+02  0.17280073965E+03  0.18530466871E+03  0.00000000000E+00 0.  1.
<mgrwt>
<rscale>  0 0.13686695E+04</rscale>
<asrwt>0</asrwt>
<pdfrwt beam="1">  1        2 0.13161217E+00 0.13686695E+04</pdfrwt>
<pdfrwt beam="2">  1       -1 0.84219845E-01 0.13686695E+04</pdfrwt>
<totfact> 0.48947579E+01</totfact>
</mgrwt>
</event>
<event>
12    7  0.1701638E-007  0.2253378E+04  0.7818608E-02  0.8496534E-01
          2   -1    0    0  501    0  0.00000000000E+00  0.00000000000E+00  0.16262923641E+04  0.16262923641E+04  0.00000000000E+00 0. -1.
         -1   -1    0    0    0  501 -0.00000000000E+00 -0.00000000000E+00 -0.78056606430E+03  0.78056606430E+03  0.00000000000E+00 0.  1.
         24    2    1    2    0    0  0.44026378251E+03 -0.62796270059E+03  0.95064749139E+03  0.12240264105E+04  0.79628192906E+02 0.  0.
        254    2    1    2    0    0 -0.44026378251E+03  0.62796270059E+03 -0.10492119162E+03  0.11828320179E+04  0.89437898825E+03 0.  0.
         23    2    4    4    0    0 -0.20019945673E+03  0.45320379163E+03 -0.48010489293E+03  0.69571967684E+03  0.89731049763E+02 0.  0.
         23    2    4    4    0    0 -0.24006432578E+03  0.17475890895E+03  0.37518370131E+03  0.48711234107E+03  0.91345861006E+02 0.  0.
          4    1    3    3  502    0  0.37822827962E+03 -0.53813195759E+03  0.85609907790E+03  0.10796056069E+04  0.00000000000E+00 0. -1.
         -3    1    3    3    0  502  0.62035502899E+02 -0.89830742994E+02  0.94548413493E+02  0.14442080356E+03  0.00000000000E+00 0.  1.
         13    1    5    5    0    0 -0.85731657927E+02  0.29933846180E+03 -0.30989394166E+03  0.43930363868E+03  0.00000000000E+00 0. -1.
        -13    1    5    5    0    0 -0.11446779881E+03  0.15386532983E+03 -0.17021095128E+03  0.25641603815E+03  0.00000000000E+00 0.  1.
          4    1    6    6  503    0 -0.16354371005E+03  0.63095930861E+02  0.21367225988E+03  0.27637560716E+03  0.00000000000E+00 0. -1.
         -4    1    6    6    0  503 -0.76520615731E+02  0.11166297809E+03  0.16151144143E+03  0.21073673392E+03  0.00000000000E+00 0.  1.
<mgrwt>
<rscale>  0 0.22533785E+04</rscale>
<asrwt>0</asrwt>
<pdfrwt beam="1">  1        2 0.25019882E+00 0.22533785E+04</pdfrwt>
<pdfrwt beam="2">  1       -1 0.12008709E+00 0.22533785E+04</pdfrwt>
<totfact> 0.69050949E+00</totfact>
</mgrwt>
</event>
<event>
12    7  0.1701638E-007  0.2114230E+04  0.7818608E-02  0.8555001E-01
          2   -1    0    0  501    0  0.00000000000E+00  0.00000000000E+00  0.95402090643E+03  0.95402090643E+03  0.00000000000E+00 0. -1.
         -1   -1    0    0    0  501 -0.00000000000E+00 -0.00000000000E+00 -0.11713500642E+04  0.11713500642E+04  0.00000000000E+00 0.  1.
         24    2    1    2    0    0 -0.27665099604E+03 -0.30965395404E+03  0.67019816249E+03  0.79248390544E+03  0.80273398545E+02 0.  0.
        254    2    1    2    0    0  0.27665099604E+03  0.30965395404E+03 -0.88752732030E+03  0.13328870652E+04  0.90358277956E+03 0.  0.
         23    2    4    4    0    0 -0.18386719158E+03  0.14928027695E+03  0.63521013966E+02  0.25948720759E+03  0.84893736301E+02 0.  0.
         23    2    4    4    0    0  0.46051818762E+03  0.16037367709E+03 -0.95104833427E+03  0.10733998576E+04  0.99486696828E+02 0.  0.
          4    1    3    3  502    0 -0.27223681434E+03 -0.28323756152E+03  0.64758455433E+03  0.75743128687E+03  0.00000000000E+00 0. -1.
         -3    1    3    3    0  502 -0.44141816988E+01 -0.26416392524E+02  0.22613608165E+02  0.35052618566E+02  0.00000000000E+00 0.  1.
         13    1    5    5    0    0 -0.13555429167E+03  0.14966379410E+03  0.40411316755E+02  0.20593030806E+03  0.00000000000E+00 0. -1.
        -13    1    5    5    0    0 -0.48312899903E+02 -0.38351714624E+00  0.23109697211E+02  0.53556899534E+02  0.00000000000E+00 0.  1.
          2    1    6    6  503    0  0.32991321026E+03  0.66031242900E+02 -0.63211122264E+03  0.71607782338E+03  0.00000000000E+00 0. -1.
         -2    1    6    6    0  503  0.13060497735E+03  0.94342434190E+02 -0.31893711162E+03  0.35732203426E+03  0.00000000000E+00 0.  1.
<mgrwt>
<rscale>  0 0.21142303E+04</rscale>
<asrwt>0</asrwt>
<pdfrwt beam="1">  1        2 0.14677245E+00 0.21142303E+04</pdfrwt>
<pdfrwt beam="2">  1       -1 0.18020770E+00 0.21142303E+04</pdfrwt>
<totfact> 0.58761739E+00</totfact>
</mgrwt>
</event>
<event>
12    7  0.1701638E-007  0.1520514E+04  0.7818608E-02  0.8870925E-01
         -1   -1    0    0    0  501 -0.00000000000E+00  0.00000000000E+00  0.39495109344E+03  0.39495109344E+03  0.00000000000E+00 0.  1.
          2   -1    0    0  501    0  0.00000000000E+00 -0.00000000000E+00 -0.14634480232E+04  0.14634480232E+04  0.00000000000E+00 0. -1.
         24    2    1    2    0    0 -0.27346851895E+03  0.27450265374E+03  0.15787941632E+02  0.39602122969E+03  0.80292076193E+02 0.  0.
        254    2    1    2    0    0  0.27346851895E+03 -0.27450265374E+03 -0.10842848714E+04  0.14623778869E+04  0.90152019617E+03 0.  0.
         23    2    4    4    0    0  0.31910717224E+03 -0.53531423176E+03 -0.97635614925E+03  0.11619856549E+04  0.92458735776E+02 0.  0.
         23    2    4    4    0    0 -0.45638653291E+02  0.26081157802E+03 -0.10792872214E+03  0.30039223207E+03  0.92094072142E+02 0.  0.
          2    1    3    3  502    0 -0.24885552294E+02  0.58555637023E+02  0.20059422954E+02  0.66711571631E+02  0.00000000000E+00 0. -1.
         -1    1    3    3    0  502 -0.24858296665E+03  0.21594701672E+03 -0.42714813223E+01  0.32930965806E+03  0.00000000000E+00 0.  1.
         13    1    5    5    0    0  0.31350361026E+03 -0.51068197355E+03 -0.96070139438E+03  0.11322666474E+04  0.00000000000E+00 0. -1.
        -13    1    5    5    0    0  0.56035619778E+01 -0.24632258216E+02 -0.15654754866E+02  0.29719007412E+02  0.00000000000E+00 0.  1.
          1    1    6    6  503    0 -0.12159932208E+02  0.23672626610E+03 -0.78394535846E+02  0.24966556083E+03  0.00000000000E+00 0. -1.
         -1    1    6    6    0  503 -0.33478721083E+02  0.24085311921E+02 -0.29534186293E+02  0.50726671245E+02  0.00000000000E+00 0.  1.
<mgrwt>
<rscale>  0 0.15205136E+04</rscale>
<asrwt>0</asrwt>
<pdfrwt beam="1">  1        2 0.22514585E+00 0.15205136E+04</pdfrwt>
<pdfrwt beam="2">  1       -1 0.60761707E-01 0.15205136E+04</pdfrwt>
<totfact> 0.40202624E+01</totfact>
</mgrwt>
</event>
<event>
12    7  0.1701638E-007  0.1183295E+04  0.7818608E-02  0.9127605E-01
         -1   -1    0    0    0  501 -0.00000000000E+00  0.00000000000E+00  0.74227109112E+03  0.74227109112E+03  0.00000000000E+00 0.  1.
          2   -1    0    0  501    0  0.00000000000E+00 -0.00000000000E+00 -0.47158900675E+03  0.47158900675E+03  0.00000000000E+00 0. -1.
         24    2    1    2    0    0  0.30868791007E+02 -0.85682152460E+02 -0.16611956243E+03  0.20524706871E+03  0.78970479815E+02 0.  0.
        254    2    1    2    0    0 -0.30868791007E+02  0.85682152460E+02  0.43680164680E+03  0.10086130292E+04  0.90454975012E+03 0.  0.
         23    2    4    4    0    0  0.27836133224E+02  0.18848294374E+03  0.68595373972E+03  0.71814010053E+03  0.94297404856E+02 0.  0.
         23    2    4    4    0    0 -0.58704924231E+02 -0.10280079128E+03 -0.24915209292E+03  0.29047292863E+03  0.91013658567E+02 0.  0.
          2    1    3    3  502    0  0.44365197022E+02 -0.87975946638E+02 -0.16410199807E+03  0.19140925699E+03  0.00000000000E+00 0. -1.
         -1    1    3    3    0  502 -0.13496406014E+02  0.22937941781E+01 -0.20175643640E+01  0.13837811713E+02  0.00000000000E+00 0.  1.
         13    1    5    5    0    0  0.39199220073E+02  0.83774070126E+02  0.45497934110E+03  0.46428533738E+03  0.00000000000E+00 0. -1.
        -13    1    5    5    0    0 -0.11363086848E+02  0.10470887362E+03  0.23097439862E+03  0.25385476315E+03  0.00000000000E+00 0.  1.
          2    1    6    6  503    0 -0.44249227152E+02 -0.43174414685E+02 -0.20699944732E+03  0.21603424585E+03  0.00000000000E+00 0. -1.
         -2    1    6    6    0  503 -0.14455697079E+02 -0.59626376596E+02 -0.42152645595E+02  0.74438682785E+02  0.00000000000E+00 0.  1.
<mgrwt>
<rscale>  0 0.11832952E+04</rscale>
<asrwt>0</asrwt>
<pdfrwt beam="1">  1        2 0.72552155E-01 0.11832952E+04</pdfrwt>
<pdfrwt beam="2">  1       -1 0.11419555E+00 0.11832952E+04</pdfrwt>
<totfact> 0.52002910E+01</totfact>
</mgrwt>
</event>
<event>
12    7  0.1701638E-007  0.1428583E+04  0.7818608E-02  0.8933385E-01
          2   -1    0    0  501    0  0.00000000000E+00  0.00000000000E+00  0.18505747930E+04  0.18505747930E+04  0.00000000000E+00 0. -1.
         -1   -1    0    0    0  501 -0.00000000000E+00 -0.00000000000E+00 -0.27570488081E+03  0.27570488081E+03  0.00000000000E+00 0.  1.
         24    2    1    2    0    0  0.43067440037E+01 -0.39028070603E+03  0.22360934686E+03  0.45699028069E+03  0.80631253848E+02 0.  0.
        254    2    1    2    0    0 -0.43067440037E+01  0.39028070603E+03  0.13512605653E+04  0.16692893931E+04  0.89904637537E+03 0.  0.
         23    2    4    4    0    0  0.27551785415E+02 -0.18275841050E+03  0.90754690782E+01  0.20614944372E+03  0.90859735431E+02 0.  0.
         23    2    4    4    0    0 -0.31858529418E+02  0.57303911652E+03  0.13421850963E+04  0.14631399494E+04  0.99643785530E+02 0.  0.
          4    1    3    3  502    0  0.20698944856E+01 -0.24369529539E+02  0.41716334434E+02  0.48357119349E+02  0.00000000000E+00 0. -1.
         -3    1    3    3    0  502  0.22368495181E+01 -0.36591117649E+03  0.18189301243E+03  0.40863316134E+03  0.00000000000E+00 0.  1.
         13    1    5    5    0    0 -0.27160782758E+02 -0.25040855534E+02  0.13006122990E+02  0.39165186086E+02  0.00000000000E+00 0.  1.
        -13    1    5    5    0    0  0.54712568172E+02 -0.15771755496E+03 -0.39306539123E+01  0.16698425764E+03  0.00000000000E+00 0. -1.
          4    1    6    6  503    0  0.55674380983E+01  0.46020807015E+03  0.99820231880E+03  0.10991953118E+04  0.00000000000E+00 0. -1.
         -4    1    6    6    0  503 -0.37425967517E+02  0.11283104638E+03  0.34398277746E+03  0.36394463763E+03  0.00000000000E+00 0.  1.
<mgrwt>
<rscale>  0 0.14285832E+04</rscale>
<asrwt>0</asrwt>
<pdfrwt beam="1">  1        2 0.28470381E+00 0.14285832E+04</pdfrwt>
<pdfrwt beam="2">  1       -1 0.42416137E-01 0.14285832E+04</pdfrwt>
<totfact> 0.48937505E+01</totfact>
</mgrwt>
</event>
<event>
12    7  0.1701638E-007  0.1947375E+04  0.7818608E-02  0.8631627E-01
          2   -1    0    0  501    0  0.00000000000E+00  0.00000000000E+00  0.25802841332E+04  0.25802841332E+04  0.00000000000E+00 0. -1.
         -1   -1    0    0    0  501 -0.00000000000E+00 -0.00000000000E+00 -0.36742761874E+03  0.36742761874E+03  0.00000000000E+00 0.  1.
         24    2    1    2    0    0  0.10923254477E+03 -0.57004832991E+03  0.16399886166E+04  0.17415159681E+04  0.80177037162E+02 0.  0.
        254    2    1    2    0    0 -0.10923254477E+03  0.57004832991E+03  0.57286789785E+03  0.12061957838E+04  0.88873156424E+03 0.  0.
         23    2    4    4    0    0 -0.22210730688E+03 -0.51069574409E+02 -0.11211602059E+03  0.26999747506E+03  0.91590814311E+02 0.  0.
         23    2    4    4    0    0  0.11287476211E+03  0.62111790432E+03  0.68498391843E+03  0.93619830877E+03  0.93467330360E+02 0.  0.
          4    1    3    3  502    0  0.97867614221E+02 -0.39283544525E+03  0.12238739489E+04  0.12890947210E+04  0.00000000000E+00 0. -1.
         -3    1    3    3    0  502  0.11364930554E+02 -0.17721288466E+03  0.41611466777E+03  0.45242124715E+03  0.00000000000E+00 0.  1.
         13    1    5    5    0    0 -0.14236261395E+03  0.97462008225E+01 -0.46209258945E+02  0.14999132606E+03  0.00000000000E+00 0.  1.
        -13    1    5    5    0    0 -0.79744692934E+02 -0.60815775231E+02 -0.65906761641E+02  0.12000614900E+03  0.00000000000E+00 0. -1.
          3    1    6    6  503    0  0.12519505655E+03  0.53821181876E+03  0.61704156112E+03  0.82830311613E+03  0.00000000000E+00 0. -1.
         -3    1    6    6    0  503 -0.12320294441E+02  0.82906085562E+02  0.67942357309E+02  0.10789519264E+03  0.00000000000E+00 0.  1.
<mgrwt>
<rscale>  0 0.19473753E+04</rscale>
<asrwt>0</asrwt>
<pdfrwt beam="1">  1        2 0.39696678E+00 0.19473753E+04</pdfrwt>
<pdfrwt beam="2">  1       -1 0.56527328E-01 0.19473753E+04</pdfrwt>
<totfact> 0.10524136E+01</totfact>
</mgrwt>
</event>
<event>
12    7  0.1701638E-007  0.1942329E+04  0.7818608E-02  0.8634069E-01
         -1   -1    0    0    0  501 -0.00000000000E+00  0.00000000000E+00  0.30760719402E+03  0.30760719402E+03  0.00000000000E+00 0.  1.
          2   -1    0    0  501    0  0.00000000000E+00 -0.00000000000E+00 -0.30661198834E+04  0.30661198834E+04  0.00000000000E+00 0. -1.
         24    2    1    2    0    0 -0.59611563678E+03 -0.89932775276E+02 -0.29627798787E+03  0.67670491702E+03  0.81897143665E+02 0.  0.
        254    2    1    2    0    0  0.59611563678E+03  0.89932775276E+02 -0.24622347015E+04  0.26970221604E+04  0.92080782572E+03 0.  0.
         23    2    4    4    0    0  0.63433842768E+03  0.36830744291E+03 -0.12756259357E+04  0.14743014901E+04  0.91146818319E+02 0.  0.
         23    2    4    4    0    0 -0.38222790903E+02 -0.27837466764E+03 -0.11866087658E+04  0.12227206703E+04  0.89733144429E+02 0.  0.
          4    1    3    3  502    0 -0.55169734646E+02 -0.30682333550E+02 -0.43610280111E+02  0.76726538722E+02  0.00000000000E+00 0. -1.
         -3    1    3    3    0  502 -0.54094590214E+03 -0.59250441726E+02 -0.25266770775E+03  0.59997837830E+03  0.00000000000E+00 0.  1.
         13    1    5    5    0    0  0.44266748789E+03  0.23544557603E+03 -0.94386662853E+03  0.10687718824E+04  0.00000000000E+00 0.  1.
        -13    1    5    5    0    0  0.19167093979E+03  0.13286186688E+03 -0.33175930718E+03  0.40552960772E+03  0.00000000000E+00 0. -1.
          1    1    6    6  503    0 -0.53241249578E+02 -0.19248304766E+03 -0.94465653715E+03  0.96553629009E+03  0.00000000000E+00 0. -1.
         -1    1    6    6    0  503  0.15018458674E+02 -0.85891619978E+02 -0.24195222863E+03  0.25718438021E+03  0.00000000000E+00 0.  1.
<mgrwt>
<rscale>  0 0.19423290E+04</rscale>
<asrwt>0</asrwt>
<pdfrwt beam="1">  1        2 0.47171076E+00 0.19423290E+04</pdfrwt>
<pdfrwt beam="2">  1       -1 0.47324183E-01 0.19423290E+04</pdfrwt>
<totfact> 0.75103345E+00</totfact>
</mgrwt>
</event>
<event>
12    7  0.1701638E-007  0.1368511E+04  0.7818608E-02  0.8976933E-01
         -1   -1    0    0    0  501 -0.00000000000E+00  0.00000000000E+00  0.20359601743E+03  0.20359601743E+03  0.00000000000E+00 0.  1.
          2   -1    0    0  501    0  0.00000000000E+00 -0.00000000000E+00 -0.22996795269E+04  0.22996795269E+04  0.00000000000E+00 0. -1.
         24    2    1    2    0    0  0.71171647188E+02  0.32725434884E+03 -0.26955854516E+03  0.43740061169E+03  0.80601945632E+02 0.  0.
        254    2    1    2    0    0 -0.71171647188E+02 -0.32725434884E+03 -0.18265249643E+04  0.20658749327E+04  0.90525409685E+03 0.  0.
         23    2    4    4    0    0 -0.13247873663E+03  0.27893801032E+03 -0.86722467439E+03  0.92588934695E+03  0.99173674194E+02 0.  0.
         23    2    4    4    0    0  0.61307089439E+02 -0.60619235916E+03 -0.95930028994E+03  0.11399855857E+04  0.89901912265E+02 0.  0.
          4    1    3    3  502    0 -0.35149475047E+01  0.42742267617E+02 -0.69488978781E+02  0.81657666321E+02  0.00000000000E+00 0. -1.
         -3    1    3    3    0  502  0.74686594693E+02  0.28451208122E+03 -0.20006956638E+03  0.35574294537E+03  0.00000000000E+00 0.  1.
         13    1    5    5    0    0 -0.14727838732E+03  0.24821871487E+03 -0.80077567462E+03  0.85120217037E+03  0.00000000000E+00 0.  1.
        -13    1    5    5    0    0  0.14799650696E+02  0.30719295453E+02 -0.66448999773E+02  0.74687176575E+02  0.00000000000E+00 0. -1.
          3    1    6    6  503    0  0.61348267140E+01 -0.17438970101E+03 -0.35085048574E+03  0.39184878112E+03  0.00000000000E+00 0. -1.
         -3    1    6    6    0  503  0.55172262725E+02 -0.43180265815E+03 -0.60844980420E+03  0.74813680460E+03  0.00000000000E+00 0.  1.
<mgrwt>
<rscale>  0 0.13685110E+04</rscale>
<asrwt>0</asrwt>
<pdfrwt beam="1">  1        2 0.35379686E+00 0.13685110E+04</pdfrwt>
<pdfrwt beam="2">  1       -1 0.31322463E-01 0.13685110E+04</pdfrwt>
<totfact> 0.47767810E+01</totfact>
</mgrwt>
</event>
<event>
12    7  0.1701638E-007  0.1479625E+04  0.7818608E-02  0.8898116E-01
         -1   -1    0    0    0  501 -0.00000000000E+00  0.00000000000E+00  0.24294820584E+03  0.24294820584E+03  0.00000000000E+00 0.  1.
          2   -1    0    0  501    0  0.00000000000E+00 -0.00000000000E+00 -0.22528369022E+04  0.22528369022E+04  0.00000000000E+00 0. -1.
         24    2    1    2    0    0  0.30017342870E+03 -0.23635692946E+00 -0.47761949767E+02  0.31419781719E+03  0.79592218957E+02 0.  0.
        254    2    1    2    0    0 -0.30017342870E+03  0.23635692946E+00 -0.19621267466E+04  0.21815872909E+04  0.90513954434E+03 0.  0.
         23    2    4    4    0    0 -0.32781358324E+02 -0.25366248907E+02 -0.18857777845E+04  0.18886981013E+04  0.96460361127E+02 0.  0.
         23    2    4    4    0    0 -0.26739207038E+03  0.25602605837E+02 -0.76348962095E+02  0.29288918956E+03  0.88322707262E+02 0.  0.
          2    1    3    3  502    0  0.30906764725E+02  0.24101050652E+02 -0.14526422653E+02  0.41798393550E+02  0.00000000000E+00 0. -1.
         -1    1    3    3    0  502  0.26926666398E+03 -0.24337407581E+02 -0.33235527114E+02  0.27239942364E+03  0.00000000000E+00 0.  1.
         13    1    5    5    0    0 -0.33509873563E+02  0.17922466481E+02 -0.15028811573E+04  0.15033615332E+04  0.00000000000E+00 0. -1.
        -13    1    5    5    0    0  0.72851523870E+00 -0.43288715389E+02 -0.38289662722E+03  0.38533656815E+03  0.00000000000E+00 0.  1.
          3    1    6    6  503    0 -0.21777534042E+03 -0.20660570750E+01 -0.30550561305E+02  0.21991749426E+03  0.00000000000E+00 0. -1.
         -3    1    6    6    0  503 -0.49616729965E+02  0.27668662912E+02 -0.45798400790E+02  0.72971695298E+02  0.00000000000E+00 0.  1.
<mgrwt>
<rscale>  0 0.14796252E+04</rscale>
<asrwt>0</asrwt>
<pdfrwt beam="1">  1        2 0.34659029E+00 0.14796252E+04</pdfrwt>
<pdfrwt beam="2">  1       -1 0.37376647E-01 0.14796252E+04</pdfrwt>
<totfact> 0.36677074E+01</totfact>
</mgrwt>
</event>
<event>
12    7  0.1701638E-007  0.1543603E+04  0.7818608E-02  0.8855964E-01
         -1   -1    0    0    0  501 -0.00000000000E+00  0.00000000000E+00  0.26500033173E+03  0.26500033173E+03  0.00000000000E+00 0.  1.
          2   -1    0    0  501    0  0.00000000000E+00 -0.00000000000E+00 -0.22478374235E+04  0.22478374235E+04  0.00000000000E+00 0. -1.
         24    2    1    2    0    0 -0.46235436535E+03  0.17092341794E+03 -0.48098007660E+03  0.69204989251E+03  0.67859013293E+02 0.  0.
        254    2    1    2    0    0  0.46235436535E+03 -0.17092341794E+03 -0.15018570151E+04  0.18207878627E+04  0.90371874665E+03 0.  0.
         23    2    4    4    0    0  0.63509297450E+03  0.13985914620E+03 -0.87319700118E+03  0.10926245848E+04  0.91933744571E+02 0.  0.
         23    2    4    4    0    0 -0.17273860915E+03 -0.31078256414E+03 -0.62866001395E+03  0.72816327789E+03  0.92649429913E+02 0.  0.
          4    1    3    3  502    0 -0.10512748397E+03  0.48888606697E+02 -0.15306787193E+03  0.19201993951E+03  0.00000000000E+00 0. -1.
         -3    1    3    3    0  502 -0.35722688137E+03  0.12203481124E+03 -0.32791220467E+03  0.50002995301E+03  0.00000000000E+00 0.  1.
         13    1    5    5    0    0  0.10331965867E+03  0.10371390390E+02 -0.19695284754E+03  0.22264981868E+03  0.00000000000E+00 0. -1.
        -13    1    5    5    0    0  0.53177331583E+03  0.12948775581E+03 -0.67624415364E+03  0.86997476611E+03  0.00000000000E+00 0.  1.
          3    1    6    6  503    0 -0.25025722523E+02 -0.37227100514E+01 -0.29264629824E+02  0.38685448384E+02  0.00000000000E+00 0. -1.
         -3    1    6    6    0  503 -0.14771288663E+03 -0.30705985409E+03 -0.59939538413E+03  0.68947782951E+03  0.00000000000E+00 0.  1.
<mgrwt>
<rscale>  0 0.15436031E+04</rscale>
<asrwt>0</asrwt>
<pdfrwt beam="1">  1        2 0.34582114E+00 0.15436031E+04</pdfrwt>
<pdfrwt beam="2">  1       -1 0.40769282E-01 0.15436031E+04</pdfrwt>
<totfact> 0.31340749E+01</totfact>
</mgrwt>
</event>
<event>
12    7  0.1701638E-007  0.1339302E+04  0.7818608E-02  0.8998966E-01
          2   -1    0    0  501    0  0.00000000000E+00  0.00000000000E+00  0.14002778337E+04  0.14002778337E+04  0.00000000000E+00 0. -1.
         -1   -1    0    0    0  501 -0.00000000000E+00 -0.00000000000E+00 -0.32024549287E+03  0.32024549287E+03  0.00000000000E+00 0.  1.
         24    2    1    2    0    0  0.19492710628E+03 -0.29938963664E+03  0.29338259406E+03  0.46886328477E+03  0.78286026981E+02 0.  0.
        254    2    1    2    0    0 -0.19492710628E+03  0.29938963664E+03  0.78664974681E+03  0.12516600418E+04  0.90565131529E+03 0.  0.
         23    2    4    4    0    0  0.12175180509E+03  0.28023160430E+03  0.85793488517E+03  0.91425944498E+03  0.80404051224E+02 0.  0.
         23    2    4    4    0    0 -0.31667891138E+03  0.19158032337E+02 -0.71285138360E+02  0.33740059686E+03  0.90027932863E+02 0.  0.
          2    1    3    3  502    0  0.74128449747E+02 -0.74543861210E+02  0.12383958888E+03  0.16244401522E+03  0.00000000000E+00 0. -1.
         -1    1    3    3    0  502  0.12079865654E+03 -0.22484577543E+03  0.16954300517E+03  0.30641926955E+03  0.00000000000E+00 0.  1.
         13    1    5    5    0    0  0.17506986629E+02  0.79009930768E+02  0.32927545679E+03  0.33907431366E+03  0.00000000000E+00 0.  1.
        -13    1    5    5    0    0  0.10424481846E+03  0.20122167353E+03  0.52865942837E+03  0.57518513131E+03  0.00000000000E+00 0. -1.
          2    1    6    6  503    0 -0.31681954279E+03  0.29408308069E+02 -0.74248326941E+02  0.32672968235E+03  0.00000000000E+00 0. -1.
         -2    1    6    6    0  503  0.14063141450E+00 -0.10250275732E+02  0.29631885812E+01  0.10670914504E+02  0.00000000000E+00 0.  1.
<mgrwt>
<rscale>  0 0.13393023E+04</rscale>
<asrwt>0</asrwt>
<pdfrwt beam="1">  1        2 0.21542736E+00 0.13393023E+04</pdfrwt>
<pdfrwt beam="2">  1       -1 0.49268538E-01 0.13393023E+04</pdfrwt>
<totfact> 0.66509470E+01</totfact>
</mgrwt>
</event>
<event>
12    7  0.1701638E-007  0.2712158E+04  0.7818608E-02  0.8331071E-01
          2   -1    0    0  501    0  0.00000000000E+00  0.00000000000E+00  0.30117203329E+04  0.30117203329E+04  0.00000000000E+00 0. -1.
         -1   -1    0    0    0  501 -0.00000000000E+00 -0.00000000000E+00 -0.61059785895E+03  0.61059785895E+03  0.00000000000E+00 0.  1.
         24    2    1    2    0    0 -0.67150282133E+03  0.54596203810E+03  0.21854875568E+04  0.23520329946E+04  0.81931438127E+02 0.  0.
        254    2    1    2    0    0  0.67150282133E+03 -0.54596203810E+03  0.21563491720E+03  0.12702851973E+04  0.90450841839E+03 0.  0.
         23    2    4    4    0    0  0.35242659563E+03 -0.77084548597E+03  0.14480980175E+03  0.86374047745E+03  0.81672915657E+02 0.  0.
         23    2    4    4    0    0  0.31907622569E+03  0.22488344787E+03  0.70825115443E+02  0.40654471988E+03  0.88770543288E+02 0.  0.
          2    1    3    3  502    0 -0.62765865963E+03  0.51279365696E+03  0.19836977019E+04  0.21428880746E+04  0.00000000000E+00 0. -1.
         -1    1    3    3    0  502 -0.43844161694E+02  0.33168381136E+02  0.20178985489E+03  0.20914492000E+03  0.00000000000E+00 0.  1.
         13    1    5    5    0    0  0.22205458170E+03 -0.41620282379E+03  0.51456770237E+02  0.47453221912E+03  0.00000000000E+00 0.  1.
        -13    1    5    5    0    0  0.13037201394E+03 -0.35464266218E+03  0.93353031516E+02  0.38920825832E+03  0.00000000000E+00 0. -1.
          3    1    6    6  503    0  0.98489525303E+02  0.82087360761E+02  0.64906587153E+02  0.14370590262E+03  0.00000000000E+00 0. -1.
         -3    1    6    6    0  503  0.22058670039E+03  0.14279608711E+03  0.59185282891E+01  0.26283881726E+03  0.00000000000E+00 0.  1.
<mgrwt>
<rscale>  0 0.27121578E+04</rscale>
<asrwt>0</asrwt>
<pdfrwt beam="1">  1        2 0.46334158E+00 0.27121578E+04</pdfrwt>
<pdfrwt beam="2">  1       -1 0.93938134E-01 0.27121578E+04</pdfrwt>
<totfact> 0.18723037E+00</totfact>
</mgrwt>
</event>
<event>
12    7  0.1701638E-007  0.1767951E+04  0.7818608E-02  0.8723531E-01
         -1   -1    0    0    0  501 -0.00000000000E+00  0.00000000000E+00  0.29399740463E+03  0.29399740463E+03  0.00000000000E+00 0.  1.
          2   -1    0    0  501    0  0.00000000000E+00 -0.00000000000E+00 -0.26578910616E+04  0.26578910616E+04  0.00000000000E+00 0. -1.
         24    2    1    2    0    0  0.14190144340E+03 -0.62115913771E+03 -0.71338322017E+03  0.95982706367E+03  0.79860373974E+02 0.  0.
        254    2    1    2    0    0 -0.14190144340E+03  0.62115913771E+03 -0.16505104368E+04  0.19920614025E+04  0.91550490746E+03 0.  0.
         23    2    4    4    0    0 -0.14082993551E+03  0.50396577717E+02 -0.13089457241E+04  0.13205100465E+04  0.89638096655E+02 0.  0.
         23    2    4    4    0    0 -0.10715078863E+01  0.57076256000E+03 -0.34156471264E+03  0.67155135605E+03  0.92432260966E+02 0.  0.
          4    1    3    3  502    0  0.11568379707E+03 -0.42583429572E+03 -0.53975774781E+03  0.69717717593E+03  0.00000000000E+00 0. -1.
         -3    1    3    3    0  502  0.26217646326E+02 -0.19532484199E+03 -0.17362547237E+03  0.26264988775E+03  0.00000000000E+00 0.  1.
         13    1    5    5    0    0 -0.78038908037E+02  0.72102477726E+02 -0.89179316297E+03  0.89810015253E+03  0.00000000000E+00 0. -1.
        -13    1    5    5    0    0 -0.62791027475E+02 -0.21705900009E+02 -0.41715256116E+03  0.42240989395E+03  0.00000000000E+00 0.  1.
          2    1    6    6  503    0  0.76264430198E+01  0.34800971394E+03 -0.25880845607E+03  0.43376346154E+03  0.00000000000E+00 0. -1.
         -2    1    6    6    0  503 -0.86979509061E+01  0.22275284605E+03 -0.82756256573E+02  0.23778789451E+03  0.00000000000E+00 0.  1.
<mgrwt>
<rscale>  0 0.17679514E+04</rscale>
<asrwt>0</asrwt>
<pdfrwt beam="1">  1        2 0.40890631E+00 0.17679514E+04</pdfrwt>
<pdfrwt beam="2">  1       -1 0.45230371E-01 0.17679514E+04</pdfrwt>
<totfact> 0.14735279E+01</totfact>
</mgrwt>
</event>
<event>
12    7  0.1701638E-007  0.2435308E+04  0.7818608E-02  0.8426402E-01
          2   -1    0    0  501    0  0.00000000000E+00  0.00000000000E+00  0.68023700928E+03  0.68023700928E+03  0.00000000000E+00 0. -1.
         -1   -1    0    0    0  501 -0.00000000000E+00 -0.00000000000E+00 -0.21796543907E+04  0.21796543907E+04  0.00000000000E+00 0.  1.
         24    2    1    2    0    0  0.55372964032E+02  0.65232215839E+03 -0.16199661958E+04  0.17491244559E+04  0.80966186502E+02 0.  0.
        254    2    1    2    0    0 -0.55372964032E+02 -0.65232215839E+03  0.12054881433E+03  0.11107669441E+04  0.88920235266E+03 0.  0.
         23    2    4    4    0    0  0.34213070509E+03 -0.25561324388E+03  0.28138452267E+03  0.51963536376E+03  0.91935367822E+02 0.  0.
         23    2    4    4    0    0 -0.39750366912E+03 -0.39670891451E+03 -0.16083570833E+03  0.59113158034E+03  0.90450485782E+02 0.  0.
          4    1    3    3  502    0 -0.28709964546E+01  0.26121345664E+02 -0.33688307676E+02  0.42725512215E+02  0.00000000000E+00 0. -1.
         -3    1    3    3    0  502  0.58243960487E+02  0.62620081273E+03 -0.15862778881E+04  0.17063989437E+04  0.00000000000E+00 0.  1.
         13    1    5    5    0    0  0.19999390865E+03 -0.16627377750E+03  0.11881206595E+03  0.28593852416E+03  0.00000000000E+00 0.  1.
        -13    1    5    5    0    0  0.14213679644E+03 -0.89339466378E+02  0.16257245672E+03  0.23369683960E+03  0.00000000000E+00 0. -1.
          2    1    6    6  503    0 -0.29126141937E+03 -0.28783127569E+03 -0.74480552862E+02  0.41620597117E+03  0.00000000000E+00 0. -1.
         -2    1    6    6    0  503 -0.10624224975E+03 -0.10887763882E+03 -0.86355155471E+02  0.17492560917E+03  0.00000000000E+00 0.  1.
<mgrwt>
<rscale>  0 0.24353083E+04</rscale>
<asrwt>0</asrwt>
<pdfrwt beam="1">  1        2 0.10465185E+00 0.24353083E+04</pdfrwt>
<pdfrwt beam="2">  1       -1 0.33533144E+00 0.24353083E+04</pdfrwt>
<totfact> 0.84430256E-01</totfact>
</mgrwt>
</event>
<event>
12    7  0.1701638E-007  0.1619907E+04  0.7818608E-02  0.8808411E-01
         -1   -1    0    0    0  501 -0.00000000000E+00  0.00000000000E+00  0.33533005646E+03  0.33533005646E+03  0.00000000000E+00 0.  1.
          2   -1    0    0  501    0  0.00000000000E+00 -0.00000000000E+00 -0.19563561514E+04  0.19563561514E+04  0.00000000000E+00 0. -1.
         24    2    1    2    0    0 -0.95775911654E+02 -0.14302398654E+03 -0.13099581636E+04  0.13236222803E+04  0.79728694687E+02 0.  0.
        254    2    1    2    0    0  0.95775911654E+02  0.14302398654E+03 -0.31106793141E+03  0.96806392755E+03  0.90041969320E+03 0.  0.
         23    2    4    4    0    0  0.91150766692E+02 -0.26480888360E+03 -0.44070701523E+03  0.53017726943E+03  0.91831675608E+02 0.  0.
         23    2    4    4    0    0  0.46251449612E+01  0.40783287015E+03  0.12963908381E+03  0.43788665813E+03  0.92678969431E+02 0.  0.
          4    1    3    3  502    0 -0.91661068976E+02 -0.10190230358E+03 -0.77148326382E+03  0.78356381833E+03  0.00000000000E+00 0. -1.
         -3    1    3    3    0  502 -0.41148426777E+01 -0.41121682967E+02 -0.53847489974E+03  0.54005846201E+03  0.00000000000E+00 0.  1.
         13    1    5    5    0    0  0.52563379125E+02 -0.23494531693E+03 -0.32379372782E+03  0.40349050664E+03  0.00000000000E+00 0.  1.
        -13    1    5    5    0    0  0.38587387567E+02 -0.29863566671E+02 -0.11691328740E+03  0.12668676279E+03  0.00000000000E+00 0. -1.
          4    1    6    6  503    0  0.41455480362E+01  0.11898134695E+03  0.83395104071E+02  0.14535642357E+03  0.00000000000E+00 0. -1.
         -4    1    6    6    0  503  0.47959692497E+00  0.28885152319E+03  0.46243979743E+02  0.29253023455E+03  0.00000000000E+00 0.  1.
<mgrwt>
<rscale>  0 0.16199074E+04</rscale>
<asrwt>0</asrwt>
<pdfrwt beam="1">  1        2 0.30097786E+00 0.16199074E+04</pdfrwt>
<pdfrwt beam="2">  1       -1 0.51589240E-01 0.16199074E+04</pdfrwt>
<totfact> 0.29135847E+01</totfact>
</mgrwt>
</event>
<event>
12    7  0.1701638E-007  0.3311712E+04  0.7818608E-02  0.8159922E-01
          2   -1    0    0  501    0  0.00000000000E+00  0.00000000000E+00  0.14758806880E+04  0.14758806880E+04  0.00000000000E+00 0. -1.
         -1   -1    0    0    0  501 -0.00000000000E+00 -0.00000000000E+00 -0.18577788088E+04  0.18577788088E+04  0.00000000000E+00 0.  1.
         24    2    1    2    0    0  0.83676621586E+03  0.58809839020E+02 -0.14679939843E+04  0.16925991828E+04  0.79052883303E+02 0.  0.
        254    2    1    2    0    0 -0.83676621586E+03 -0.58809839020E+02  0.10860958634E+04  0.16410603140E+04  0.89991023576E+03 0.  0.
         23    2    4    4    0    0 -0.10125027439E+04 -0.10313645957E+03  0.84176046161E+03  0.13237971421E+04  0.89884720560E+02 0.  0.
         23    2    4    4    0    0  0.17573652806E+03  0.44326620550E+02  0.24433540184E+03  0.31726317190E+03  0.90044183965E+02 0.  0.
          2    1    3    3  502    0  0.17954856877E+03  0.10048085364E+02 -0.25326253658E+03  0.31061320802E+03  0.00000000000E+00 0. -1.
         -1    1    3    3    0  502  0.65721764709E+03  0.48761753656E+02 -0.12147314477E+04  0.13819859747E+04  0.00000000000E+00 0.  1.
         13    1    5    5    0    0 -0.15103646840E+03  0.20538434490E+01  0.91579069738E+02  0.17664359336E+03  0.00000000000E+00 0.  1.
        -13    1    5    5    0    0 -0.86146627552E+03 -0.10519030302E+03  0.75018139187E+03  0.11471535487E+04  0.00000000000E+00 0. -1.
          1    1    6    6  503    0  0.15503479423E+03  0.62480835945E+02  0.17189121992E+03  0.23976286987E+03  0.00000000000E+00 0. -1.
         -1    1    6    6    0  503  0.20701733826E+02 -0.18154215395E+02  0.72444181919E+02  0.77500302025E+02  0.00000000000E+00 0.  1.
<mgrwt>
<rscale>  0 0.33117125E+04</rscale>
<asrwt>0</asrwt>
<pdfrwt beam="1">  1        2 0.22705857E+00 0.33117125E+04</pdfrwt>
<pdfrwt beam="2">  1       -1 0.28581212E+00 0.33117125E+04</pdfrwt>
<totfact> 0.50785984E-01</totfact>
</mgrwt>
</event>
<event>
12    7  0.1701638E-007  0.1847194E+04  0.7818608E-02  0.8681597E-01
          2   -1    0    0  501    0  0.00000000000E+00  0.00000000000E+00  0.12693379473E+04  0.12693379473E+04  0.00000000000E+00 0. -1.
         -1   -1    0    0    0  501 -0.00000000000E+00 -0.00000000000E+00 -0.67202895661E+03  0.67202895661E+03  0.00000000000E+00 0.  1.
         24    2    1    2    0    0 -0.21627012673E+02 -0.60256597361E+03  0.61176317209E+03  0.86279931943E+03  0.81332691223E+02 0.  0.
        254    2    1    2    0    0  0.21627012673E+02  0.60256597361E+03 -0.14454181430E+02  0.10785675845E+04  0.89417315473E+03 0.  0.
         23    2    4    4    0    0 -0.41607142328E+03  0.31170666469E+03  0.90477821822E+02  0.53554133115E+03  0.91333493566E+02 0.  0.
         23    2    4    4    0    0  0.43769843595E+03  0.29085930892E+03 -0.10493200325E+03  0.54302625330E+03  0.87679690036E+02 0.  0.
          2    1    3    3  502    0  0.50613779229E+01 -0.51256510866E+03  0.54075615640E+03  0.74509451001E+03  0.00000000000E+00 0. -1.
         -1    1    3    3    0  502 -0.26688390595E+02 -0.90000864956E+02  0.71007015684E+02  0.11770480942E+03  0.00000000000E+00 0.  1.
         13    1    5    5    0    0 -0.72448655676E+01  0.13913769594E+02  0.19142878814E+02  0.24749361016E+02  0.00000000000E+00 0. -1.
        -13    1    5    5    0    0 -0.40882655771E+03  0.29779289510E+03  0.71334943008E+02  0.51079197014E+03  0.00000000000E+00 0.  1.
          3    1    6    6  503    0  0.98810889856E+02  0.49163538565E+02  0.11063568396E+02  0.11091910577E+03  0.00000000000E+00 0. -1.
         -3    1    6    6    0  503  0.33888754610E+03  0.24169577035E+03 -0.11599557165E+03  0.43210714753E+03  0.00000000000E+00 0.  1.
<mgrwt>
<rscale>  0 0.18471945E+04</rscale>
<asrwt>0</asrwt>
<pdfrwt beam="1">  1        2 0.19528276E+00 0.18471945E+04</pdfrwt>
<pdfrwt beam="2">  1       -1 0.10338907E+00 0.18471945E+04</pdfrwt>
<totfact> 0.16305557E+01</totfact>
</mgrwt>
</event>
<event>
12    7  0.1701638E-007  0.1482174E+04  0.7818608E-02  0.8896394E-01
          2   -1    0    0  501    0  0.00000000000E+00  0.00000000000E+00  0.66053414151E+03  0.66053414151E+03  0.00000000000E+00 0. -1.
         -1   -1    0    0    0  501 -0.00000000000E+00 -0.00000000000E+00 -0.83146384033E+03  0.83146384033E+03  0.00000000000E+00 0.  1.
         24    2    1    2    0    0  0.14019289702E+03 -0.41132077063E+03 -0.15898586617E+02  0.44150157353E+03  0.76367857395E+02 0.  0.
        254    2    1    2    0    0 -0.14019289702E+03  0.41132077063E+03 -0.15503111220E+03  0.10504964083E+04  0.94375273954E+03 0.  0.
         23    2    4    4    0    0 -0.30802875005E+03  0.44282742201E+03  0.25014716732E+03  0.60196786544E+03  0.93882208972E+02 0.  0.
         23    2    4    4    0    0  0.16783585303E+03 -0.31506651378E+02 -0.40517827952E+03  0.44852854286E+03  0.88582576844E+02 0.  0.
          2    1    3    3  502    0  0.67644504531E+02 -0.30484644513E+03 -0.67151925294E+01  0.31233352031E+03  0.00000000000E+00 0. -1.
         -1    1    3    3    0  502  0.72548392493E+02 -0.10647432551E+03 -0.91833940878E+01  0.12916805322E+03  0.00000000000E+00 0.  1.
         13    1    5    5    0    0 -0.70029947254E+01 -0.33775424984E+00 -0.49665654677E+01  0.85920187152E+01  0.00000000000E+00 0.  1.
        -13    1    5    5    0    0 -0.30102575533E+03  0.44316517626E+03  0.25511373279E+03  0.59337584673E+03  0.00000000000E+00 0. -1.
          1    1    6    6  503    0  0.71789199995E+02 -0.58062624998E+02 -0.20924550651E+03  0.22871082102E+03  0.00000000000E+00 0. -1.
         -1    1    6    6    0  503  0.96046653036E+02  0.26555973620E+02 -0.19593277301E+03  0.21981772184E+03  0.00000000000E+00 0.  1.
<mgrwt>
<rscale>  0 0.14821744E+04</rscale>
<asrwt>0</asrwt>
<pdfrwt beam="1">  1        2 0.10162064E+00 0.14821744E+04</pdfrwt>
<pdfrwt beam="2">  1       -1 0.12791751E+00 0.14821744E+04</pdfrwt>
<totfact> 0.25736870E+01</totfact>
</mgrwt>
</event>
<event>
12    7  0.1701638E-007  0.3072149E+04  0.7818608E-02  0.8223423E-01
          2   -1    0    0  501    0  0.00000000000E+00  0.00000000000E+00  0.18227949018E+04  0.18227949018E+04  0.00000000000E+00 0. -1.
         -1   -1    0    0    0  501 -0.00000000000E+00 -0.00000000000E+00 -0.12944543518E+04  0.12944543518E+04  0.00000000000E+00 0.  1.
         24    2    1    2    0    0 -0.86430103200E+03 -0.52042952973E+03 -0.74470919579E+03  0.12564921856E+04  0.79483689434E+02 0.  0.
        254    2    1    2    0    0  0.86430103200E+03  0.52042952973E+03  0.12730497458E+04  0.18607570680E+04  0.90768829530E+03 0.  0.
         23    2    4    4    0    0  0.76482692553E+03  0.45479134317E+03  0.40827451504E+03  0.98315098251E+03  0.90013237638E+02 0.  0.
         23    2    4    4    0    0  0.99474106470E+02  0.65638186554E+02  0.86477523072E+03  0.87760608544E+03  0.90292702546E+02 0.  0.
          2    1    3    3  502    0 -0.81108144742E+02 -0.67744868466E+02 -0.56350215795E+02  0.11976328806E+03  0.00000000000E+00 0. -1.
         -1    1    3    3    0  502 -0.78319288726E+03 -0.45268466126E+03 -0.68835897999E+03  0.11367288976E+04  0.00000000000E+00 0.  1.
         13    1    5    5    0    0  0.55622388769E+03  0.29828417920E+03  0.25550365792E+03  0.68091158311E+03  0.00000000000E+00 0.  1.
        -13    1    5    5    0    0  0.20860303784E+03  0.15650716397E+03  0.15277085711E+03  0.30223939941E+03  0.00000000000E+00 0. -1.
          1    1    6    6  503    0  0.19903662092E+02  0.18324793908E+02  0.44180859656E+02  0.51806391463E+02  0.00000000000E+00 0. -1.
         -1    1    6    6    0  503  0.79570444378E+02  0.47313392646E+02  0.82059437107E+03  0.82579969398E+03  0.00000000000E+00 0.  1.
<mgrwt>
<rscale>  0 0.30721490E+04</rscale>
<asrwt>0</asrwt>
<pdfrwt beam="1">  1        2 0.28042998E+00 0.30721490E+04</pdfrwt>
<pdfrwt beam="2">  1       -1 0.19914682E+00 0.30721490E+04</pdfrwt>
<totfact> 0.12381327E+00</totfact>
</mgrwt>
</event>
<event>
12    7  0.1701638E-007  0.1105854E+04  0.7818608E-02  0.9199505E-01
          2   -1    0    0  501    0  0.00000000000E+00  0.00000000000E+00  0.14913662725E+04  0.14913662725E+04  0.00000000000E+00 0. -1.
         -1   -1    0    0    0  501 -0.00000000000E+00 -0.00000000000E+00 -0.20499868199E+03  0.20499868199E+03  0.00000000000E+00 0.  1.
         24    2    1    2    0    0 -0.39626177018E+02  0.60529404536E+01  0.42315323196E+03  0.43222368300E+03  0.78433299240E+02 0.  0.
        254    2    1    2    0    0  0.39626177018E+02 -0.60529404536E+01  0.86321435857E+03  0.12641412715E+04  0.92266313112E+03 0.  0.
         23    2    4    4    0    0  0.21191022959E+03  0.38746490051E+03  0.60425662299E+03  0.75402034775E+03  0.91573052084E+02 0.  0.
         23    2    4    4    0    0 -0.17228405257E+03 -0.39351784096E+03  0.25895773558E+03  0.51012092377E+03  0.92877134582E+02 0.  0.
          4    1    3    3  502    0  0.32649390813E+01 -0.15137196039E+02  0.29541973716E+03  0.29582531270E+03  0.00000000000E+00 0. -1.
         -3    1    3    3    0  502 -0.42891116099E+02  0.21190136493E+02  0.12773349481E+03  0.13639837030E+03  0.00000000000E+00 0.  1.
         13    1    5    5    0    0  0.19853080564E+03  0.28294350129E+03  0.46240898500E+03  0.57731583654E+03  0.00000000000E+00 0. -1.
        -13    1    5    5    0    0  0.13379423948E+02  0.10452139922E+03  0.14184763799E+03  0.17670451121E+03  0.00000000000E+00 0.  1.
          1    1    6    6  503    0 -0.18015281338E+03 -0.38030943822E+03  0.23596715876E+03  0.48246326801E+03  0.00000000000E+00 0. -1.
         -1    1    6    6    0  503  0.78687608079E+01 -0.13208402744E+02  0.22990576822E+02  0.27657655763E+02  0.00000000000E+00 0.  1.
<mgrwt>
<rscale>  0 0.11058537E+04</rscale>
<asrwt>0</asrwt>
<pdfrwt beam="1">  1        2 0.22944096E+00 0.11058537E+04</pdfrwt>
<pdfrwt beam="2">  1       -1 0.31538260E-01 0.11058537E+04</pdfrwt>
<totfact> 0.13553181E+02</totfact>
</mgrwt>
</event>
<event>
12    7  0.1701638E-007  0.1781387E+04  0.7818608E-02  0.8716261E-01
         -1   -1    0    0    0  501 -0.00000000000E+00  0.00000000000E+00  0.62234944091E+03  0.62234944091E+03  0.00000000000E+00 0.  1.
          2   -1    0    0  501    0  0.00000000000E+00 -0.00000000000E+00 -0.12747416839E+04  0.12747416839E+04  0.00000000000E+00 0. -1.
         24    2    1    2    0    0  0.41090196601E+03 -0.45151615524E+02  0.31362388374E+03  0.52460480459E+03  0.77273323285E+02 0.  0.
        254    2    1    2    0    0 -0.41090196601E+03  0.45151615524E+02 -0.96601612669E+03  0.13724863202E+04  0.88297930213E+03 0.  0.
         23    2    4    4    0    0 -0.51096722813E+03  0.69090711776E+02 -0.15118668409E+03  0.54535449363E+03  0.93236664445E+02 0.  0.
         23    2    4    4    0    0  0.10006526212E+03 -0.23939096252E+02 -0.81482944261E+03  0.82713182655E+03  0.98050501983E+02 0.  0.
          4    1    3    3  502    0  0.41927035615E+01  0.87738587324E+01  0.11706284589E+02  0.15218293567E+02  0.00000000000E+00 0. -1.
         -3    1    3    3    0  502  0.40670926245E+03 -0.53925474257E+02  0.30191759915E+03  0.50938651102E+03  0.00000000000E+00 0.  1.
         13    1    5    5    0    0 -0.44823743003E+03  0.89345036936E+02 -0.12067866075E+03  0.47271838177E+03  0.00000000000E+00 0.  1.
        -13    1    5    5    0    0 -0.62729798102E+02 -0.20254325160E+02 -0.30508023338E+02  0.72636111856E+02  0.00000000000E+00 0. -1.
          3    1    6    6  503    0  0.16002821926E+01  0.28481996285E+02 -0.22966839660E+03  0.23143326773E+03  0.00000000000E+00 0. -1.
         -3    1    6    6    0  503  0.98464979932E+02 -0.52421092537E+02 -0.58516104601E+03  0.59569855882E+03  0.00000000000E+00 0.  1.
<mgrwt>
<rscale>  0 0.17813868E+04</rscale>
<asrwt>0</asrwt>
<pdfrwt beam="1">  1        2 0.19611410E+00 0.17813868E+04</pdfrwt>
<pdfrwt beam="2">  1       -1 0.95746068E-01 0.17813868E+04</pdfrwt>
<totfact> 0.19397490E+01</totfact>
</mgrwt>
</event>
<event>
12    7  0.1701638E-007  0.1257404E+04  0.7818608E-02  0.9064043E-01
         -1   -1    0    0    0  501 -0.00000000000E+00  0.00000000000E+00  0.12985004242E+03  0.12985004242E+03  0.00000000000E+00 0.  1.
          2   -1    0    0  501    0  0.00000000000E+00 -0.00000000000E+00 -0.30440225871E+04  0.30440225871E+04  0.00000000000E+00 0. -1.
         24    2    1    2    0    0 -0.51108680871E+02  0.17154193173E+02 -0.14131489053E+04  0.14163630721E+04  0.78664858473E+02 0.  0.
        254    2    1    2    0    0  0.51108680871E+02 -0.17154193173E+02 -0.15010236394E+04  0.17575095574E+04  0.91261246689E+03 0.  0.
         23    2    4    4    0    0  0.13299726901E+03 -0.27279750555E+03 -0.14307490263E+04  0.14653969758E+04  0.90767659898E+02 0.  0.
         23    2    4    4    0    0 -0.81888588137E+02  0.25564331238E+03 -0.70274613151E+02  0.29211258156E+03  0.91279762392E+02 0.  0.
          2    1    3    3  502    0 -0.61432406178E+02 -0.94788197161E+01 -0.11476353499E+04  0.11493174865E+04  0.00000000000E+00 0. -1.
         -1    1    3    3    0  502  0.10323725307E+02  0.26633012889E+02 -0.26551355543E+03  0.26704558562E+03  0.00000000000E+00 0.  1.
         13    1    5    5    0    0  0.80599555485E+02 -0.70788783894E+02 -0.53645334374E+03  0.54707360590E+03  0.00000000000E+00 0. -1.
        -13    1    5    5    0    0  0.52397713524E+02 -0.20200872166E+03 -0.89429568252E+03  0.91832336994E+03  0.00000000000E+00 0.  1.
          4    1    6    6  503    0 -0.22314151231E+02  0.12841700370E+03 -0.77146506445E+02  0.15146099049E+03  0.00000000000E+00 0. -1.
         -4    1    6    6    0  503 -0.59574436906E+02  0.12722630868E+03  0.68718932947E+01  0.14065159107E+03  0.00000000000E+00 0.  1.
<mgrwt>
<rscale>  0 0.12574044E+04</rscale>
<asrwt>0</asrwt>
<pdfrwt beam="1">  1        2 0.46831114E+00 0.12574044E+04</pdfrwt>
<pdfrwt beam="2">  1       -1 0.19976931E-01 0.12574044E+04</pdfrwt>
<totfact> 0.37984033E+01</totfact>
</mgrwt>
</event>
<event>
12    7  0.1701638E-007  0.2075687E+04  0.7818608E-02  0.8572030E-01
         -1   -1    0    0    0  501 -0.00000000000E+00  0.00000000000E+00  0.14183226498E+04  0.14183226498E+04  0.00000000000E+00 0.  1.
          2   -1    0    0  501    0  0.00000000000E+00 -0.00000000000E+00 -0.75943179692E+03  0.75943179692E+03  0.00000000000E+00 0. -1.
         24    2    1    2    0    0 -0.47992965343E+03  0.75551143409E+02  0.98339362229E+03  0.10996525044E+04  0.78308151094E+02 0.  0.
        254    2    1    2    0    0  0.47992965343E+03 -0.75551143409E+02 -0.32450276937E+03  0.10781019424E+04  0.90606914931E+03 0.  0.
         23    2    4    4    0    0 -0.81746448677E+01  0.31378389036E+03 -0.30512210776E+03  0.44701708250E+03  0.90540691052E+02 0.  0.
         23    2    4    4    0    0  0.48810429830E+03 -0.38933503377E+03 -0.19380661612E+02  0.63108485988E+03  0.89804876165E+02 0.  0.
          4    1    3    3  502    0 -0.18190293796E+03  0.58141217195E+02  0.43994158315E+03  0.47960158107E+03  0.00000000000E+00 0. -1.
         -3    1    3    3    0  502 -0.29802671547E+03  0.17409926214E+02  0.54345203914E+03  0.62005092332E+03  0.00000000000E+00 0.  1.
         13    1    5    5    0    0  0.23435032292E+02  0.41293586683E+02 -0.20490009380E+02  0.51712682429E+02  0.00000000000E+00 0.  1.
        -13    1    5    5    0    0 -0.31609677160E+02  0.27249030368E+03 -0.28463209838E+03  0.39530440007E+03  0.00000000000E+00 0. -1.
          4    1    6    6  503    0  0.24804302048E+03 -0.14887971016E+03  0.14277243889E+02  0.28964521022E+03  0.00000000000E+00 0. -1.
         -4    1    6    6    0  503  0.24006127782E+03 -0.24045532361E+03 -0.33657905501E+02  0.34143964966E+03  0.00000000000E+00 0.  1.
<mgrwt>
<rscale>  0 0.20756872E+04</rscale>
<asrwt>0</asrwt>
<pdfrwt beam="1">  1        2 0.11683566E+00 0.20756872E+04</pdfrwt>
<pdfrwt beam="2">  1       -1 0.21820348E+00 0.20756872E+04</pdfrwt>
<totfact> 0.43987712E+00</totfact>
</mgrwt>
</event>
<event>
12    7  0.1701638E-007  0.1344770E+04  0.7818608E-02  0.8994797E-01
          4   -1    0    0  501    0  0.00000000000E+00  0.00000000000E+00  0.29197429743E+03  0.29197429743E+03  0.00000000000E+00 0. -1.
         -3   -1    0    0    0  501 -0.00000000000E+00 -0.00000000000E+00 -0.15484289248E+04  0.15484289248E+04  0.00000000000E+00 0.  1.
         24    2    1    2    0    0  0.10587627471E+03  0.84179869289E+02  0.11115381714E+03  0.19161371112E+03  0.77875588507E+02 0.  0.
        254    2    1    2    0    0 -0.10587627471E+03 -0.84179869289E+02 -0.13676084445E+04  0.16487895111E+04  0.91096539917E+03 0.  0.
         23    2    4    4    0    0 -0.23049650010E+03  0.16450668721E+03 -0.52362494198E+02  0.30147358525E+03  0.89181865359E+02 0.  0.
         23    2    4    4    0    0  0.12462022539E+03 -0.24868655650E+03 -0.13152459503E+04  0.13473159259E+04  0.89515866028E+02 0.  0.
          2    1    3    3  502    0  0.52208659487E+02  0.37684446841E+02  0.10115040140E+03  0.11990523492E+03  0.00000000000E+00 0. -1.
         -1    1    3    3    0  502  0.53667615225E+02  0.46495422448E+02  0.10003415743E+02  0.71708476201E+02  0.00000000000E+00 0.  1.
         13    1    5    5    0    0 -0.13143136894E+03  0.43374323064E+02 -0.42053019352E+02  0.14465128094E+03  0.00000000000E+00 0. -1.
        -13    1    5    5    0    0 -0.99065131164E+02  0.12113236415E+03 -0.10309474846E+02  0.15682230431E+03  0.00000000000E+00 0.  1.
          2    1    6    6  503    0  0.10698905641E+03 -0.25170107265E+03 -0.12558193064E+04  0.12852557016E+04  0.00000000000E+00 0.  1.
         -2    1    6    6    0  503  0.17631168983E+02  0.30145161481E+01 -0.59426643922E+02  0.62060224259E+02  0.00000000000E+00 0. -1.
<mgrwt>
<rscale>  0 0.13447698E+04</rscale>
<asrwt>0</asrwt>
<pdfrwt beam="1">  1        4 0.44919122E-01 0.13447698E+04</pdfrwt>
<pdfrwt beam="2">  1       -3 0.23821984E+00 0.13447698E+04</pdfrwt>
<totfact> 0.92600167E-01</totfact>
</mgrwt>
</event>
<event>
12    7  0.1701638E-007  0.1784968E+04  0.7818608E-02  0.8714334E-01
         -1   -1    0    0    0  501 -0.00000000000E+00  0.00000000000E+00  0.44039304268E+03  0.44039304268E+03  0.00000000000E+00 0.  1.
          2   -1    0    0  501    0  0.00000000000E+00 -0.00000000000E+00 -0.18086748873E+04  0.18086748873E+04  0.00000000000E+00 0. -1.
         24    2    1    2    0    0 -0.45165786510E+03 -0.46866414469E+03 -0.35100271835E+03  0.74401228173E+03  0.81917394124E+02 0.  0.
        254    2    1    2    0    0  0.45165786510E+03  0.46866414469E+03 -0.10172791263E+04  0.15050556483E+04  0.89816188738E+03 0.  0.
         23    2    4    4    0    0  0.10876177398E+03 -0.16335512383E+03 -0.66388906283E+03  0.69884534092E+03  0.95509700102E+02 0.  0.
         23    2    4    4    0    0  0.34289609112E+03  0.63201926852E+03 -0.35339006346E+03  0.80621030734E+03  0.89802213931E+02 0.  0.
          2    1    3    3  502    0 -0.24809087380E+02 -0.54490592354E+01 -0.72092271178E+01  0.26403712217E+02  0.00000000000E+00 0. -1.
         -1    1    3    3    0  502 -0.42684877772E+03 -0.46321508546E+03 -0.34379349123E+03  0.71760856952E+03  0.00000000000E+00 0.  1.
         13    1    5    5    0    0  0.26219628844E+01 -0.19659029701E+02 -0.21199920055E+03  0.21292490031E+03  0.00000000000E+00 0. -1.
        -13    1    5    5    0    0  0.10613981109E+03 -0.14369609413E+03 -0.45188986228E+03  0.48592044060E+03  0.00000000000E+00 0.  1.
          3    1    6    6  503    0  0.32476701124E+03  0.55323127070E+03 -0.29277375651E+03  0.70516304708E+03  0.00000000000E+00 0. -1.
         -3    1    6    6    0  503  0.18129079883E+02  0.78787997820E+02 -0.60616306953E+02  0.10104726026E+03  0.00000000000E+00 0.  1.
<mgrwt>
<rscale>  0 0.17849682E+04</rscale>
<asrwt>0</asrwt>
<pdfrwt beam="1">  1        2 0.27825767E+00 0.17849682E+04</pdfrwt>
<pdfrwt beam="2">  1       -1 0.67752777E-01 0.17849682E+04</pdfrwt>
<totfact> 0.20264585E+01</totfact>
</mgrwt>
</event>
<event>
12    7  0.1701638E-007  0.1765679E+04  0.7818608E-02  0.8724767E-01
         -1   -1    0    0    0  501 -0.00000000000E+00  0.00000000000E+00  0.12310655961E+04  0.12310655961E+04  0.00000000000E+00 0.  1.
          2   -1    0    0  501    0  0.00000000000E+00 -0.00000000000E+00 -0.63311467850E+03  0.63311467850E+03  0.00000000000E+00 0. -1.
         24    2    1    2    0    0 -0.36783621825E+03 -0.52342668331E+03  0.34114160852E+03  0.72933792317E+03  0.79228989961E+02 0.  0.
        254    2    1    2    0    0  0.36783621825E+03  0.52342668331E+03  0.25680930911E+03  0.11348423515E+04  0.90146390119E+03 0.  0.
         23    2    4    4    0    0  0.40995356377E+03  0.32334660273E+02  0.43219648196E+03  0.60352009178E+03  0.91297576453E+02 0.  0.
         23    2    4    4    0    0 -0.42117345520E+02  0.49109202304E+03 -0.17538717286E+03  0.53132225967E+03  0.92722366958E+02 0.  0.
          4    1    3    3  502    0 -0.84963588372E+02 -0.16529776643E+03  0.12786559699E+03  0.22559205178E+03  0.00000000000E+00 0. -1.
         -3    1    3    3    0  502 -0.28287262988E+03 -0.35812891689E+03  0.21327601153E+03  0.50374587138E+03  0.00000000000E+00 0.  1.
         13    1    5    5    0    0  0.54142758099E+01  0.34122216123E+01  0.35933717218E+02  0.36499173579E+02  0.00000000000E+00 0.  1.
        -13    1    5    5    0    0  0.40453928796E+03  0.28922438661E+02  0.39626276474E+03  0.56702091821E+03  0.00000000000E+00 0. -1.
          2    1    6    6  503    0 -0.19616124473E+02  0.47086156742E+03 -0.16393319860E+03  0.49896843750E+03  0.00000000000E+00 0. -1.
         -2    1    6    6    0  503 -0.22501221047E+02  0.20230455615E+02 -0.11453974252E+02  0.32353822172E+02  0.00000000000E+00 0.  1.
<mgrwt>
<rscale>  0 0.17656791E+04</rscale>
<asrwt>0</asrwt>
<pdfrwt beam="1">  1        2 0.97402258E-01 0.17656791E+04</pdfrwt>
<pdfrwt beam="2">  1       -1 0.18939471E+00 0.17656791E+04</pdfrwt>
<totfact> 0.89599786E+00</totfact>
</mgrwt>
</event>
<event>
12    7  0.1701638E-007  0.2089785E+04  0.7818608E-02  0.8565757E-01
          2   -1    0    0  501    0  0.00000000000E+00  0.00000000000E+00  0.43026062865E+04  0.43026062865E+04  0.00000000000E+00 0. -1.
         -3   -1    0    0    0  501 -0.00000000000E+00 -0.00000000000E+00 -0.25375315318E+03  0.25375315318E+03  0.00000000000E+00 0.  1.
         24    2    1    2    0    0 -0.42968659165E+03 -0.43120383583E+03  0.29466299838E+04  0.30099086095E+04  0.79713616848E+02 0.  0.
        254    2    1    2    0    0  0.42968659165E+03  0.43120383583E+03  0.11022231495E+04  0.15464508302E+04  0.89780119399E+03 0.  0.
         23    2    4    4    0    0  0.59697959530E+03 -0.97026101542E+01  0.58101499226E+03  0.83798936332E+03  0.90382376393E+02 0.  0.
         23    2    4    4    0    0 -0.16729300365E+03  0.44090644598E+03  0.52120815726E+03  0.70846146691E+03  0.88737048239E+02 0.  0.
          4    1    3    3  502    0 -0.33300977419E+03 -0.37733722537E+03  0.24168017201E+04  0.24686452653E+04  0.00000000000E+00 0. -1.
         -3    1    3    3    0  502 -0.96676817457E+02 -0.53866610458E+02  0.52982826367E+03  0.54126334416E+03  0.00000000000E+00 0.  1.
         13    1    5    5    0    0  0.11112964340E+03 -0.37045101233E+02  0.11883228201E+03  0.16686296298E+03  0.00000000000E+00 0.  1.
        -13    1    5    5    0    0  0.48584995190E+03  0.27342491078E+02  0.46218271025E+03  0.67112640034E+03  0.00000000000E+00 0. -1.
          4    1    6    6  503    0 -0.59528277719E+02  0.27940591049E+03  0.31373086787E+03  0.42430924586E+03  0.00000000000E+00 0. -1.
         -4    1    6    6    0  503 -0.10776472593E+03  0.16150053549E+03  0.20747728939E+03  0.28415222105E+03  0.00000000000E+00 0.  1.
<mgrwt>
<rscale>  0 0.20897846E+04</rscale>
<asrwt>0</asrwt>
<pdfrwt beam="1">  1        2 0.66193938E+00 0.20897846E+04</pdfrwt>
<pdfrwt beam="2">  1       -3 0.39038950E-01 0.20897846E+04</pdfrwt>
<totfact> 0.74636897E-01</totfact>
</mgrwt>
</event>
<event>
12    7  0.1701638E-007  0.1393116E+04  0.7818608E-02  0.8958816E-01
         -1   -1    0    0    0  501 -0.00000000000E+00  0.00000000000E+00  0.10249668508E+04  0.10249668508E+04  0.00000000000E+00 0.  1.
          2   -1    0    0  501    0  0.00000000000E+00 -0.00000000000E+00 -0.47337465659E+03  0.47337465659E+03  0.00000000000E+00 0. -1.
         24    2    1    2    0    0  0.34975587364E+03  0.87151983975E+01 -0.89277813111E+02  0.36980555192E+03  0.79877985004E+02 0.  0.
        254    2    1    2    0    0 -0.34975587364E+03 -0.87151983975E+01  0.64087000735E+03  0.11285359555E+04  0.86050793762E+03 0.  0.
         23    2    4    4    0    0  0.14395223484E+03 -0.63884555739E+02  0.59411804762E+03  0.62143616649E+03  0.91668817739E+02 0.  0.
         23    2    4    4    0    0 -0.49370810848E+03  0.55169357341E+02  0.46751959731E+02  0.50709978900E+03  0.90405176279E+02 0.  0.
          2    1    3    3  502    0  0.13068973332E+03  0.67536567269E+01 -0.73669593380E+02  0.15017532175E+03  0.00000000000E+00 0. -1.
         -1    1    3    3    0  502  0.21906614032E+03  0.19615416706E+01 -0.15608219731E+02  0.21963023017E+03  0.00000000000E+00 0.  1.
         13    1    5    5    0    0  0.13106537509E+03 -0.16733494591E+02  0.39996731595E+03  0.42122677528E+03  0.00000000000E+00 0.  1.
        -13    1    5    5    0    0  0.12886859750E+02 -0.47151061148E+02  0.19415073167E+03  0.20020939121E+03  0.00000000000E+00 0. -1.
          4    1    6    6  503    0 -0.19577774302E+02  0.10696595326E+02 -0.15026174499E+02  0.26897812518E+02  0.00000000000E+00 0. -1.
         -4    1    6    6    0  503 -0.47413033418E+03  0.44472762015E+02  0.61778134230E+02  0.48020197648E+03  0.00000000000E+00 0.  1.
<mgrwt>
<rscale>  0 0.13931164E+04</rscale>
<asrwt>0</asrwt>
<pdfrwt beam="1">  1        2 0.72826871E-01 0.13931164E+04</pdfrwt>
<pdfrwt beam="2">  1       -1 0.15768721E+00 0.13931164E+04</pdfrwt>
<totfact> 0.22237981E+01</totfact>
</mgrwt>
</event>
<event>
12    7  0.1701638E-007  0.1226286E+04  0.7818608E-02  0.9090155E-01
         -1   -1    0    0    0  501 -0.00000000000E+00  0.00000000000E+00  0.21803084268E+03  0.21803084268E+03  0.00000000000E+00 0.  1.
          2   -1    0    0  501    0  0.00000000000E+00 -0.00000000000E+00 -0.17242708148E+04  0.17242708148E+04  0.00000000000E+00 0. -1.
         24    2    1    2    0    0  0.15295165240E+03  0.20012786809E+03 -0.58438691300E+03  0.64162059318E+03  0.81997255736E+02 0.  0.
        254    2    1    2    0    0 -0.15295165240E+03 -0.20012786809E+03 -0.92185305913E+03  0.13006810643E+04  0.88233372193E+03 0.  0.
         23    2    4    4    0    0 -0.35988208169E+03  0.20371914920E+03 -0.27390476331E+03  0.50417491604E+03  0.90287995458E+02 0.  0.
         23    2    4    4    0    0  0.20693042929E+03 -0.40384701729E+03 -0.64794829582E+03  0.79650614827E+03  0.93125905259E+02 0.  0.
          4    1    3    3  502    0  0.15680329641E+03  0.18235150533E+03 -0.56920992756E+03  0.61793145808E+03  0.00000000000E+00 0. -1.
         -3    1    3    3    0  502 -0.38516440039E+01  0.17776362761E+02 -0.15176985448E+02  0.23689135101E+02  0.00000000000E+00 0.  1.
         13    1    5    5    0    0 -0.17357842459E+03  0.73318264953E+02 -0.17144880299E+03  0.25475425317E+03  0.00000000000E+00 0.  1.
        -13    1    5    5    0    0 -0.18630365710E+03  0.13040088425E+03 -0.10245596031E+03  0.24942066287E+03  0.00000000000E+00 0. -1.
          2    1    6    6  503    0  0.21014329425E+03 -0.39063079496E+03 -0.64464663869E+03  0.78251000688E+03  0.00000000000E+00 0. -1.
         -2    1    6    6    0  503 -0.32128649610E+01 -0.13216222333E+02 -0.33016571299E+01  0.13996141390E+02  0.00000000000E+00 0.  1.
<mgrwt>
<rscale>  0 0.12262858E+04</rscale>
<asrwt>0</asrwt>
<pdfrwt beam="1">  1        2 0.26527243E+00 0.12262858E+04</pdfrwt>
<pdfrwt beam="2">  1       -1 0.33543207E-01 0.12262858E+04</pdfrwt>
<totfact> 0.89327481E+01</totfact>
</mgrwt>
</event>
<event>
12    7  0.1701638E-007  0.1256273E+04  0.7818608E-02  0.9064978E-01
          2   -1    0    0  501    0  0.00000000000E+00  0.00000000000E+00  0.24562294336E+04  0.24562294336E+04  0.00000000000E+00 0. -1.
         -1   -1    0    0    0  501 -0.00000000000E+00 -0.00000000000E+00 -0.16063470722E+03  0.16063470722E+03  0.00000000000E+00 0.  1.
         24    2    1    2    0    0  0.63354262934E+02  0.19638627149E+03  0.12763132289E+04  0.12955467280E+04  0.82973103220E+02 0.  0.
        254    2    1    2    0    0 -0.63354262934E+02 -0.19638627149E+03  0.10192814975E+04  0.13213174128E+04  0.81508502875E+03 0.  0.
         23    2    4    4    0    0  0.26709266142E+03  0.10064337368E+03  0.13874472025E+03  0.33072339716E+03  0.93060676897E+02 0.  0.
         23    2    4    4    0    0 -0.33044692435E+03 -0.29702964518E+03  0.88053677724E+03  0.99059401568E+03  0.92248078125E+02 0.  0.
          2    1    3    3  502    0  0.35597722858E+02  0.19031926683E+03  0.11366413648E+04  0.11530144029E+04  0.00000000000E+00 0. -1.
         -1    1    3    3    0  502  0.27756540075E+02  0.60670046635E+01  0.13967186414E+03  0.14253232509E+03  0.00000000000E+00 0.  1.
         13    1    5    5    0    0  0.21285969683E+03  0.70686376574E+02  0.14707304228E+03  0.26820942215E+03  0.00000000000E+00 0.  1.
        -13    1    5    5    0    0  0.54232964587E+02  0.29956997107E+02 -0.83283220253E+01  0.62513975008E+02  0.00000000000E+00 0. -1.
          2    1    6    6  503    0 -0.33049995590E+03 -0.30061174533E+03  0.88007738149E+03  0.98698218813E+03  0.00000000000E+00 0.  1.
         -2    1    6    6    0  503  0.53031546367E-01  0.35821001513E+01  0.45939574851E+00  0.36118275558E+01  0.00000000000E+00 0. -1.
<mgrwt>
<rscale>  0 0.12562734E+04</rscale>
<asrwt>0</asrwt>
<pdfrwt beam="1">  1        2 0.37788142E+00 0.12562734E+04</pdfrwt>
<pdfrwt beam="2">  1       -1 0.24713034E-01 0.12562734E+04</pdfrwt>
<totfact> 0.59325776E+01</totfact>
</mgrwt>
</event>
<event>
12    7  0.1701638E-007  0.1077000E+04  0.7818608E-02  0.9227904E-01
         -1   -1    0    0    0  501 -0.00000000000E+00  0.00000000000E+00  0.67878850387E+03  0.67878850387E+03  0.00000000000E+00 0.  1.
          2   -1    0    0  501    0  0.00000000000E+00 -0.00000000000E+00 -0.42720542263E+03  0.42720542263E+03  0.00000000000E+00 0. -1.
         24    2    1    2    0    0 -0.54522648445E+02  0.28984313239E+02 -0.84975132536E+02  0.13172596495E+03  0.79486773012E+02 0.  0.
        254    2    1    2    0    0  0.54522648445E+02 -0.28984313239E+02  0.33655821377E+03  0.97426796156E+03  0.91220272969E+03 0.  0.
         23    2    4    4    0    0 -0.28354688120E+03 -0.22106791341E+03  0.42604386615E+03  0.56464164307E+03  0.89649054816E+02 0.  0.
         23    2    4    4    0    0  0.33806952965E+03  0.19208360017E+03 -0.89485652378E+02  0.40962631849E+03  0.92730375207E+02 0.  0.
          4    1    3    3  502    0 -0.27203288352E+02  0.24835063192E+02 -0.95344018918E+02  0.10221194257E+03  0.00000000000E+00 0. -1.
         -3    1    3    3    0  502 -0.27319360093E+02  0.41492500474E+01  0.10368886382E+02  0.29514022374E+02  0.00000000000E+00 0.  1.
         13    1    5    5    0    0 -0.28519413569E+03 -0.20206427843E+03  0.41508500778E+03  0.54264282114E+03  0.00000000000E+00 0. -1.
        -13    1    5    5    0    0  0.16472544886E+01 -0.19003634976E+02  0.10958858370E+02  0.21998821933E+02  0.00000000000E+00 0.  1.
          4    1    6    6  503    0  0.30508719293E+03  0.14278373479E+03 -0.55871386530E+02  0.34144838855E+03  0.00000000000E+00 0. -1.
         -4    1    6    6    0  503  0.32982336713E+02  0.49299865381E+02 -0.33614265848E+02  0.68177929934E+02  0.00000000000E+00 0.  1.
<mgrwt>
<rscale>  0 0.10769998E+04</rscale>
<asrwt>0</asrwt>
<pdfrwt beam="1">  1        2 0.65723911E-01 0.10769998E+04</pdfrwt>
<pdfrwt beam="2">  1       -1 0.10442900E+00 0.10769998E+04</pdfrwt>
<totfact> 0.72437590E+01</totfact>
</mgrwt>
</event>
<event>
12    7  0.1701638E-007  0.1188473E+04  0.7818608E-02  0.9123006E-01
          2   -1    0    0  501    0  0.00000000000E+00  0.00000000000E+00  0.16411215385E+04  0.16411215385E+04  0.00000000000E+00 0. -1.
         -1   -1    0    0    0  501 -0.00000000000E+00 -0.00000000000E+00 -0.21516814159E+03  0.21516814159E+03  0.00000000000E+00 0.  1.
         24    2    1    2    0    0 -0.58495174324E+01 -0.22189863696E+03  0.17692760751E+03  0.29464160683E+03  0.78975162162E+02 0.  0.
        254    2    1    2    0    0  0.58495174324E+01  0.22189863696E+03  0.12490257894E+04  0.15616480733E+04  0.91071733277E+03 0.  0.
         23    2    4    4    0    0  0.25163036297E+03 -0.21065413642E+02  0.32746214468E+01  0.26562191238E+03  0.82357063858E+02 0.  0.
         23    2    4    4    0    0 -0.24578084554E+03  0.24296405060E+03  0.12457511680E+04  0.12960261609E+04  0.91367846233E+02 0.  0.
          2    1    3    3  502    0  0.21759200025E+02 -0.19030729469E+03  0.15930547180E+03  0.24913563082E+03  0.00000000000E+00 0. -1.
         -1    1    3    3    0  502 -0.27608717457E+02 -0.31591342270E+02  0.17622135713E+02  0.45505976015E+02  0.00000000000E+00 0.  1.
         13    1    5    5    0    0 -0.65373897913E+01 -0.78159531905E-01  0.83544999730E+00  0.65910204744E+01  0.00000000000E+00 0. -1.
        -13    1    5    5    0    0  0.25816775276E+03 -0.20987254111E+02  0.24391714495E+01  0.25903089190E+03  0.00000000000E+00 0.  1.
          2    1    6    6  503    0 -0.24735650100E+02  0.24392960669E+02  0.26292587823E+03  0.26521102232E+03  0.00000000000E+00 0. -1.
         -2    1    6    6    0  503 -0.22104519544E+03  0.21857108993E+03  0.98282528974E+03  0.10308151386E+04  0.00000000000E+00 0.  1.
<mgrwt>
<rscale>  0 0.11884731E+04</rscale>
<asrwt>0</asrwt>
<pdfrwt beam="1">  1        2 0.25248023E+00 0.11884731E+04</pdfrwt>
<pdfrwt beam="2">  1       -1 0.33102792E-01 0.11884731E+04</pdfrwt>
<totfact> 0.10198498E+02</totfact>
</mgrwt>
</event>
<event>
12    7  0.1701638E-007  0.1683740E+04  0.7818608E-02  0.8770693E-01
          2   -1    0    0  501    0  0.00000000000E+00  0.00000000000E+00  0.34702758306E+04  0.34702758306E+04  0.00000000000E+00 0. -1.
         -1   -1    0    0    0  501 -0.00000000000E+00 -0.00000000000E+00 -0.20423302543E+03  0.20423302543E+03  0.00000000000E+00 0.  1.
         24    2    1    2    0    0  0.55094632033E+03 -0.52128195678E+02  0.16642539681E+04  0.17556743930E+04  0.79950654430E+02 0.  0.
        254    2    1    2    0    0 -0.55094632033E+03  0.52128195678E+02  0.16017888371E+04  0.19188344631E+04  0.89996612236E+03 0.  0.
         23    2    4    4    0    0 -0.64881076171E+03 -0.22850770484E+03  0.13589724912E+04  0.15258334609E+04  0.90500513827E+02 0.  0.
         23    2    4    4    0    0  0.97864441387E+02  0.28063590052E+03  0.24281634590E+03  0.39300100215E+03  0.84593453076E+02 0.  0.
          4    1    3    3  502    0  0.52518245043E+03 -0.34304740589E+02  0.15366242077E+04  0.16242559457E+04  0.00000000000E+00 0. -1.
         -3    1    3    3    0  502  0.25763869893E+02 -0.17823455090E+02  0.12762976034E+03  0.13141844721E+03  0.00000000000E+00 0.  1.
         13    1    5    5    0    0 -0.20536352443E+03 -0.29483350969E+02  0.42628295056E+03  0.47408923115E+03  0.00000000000E+00 0. -1.
        -13    1    5    5    0    0 -0.44344723729E+03 -0.19902435387E+03  0.93268954062E+03  0.10517442298E+04  0.00000000000E+00 0.  1.
          3    1    6    6  503    0  0.91154763777E+01  0.91398729549E+02  0.35111163194E+02  0.98334192698E+02  0.00000000000E+00 0. -1.
         -3    1    6    6    0  503  0.88748965010E+02  0.18923717097E+03  0.20770518271E+03  0.29466680945E+03  0.00000000000E+00 0.  1.
<mgrwt>
<rscale>  0 0.16837398E+04</rscale>
<asrwt>0</asrwt>
<pdfrwt beam="1">  1        2 0.53388855E+00 0.16837398E+04</pdfrwt>
<pdfrwt beam="2">  1       -1 0.31420468E-01 0.16837398E+04</pdfrwt>
<totfact> 0.87860471E+00</totfact>
</mgrwt>
</event>
<event>
12    7  0.1701638E-007  0.1492023E+04  0.7818608E-02  0.8889775E-01
         -1   -1    0    0    0  501 -0.00000000000E+00  0.00000000000E+00  0.55245905456E+03  0.55245905456E+03  0.00000000000E+00 0.  1.
          2   -1    0    0  501    0  0.00000000000E+00 -0.00000000000E+00 -0.10073747861E+04  0.10073747861E+04  0.00000000000E+00 0. -1.
         24    2    1    2    0    0  0.51886153316E+02  0.10880694907E+03  0.32602517076E+03  0.35704729946E+03  0.81604148222E+02 0.  0.
        254    2    1    2    0    0 -0.51886153316E+02 -0.10880694907E+03 -0.78094090236E+03  0.12027865412E+04  0.90680518623E+03 0.  0.
         23    2    4    4    0    0 -0.25186092250E+03 -0.43091851253E+03 -0.55718589843E+03  0.75318193049E+03  0.87762214514E+02 0.  0.
         23    2    4    4    0    0  0.19997476918E+03  0.32211156346E+03 -0.22375500393E+03  0.44960461076E+03  0.91281085686E+02 0.  0.
          4    1    3    3  502    0  0.53536273417E+02  0.41415735591E+02  0.22978381209E+03  0.23954539450E+03  0.00000000000E+00 0. -1.
         -3    1    3    3    0  502 -0.16501201007E+01  0.67391213476E+02  0.96241358676E+02  0.11750190496E+03  0.00000000000E+00 0.  1.
         13    1    5    5    0    0 -0.12820984137E+03 -0.18687027193E+03 -0.19292110649E+03  0.29761857348E+03  0.00000000000E+00 0. -1.
        -13    1    5    5    0    0 -0.12365108113E+03 -0.24404824060E+03 -0.36426479194E+03  0.45556335701E+03  0.00000000000E+00 0.  1.
          3    1    6    6  503    0  0.45514990839E+02  0.10921489279E+03 -0.11494511623E+03  0.16496025868E+03  0.00000000000E+00 0. -1.
         -3    1    6    6    0  503  0.15445977834E+03  0.21289667067E+03 -0.10880988770E+03  0.28464435208E+03  0.00000000000E+00 0.  1.
<mgrwt>
<rscale>  0 0.14920232E+04</rscale>
<asrwt>0</asrwt>
<pdfrwt beam="1">  1        2 0.15498073E+00 0.14920232E+04</pdfrwt>
<pdfrwt beam="2">  1       -1 0.84993702E-01 0.14920232E+04</pdfrwt>
<totfact> 0.37638796E+01</totfact>
</mgrwt>
</event>
<event>
12    7  0.1701638E-007  0.2131844E+04  0.7818608E-02  0.8547344E-01
          2   -1    0    0  501    0  0.00000000000E+00  0.00000000000E+00  0.20350363896E+04  0.20350363896E+04  0.00000000000E+00 0. -1.
         -1   -1    0    0    0  501 -0.00000000000E+00 -0.00000000000E+00 -0.55831430873E+03  0.55831430873E+03  0.00000000000E+00 0.  1.
         24    2    1    2    0    0 -0.31135257222E+03  0.87714521036E+02 -0.37760862613E+03  0.50451809566E+03  0.85533460678E+02 0.  0.
        254    2    1    2    0    0  0.31135257222E+03 -0.87714521036E+02  0.18543307070E+04  0.20888326027E+04  0.90556336588E+03 0.  0.
         23    2    4    4    0    0 -0.21436172545E+03 -0.12540203553E+03  0.12685887453E+04  0.12957961391E+04  0.89964490955E+02 0.  0.
         23    2    4    4    0    0  0.52571429767E+03  0.37687514495E+02  0.58574196176E+03  0.79303646360E+03  0.89539462270E+02 0.  0.
          2    1    3    3  502    0 -0.14436913018E+03  0.75821567557E+02 -0.22582296393E+03  0.27854508952E+03  0.00000000000E+00 0. -1.
         -1    1    3    3    0  502 -0.16698344203E+03  0.11892953479E+02 -0.15178566220E+03  0.22597300614E+03  0.00000000000E+00 0.  1.
         13    1    5    5    0    0 -0.15705255734E+01 -0.17422218886E+02  0.20612587547E+03  0.20686680933E+03  0.00000000000E+00 0. -1.
        -13    1    5    5    0    0 -0.21279119988E+03 -0.10797981665E+03  0.10624628698E+04  0.10889293298E+04  0.00000000000E+00 0.  1.
          1    1    6    6  503    0  0.33384323054E+03 -0.19456831647E+02  0.36811734747E+03  0.49733314024E+03  0.00000000000E+00 0. -1.
         -1    1    6    6    0  503  0.19187106713E+03  0.57144346142E+02  0.21762461429E+03  0.29570332336E+03  0.00000000000E+00 0.  1.
<mgrwt>
<rscale>  0 0.21318442E+04</rscale>
<asrwt>0</asrwt>
<pdfrwt beam="1">  1        2 0.31308252E+00 0.21318442E+04</pdfrwt>
<pdfrwt beam="2">  1       -1 0.85894510E-01 0.21318442E+04</pdfrwt>
<totfact> 0.89434968E+00</totfact>
</mgrwt>
</event>
<event>
12    7  0.1701638E-007  0.1453301E+04  0.7818608E-02  0.8916115E-01
         -1   -1    0    0    0  501 -0.00000000000E+00  0.00000000000E+00  0.60454555160E+03  0.60454555160E+03  0.00000000000E+00 0.  1.
          2   -1    0    0  501    0  0.00000000000E+00 -0.00000000000E+00 -0.87341796847E+03  0.87341796847E+03  0.00000000000E+00 0. -1.
         24    2    1    2    0    0  0.10553185357E+03 -0.36070117886E+03  0.16283251198E+03  0.41721468025E+03  0.79444004903E+02 0.  0.
        254    2    1    2    0    0 -0.10553185357E+03  0.36070117886E+03 -0.43170492885E+03  0.10607488398E+04  0.89307146581E+03 0.  0.
         23    2    4    4    0    0 -0.18694658829E+03  0.19270054857E+02 -0.61808302493E+03  0.65307134406E+03  0.95682771938E+02 0.  0.
         23    2    4    4    0    0  0.81414734717E+02  0.34143112400E+03  0.18637809608E+03  0.40767749576E+03  0.90887702035E+02 0.  0.
          2    1    3    3  502    0 -0.10257237841E+02 -0.90559989415E+01  0.85560896735E+01  0.16137803923E+02  0.00000000000E+00 0. -1.
         -1    1    3    3    0  502  0.11578909141E+03 -0.35164517992E+03  0.15427642231E+03  0.40107687633E+03  0.00000000000E+00 0.  1.
         13    1    5    5    0    0 -0.68549933408E+02 -0.20556142754E+02 -0.35098144234E+03  0.35820332388E+03  0.00000000000E+00 0. -1.
        -13    1    5    5    0    0 -0.11839665488E+03  0.39826197611E+02 -0.26710158259E+03  0.29486802018E+03  0.00000000000E+00 0.  1.
          2    1    6    6  503    0 -0.14857145589E+02  0.12780981917E+02  0.15299116345E+02  0.24862647380E+02  0.00000000000E+00 0. -1.
         -2    1    6    6    0  503  0.96271880306E+02  0.32865014208E+03  0.17107897974E+03  0.38281484838E+03  0.00000000000E+00 0.  1.
<mgrwt>
<rscale>  0 0.14533010E+04</rscale>
<asrwt>0</asrwt>
<pdfrwt beam="1">  1        2 0.13437200E+00 0.14533010E+04</pdfrwt>
<pdfrwt beam="2">  1       -1 0.93007008E-01 0.14533010E+04</pdfrwt>
<totfact> 0.38004398E+01</totfact>
</mgrwt>
</event>
<event>
12    7  0.1701638E-007  0.2346926E+04  0.7818608E-02  0.8459645E-01
          2   -1    0    0  501    0  0.00000000000E+00  0.00000000000E+00  0.22679828195E+04  0.22679828195E+04  0.00000000000E+00 0. -1.
         -1   -1    0    0    0  501 -0.00000000000E+00 -0.00000000000E+00 -0.60715415319E+03  0.60715415319E+03  0.00000000000E+00 0.  1.
         24    2    1    2    0    0  0.46855491139E+03  0.65921693191E+03  0.14255269627E+04  0.16408849626E+04  0.79155990401E+02 0.  0.
        254    2    1    2    0    0 -0.46855491139E+03 -0.65921693191E+03  0.23530170371E+03  0.12342520102E+04  0.90216432236E+03 0.  0.
         23    2    4    4    0    0 -0.58738550436E+03 -0.14077870010E+03  0.31727758849E+03  0.68836202107E+03  0.91306247073E+02 0.  0.
         23    2    4    4    0    0  0.11883059297E+03 -0.51843823181E+03 -0.81975884781E+02  0.54588998910E+03  0.91525540071E+02 0.  0.
          4    1    3    3  502    0  0.41785226887E+03  0.62357583566E+03  0.13203762799E+04  0.15188287797E+04  0.00000000000E+00 0. -1.
         -3    1    3    3    0  502  0.50702642518E+02  0.35641096247E+02  0.10515068274E+03  0.12205618288E+03  0.00000000000E+00 0.  1.
         13    1    5    5    0    0 -0.48483266843E+03 -0.82989054952E+02  0.27323007090E+03  0.56267625795E+03  0.00000000000E+00 0.  1.
        -13    1    5    5    0    0 -0.10255283594E+03 -0.57789645148E+02  0.44047517582E+02  0.12568576312E+03  0.00000000000E+00 0. -1.
          3    1    6    6  503    0  0.48049361104E+02 -0.12122630319E+03 -0.54982265146E+02  0.14151892866E+03  0.00000000000E+00 0. -1.
         -3    1    6    6    0  503  0.70781231870E+02 -0.39721192862E+03 -0.26993619636E+02  0.40437106044E+03  0.00000000000E+00 0.  1.
<mgrwt>
<rscale>  0 0.23469258E+04</rscale>
<asrwt>0</asrwt>
<pdfrwt beam="1">  1        2 0.34892043E+00 0.23469258E+04</pdfrwt>
<pdfrwt beam="2">  1       -1 0.93408332E-01 0.23469258E+04</pdfrwt>
<totfact> 0.54014311E+00</totfact>
</mgrwt>
</event>
<event>
12    7  0.1701638E-007  0.1236560E+04  0.7818608E-02  0.9081444E-01
          2   -1    0    0  501    0  0.00000000000E+00  0.00000000000E+00  0.13830222047E+04  0.13830222047E+04  0.00000000000E+00 0. -1.
         -1   -1    0    0    0  501 -0.00000000000E+00 -0.00000000000E+00 -0.27640202070E+03  0.27640202070E+03  0.00000000000E+00 0.  1.
         24    2    1    2    0    0 -0.45825957481E+02  0.17103671017E+03 -0.29216898657E+02  0.19672091270E+03  0.80572425326E+02 0.  0.
        254    2    1    2    0    0  0.45825957481E+02 -0.17103671017E+03  0.11358370827E+04  0.14627033127E+04  0.90444542566E+03 0.  0.
         23    2    4    4    0    0  0.10719208685E+03  0.33967804651E+03  0.29164891810E+03  0.46954001636E+03  0.92398142690E+02 0.  0.
         23    2    4    4    0    0 -0.61366129367E+02 -0.51071475668E+03  0.84418816455E+03  0.99316329632E+03  0.95521261802E+02 0.  0.
          4    1    3    3  502    0 -0.92437676956E+01  0.12256306305E+03  0.11742039740E+02  0.12347075428E+03  0.00000000000E+00 0. -1.
         -3    1    3    3    0  502 -0.36582189785E+02  0.48473647125E+02 -0.40958938397E+02  0.73250158428E+02  0.00000000000E+00 0.  1.
         13    1    5    5    0    0  0.10845753087E+01  0.11990874714E+03  0.64584762960E+02  0.13620013051E+03  0.00000000000E+00 0. -1.
        -13    1    5    5    0    0  0.10610751154E+03  0.21976929937E+03  0.22706415514E+03  0.33333988585E+03  0.00000000000E+00 0.  1.
          4    1    6    6  503    0 -0.78870816774E+02 -0.28890420791E+03  0.45073067652E+03  0.54115098618E+03  0.00000000000E+00 0.  1.
         -4    1    6    6    0  503  0.17504687407E+02 -0.22181054877E+03  0.39345748804E+03  0.45201231014E+03  0.00000000000E+00 0. -1.
<mgrwt>
<rscale>  0 0.12365600E+04</rscale>
<asrwt>0</asrwt>
<pdfrwt beam="1">  1        2 0.21277264E+00 0.12365600E+04</pdfrwt>
<pdfrwt beam="2">  1       -1 0.42523389E-01 0.12365600E+04</pdfrwt>
<totfact> 0.90299922E+01</totfact>
</mgrwt>
</event>
<event>
12    7  0.1701638E-007  0.1963583E+04  0.7818608E-02  0.8623839E-01
          2   -1    0    0  501    0  0.00000000000E+00  0.00000000000E+00  0.25728085834E+04  0.25728085834E+04  0.00000000000E+00 0. -1.
         -1   -1    0    0    0  501 -0.00000000000E+00 -0.00000000000E+00 -0.37465452309E+03  0.37465452309E+03  0.00000000000E+00 0.  1.
         24    2    1    2    0    0  0.57902076532E+03 -0.50289100058E+01  0.10089097736E+03  0.59336663276E+03  0.81330406111E+02 0.  0.
        254    2    1    2    0    0 -0.57902076532E+03  0.50289100058E+01  0.20972630829E+04  0.23540964737E+04  0.89887008618E+03 0.  0.
         23    2    4    4    0    0 -0.44796403731E+03  0.25422468654E+03  0.19574652853E+04  0.20260925421E+04  0.89881454141E+02 0.  0.
         23    2    4    4    0    0 -0.13105672801E+03 -0.24919577653E+03  0.13979779757E+03  0.32800393160E+03  0.93641625033E+02 0.  0.
          4    1    3    3  502    0  0.38001554895E+02 -0.93448569888E+01 -0.11482364924E+02  0.40783443097E+02  0.00000000000E+00 0. -1.
         -3    1    3    3    0  502  0.54101921042E+03  0.43159469830E+01  0.11237334229E+03  0.55258318967E+03  0.00000000000E+00 0.  1.
         13    1    5    5    0    0 -0.32632143335E+03  0.20353721748E+03  0.15853102716E+04  0.16312944964E+04  0.00000000000E+00 0.  1.
        -13    1    5    5    0    0 -0.12164260396E+03  0.50687469060E+02  0.37215501375E+03  0.39479804569E+03  0.00000000000E+00 0. -1.
          1    1    6    6  503    0 -0.35678988630E+02 -0.56152796686E+02  0.80963069266E+02  0.10479096044E+03  0.00000000000E+00 0. -1.
         -1    1    6    6    0  503 -0.95377739381E+02 -0.19304297985E+03  0.58834728308E+02  0.22321297116E+03  0.00000000000E+00 0.  1.
<mgrwt>
<rscale>  0 0.19635828E+04</rscale>
<asrwt>0</asrwt>
<pdfrwt beam="1">  1        2 0.39581669E+00 0.19635828E+04</pdfrwt>
<pdfrwt beam="2">  1       -1 0.57639159E-01 0.19635828E+04</pdfrwt>
<totfact> 0.10218353E+01</totfact>
</mgrwt>
</event>
<event>
12    7  0.1701638E-007  0.1956021E+04  0.7818608E-02  0.8627463E-01
          2   -1    0    0  501    0  0.00000000000E+00  0.00000000000E+00  0.36674138855E+03  0.36674138855E+03  0.00000000000E+00 0. -1.
         -1   -1    0    0    0  501 -0.00000000000E+00 -0.00000000000E+00 -0.26081176549E+04  0.26081176549E+04  0.00000000000E+00 0.  1.
         24    2    1    2    0    0  0.51758111426E+03  0.25332222268E+03 -0.16695396285E+04  0.17680230995E+04  0.80503110142E+02 0.  0.
        254    2    1    2    0    0 -0.51758111426E+03 -0.25332222268E+03 -0.57183663786E+03  0.12068359440E+04  0.89296892275E+03 0.  0.
         23    2    4    4    0    0 -0.10275006689E+03  0.31707468639E+03 -0.12849782883E+03  0.36870923850E+03  0.91328404918E+02 0.  0.
         23    2    4    4    0    0 -0.41483104737E+03 -0.57039690907E+03 -0.44333880904E+03  0.83812670551E+03  0.92030664142E+02 0.  0.
          4    1    3    3  502    0  0.90657522453E+02  0.40937242009E+02 -0.39114085533E+03  0.40359114567E+03  0.00000000000E+00 0. -1.
         -1    1    3    3    0  502  0.42692359181E+03  0.21238498067E+03 -0.12783987732E+04  0.13644319538E+04  0.00000000000E+00 0.  1.
         13    1    5    5    0    0 -0.68789425833E+02  0.24457181582E+03 -0.54828684836E+02  0.25991064403E+03  0.00000000000E+00 0.  1.
        -13    1    5    5    0    0 -0.33960641061E+02  0.72502870576E+02 -0.73669143989E+02  0.10879859447E+03  0.00000000000E+00 0. -1.
          1    1    6    6  503    0 -0.27719433240E+02 -0.90771400400E+02 -0.60215985884E+02  0.11240008481E+03  0.00000000000E+00 0. -1.
         -1    1    6    6    0  503 -0.38711161413E+03 -0.47962550867E+03 -0.38312282315E+03  0.72572662069E+03  0.00000000000E+00 0.  1.
<mgrwt>
<rscale>  0 0.19560212E+04</rscale>
<asrwt>0</asrwt>
<pdfrwt beam="1">  1        2 0.56421753E-01 0.19560212E+04</pdfrwt>
<pdfrwt beam="2">  1       -1 0.40124887E+00 0.19560212E+04</pdfrwt>
<totfact> 0.65697822E-01</totfact>
</mgrwt>
</event>
<event>
12    7  0.1701638E-007  0.1347103E+04  0.7818608E-02  0.8993024E-01
          2   -1    0    0  501    0  0.00000000000E+00  0.00000000000E+00  0.22724758497E+04  0.22724758497E+04  0.00000000000E+00 0. -1.
         -1   -1    0    0    0  501 -0.00000000000E+00 -0.00000000000E+00 -0.19963771942E+03  0.19963771942E+03  0.00000000000E+00 0.  1.
         24    2    1    2    0    0 -0.18917626635E+03  0.28673465239E+02  0.11465677532E+04  0.11652706041E+04  0.81413394119E+02 0.  0.
        254    2    1    2    0    0  0.18917626635E+03 -0.28673465239E+02  0.92627037705E+03  0.13068429650E+04  0.90180479948E+03 0.  0.
         23    2    4    4    0    0 -0.24822587075E+03  0.21582544873E+03  0.62946194495E+03  0.71765772019E+03  0.10302211401E+03 0.  0.
         23    2    4    4    0    0  0.43740213710E+03 -0.24449891397E+03  0.29680843209E+03  0.58918524479E+03  0.89127205958E+02 0.  0.
          2    1    3    3  502    0 -0.88363846612E+02  0.33077705562E+02  0.75653173335E+03  0.76239265969E+03  0.00000000000E+00 0. -1.
         -1    1    3    3    0  502 -0.10081241974E+03 -0.44042403230E+01  0.39003601987E+03  0.40287794442E+03  0.00000000000E+00 0.  1.
         13    1    5    5    0    0 -0.15845835418E+03  0.10615040875E+03  0.45166992641E+03  0.49028836587E+03  0.00000000000E+00 0.  1.
        -13    1    5    5    0    0 -0.89767516561E+02  0.10967503998E+03  0.17779201855E+03  0.22736935432E+03  0.00000000000E+00 0. -1.
          1    1    6    6  503    0  0.14217399604E+03 -0.89178669477E+02  0.14856152133E+03  0.22413568627E+03  0.00000000000E+00 0. -1.
         -1    1    6    6    0  503  0.29522814106E+03 -0.15532024450E+03  0.14824691076E+03  0.36504955851E+03  0.00000000000E+00 0.  1.
<mgrwt>
<rscale>  0 0.13471034E+04</rscale>
<asrwt>0</asrwt>
<pdfrwt beam="1">  1        2 0.34961165E+00 0.13471034E+04</pdfrwt>
<pdfrwt beam="2">  1       -1 0.30713497E-01 0.13471034E+04</pdfrwt>
<totfact> 0.51316681E+01</totfact>
</mgrwt>
</event>
<event>
12    7  0.1701638E-007  0.1562566E+04  0.7818608E-02  0.8843881E-01
         -1   -1    0    0    0  501 -0.00000000000E+00  0.00000000000E+00  0.55143838883E+03  0.55143838883E+03  0.00000000000E+00 0.  1.
          2   -1    0    0  501    0  0.00000000000E+00 -0.00000000000E+00 -0.11069284364E+04  0.11069284364E+04  0.00000000000E+00 0. -1.
         24    2    1    2    0    0 -0.29180305473E+03 -0.10442948914E+03  0.25864844984E+03  0.41148246295E+03  0.79776285685E+02 0.  0.
        254    2    1    2    0    0  0.29180305473E+03  0.10442948914E+03 -0.81413849739E+03  0.12468843623E+04  0.89210121564E+03 0.  0.
         23    2    4    4    0    0 -0.24388590184E+03  0.24302446427E+03 -0.46933932027E+03  0.58862054470E+03  0.87484425761E+02 0.  0.
         23    2    4    4    0    0  0.53568895657E+03 -0.13859497513E+03 -0.34479917713E+03  0.65826381755E+03  0.90849081626E+02 0.  0.
          4    1    3    3  502    0 -0.14075736558E+03 -0.65538836271E+02  0.17693556738E+03  0.23540214533E+03  0.00000000000E+00 0. -1.
         -1    1    3    3    0  502 -0.15104568915E+03 -0.38890652865E+02  0.81712882468E+02  0.17608031762E+03  0.00000000000E+00 0.  1.
         13    1    5    5    0    0 -0.17724608090E+03  0.19794609815E+03 -0.29750197893E+03  0.39888125856E+03  0.00000000000E+00 0. -1.
        -13    1    5    5    0    0 -0.66639820935E+02  0.45078366117E+02 -0.17183734134E+03  0.18973928614E+03  0.00000000000E+00 0.  1.
          3    1    6    6  503    0  0.52372407991E+03 -0.12976220997E+03 -0.34926323496E+03  0.64273629920E+03  0.00000000000E+00 0. -1.
         -3    1    6    6    0  503  0.11964876660E+02 -0.88327651633E+01  0.44640578348E+01  0.15527518356E+02  0.00000000000E+00 0.  1.
<mgrwt>
<rscale>  0 0.15625656E+04</rscale>
<asrwt>0</asrwt>
<pdfrwt beam="1">  1        2 0.17029668E+00 0.15625656E+04</pdfrwt>
<pdfrwt beam="2">  1       -1 0.84836676E-01 0.15625656E+04</pdfrwt>
<totfact> 0.32536104E+01</totfact>
</mgrwt>
</event>
<event>
12    7  0.1701638E-007  0.1905631E+04  0.7818608E-02  0.8652059E-01
         -1   -1    0    0    0  501 -0.00000000000E+00  0.00000000000E+00  0.24799402989E+03  0.24799402989E+03  0.00000000000E+00 0.  1.
          2   -1    0    0  501    0  0.00000000000E+00 -0.00000000000E+00 -0.36608026934E+04  0.36608026934E+04  0.00000000000E+00 0. -1.
         24    2    1    2    0    0  0.66225245311E+01 -0.53865373416E+03 -0.23664172299E+04  0.24282794171E+04  0.80116903250E+02 0.  0.
        254    2    1    2    0    0 -0.66225245311E+01  0.53865373416E+03 -0.10463914336E+04  0.14805173062E+04  0.89822311180E+03 0.  0.
         23    2    4    4    0    0  0.26073462284E+03  0.10679088159E+03  0.16679798454E+02  0.29871171576E+03  0.97793852146E+02 0.  0.
         23    2    4    4    0    0 -0.26735714737E+03  0.43186285256E+03 -0.10630712321E+04  0.11818055905E+04  0.92512926353E+02 0.  0.
          2    1    3    3  502    0  0.16033020218E+02 -0.93554560872E+02 -0.54780003357E+03  0.55596258001E+03  0.00000000000E+00 0. -1.
         -1    1    3    3    0  502 -0.94104956865E+01 -0.44509917328E+03 -0.18186171963E+04  0.18723168370E+04  0.00000000000E+00 0.  1.
         13    1    5    5    0    0  0.33754031735E+02 -0.17858782034E+02  0.10819054333E+02  0.39690334979E+02  0.00000000000E+00 0. -1.
        -13    1    5    5    0    0  0.22698059111E+03  0.12464966363E+03  0.58607441208E+01  0.25902138078E+03  0.00000000000E+00 0.  1.
          2    1    6    6  503    0 -0.50298399919E+02  0.48026912388E+02 -0.21464310324E+03  0.22562840051E+03  0.00000000000E+00 0. -1.
         -2    1    6    6    0  503 -0.21705874745E+03  0.38383594017E+03 -0.84842812883E+03  0.95617718996E+03  0.00000000000E+00 0.  1.
<mgrwt>
<rscale>  0 0.19056308E+04</rscale>
<asrwt>0</asrwt>
<pdfrwt beam="1">  1        2 0.56320043E+00 0.19056308E+04</pdfrwt>
<pdfrwt beam="2">  1       -1 0.38152927E-01 0.19056308E+04</pdfrwt>
<totfact> 0.44504708E+00</totfact>
</mgrwt>
</event>
<event>
12    7  0.1701638E-007  0.1410190E+04  0.7818608E-02  0.8946475E-01
         -1   -1    0    0    0  501 -0.00000000000E+00  0.00000000000E+00  0.31039930461E+03  0.31039930461E+03  0.00000000000E+00 0.  1.
          2   -1    0    0  501    0  0.00000000000E+00 -0.00000000000E+00 -0.16016758011E+04  0.16016758011E+04  0.00000000000E+00 0. -1.
         24    2    1    2    0    0 -0.90632828317E+01  0.12789996968E+03 -0.92246413249E+03  0.93470146111E+03  0.79285561956E+02 0.  0.
        254    2    1    2    0    0  0.90632828317E+01 -0.12789996968E+03 -0.36881236404E+03  0.97737364463E+03  0.89598891511E+03 0.  0.
         23    2    4    4    0    0  0.31594779681E+03  0.24610486413E+03 -0.15637298312E+03  0.44119478208E+03  0.99043987345E+02 0.  0.
         23    2    4    4    0    0 -0.30688451398E+03 -0.37400483381E+03 -0.21243938092E+03  0.53617886254E+03  0.91101928829E+02 0.  0.
          4    1    3    3  502    0 -0.84965223958E+01  0.12769284846E+03 -0.92411996781E+03  0.93293910270E+03  0.00000000000E+00 0. -1.
         -3    1    3    3    0  502 -0.56676043586E+00  0.20712121616E+00  0.16558353164E+01  0.17623584156E+01  0.00000000000E+00 0.  1.
         13    1    5    5    0    0  0.26892317361E+03  0.23200049775E+03 -0.10552117396E+03  0.37051129864E+03  0.00000000000E+00 0.  1.
        -13    1    5    5    0    0  0.47024623197E+02  0.14104366385E+02 -0.50851809157E+02  0.70683483449E+02  0.00000000000E+00 0. -1.
          2    1    6    6  503    0 -0.13650195876E+03 -0.12802509588E+03 -0.41942033521E+02  0.19178723653E+03  0.00000000000E+00 0. -1.
         -2    1    6    6    0  503 -0.17038255522E+03 -0.24597973794E+03 -0.17049734740E+03  0.34439162601E+03  0.00000000000E+00 0.  1.
<mgrwt>
<rscale>  0 0.14101901E+04</rscale>
<asrwt>0</asrwt>
<pdfrwt beam="1">  1        2 0.24641166E+00 0.14101901E+04</pdfrwt>
<pdfrwt beam="2">  1       -1 0.47753739E-01 0.14101901E+04</pdfrwt>
<totfact> 0.54003251E+01</totfact>
</mgrwt>
</event>
<event>
12    7  0.1701638E-007  0.3598880E+04  0.7818608E-02  0.8090748E-01
          2   -1    0    0  501    0  0.00000000000E+00  0.00000000000E+00  0.11019540961E+04  0.11019540961E+04  0.00000000000E+00 0. -1.
         -1   -1    0    0    0  501 -0.00000000000E+00 -0.00000000000E+00 -0.29384014682E+04  0.29384014682E+04  0.00000000000E+00 0.  1.
         24    2    1    2    0    0  0.12991174255E+03  0.71716909045E+03 -0.25729077732E+04  0.26756372308E+04  0.89283908001E+02 0.  0.
        254    2    1    2    0    0 -0.12991174255E+03 -0.71716909045E+03  0.73646040115E+03  0.13647183335E+04  0.88818558999E+03 0.  0.
         23    2    4    4    0    0  0.30960734692E+02  0.16328024514E+03 -0.17719515095E+02  0.19051678541E+03  0.91453041302E+02 0.  0.
         23    2    4    4    0    0 -0.16087247725E+03 -0.88044933560E+03  0.75417991625E+03  0.11742015481E+04  0.94291797353E+02 0.  0.
          2    1    3    3  502    0  0.28325054477E+02  0.80426936182E+02 -0.40462339240E+03  0.41351044782E+03  0.00000000000E+00 0. -1.
         -1    1    3    3    0  502  0.10158668808E+03  0.63674215427E+03 -0.21682843808E+04  0.22621267830E+04  0.00000000000E+00 0.  1.
         13    1    5    5    0    0  0.49870177134E+02  0.16210854642E+03 -0.95205138158E+01  0.16987305723E+03  0.00000000000E+00 0.  1.
        -13    1    5    5    0    0 -0.18909442442E+02  0.11716987221E+01 -0.81990012796E+01  0.20643728184E+02  0.00000000000E+00 0. -1.
          3    1    6    6  503    0 -0.58476167359E+02 -0.16850153326E+03  0.18489143627E+03  0.25689895303E+03  0.00000000000E+00 0. -1.
         -3    1    6    6    0  503 -0.10239630989E+03 -0.71194780233E+03  0.56928847998E+03  0.91730259509E+03  0.00000000000E+00 0.  1.
<mgrwt>
<rscale>  0 0.35988796E+04</rscale>
<asrwt>0</asrwt>
<pdfrwt beam="1">  1        2 0.16953140E+00 0.35988796E+04</pdfrwt>
<pdfrwt beam="2">  1       -1 0.45206176E+00 0.35988796E+04</pdfrwt>
<totfact> 0.63144518E-02</totfact>
</mgrwt>
</event>
<event>
12    7  0.1701638E-007  0.2016925E+04  0.7818608E-02  0.8598748E-01
          2   -1    0    0  501    0  0.00000000000E+00  0.00000000000E+00  0.15043925105E+04  0.15043925105E+04  0.00000000000E+00 0. -1.
         -1   -1    0    0    0  501 -0.00000000000E+00 -0.00000000000E+00 -0.67601809874E+03  0.67601809874E+03  0.00000000000E+00 0.  1.
         24    2    1    2    0    0 -0.55319463890E+03 -0.18814792746E+03  0.96789435330E+03  0.11334317436E+04  0.80150402825E+02 0.  0.
        254    2    1    2    0    0  0.55319463890E+03  0.18814792746E+03 -0.13951994154E+03  0.10469788657E+04  0.85748176655E+03 0.  0.
         23    2    4    4    0    0  0.36597632113E+03  0.13291582859E+03 -0.49183365142E+03  0.63370105834E+03  0.89841001543E+02 0.  0.
         23    2    4    4    0    0  0.18721831777E+03  0.55232098870E+02  0.35231370988E+03  0.41327780733E+03  0.92586784212E+02 0.  0.
          2    1    3    3  502    0 -0.46452491080E+03 -0.18192830042E+03  0.85289193750E+03  0.98808195830E+03  0.00000000000E+00 0. -1.
         -1    1    3    3    0  502 -0.88669728093E+02 -0.62196270406E+01  0.11500241579E+03  0.14534978527E+03  0.00000000000E+00 0.  1.
         13    1    5    5    0    0  0.36374966108E+03  0.11893187929E+03 -0.48547589031E+03  0.61817913903E+03  0.00000000000E+00 0. -1.
        -13    1    5    5    0    0  0.22266600411E+01  0.13983949296E+02 -0.63577611016E+01  0.15521919311E+02  0.00000000000E+00 0.  1.
          3    1    6    6  503    0  0.10505716343E+03  0.77807617156E+02  0.21946063870E+03  0.25544863440E+03  0.00000000000E+00 0. -1.
         -3    1    6    6    0  503  0.82161154346E+02 -0.22575518286E+02  0.13285307117E+03  0.15782917294E+03  0.00000000000E+00 0.  1.
<mgrwt>
<rscale>  0 0.20169250E+04</rscale>
<asrwt>0</asrwt>
<pdfrwt beam="1">  1        2 0.23144500E+00 0.20169250E+04</pdfrwt>
<pdfrwt beam="2">  1       -1 0.10400279E+00 0.20169250E+04</pdfrwt>
<totfact> 0.11614258E+01</totfact>
</mgrwt>
</event>
<event>
12    7  0.1701638E-007  0.1470160E+04  0.7818608E-02  0.8904543E-01
          2   -1    0    0  501    0  0.00000000000E+00  0.00000000000E+00  0.22791565394E+03  0.22791565394E+03  0.00000000000E+00 0. -1.
         -1   -1    0    0    0  501 -0.00000000000E+00 -0.00000000000E+00 -0.23707993645E+04  0.23707993645E+04  0.00000000000E+00 0.  1.
         24    2    1    2    0    0 -0.22901137213E+03 -0.10899681950E+03 -0.48343893408E+01  0.26578880558E+03  0.79333489920E+02 0.  0.
        254    2    1    2    0    0  0.22901137213E+03  0.10899681950E+03 -0.21380493213E+04  0.23329262129E+04  0.89831135999E+03 0.  0.
         23    2    4    4    0    0 -0.32454129160E+03  0.14765321259E+03 -0.75664202737E+03  0.84141723257E+03  0.91363452972E+02 0.  0.
         23    2    4    4    0    0  0.55355266373E+03 -0.38656393091E+02 -0.13814072939E+04  0.14915089803E+04  0.91640921866E+02 0.  0.
          2    1    3    3  502    0 -0.14768081746E+03 -0.65506584371E+02 -0.41072881938E+02  0.16669648488E+03  0.00000000000E+00 0. -1.
         -1    1    3    3    0  502 -0.81330554668E+02 -0.43490235131E+02  0.36238492597E+02  0.99092320691E+02  0.00000000000E+00 0.  1.
         13    1    5    5    0    0 -0.27081048075E+03  0.12392031182E+03 -0.69575458398E+03  0.75681503770E+03  0.00000000000E+00 0. -1.
        -13    1    5    5    0    0 -0.53730810847E+02  0.23732900771E+02 -0.60887443393E+02  0.84602194867E+02  0.00000000000E+00 0.  1.
          4    1    6    6  503    0  0.53579966903E+02  0.12621500335E+02 -0.87007793587E+02  0.10295859007E+03  0.00000000000E+00 0. -1.
         -4    1    6    6    0  503  0.49997269682E+03 -0.51277893425E+02 -0.12943995003E+04  0.13885503903E+04  0.00000000000E+00 0.  1.
<mgrwt>
<rscale>  0 0.14701596E+04</rscale>
<asrwt>0</asrwt>
<pdfrwt beam="1">  1        2 0.35063946E-01 0.14701596E+04</pdfrwt>
<pdfrwt beam="2">  1       -1 0.36473837E+00 0.14701596E+04</pdfrwt>
<totfact> 0.20664429E+00</totfact>
</mgrwt>
</event>
<event>
12    7  0.1701638E-007  0.1679683E+04  0.7818608E-02  0.8773037E-01
         -1   -1    0    0    0  501 -0.00000000000E+00  0.00000000000E+00  0.30093760312E+03  0.30093760312E+03  0.00000000000E+00 0.  1.
          2   -1    0    0  501    0  0.00000000000E+00 -0.00000000000E+00 -0.23437881313E+04  0.23437881313E+04  0.00000000000E+00 0. -1.
         24    2    1    2    0    0 -0.15008379611E+03 -0.45522537980E+03 -0.17330789397E+03  0.51585352031E+03  0.79460279567E+02 0.  0.
        254    2    1    2    0    0  0.15008379611E+03  0.45522537980E+03 -0.18695426342E+04  0.21288722141E+04  0.89841635708E+03 0.  0.
         23    2    4    4    0    0  0.76942631712E+02 -0.26245399695E+03 -0.60145107605E+03  0.66706412950E+03  0.91808969546E+02 0.  0.
         23    2    4    4    0    0  0.73141164399E+02  0.71767937675E+03 -0.12680915582E+04  0.14618080847E+04  0.91724362440E+02 0.  0.
          2    1    3    3  502    0 -0.20772345018E+02 -0.25023309981E+02  0.42924350844E+01  0.32803679045E+02  0.00000000000E+00 0. -1.
         -1    1    3    3    0  502 -0.12931145109E+03 -0.43020206982E+03 -0.17760032905E+03  0.48304984126E+03  0.00000000000E+00 0.  1.
         13    1    5    5    0    0  0.13533694564E+02 -0.57749669734E+02 -0.58315217047E+02  0.83179623600E+02  0.00000000000E+00 0.  1.
        -13    1    5    5    0    0  0.63408937148E+02 -0.20470432721E+03 -0.54313585900E+03  0.58388450590E+03  0.00000000000E+00 0. -1.
          2    1    6    6  503    0  0.36696862610E+02  0.41026066749E+03 -0.81325945539E+03  0.91162021522E+03  0.00000000000E+00 0.  1.
         -2    1    6    6    0  503  0.36444301789E+02  0.30741870926E+03 -0.45483210280E+03  0.55018786943E+03  0.00000000000E+00 0. -1.
<mgrwt>
<rscale>  0 0.16796833E+04</rscale>
<asrwt>0</asrwt>
<pdfrwt beam="1">  1        2 0.36058278E+00 0.16796833E+04</pdfrwt>
<pdfrwt beam="2">  1       -1 0.46298093E-01 0.16796833E+04</pdfrwt>
<totfact> 0.21595273E+01</totfact>
</mgrwt>
</event>
<event>
12    7  0.1701638E-007  0.2102736E+04  0.7818608E-02  0.8560039E-01
          2   -1    0    0  501    0  0.00000000000E+00  0.00000000000E+00  0.18513580452E+04  0.18513580452E+04  0.00000000000E+00 0. -1.
         -1   -1    0    0    0  501 -0.00000000000E+00 -0.00000000000E+00 -0.59706174389E+03  0.59706174389E+03  0.00000000000E+00 0.  1.
         24    2    1    2    0    0 -0.19516057120E+03  0.52999084532E+03 -0.23794616329E+03  0.61805051350E+03  0.79938200739E+02 0.  0.
        254    2    1    2    0    0  0.19516057120E+03 -0.52999084532E+03  0.14922424646E+04  0.18303692756E+04  0.89693152871E+03 0.  0.
         23    2    4    4    0    0  0.15918485922E+03 -0.16719741444E+03  0.14269462815E+04  0.14491082413E+04  0.10219691697E+03 0.  0.
         23    2    4    4    0    0  0.35975711982E+02 -0.36279343088E+03  0.65296183125E+02  0.38126103434E+03  0.90460264375E+02 0.  0.
          4    1    3    3  502    0 -0.54831580864E+02  0.67399143689E+02 -0.31794262288E+02  0.92520386643E+02  0.00000000000E+00 0. -1.
         -3    1    3    3    0  502 -0.14032899034E+03  0.46259170163E+03 -0.20615190100E+03  0.52553012686E+03  0.00000000000E+00 0.  1.
         13    1    5    5    0    0  0.31428537921E+02 -0.69765973976E+02  0.25601884975E+03  0.26720908583E+03  0.00000000000E+00 0.  1.
        -13    1    5    5    0    0  0.12775632130E+03 -0.97431440467E+02  0.11709274318E+04  0.11818991554E+04  0.00000000000E+00 0. -1.
          1    1    6    6  503    0 -0.96187563113E+01 -0.27608884318E+03  0.33563742737E+02  0.27828779102E+03  0.00000000000E+00 0. -1.
         -1    1    6    6    0  503  0.45594468293E+02 -0.86704587696E+02  0.31732440388E+02  0.10297324332E+03  0.00000000000E+00 0.  1.
<mgrwt>
<rscale>  0 0.21027364E+04</rscale>
<asrwt>0</asrwt>
<pdfrwt beam="1">  1        2 0.28482431E+00 0.21027364E+04</pdfrwt>
<pdfrwt beam="2">  1       -1 0.91855654E-01 0.21027364E+04</pdfrwt>
<totfact> 0.97858495E+00</totfact>
</mgrwt>
</event>
<event>
12    7  0.1701638E-007  0.1748153E+04  0.7818608E-02  0.8734367E-01
         -1   -1    0    0    0  501 -0.00000000000E+00  0.00000000000E+00  0.43103350880E+03  0.43103350880E+03  0.00000000000E+00 0.  1.
          2   -1    0    0  501    0  0.00000000000E+00 -0.00000000000E+00 -0.17725073987E+04  0.17725073987E+04  0.00000000000E+00 0. -1.
         24    2    1    2    0    0 -0.39020309500E+03  0.26178212925E+03 -0.10437700400E+04  0.11475356942E+04  0.81203044878E+02 0.  0.
        254    2    1    2    0    0  0.39020309500E+03 -0.26178212925E+03 -0.29770384991E+03  0.10560052133E+04  0.89762525019E+03 0.  0.
         23    2    4    4    0    0  0.51345900613E+02 -0.45285275116E+03 -0.43154174107E+03  0.63466191944E+03  0.94103464084E+02 0.  0.
         23    2    4    4    0    0  0.33885719439E+03  0.19107062192E+03  0.13383789115E+03  0.42134329390E+03  0.91024224560E+02 0.  0.
          4    1    3    3  502    0 -0.36073030460E+03  0.26436464306E+03 -0.98205757702E+03  0.10790978184E+04  0.00000000000E+00 0. -1.
         -3    1    3    3    0  502 -0.29472790404E+02 -0.25825138105E+01 -0.61712462973E+02  0.68437875756E+02  0.00000000000E+00 0.  1.
         13    1    5    5    0    0 -0.14233218719E+02 -0.10469130018E+03 -0.14269508671E+03  0.17755207861E+03  0.00000000000E+00 0. -1.
        -13    1    5    5    0    0  0.65579119332E+02 -0.34816145099E+03 -0.28884665435E+03  0.45710984082E+03  0.00000000000E+00 0.  1.
          1    1    6    6  503    0  0.40010335300E+02  0.40824343857E+01  0.39595194288E+02  0.56438219427E+02  0.00000000000E+00 0. -1.
         -1    1    6    6    0  503  0.29884685909E+03  0.18698818753E+03  0.94242696862E+02  0.36490507447E+03  0.00000000000E+00 0.  1.
<mgrwt>
<rscale>  0 0.17481534E+04</rscale>
<asrwt>0</asrwt>
<pdfrwt beam="1">  1        2 0.27269345E+00 0.17481534E+04</pdfrwt>
<pdfrwt beam="2">  1       -1 0.66312847E-01 0.17481534E+04</pdfrwt>
<totfact> 0.22238333E+01</totfact>
</mgrwt>
</event>
<event>
12    7  0.1701638E-007  0.1522614E+04  0.7818608E-02  0.8869552E-01
          2   -1    0    0  501    0  0.00000000000E+00  0.00000000000E+00  0.11914838530E+04  0.11914838530E+04  0.00000000000E+00 0. -1.
         -1   -1    0    0    0  501 -0.00000000000E+00 -0.00000000000E+00 -0.48644263337E+03  0.48644263337E+03  0.00000000000E+00 0.  1.
         24    2    1    2    0    0 -0.28806620308E+03  0.33788996932E+03  0.49661404382E+03  0.67100265337E+03  0.80419422969E+02 0.  0.
        254    2    1    2    0    0  0.28806620308E+03 -0.33788996932E+03  0.20842717582E+03  0.10069238330E+04  0.87937588613E+03 0.  0.
         23    2    4    4    0    0 -0.41806297433E+02  0.16953486259E+03 -0.19073753683E+03  0.27605848872E+03  0.96631491247E+02 0.  0.
         23    2    4    4    0    0  0.32987250052E+03 -0.50742483191E+03  0.39916471265E+03  0.73086534427E+03  0.92389701795E+02 0.  0.
          2    1    3    3  502    0 -0.19573359336E+03  0.28193930806E+03  0.37317390611E+03  0.50701102276E+03  0.00000000000E+00 0. -1.
         -1    1    3    3    0  502 -0.92332609724E+02  0.55950661262E+02  0.12344013770E+03  0.16399163061E+03  0.00000000000E+00 0.  1.
         13    1    5    5    0    0 -0.43048109169E+02  0.43149960491E+02 -0.11095167326E+03  0.12659120267E+03  0.00000000000E+00 0. -1.
        -13    1    5    5    0    0  0.12418117360E+01  0.12638490210E+03 -0.79785863571E+02  0.14946728605E+03  0.00000000000E+00 0.  1.
          1    1    6    6  503    0  0.61268888003E+02 -0.70961520926E+02  0.10161714381E+03  0.13825866340E+03  0.00000000000E+00 0. -1.
         -1    1    6    6    0  503  0.26860361251E+03 -0.43646331098E+03  0.29754756884E+03  0.59260668087E+03  0.00000000000E+00 0.  1.
<mgrwt>
<rscale>  0 0.15226143E+04</rscale>
<asrwt>0</asrwt>
<pdfrwt beam="1">  1        2 0.18330521E+00 0.15226143E+04</pdfrwt>
<pdfrwt beam="2">  1       -1 0.74837328E-01 0.15226143E+04</pdfrwt>
<totfact> 0.37862174E+01</totfact>
</mgrwt>
</event>
<event>
12    7  0.1701638E-007  0.1948862E+04  0.7818608E-02  0.8630909E-01
         -1   -1    0    0    0  501 -0.00000000000E+00  0.00000000000E+00  0.56593075869E+03  0.56593075869E+03  0.00000000000E+00 0.  1.
          2   -1    0    0  501    0  0.00000000000E+00 -0.00000000000E+00 -0.16777957952E+04  0.16777957952E+04  0.00000000000E+00 0. -1.
         24    2    1    2    0    0  0.20841877648E+03 -0.22359584460E+03  0.36732800739E+03  0.48439399309E+03  0.79209768426E+02 0.  0.
        254    2    1    2    0    0 -0.20841877648E+03  0.22359584460E+03 -0.14791930439E+04  0.17593325608E+04  0.90211169501E+03 0.  0.
         23    2    4    4    0    0  0.19146586295E+03  0.40438321472E+03 -0.10223888156E+04  0.11194765795E+04  0.88113341330E+02 0.  0.
         23    2    4    4    0    0 -0.39988463943E+03 -0.18078737012E+03 -0.45680422830E+03  0.63985598124E+03  0.90298259568E+02 0.  0.
          4    1    3    3  502    0  0.18274867068E+03 -0.20297889137E+03  0.28038009880E+03  0.39142113737E+03  0.00000000000E+00 0. -1.
         -3    1    3    3    0  502  0.25670105803E+02 -0.20616953231E+02  0.86947908587E+02  0.92972855717E+02  0.00000000000E+00 0.  1.
         13    1    5    5    0    0  0.12028654739E+03  0.32257102494E+03 -0.83120101271E+03  0.89967552103E+03  0.00000000000E+00 0.  1.
        -13    1    5    5    0    0  0.71179315560E+02  0.81812189777E+02 -0.19118780286E+03  0.21980105851E+03  0.00000000000E+00 0. -1.
          3    1    6    6  503    0 -0.78117409467E+01  0.84327143219E+01 -0.53108902937E+01  0.12662524360E+02  0.00000000000E+00 0. -1.
         -3    1    6    6    0  503 -0.39207289848E+03 -0.18922008445E+03 -0.45149333801E+03  0.62719345688E+03  0.00000000000E+00 0.  1.
<mgrwt>
<rscale>  0 0.19488625E+04</rscale>
<asrwt>0</asrwt>
<pdfrwt beam="1">  1        2 0.25812243E+00 0.19488625E+04</pdfrwt>
<pdfrwt beam="2">  1       -1 0.87066271E-01 0.19488625E+04</pdfrwt>
<totfact> 0.13930016E+01</totfact>
</mgrwt>
</event>
<event>
12    7  0.1701638E-007  0.1480342E+04  0.7818608E-02  0.8897632E-01
         -1   -1    0    0    0  501 -0.00000000000E+00  0.00000000000E+00  0.35770699061E+03  0.35770699061E+03  0.00000000000E+00 0.  1.
          2   -1    0    0  501    0  0.00000000000E+00 -0.00000000000E+00 -0.15315684659E+04  0.15315684659E+04  0.00000000000E+00 0. -1.
         24    2    1    2    0    0  0.17118597216E+03 -0.14924018000E+03  0.14230747494E+03  0.27965395776E+03  0.79860192068E+02 0.  0.
        254    2    1    2    0    0 -0.17118597216E+03  0.14924018000E+03 -0.13161689502E+04  0.16096214987E+04  0.89833367705E+03 0.  0.
         23    2    4    4    0    0  0.10675196471E+03  0.20811243437E+03 -0.12848090111E+04  0.13090984398E+04  0.91092056585E+02 0.  0.
         23    2    4    4    0    0 -0.27793793687E+03 -0.58872254376E+02 -0.31359939053E+02  0.30052305889E+03  0.92818231286E+02 0.  0.
          4    1    3    3  502    0  0.11315022677E+03 -0.70951217539E+02  0.42489201872E+02  0.14015128028E+03  0.00000000000E+00 0. -1.
         -3    1    3    3    0  502  0.58035745385E+02 -0.78288962456E+02  0.99818273065E+02  0.13950267747E+03  0.00000000000E+00 0.  1.
         13    1    5    5    0    0  0.31496118765E+02  0.22648262146E+02 -0.40284721624E+03  0.40471079663E+03  0.00000000000E+00 0. -1.
        -13    1    5    5    0    0  0.75255845947E+02  0.18546417222E+03 -0.88196179488E+03  0.90438764319E+03  0.00000000000E+00 0.  1.
          1    1    6    6  503    0 -0.40987468983E+02  0.24427941475E+02 -0.46651673214E+01  0.47942264491E+02  0.00000000000E+00 0. -1.
         -1    1    6    6    0  503 -0.23695046789E+03 -0.83300195850E+02 -0.26694771731E+02  0.25258079440E+03  0.00000000000E+00 0.  1.
<mgrwt>
<rscale>  0 0.14803415E+04</rscale>
<asrwt>0</asrwt>
<pdfrwt beam="1">  1        2 0.23562592E+00 0.14803415E+04</pdfrwt>
<pdfrwt beam="2">  1       -1 0.55031845E-01 0.14803415E+04</pdfrwt>
<totfact> 0.44826948E+01</totfact>
</mgrwt>
</event>
<event>
12    7  0.1701638E-007  0.1781113E+04  0.7818608E-02  0.8716409E-01
         -1   -1    0    0    0  501 -0.00000000000E+00  0.00000000000E+00  0.65720011366E+03  0.65720011366E+03  0.00000000000E+00 0.  1.
          2   -1    0    0  501    0  0.00000000000E+00 -0.00000000000E+00 -0.12067716133E+04  0.12067716133E+04  0.00000000000E+00 0. -1.
         24    2    1    2    0    0  0.20750169037E+03 -0.55344960383E+03  0.10096777780E+03  0.60476264544E+03  0.78612655959E+02 0.  0.
        254    2    1    2    0    0 -0.20750169037E+03  0.55344960383E+03 -0.65053927744E+03  0.12592090815E+04  0.90168882879E+03 0.  0.
         23    2    4    4    0    0 -0.36060419483E+03  0.28905614647E+03 -0.78299324835E+03  0.91404065159E+03  0.93824541917E+02 0.  0.
         23    2    4    4    0    0  0.15310250446E+03  0.26439345736E+03  0.13245397091E+03  0.34516842991E+03  0.90845547114E+02 0.  0.
          4    1    3    3  502    0  0.55720582519E+02 -0.14942077512E+03 -0.78256392180E+01  0.15966399714E+03  0.00000000000E+00 0. -1.
         -3    1    3    3    0  502  0.15178110785E+03 -0.40402882871E+03  0.10879341702E+03  0.44509864830E+03  0.00000000000E+00 0.  1.
         13    1    5    5    0    0 -0.75584692233E+02  0.10522479959E+03 -0.26361022625E+03  0.29372717874E+03  0.00000000000E+00 0.  1.
        -13    1    5    5    0    0 -0.28501950259E+03  0.18383134689E+03 -0.51938302209E+03  0.62031347285E+03  0.00000000000E+00 0. -1.
          4    1    6    6  503    0  0.14579593178E+03  0.18027183744E+03  0.77664958390E+02  0.24451223867E+03  0.00000000000E+00 0. -1.
         -4    1    6    6    0  503  0.73065726801E+01  0.84121619920E+02  0.54789012520E+02  0.10065619124E+03  0.00000000000E+00 0.  1.
<mgrwt>
<rscale>  0 0.17811125E+04</rscale>
<asrwt>0</asrwt>
<pdfrwt beam="1">  1        2 0.18565717E+00 0.17811125E+04</pdfrwt>
<pdfrwt beam="2">  1       -1 0.10110771E+00 0.17811125E+04</pdfrwt>
<totfact> 0.18801759E+01</totfact>
</mgrwt>
</event>
<event>
12    7  0.1701638E-007  0.1396346E+04  0.7818608E-02  0.8956468E-01
         -1   -1    0    0    0  501 -0.00000000000E+00  0.00000000000E+00  0.44385467489E+03  0.44385467489E+03  0.00000000000E+00 0.  1.
          2   -1    0    0  501    0  0.00000000000E+00 -0.00000000000E+00 -0.10982100866E+04  0.10982100866E+04  0.00000000000E+00 0. -1.
         24    2    1    2    0    0 -0.33735376337E+03  0.13105729348E+03 -0.42608853685E+03  0.56465611468E+03  0.79382055710E+02 0.  0.
        254    2    1    2    0    0  0.33735376337E+03 -0.13105729348E+03 -0.22826687485E+03  0.97740864680E+03  0.87877091488E+03 0.  0.
         23    2    4    4    0    0  0.10154188614E+03 -0.40958480548E+03  0.13684114832E+03  0.45301719679E+03  0.91807478944E+02 0.  0.
         23    2    4    4    0    0  0.23581187723E+03  0.27852751200E+03 -0.36510802317E+03  0.52439145001E+03  0.92183012931E+02 0.  0.
          2    1    3    3  502    0 -0.28723353576E+03  0.81106729813E+02 -0.36211244363E+03  0.46926200306E+03  0.00000000000E+00 0. -1.
         -1    1    3    3    0  502 -0.50120227615E+02  0.49950563670E+02 -0.63976093223E+02  0.95394111617E+02  0.00000000000E+00 0.  1.
         13    1    5    5    0    0  0.10535388374E+03 -0.23875812285E+03  0.84664083328E+02  0.27435905134E+03  0.00000000000E+00 0.  1.
        -13    1    5    5    0    0 -0.38119975955E+01 -0.17082668263E+03  0.52177064991E+02  0.17865814545E+03  0.00000000000E+00 0. -1.
          1    1    6    6  503    0  0.39222795703E+02  0.56361249436E+01 -0.30915361114E+02  0.50258861507E+02  0.00000000000E+00 0. -1.
         -1    1    6    6    0  503  0.19658908153E+03  0.27289138706E+03 -0.33419266206E+03  0.47413258850E+03  0.00000000000E+00 0.  1.
<mgrwt>
<rscale>  0 0.13963462E+04</rscale>
<asrwt>0</asrwt>
<pdfrwt beam="1">  1        2 0.16895540E+00 0.13963462E+04</pdfrwt>
<pdfrwt beam="2">  1       -1 0.68285334E-01 0.13963462E+04</pdfrwt>
<totfact> 0.52655428E+01</totfact>
</mgrwt>
</event>
<event>
12    7  0.1701638E-007  0.4177479E+04  0.7818608E-02  0.7969670E-01
          2   -1    0    0  501    0  0.00000000000E+00  0.00000000000E+00  0.30249596983E+04  0.30249596983E+04  0.00000000000E+00 0. -1.
         -1   -1    0    0    0  501 -0.00000000000E+00 -0.00000000000E+00 -0.14422780152E+04  0.14422780152E+04  0.00000000000E+00 0.  1.
         24    2    1    2    0    0 -0.10346229840E+04 -0.15178611492E+04  0.15742929900E+04  0.24204256277E+04  0.75595061468E+02 0.  0.
        254    2    1    2    0    0  0.10346229840E+04  0.15178611492E+04  0.83886930923E+01  0.20468120858E+04  0.90278577591E+03 0.  0.
         23    2    4    4    0    0  0.11341025827E+03  0.81749314570E+03  0.23535533373E+03  0.86389156105E+03  0.98790516698E+02 0.  0.
         23    2    4    4    0    0  0.92121272572E+03  0.70036800353E+03 -0.22696664064E+03  0.11829205248E+04  0.92945605516E+02 0.  0.
          4    1    3    3  502    0 -0.55426510718E+03 -0.83592428051E+03  0.90596811793E+03  0.13515759107E+04  0.00000000000E+00 0. -1.
         -3    1    3    3    0  502 -0.48035787682E+03 -0.68193686872E+03  0.66832487211E+03  0.10688497170E+04  0.00000000000E+00 0.  1.
         13    1    5    5    0    0  0.41279593994E+01  0.20283681426E+03  0.94967117630E+02  0.22400572916E+03  0.00000000000E+00 0. -1.
        -13    1    5    5    0    0  0.10928229887E+03  0.61465633145E+03  0.14038821610E+03  0.63988583189E+03  0.00000000000E+00 0.  1.
          1    1    6    6  503    0  0.59320911237E+03  0.50361486152E+03 -0.13955107845E+03  0.79056908821E+03  0.00000000000E+00 0. -1.
         -1    1    6    6    0  503  0.32800361335E+03  0.19675314200E+03 -0.87415562193E+02  0.39235143657E+03  0.00000000000E+00 0.  1.
<mgrwt>
<rscale>  0 0.41774791E+04</rscale>
<asrwt>0</asrwt>
<pdfrwt beam="1">  1        2 0.46537841E+00 0.41774791E+04</pdfrwt>
<pdfrwt beam="2">  1       -1 0.22188893E+00 0.41774791E+04</pdfrwt>
<totfact> 0.15844784E-01</totfact>
</mgrwt>
</event>
<event>
12    7  0.1701638E-007  0.1209671E+04  0.7818608E-02  0.9104433E-01
          2   -1    0    0  501    0  0.00000000000E+00  0.00000000000E+00  0.27540223026E+04  0.27540223026E+04  0.00000000000E+00 0. -1.
         -1   -1    0    0    0  501 -0.00000000000E+00 -0.00000000000E+00 -0.13283331709E+03  0.13283331709E+03  0.00000000000E+00 0.  1.
         24    2    1    2    0    0  0.21834713107E+02  0.11919882605E+03  0.11513310460E+04  0.11604160564E+04  0.79480385441E+02 0.  0.
        254    2    1    2    0    0 -0.21834713107E+02 -0.11919882605E+03  0.14698579395E+04  0.17264395633E+04  0.89745534067E+03 0.  0.
         23    2    4    4    0    0 -0.33142319958E+03  0.15646667762E+03  0.29904568018E+03  0.48124730491E+03  0.88586066749E+02 0.  0.
         23    2    4    4    0    0  0.30958848648E+03 -0.27566550368E+03  0.11708122593E+04  0.12451922584E+04  0.88689981564E+02 0.  0.
          4    1    3    3  502    0 -0.22106129514E+02  0.77161937295E+02  0.51933462512E+03  0.52550080721E+03  0.00000000000E+00 0. -1.
         -3    1    3    3    0  502  0.43940842620E+02  0.42036888759E+02  0.63199642091E+03  0.63491524923E+03  0.00000000000E+00 0.  1.
         13    1    5    5    0    0 -0.29657523349E+03  0.16028625929E+03  0.29085307482E+03  0.44524607261E+03  0.00000000000E+00 0. -1.
        -13    1    5    5    0    0 -0.34847966090E+02 -0.38195816652E+01  0.81926053501E+01  0.36001232300E+02  0.00000000000E+00 0.  1.
          2    1    6    6  503    0  0.27256956136E+03 -0.27340158573E+03  0.10452301228E+04  0.11142479986E+04  0.00000000000E+00 0. -1.
         -2    1    6    6    0  503  0.37018925118E+02 -0.22639179483E+01  0.12558213655E+03  0.13094425975E+03  0.00000000000E+00 0.  1.
<mgrwt>
<rscale>  0 0.12096709E+04</rscale>
<asrwt>0</asrwt>
<pdfrwt beam="1">  1        2 0.42369570E+00 0.12096709E+04</pdfrwt>
<pdfrwt beam="2">  1       -1 0.20435897E-01 0.12096709E+04</pdfrwt>
<totfact> 0.55161023E+01</totfact>
</mgrwt>
</event>
<event>
12    7  0.1701638E-007  0.1988299E+04  0.7818608E-02  0.8612111E-01
          2   -1    0    0  501    0  0.00000000000E+00  0.00000000000E+00  0.16317358935E+04  0.16317358935E+04  0.00000000000E+00 0. -1.
         -1   -1    0    0    0  501 -0.00000000000E+00 -0.00000000000E+00 -0.60569448629E+03  0.60569448629E+03  0.00000000000E+00 0.  1.
         24    2    1    2    0    0  0.25244730918E+03  0.35387864438E+03  0.11452065724E+04  0.12275357646E+04  0.79913835305E+02 0.  0.
        254    2    1    2    0    0 -0.25244730918E+03 -0.35387864438E+03 -0.11916516520E+03  0.10098946152E+04  0.90372952718E+03 0.  0.
         23    2    4    4    0    0 -0.30744515035E+03 -0.17476724647E+03  0.34407380378E+03  0.50160147591E+03  0.90283704392E+02 0.  0.
         23    2    4    4    0    0  0.54997841174E+02 -0.17911139791E+03 -0.46323896898E+03  0.50829313926E+03  0.93090910656E+02 0.  0.
          4    1    3    3  502    0  0.22809596983E+03  0.26614397424E+03  0.88694018220E+03  0.95368929599E+03  0.00000000000E+00 0. -1.
         -1    1    3    3    0  502  0.24351339355E+02  0.87734670139E+02  0.25826639016E+03  0.27384646859E+03  0.00000000000E+00 0.  1.
         13    1    5    5    0    0 -0.15703474612E+03 -0.61750065216E+02  0.21560219240E+03  0.27378328549E+03  0.00000000000E+00 0.  1.
        -13    1    5    5    0    0 -0.15041040423E+03 -0.11301718125E+03  0.12847161137E+03  0.22781819042E+03  0.00000000000E+00 0. -1.
          1    1    6    6  503    0  0.78959698069E+02 -0.15499870893E+03 -0.40641185949E+03  0.44207446570E+03  0.00000000000E+00 0. -1.
         -1    1    6    6    0  503 -0.23961856895E+02 -0.24112688978E+02 -0.56827109482E+02  0.66218673557E+02  0.00000000000E+00 0.  1.
<mgrwt>
<rscale>  0 0.19882992E+04</rscale>
<asrwt>0</asrwt>
<pdfrwt beam="1">  1        2 0.25103629E+00 0.19882992E+04</pdfrwt>
<pdfrwt beam="2">  1       -1 0.93183767E-01 0.19882992E+04</pdfrwt>
<totfact> 0.12679229E+01</totfact>
</mgrwt>
</event>
<event>
12    7  0.1701638E-007  0.1422407E+04  0.7818608E-02  0.8937757E-01
          2   -1    0    0  501    0  0.00000000000E+00  0.00000000000E+00  0.13348431278E+04  0.13348431278E+04  0.00000000000E+00 0. -1.
         -1   -1    0    0    0  501 -0.00000000000E+00 -0.00000000000E+00 -0.37892866904E+03  0.37892866904E+03  0.00000000000E+00 0.  1.
         24    2    1    2    0    0 -0.64805947441E+02  0.28945022175E+03  0.63946954129E+03  0.70924358618E+03  0.78255534017E+02 0.  0.
        254    2    1    2    0    0  0.64805947441E+02 -0.28945022175E+03  0.31644491749E+03  0.10045282107E+04  0.90606749116E+03 0.  0.
         23    2    4    4    0    0  0.13147125013E+03 -0.20951354247E+03  0.61852163176E+03  0.67274940470E+03  0.94032645829E+02 0.  0.
         23    2    4    4    0    0 -0.66665302686E+02 -0.79936679282E+02 -0.30207671427E+03  0.33177880598E+03  0.89401898853E+02 0.  0.
          2    1    3    3  502    0 -0.61029722443E+02  0.13159681133E+03  0.36216762626E+03  0.39013810028E+03  0.00000000000E+00 0. -1.
         -1    1    3    3    0  502 -0.37762249983E+01  0.15785341042E+03  0.27730191503E+03  0.31910548590E+03  0.00000000000E+00 0.  1.
         13    1    5    5    0    0  0.87279034869E+02 -0.83678542727E+02  0.38826425281E+03  0.40665570013E+03  0.00000000000E+00 0.  1.
        -13    1    5    5    0    0  0.44192215258E+02 -0.12583499974E+03  0.23025737894E+03  0.26609370456E+03  0.00000000000E+00 0. -1.
          1    1    6    6  503    0  0.13815691803E+02  0.90055726347E+01 -0.49318523925E+02  0.52002793008E+02  0.00000000000E+00 0. -1.
         -1    1    6    6    0  503 -0.80480994488E+02 -0.88942251917E+02 -0.25275819034E+03  0.27977601297E+03  0.00000000000E+00 0.  1.
<mgrwt>
<rscale>  0 0.14224069E+04</rscale>
<asrwt>0</asrwt>
<pdfrwt beam="1">  1        2 0.20536048E+00 0.14224069E+04</pdfrwt>
<pdfrwt beam="2">  1       -1 0.58296719E-01 0.14224069E+04</pdfrwt>
<totfact> 0.52099424E+01</totfact>
</mgrwt>
</event>
<event>
12    7  0.1701638E-007  0.1362623E+04  0.7818608E-02  0.8981327E-01
         -1   -1    0    0    0  501 -0.00000000000E+00  0.00000000000E+00  0.42485191406E+03  0.42485191406E+03  0.00000000000E+00 0.  1.
          2   -1    0    0  501    0  0.00000000000E+00 -0.00000000000E+00 -0.10925821051E+04  0.10925821051E+04  0.00000000000E+00 0. -1.
         24    2    1    2    0    0 -0.26679836968E+03  0.26939325478E+03 -0.20036498677E+03  0.43521250183E+03  0.74227340239E+02 0.  0.
        254    2    1    2    0    0  0.26679836968E+03 -0.26939325478E+03 -0.46736520427E+03  0.10822215173E+04  0.89945488083E+03 0.  0.
         23    2    4    4    0    0  0.39163062613E+03 -0.52822371867E+03 -0.24697712449E+03  0.70771094244E+03  0.86384221543E+02 0.  0.
         23    2    4    4    0    0 -0.12483225645E+03  0.25883046389E+03 -0.22038807979E+03  0.37451057491E+03  0.95451368331E+02 0.  0.
          4    1    3    3  502    0 -0.42292844449E+02  0.54599987064E+02 -0.73967767101E+01  0.69459020902E+02  0.00000000000E+00 0. -1.
         -3    1    3    3    0  502 -0.22450552523E+03  0.21479326772E+03 -0.19296821006E+03  0.36575348093E+03  0.00000000000E+00 0.  1.
         13    1    5    5    0    0  0.93662088812E+02 -0.11426195151E+03 -0.18750997275E+02  0.14892944754E+03  0.00000000000E+00 0. -1.
        -13    1    5    5    0    0  0.29796853732E+03 -0.41396176716E+03 -0.22822612721E+03  0.55878149490E+03  0.00000000000E+00 0.  1.
          3    1    6    6  503    0 -0.45399704883E+02  0.47133557072E+02 -0.96755494612E+02  0.11680895147E+03  0.00000000000E+00 0. -1.
         -3    1    6    6    0  503 -0.79432551568E+02  0.21169690682E+03 -0.12363258517E+03  0.25770162344E+03  0.00000000000E+00 0.  1.
<mgrwt>
<rscale>  0 0.13626234E+04</rscale>
<asrwt>0</asrwt>
<pdfrwt beam="1">  1        2 0.16808956E+00 0.13626234E+04</pdfrwt>
<pdfrwt beam="2">  1       -1 0.65361832E-01 0.13626234E+04</pdfrwt>
<totfact> 0.58156659E+01</totfact>
</mgrwt>
</event>
<event>
12    7  0.1701638E-007  0.1474020E+04  0.7818608E-02  0.8901916E-01
         -1   -1    0    0    0  501 -0.00000000000E+00  0.00000000000E+00  0.93650448527E+03  0.93650448527E+03  0.00000000000E+00 0.  1.
          2   -1    0    0  501    0  0.00000000000E+00 -0.00000000000E+00 -0.58001187674E+03  0.58001187674E+03  0.00000000000E+00 0. -1.
         24    2    1    2    0    0 -0.20831101640E+03  0.39173366067E+03  0.23229630522E+02  0.45137865327E+03  0.79714066809E+02 0.  0.
        254    2    1    2    0    0  0.20831101640E+03 -0.39173366067E+03  0.33326297800E+03  0.10651377087E+04  0.90917841242E+03 0.  0.
         23    2    4    4    0    0  0.36338627310E+03  0.14171659410E+03  0.30269149665E+03  0.50167450605E+03  0.89005569273E+02 0.  0.
         23    2    4    4    0    0 -0.15507525670E+03 -0.53345025476E+03  0.30571481353E+02  0.56346320268E+03  0.89099134423E+02 0.  0.
          4    1    3    3  502    0 -0.17792262473E+03  0.36064957301E+03  0.41375778777E+02  0.40427284100E+03  0.00000000000E+00 0. -1.
         -3    1    3    3    0  502 -0.30388391662E+02  0.31084087660E+02 -0.18146148255E+02  0.47105812273E+02  0.00000000000E+00 0.  1.
         13    1    5    5    0    0  0.19502495914E+03  0.65087658900E+02  0.10472390834E+03  0.23073412190E+03  0.00000000000E+00 0. -1.
        -13    1    5    5    0    0  0.16836131396E+03  0.76628935200E+02  0.19796758831E+03  0.27094038416E+03  0.00000000000E+00 0.  1.
          4    1    6    6  503    0 -0.33242833670E+02 -0.93133505639E+02 -0.28216565169E+02  0.10283535585E+03  0.00000000000E+00 0. -1.
         -4    1    6    6    0  503 -0.12183242303E+03 -0.44031674913E+03  0.58788046522E+02  0.46062784683E+03  0.00000000000E+00 0.  1.
<mgrwt>
<rscale>  0 0.14740200E+04</rscale>
<asrwt>0</asrwt>
<pdfrwt beam="1">  1        2 0.89232596E-01 0.14740200E+04</pdfrwt>
<pdfrwt beam="2">  1       -1 0.14407761E+00 0.14740200E+04</pdfrwt>
<totfact> 0.22215764E+01</totfact>
</mgrwt>
</event>
<event>
12    7  0.1701638E-007  0.2674808E+04  0.7818608E-02  0.8343225E-01
         -1   -1    0    0    0  501 -0.00000000000E+00  0.00000000000E+00  0.87425333757E+03  0.87425333757E+03  0.00000000000E+00 0.  1.
          2   -1    0    0  501    0  0.00000000000E+00 -0.00000000000E+00 -0.20459173748E+04  0.20459173748E+04  0.00000000000E+00 0. -1.
         24    2    1    2    0    0 -0.89144017148E+03  0.71426592131E+03 -0.85586830244E+03  0.14296237162E+04  0.80448948195E+02 0.  0.
        254    2    1    2    0    0  0.89144017148E+03 -0.71426592131E+03 -0.31579573483E+03  0.14905469962E+04  0.90397014107E+03 0.  0.
         23    2    4    4    0    0  0.14227469377E+03 -0.33402886398E+03  0.27029385721E+03  0.46198628324E+03  0.92494249549E+02 0.  0.
         23    2    4    4    0    0  0.74916547771E+03 -0.38023705733E+03 -0.58608959204E+03  0.10285607129E+04  0.92773905280E+02 0.  0.
          4    1    3    3  502    0 -0.72184953017E+03  0.53985856007E+03 -0.69041374201E+03  0.11354228923E+04  0.00000000000E+00 0. -1.
         -3    1    3    3    0  502 -0.16959064131E+03  0.17440736124E+03 -0.16545456042E+03  0.29420082399E+03  0.00000000000E+00 0.  1.
         13    1    5    5    0    0  0.11197954511E+03 -0.28003248244E+03  0.26203256732E+03  0.39952306077E+03  0.00000000000E+00 0. -1.
        -13    1    5    5    0    0  0.30295148666E+02 -0.53996381536E+02  0.82612898878E+01  0.62463222477E+02  0.00000000000E+00 0.  1.
          1    1    6    6  503    0  0.61318520258E+03 -0.30659882152E+03 -0.51965106999E+03  0.86025354667E+03  0.00000000000E+00 0. -1.
         -1    1    6    6    0  503  0.13598027513E+03 -0.73638235810E+02 -0.66438522052E+02  0.16830716624E+03  0.00000000000E+00 0.  1.
<mgrwt>
<rscale>  0 0.26748085E+04</rscale>
<asrwt>0</asrwt>
<pdfrwt beam="1">  1        2 0.31475652E+00 0.26748085E+04</pdfrwt>
<pdfrwt beam="2">  1       -1 0.13450051E+00 0.26748085E+04</pdfrwt>
<totfact> 0.29294743E+00</totfact>
</mgrwt>
</event>
<event>
12    7  0.1701638E-007  0.2079355E+04  0.7818608E-02  0.8570393E-01
         -1   -1    0    0    0  501 -0.00000000000E+00  0.00000000000E+00  0.51990668740E+03  0.51990668740E+03  0.00000000000E+00 0.  1.
          2   -1    0    0  501    0  0.00000000000E+00 -0.00000000000E+00 -0.20790828347E+04  0.20790828347E+04  0.00000000000E+00 0. -1.
         24    2    1    2    0    0  0.21475023565E+03 -0.46257293087E+03  0.19697011833E+03  0.55257974689E+03  0.80347800710E+02 0.  0.
        254    2    1    2    0    0 -0.21475023565E+03  0.46257293087E+03 -0.17561462657E+04  0.20464097753E+04  0.91850524319E+03 0.  0.
         23    2    4    4    0    0 -0.47483706354E+03  0.49058825204E+03 -0.15658012840E+04  0.17105697310E+04  0.90377396365E+02 0.  0.
         23    2    4    4    0    0  0.26008682789E+03 -0.28015321168E+02 -0.19034498166E+03  0.33584004423E+03  0.90151577908E+02 0.  0.
          4    1    3    3  502    0  0.93867069603E+02 -0.25038330524E+03  0.13992777664E+03  0.30179895456E+03  0.00000000000E+00 0. -1.
         -3    1    3    3    0  502  0.12088316605E+03 -0.21218962563E+03  0.57042341689E+02  0.25078079233E+03  0.00000000000E+00 0.  1.
         13    1    5    5    0    0 -0.33368156722E+03  0.32220321017E+03 -0.96091617801E+03  0.10670136823E+04  0.00000000000E+00 0. -1.
        -13    1    5    5    0    0 -0.14115549632E+03  0.16838504186E+03 -0.60488510600E+03  0.64355604878E+03  0.00000000000E+00 0.  1.
          1    1    6    6  503    0  0.76004311472E+02 -0.17319208846E+02 -0.11200020760E+02  0.78753100398E+02  0.00000000000E+00 0. -1.
         -1    1    6    6    0  503  0.18408251642E+03 -0.10696112321E+02 -0.17914496090E+03  0.25708694383E+03  0.00000000000E+00 0.  1.
<mgrwt>
<rscale>  0 0.20793548E+04</rscale>
<asrwt>0</asrwt>
<pdfrwt beam="1">  1        2 0.31985890E+00 0.20793548E+04</pdfrwt>
<pdfrwt beam="2">  1       -1 0.79985643E-01 0.20793548E+04</pdfrwt>
<totfact> 0.98976978E+00</totfact>
</mgrwt>
</event>
<event>
12    7  0.1701638E-007  0.1163628E+04  0.7818608E-02  0.9145302E-01
         -1   -1    0    0    0  501 -0.00000000000E+00  0.00000000000E+00  0.42135972865E+03  0.42135972865E+03  0.00000000000E+00 0.  1.
          2   -1    0    0  501    0  0.00000000000E+00 -0.00000000000E+00 -0.80336983235E+03  0.80336983235E+03  0.00000000000E+00 0. -1.
         24    2    1    2    0    0  0.16848561265E+03  0.12245502418E+03 -0.15854346875E+03  0.27225097453E+03  0.74846022147E+02 0.  0.
        254    2    1    2    0    0 -0.16848561265E+03 -0.12245502418E+03 -0.22346663494E+03  0.95247858647E+03  0.90216156321E+03 0.  0.
         23    2    4    4    0    0 -0.40000210878E+03 -0.30499923966E+03 -0.34922218652E+03  0.61910581937E+03  0.91157318929E+02 0.  0.
         23    2    4    4    0    0  0.23151649613E+03  0.18254421548E+03  0.12575555158E+03  0.33337276711E+03  0.91655139046E+02 0.  0.
          4    1    3    3  502    0  0.67629672288E+02  0.84772925504E+02 -0.10891866452E+03  0.15369937200E+03  0.00000000000E+00 0. -1.
         -3    1    3    3    0  502  0.10085594037E+03  0.37682098677E+02 -0.49624804230E+02  0.11855160253E+03  0.00000000000E+00 0.  1.
         13    1    5    5    0    0 -0.39753442698E+03 -0.28659034363E+03 -0.34682271595E+03  0.60037791597E+03  0.00000000000E+00 0. -1.
        -13    1    5    5    0    0 -0.24676818042E+01 -0.18408896027E+02 -0.23994705749E+01  0.18727903392E+02  0.00000000000E+00 0.  1.
          1    1    6    6  503    0  0.21777651200E+03  0.19047354661E+03  0.12964298273E+03  0.31703956237E+03  0.00000000000E+00 0. -1.
         -1    1    6    6    0  503  0.13739984130E+02 -0.79293311321E+01 -0.38874311529E+01  0.16333204739E+02  0.00000000000E+00 0.  1.
<mgrwt>
<rscale>  0 0.11636283E+04</rscale>
<asrwt>0</asrwt>
<pdfrwt beam="1">  1        2 0.12359536E+00 0.11636283E+04</pdfrwt>
<pdfrwt beam="2">  1       -1 0.64824574E-01 0.11636283E+04</pdfrwt>
<totfact> 0.93332003E+01</totfact>
</mgrwt>
</event>
<event>
12    7  0.1701638E-007  0.3894435E+04  0.7818608E-02  0.8026188E-01
          2   -1    0    0  501    0  0.00000000000E+00  0.00000000000E+00  0.32021763769E+04  0.32021763769E+04  0.00000000000E+00 0. -1.
         -1   -1    0    0    0  501 -0.00000000000E+00 -0.00000000000E+00 -0.11840871990E+04  0.11840871990E+04  0.00000000000E+00 0.  1.
         24    2    1    2    0    0 -0.88120125689E+03  0.97558527562E+03  0.23093555729E+04  0.26585727923E+04  0.81264045667E+02 0.  0.
        254    2    1    2    0    0  0.88120125689E+03 -0.97558527562E+03 -0.29126639498E+03  0.17276907836E+04  0.10824957486E+04 0.  0.
         23    2    4    4    0    0  0.10855220410E+04 -0.76476698247E+03 -0.41537757626E+03  0.13945022578E+04  0.94187987495E+02 0.  0.
         23    2    4    4    0    0 -0.20432078415E+03 -0.21081829314E+03  0.12411118128E+03  0.33318852587E+03  0.97054999320E+02 0.  0.
          2    1    3    3  502    0 -0.45233157570E+03  0.52652444756E+03  0.11446274220E+04  0.13386574556E+04  0.00000000000E+00 0. -1.
         -1    1    3    3    0  502 -0.42886968118E+03  0.44906082806E+03  0.11647281508E+04  0.13199153367E+04  0.00000000000E+00 0.  1.
         13    1    5    5    0    0  0.17412682802E+03 -0.10796892971E+03 -0.31296956869E+02  0.20726056433E+03  0.00000000000E+00 0.  1.
        -13    1    5    5    0    0  0.91139521302E+03 -0.65679805276E+03 -0.38408061939E+03  0.11872416934E+04  0.00000000000E+00 0. -1.
          1    1    6    6  503    0 -0.16422476567E+03 -0.20023741094E+03  0.76460799049E+02  0.27002045883E+03  0.00000000000E+00 0. -1.
         -1    1    6    6    0  503 -0.40096018479E+02 -0.10580882206E+02  0.47650382229E+02  0.63168067033E+02  0.00000000000E+00 0.  1.
<mgrwt>
<rscale>  0 0.38944350E+04</rscale>
<asrwt>0</asrwt>
<pdfrwt beam="1">  1        2 0.49264252E+00 0.38944350E+04</pdfrwt>
<pdfrwt beam="2">  1       -1 0.18216726E+00 0.38944350E+04</pdfrwt>
<totfact> 0.23418544E-01</totfact>
</mgrwt>
</event>
<event>
12    7  0.1701638E-007  0.2440733E+04  0.7818608E-02  0.8424409E-01
          2   -1    0    0  501    0  0.00000000000E+00  0.00000000000E+00  0.10501233198E+04  0.10501233198E+04  0.00000000000E+00 0. -1.
         -1   -1    0    0    0  501 -0.00000000000E+00 -0.00000000000E+00 -0.14182093336E+04  0.14182093336E+04  0.00000000000E+00 0.  1.
         24    2    1    2    0    0  0.24396029629E+03 -0.74490654100E+03 -0.86317337072E+03  0.11689997351E+04  0.84200544086E+02 0.  0.
        254    2    1    2    0    0 -0.24396029629E+03  0.74490654100E+03  0.49508735693E+03  0.12993329183E+04  0.91035825948E+03 0.  0.
         23    2    4    4    0    0 -0.40975361238E+03  0.39476917599E+03  0.65318074938E+03  0.87096698020E+03  0.90540952370E+02 0.  0.
         23    2    4    4    0    0  0.16579331609E+03  0.35013736501E+03 -0.15809339245E+03  0.42836593811E+03  0.91761964648E+02 0.  0.
          4    1    3    3  502    0  0.27175942311E+02 -0.13334171850E+03 -0.19335906799E+03  0.23644507799E+03  0.00000000000E+00 0. -1.
         -3    1    3    3    0  502  0.21678435398E+03 -0.61156482250E+03 -0.66981430274E+03  0.93255465706E+03  0.00000000000E+00 0.  1.
         13    1    5    5    0    0 -0.30328227971E+03  0.27938302419E+03  0.40990095582E+03  0.58142394943E+03  0.00000000000E+00 0.  1.
        -13    1    5    5    0    0 -0.10647133267E+03  0.11538615181E+03  0.24327979356E+03  0.28954303077E+03  0.00000000000E+00 0. -1.
          3    1    6    6  503    0  0.39720791550E+02  0.13131237938E+03 -0.14756656695E+02  0.13797985787E+03  0.00000000000E+00 0. -1.
         -3    1    6    6    0  503  0.12607252454E+03  0.21882498563E+03 -0.14333673575E+03  0.29038608024E+03  0.00000000000E+00 0.  1.
<mgrwt>
<rscale>  0 0.24407332E+04</rscale>
<asrwt>0</asrwt>
<pdfrwt beam="1">  1        2 0.16155743E+00 0.24407332E+04</pdfrwt>
<pdfrwt beam="2">  1       -1 0.21818605E+00 0.24407332E+04</pdfrwt>
<totfact> 0.27064454E+00</totfact>
</mgrwt>
</event>
<event>
12    7  0.1701638E-007  0.1276799E+04  0.7818608E-02  0.9048169E-01
         -3   -1    0    0    0  501 -0.00000000000E+00  0.00000000000E+00  0.22807293998E+03  0.22807293998E+03  0.00000000000E+00 0.  1.
          2   -1    0    0  501    0  0.00000000000E+00 -0.00000000000E+00 -0.17869460737E+04  0.17869460737E+04  0.00000000000E+00 0. -1.
         24    2    1    2    0    0 -0.10114553121E+03  0.21874357803E+03 -0.71035887492E+03  0.75425187500E+03  0.78784442373E+02 0.  0.
        254    2    1    2    0    0  0.10114553121E+03 -0.21874357803E+03 -0.84851425883E+03  0.12607671387E+04  0.90082082525E+03 0.  0.
         23    2    4    4    0    0  0.13271295623E+03 -0.48282031120E+03 -0.18709216152E+03  0.54205670982E+03  0.89965649522E+02 0.  0.
         23    2    4    4    0    0 -0.31567425018E+02  0.26407673317E+03 -0.66142209732E+03  0.71871042890E+03  0.91282344776E+02 0.  0.
          2    1    3    3  502    0 -0.11358355659E+03  0.18284573504E+03 -0.61637081860E+03  0.65287577162E+03  0.00000000000E+00 0. -1.
         -1    1    3    3    0  502  0.12438025376E+02  0.35897842992E+02 -0.93988056319E+02  0.10137610338E+03  0.00000000000E+00 0.  1.
         13    1    5    5    0    0  0.44896477979E+02 -0.24530911577E+03 -0.13481391554E+03  0.28349082496E+03  0.00000000000E+00 0. -1.
        -13    1    5    5    0    0  0.87816478253E+02 -0.23751119543E+03 -0.52278245984E+02  0.25856588485E+03  0.00000000000E+00 0.  1.
          2    1    6    6  503    0 -0.11157164015E+02  0.20384282242E+03 -0.58318923624E+03  0.61788839108E+03  0.00000000000E+00 0.  1.
         -2    1    6    6    0  503 -0.20410261003E+02  0.60233910755E+02 -0.78232861075E+02  0.10082203782E+03  0.00000000000E+00 0. -1.
<mgrwt>
<rscale>  0 0.12767992E+04</rscale>
<asrwt>0</asrwt>
<pdfrwt beam="1">  1        2 0.27491479E+00 0.12767992E+04</pdfrwt>
<pdfrwt beam="2">  1       -3 0.35088143E-01 0.12767992E+04</pdfrwt>
<totfact> 0.44593920E+01</totfact>
</mgrwt>
</event>
<event>
12    7  0.1701638E-007  0.1245341E+04  0.7818608E-02  0.9074070E-01
          2   -1    0    0  501    0  0.00000000000E+00  0.00000000000E+00  0.20130551224E+04  0.20130551224E+04  0.00000000000E+00 0. -1.
         -1   -1    0    0    0  501 -0.00000000000E+00 -0.00000000000E+00 -0.19260214895E+03  0.19260214895E+03  0.00000000000E+00 0.  1.
         24    2    1    2    0    0 -0.18254756979E+03 -0.11378417411E+02  0.83424717132E+03  0.85787399484E+03  0.80785918008E+02 0.  0.
        254    2    1    2    0    0  0.18254756979E+03  0.11378417411E+02  0.98620580216E+03  0.13477832765E+04  0.90025818112E+03 0.  0.
         23    2    4    4    0    0  0.47251434240E+03 -0.18472223158E+03  0.37316581808E+03  0.63617427812E+03  0.89849194416E+02 0.  0.
         23    2    4    4    0    0 -0.28996677261E+03  0.19610064899E+03  0.61303998408E+03  0.71160899842E+03  0.89627846150E+02 0.  0.
          4    1    3    3  502    0 -0.16208623810E+03 -0.15314871602E+02  0.56968632639E+03  0.59249388550E+03  0.00000000000E+00 0. -1.
         -3    1    3    3    0  502 -0.20461331693E+02  0.39364541906E+01  0.26456084493E+03  0.26538010935E+03  0.00000000000E+00 0.  1.
         13    1    5    5    0    0  0.39896352257E+03 -0.13630498708E+03  0.27051006623E+03  0.50092578071E+03  0.00000000000E+00 0. -1.
        -13    1    5    5    0    0  0.73550819825E+02 -0.48417244502E+02  0.10265575185E+03  0.13524849741E+03  0.00000000000E+00 0.  1.
          3    1    6    6  503    0 -0.26183549532E+03  0.13840946353E+03  0.48256371512E+03  0.56620026965E+03  0.00000000000E+00 0. -1.
         -3    1    6    6    0  503 -0.28131277294E+02  0.57691185457E+02  0.13047626896E+03  0.14540872877E+03  0.00000000000E+00 0.  1.
<mgrwt>
<rscale>  0 0.12453413E+04</rscale>
<asrwt>0</asrwt>
<pdfrwt beam="1">  1        2 0.30970077E+00 0.12453413E+04</pdfrwt>
<pdfrwt beam="2">  1       -1 0.29631101E-01 0.12453413E+04</pdfrwt>
<totfact> 0.76875867E+01</totfact>
</mgrwt>
</event>
<event>
12    7  0.1701638E-007  0.1121986E+04  0.7818608E-02  0.9184023E-01
          2   -1    0    0  501    0  0.00000000000E+00  0.00000000000E+00  0.10314655256E+04  0.10314655256E+04  0.00000000000E+00 0. -1.
         -1   -1    0    0    0  501 -0.00000000000E+00 -0.00000000000E+00 -0.30511283796E+03  0.30511283796E+03  0.00000000000E+00 0.  1.
         24    2    1    2    0    0 -0.80448102998E+01 -0.16095716448E+03  0.23170807786E+03  0.29341043879E+03  0.80181821346E+02 0.  0.
        254    2    1    2    0    0  0.80448102998E+01  0.16095716448E+03  0.49464460981E+03  0.10431679248E+04  0.90418698372E+03 0.  0.
         23    2    4    4    0    0  0.13341878360E+03 -0.44641316419E+02  0.69636639503E+03  0.71569423160E+03  0.86594792415E+02 0.  0.
         23    2    4    4    0    0 -0.12537397330E+03  0.20559848089E+03 -0.20172178522E+03  0.32747369319E+03  0.92509310712E+02 0.  0.
          4    1    3    3  502    0  0.50398269147E+01 -0.16557162258E+03  0.21903577762E+03  0.27461979888E+03  0.00000000000E+00 0. -1.
         -1    1    3    3    0  502 -0.13084637214E+02  0.46144581078E+01  0.12672300243E+02  0.18790639907E+02  0.00000000000E+00 0.  1.
         13    1    5    5    0    0  0.34546504418E+02 -0.22699282665E-01  0.53118936112E+02  0.63364681459E+02  0.00000000000E+00 0.  1.
        -13    1    5    5    0    0  0.98872279180E+02 -0.44618617137E+02  0.64324745892E+03  0.65232955015E+03  0.00000000000E+00 0. -1.
          4    1    6    6  503    0 -0.61867655779E+02  0.17463191336E+03 -0.12687608918E+03  0.22454721998E+03  0.00000000000E+00 0. -1.
         -4    1    6    6    0  503 -0.63506317520E+02  0.30966567531E+02 -0.74845696048E+02  0.10292647321E+03  0.00000000000E+00 0.  1.
<mgrwt>
<rscale>  0 0.11219864E+04</rscale>
<asrwt>0</asrwt>
<pdfrwt beam="1">  1        2 0.15868700E+00 0.11219864E+04</pdfrwt>
<pdfrwt beam="2">  1       -1 0.46940437E-01 0.11219864E+04</pdfrwt>
<totfact> 0.12297599E+02</totfact>
</mgrwt>
</event>
<event>
12    7  0.1701638E-007  0.3056956E+04  0.7818608E-02  0.8227651E-01
          2   -1    0    0  501    0  0.00000000000E+00  0.00000000000E+00  0.24544302054E+04  0.24544302054E+04  0.00000000000E+00 0. -1.
         -1   -1    0    0    0  501 -0.00000000000E+00 -0.00000000000E+00 -0.95184848297E+03  0.95184848297E+03  0.00000000000E+00 0.  1.
         24    2    1    2    0    0  0.85921962524E+03 -0.10457324383E+04  0.10939250988E+04  0.17421291355E+04  0.80790506870E+02 0.  0.
        254    2    1    2    0    0 -0.85921962524E+03  0.10457324383E+04  0.40865662364E+03  0.16641495529E+04  0.87782617952E+03 0.  0.
         23    2    4    4    0    0  0.63276660301E+02  0.18555428962E+03 -0.16782480403E+03  0.27408901049E+03  0.92332500711E+02 0.  0.
         23    2    4    4    0    0 -0.92249628554E+03  0.86017814868E+03  0.57648142767E+03  0.13900605424E+04  0.95034892633E+02 0.  0.
          4    1    3    3  502    0  0.15615953285E+02 -0.65111533446E+01  0.91878725500E+01  0.19252795041E+02  0.00000000000E+00 0. -1.
         -3    1    3    3    0  502  0.84360367195E+03 -0.10392212850E+04  0.10847372263E+04  0.17228763404E+04  0.00000000000E+00 0.  1.
         13    1    5    5    0    0  0.45533415549E+02  0.58528371926E+02 -0.16953909208E+02  0.76067715158E+02  0.00000000000E+00 0. -1.
        -13    1    5    5    0    0  0.17743244752E+02  0.12702591769E+03 -0.15087089482E+03  0.19802129533E+03  0.00000000000E+00 0.  1.
          1    1    6    6  503    0 -0.36796163013E+03  0.36769315871E+03  0.19043248892E+03  0.55394815014E+03  0.00000000000E+00 0. -1.
         -1    1    6    6    0  503 -0.55453465541E+03  0.49248498998E+03  0.38604893874E+03  0.83611239227E+03  0.00000000000E+00 0.  1.
<mgrwt>
<rscale>  0 0.30569564E+04</rscale>
<asrwt>0</asrwt>
<pdfrwt beam="1">  1        2 0.37760464E+00 0.30569564E+04</pdfrwt>
<pdfrwt beam="2">  1       -1 0.14643823E+00 0.30569564E+04</pdfrwt>
<totfact> 0.13329111E+00</totfact>
</mgrwt>
</event>
<event>
12    7  0.1701638E-007  0.1536831E+04  0.7818608E-02  0.8860324E-01
          2   -1    0    0  501    0  0.00000000000E+00  0.00000000000E+00  0.44265326034E+04  0.44265326034E+04  0.00000000000E+00 0. -1.
         -1   -1    0    0    0  501 -0.00000000000E+00 -0.00000000000E+00 -0.13339161650E+03  0.13339161650E+03  0.00000000000E+00 0.  1.
         24    2    1    2    0    0  0.13707789384E+03  0.35636092374E+03  0.45709116516E+03  0.60118121224E+03  0.81872215847E+02 0.  0.
        254    2    1    2    0    0 -0.13707789384E+03 -0.35636092374E+03  0.38360498218E+04  0.39587430077E+04  0.90032466865E+03 0.  0.
         23    2    4    4    0    0  0.14131232865E+03 -0.51950450806E+03  0.31296873053E+04  0.31769751182E+04  0.91510459861E+02 0.  0.
         23    2    4    4    0    0 -0.27839022249E+03  0.16314358432E+03  0.70636251643E+03  0.78176788952E+03  0.89978238371E+02 0.  0.
          2    1    3    3  502    0  0.39815487592E+02  0.34561756795E+02  0.81994040500E+02  0.97482361289E+02  0.00000000000E+00 0. -1.
         -1    1    3    3    0  502  0.97262406248E+02  0.32179916694E+03  0.37509712466E+03  0.50369885095E+03  0.00000000000E+00 0.  1.
         13    1    5    5    0    0  0.13639176194E+03 -0.33998015938E+03  0.20600774936E+04  0.20923930083E+04  0.00000000000E+00 0. -1.
        -13    1    5    5    0    0  0.49205667030E+01 -0.17952434868E+03  0.10696098117E+04  0.10845821099E+04  0.00000000000E+00 0.  1.
          2    1    6    6  503    0  0.58446889257E+01  0.11183162980E+02  0.29479783170E+02  0.32066823020E+02  0.00000000000E+00 0.  1.
         -2    1    6    6    0  503 -0.28423491141E+03  0.15196042134E+03  0.67688273326E+03  0.74970106650E+03  0.00000000000E+00 0. -1.
<mgrwt>
<rscale>  0 0.15368309E+04</rscale>
<asrwt>0</asrwt>
<pdfrwt beam="1">  1        2 0.68100490E+00 0.15368309E+04</pdfrwt>
<pdfrwt beam="2">  1       -1 0.20521791E-01 0.15368309E+04</pdfrwt>
<totfact> 0.32144527E+00</totfact>
</mgrwt>
</event>
<event>
12    7  0.1701638E-007  0.2096054E+04  0.7818608E-02  0.8562984E-01
          2   -1    0    0  501    0  0.00000000000E+00  0.00000000000E+00  0.23370180457E+04  0.23370180457E+04  0.00000000000E+00 0. -1.
         -1   -1    0    0    0  501 -0.00000000000E+00 -0.00000000000E+00 -0.46998367193E+03  0.46998367193E+03  0.00000000000E+00 0.  1.
         24    2    1    2    0    0  0.55578789428E+03  0.54687477078E+03  0.12281069591E+04  0.14569204165E+04  0.79988740365E+02 0.  0.
        254    2    1    2    0    0 -0.55578789428E+03 -0.54687477078E+03  0.63892741471E+03  0.13500813012E+04  0.89806407356E+03 0.  0.
         23    2    4    4    0    0 -0.65739285038E+03 -0.60854745561E+03  0.73981689480E+03  0.11654861958E+04  0.92377861520E+02 0.  0.
         23    2    4    4    0    0  0.10160495610E+03  0.61672684828E+02 -0.10088948009E+03  0.18459510540E+03  0.98841178590E+02 0.  0.
          4    1    3    3  502    0  0.35243083739E+03  0.31869976460E+03  0.80865911126E+03  0.93792675264E+03  0.00000000000E+00 0. -1.
         -3    1    3    3    0  502  0.20335705689E+03  0.22817500618E+03  0.41944784784E+03  0.51899366383E+03  0.00000000000E+00 0.  1.
         13    1    5    5    0    0 -0.64405913859E+03 -0.59005054638E+03  0.69902023847E+03  0.11187498000E+04  0.00000000000E+00 0. -1.
        -13    1    5    5    0    0 -0.13333711788E+02 -0.18496909232E+02  0.40796656327E+02  0.46736395760E+02  0.00000000000E+00 0.  1.
          2    1    6    6  503    0  0.34248247281E+02  0.42889585763E+02 -0.10067935249E+03  0.11466817791E+03  0.00000000000E+00 0. -1.
         -2    1    6    6    0  503  0.67356708822E+02  0.18783099065E+02 -0.21012760354E+00  0.69926927485E+02  0.00000000000E+00 0.  1.
<mgrwt>
<rscale>  0 0.20960537E+04</rscale>
<asrwt>0</asrwt>
<pdfrwt beam="1">  1        2 0.35954123E+00 0.20960537E+04</pdfrwt>
<pdfrwt beam="2">  1       -1 0.72305181E-01 0.20960537E+04</pdfrwt>
<totfact> 0.87454772E+00</totfact>
</mgrwt>
</event>
<event>
12    7  0.1701638E-007  0.2005175E+04  0.7818608E-02  0.8604205E-01
          2   -1    0    0  501    0  0.00000000000E+00  0.00000000000E+00  0.20206387352E+04  0.20206387352E+04  0.00000000000E+00 0. -1.
         -1   -1    0    0    0  501 -0.00000000000E+00 -0.00000000000E+00 -0.49745750842E+03  0.49745750842E+03  0.00000000000E+00 0.  1.
         24    2    1    2    0    0 -0.46551615083E+03 -0.55138856934E+03  0.10446728744E+04  0.12722010958E+04  0.80122234569E+02 0.  0.
        254    2    1    2    0    0  0.46551615083E+03  0.55138856934E+03  0.47850835237E+03  0.12458951478E+04  0.89585145814E+03 0.  0.
         23    2    4    4    0    0 -0.22649135138E+03  0.18099300279E+03 -0.32261603624E+02  0.30525795333E+03  0.89915558696E+02 0.  0.
         23    2    4    4    0    0  0.69200750221E+03  0.37039556655E+03  0.51076995600E+03  0.94063719452E+03  0.88572709780E+02 0.  0.
          2    1    3    3  502    0 -0.39410751981E+03 -0.49132465561E+03  0.94497399420E+03  0.11356480547E+04  0.00000000000E+00 0. -1.
         -1    1    3    3    0  502 -0.71408631027E+02 -0.60063913725E+02  0.99698880226E+02  0.13655304111E+03  0.00000000000E+00 0.  1.
         13    1    5    5    0    0 -0.21990216655E+03  0.17351221923E+03 -0.50351810394E+02  0.28460280723E+03  0.00000000000E+00 0.  1.
        -13    1    5    5    0    0 -0.65891848324E+01  0.74807835576E+01  0.18090206770E+02  0.20655146099E+02  0.00000000000E+00 0. -1.
          1    1    6    6  503    0  0.33228368149E+03  0.15566650807E+03  0.28584480578E+03  0.46513628079E+03  0.00000000000E+00 0. -1.
         -1    1    6    6    0  503  0.35972382072E+03  0.21472905847E+03  0.22492515022E+03  0.47550091372E+03  0.00000000000E+00 0.  1.
<mgrwt>
<rscale>  0 0.20051752E+04</rscale>
<asrwt>0</asrwt>
<pdfrwt beam="1">  1        2 0.31086749E+00 0.20051752E+04</pdfrwt>
<pdfrwt beam="2">  1       -1 0.76531925E-01 0.20051752E+04</pdfrwt>
<totfact> 0.11788213E+01</totfact>
</mgrwt>
</event>
<event>
12    7  0.1701638E-007  0.2004812E+04  0.7818608E-02  0.8604374E-01
          2   -1    0    0  501    0  0.00000000000E+00  0.00000000000E+00  0.33001513502E+04  0.33001513502E+04  0.00000000000E+00 0. -1.
         -1   -1    0    0    0  501 -0.00000000000E+00 -0.00000000000E+00 -0.30447631080E+03  0.30447631080E+03  0.00000000000E+00 0.  1.
         24    2    1    2    0    0  0.18714880895E+03 -0.26183813544E+03  0.25141116708E+04  0.25359234347E+04  0.81032630876E+02 0.  0.
        254    2    1    2    0    0 -0.18714880895E+03  0.26183813544E+03  0.48156336853E+03  0.10687042263E+04  0.89813226170E+03 0.  0.
         23    2    4    4    0    0 -0.36166683030E+03  0.18975209418E+03 -0.11648101988E+03  0.43466422873E+03  0.92500866813E+02 0.  0.
         23    2    4    4    0    0  0.17451802136E+03  0.72086041260E+02  0.59804438841E+03  0.63403999755E+03  0.93256049998E+02 0.  0.
          2    1    3    3  502    0  0.90507248216E+02 -0.11247637568E+03  0.14352411189E+04  0.14424838185E+04  0.00000000000E+00 0. -1.
         -1    1    3    3    0  502  0.96641560730E+02 -0.14936175976E+03  0.10788705519E+04  0.10934396162E+04  0.00000000000E+00 0.  1.
         13    1    5    5    0    0 -0.22936859379E+03  0.84250792136E+02 -0.10214912750E+03  0.26484446764E+03  0.00000000000E+00 0.  1.
        -13    1    5    5    0    0 -0.13229823652E+03  0.10550130205E+03 -0.14331892380E+02  0.16981976109E+03  0.00000000000E+00 0. -1.
          2    1    6    6  503    0  0.13358492894E+03  0.94767172074E+02  0.46244303964E+03  0.49059078167E+03  0.00000000000E+00 0.  1.
         -2    1    6    6    0  503  0.40933092421E+02 -0.22681130814E+02  0.13560134876E+03  0.14344921588E+03  0.00000000000E+00 0. -1.
<mgrwt>
<rscale>  0 0.20048121E+04</rscale>
<asrwt>0</asrwt>
<pdfrwt beam="1">  1        2 0.50771557E+00 0.20048121E+04</pdfrwt>
<pdfrwt beam="2">  1       -1 0.46842512E-01 0.20048121E+04</pdfrwt>
<totfact> 0.53685781E+00</totfact>
</mgrwt>
</event>
<event>
12    7  0.1701638E-007  0.1240712E+04  0.7818608E-02  0.9077949E-01
         -1   -1    0    0    0  501 -0.00000000000E+00  0.00000000000E+00  0.40329532629E+03  0.40329532629E+03  0.00000000000E+00 0.  1.
          2   -1    0    0  501    0  0.00000000000E+00 -0.00000000000E+00 -0.95424216609E+03  0.95424216609E+03  0.00000000000E+00 0. -1.
         24    2    1    2    0    0 -0.36086170702E+02 -0.15355440388E+03 -0.40118119312E+03  0.43854871794E+03  0.80606833642E+02 0.  0.
        254    2    1    2    0    0  0.36086170702E+02  0.15355440388E+03 -0.14976564669E+03  0.91898877444E+03  0.89287706430E+03 0.  0.
         23    2    4    4    0    0  0.28895682643E+03 -0.24839390654E+03 -0.18682224668E+03  0.43409676131E+03  0.91333816192E+02 0.  0.
         23    2    4    4    0    0 -0.25287065573E+03  0.40194831042E+03  0.37056599995E+02  0.48489201313E+03  0.90780284285E+02 0.  0.
          4    1    3    3  502    0 -0.53725339085E+02 -0.13097682246E+03 -0.27669254552E+03  0.31080557400E+03  0.00000000000E+00 0. -1.
         -3    1    3    3    0  502  0.17639168382E+02 -0.22577581419E+02 -0.12448864760E+03  0.12774314394E+03  0.00000000000E+00 0.  1.
         13    1    5    5    0    0  0.70802228759E+02 -0.53974736832E+02 -0.89143836567E+02  0.12598750498E+03  0.00000000000E+00 0.  1.
        -13    1    5    5    0    0  0.21815459767E+03 -0.19441916971E+03 -0.97678410116E+02  0.30810925633E+03  0.00000000000E+00 0. -1.
          4    1    6    6  503    0 -0.22973284281E+03  0.34762310547E+03  0.29182717197E+01  0.41668635547E+03  0.00000000000E+00 0. -1.
         -4    1    6    6    0  503 -0.23137812912E+02  0.54325204950E+02  0.34138328276E+02  0.68205657659E+02  0.00000000000E+00 0.  1.
<mgrwt>
<rscale>  0 0.12407117E+04</rscale>
<asrwt>0</asrwt>
<pdfrwt beam="1">  1        2 0.14680648E+00 0.12407117E+04</pdfrwt>
<pdfrwt beam="2">  1       -1 0.62045436E-01 0.12407117E+04</pdfrwt>
<totfact> 0.79808848E+01</totfact>
</mgrwt>
</event>
<event>
12    7  0.1701638E-007  0.1321279E+04  0.7818608E-02  0.9012859E-01
         -3   -1    0    0    0  501 -0.00000000000E+00  0.00000000000E+00  0.19985348281E+04  0.19985348281E+04  0.00000000000E+00 0.  1.
          4   -1    0    0  501    0  0.00000000000E+00 -0.00000000000E+00 -0.21838241099E+03  0.21838241099E+03  0.00000000000E+00 0. -1.
         24    2    1    2    0    0  0.33351200434E+03 -0.88457151239E+02  0.57901898099E+03  0.67869763829E+03  0.79451741458E+02 0.  0.
        254    2    1    2    0    0 -0.33351200434E+03  0.88457151239E+02  0.12011334361E+04  0.15382196008E+04  0.89685176270E+03 0.  0.
         23    2    4    4    0    0 -0.37517389109E+03 -0.31955152236E+03  0.43196446585E+03  0.66181062528E+03  0.92365469590E+02 0.  0.
         23    2    4    4    0    0  0.41661886748E+02  0.40800867360E+03  0.76916897023E+03  0.87640897549E+03  0.90912028950E+02 0.  0.
          2    1    3    3  502    0  0.10556048575E+03 -0.12589007885E+02  0.11792784693E+03  0.15877177442E+03  0.00000000000E+00 0. -1.
         -1    1    3    3    0  502  0.22795151859E+03 -0.75868143354E+02  0.46109113406E+03  0.51992586386E+03  0.00000000000E+00 0.  1.
         13    1    5    5    0    0 -0.28122789271E+03 -0.27338482733E+03  0.30244053699E+03  0.49527635707E+03  0.00000000000E+00 0. -1.
        -13    1    5    5    0    0 -0.93945998382E+02 -0.46166695033E+02  0.12952392886E+03  0.16653426821E+03  0.00000000000E+00 0.  1.
          2    1    6    6  503    0  0.54828108045E+02  0.38876154517E+03  0.69000678980E+03  0.79388351186E+03  0.00000000000E+00 0. -1.
         -2    1    6    6    0  503 -0.13166221297E+02  0.19247128431E+02  0.79162180438E+02  0.82525463633E+02  0.00000000000E+00 0.  1.
<mgrwt>
<rscale>  0 0.13212795E+04</rscale>
<asrwt>0</asrwt>
<pdfrwt beam="1">  1        4 0.33597295E-01 0.13212795E+04</pdfrwt>
<pdfrwt beam="2">  1       -3 0.30746688E+00 0.13212795E+04</pdfrwt>
<totfact> 0.67334526E-01</totfact>
</mgrwt>
</event>
<event>
12    7  0.1701638E-007  0.3889528E+04  0.7818608E-02  0.8027211E-01
          2   -1    0    0  501    0  0.00000000000E+00  0.00000000000E+00  0.32340365063E+04  0.32340365063E+04  0.00000000000E+00 0. -1.
         -1   -1    0    0    0  501 -0.00000000000E+00 -0.00000000000E+00 -0.11694694122E+04  0.11694694122E+04  0.00000000000E+00 0.  1.
         24    2    1    2    0    0 -0.70075614052E+03 -0.14094810531E+04  0.20562816212E+04  0.25908689726E+04  0.81313711273E+02 0.  0.
        254    2    1    2    0    0  0.70075614052E+03  0.14094810531E+04  0.82854728722E+01  0.18126369460E+04  0.89882592383E+03 0.  0.
         23    2    4    4    0    0  0.67752567997E+03  0.11027029726E+04 -0.33773099290E+03  0.13409134863E+04  0.94825425405E+02 0.  0.
         23    2    4    4    0    0  0.23230460547E+02  0.30677808050E+03  0.34601646577E+03  0.47172345971E+03  0.90239585995E+02 0.  0.
          2    1    3    3  502    0 -0.68900419485E+03 -0.13579971456E+04  0.19740660589E+04  0.24931545947E+04  0.00000000000E+00 0. -1.
         -1    1    3    3    0  502 -0.11751945668E+02 -0.51483907446E+02  0.82215562350E+02  0.97714377885E+02  0.00000000000E+00 0.  1.
         13    1    5    5    0    0 -0.26722825581E+01  0.73869840646E+01  0.74207217855E+00  0.78904561819E+01  0.00000000000E+00 0. -1.
        -13    1    5    5    0    0  0.68019796253E+03  0.10953159885E+04 -0.33847306508E+03  0.13330230301E+04  0.00000000000E+00 0.  1.
          2    1    6    6  503    0  0.55127538136E+02  0.17239797403E+03  0.17340980193E+03  0.25066125811E+03  0.00000000000E+00 0. -1.
         -2    1    6    6    0  503 -0.31897077590E+02  0.13438010647E+03  0.17260666384E+03  0.22106220160E+03  0.00000000000E+00 0.  1.
<mgrwt>
<rscale>  0 0.38895279E+04</rscale>
<asrwt>0</asrwt>
<pdfrwt beam="1">  1        2 0.49754407E+00 0.38895279E+04</pdfrwt>
<pdfrwt beam="2">  1       -1 0.17991837E+00 0.38895279E+04</pdfrwt>
<totfact> 0.23169866E-01</totfact>
</mgrwt>
</event>
<event>
12    7  0.1701638E-007  0.1987074E+04  0.7818608E-02  0.8612688E-01
          2   -1    0    0  501    0  0.00000000000E+00  0.00000000000E+00  0.11060063962E+04  0.11060063962E+04  0.00000000000E+00 0. -1.
         -1   -1    0    0    0  501 -0.00000000000E+00 -0.00000000000E+00 -0.89250421913E+03  0.89250421913E+03  0.00000000000E+00 0.  1.
         24    2    1    2    0    0 -0.39621496296E+03  0.32291925043E+03 -0.51723064386E+03  0.73154333342E+03  0.79780765584E+02 0.  0.
        254    2    1    2    0    0  0.39621496296E+03 -0.32291925043E+03  0.73073282094E+03  0.12669672819E+04  0.89998472136E+03 0.  0.
         23    2    4    4    0    0  0.53217004526E+03 -0.52799759402E+03  0.63859635844E+03  0.98890747547E+03  0.90256687592E+02 0.  0.
         23    2    4    4    0    0 -0.13595508231E+03  0.20507834359E+03  0.92136462500E+02  0.27805980645E+03  0.91034151986E+02 0.  0.
          2    1    3    3  502    0 -0.14597137134E+02  0.11747597655E+01 -0.31041175756E+01  0.14969703369E+02  0.00000000000E+00 0. -1.
         -1    1    3    3    0  502 -0.38161782582E+03  0.32174449066E+03 -0.51412652628E+03  0.71657363005E+03  0.00000000000E+00 0.  1.
         13    1    5    5    0    0  0.21919984059E+03 -0.16395653013E+03  0.20474302863E+03  0.34183332439E+03  0.00000000000E+00 0. -1.
        -13    1    5    5    0    0  0.31297020467E+03 -0.36404106389E+03  0.43385332981E+03  0.64707415108E+03  0.00000000000E+00 0.  1.
          4    1    6    6  503    0 -0.55070737140E+02  0.12986520265E+03  0.90504760652E+02  0.16759734082E+03  0.00000000000E+00 0.  1.
         -4    1    6    6    0  503 -0.80884345170E+02  0.75213140941E+02  0.16317018485E+01  0.11046246564E+03  0.00000000000E+00 0. -1.
<mgrwt>
<rscale>  0 0.19870736E+04</rscale>
<asrwt>0</asrwt>
<pdfrwt beam="1">  1        2 0.17015483E+00 0.19870736E+04</pdfrwt>
<pdfrwt beam="2">  1       -1 0.13730834E+00 0.19870736E+04</pdfrwt>
<totfact> 0.10102860E+01</totfact>
</mgrwt>
</event>
<event>
12    7  0.1701638E-007  0.1362813E+04  0.7818608E-02  0.8981185E-01
         -1   -1    0    0    0  501 -0.00000000000E+00  0.00000000000E+00  0.88083401145E+03  0.88083401145E+03  0.00000000000E+00 0.  1.
          2   -1    0    0  501    0  0.00000000000E+00 -0.00000000000E+00 -0.52713076055E+03  0.52713076055E+03  0.00000000000E+00 0. -1.
         24    2    1    2    0    0 -0.14616587390E+03  0.30246982800E+03  0.25720070177E+03  0.43035781920E+03  0.78760345419E+02 0.  0.
        254    2    1    2    0    0  0.14616587390E+03 -0.30246982800E+03  0.96502549129E+02  0.97760695279E+03  0.91298967826E+03 0.  0.
         23    2    4    4    0    0 -0.10692136329E+03 -0.35084680454E+03 -0.30937722805E+03  0.48870610259E+03  0.92702358631E+02 0.  0.
         23    2    4    4    0    0  0.25308723719E+03  0.48376976535E+02  0.40587977718E+03  0.48890085020E+03  0.88837865325E+02 0.  0.
          2    1    3    3  502    0 -0.14955138071E+03  0.28852577372E+03  0.22548014572E+03  0.39554270779E+03  0.00000000000E+00 0. -1.
         -1    1    3    3    0  502  0.33855068085E+01  0.13944054283E+02  0.31720556055E+02  0.34815111412E+02  0.00000000000E+00 0.  1.
         13    1    5    5    0    0 -0.11340626142E+03 -0.23304114293E+03 -0.19452498936E+03  0.32405111621E+03  0.00000000000E+00 0.  1.
        -13    1    5    5    0    0  0.64848981386E+01 -0.11780566160E+03 -0.11485223869E+03  0.16465498639E+03  0.00000000000E+00 0. -1.
          4    1    6    6  503    0  0.23206259011E+03  0.61687238250E+02  0.39381450218E+03  0.46124638017E+03  0.00000000000E+00 0.  1.
         -4    1    6    6    0  503  0.21024647083E+02 -0.13310261714E+02  0.12065274995E+02  0.27654470029E+02  0.00000000000E+00 0. -1.
<mgrwt>
<rscale>  0 0.13628128E+04</rscale>
<asrwt>0</asrwt>
<pdfrwt beam="1">  1        2 0.81097040E-01 0.13628128E+04</pdfrwt>
<pdfrwt beam="2">  1       -1 0.13551293E+00 0.13628128E+04</pdfrwt>
<totfact> 0.29467965E+01</totfact>
</mgrwt>
</event>
<event>
12    7  0.1701638E-007  0.1554929E+04  0.7818608E-02  0.8848725E-01
         -1   -1    0    0    0  501 -0.00000000000E+00  0.00000000000E+00  0.23484213758E+04  0.23484213758E+04  0.00000000000E+00 0.  1.
          2   -1    0    0  501    0  0.00000000000E+00 -0.00000000000E+00 -0.25738623786E+03  0.25738623786E+03  0.00000000000E+00 0. -1.
         24    2    1    2    0    0  0.45144418672E+03 -0.19061918608E+03  0.93767750764E+03  0.10607658019E+04  0.76468623245E+02 0.  0.
        254    2    1    2    0    0 -0.45144418672E+03  0.19061918608E+03  0.11533576303E+04  0.15450418117E+04  0.90376039348E+03 0.  0.
         23    2    4    4    0    0  0.10467521868E+03  0.28975147955E+03  0.82539038584E+03  0.88572814852E+03  0.91281119266E+02 0.  0.
         23    2    4    4    0    0 -0.55611940541E+03 -0.99132293466E+02  0.32796724445E+03  0.65931366322E+03  0.89643674582E+02 0.  0.
          2    1    3    3  502    0 -0.71595526196E-01  0.28904883819E+01  0.94533346639E+00  0.30419901985E+01  0.00000000000E+00 0. -1.
         -1    1    3    3    0  502  0.45151578225E+03 -0.19350967446E+03  0.93673217418E+03  0.10577238117E+04  0.00000000000E+00 0.  1.
         13    1    5    5    0    0  0.10510150234E+03  0.22678385179E+03  0.72836619181E+03  0.77006139405E+03  0.00000000000E+00 0. -1.
        -13    1    5    5    0    0 -0.42628365836E+00  0.62967627757E+02  0.97024194028E+02  0.11566675447E+03  0.00000000000E+00 0.  1.
          3    1    6    6  503    0 -0.49615645353E+03 -0.10213802865E+03  0.26267963863E+03  0.57061720604E+03  0.00000000000E+00 0. -1.
         -3    1    6    6    0  503 -0.59962951872E+02  0.30057351839E+01  0.65287605824E+02  0.88696457175E+02  0.00000000000E+00 0.  1.
<mgrwt>
<rscale>  0 0.15549294E+04</rscale>
<asrwt>0</asrwt>
<pdfrwt beam="1">  1        2 0.39597884E-01 0.15549294E+04</pdfrwt>
<pdfrwt beam="2">  1       -1 0.36129558E+00 0.15549294E+04</pdfrwt>
<totfact> 0.18854848E+00</totfact>
</mgrwt>
</event>
<event>
12    7  0.1701638E-007  0.2063054E+04  0.7818608E-02  0.8577695E-01
         -1   -1    0    0    0  501 -0.00000000000E+00  0.00000000000E+00  0.10332727578E+04  0.10332727578E+04  0.00000000000E+00 0.  1.
          2   -1    0    0  501    0  0.00000000000E+00 -0.00000000000E+00 -0.10297842437E+04  0.10297842437E+04  0.00000000000E+00 0. -1.
         24    2    1    2    0    0  0.26238301642E+03  0.69493864174E+03  0.37865264507E+03  0.83779701744E+03  0.82106356113E+02 0.  0.
        254    2    1    2    0    0 -0.26238301642E+03 -0.69493864174E+03 -0.37516413093E+03  0.12252599840E+04  0.89929380085E+03 0.  0.
         23    2    4    4    0    0 -0.52490054772E+03 -0.69991423663E+03 -0.22338663782E+03  0.90754001031E+03  0.91251064212E+02 0.  0.
         23    2    4    4    0    0  0.26251753130E+03  0.49755948868E+01 -0.15177749312E+03  0.31771997373E+03  0.94706723669E+02 0.  0.
          2    1    3    3  502    0  0.24356501998E+02  0.34095665537E+02  0.40344668390E+02  0.58167395209E+02  0.00000000000E+00 0. -1.
         -1    1    3    3    0  502  0.23802651443E+03  0.66084297621E+03  0.33830797668E+03  0.77962962223E+03  0.00000000000E+00 0.  1.
         13    1    5    5    0    0 -0.26347972647E+03 -0.27612342995E+03 -0.10001349383E+03  0.39454836684E+03  0.00000000000E+00 0.  1.
        -13    1    5    5    0    0 -0.26142082125E+03 -0.42379080668E+03 -0.12337314399E+03  0.51299164347E+03  0.00000000000E+00 0. -1.
          3    1    6    6  503    0  0.17559893142E+03  0.43123040066E+02 -0.75490185247E+02  0.19594220925E+03  0.00000000000E+00 0. -1.
         -3    1    6    6    0  503  0.86918599881E+02 -0.38147445179E+02 -0.76287307868E+02  0.12177776448E+03  0.00000000000E+00 0.  1.
<mgrwt>
<rscale>  0 0.20630541E+04</rscale>
<asrwt>0</asrwt>
<pdfrwt beam="1">  1        2 0.15842835E+00 0.20630541E+04</pdfrwt>
<pdfrwt beam="2">  1       -1 0.15896504E+00 0.20630541E+04</pdfrwt>
<totfact> 0.75634378E+00</totfact>
</mgrwt>
</event>
<event>
12    7  0.1701638E-007  0.1281261E+04  0.7818608E-02  0.9044558E-01
         -1   -1    0    0    0  501 -0.00000000000E+00  0.00000000000E+00  0.76218784830E+03  0.76218784830E+03  0.00000000000E+00 0.  1.
          2   -1    0    0  501    0  0.00000000000E+00 -0.00000000000E+00 -0.53846003142E+03  0.53846003142E+03  0.00000000000E+00 0. -1.
         24    2    1    2    0    0  0.17399303873E+03  0.27412152398E+03  0.75472620920E+02  0.34283550974E+03  0.80149128444E+02 0.  0.
        254    2    1    2    0    0 -0.17399303873E+03 -0.27412152398E+03  0.14825519596E+03  0.95781236999E+03  0.88882436147E+03 0.  0.
         23    2    4    4    0    0 -0.92927752457E+01 -0.26854327910E+03  0.49099662543E+03  0.56606567802E+03  0.84562504819E+02 0.  0.
         23    2    4    4    0    0 -0.16470026348E+03 -0.55782448860E+01 -0.34274142947E+03  0.39174669197E+03  0.94002604143E+02 0.  0.
          2    1    3    3  502    0  0.29642471152E+02  0.76807748524E+02 -0.11958919833E+02  0.83193281537E+02  0.00000000000E+00 0. -1.
         -1    1    3    3    0  502  0.14435056758E+03  0.19731377546E+03  0.87431540753E+02  0.25964222820E+03  0.00000000000E+00 0.  1.
         13    1    5    5    0    0 -0.21693293656E+02 -0.21147331830E+03  0.43945702902E+03  0.48817419401E+03  0.00000000000E+00 0. -1.
        -13    1    5    5    0    0  0.12400518410E+02 -0.57069960800E+02  0.51539596416E+02  0.77891484011E+02  0.00000000000E+00 0.  1.
          1    1    6    6  503    0 -0.19568635061E+02  0.21396835555E+02 -0.15792033786E+02  0.33017334554E+02  0.00000000000E+00 0.  1.
         -1    1    6    6    0  503 -0.14513162842E+03 -0.26975080441E+02 -0.32694939569E+03  0.35872935742E+03  0.00000000000E+00 0. -1.
<mgrwt>
<rscale>  0 0.12812614E+04</rscale>
<asrwt>0</asrwt>
<pdfrwt beam="1">  1        2 0.82840005E-01 0.12812614E+04</pdfrwt>
<pdfrwt beam="2">  1       -1 0.11725967E+00 0.12812614E+04</pdfrwt>
<totfact> 0.41501681E+01</totfact>
</mgrwt>
</event>
<event>
12    7  0.1701638E-007  0.1329695E+04  0.7818608E-02  0.9006343E-01
         -1   -1    0    0    0  501 -0.00000000000E+00  0.00000000000E+00  0.38756363510E+03  0.38756363510E+03  0.00000000000E+00 0.  1.
          2   -1    0    0  501    0  0.00000000000E+00 -0.00000000000E+00 -0.11405149082E+04  0.11405149082E+04  0.00000000000E+00 0. -1.
         24    2    1    2    0    0  0.14199827850E+03 -0.97121330409E+02  0.13634111467E+03  0.23404905458E+03  0.81203426552E+02 0.  0.
        254    2    1    2    0    0 -0.14199827850E+03  0.97121330409E+02 -0.88929238779E+03  0.12940294887E+04  0.92416194620E+03 0.  0.
         23    2    4    4    0    0 -0.52895063826E+03  0.62977568464E+02 -0.53029269115E+03  0.75740036945E+03  0.93220327746E+02 0.  0.
         23    2    4    4    0    0  0.38695235977E+03  0.34143761945E+02 -0.35899969663E+03  0.53662911928E+03  0.90510243960E+02 0.  0.
          4    1    3    3  502    0  0.11200806707E+03 -0.92120981740E+02  0.69919508570E+02  0.16099944113E+03  0.00000000000E+00 0. -1.
         -3    1    3    3    0  502  0.29990211425E+02 -0.50003486695E+01  0.66421606100E+02  0.73049613448E+02  0.00000000000E+00 0.  1.
         13    1    5    5    0    0 -0.33763604960E+03  0.84422592889E+02 -0.33059249262E+03  0.48001736672E+03  0.00000000000E+00 0. -1.
        -13    1    5    5    0    0 -0.19131458867E+03 -0.21445024424E+02 -0.19970019853E+03  0.27738300273E+03  0.00000000000E+00 0.  1.
          3    1    6    6  503    0  0.88691547506E+02 -0.29598571675E+02 -0.74680258699E+02  0.11966372501E+03  0.00000000000E+00 0. -1.
         -3    1    6    6    0  503  0.29826081226E+03  0.63742333620E+02 -0.28431943794E+03  0.41696539427E+03  0.00000000000E+00 0.  1.
<mgrwt>
<rscale>  0 0.13296949E+04</rscale>
<asrwt>0</asrwt>
<pdfrwt beam="1">  1        2 0.17546383E+00 0.13296949E+04</pdfrwt>
<pdfrwt beam="2">  1       -1 0.59625175E-01 0.13296949E+04</pdfrwt>
<totfact> 0.65442282E+01</totfact>
</mgrwt>
</event>
<event>
12    7  0.1701638E-007  0.1055489E+04  0.7818608E-02  0.9249695E-01
          2   -1    0    0  501    0  0.00000000000E+00  0.00000000000E+00  0.21568093048E+04  0.21568093048E+04  0.00000000000E+00 0. -1.
         -1   -1    0    0    0  501 -0.00000000000E+00 -0.00000000000E+00 -0.12913259200E+03  0.12913259200E+03  0.00000000000E+00 0.  1.
         24    2    1    2    0    0 -0.13422208332E+02  0.88150100519E+02  0.97144998531E+02  0.15367839574E+03  0.78925931596E+02 0.  0.
        254    2    1    2    0    0  0.13422208332E+02 -0.88150100519E+02  0.19305317143E+04  0.21322635011E+04  0.90091306032E+03 0.  0.
         23    2    4    4    0    0  0.32378056795E+03 -0.66953822726E+02  0.25908302557E+03  0.42970005105E+03  0.90561852766E+02 0.  0.
         23    2    4    4    0    0 -0.31035835962E+03 -0.21196277792E+02  0.16714486887E+04  0.17025634500E+04  0.90608988321E+02 0.  0.
          2    1    3    3  502    0 -0.26258756540E+02  0.28601185682E+02  0.82269730768E+02  0.90971746812E+02  0.00000000000E+00 0. -1.
         -1    1    3    3    0  502  0.12836548208E+02  0.59548914837E+02  0.14875267763E+02  0.62706648923E+02  0.00000000000E+00 0.  1.
         13    1    5    5    0    0  0.23577597125E+03 -0.75120891760E+02  0.22661868523E+03  0.33554356720E+03  0.00000000000E+00 0. -1.
        -13    1    5    5    0    0  0.88004596699E+02  0.81670690331E+01  0.32464340342E+02  0.94156483847E+02  0.00000000000E+00 0.  1.
          3    1    6    6  503    0 -0.16511623020E+03  0.24010024580E+01  0.65382260628E+03  0.67435386466E+03  0.00000000000E+00 0. -1.
         -3    1    6    6    0  503 -0.14524212942E+03 -0.23597280250E+02  0.10176260824E+04  0.10282095854E+04  0.00000000000E+00 0.  1.
<mgrwt>
<rscale>  0 0.10554892E+04</rscale>
<asrwt>0</asrwt>
<pdfrwt beam="1">  1        2 0.33181679E+00 0.10554892E+04</pdfrwt>
<pdfrwt beam="2">  1       -1 0.19866554E-01 0.10554892E+04</pdfrwt>
<totfact> 0.12868096E+02</totfact>
</mgrwt>
</event>
<event>
12    7  0.1701638E-007  0.2059710E+04  0.7818608E-02  0.8579202E-01
         -1   -1    0    0    0  501 -0.00000000000E+00  0.00000000000E+00  0.12967356386E+04  0.12967356386E+04  0.00000000000E+00 0.  1.
          2   -1    0    0  501    0  0.00000000000E+00 -0.00000000000E+00 -0.81790094808E+03  0.81790094808E+03  0.00000000000E+00 0. -1.
         24    2    1    2    0    0 -0.10745891242E+03  0.71975136600E+03  0.60738862629E+03  0.95109508951E+03  0.77919697242E+02 0.  0.
        254    2    1    2    0    0  0.10745891242E+03 -0.71975136600E+03 -0.12855393581E+03  0.11635414971E+04  0.89872868788E+03 0.  0.
         23    2    4    4    0    0 -0.12733642510E+03 -0.37780071758E+03  0.33940971871E+03  0.53151338737E+03  0.91430719329E+02 0.  0.
         23    2    4    4    0    0  0.23479533753E+03 -0.34195064842E+03 -0.46796365451E+03  0.63202810976E+03  0.91708522541E+02 0.  0.
          4    1    3    3  502    0 -0.62188612093E+02  0.25151513261E+03  0.25297388664E+03  0.36210920001E+03  0.00000000000E+00 0. -1.
         -3    1    3    3    0  502 -0.45270300330E+02  0.46823623339E+03  0.35441473965E+03  0.58898588950E+03  0.00000000000E+00 0.  1.
         13    1    5    5    0    0 -0.13816882270E+02 -0.13063092693E+03  0.15361539563E+03  0.20212133752E+03  0.00000000000E+00 0. -1.
        -13    1    5    5    0    0 -0.11351954283E+03 -0.24716979065E+03  0.18579432307E+03  0.32939204985E+03  0.00000000000E+00 0.  1.
          4    1    6    6  503    0  0.51341924969E+02 -0.14359268207E+03 -0.19988647526E+03  0.25141490527E+03  0.00000000000E+00 0. -1.
         -4    1    6    6    0  503  0.18345341256E+03 -0.19835796635E+03 -0.26807717926E+03  0.38061320449E+03  0.00000000000E+00 0.  1.
<mgrwt>
<rscale>  0 0.20597100E+04</rscale>
<asrwt>0</asrwt>
<pdfrwt beam="1">  1        2 0.12583092E+00 0.20597100E+04</pdfrwt>
<pdfrwt beam="2">  1       -1 0.19949779E+00 0.20597100E+04</pdfrwt>
<totfact> 0.53520764E+00</totfact>
</mgrwt>
</event>
<event>
12    7  0.2501391E-007  0.2221500E+04  0.7818608E-02  0.8509532E-01
         -1   -1    0    0    0  501 -0.00000000000E+00  0.00000000000E+00  0.47714789686E+03  0.47714789686E+03  0.00000000000E+00 0.  1.
          2   -1    0    0  501    0  0.00000000000E+00 -0.00000000000E+00 -0.25857089127E+04  0.25857089127E+04  0.00000000000E+00 0. -1.
         24    2    1    2    0    0 -0.60902451759E+03  0.45885877992E+03 -0.15982222241E+03  0.78292180290E+03  0.77208573015E+02 0.  0.
        254    2    1    2    0    0  0.60902451759E+03 -0.45885877992E+03 -0.19487387934E+04  0.22799350066E+04  0.90501851178E+03 0.  0.
         23    2    4    4    0    0  0.29083174450E+03 -0.58085836662E+03 -0.17639418511E+04  0.18820475364E+04  0.92911407682E+02 0.  0.
         23    2    4    4    0    0  0.31819277309E+03  0.12199958670E+03 -0.18479694231E+03  0.39788747021E+03  0.89632522323E+02 0.  0.
          2    1    3    3  502    0 -0.22298392199E+02  0.46707754780E+01  0.38468381275E+01  0.23104817719E+02  0.00000000000E+00 0. -1.
         -1    1    3    3    0  502 -0.58672612539E+03  0.45418800444E+03 -0.16366906053E+03  0.75981698518E+03  0.00000000000E+00 0.  1.
         13    1    5    5    0    0  0.17448897409E+03 -0.39844624152E+03 -0.12815925881E+04  0.13533977137E+04  0.00000000000E+00 0. -1.
        -13    1    5    5    0    0  0.11634277040E+03 -0.18241212510E+03 -0.48234926294E+03  0.52864982273E+03  0.00000000000E+00 0.  1.
          4    1    6    6  503    0  0.32067835492E+03  0.11317101317E+03 -0.18749710187E+03  0.38832647186E+03  0.00000000000E+00 0. -1.
         -4    1    6    6    0  503 -0.24855818329E+01  0.88285735323E+01  0.27001595640E+01  0.95609983440E+01  0.00000000000E+00 0.  1.
<mgrwt>
<rscale>  0 0.22215000E+04</rscale>
<asrwt>0</asrwt>
<pdfrwt beam="1">  1        2 0.39780138E+00 0.22215000E+04</pdfrwt>
<pdfrwt beam="2">  1       -1 0.73407368E-01 0.22215000E+04</pdfrwt>
<totfact> 0.60244997E+00</totfact>
</mgrwt>
</event>
<event>
12    7  0.1701638E-007  0.2483334E+04  0.7818608E-02  0.8408947E-01
          2   -1    0    0  501    0  0.00000000000E+00  0.00000000000E+00  0.12337088535E+04  0.12337088535E+04  0.00000000000E+00 0. -1.
         -1   -1    0    0    0  501 -0.00000000000E+00 -0.00000000000E+00 -0.12496760372E+04  0.12496760372E+04  0.00000000000E+00 0.  1.
         24    2    1    2    0    0  0.54889543357E+03  0.36516487800E+03 -0.85202393417E+03  0.10798830155E+04  0.74638848667E+02 0.  0.
        254    2    1    2    0    0 -0.54889543357E+03 -0.36516487800E+03  0.83605675051E+03  0.14035018751E+04  0.91443700619E+03 0.  0.
         23    2    4    4    0    0  0.12849887292E+03 -0.21366256388E+03 -0.55037116631E+02  0.27034569265E+03  0.88848510293E+02 0.  0.
         23    2    4    4    0    0 -0.67739430650E+03 -0.15150231412E+03  0.89109386714E+03  0.11331561825E+04  0.90435923019E+02 0.  0.
          4    1    3    3  502    0  0.10169705874E+03  0.58981785417E+02 -0.20029305685E+03  0.23224653149E+03  0.00000000000E+00 0. -1.
         -3    1    3    3    0  502  0.44719837484E+03  0.30618309258E+03 -0.65173087732E+03  0.84763648405E+03  0.00000000000E+00 0.  1.
         13    1    5    5    0    0  0.10332870304E+03 -0.14670993245E+03  0.10531892653E+01  0.17944841699E+03  0.00000000000E+00 0.  1.
        -13    1    5    5    0    0  0.25170169878E+02 -0.66952631435E+02 -0.56090305897E+02  0.90897275665E+02  0.00000000000E+00 0. -1.
          1    1    6    6  503    0 -0.22789722493E+02  0.59460687172E+01  0.13829599369E+02  0.27312726030E+02  0.00000000000E+00 0. -1.
         -1    1    6    6    0  503 -0.65460458400E+03 -0.15744838284E+03  0.87726426778E+03  0.11058434564E+04  0.00000000000E+00 0.  1.
<mgrwt>
<rscale>  0 0.24833336E+04</rscale>
<asrwt>0</asrwt>
<pdfrwt beam="1">  1        2 0.18980136E+00 0.24833336E+04</pdfrwt>
<pdfrwt beam="2">  1       -1 0.19225785E+00 0.24833336E+04</pdfrwt>
<totfact> 0.31360964E+00</totfact>
</mgrwt>
</event>
<event>
12    7  0.1701638E-007  0.4682933E+04  0.7818608E-02  0.7879370E-01
          2   -1    0    0  501    0  0.00000000000E+00  0.00000000000E+00  0.34193950676E+04  0.34193950676E+04  0.00000000000E+00 0. -1.
         -1   -1    0    0    0  501 -0.00000000000E+00 -0.00000000000E+00 -0.16033439209E+04  0.16033439209E+04  0.00000000000E+00 0.  1.
         24    2    1    2    0    0  0.18532640471E+03  0.18782371987E+04  0.22090834328E+04  0.29066734445E+04  0.81117502160E+02 0.  0.
        254    2    1    2    0    0 -0.18532640471E+03 -0.18782371987E+04 -0.39303228611E+03  0.21160655439E+04  0.87243232255E+03 0.  0.
         23    2    4    4    0    0  0.34250145531E+03 -0.74099404092E+03 -0.18337609789E+03  0.84170421589E+03  0.91977052603E+02 0.  0.
         23    2    4    4    0    0 -0.52782786002E+03 -0.11372431578E+04 -0.20965618822E+03  0.12743613281E+04  0.90093437099E+02 0.  0.
          4    1    3    3  502    0  0.11275728634E+03  0.13558895420E+04  0.15455880780E+04  0.20591243679E+04  0.00000000000E+00 0. -1.
         -3    1    3    3    0  502  0.72569118372E+02  0.52234765672E+03  0.66349535478E+03  0.84754907659E+03  0.00000000000E+00 0.  1.
         13    1    5    5    0    0  0.30231207415E+03 -0.64477384890E+03 -0.12767113937E+03  0.72348173870E+03  0.00000000000E+00 0. -1.
        -13    1    5    5    0    0  0.40189381164E+02 -0.96220192015E+02 -0.55704958517E+02  0.11822247719E+03  0.00000000000E+00 0.  1.
          2    1    6    6  503    0 -0.29247222731E+03 -0.54060863232E+03 -0.12758261628E+03  0.62775394946E+03  0.00000000000E+00 0. -1.
         -2    1    6    6    0  503 -0.23535563272E+03 -0.59663452548E+03 -0.82073571938E+02  0.64660737859E+03  0.00000000000E+00 0.  1.
<mgrwt>
<rscale>  0 0.46829334E+04</rscale>
<asrwt>0</asrwt>
<pdfrwt beam="1">  1        2 0.52606078E+00 0.46829334E+04</pdfrwt>
<pdfrwt beam="2">  1       -1 0.24666830E+00 0.46829334E+04</pdfrwt>
<totfact> 0.57370479E-02</totfact>
</mgrwt>
</event>
<event>
12    7  0.1701638E-007  0.2167882E+04  0.7818608E-02  0.8531917E-01
         -1   -1    0    0    0  501 -0.00000000000E+00  0.00000000000E+00  0.52507649821E+03  0.52507649821E+03  0.00000000000E+00 0.  1.
          2   -1    0    0  501    0  0.00000000000E+00 -0.00000000000E+00 -0.22376318798E+04  0.22376318798E+04  0.00000000000E+00 0. -1.
         24    2    1    2    0    0 -0.74923636144E+03 -0.56234401824E+00 -0.95844003808E+02  0.75915147699E+03  0.75956898450E+02 0.  0.
        254    2    1    2    0    0  0.74923636144E+03  0.56234401824E+00 -0.16167113777E+04  0.20035569010E+04  0.91603991999E+03 0.  0.
         23    2    4    4    0    0 -0.18770081182E+02 -0.27077394967E+03 -0.78530288479E+03  0.83610161073E+03  0.93243953429E+02 0.  0.
         23    2    4    4    0    0  0.76800644262E+03  0.27133629368E+03 -0.83140849296E+03  0.11674552902E+04  0.90854237056E+02 0.  0.
          2    1    3    3  502    0 -0.29372956932E+03 -0.21051427090E+02 -0.68619687451E+02  0.30237209524E+03  0.00000000000E+00 0. -1.
         -1    1    3    3    0  502 -0.45550679212E+03  0.20489083072E+02 -0.27224316358E+02  0.45677938175E+03  0.00000000000E+00 0.  1.
         13    1    5    5    0    0 -0.43543779092E+01  0.43654439764E+01 -0.58591881276E+02  0.58915416145E+02  0.00000000000E+00 0. -1.
        -13    1    5    5    0    0 -0.14415703272E+02 -0.27513939364E+03 -0.72671100351E+03  0.77718619459E+03  0.00000000000E+00 0.  1.
          1    1    6    6  503    0  0.30112542333E+03  0.14090305941E+03 -0.38218363334E+03  0.50655159887E+03  0.00000000000E+00 0. -1.
         -1    1    6    6    0  503  0.46688101929E+03  0.13043323427E+03 -0.44922485962E+03  0.66090369138E+03  0.00000000000E+00 0.  1.
<mgrwt>
<rscale>  0 0.21678818E+04</rscale>
<asrwt>0</asrwt>
<pdfrwt beam="1">  1        2 0.34425106E+00 0.21678818E+04</pdfrwt>
<pdfrwt beam="2">  1       -1 0.80781000E-01 0.21678818E+04</pdfrwt>
<totfact> 0.78362723E+00</totfact>
</mgrwt>
</event>
<event>
12    7  0.1701638E-007  0.1436409E+04  0.7818608E-02  0.8927877E-01
         -1   -1    0    0    0  501 -0.00000000000E+00  0.00000000000E+00  0.12680966669E+03  0.12680966669E+03  0.00000000000E+00 0.  1.
          2   -1    0    0  501    0  0.00000000000E+00 -0.00000000000E+00 -0.40676545072E+04  0.40676545072E+04  0.00000000000E+00 0. -1.
         24    2    1    2    0    0 -0.42680454783E+03  0.17919504518E+02 -0.13956213258E+04  0.14617249992E+04  0.79986607703E+02 0.  0.
        254    2    1    2    0    0  0.42680454783E+03 -0.17919504518E+02 -0.25452235146E+04  0.27327391747E+04  0.89845279597E+03 0.  0.
         23    2    4    4    0    0  0.47671154792E+03  0.20079174800E+03 -0.71580526712E+03  0.88746570658E+03  0.87446977856E+02 0.  0.
         23    2    4    4    0    0 -0.49907000082E+02 -0.21871125252E+03 -0.18294182475E+04  0.18452734681E+04  0.89093922517E+02 0.  0.
          2    1    3    3  502    0 -0.34275043993E+03 -0.45377229280E+01 -0.11917099858E+04  0.12400286872E+04  0.00000000000E+00 0. -1.
         -1    1    3    3    0  502 -0.84054107905E+02  0.22457227446E+02 -0.20391134008E+03  0.22169631195E+03  0.00000000000E+00 0.  1.
         13    1    5    5    0    0  0.33887283302E+02 -0.59355740327E+01 -0.65670248606E+02  0.74136094857E+02  0.00000000000E+00 0.  1.
        -13    1    5    5    0    0  0.44282426462E+03  0.20672732203E+03 -0.65013501852E+03  0.81332961173E+03  0.00000000000E+00 0. -1.
          4    1    6    6  503    0 -0.74501636220E+02 -0.17704233287E+03 -0.13927958220E+04  0.14059781944E+04  0.00000000000E+00 0. -1.
         -4    1    6    6    0  503  0.24594636138E+02 -0.41668919653E+02 -0.43662242554E+03  0.43929527368E+03  0.00000000000E+00 0.  1.
<mgrwt>
<rscale>  0 0.14364093E+04</rscale>
<asrwt>0</asrwt>
<pdfrwt beam="1">  1        2 0.62579289E+00 0.14364093E+04</pdfrwt>
<pdfrwt beam="2">  1       -1 0.19509183E-01 0.14364093E+04</pdfrwt>
<totfact> 0.73006011E+00</totfact>
</mgrwt>
</event>
<event>
12    7  0.1701638E-007  0.1218426E+04  0.7818608E-02  0.9096880E-01
         -1   -1    0    0    0  501 -0.00000000000E+00  0.00000000000E+00  0.13375461939E+03  0.13375461939E+03  0.00000000000E+00 0.  1.
          2   -1    0    0  501    0  0.00000000000E+00 -0.00000000000E+00 -0.27747849716E+04  0.27747849716E+04  0.00000000000E+00 0. -1.
         24    2    1    2    0    0 -0.48629115936E+02 -0.59626318944E+02  0.64539249227E+01  0.11260875072E+03  0.81969437993E+02 0.  0.
        254    2    1    2    0    0  0.48629115936E+02  0.59626318944E+02 -0.26474842771E+04  0.27959308403E+04  0.89562055421E+03 0.  0.
         23    2    4    4    0    0 -0.44080190586E+02 -0.19817435526E+03 -0.24133539165E+04  0.24235531088E+04  0.90091102417E+02 0.  0.
         23    2    4    4    0    0  0.92709306522E+02  0.25780067420E+03 -0.23413036067E+03  0.37237773149E+03  0.93765377329E+02 0.  0.
          2    1    3    3  502    0 -0.18539484456E+02 -0.11360488830E+02 -0.35709306199E+02  0.41808225740E+02  0.00000000000E+00 0. -1.
         -1    1    3    3    0  502 -0.30089631480E+02 -0.48265830113E+02  0.42163231122E+02  0.70800524982E+02  0.00000000000E+00 0.  1.
         13    1    5    5    0    0 -0.59118254920E+02 -0.18195737013E+03 -0.18728181759E+04  0.18825651045E+04  0.00000000000E+00 0.  1.
        -13    1    5    5    0    0  0.15038064334E+02 -0.16216985127E+02 -0.54053574059E+03  0.54098800434E+03  0.00000000000E+00 0. -1.
          4    1    6    6  503    0  0.24474885412E+02  0.72990430211E+02 -0.16328928223E+02  0.78697247825E+02  0.00000000000E+00 0. -1.
         -4    1    6    6    0  503  0.68234421110E+02  0.18481024399E+03 -0.21780143245E+03  0.29368048366E+03  0.00000000000E+00 0.  1.
<mgrwt>
<rscale>  0 0.12184257E+04</rscale>
<asrwt>0</asrwt>
<pdfrwt beam="1">  1        2 0.42688999E+00 0.12184257E+04</pdfrwt>
<pdfrwt beam="2">  1       -1 0.20577634E-01 0.12184257E+04</pdfrwt>
<totfact> 0.52950889E+01</totfact>
</mgrwt>
</event>
<event>
12    7  0.1701638E-007  0.1501472E+04  0.7818608E-02  0.8883474E-01
         -1   -1    0    0    0  501 -0.00000000000E+00  0.00000000000E+00  0.49646243288E+03  0.49646243288E+03  0.00000000000E+00 0.  1.
          2   -1    0    0  501    0  0.00000000000E+00 -0.00000000000E+00 -0.11352417698E+04  0.11352417698E+04  0.00000000000E+00 0. -1.
         24    2    1    2    0    0 -0.45124630968E+03 -0.65793808463E+02 -0.87667561827E+02  0.47111479074E+03  0.79444870376E+02 0.  0.
        254    2    1    2    0    0  0.45124630968E+03  0.65793808463E+02 -0.55111177509E+03  0.11605894119E+04  0.91394285228E+03 0.  0.
         23    2    4    4    0    0  0.38392902236E+03  0.42176657519E+03 -0.53039965775E+03  0.78409686526E+03  0.90529326735E+02 0.  0.
         23    2    4    4    0    0  0.67317287315E+02 -0.35597276673E+03 -0.20712117339E+02  0.37649254668E+03  0.10034649013E+03 0.  0.
          4    1    3    3  502    0 -0.82287842708E+02  0.39959684953E+01 -0.43101419306E+02  0.92978433887E+02  0.00000000000E+00 0. -1.
         -3    1    3    3    0  502 -0.36895846697E+03 -0.69789776958E+02 -0.44566142521E+02  0.37813635686E+03  0.00000000000E+00 0.  1.
         13    1    5    5    0    0  0.35276069430E+03  0.34234671377E+03 -0.43894432577E+03  0.65902465887E+03  0.00000000000E+00 0.  1.
        -13    1    5    5    0    0  0.31168328062E+02  0.79419861419E+02 -0.91455331982E+02  0.12507220639E+03  0.00000000000E+00 0. -1.
          1    1    6    6  503    0  0.31198368425E+02 -0.59423218855E+02  0.29935298889E+02  0.73488633481E+02  0.00000000000E+00 0. -1.
         -1    1    6    6    0  503  0.36118918891E+02 -0.29654954787E+03 -0.50647416227E+02  0.30300391320E+03  0.00000000000E+00 0.  1.
<mgrwt>
<rscale>  0 0.15014725E+04</rscale>
<asrwt>0</asrwt>
<pdfrwt beam="1">  1        2 0.17465258E+00 0.15014725E+04</pdfrwt>
<pdfrwt beam="2">  1       -1 0.76378837E-01 0.15014725E+04</pdfrwt>
<totfact> 0.39302176E+01</totfact>
</mgrwt>
</event>
<event>
12    7  0.1701638E-007  0.1759135E+04  0.7818608E-02  0.8728338E-01
          2   -1    0    0  501    0  0.00000000000E+00  0.00000000000E+00  0.77408416056E+03  0.77408416056E+03  0.00000000000E+00 0. -1.
         -1   -1    0    0    0  501 -0.00000000000E+00 -0.00000000000E+00 -0.99942525332E+03  0.99942525332E+03  0.00000000000E+00 0.  1.
         24    2    1    2    0    0 -0.57833880774E+03  0.20094833863E+03 -0.30673996997E+03  0.68932095764E+03  0.78854055869E+02 0.  0.
        254    2    1    2    0    0  0.57833880774E+03 -0.20094833863E+03  0.81398877218E+02  0.10841884562E+04  0.89105713626E+03 0.  0.
         23    2    4    4    0    0  0.58373392724E+03 -0.50156720090E+02 -0.29992408852E+03  0.66467411749E+03  0.92607932685E+02 0.  0.
         23    2    4    4    0    0 -0.53951195001E+01 -0.15079161854E+03  0.38132296574E+03  0.41951433875E+03  0.88418644406E+02 0.  0.
          2    1    3    3  502    0 -0.98348129885E+02  0.55208606507E+02 -0.83128183897E+02  0.14010938528E+03  0.00000000000E+00 0. -1.
         -1    1    3    3    0  502 -0.47999067786E+03  0.14573973212E+03 -0.22361178607E+03  0.54921157237E+03  0.00000000000E+00 0.  1.
         13    1    5    5    0    0  0.10817700590E+03  0.25559446250E+02 -0.46211447412E+02  0.12037876794E+03  0.00000000000E+00 0.  1.
        -13    1    5    5    0    0  0.47555692134E+03 -0.75716166340E+02 -0.25371264111E+03  0.54429534955E+03  0.00000000000E+00 0. -1.
          3    1    6    6  503    0  0.19681142034E+02 -0.11116634192E+03  0.33535673705E+03  0.35384946519E+03  0.00000000000E+00 0. -1.
         -3    1    6    6    0  503 -0.25076261535E+02 -0.39625276623E+02  0.45966228686E+02  0.65664873559E+02  0.00000000000E+00 0.  1.
<mgrwt>
<rscale>  0 0.17591353E+04</rscale>
<asrwt>0</asrwt>
<pdfrwt beam="1">  1        2 0.11908987E+00 0.17591353E+04</pdfrwt>
<pdfrwt beam="2">  1       -1 0.15375773E+00 0.17591353E+04</pdfrwt>
<totfact> 0.12692976E+01</totfact>
</mgrwt>
</event>
<event>
12    7  0.1701638E-007  0.1211058E+04  0.7818608E-02  0.9103232E-01
          2   -1    0    0  501    0  0.00000000000E+00  0.00000000000E+00  0.51747655759E+03  0.51747655759E+03  0.00000000000E+00 0. -1.
         -1   -1    0    0    0  501 -0.00000000000E+00 -0.00000000000E+00 -0.70856384579E+03  0.70856384579E+03  0.00000000000E+00 0.  1.
         24    2    1    2    0    0  0.10447342289E+03  0.67510701550E+02 -0.27570980292E+03  0.31257651654E+03  0.78840296505E+02 0.  0.
        254    2    1    2    0    0 -0.10447342289E+03 -0.67510701550E+02  0.84622514718E+02  0.91346388684E+03  0.90098996202E+03 0.  0.
         23    2    4    4    0    0 -0.35023922777E+03  0.14382895487E+03 -0.23040047337E+03  0.45268940859E+03  0.92135973402E+02 0.  0.
         23    2    4    4    0    0  0.24576580488E+03 -0.21133965642E+03  0.31502298809E+03  0.46077447825E+03  0.89489415890E+02 0.  0.
          4    1    3    3  502    0 -0.47303566406E+01  0.30372331386E+02 -0.75484564025E+02  0.81503215850E+02  0.00000000000E+00 0. -1.
         -3    1    3    3    0  502  0.10920377953E+03  0.37138370164E+02 -0.20022523889E+03  0.23107330069E+03  0.00000000000E+00 0.  1.
         13    1    5    5    0    0 -0.90827167638E+02  0.23318545347E+02 -0.10380777810E+03  0.13989061345E+03  0.00000000000E+00 0. -1.
        -13    1    5    5    0    0 -0.25941206013E+03  0.12051040952E+03 -0.12659269527E+03  0.31279879514E+03  0.00000000000E+00 0.  1.
          1    1    6    6  503    0  0.76342717298E+02 -0.27056010079E+02  0.45365871977E+02  0.92834802236E+02  0.00000000000E+00 0. -1.
         -1    1    6    6    0  503  0.16942308758E+03 -0.18428364634E+03  0.26965711611E+03  0.36793967601E+03  0.00000000000E+00 0.  1.
<mgrwt>
<rscale>  0 0.12110577E+04</rscale>
<asrwt>0</asrwt>
<pdfrwt beam="1">  1        2 0.79611778E-01 0.12110577E+04</pdfrwt>
<pdfrwt beam="2">  1       -1 0.10900982E+00 0.12110577E+04</pdfrwt>
<totfact> 0.52028876E+01</totfact>
</mgrwt>
</event>
<event>
12    7  0.1701638E-007  0.1406994E+04  0.7818608E-02  0.8948771E-01
          2   -1    0    0  501    0  0.00000000000E+00  0.00000000000E+00  0.18258028154E+04  0.18258028154E+04  0.00000000000E+00 0. -1.
         -1   -1    0    0    0  501 -0.00000000000E+00 -0.00000000000E+00 -0.27106322406E+03  0.27106322406E+03  0.00000000000E+00 0.  1.
         24    2    1    2    0    0 -0.34068549454E+01  0.35959014276E+03  0.16717678747E+03  0.40314860905E+03  0.72553740654E+02 0.  0.
        254    2    1    2    0    0  0.34068549454E+01 -0.35959014276E+03  0.13875628039E+04  0.16937174305E+04  0.90223695443E+03 0.  0.
         23    2    4    4    0    0  0.26222210712E+03 -0.59749467254E+02  0.39222471141E+02  0.28549288407E+03  0.87391946512E+02 0.  0.
         23    2    4    4    0    0 -0.25881525217E+03 -0.29984067551E+03  0.13483403328E+04  0.14082245464E+04  0.90470738759E+02 0.  0.
          4    1    3    3  502    0 -0.27888840998E+02  0.16123222998E+03  0.10250558130E+03  0.19308291906E+03  0.00000000000E+00 0. -1.
         -3    1    3    3    0  502  0.24481986053E+02  0.19835791278E+03  0.64671206166E+02  0.21006568999E+03  0.00000000000E+00 0.  1.
         13    1    5    5    0    0  0.17673217300E+03 -0.66623655659E+02 -0.51197895170E+01  0.18894227878E+03  0.00000000000E+00 0. -1.
        -13    1    5    5    0    0  0.85489934116E+02  0.68741884045E+01  0.44342260658E+02  0.96550605289E+02  0.00000000000E+00 0.  1.
          2    1    6    6  503    0 -0.17781049911E+03 -0.20110063264E+03  0.10485024380E+04  0.10823194540E+04  0.00000000000E+00 0. -1.
         -2    1    6    6    0  503 -0.81004753060E+02 -0.98740042862E+02  0.29983789480E+03  0.32590509238E+03  0.00000000000E+00 0.  1.
<mgrwt>
<rscale>  0 0.14069940E+04</rscale>
<asrwt>0</asrwt>
<pdfrwt beam="1">  1        2 0.28089273E+00 0.14069940E+04</pdfrwt>
<pdfrwt beam="2">  1       -1 0.41702036E-01 0.14069940E+04</pdfrwt>
<totfact> 0.52203245E+01</totfact>
</mgrwt>
</event>
<event>
12    7  0.1701638E-007  0.1729518E+04  0.7818608E-02  0.8744706E-01
         -1   -1    0    0    0  501 -0.00000000000E+00  0.00000000000E+00  0.34784780206E+03  0.34784780206E+03  0.00000000000E+00 0.  1.
          2   -1    0    0  501    0  0.00000000000E+00 -0.00000000000E+00 -0.21498145552E+04  0.21498145552E+04  0.00000000000E+00 0. -1.
         24    2    1    2    0    0 -0.82578088488E+02 -0.20954100693E+03 -0.15030709358E+04  0.15219242679E+04  0.79401919774E+02 0.  0.
        254    2    1    2    0    0  0.82578088488E+02  0.20954100693E+03 -0.29889581735E+03  0.97573808937E+03  0.90111016815E+03 0.  0.
         23    2    4    4    0    0  0.20563909732E+02 -0.62039806261E+02  0.29366797201E+03  0.31456477844E+03  0.91860274904E+02 0.  0.
         23    2    4    4    0    0  0.62014178756E+02  0.27158081319E+03 -0.59256378936E+03  0.66117331093E+03  0.91740973219E+02 0.  0.
          4    1    3    3  502    0 -0.40704935658E+02 -0.15059715825E+03 -0.79426048951E+03  0.80943568062E+03  0.00000000000E+00 0. -1.
         -3    1    3    3    0  502 -0.41873152830E+02 -0.58943848681E+02 -0.70881044627E+03  0.71248858725E+03  0.00000000000E+00 0.  1.
         13    1    5    5    0    0  0.28767589927E+02 -0.35621784482E+02  0.44443959866E+02  0.63810276041E+02  0.00000000000E+00 0. -1.
        -13    1    5    5    0    0 -0.82036801955E+01 -0.26418021780E+02  0.24922401214E+03  0.25075450240E+03  0.00000000000E+00 0.  1.
          3    1    6    6  503    0  0.51122756997E+00  0.19498523923E+03 -0.40086707026E+03  0.44577338738E+03  0.00000000000E+00 0. -1.
         -3    1    6    6    0  503  0.61502951186E+02  0.76595573953E+02 -0.19169671910E+03  0.21539992355E+03  0.00000000000E+00 0.  1.
<mgrwt>
<rscale>  0 0.17295182E+04</rscale>
<asrwt>0</asrwt>
<pdfrwt beam="1">  1        2 0.33074071E+00 0.17295182E+04</pdfrwt>
<pdfrwt beam="2">  1       -1 0.53515046E-01 0.17295182E+04</pdfrwt>
<totfact> 0.20995562E+01</totfact>
</mgrwt>
</event>
<event>
12    7  0.1701638E-007  0.1567852E+04  0.7818608E-02  0.8840545E-01
         -1   -1    0    0    0  501 -0.00000000000E+00  0.00000000000E+00  0.33092110011E+03  0.33092110011E+03  0.00000000000E+00 0.  1.
          2   -1    0    0  501    0  0.00000000000E+00 -0.00000000000E+00 -0.18570596228E+04  0.18570596228E+04  0.00000000000E+00 0. -1.
         24    2    1    2    0    0 -0.51483539601E+03  0.90149384248E+02 -0.56734593951E+03  0.77543385325E+03  0.78954728967E+02 0.  0.
        254    2    1    2    0    0  0.51483539601E+03 -0.90149384248E+02 -0.95879258318E+03  0.14125468697E+04  0.89600393132E+03 0.  0.
         23    2    4    4    0    0  0.25436050170E+03 -0.26079243135E+03 -0.10155563015E+04  0.10828657086E+04  0.92366574695E+02 0.  0.
         23    2    4    4    0    0  0.26047489431E+03  0.17064304710E+03  0.56763718365E+02  0.32968116108E+03  0.92202647241E+02 0.  0.
          4    1    3    3  502    0 -0.64536081222E+02  0.41761564569E+01 -0.11175436426E+03  0.12911771371E+03  0.00000000000E+00 0. -1.
         -3    1    3    3    0  502 -0.45029931479E+03  0.85973227791E+02 -0.45559157525E+03  0.64631613954E+03  0.00000000000E+00 0.  1.
         13    1    5    5    0    0  0.44697436267E+02 -0.18189730706E+02 -0.75272132140E+02  0.89412644457E+02  0.00000000000E+00 0.  1.
        -13    1    5    5    0    0  0.20966306543E+03 -0.24260270064E+03 -0.94028416941E+03  0.99345306412E+03  0.00000000000E+00 0. -1.
          1    1    6    6  503    0  0.18157988963E+03  0.14562045529E+03  0.75728812934E+02  0.24476810745E+03  0.00000000000E+00 0. -1.
         -1    1    6    6    0  503  0.78895004684E+02  0.25022591814E+02 -0.18965094569E+02  0.84913053632E+02  0.00000000000E+00 0.  1.
<mgrwt>
<rscale>  0 0.15678523E+04</rscale>
<asrwt>0</asrwt>
<pdfrwt beam="1">  1        2 0.28570148E+00 0.15678523E+04</pdfrwt>
<pdfrwt beam="2">  1       -1 0.50910939E-01 0.15678523E+04</pdfrwt>
<totfact> 0.34064603E+01</totfact>
</mgrwt>
</event>
<event>
12    7  0.1701638E-007  0.3451448E+04  0.7818608E-02  0.8125394E-01
          2   -1    0    0  501    0  0.00000000000E+00  0.00000000000E+00  0.19484411670E+04  0.19484411670E+04  0.00000000000E+00 0. -1.
         -1   -1    0    0    0  501 -0.00000000000E+00 -0.00000000000E+00 -0.15284642005E+04  0.15284642005E+04  0.00000000000E+00 0.  1.
         24    2    1    2    0    0 -0.15048576432E+04  0.69946978175E+02 -0.37193971574E+03  0.15537997272E+04  0.80407300059E+02 0.  0.
        254    2    1    2    0    0  0.15048576432E+04 -0.69946978175E+02  0.79191668222E+03  0.19231056404E+04  0.89538492634E+03 0.  0.
         23    2    4    4    0    0  0.11632734006E+02  0.21049750782E+03  0.13168358010E+03  0.26401983099E+03  0.89002160589E+02 0.  0.
         23    2    4    4    0    0  0.14932249092E+04 -0.28044448599E+03  0.66023310212E+03  0.16590858094E+04  0.91039741540E+02 0.  0.
          4    1    3    3  502    0 -0.24775527380E+03 -0.84356678573E+01 -0.38530311428E+02  0.25087530984E+03  0.00000000000E+00 0. -1.
         -3    1    3    3    0  502 -0.12571023694E+04  0.78382646033E+02 -0.33340940431E+03  0.13029244173E+04  0.00000000000E+00 0.  1.
         13    1    5    5    0    0  0.36614819761E+02  0.73761556501E+02  0.17626082182E+02  0.84214553473E+02  0.00000000000E+00 0. -1.
        -13    1    5    5    0    0 -0.24982085755E+02  0.13673595131E+03  0.11405749792E+03  0.17980527751E+03  0.00000000000E+00 0.  1.
          1    1    6    6  503    0  0.39030037528E+03 -0.73971347621E+02  0.21681380039E+03  0.45256421340E+03  0.00000000000E+00 0. -1.
         -1    1    6    6    0  503  0.11029245339E+04 -0.20647313837E+03  0.44341930173E+03  0.12065215960E+04  0.00000000000E+00 0.  1.
<mgrwt>
<rscale>  0 0.34514476E+04</rscale>
<asrwt>0</asrwt>
<pdfrwt beam="1">  1        2 0.29976018E+00 0.34514476E+04</pdfrwt>
<pdfrwt beam="2">  1       -1 0.23514834E+00 0.34514476E+04</pdfrwt>
<totfact> 0.58453813E-01</totfact>
</mgrwt>
</event>
<event>
12    7  0.1701638E-007  0.1678783E+04  0.7818608E-02  0.8773559E-01
         -1   -1    0    0    0  501 -0.00000000000E+00  0.00000000000E+00  0.33241121970E+03  0.33241121970E+03  0.00000000000E+00 0.  1.
          2   -1    0    0  501    0  0.00000000000E+00 -0.00000000000E+00 -0.21195973208E+04  0.21195973208E+04  0.00000000000E+00 0. -1.
         24    2    1    2    0    0 -0.42275092927E+03  0.13944574992E+03 -0.60494582511E+02  0.45618483102E+03  0.79256168012E+02 0.  0.
        254    2    1    2    0    0  0.42275092927E+03 -0.13944574992E+03 -0.17266915186E+04  0.19958237095E+04  0.89648492103E+03 0.  0.
         23    2    4    4    0    0 -0.85101162751E+02 -0.39694616782E+03 -0.58848911592E+03  0.72033828498E+03  0.88087100106E+02 0.  0.
         23    2    4    4    0    0  0.50785209203E+03  0.25750041790E+03 -0.11382024027E+04  0.12754854245E+04  0.84487549943E+02 0.  0.
          4    1    3    3  502    0 -0.26218516175E+02  0.58830552043E+01 -0.24251586070E+02  0.36196137306E+02  0.00000000000E+00 0. -1.
         -3    1    3    3    0  502 -0.39653241310E+03  0.13356269471E+03 -0.36242996441E+02  0.41998869371E+03  0.00000000000E+00 0.  1.
         13    1    5    5    0    0 -0.36912650857E+02 -0.24188918919E+03 -0.42180909186E+03  0.48764314167E+03  0.00000000000E+00 0. -1.
        -13    1    5    5    0    0 -0.48188511894E+02 -0.15505697863E+03 -0.16668002406E+03  0.23269514331E+03  0.00000000000E+00 0.  1.
          3    1    6    6  503    0  0.28663979680E+03  0.14643982967E+03 -0.54902210600E+03  0.63642145603E+03  0.00000000000E+00 0. -1.
         -3    1    6    6    0  503  0.22121229523E+03  0.11106058823E+03 -0.58918029670E+03  0.63906396850E+03  0.00000000000E+00 0.  1.
<mgrwt>
<rscale>  0 0.16787828E+04</rscale>
<asrwt>0</asrwt>
<pdfrwt beam="1">  1        2 0.32609189E+00 0.16787828E+04</pdfrwt>
<pdfrwt beam="2">  1       -1 0.51140188E-01 0.16787828E+04</pdfrwt>
<totfact> 0.23919350E+01</totfact>
</mgrwt>
</event>
<event>
12    7  0.1701638E-007  0.3003829E+04  0.7818608E-02  0.8242638E-01
          2   -1    0    0  501    0  0.00000000000E+00  0.00000000000E+00  0.14001260928E+04  0.14001260928E+04  0.00000000000E+00 0. -1.
         -1   -1    0    0    0  501 -0.00000000000E+00 -0.00000000000E+00 -0.16111026323E+04  0.16111026323E+04  0.00000000000E+00 0.  1.
         24    2    1    2    0    0  0.66056333817E+02 -0.10035826927E+04  0.83209804103E+03  0.13077975067E+04  0.80034418559E+02 0.  0.
        254    2    1    2    0    0 -0.66056333817E+02  0.10035826927E+04 -0.10430745806E+04  0.17034312185E+04  0.89561804082E+03 0.  0.
         23    2    4    4    0    0  0.15114373956E+03  0.12624258846E+03 -0.69921649754E+03  0.73208374933E+03  0.90891608278E+02 0.  0.
         23    2    4    4    0    0 -0.21720007337E+03  0.87734010428E+03 -0.34385808301E+03  0.97134746913E+03  0.91520457188E+02 0.  0.
          4    1    3    3  502    0  0.47654403814E+02 -0.80215915239E+03  0.70436274131E+03  0.10685771471E+04  0.00000000000E+00 0. -1.
         -3    1    3    3    0  502  0.18401930004E+02 -0.20142354035E+03  0.12773529972E+03  0.23922035956E+03  0.00000000000E+00 0.  1.
         13    1    5    5    0    0  0.33032005088E+02  0.75051493276E+02 -0.19179901534E+03  0.20859219134E+03  0.00000000000E+00 0.  1.
        -13    1    5    5    0    0  0.11811173447E+03  0.51191095181E+02 -0.50741748220E+03  0.52349155799E+03  0.00000000000E+00 0. -1.
          3    1    6    6  503    0 -0.15500189885E+03  0.61675188168E+03 -0.19655707338E+03  0.66561487010E+03  0.00000000000E+00 0.  1.
         -3    1    6    6    0  503 -0.62198174524E+02  0.26058822259E+03 -0.14730100963E+03  0.30573259902E+03  0.00000000000E+00 0. -1.
<mgrwt>
<rscale>  0 0.30038288E+04</rscale>
<asrwt>0</asrwt>
<pdfrwt beam="1">  1        2 0.21540401E+00 0.30038288E+04</pdfrwt>
<pdfrwt beam="2">  1       -1 0.24786194E+00 0.30038288E+04</pdfrwt>
<totfact> 0.10152186E+00</totfact>
</mgrwt>
</event>
<event>
12    7  0.1701638E-007  0.1852685E+04  0.7818608E-02  0.8678773E-01
          2   -1    0    0  501    0  0.00000000000E+00  0.00000000000E+00  0.32019522486E+04  0.32019522486E+04  0.00000000000E+00 0. -1.
         -1   -1    0    0    0  501 -0.00000000000E+00 -0.00000000000E+00 -0.26799605833E+03  0.26799605833E+03  0.00000000000E+00 0.  1.
         24    2    1    2    0    0  0.46639632457E+03 -0.21841613932E+03  0.22608294282E+03  0.56796673702E+03  0.79003644468E+02 0.  0.
        254    2    1    2    0    0 -0.46639632457E+03  0.21841613932E+03  0.27078732475E+04  0.29019815699E+04  0.90757278844E+03 0.  0.
         23    2    4    4    0    0 -0.73134216308E+03  0.18170940000E+03  0.20391204559E+04  0.21757711358E+04  0.89934066511E+02 0.  0.
         23    2    4    4    0    0  0.26494583851E+03  0.36706739320E+02  0.66875279158E+03  0.72621043410E+03  0.92777240132E+02 0.  0.
          2    1    3    3  502    0  0.10767111191E+03 -0.30829779160E+02  0.20189408421E+02  0.11380314510E+03  0.00000000000E+00 0. -1.
         -1    1    3    3    0  502  0.35872521266E+03 -0.18758636016E+03  0.20589353440E+03  0.45416359192E+03  0.00000000000E+00 0.  1.
         13    1    5    5    0    0 -0.67796010324E+03  0.15720095509E+03  0.19331898827E+04  0.20546447781E+04  0.00000000000E+00 0. -1.
        -13    1    5    5    0    0 -0.53382059840E+02  0.24508444907E+02  0.10593057323E+03  0.12112635770E+03  0.00000000000E+00 0.  1.
          2    1    6    6  503    0  0.75301698923E+02  0.59508926134E+01  0.96374943291E+02  0.12244953523E+03  0.00000000000E+00 0. -1.
         -2    1    6    6    0  503  0.18964413959E+03  0.30755846706E+02  0.57237784829E+03  0.60376089887E+03  0.00000000000E+00 0.  1.
<mgrwt>
<rscale>  0 0.18526852E+04</rscale>
<asrwt>0</asrwt>
<pdfrwt beam="1">  1        2 0.49260801E+00 0.18526852E+04</pdfrwt>
<pdfrwt beam="2">  1       -1 0.41230165E-01 0.18526852E+04</pdfrwt>
<totfact> 0.80104607E+00</totfact>
</mgrwt>
</event>
<event>
12    7  0.1701638E-007  0.2036936E+04  0.7818608E-02  0.8589544E-01
          2   -1    0    0  501    0  0.00000000000E+00  0.00000000000E+00  0.19643952596E+04  0.19643952596E+04  0.00000000000E+00 0. -1.
         -1   -1    0    0    0  501 -0.00000000000E+00 -0.00000000000E+00 -0.52803868392E+03  0.52803868392E+03  0.00000000000E+00 0.  1.
         24    2    1    2    0    0 -0.13771388020E+03 -0.49410939956E+03 -0.19867756048E+03  0.55589046412E+03  0.80201144212E+02 0.  0.
        254    2    1    2    0    0  0.13771388020E+03  0.49410939956E+03  0.16350341362E+04  0.19365434794E+04  0.90208359350E+03 0.  0.
         23    2    4    4    0    0  0.13776981405E+03  0.12655288822E+03 -0.47800101134E+02  0.21155629804E+03  0.86458443159E+02 0.  0.
         23    2    4    4    0    0 -0.55933846193E-01  0.36755651134E+03  0.16828342373E+04  0.17249871814E+04  0.92476556352E+02 0.  0.
          2    1    3    3  502    0 -0.33716251060E+02 -0.26410946026E+03 -0.89771627429E+02  0.28097960367E+03  0.00000000000E+00 0. -1.
         -1    1    3    3    0  502 -0.10399762914E+03 -0.22999993930E+03 -0.10890593305E+03  0.27491086046E+03  0.00000000000E+00 0.  1.
         13    1    5    5    0    0  0.13395706553E+03  0.12897743661E+03 -0.24196027273E+02  0.18752365796E+03  0.00000000000E+00 0. -1.
        -13    1    5    5    0    0  0.38127485142E+01 -0.24245483940E+01 -0.23604073861E+02  0.24032640075E+02  0.00000000000E+00 0.  1.
          4    1    6    6  503    0 -0.34233455371E+02  0.56574789118E+02  0.30214543643E+03  0.30929678463E+03  0.00000000000E+00 0. -1.
         -4    1    6    6    0  503  0.34177521525E+02  0.31098172222E+03  0.13806888009E+04  0.14156903967E+04  0.00000000000E+00 0.  1.
<mgrwt>
<rscale>  0 0.20369356E+04</rscale>
<asrwt>0</asrwt>
<pdfrwt beam="1">  1        2 0.30221465E+00 0.20369356E+04</pdfrwt>
<pdfrwt beam="2">  1       -1 0.81236722E-01 0.20369356E+04</pdfrwt>
<totfact> 0.11132261E+01</totfact>
</mgrwt>
</event>
<event>
12    7  0.1701638E-007  0.2758962E+04  0.7818608E-02  0.8316123E-01
          2   -1    0    0  501    0  0.00000000000E+00  0.00000000000E+00  0.22781027811E+04  0.22781027811E+04  0.00000000000E+00 0. -1.
         -1   -1    0    0    0  501 -0.00000000000E+00 -0.00000000000E+00 -0.83533019108E+03  0.83533019108E+03  0.00000000000E+00 0.  1.
         24    2    1    2    0    0 -0.35173474764E+03  0.44468279643E+03 -0.58983187224E+03  0.82211996120E+03  0.80743240925E+02 0.  0.
        254    2    1    2    0    0  0.35173474764E+03 -0.44468279643E+03  0.20326044623E+04  0.22913130110E+04  0.89284617496E+03 0.  0.
         23    2    4    4    0    0  0.68929690583E+02  0.22435826880E+03  0.22346208446E+03  0.33966254749E+03  0.10172220974E+03 0.  0.
         23    2    4    4    0    0  0.28280505706E+03 -0.66904106523E+03  0.18091423778E+04  0.19516504635E+04  0.91371446468E+02 0.  0.
          4    1    3    3  502    0 -0.45282015156E+02  0.82438337621E+02 -0.63483498897E+02  0.11347552617E+03  0.00000000000E+00 0. -1.
         -3    1    3    3    0  502 -0.30645273249E+03  0.36224445881E+03 -0.52634837334E+03  0.70864443504E+03  0.00000000000E+00 0.  1.
         13    1    5    5    0    0  0.60580811960E+02  0.10620427132E+03  0.17075653439E+03  0.21001708516E+03  0.00000000000E+00 0. -1.
        -13    1    5    5    0    0  0.83488786230E+01  0.11815399747E+03  0.52705550071E+02  0.12964546232E+03  0.00000000000E+00 0.  1.
          4    1    6    6  503    0  0.91056673959E+02 -0.12091860164E+03  0.37968328926E+03  0.40874445102E+03  0.00000000000E+00 0. -1.
         -4    1    6    6    0  503  0.19174838310E+03 -0.54812246359E+03  0.14294590885E+04  0.15429060125E+04  0.00000000000E+00 0.  1.
<mgrwt>
<rscale>  0 0.27589621E+04</rscale>
<asrwt>0</asrwt>
<pdfrwt beam="1">  1        2 0.35047735E+00 0.27589621E+04</pdfrwt>
<pdfrwt beam="2">  1       -1 0.12851234E+00 0.27589621E+04</pdfrwt>
<totfact> 0.24178499E+00</totfact>
</mgrwt>
</event>
<event>
12    7  0.1701638E-007  0.1893709E+04  0.7818608E-02  0.8657994E-01
          2   -1    0    0  501    0  0.00000000000E+00  0.00000000000E+00  0.15049712559E+04  0.15049712559E+04  0.00000000000E+00 0. -1.
         -1   -1    0    0    0  501 -0.00000000000E+00 -0.00000000000E+00 -0.59571476684E+03  0.59571476684E+03  0.00000000000E+00 0.  1.
         24    2    1    2    0    0  0.35374917927E+03 -0.17256452890E+03 -0.32874218725E+03  0.51899237117E+03  0.79778801616E+02 0.  0.
        254    2    1    2    0    0 -0.35374917927E+03  0.17256452890E+03  0.12379986763E+04  0.15816936516E+04  0.90232870198E+03 0.  0.
         23    2    4    4    0    0  0.23684969317E+03 -0.96891885981E+02  0.63609255359E+03  0.69169149004E+03  0.91310272934E+02 0.  0.
         23    2    4    4    0    0 -0.59059887244E+03  0.26945641488E+03  0.60190612274E+03  0.89000216155E+03  0.91646491030E+02 0.  0.
          4    1    3    3  502    0  0.46217380441E+02 -0.29941016441E+02 -0.85729313041E+02  0.10189222657E+03  0.00000000000E+00 0. -1.
         -3    1    3    3    0  502  0.30753179883E+03 -0.14262351246E+03 -0.24301287420E+03  0.41710014460E+03  0.00000000000E+00 0.  1.
         13    1    5    5    0    0  0.42064619957E+02 -0.46704136752E+02  0.90372675451E+02  0.11008146579E+03  0.00000000000E+00 0.  1.
        -13    1    5    5    0    0  0.19478507321E+03 -0.50187749229E+02  0.54571987814E+03  0.58161002425E+03  0.00000000000E+00 0. -1.
          1    1    6    6  503    0 -0.14230078500E+03  0.36185054388E+02  0.99257481552E+02  0.17723125914E+03  0.00000000000E+00 0. -1.
         -1    1    6    6    0  503 -0.44829808744E+03  0.23327136050E+03  0.50264864119E+03  0.71277090241E+03  0.00000000000E+00 0.  1.
<mgrwt>
<rscale>  0 0.18937092E+04</rscale>
<asrwt>0</asrwt>
<pdfrwt beam="1">  1        2 0.23153404E+00 0.18937092E+04</pdfrwt>
<pdfrwt beam="2">  1       -1 0.91648426E-01 0.18937092E+04</pdfrwt>
<totfact> 0.15624176E+01</totfact>
</mgrwt>
</event>
<event>
12    7  0.1701638E-007  0.1712920E+04  0.7818608E-02  0.8754030E-01
          2   -1    0    0  501    0  0.00000000000E+00  0.00000000000E+00  0.21023481227E+04  0.21023481227E+04  0.00000000000E+00 0. -1.
         -1   -1    0    0    0  501 -0.00000000000E+00 -0.00000000000E+00 -0.34890687319E+03  0.34890687319E+03  0.00000000000E+00 0.  1.
         24    2    1    2    0    0 -0.61394813923E+02  0.21998786007E+03  0.14658076205E+04  0.14856496040E+04  0.79992399021E+02 0.  0.
        254    2    1    2    0    0  0.61394813923E+02 -0.21998786007E+03  0.28763362904E+03  0.96560539189E+03  0.89302669979E+03 0.  0.
         23    2    4    4    0    0 -0.26090796969E+03  0.22323707536E+03  0.18666616739E+03  0.40107376077E+03  0.90045227883E+02 0.  0.
         23    2    4    4    0    0  0.32230278361E+03 -0.44322493544E+03  0.10096746166E+03  0.56453163112E+03  0.90410765442E+02 0.  0.
          4    1    3    3  502    0 -0.36349100120E+02  0.19029610156E+03  0.13414100387E+04  0.13553282832E+04  0.00000000000E+00 0. -1.
         -3    1    3    3    0  502 -0.25045713803E+02  0.29691758516E+02  0.12439758178E+03  0.13032132080E+03  0.00000000000E+00 0.  1.
         13    1    5    5    0    0 -0.26332773454E+02  0.63418150779E+02  0.55954672586E+02  0.88578790860E+02  0.00000000000E+00 0. -1.
        -13    1    5    5    0    0 -0.23457519623E+03  0.15981892458E+03  0.13071149480E+03  0.31249496991E+03  0.00000000000E+00 0.  1.
          3    1    6    6  503    0  0.18463866073E+03 -0.32567206329E+03  0.70937544725E+02  0.38103262734E+03  0.00000000000E+00 0. -1.
         -3    1    6    6    0  503  0.13766412288E+03 -0.11755287214E+03  0.30029916931E+02  0.18349900378E+03  0.00000000000E+00 0.  1.
<mgrwt>
<rscale>  0 0.17129200E+04</rscale>
<asrwt>0</asrwt>
<pdfrwt beam="1">  1        2 0.32343817E+00 0.17129200E+04</pdfrwt>
<pdfrwt beam="2">  1       -1 0.53677981E-01 0.17129200E+04</pdfrwt>
<totfact> 0.22218490E+01</totfact>
</mgrwt>
</event>
<event>
12    7  0.1701638E-007  0.1163134E+04  0.7818608E-02  0.9145752E-01
         -1   -1    0    0    0  501 -0.00000000000E+00  0.00000000000E+00  0.59971749106E+03  0.59971749106E+03  0.00000000000E+00 0.  1.
          2   -1    0    0  501    0  0.00000000000E+00 -0.00000000000E+00 -0.56396547179E+03  0.56396547179E+03  0.00000000000E+00 0. -1.
         24    2    1    2    0    0 -0.13915129226E+03 -0.13798624399E+03  0.36913984182E+02  0.21776085111E+03  0.87486343973E+02 0.  0.
        254    2    1    2    0    0  0.13915129226E+03  0.13798624399E+03 -0.11619649134E+01  0.94592211173E+03  0.92539937629E+03 0.  0.
         23    2    4    4    0    0  0.31151821445E+03 -0.86811905782E+02 -0.34951919102E+03  0.48552132158E+03  0.94801813796E+02 0.  0.
         23    2    4    4    0    0 -0.17236692220E+03  0.22479814978E+03  0.34835722611E+03  0.46040079015E+03  0.10184088855E+03 0.  0.
          4    1    3    3  502    0 -0.79339085771E+02 -0.12909224148E+03  0.10846438801E+02  0.15191162752E+03  0.00000000000E+00 0. -1.
         -3    1    3    3    0  502 -0.59812206485E+02 -0.88940025101E+01  0.26067545381E+02  0.65849223590E+02  0.00000000000E+00 0.  1.
         13    1    5    5    0    0  0.34597416300E+02  0.37947346916E+01 -0.64111873201E+01  0.35390458444E+02  0.00000000000E+00 0.  1.
        -13    1    5    5    0    0  0.27692079815E+03 -0.90606640474E+02 -0.34310800370E+03  0.45013086314E+03  0.00000000000E+00 0. -1.
          1    1    6    6  503    0 -0.17222134682E+03  0.23395050660E+03  0.32844277643E+03  0.43848339675E+03  0.00000000000E+00 0. -1.
         -1    1    6    6    0  503 -0.14557537645E+00 -0.91523568194E+01  0.19914449678E+02  0.21917393401E+02  0.00000000000E+00 0.  1.
<mgrwt>
<rscale>  0 0.11631336E+04</rscale>
<asrwt>0</asrwt>
<pdfrwt beam="1">  1        2 0.86763919E-01 0.11631336E+04</pdfrwt>
<pdfrwt beam="2">  1       -1 0.92264229E-01 0.11631336E+04</pdfrwt>
<totfact> 0.69097729E+01</totfact>
</mgrwt>
</event>
<event>
12    7  0.1701638E-007  0.2088456E+04  0.7818608E-02  0.8566346E-01
          2   -1    0    0  501    0  0.00000000000E+00  0.00000000000E+00  0.56557945545E+03  0.56557945545E+03  0.00000000000E+00 0. -1.
         -1   -1    0    0    0  501 -0.00000000000E+00 -0.00000000000E+00 -0.19279553561E+04  0.19279553561E+04  0.00000000000E+00 0.  1.
         24    2    1    2    0    0 -0.60808932526E+03 -0.10597563945E+03  0.14051845122E+03  0.63701734409E+03  0.71008435306E+02 0.  0.
        254    2    1    2    0    0  0.60808932526E+03  0.10597563945E+03 -0.15028943518E+04  0.18565174674E+04  0.89831075380E+03 0.  0.
         23    2    4    4    0    0  0.46286923574E+02  0.21298708701E+03  0.10003352216E+02  0.23632053207E+03  0.90781872067E+02 0.  0.
         23    2    4    4    0    0  0.56180240169E+03 -0.10701144756E+03 -0.15128977040E+04  0.16201969353E+04  0.95421475263E+02 0.  0.
          2    1    3    3  502    0 -0.13156999457E+03 -0.43539196147E+02  0.53803549450E+02  0.14866454522E+03  0.00000000000E+00 0. -1.
         -1    1    3    3    0  502 -0.47651933069E+03 -0.62436443306E+02  0.86714901773E+02  0.48835279887E+03  0.00000000000E+00 0.  1.
         13    1    5    5    0    0  0.61121784959E+02  0.97541909165E+02 -0.18246007041E+02  0.11654704378E+03  0.00000000000E+00 0. -1.
        -13    1    5    5    0    0 -0.14834861384E+02  0.11544517784E+03  0.28249359257E+02  0.11977348830E+03  0.00000000000E+00 0.  1.
          3    1    6    6  503    0  0.26095204887E+03 -0.41632508456E+02 -0.83137697936E+03  0.87236283700E+03  0.00000000000E+00 0. -1.
         -3    1    6    6    0  503  0.30085035282E+03 -0.65378939101E+02 -0.68152072468E+03  0.74783409834E+03  0.00000000000E+00 0.  1.
<mgrwt>
<rscale>  0 0.20884558E+04</rscale>
<asrwt>0</asrwt>
<pdfrwt beam="1">  1        2 0.87012224E-01 0.20884558E+04</pdfrwt>
<pdfrwt beam="2">  1       -1 0.29660852E+00 0.20884558E+04</pdfrwt>
<totfact> 0.19495191E+00</totfact>
</mgrwt>
</event>
<event>
12    7  0.1701638E-007  0.1435162E+04  0.7818608E-02  0.8928752E-01
         -1   -1    0    0    0  501 -0.00000000000E+00  0.00000000000E+00  0.45755888091E+03  0.45755888091E+03  0.00000000000E+00 0.  1.
          2   -1    0    0  501    0  0.00000000000E+00 -0.00000000000E+00 -0.11253689976E+04  0.11253689976E+04  0.00000000000E+00 0. -1.
         24    2    1    2    0    0 -0.64605928933E+02 -0.33174970110E+03 -0.48023774888E+03  0.59280387416E+03  0.80971275981E+02 0.  0.
        254    2    1    2    0    0  0.64605928933E+02  0.33174970110E+03 -0.18757236782E+03  0.99012400435E+03  0.91155381662E+03 0.  0.
         23    2    4    4    0    0  0.32334541570E+03 -0.10488521133E+03 -0.30032478865E+03  0.46253689031E+03  0.90510943001E+02 0.  0.
         23    2    4    4    0    0 -0.25873948677E+03  0.43663491244E+03  0.11275242083E+03  0.52758711405E+03  0.89659833424E+02 0.  0.
          2    1    3    3  502    0 -0.39574307326E+02 -0.31329501308E+03 -0.44692287883E+03  0.54722934008E+03  0.00000000000E+00 0. -1.
         -1    1    3    3    0  502 -0.25031621607E+02 -0.18454688027E+02 -0.33314870048E+02  0.45574534081E+02  0.00000000000E+00 0.  1.
         13    1    5    5    0    0  0.13108958918E+03  0.21154154219E+01 -0.12578682572E+03  0.18169006824E+03  0.00000000000E+00 0. -1.
        -13    1    5    5    0    0  0.19225582653E+03 -0.10700062676E+03 -0.17453796293E+03  0.28084682206E+03  0.00000000000E+00 0.  1.
          2    1    6    6  503    0 -0.38374333044E+02  0.41894419182E+02  0.40485510788E+02  0.69762514138E+02  0.00000000000E+00 0. -1.
         -2    1    6    6    0  503 -0.22036515373E+03  0.39474049326E+03  0.72266910047E+02  0.45782459991E+03  0.00000000000E+00 0.  1.
<mgrwt>
<rscale>  0 0.14351621E+04</rscale>
<asrwt>0</asrwt>
<pdfrwt beam="1">  1        2 0.17313369E+00 0.14351621E+04</pdfrwt>
<pdfrwt beam="2">  1       -1 0.70393674E-01 0.14351621E+04</pdfrwt>
<totfact> 0.47465628E+01</totfact>
</mgrwt>
</event>
<event>
12    7  0.1701638E-007  0.2293744E+04  0.7818608E-02  0.8480392E-01
         -1   -1    0    0    0  501 -0.00000000000E+00  0.00000000000E+00  0.52166068369E+03  0.52166068369E+03  0.00000000000E+00 0.  1.
          2   -1    0    0  501    0  0.00000000000E+00 -0.00000000000E+00 -0.25214003949E+04  0.25214003949E+04  0.00000000000E+00 0. -1.
         24    2    1    2    0    0 -0.50011663142E+03  0.64858391392E+03 -0.15289358343E+04  0.17362672559E+04  0.78749350854E+02 0.  0.
        254    2    1    2    0    0  0.50011663142E+03 -0.64858391392E+03 -0.47080387689E+03  0.13067938226E+04  0.90292639009E+03 0.  0.
         23    2    4    4    0    0  0.27630023832E+03 -0.78862188519E+03 -0.56400362656E+03  0.10122399731E+04  0.90903096059E+02 0.  0.
         23    2    4    4    0    0  0.22381639310E+03  0.14003797127E+03  0.93199749672E+02  0.29455384951E+03  0.91495167673E+02 0.  0.
          2    1    3    3  502    0 -0.39763097590E+03  0.46766929985E+03 -0.11783947775E+04  0.13286983174E+04  0.00000000000E+00 0. -1.
         -1    1    3    3    0  502 -0.10248565552E+03  0.18091461406E+03 -0.35054105684E+03  0.40756893858E+03  0.00000000000E+00 0.  1.
         13    1    5    5    0    0  0.10718978822E+03 -0.44261493305E+03 -0.30920077366E+03  0.55045685398E+03  0.00000000000E+00 0. -1.
        -13    1    5    5    0    0  0.16911045010E+03 -0.34600695214E+03 -0.25480285290E+03  0.46178311913E+03  0.00000000000E+00 0.  1.
          1    1    6    6  503    0  0.13221050428E+03  0.30181978707E+02  0.56288558196E+02  0.14682973494E+03  0.00000000000E+00 0. -1.
         -1    1    6    6    0  503  0.91605888818E+02  0.10985599257E+03  0.36911191476E+02  0.14772411457E+03  0.00000000000E+00 0.  1.
<mgrwt>
<rscale>  0 0.22937441E+04</rscale>
<asrwt>0</asrwt>
<pdfrwt beam="1">  1        2 0.38790775E+00 0.22937441E+04</pdfrwt>
<pdfrwt beam="2">  1       -1 0.80255490E-01 0.22937441E+04</pdfrwt>
<totfact> 0.54091542E+00</totfact>
</mgrwt>
</event>
<event>
12    7  0.1701638E-007  0.1510045E+04  0.7818608E-02  0.8877800E-01
          2   -1    0    0  501    0  0.00000000000E+00  0.00000000000E+00  0.27203270676E+04  0.27203270676E+04  0.00000000000E+00 0. -1.
         -1   -1    0    0    0  501 -0.00000000000E+00 -0.00000000000E+00 -0.20955530044E+03  0.20955530044E+03  0.00000000000E+00 0.  1.
         24    2    1    2    0    0  0.26949839501E+03  0.76119325598E+02  0.14954489766E+04  0.15236579734E+04  0.82112371289E+02 0.  0.
        254    2    1    2    0    0 -0.26949839501E+03 -0.76119325598E+02  0.10153227906E+04  0.14062243947E+04  0.93175272606E+03 0.  0.
         23    2    4    4    0    0 -0.27998391263E+02  0.37634078202E+03  0.19129743356E+03  0.43144767803E+03  0.84475420456E+02 0.  0.
         23    2    4    4    0    0 -0.24150000375E+03 -0.45246010762E+03  0.82402535701E+03  0.97477671666E+03  0.90163504532E+02 0.  0.
          2    1    3    3  502    0  0.18692728922E+03  0.42458289265E+02  0.11942876461E+04  0.12095732716E+04  0.00000000000E+00 0. -1.
         -1    1    3    3    0  502  0.82571105796E+02  0.33661036333E+02  0.30116133049E+03  0.31408470174E+03  0.00000000000E+00 0.  1.
         13    1    5    5    0    0 -0.45178593505E+01  0.19858247164E+03  0.54661833364E+02  0.20601777866E+03  0.00000000000E+00 0. -1.
        -13    1    5    5    0    0 -0.23480531912E+02  0.17775831038E+03  0.13663560019E+03  0.22542989937E+03  0.00000000000E+00 0.  1.
          1    1    6    6  503    0 -0.22967675213E+03 -0.36226891522E+03  0.70001891062E+03  0.82098517199E+03  0.00000000000E+00 0. -1.
         -1    1    6    6    0  503 -0.11823251616E+02 -0.90191192400E+02  0.12400644640E+03  0.15379154467E+03  0.00000000000E+00 0.  1.
<mgrwt>
<rscale>  0 0.15100450E+04</rscale>
<asrwt>0</asrwt>
<pdfrwt beam="1">  1        2 0.41851183E+00 0.15100450E+04</pdfrwt>
<pdfrwt beam="2">  1       -1 0.32239279E-01 0.15100450E+04</pdfrwt>
<totfact> 0.25624468E+01</totfact>
</mgrwt>
</event>
<event>
12    7  0.1701638E-007  0.1284272E+04  0.7818608E-02  0.9042131E-01
         -1   -1    0    0    0  501 -0.00000000000E+00  0.00000000000E+00  0.46070304263E+03  0.46070304263E+03  0.00000000000E+00 0.  1.
          2   -1    0    0  501    0  0.00000000000E+00 -0.00000000000E+00 -0.89502095075E+03  0.89502095075E+03  0.00000000000E+00 0. -1.
         24    2    1    2    0    0 -0.78039753593E+02  0.20588788261E+02  0.21212751559E+03  0.24080413842E+03  0.80463960033E+02 0.  0.
        254    2    1    2    0    0  0.78039753593E+02 -0.20588788261E+02 -0.64644542372E+03  0.11149198550E+04  0.90478754180E+03 0.  0.
         23    2    4    4    0    0  0.40904461805E+03 -0.25569162073E+03 -0.31551945144E+03  0.58310921433E+03  0.88136979307E+02 0.  0.
         23    2    4    4    0    0 -0.33100486446E+03  0.23510283247E+03 -0.33092597228E+03  0.53181064063E+03  0.92048879572E+02 0.  0.
          4    1    3    3  502    0  0.86672555054E+01 -0.13114773731E+02  0.10945482066E+02  0.19155213015E+02  0.00000000000E+00 0. -1.
         -3    1    3    3    0  502 -0.86707009098E+02  0.33703561991E+02  0.20118203353E+03  0.22164892540E+03  0.00000000000E+00 0.  1.
         13    1    5    5    0    0  0.41025489833E+03 -0.25544202092E+03 -0.30274597656E+03  0.57027610328E+03  0.00000000000E+00 0.  1.
        -13    1    5    5    0    0 -0.12102802740E+01 -0.24959981164E+00 -0.12773474884E+02  0.12833111042E+02  0.00000000000E+00 0. -1.
          1    1    6    6  503    0 -0.11145087024E+03  0.62958854725E+02 -0.54686752625E+02  0.13919682029E+03  0.00000000000E+00 0. -1.
         -1    1    6    6    0  503 -0.21955399422E+03  0.17214397775E+03 -0.27623921965E+03  0.39261382034E+03  0.00000000000E+00 0.  1.
<mgrwt>
<rscale>  0 0.12842724E+04</rscale>
<asrwt>0</asrwt>
<pdfrwt beam="1">  1        2 0.13769553E+00 0.12842724E+04</pdfrwt>
<pdfrwt beam="2">  1       -1 0.70877391E-01 0.12842724E+04</pdfrwt>
<totfact> 0.66561830E+01</totfact>
</mgrwt>
</event>
<event>
12    7  0.1701638E-007  0.3215454E+04  0.7818608E-02  0.8184748E-01
          2   -1    0    0  501    0  0.00000000000E+00  0.00000000000E+00  0.15249847106E+04  0.15249847106E+04  0.00000000000E+00 0. -1.
         -1   -1    0    0    0  501 -0.00000000000E+00 -0.00000000000E+00 -0.16949582295E+04  0.16949582295E+04  0.00000000000E+00 0.  1.
         24    2    1    2    0    0 -0.12632984140E+04  0.41333217699E+03 -0.82167801472E+03  0.15646609929E+04  0.79011971066E+02 0.  0.
        254    2    1    2    0    0  0.12632984140E+04 -0.41333217699E+03  0.65170449579E+03  0.16552819472E+04  0.74058976740E+03 0.  0.
         23    2    4    4    0    0  0.45365493467E+03  0.12569727551E+03  0.45008427192E+03  0.65767781577E+03  0.91442072917E+02 0.  0.
         23    2    4    4    0    0  0.80964347933E+03 -0.53902945250E+03  0.20162022386E+03  0.99760413144E+03  0.92130201991E+02 0.  0.
          4    1    3    3  502    0 -0.27524221615E+03  0.99998369011E+02 -0.21861276640E+03  0.36544424060E+03  0.00000000000E+00 0. -1.
         -3    1    3    3    0  502 -0.98805619785E+03  0.31333380798E+03 -0.60306524832E+03  0.11992167523E+04  0.00000000000E+00 0.  1.
         13    1    5    5    0    0  0.16478641865E+03  0.91850829033E+02  0.18149837769E+03  0.26178769962E+03  0.00000000000E+00 0. -1.
        -13    1    5    5    0    0  0.28886851602E+03  0.33846446476E+02  0.26858589423E+03  0.39589011615E+03  0.00000000000E+00 0.  1.
          3    1    6    6  503    0  0.38158139207E+03 -0.20044097048E+03  0.99270787983E+02  0.44230716789E+03  0.00000000000E+00 0. -1.
         -3    1    6    6    0  503  0.42806208726E+03 -0.33858848202E+03  0.10234943588E+03  0.55529696355E+03  0.00000000000E+00 0.  1.
<mgrwt>
<rscale>  0 0.32154536E+04</rscale>
<asrwt>0</asrwt>
<pdfrwt beam="1">  1        2 0.23461303E+00 0.32154536E+04</pdfrwt>
<pdfrwt beam="2">  1       -1 0.26076280E+00 0.32154536E+04</pdfrwt>
<totfact> 0.69791217E-01</totfact>
</mgrwt>
</event>
<event>
12    7  0.1701638E-007  0.2734455E+04  0.7818608E-02  0.8323911E-01
          2   -1    0    0  501    0  0.00000000000E+00  0.00000000000E+00  0.32429785881E+04  0.32429785881E+04  0.00000000000E+00 0. -1.
         -1   -1    0    0    0  501 -0.00000000000E+00 -0.00000000000E+00 -0.57641791018E+03  0.57641791018E+03  0.00000000000E+00 0.  1.
         24    2    1    2    0    0  0.40982104933E+03 -0.95524267410E+03  0.30447539851E+03  0.10861283289E+04  0.80793685490E+02 0.  0.
        254    2    1    2    0    0 -0.40982104933E+03  0.95524267410E+03  0.23620852794E+04  0.27332681694E+04  0.90048107124E+03 0.  0.
         23    2    4    4    0    0 -0.25619354652E+03  0.61324882919E+02  0.10311653537E+03  0.29720107505E+03  0.91102055957E+02 0.  0.
         23    2    4    4    0    0 -0.15362750281E+03  0.89391779118E+03  0.22589687440E+04  0.24360670943E+04  0.93769262221E+02 0.  0.
          2    1    3    3  502    0  0.11961151756E+03 -0.23668160636E+03  0.11034599907E+03  0.28723046049E+03  0.00000000000E+00 0. -1.
         -1    1    3    3    0  502  0.29020953178E+03 -0.71856106775E+03  0.19412939944E+03  0.79889786840E+03  0.00000000000E+00 0.  1.
         13    1    5    5    0    0 -0.22551032450E+03  0.82177396935E+02  0.99854729612E+02  0.25995960849E+03  0.00000000000E+00 0.  1.
        -13    1    5    5    0    0 -0.30683222027E+02 -0.20852514016E+02  0.32618057627E+01  0.37241466561E+02  0.00000000000E+00 0. -1.
          3    1    6    6  503    0 -0.23393401978E+01 -0.86334338800E+00  0.12391750708E+01  0.27844980199E+01  0.00000000000E+00 0. -1.
         -3    1    6    6    0  503 -0.15128816261E+03  0.89478113457E+03  0.22577295690E+04  0.24332825963E+04  0.00000000000E+00 0.  1.
<mgrwt>
<rscale>  0 0.27344549E+04</rscale>
<asrwt>0</asrwt>
<pdfrwt beam="1">  1        2 0.49891977E+00 0.27344549E+04</pdfrwt>
<pdfrwt beam="2">  1       -1 0.88679680E-01 0.27344549E+04</pdfrwt>
<totfact> 0.15077345E+00</totfact>
</mgrwt>
</event>
<event>
12    7  0.1701638E-007  0.3237559E+04  0.7818608E-02  0.8178968E-01
         -1   -1    0    0    0  501 -0.00000000000E+00  0.00000000000E+00  0.69523773174E+03  0.69523773174E+03  0.00000000000E+00 0.  1.
          2   -1    0    0  501    0  0.00000000000E+00 -0.00000000000E+00 -0.37691390129E+04  0.37691390129E+04  0.00000000000E+00 0. -1.
         24    2    1    2    0    0  0.13231416361E+03 -0.11450665469E+04 -0.11354863724E+03  0.11610902691E+04  0.80949894029E+02 0.  0.
        254    2    1    2    0    0 -0.13231416361E+03  0.11450665469E+04 -0.29603526439E+04  0.33032864755E+04  0.90516812150E+03 0.  0.
         23    2    4    4    0    0 -0.88690355792E+02  0.12854218130E+04 -0.25921032175E+04  0.28961386491E+04  0.91895418209E+02 0.  0.
         23    2    4    4    0    0 -0.43623807820E+02 -0.14035526612E+03 -0.36824942644E+03  0.40714782645E+03  0.92515269954E+02 0.  0.
          2    1    3    3  502    0  0.54249389926E+02 -0.70500471854E+03 -0.98385247125E+02  0.71390076784E+03  0.00000000000E+00 0. -1.
         -1    1    3    3    0  502  0.78064773686E+02 -0.44006182836E+03 -0.15163390117E+02  0.44718950129E+03  0.00000000000E+00 0.  1.
         13    1    5    5    0    0 -0.72880213623E+01  0.55545407689E+01 -0.15141387607E+02  0.17698299274E+02  0.00000000000E+00 0.  1.
        -13    1    5    5    0    0 -0.81402334430E+02  0.12798672722E+04 -0.25769618299E+04  0.28784403498E+04  0.00000000000E+00 0. -1.
          2    1    6    6  503    0 -0.23436636870E+02 -0.11020374887E+03 -0.34758775055E+03  0.36539209973E+03  0.00000000000E+00 0. -1.
         -2    1    6    6    0  503 -0.20187170950E+02 -0.30151517248E+02 -0.20661675888E+02  0.41755726719E+02  0.00000000000E+00 0.  1.
<mgrwt>
<rscale>  0 0.32375594E+04</rscale>
<asrwt>0</asrwt>
<pdfrwt beam="1">  1        2 0.57986753E+00 0.32375594E+04</pdfrwt>
<pdfrwt beam="2">  1       -1 0.10695965E+00 0.32375594E+04</pdfrwt>
<totfact> 0.40212364E-01</totfact>
</mgrwt>
</event>
<event>
12    7  0.1701638E-007  0.1860350E+04  0.7818608E-02  0.8674848E-01
         -1   -1    0    0    0  501 -0.00000000000E+00  0.00000000000E+00  0.32465263667E+03  0.32465263667E+03  0.00000000000E+00 0.  1.
          2   -1    0    0  501    0  0.00000000000E+00 -0.00000000000E+00 -0.26650807771E+04  0.26650807771E+04  0.00000000000E+00 0. -1.
         24    2    1    2    0    0 -0.47095482173E+02  0.17244246916E+03 -0.20016234879E+04  0.20111877604E+04  0.80157536916E+02 0.  0.
        254    2    1    2    0    0  0.47095482173E+02 -0.17244246916E+03 -0.33880465252E+03  0.97854565333E+03  0.90044911765E+03 0.  0.
         23    2    4    4    0    0 -0.22679266940E+03 -0.28071326925E+03 -0.50546477846E+03  0.62796508688E+03  0.92793607826E+02 0.  0.
         23    2    4    4    0    0  0.27388815158E+03  0.10827080009E+03  0.16666012594E+03  0.35058056645E+03  0.91617958205E+02 0.  0.
          4    1    3    3  502    0  0.62401381095E+01  0.11709931014E+03 -0.13377292942E+04  0.13428592079E+04  0.00000000000E+00 0. -1.
         -3    1    3    3    0  502 -0.53335620283E+02  0.55343159014E+02 -0.66389419372E+03  0.66832855251E+03  0.00000000000E+00 0.  1.
         13    1    5    5    0    0 -0.31022403715E+02 -0.79900357439E+02 -0.73313503123E+02  0.11278885757E+03  0.00000000000E+00 0. -1.
        -13    1    5    5    0    0 -0.19577026569E+03 -0.20081291181E+03 -0.43215127534E+03  0.51517622932E+03  0.00000000000E+00 0.  1.
          4    1    6    6  503    0  0.65658543110E+02  0.48339277615E+02  0.78067515647E+01  0.81906504098E+02  0.00000000000E+00 0. -1.
         -4    1    6    6    0  503  0.20822960847E+03  0.59931522478E+02  0.15885337438E+03  0.26867406235E+03  0.00000000000E+00 0.  1.
<mgrwt>
<rscale>  0 0.18603500E+04</rscale>
<asrwt>0</asrwt>
<pdfrwt beam="1">  1        2 0.41001243E+00 0.18603500E+04</pdfrwt>
<pdfrwt beam="2">  1       -1 0.49946560E-01 0.18603500E+04</pdfrwt>
<totfact> 0.12002848E+01</totfact>
</mgrwt>
</event>
<event>
12    7  0.1701638E-007  0.1500406E+04  0.7818608E-02  0.8884183E-01
         -1   -1    0    0    0  501 -0.00000000000E+00  0.00000000000E+00  0.87187296792E+03  0.87187296792E+03  0.00000000000E+00 0.  1.
          2   -1    0    0  501    0  0.00000000000E+00 -0.00000000000E+00 -0.64551204958E+03  0.64551204958E+03  0.00000000000E+00 0. -1.
         24    2    1    2    0    0  0.14035539112E+02 -0.37008237337E+03 -0.23999843315E+03  0.44798714508E+03  0.77040734688E+02 0.  0.
        254    2    1    2    0    0 -0.14035539112E+02  0.37008237337E+03  0.46635935149E+03  0.10693978724E+04  0.88823578254E+03 0.  0.
         23    2    4    4    0    0 -0.15780181427E+03  0.43100403871E+03  0.65663617932E+03  0.80641289874E+03  0.92004333036E+02 0.  0.
         23    2    4    4    0    0  0.14376627516E+03 -0.60921665337E+02 -0.19027682783E+03  0.26298497368E+03  0.92604719070E+02 0.  0.
          4    1    3    3  502    0 -0.24332495657E+01 -0.35759904661E+03 -0.22735558644E+03  0.42376120814E+03  0.00000000000E+00 0. -1.
         -3    1    3    3    0  502  0.16468788677E+02 -0.12483326765E+02 -0.12642846706E+02  0.24225936936E+02  0.00000000000E+00 0.  1.
         13    1    5    5    0    0 -0.73902731035E+02  0.20595298856E+03  0.39274914877E+03  0.44958885775E+03  0.00000000000E+00 0. -1.
        -13    1    5    5    0    0 -0.83899083237E+02  0.22505105014E+03  0.26388703055E+03  0.35682404100E+03  0.00000000000E+00 0.  1.
          4    1    6    6  503    0  0.83901722087E+02 -0.41655816693E+02 -0.17464867381E+03  0.19818391785E+03  0.00000000000E+00 0. -1.
         -4    1    6    6    0  503  0.59864553073E+02 -0.19265848644E+02 -0.15628154023E+02  0.64801055831E+02  0.00000000000E+00 0.  1.
<mgrwt>
<rscale>  0 0.15004060E+04</rscale>
<asrwt>0</asrwt>
<pdfrwt beam="1">  1        2 0.99309546E-01 0.15004060E+04</pdfrwt>
<pdfrwt beam="2">  1       -1 0.13413430E+00 0.15004060E+04</pdfrwt>
<totfact> 0.23446291E+01</totfact>
</mgrwt>
</event>
<event>
12    7  0.1701638E-007  0.1909884E+04  0.7818608E-02  0.8649952E-01
         -1   -1    0    0    0  501 -0.00000000000E+00  0.00000000000E+00  0.78160288499E+03  0.78160288499E+03  0.00000000000E+00 0.  1.
          2   -1    0    0  501    0  0.00000000000E+00 -0.00000000000E+00 -0.11667233276E+04  0.11667233276E+04  0.00000000000E+00 0. -1.
         24    2    1    2    0    0 -0.25856619669E+03  0.29129415792E+03  0.49591745695E+03  0.63559394600E+03  0.79603866595E+02 0.  0.
        254    2    1    2    0    0  0.25856619669E+03 -0.29129415792E+03 -0.88103789951E+03  0.13127322665E+04  0.89181245716E+03 0.  0.
         23    2    4    4    0    0  0.36294170293E+03 -0.55717634393E+03 -0.61233305150E+03  0.90968563000E+03  0.10200010538E+03 0.  0.
         23    2    4    4    0    0 -0.10437550624E+03  0.26588218602E+03 -0.26870484801E+03  0.40304663654E+03  0.93041457116E+02 0.  0.
          2    1    3    3  502    0 -0.47607256123E+02  0.28838123095E+02  0.38834898111E+02  0.67869267643E+02  0.00000000000E+00 0. -1.
         -1    1    3    3    0  502 -0.21095894057E+03  0.26245603482E+03  0.45708255884E+03  0.56772467836E+03  0.00000000000E+00 0.  1.
         13    1    5    5    0    0  0.15960860471E+03 -0.33756951841E+03 -0.33426677670E+03  0.50116101650E+03  0.00000000000E+00 0.  1.
        -13    1    5    5    0    0  0.20333309822E+03 -0.21960682553E+03 -0.27806627480E+03  0.40852461350E+03  0.00000000000E+00 0. -1.
          3    1    6    6  503    0 -0.50407081376E+02  0.33829520330E+02 -0.71312341797E+02  0.93652337884E+02  0.00000000000E+00 0. -1.
         -3    1    6    6    0  503 -0.53968424865E+02  0.23205266569E+03 -0.19739250621E+03  0.30939429866E+03  0.00000000000E+00 0.  1.
<mgrwt>
<rscale>  0 0.19098841E+04</rscale>
<asrwt>0</asrwt>
<pdfrwt beam="1">  1        2 0.17949590E+00 0.19098841E+04</pdfrwt>
<pdfrwt beam="2">  1       -1 0.12024660E+00 0.19098841E+04</pdfrwt>
<totfact> 0.13038626E+01</totfact>
</mgrwt>
</event>
<event>
12    7  0.1701638E-007  0.1522469E+04  0.7818608E-02  0.8869647E-01
          2   -1    0    0  501    0  0.00000000000E+00  0.00000000000E+00  0.75289086710E+03  0.75289086710E+03  0.00000000000E+00 0. -1.
         -1   -1    0    0    0  501 -0.00000000000E+00 -0.00000000000E+00 -0.76967026246E+03  0.76967026246E+03  0.00000000000E+00 0.  1.
         24    2    1    2    0    0  0.13787611988E+03  0.32958484139E+03  0.32774113477E+03  0.49271193869E+03  0.87833996841E+02 0.  0.
        254    2    1    2    0    0 -0.13787611988E+03 -0.32958484139E+03 -0.34452053013E+03  0.10298491909E+04  0.90236299134E+03 0.  0.
         23    2    4    4    0    0 -0.30763931550E+01 -0.61480412890E+03 -0.12276847488E+03  0.63349556602E+03  0.90834754585E+02 0.  0.
         23    2    4    4    0    0 -0.13479972672E+03  0.28521928750E+03 -0.22175205525E+03  0.39635362485E+03  0.91658134590E+02 0.  0.
          4    1    3    3  502    0  0.10304463486E+03  0.15270482304E+03  0.19904230562E+03  0.27120988031E+03  0.00000000000E+00 0. -1.
         -3    1    3    3    0  502  0.34831485011E+02  0.17688001835E+03  0.12869882915E+03  0.22150205838E+03  0.00000000000E+00 0.  1.
         13    1    5    5    0    0 -0.31789092252E+02 -0.45550985278E+03 -0.11775324901E+03  0.47155657139E+03  0.00000000000E+00 0.  1.
        -13    1    5    5    0    0  0.28712699097E+02 -0.15929427612E+03 -0.50152258782E+01  0.16193899463E+03  0.00000000000E+00 0. -1.
          2    1    6    6  503    0 -0.89166087489E+02  0.17914035534E+03 -0.85114439936E+02  0.21745419278E+03  0.00000000000E+00 0.  1.
         -2    1    6    6    0  503 -0.45633639232E+02  0.10607893216E+03 -0.13663761531E+03  0.17889943207E+03  0.00000000000E+00 0. -1.
<mgrwt>
<rscale>  0 0.15224687E+04</rscale>
<asrwt>0</asrwt>
<pdfrwt beam="1">  1        2 0.11582936E+00 0.15224687E+04</pdfrwt>
<pdfrwt beam="2">  1       -1 0.11841081E+00 0.15224687E+04</pdfrwt>
<totfact> 0.26294789E+01</totfact>
</mgrwt>
</event>
<event>
12    7  0.1994915E-007  0.2354783E+04  0.7818608E-02  0.8456629E-01
          2   -1    0    0  501    0  0.00000000000E+00  0.00000000000E+00  0.18947390663E+04  0.18947390663E+04  0.00000000000E+00 0. -1.
         -1   -1    0    0    0  501 -0.00000000000E+00 -0.00000000000E+00 -0.73163175301E+03  0.73163175301E+03  0.00000000000E+00 0.  1.
         24    2    1    2    0    0  0.82799716563E+02 -0.70479901408E+03 -0.29069275160E+03  0.77097027657E+03  0.79343860530E+02 0.  0.
        254    2    1    2    0    0 -0.82799716563E+02  0.70479901408E+03  0.14538000649E+04  0.18554005427E+04  0.90850377103E+03 0.  0.
         23    2    4    4    0    0  0.59830624564E+02  0.80573529752E+03  0.14442751979E+04  0.16573722149E+04  0.90347873216E+02 0.  0.
         23    2    4    4    0    0 -0.14263034113E+03 -0.10093628344E+03  0.95248669992E+01  0.19802832783E+03  0.92698155356E+02 0.  0.
          2    1    3    3  502    0  0.15368773536E+02 -0.71885072518E+02 -0.56661908593E+02  0.92812901777E+02  0.00000000000E+00 0. -1.
         -1    1    3    3    0  502  0.67430943028E+02 -0.63291394156E+03 -0.23403084301E+03  0.67815737479E+03  0.00000000000E+00 0.  1.
         13    1    5    5    0    0  0.36446326007E+02  0.75289111148E+03  0.13138702181E+04  0.15147370434E+04  0.00000000000E+00 0. -1.
        -13    1    5    5    0    0  0.23384298557E+02  0.52844186036E+02  0.13040497972E+03  0.14263517151E+03  0.00000000000E+00 0.  1.
          2    1    6    6  503    0 -0.89868278153E+02 -0.10322530442E+03 -0.18719444725E+02  0.13813829484E+03  0.00000000000E+00 0. -1.
         -2    1    6    6    0  503 -0.52762062974E+02  0.22890209821E+01  0.28244311724E+02  0.59890032987E+02  0.00000000000E+00 0.  1.
<mgrwt>
<rscale>  0 0.23547834E+04</rscale>
<asrwt>0</asrwt>
<pdfrwt beam="1">  1        2 0.29149832E+00 0.23547834E+04</pdfrwt>
<pdfrwt beam="2">  1       -1 0.11255873E+00 0.23547834E+04</pdfrwt>
<totfact> 0.56746402E+00</totfact>
</mgrwt>
</event>
<event>
12    7  0.1701638E-007  0.2303100E+04  0.7818608E-02  0.8476700E-01
         -1   -1    0    0    0  501 -0.00000000000E+00  0.00000000000E+00  0.84811986521E+03  0.84811986521E+03  0.00000000000E+00 0.  1.
          2   -1    0    0  501    0  0.00000000000E+00 -0.00000000000E+00 -0.15635375071E+04  0.15635375071E+04  0.00000000000E+00 0. -1.
         24    2    1    2    0    0  0.51232013458E+03 -0.46638970245E+03 -0.10210234354E+04  0.12364770867E+04  0.79971590903E+02 0.  0.
        254    2    1    2    0    0 -0.51232013458E+03  0.46638970245E+03  0.30560579346E+03  0.11751802857E+04  0.89870046625E+03 0.  0.
         23    2    4    4    0    0 -0.61501111469E+03  0.37251564642E+03 -0.10504542710E+03  0.73246781142E+03  0.92021600650E+02 0.  0.
         23    2    4    4    0    0  0.10269098011E+03  0.93874056029E+02  0.41065122057E+03  0.44271247428E+03  0.89454648494E+02 0.  0.
          2    1    3    3  502    0  0.33030022563E+03 -0.25530380341E+03 -0.64773250846E+03  0.77060734074E+03  0.00000000000E+00 0. -1.
         -1    1    3    3    0  502  0.18201990894E+03 -0.21108589904E+03 -0.37329092694E+03  0.46586974592E+03  0.00000000000E+00 0.  1.
         13    1    5    5    0    0 -0.38704288086E+03  0.18904341087E+03 -0.85812777634E+02  0.43920773629E+03  0.00000000000E+00 0.  1.
        -13    1    5    5    0    0 -0.22796823383E+03  0.18347223555E+03 -0.19232649469E+02  0.29326007512E+03  0.00000000000E+00 0. -1.
          3    1    6    6  503    0  0.10809393333E+03  0.46428861586E+02  0.29461192022E+03  0.31723196741E+03  0.00000000000E+00 0. -1.
         -3    1    6    6    0  503 -0.54029532165E+01  0.47445194443E+02  0.11603930035E+03  0.12548050687E+03  0.00000000000E+00 0.  1.
<mgrwt>
<rscale>  0 0.23030998E+04</rscale>
<asrwt>0</asrwt>
<pdfrwt beam="1">  1        2 0.24054423E+00 0.23030998E+04</pdfrwt>
<pdfrwt beam="2">  1       -1 0.13047998E+00 0.23030998E+04</pdfrwt>
<totfact> 0.60634563E+00</totfact>
</mgrwt>
</event>
<event>
12    7  0.1701638E-007  0.1498522E+04  0.7818608E-02  0.8885436E-01
         -1   -1    0    0    0  501 -0.00000000000E+00  0.00000000000E+00  0.34190005811E+03  0.34190005811E+03  0.00000000000E+00 0.  1.
          2   -1    0    0  501    0  0.00000000000E+00 -0.00000000000E+00 -0.16419767601E+04  0.16419767601E+04  0.00000000000E+00 0. -1.
         24    2    1    2    0    0 -0.33008718368E+03  0.16950656977E+03 -0.93937709838E+01  0.37971902903E+03  0.80051683616E+02 0.  0.
        254    2    1    2    0    0  0.33008718368E+03 -0.16950656977E+03 -0.12906829310E+04  0.16041577892E+04  0.87736523646E+03 0.  0.
         23    2    4    4    0    0 -0.16476231013E+03  0.23906370352E+03 -0.41679717956E+03  0.51616428794E+03  0.91693020839E+02 0.  0.
         23    2    4    4    0    0  0.49484949381E+03 -0.40857027328E+03 -0.87388575145E+03  0.10879935012E+04  0.90817742860E+02 0.  0.
          2    1    3    3  502    0 -0.13772649644E+03  0.35652260655E+02  0.19495434229E+02  0.14359576410E+03  0.00000000000E+00 0. -1.
         -1    1    3    3    0  502 -0.19236068724E+03  0.13385430911E+03 -0.28889205213E+02  0.23612326493E+03  0.00000000000E+00 0.  1.
         13    1    5    5    0    0 -0.14208649634E+03  0.22994690668E+03 -0.40948350754E+03  0.49065353895E+03  0.00000000000E+00 0. -1.
        -13    1    5    5    0    0 -0.22675813790E+02  0.91167968339E+01 -0.73136720258E+01  0.25510748990E+02  0.00000000000E+00 0.  1.
          3    1    6    6  503    0  0.24277076518E+02 -0.52361430461E+02 -0.70172702707E+02  0.90858703762E+02  0.00000000000E+00 0. -1.
         -3    1    6    6    0  503  0.47057241729E+03 -0.35620884282E+03 -0.80371304874E+03  0.99713479748E+03  0.00000000000E+00 0.  1.
<mgrwt>
<rscale>  0 0.14985219E+04</rscale>
<asrwt>0</asrwt>
<pdfrwt beam="1">  1        2 0.25261181E+00 0.14985219E+04</pdfrwt>
<pdfrwt beam="2">  1       -1 0.52600008E-01 0.14985219E+04</pdfrwt>
<totfact> 0.42362127E+01</totfact>
</mgrwt>
</event>
<event>
12    7  0.1701638E-007  0.2358845E+04  0.7818608E-02  0.8455074E-01
         -1   -1    0    0    0  501 -0.00000000000E+00  0.00000000000E+00  0.16610808695E+04  0.16610808695E+04  0.00000000000E+00 0.  1.
          2   -1    0    0  501    0  0.00000000000E+00 -0.00000000000E+00 -0.83742929201E+03  0.83742929201E+03  0.00000000000E+00 0. -1.
         24    2    1    2    0    0  0.13363860201E+03  0.32314184694E+02  0.13338544490E+04  0.13432818940E+04  0.79593172930E+02 0.  0.
        254    2    1    2    0    0 -0.13363860201E+03 -0.32314184694E+02 -0.51020287148E+03  0.11552282675E+04  0.10272983488E+04 0.  0.
         23    2    4    4    0    0 -0.47045728695E+03  0.12624113501E+03  0.25382042628E+02  0.49676103918E+03  0.94129692177E+02 0.  0.
         23    2    4    4    0    0  0.33681868493E+03 -0.15855531970E+03 -0.53558491411E+03  0.65846722835E+03  0.90229012294E+02 0.  0.
          2    1    3    3  502    0  0.21242017980E+02 -0.89654146868E+01  0.68528453489E+02  0.72303187523E+02  0.00000000000E+00 0. -1.
         -1    1    3    3    0  502  0.11239658403E+03  0.41279599381E+02  0.12653259955E+04  0.12709787065E+04  0.00000000000E+00 0.  1.
         13    1    5    5    0    0 -0.19144695357E+03  0.29356835782E+02  0.51036696672E+02  0.20029604151E+03  0.00000000000E+00 0. -1.
        -13    1    5    5    0    0 -0.27901033338E+03  0.96884299228E+02 -0.25654654044E+02  0.29646499767E+03  0.00000000000E+00 0.  1.
          2    1    6    6  503    0  0.11165368723E+03 -0.29823649027E+02 -0.23187497562E+03  0.25907913893E+03  0.00000000000E+00 0. -1.
         -2    1    6    6    0  503  0.22516499771E+03 -0.12873167068E+03 -0.30370993849E+03  0.39938808941E+03  0.00000000000E+00 0.  1.
<mgrwt>
<rscale>  0 0.23588453E+04</rscale>
<asrwt>0</asrwt>
<pdfrwt beam="1">  1        2 0.12883528E+00 0.23588453E+04</pdfrwt>
<pdfrwt beam="2">  1       -1 0.25555090E+00 0.23588453E+04</pdfrwt>
<totfact> 0.21380060E+00</totfact>
</mgrwt>
</event>
<event>
12    7  0.1701638E-007  0.1724488E+04  0.7818608E-02  0.8747520E-01
          2   -1    0    0  501    0  0.00000000000E+00  0.00000000000E+00  0.29486044409E+04  0.29486044409E+04  0.00000000000E+00 0. -1.
         -1   -1    0    0    0  501 -0.00000000000E+00 -0.00000000000E+00 -0.25214109152E+03  0.25214109152E+03  0.00000000000E+00 0.  1.
         24    2    1    2    0    0 -0.48734423650E+03 -0.23787464301E+03  0.41498773553E+03  0.68766785007E+03  0.81138774554E+02 0.  0.
        254    2    1    2    0    0  0.48734423650E+03  0.23787464301E+03  0.22814756139E+04  0.25130776824E+04  0.90351519652E+03 0.  0.
         23    2    4    4    0    0 -0.11691689850E+03  0.24101497790E+03  0.20572740355E+03  0.34938186136E+03  0.89365204358E+02 0.  0.
         23    2    4    4    0    0  0.60426113500E+03 -0.31403348892E+01  0.20757482103E+04  0.21636958210E+04  0.87792894126E+02 0.  0.
          2    1    3    3  502    0 -0.28581287008E+03 -0.12555251998E+03  0.19021957854E+03  0.36556247078E+03  0.00000000000E+00 0. -1.
         -1    1    3    3    0  502 -0.20153136642E+03 -0.11232212303E+03  0.22476815699E+03  0.32210537929E+03  0.00000000000E+00 0.  1.
         13    1    5    5    0    0 -0.10533645635E+03  0.19746233414E+03  0.12350263558E+03  0.25561698581E+03  0.00000000000E+00 0. -1.
        -13    1    5    5    0    0 -0.11580442151E+02  0.43552643756E+02  0.82224767970E+02  0.93764875547E+02  0.00000000000E+00 0.  1.
          3    1    6    6  503    0  0.15866633624E+03  0.30071998013E+02  0.63748625126E+03  0.65762303173E+03  0.00000000000E+00 0. -1.
         -3    1    6    6    0  503  0.44559479876E+03 -0.33212332902E+02  0.14382619591E+04  0.15060727893E+04  0.00000000000E+00 0.  1.
<mgrwt>
<rscale>  0 0.17244876E+04</rscale>
<asrwt>0</asrwt>
<pdfrwt beam="1">  1        2 0.45363143E+00 0.17244876E+04</pdfrwt>
<pdfrwt beam="2">  1       -1 0.38790939E-01 0.17244876E+04</pdfrwt>
<totfact> 0.13114842E+01</totfact>
</mgrwt>
</event>
<event>
12    7  0.1701638E-007  0.2099323E+04  0.7818608E-02  0.8561542E-01
         -1   -1    0    0    0  501 -0.00000000000E+00  0.00000000000E+00  0.56874782699E+03  0.56874782699E+03  0.00000000000E+00 0.  1.
          2   -1    0    0  501    0  0.00000000000E+00 -0.00000000000E+00 -0.19372188532E+04  0.19372188532E+04  0.00000000000E+00 0. -1.
         24    2    1    2    0    0  0.58103527401E+02  0.61466145500E+03  0.14608868661E+03  0.64003487474E+03  0.84368313775E+02 0.  0.
        254    2    1    2    0    0 -0.58103527401E+02 -0.61466145500E+03 -0.15145597128E+04  0.18659318054E+04  0.89812340731E+03 0.  0.
         23    2    4    4    0    0 -0.27613190122E+03 -0.64939383653E+02 -0.10957056948E+04  0.11355298074E+04  0.91602529723E+02 0.  0.
         23    2    4    4    0    0  0.21802837382E+03 -0.54972207135E+03 -0.41885401796E+03  0.73040199800E+03  0.91201221519E+02 0.  0.
          2    1    3    3  502    0  0.45385252152E+02  0.32575274774E+03  0.37077927728E+02  0.33098254712E+03  0.00000000000E+00 0. -1.
         -1    1    3    3    0  502  0.12718275249E+02  0.28890870726E+03  0.10901075888E+03  0.30905232762E+03  0.00000000000E+00 0.  1.
         13    1    5    5    0    0 -0.84891191920E+02 -0.53861540162E+02 -0.49177111400E+03  0.50194263471E+03  0.00000000000E+00 0.  1.
        -13    1    5    5    0    0 -0.19124070930E+03 -0.11077843490E+02 -0.60393458085E+03  0.63358717273E+03  0.00000000000E+00 0. -1.
          1    1    6    6  503    0  0.46688040570E+02 -0.13653155054E+03 -0.57335050453E+02  0.15526733538E+03  0.00000000000E+00 0. -1.
         -1    1    6    6    0  503  0.17134033325E+03 -0.41319052081E+03 -0.36151896751E+03  0.57513466262E+03  0.00000000000E+00 0.  1.
<mgrwt>
<rscale>  0 0.20993228E+04</rscale>
<asrwt>0</asrwt>
<pdfrwt beam="1">  1        2 0.29803366E+00 0.20993228E+04</pdfrwt>
<pdfrwt beam="2">  1       -1 0.87499668E-01 0.20993228E+04</pdfrwt>
<totfact> 0.97629548E+00</totfact>
</mgrwt>
</event>
<event>
12    7  0.1701638E-007  0.2128016E+04  0.7818608E-02  0.8549002E-01
         -3   -1    0    0    0  501 -0.00000000000E+00  0.00000000000E+00  0.37025188026E+03  0.37025188026E+03  0.00000000000E+00 0.  1.
          2   -1    0    0  501    0  0.00000000000E+00 -0.00000000000E+00 -0.30576829308E+04  0.30576829308E+04  0.00000000000E+00 0. -1.
         24    2    1    2    0    0 -0.64781754804E+03  0.52760483950E+03 -0.74772430003E+03  0.11240664595E+04  0.79995838811E+02 0.  0.
        254    2    1    2    0    0  0.64781754804E+03 -0.52760483950E+03 -0.19397067505E+04  0.23038683515E+04  0.92049587792E+03 0.  0.
         23    2    4    4    0    0  0.80240281590E+03 -0.50635208168E+03 -0.11496888149E+04  0.14934617852E+04  0.91657094385E+02 0.  0.
         23    2    4    4    0    0 -0.15458526786E+03 -0.21252757826E+02 -0.79001793552E+03  0.81040656639E+03  0.91006481355E+02 0.  0.
          2    1    3    3  502    0 -0.72954930638E+02  0.73949947076E+02 -0.12707595193E+03  0.16413200217E+03  0.00000000000E+00 0. -1.
         -1    1    3    3    0  502 -0.57486261740E+03  0.45365489243E+03 -0.62064834810E+03  0.95993445730E+03  0.00000000000E+00 0.  1.
         13    1    5    5    0    0  0.73485761535E+03 -0.43991864230E+03 -0.10040561886E+04  0.13197245760E+04  0.00000000000E+00 0.  1.
        -13    1    5    5    0    0  0.67545200548E+02 -0.66433439381E+02 -0.14563262636E+03  0.17373720916E+03  0.00000000000E+00 0. -1.
          1    1    6    6  503    0 -0.29169096904E+02 -0.27279808905E+02 -0.80480744204E+02  0.89845280209E+02  0.00000000000E+00 0. -1.
         -1    1    6    6    0  503 -0.12541617096E+03  0.60270510781E+01 -0.70953719132E+03  0.72056128618E+03  0.00000000000E+00 0.  1.
<mgrwt>
<rscale>  0 0.21280158E+04</rscale>
<asrwt>0</asrwt>
<pdfrwt beam="1">  1        2 0.47041278E+00 0.21280158E+04</pdfrwt>
<pdfrwt beam="2">  1       -3 0.56961825E-01 0.21280158E+04</pdfrwt>
<totfact> 0.28791600E+00</totfact>
</mgrwt>
</event>
<event>
12    7  0.1701638E-007  0.1974945E+04  0.7818608E-02  0.8618425E-01
          2   -1    0    0  501    0  0.00000000000E+00  0.00000000000E+00  0.13139240748E+04  0.13139240748E+04  0.00000000000E+00 0. -1.
         -1   -1    0    0    0  501 -0.00000000000E+00 -0.00000000000E+00 -0.74212942197E+03  0.74212942197E+03  0.00000000000E+00 0.  1.
         24    2    1    2    0    0 -0.83271855753E+02  0.15881633583E+03 -0.52017223580E+03  0.55589256651E+03  0.79249984961E+02 0.  0.
        254    2    1    2    0    0  0.83271855753E+02 -0.15881633583E+03  0.10919668886E+04  0.15001609302E+04  0.10128841495E+04 0.  0.
         23    2    4    4    0    0 -0.24811588022E+03  0.11943677784E+03 -0.32605423058E+02  0.29138057657E+03  0.89514763417E+02 0.  0.
         23    2    4    4    0    0  0.33138773598E+03 -0.27825311367E+03  0.11245723117E+04  0.12087803537E+04  0.96147971607E+02 0.  0.
          2    1    3    3  502    0 -0.69081075894E+02  0.82019069225E+02 -0.20697384603E+03  0.23310404481E+03  0.00000000000E+00 0. -1.
         -1    1    3    3    0  502 -0.14190779860E+02  0.76797266603E+02 -0.31319838977E+03  0.32278852170E+03  0.00000000000E+00 0.  1.
         13    1    5    5    0    0 -0.16064856437E+02  0.24771582975E+02 -0.28045134592E+02  0.40721499355E+02  0.00000000000E+00 0.  1.
        -13    1    5    5    0    0 -0.23205102379E+03  0.94665194864E+02 -0.45602884656E+01  0.25065907722E+03  0.00000000000E+00 0. -1.
          3    1    6    6  503    0  0.92702611380E+02 -0.12379907306E+03  0.47981448880E+03  0.50412491340E+03  0.00000000000E+00 0.  1.
         -3    1    6    6    0  503  0.23868512460E+03 -0.15445404061E+03  0.64475782286E+03  0.70465544027E+03  0.00000000000E+00 0. -1.
<mgrwt>
<rscale>  0 0.19749448E+04</rscale>
<asrwt>0</asrwt>
<pdfrwt beam="1">  1        2 0.20214217E+00 0.19749448E+04</pdfrwt>
<pdfrwt beam="2">  1       -1 0.11417376E+00 0.19749448E+04</pdfrwt>
<totfact> 0.12025187E+01</totfact>
</mgrwt>
</event>
<event>
12    7  0.1746520E-007  0.2087105E+04  0.7818608E-02  0.8566945E-01
          2   -1    0    0  501    0  0.00000000000E+00  0.00000000000E+00  0.81373512953E+03  0.81373512953E+03  0.00000000000E+00 0. -1.
         -1   -1    0    0    0  501 -0.00000000000E+00 -0.00000000000E+00 -0.13382751732E+04  0.13382751732E+04  0.00000000000E+00 0.  1.
         24    2    1    2    0    0 -0.37718514972E+03 -0.64498067944E+03 -0.62488386213E+03  0.97743273820E+03  0.81401489726E+02 0.  0.
        254    2    1    2    0    0  0.37718514972E+03  0.64498067944E+03  0.10034381846E+03  0.11745775645E+04  0.90071907895E+03 0.  0.
         23    2    4    4    0    0  0.10503233825E+03 -0.81923751376E+02  0.32444191664E+03  0.36210379020E+03  0.90073883473E+02 0.  0.
         23    2    4    4    0    0  0.27215281148E+03  0.72690443081E+03 -0.22409809819E+03  0.81247377434E+03  0.86234981543E+02 0.  0.
          2    1    3    3  502    0 -0.26664101423E+02 -0.15301360368E+02 -0.30011681939E+02  0.42962855894E+02  0.00000000000E+00 0. -1.
         -3    1    3    3    0  502 -0.35052104830E+03 -0.62967931907E+03 -0.59487218019E+03  0.93446988231E+03  0.00000000000E+00 0.  1.
         13    1    5    5    0    0  0.21420537472E+02 -0.27380480174E+02  0.16685062758E+02  0.38560620319E+02  0.00000000000E+00 0. -1.
        -13    1    5    5    0    0  0.83611800774E+02 -0.54543271202E+02  0.30775685388E+03  0.32354316988E+03  0.00000000000E+00 0.  1.
          1    1    6    6  503    0  0.46782415645E+01  0.14646266630E+01  0.40259260822E+01  0.63434341028E+01  0.00000000000E+00 0. -1.
         -1    1    6    6    0  503  0.26747456991E+03  0.72543980415E+03 -0.22812402427E+03  0.80613034023E+03  0.00000000000E+00 0.  1.
<mgrwt>
<rscale>  0 0.20871047E+04</rscale>
<asrwt>0</asrwt>
<pdfrwt beam="1">  1        2 0.12519002E+00 0.20871047E+04</pdfrwt>
<pdfrwt beam="2">  1       -1 0.20588849E+00 0.20871047E+04</pdfrwt>
<totfact> 0.48597007E+00</totfact>
</mgrwt>
</event>
<event>
12    7  0.1902227E-007  0.2616824E+04  0.7818608E-02  0.8362509E-01
          2   -1    0    0  501    0  0.00000000000E+00  0.00000000000E+00  0.21618213656E+04  0.21618213656E+04  0.00000000000E+00 0. -1.
         -1   -1    0    0    0  501 -0.00000000000E+00 -0.00000000000E+00 -0.79189809213E+03  0.79189809213E+03  0.00000000000E+00 0.  1.
         24    2    1    2    0    0 -0.26177077381E+03  0.23148855297E+03 -0.62695207215E+03  0.72256355558E+03  0.83176336208E+02 0.  0.
        254    2    1    2    0    0  0.26177077381E+03 -0.23148855297E+03  0.19968753456E+04  0.22311559022E+04  0.93189839873E+03 0.  0.
         23    2    4    4    0    0  0.37284292019E+03 -0.14244030353E+02  0.19218737776E+04  0.19600313169E+04  0.94388613620E+02 0.  0.
         23    2    4    4    0    0 -0.11107214637E+03 -0.21724452262E+03  0.75001568025E+02  0.27112458532E+03  0.91384359990E+02 0.  0.
          2    1    3    3  502    0 -0.37827798535E+02  0.77533324662E+02 -0.17717606435E+03  0.19706272239E+03  0.00000000000E+00 0. -1.
         -3    1    3    3    0  502 -0.22394297528E+03  0.15395522831E+03 -0.44977600780E+03  0.52550083320E+03  0.00000000000E+00 0.  1.
         13    1    5    5    0    0  0.25367137312E+03 -0.25166527361E+02  0.15002501204E+04  0.15217532465E+04  0.00000000000E+00 0. -1.
        -13    1    5    5    0    0  0.11917154707E+03  0.10922497008E+02  0.42162365724E+03  0.43827807031E+03  0.00000000000E+00 0.  1.
          2    1    6    6  503    0 -0.66027908166E+02 -0.16286241064E+03  0.11428624429E+02  0.17610923573E+03  0.00000000000E+00 0. -1.
         -2    1    6    6    0  503 -0.45044238208E+02 -0.54382111987E+02  0.63572943596E+02  0.95015349588E+02  0.00000000000E+00 0.  1.
<mgrwt>
<rscale>  0 0.26168242E+04</rscale>
<asrwt>0</asrwt>
<pdfrwt beam="1">  1        2 0.33258790E+00 0.26168242E+04</pdfrwt>
<pdfrwt beam="2">  1       -1 0.12183048E+00 0.26168242E+04</pdfrwt>
<totfact> 0.32510896E+00</totfact>
</mgrwt>
</event>
<event>
12    7  0.1701638E-007  0.1347760E+04  0.7818608E-02  0.8992525E-01
          2   -1    0    0  501    0  0.00000000000E+00  0.00000000000E+00  0.57075147279E+03  0.57075147279E+03  0.00000000000E+00 0. -1.
         -1   -1    0    0    0  501 -0.00000000000E+00 -0.00000000000E+00 -0.79564280163E+03  0.79564280163E+03  0.00000000000E+00 0.  1.
         24    2    1    2    0    0  0.22836041984E+03  0.20967424630E+03 -0.34431745974E+03  0.47157284199E+03  0.87833144709E+02 0.  0.
        254    2    1    2    0    0 -0.22836041984E+03 -0.20967424630E+03  0.11942613090E+03  0.89482143243E+03  0.83086161561E+03 0.  0.
         23    2    4    4    0    0 -0.47797162555E+03  0.81476262901E+02  0.38413657058E+02  0.49442434154E+03  0.88795068646E+02 0.  0.
         23    2    4    4    0    0  0.24961120570E+03 -0.29115050920E+03  0.81012473846E+02  0.40039709089E+03  0.81733937014E+02 0.  0.
          2    1    3    3  502    0  0.19377226412E+03  0.17908142064E+03 -0.23668812037E+03  0.35445607892E+03  0.00000000000E+00 0. -1.
         -1    1    3    3    0  502  0.34588155727E+02  0.30592825653E+02 -0.10762933937E+03  0.11711676307E+03  0.00000000000E+00 0.  1.
         13    1    5    5    0    0 -0.23306095376E+02  0.22709075290E+02  0.13712626802E+02  0.35311645615E+02  0.00000000000E+00 0.  1.
        -13    1    5    5    0    0 -0.45466553017E+03  0.58767187610E+02  0.24701030256E+02  0.45911269593E+03  0.00000000000E+00 0. -1.
          2    1    6    6  503    0  0.23012249536E+03 -0.26666127179E+03  0.96877919714E+02  0.36530799071E+03  0.00000000000E+00 0. -1.
         -2    1    6    6    0  503  0.19488710340E+02 -0.24489237403E+02 -0.15865445868E+02  0.35089100186E+02  0.00000000000E+00 0.  1.
<mgrwt>
<rscale>  0 0.13477601E+04</rscale>
<asrwt>0</asrwt>
<pdfrwt beam="1">  1        2 0.87807919E-01 0.13477601E+04</pdfrwt>
<pdfrwt beam="2">  1       -1 0.12240658E+00 0.13477601E+04</pdfrwt>
<totfact> 0.34686390E+01</totfact>
</mgrwt>
</event>
<event>
12    7  0.1701638E-007  0.2007167E+04  0.7818608E-02  0.8603277E-01
          2   -1    0    0  501    0  0.00000000000E+00  0.00000000000E+00  0.12833548470E+04  0.12833548470E+04  0.00000000000E+00 0. -1.
         -1   -1    0    0    0  501 -0.00000000000E+00 -0.00000000000E+00 -0.78480260127E+03  0.78480260127E+03  0.00000000000E+00 0.  1.
         24    2    1    2    0    0 -0.22601329825E+03 -0.67037937222E+03 -0.18856763873E+03  0.73661466773E+03  0.80949988610E+02 0.  0.
        254    2    1    2    0    0  0.22601329825E+03  0.67037937222E+03  0.68711988449E+03  0.13315427806E+04  0.89464066927E+03 0.  0.
         23    2    4    4    0    0 -0.26049408276E+03  0.42838664071E+03  0.86844740572E+02  0.51688122302E+03  0.90840016792E+02 0.  0.
         23    2    4    4    0    0  0.48650738101E+03  0.24199273151E+03  0.60027514392E+03  0.81466155754E+03  0.89962720347E+02 0.  0.
          2    1    3    3  502    0 -0.58866145557E+02 -0.29958649450E+03 -0.84167804986E+02  0.31670413665E+03  0.00000000000E+00 0. -1.
         -1    1    3    3    0  502 -0.16714715269E+03 -0.37079287772E+03 -0.10439983375E+03  0.41991053108E+03  0.00000000000E+00 0.  1.
         13    1    5    5    0    0 -0.86455139343E+02  0.15171680994E+03 -0.13027187065E+02  0.17510622244E+03  0.00000000000E+00 0. -1.
        -13    1    5    5    0    0 -0.17403894342E+03  0.27666983077E+03  0.99871927637E+02  0.34177500057E+03  0.00000000000E+00 0.  1.
          1    1    6    6  503    0  0.29571194217E+03  0.18780194802E+03  0.41692556200E+03  0.54455674514E+03  0.00000000000E+00 0. -1.
         -1    1    6    6    0  503  0.19079543884E+03  0.54190783488E+02  0.18334958192E+03  0.27010481241E+03  0.00000000000E+00 0.  1.
<mgrwt>
<rscale>  0 0.20071674E+04</rscale>
<asrwt>0</asrwt>
<pdfrwt beam="1">  1        2 0.19743921E+00 0.20071674E+04</pdfrwt>
<pdfrwt beam="2">  1       -1 0.12073886E+00 0.20071674E+04</pdfrwt>
<totfact> 0.10913095E+01</totfact>
</mgrwt>
</event>
<event>
12    7  0.1701638E-007  0.2478196E+04  0.7818608E-02  0.8410795E-01
         -1   -1    0    0    0  501 -0.00000000000E+00  0.00000000000E+00  0.54667911498E+03  0.54667911498E+03  0.00000000000E+00 0.  1.
          2   -1    0    0  501    0  0.00000000000E+00 -0.00000000000E+00 -0.28085284562E+04  0.28085284562E+04  0.00000000000E+00 0. -1.
         24    2    1    2    0    0  0.52334495644E+03  0.67867155764E+03 -0.18515410642E+04  0.20418192788E+04  0.79602941556E+02 0.  0.
        254    2    1    2    0    0 -0.52334495644E+03 -0.67867155764E+03 -0.41030827693E+03  0.13133882923E+04  0.90672537056E+03 0.  0.
         23    2    4    4    0    0 -0.29685155675E+02 -0.73579615491E+03 -0.23334526032E+03  0.77802121621E+03  0.92681240315E+02 0.  0.
         23    2    4    4    0    0 -0.49365980076E+03  0.57124597271E+02 -0.17696301662E+03  0.53536707608E+03  0.91316911918E+02 0.  0.
          4    1    3    3  502    0  0.51822921681E+03  0.64881901562E+03 -0.17901115356E+04  0.19733288996E+04  0.00000000000E+00 0. -1.
         -3    1    3    3    0  502  0.51157396246E+01  0.29852542020E+02 -0.61429528648E+02  0.68490379229E+02  0.00000000000E+00 0.  1.
         13    1    5    5    0    0 -0.11609446161E+02 -0.41373638952E+03 -0.17883170804E+03  0.45088064834E+03  0.00000000000E+00 0. -1.
        -13    1    5    5    0    0 -0.18075709514E+02 -0.32205976540E+03 -0.54513552281E+02  0.32714056787E+03  0.00000000000E+00 0.  1.
          2    1    6    6  503    0 -0.18753558063E+03  0.15959917503E+02 -0.21106175154E+02  0.18939319839E+03  0.00000000000E+00 0. -1.
         -2    1    6    6    0  503 -0.30612422014E+03  0.41164679769E+02 -0.15585684146E+03  0.34597387769E+03  0.00000000000E+00 0.  1.
<mgrwt>
<rscale>  0 0.24781960E+04</rscale>
<asrwt>0</asrwt>
<pdfrwt beam="1">  1        2 0.43208130E+00 0.24781960E+04</pdfrwt>
<pdfrwt beam="2">  1       -1 0.84104479E-01 0.24781960E+04</pdfrwt>
<totfact> 0.32528578E+00</totfact>
</mgrwt>
</event>
<event>
12    7  0.1701638E-007  0.1538244E+04  0.7818608E-02  0.8859412E-01
         -1   -1    0    0    0  501 -0.00000000000E+00  0.00000000000E+00  0.43569394171E+03  0.43569394171E+03  0.00000000000E+00 0.  1.
          2   -1    0    0  501    0  0.00000000000E+00 -0.00000000000E+00 -0.13577165732E+04  0.13577165732E+04  0.00000000000E+00 0. -1.
         24    2    1    2    0    0 -0.19139101456E+03 -0.15285630251E+03 -0.81536476780E+03  0.85493689165E+03  0.78114111798E+02 0.  0.
        254    2    1    2    0    0  0.19139101456E+03  0.15285630251E+03 -0.10665786370E+03  0.93847362326E+03  0.89964508113E+03 0.  0.
         23    2    4    4    0    0 -0.19635508944E+03 -0.24184496572E+03  0.10373407805E+03  0.33981765124E+03  0.87584065618E+02 0.  0.
         23    2    4    4    0    0  0.38774610400E+03  0.39470126824E+03 -0.21039194175E+03  0.59865597202E+03  0.89376011162E+02 0.  0.
          2    1    3    3  502    0 -0.19025274145E+03 -0.15297601405E+03 -0.73339715825E+03  0.77296129155E+03  0.00000000000E+00 0. -1.
         -1    1    3    3    0  502 -0.11382731080E+01  0.11971153482E+00 -0.81967609550E+02  0.81975600101E+02  0.00000000000E+00 0.  1.
         13    1    5    5    0    0 -0.13245064088E+03 -0.21465668586E+03  0.65746267010E+02  0.26065923479E+03  0.00000000000E+00 0.  1.
        -13    1    5    5    0    0 -0.63904448557E+02 -0.27188279863E+02  0.37987811043E+02  0.79158416451E+02  0.00000000000E+00 0. -1.
          3    1    6    6  503    0  0.32854867586E+03  0.37322919856E+03 -0.18090467134E+03  0.52912263907E+03  0.00000000000E+00 0. -1.
         -3    1    6    6    0  503  0.59197428140E+02  0.21472069671E+02 -0.29487270415E+02  0.69533332948E+02  0.00000000000E+00 0.  1.
<mgrwt>
<rscale>  0 0.15382443E+04</rscale>
<asrwt>0</asrwt>
<pdfrwt beam="1">  1        2 0.20887947E+00 0.15382443E+04</pdfrwt>
<pdfrwt beam="2">  1       -1 0.67029838E-01 0.15382443E+04</pdfrwt>
<totfact> 0.37891207E+01</totfact>
</mgrwt>
</event>
<event>
12    7  0.1701638E-007  0.2170284E+04  0.7818608E-02  0.8530899E-01
          2   -1    0    0  501    0  0.00000000000E+00  0.00000000000E+00  0.33930219762E+04  0.33930219762E+04  0.00000000000E+00 0. -1.
         -1   -1    0    0    0  501 -0.00000000000E+00 -0.00000000000E+00 -0.34704556911E+03  0.34704556911E+03  0.00000000000E+00 0.  1.
         24    2    1    2    0    0  0.93380375776E+01 -0.88739056680E+03  0.10286688365E+04  0.13608533638E+04  0.78823129248E+02 0.  0.
        254    2    1    2    0    0 -0.93380375776E+01  0.88739056680E+03  0.20173075706E+04  0.23792141815E+04  0.89642683467E+03 0.  0.
         23    2    4    4    0    0 -0.32231862489E+03  0.18583399997E+03  0.27325366407E+03  0.47129280843E+03  0.95004078095E+02 0.  0.
         23    2    4    4    0    0  0.31298058731E+03  0.70155656683E+03  0.17440539066E+04  0.19079213731E+04  0.91112415708E+02 0.  0.
          4    1    3    3  502    0  0.16292508794E+02 -0.87974876654E+03  0.10100634132E+04  0.13395713631E+04  0.00000000000E+00 0. -1.
         -3    1    3    3    0  502 -0.69544712165E+01 -0.76418002605E+01  0.18605423225E+02  0.21282000717E+02  0.00000000000E+00 0.  1.
         13    1    5    5    0    0 -0.56116426263E+02  0.14891495206E+02  0.83252954792E+01  0.58652540191E+02  0.00000000000E+00 0.  1.
        -13    1    5    5    0    0 -0.26620219863E+03  0.17094250476E+03  0.26492836859E+03  0.41264026824E+03  0.00000000000E+00 0. -1.
          3    1    6    6  503    0  0.99273792338E+02  0.13140135921E+03  0.36692203492E+03  0.40218575654E+03  0.00000000000E+00 0. -1.
         -3    1    6    6    0  503  0.21370679498E+03  0.57015520762E+03  0.13771318717E+04  0.15057356165E+04  0.00000000000E+00 0.  1.
<mgrwt>
<rscale>  0 0.21702841E+04</rscale>
<asrwt>0</asrwt>
<pdfrwt beam="1">  1        2 0.52200336E+00 0.21702841E+04</pdfrwt>
<pdfrwt beam="2">  1       -1 0.53391628E-01 0.21702841E+04</pdfrwt>
<totfact> 0.35679334E+00</totfact>
</mgrwt>
</event>
<event>
12    7  0.1701638E-007  0.2394300E+04  0.7818608E-02  0.8441640E-01
         -1   -1    0    0    0  501 -0.00000000000E+00  0.00000000000E+00  0.86346001130E+03  0.86346001130E+03  0.00000000000E+00 0.  1.
          2   -1    0    0  501    0  0.00000000000E+00 -0.00000000000E+00 -0.16597973054E+04  0.16597973054E+04  0.00000000000E+00 0. -1.
         24    2    1    2    0    0 -0.15138451379E+03 -0.92324251993E+03 -0.78364308917E+03  0.12229152911E+04  0.78302595027E+02 0.  0.
        254    2    1    2    0    0  0.15138451379E+03  0.92324251993E+03 -0.12694204887E+02  0.13003420255E+04  0.90301396387E+03 0.  0.
         23    2    4    4    0    0 -0.10158932876E+03  0.27380720115E+03 -0.39544396127E+03  0.50014263759E+03  0.92064957013E+02 0.  0.
         23    2    4    4    0    0  0.25297384255E+03  0.64943531878E+03  0.38274975638E+03  0.80019938796E+03  0.89775754987E+02 0.  0.
          2    1    3    3  502    0 -0.12510578750E+03 -0.80255486365E+03 -0.71194750576E+03  0.10800995409E+04  0.00000000000E+00 0. -1.
         -1    1    3    3    0  502 -0.26278726287E+02 -0.12068765628E+03 -0.71695583413E+02  0.14281575023E+03  0.00000000000E+00 0.  1.
         13    1    5    5    0    0 -0.90749660440E+02  0.17291616072E+03 -0.19771628323E+03  0.27789787362E+03  0.00000000000E+00 0.  1.
        -13    1    5    5    0    0 -0.10839668323E+02  0.10089104043E+03 -0.19772767804E+03  0.22224476397E+03  0.00000000000E+00 0. -1.
          3    1    6    6  503    0  0.16244266066E+01  0.81438879774E+02  0.49626663645E+02  0.95382050959E+02  0.00000000000E+00 0. -1.
         -3    1    6    6    0  503  0.25134941594E+03  0.56799643901E+03  0.33312309274E+03  0.70481733700E+03  0.00000000000E+00 0.  1.
<mgrwt>
<rscale>  0 0.23943004E+04</rscale>
<asrwt>0</asrwt>
<pdfrwt beam="1">  1        2 0.25535343E+00 0.23943004E+04</pdfrwt>
<pdfrwt beam="2">  1       -1 0.13284000E+00 0.23943004E+04</pdfrwt>
<totfact> 0.50782171E+00</totfact>
</mgrwt>
</event>
<event>
12    7  0.1701638E-007  0.1385223E+04  0.7818608E-02  0.8964585E-01
         -1   -1    0    0    0  501 -0.00000000000E+00  0.00000000000E+00  0.29785128013E+03  0.29785128013E+03  0.00000000000E+00 0.  1.
          2   -1    0    0  501    0  0.00000000000E+00 -0.00000000000E+00 -0.16105702254E+04  0.16105702254E+04  0.00000000000E+00 0. -1.
         24    2    1    2    0    0 -0.30109364326E+03 -0.22889549611E+03 -0.23890172929E+03  0.45791593628E+03  0.97787720565E+02 0.  0.
        254    2    1    2    0    0  0.30109364326E+03  0.22889549611E+03 -0.10738172160E+04  0.14505055693E+04  0.89879500608E+03 0.  0.
         23    2    4    4    0    0 -0.16034536943E+02  0.48714698374E+03 -0.82512924655E+03  0.96253808072E+03  0.89844271922E+02 0.  0.
         23    2    4    4    0    0  0.31712818020E+03 -0.25825148763E+03 -0.24868796948E+03  0.48796748856E+03  0.94881242561E+02 0.  0.
          2    1    3    3  502    0 -0.61753905005E+02 -0.70619996911E+01 -0.21380168579E+02  0.65730725171E+02  0.00000000000E+00 0. -1.
         -1    1    3    3    0  502 -0.23933973826E+03 -0.22183349642E+03 -0.21752156071E+03  0.39218521111E+03  0.00000000000E+00 0.  1.
         13    1    5    5    0    0 -0.28507382542E+02  0.24129044256E+03 -0.33235987025E+03  0.41169992942E+03  0.00000000000E+00 0. -1.
        -13    1    5    5    0    0  0.12472845599E+02  0.24585654117E+03 -0.49276937630E+03  0.55083815130E+03  0.00000000000E+00 0.  1.
          2    1    6    6  503    0  0.29274644820E+03 -0.22360687107E+03 -0.25064255216E+03  0.44555830671E+03  0.00000000000E+00 0. -1.
         -2    1    6    6    0  503  0.24381732005E+02 -0.34644616555E+02  0.19545826874E+01  0.42409181851E+02  0.00000000000E+00 0.  1.
<mgrwt>
<rscale>  0 0.13852226E+04</rscale>
<asrwt>0</asrwt>
<pdfrwt beam="1">  1        2 0.24778004E+00 0.13852226E+04</pdfrwt>
<pdfrwt beam="2">  1       -1 0.45823274E-01 0.13852226E+04</pdfrwt>
<totfact> 0.57804676E+01</totfact>
</mgrwt>
</event>
<event>
12    7  0.1701638E-007  0.2066950E+04  0.7818608E-02  0.8575944E-01
         -1   -1    0    0    0  501 -0.00000000000E+00  0.00000000000E+00  0.67092416974E+03  0.67092416974E+03  0.00000000000E+00 0.  1.
          2   -1    0    0  501    0  0.00000000000E+00 -0.00000000000E+00 -0.15919391944E+04  0.15919391944E+04  0.00000000000E+00 0. -1.
         24    2    1    2    0    0 -0.77418039645E+02  0.49073643330E+03 -0.11093397558E+04  0.12180110230E+04  0.78104791388E+02 0.  0.
        254    2    1    2    0    0  0.77418039645E+02 -0.49073643330E+03  0.18832473114E+03  0.10448523412E+04  0.89968572884E+03 0.  0.
         23    2    4    4    0    0  0.15086504098E+03 -0.72807099703E+03  0.62556414488E+02  0.75142263713E+03  0.88741406862E+02 0.  0.
         23    2    4    4    0    0 -0.73447001335E+02  0.23733456373E+03  0.12576831665E+03  0.29342970405E+03  0.92526561601E+02 0.  0.
          2    1    3    3  502    0 -0.27788047628E+02  0.37845006881E+03 -0.86450626103E+03  0.94412271741E+03  0.00000000000E+00 0. -1.
         -1    1    3    3    0  502 -0.49629992017E+02  0.11228636449E+03 -0.24483349477E+03  0.27388830555E+03  0.00000000000E+00 0.  1.
         13    1    5    5    0    0  0.84882581612E+02 -0.43167454664E+03  0.80482358212E+02  0.44724196679E+03  0.00000000000E+00 0. -1.
        -13    1    5    5    0    0  0.65982459367E+02 -0.29639645039E+03 -0.17925943724E+02  0.30418067033E+03  0.00000000000E+00 0.  1.
          1    1    6    6  503    0 -0.10225700892E+00  0.11345013286E+03  0.21004000213E+02  0.11537812240E+03  0.00000000000E+00 0. -1.
         -1    1    6    6    0  503 -0.73344744326E+02  0.12388443087E+03  0.10476431643E+03  0.17805158165E+03  0.00000000000E+00 0.  1.
<mgrwt>
<rscale>  0 0.20669499E+04</rscale>
<asrwt>0</asrwt>
<pdfrwt beam="1">  1        2 0.24491372E+00 0.20669499E+04</pdfrwt>
<pdfrwt beam="2">  1       -1 0.10321910E+00 0.20669499E+04</pdfrwt>
<totfact> 0.10507862E+01</totfact>
</mgrwt>
</event>
<event>
12    7  0.1701638E-007  0.3033328E+04  0.7818608E-02  0.8234278E-01
          2   -1    0    0  501    0  0.00000000000E+00  0.00000000000E+00  0.14359120769E+04  0.14359120769E+04  0.00000000000E+00 0. -1.
         -1   -1    0    0    0  501 -0.00000000000E+00 -0.00000000000E+00 -0.16019567384E+04  0.16019567384E+04  0.00000000000E+00 0.  1.
         24    2    1    2    0    0 -0.13700705824E+04  0.18245369402E+03  0.14765052427E+03  0.13924139759E+04  0.81444777344E+02 0.  0.
        254    2    1    2    0    0  0.13700705824E+04 -0.18245369402E+03 -0.31369518575E+03  0.16454548395E+04  0.83590322881E+03 0.  0.
         23    2    4    4    0    0  0.11485144392E+04 -0.41663469347E+03 -0.41793288903E+03  0.12944070679E+04  0.90287722350E+02 0.  0.
         23    2    4    4    0    0  0.22155614318E+03  0.23418099945E+03  0.10423770328E+03  0.35104777156E+03  0.91875862169E+02 0.  0.
          4    1    3    3  502    0 -0.84818280330E+02  0.25439573132E+02 -0.46899730907E+01  0.88675297614E+02  0.00000000000E+00 0. -1.
         -3    1    3    3    0  502 -0.12852523021E+04  0.15701412088E+03  0.15234049736E+03  0.13037386783E+04  0.00000000000E+00 0.  1.
         13    1    5    5    0    0  0.90426405379E+03 -0.31093594685E+03 -0.29086150834E+03  0.99948739814E+03  0.00000000000E+00 0.  1.
        -13    1    5    5    0    0  0.24425038544E+03 -0.10569874662E+03 -0.12707138069E+03  0.29491966977E+03  0.00000000000E+00 0. -1.
          1    1    6    6  503    0  0.22604941623E+03  0.23611758958E+03  0.10864634086E+03  0.34446172802E+03  0.00000000000E+00 0. -1.
         -1    1    6    6    0  503 -0.44932730550E+01 -0.19365901340E+01 -0.44086375860E+01  0.65860435360E+01  0.00000000000E+00 0.  1.
<mgrwt>
<rscale>  0 0.30333276E+04</rscale>
<asrwt>0</asrwt>
<pdfrwt beam="1">  1        2 0.22090955E+00 0.30333276E+04</pdfrwt>
<pdfrwt beam="2">  1       -1 0.24645488E+00 0.30333276E+04</pdfrwt>
<totfact> 0.98681129E-01</totfact>
</mgrwt>
</event>
<event>
12    7  0.1701638E-007  0.1891755E+04  0.7818608E-02  0.8658971E-01
         -1   -1    0    0    0  501 -0.00000000000E+00  0.00000000000E+00  0.47618821974E+03  0.47618821974E+03  0.00000000000E+00 0.  1.
          2   -1    0    0  501    0  0.00000000000E+00 -0.00000000000E+00 -0.18788453877E+04  0.18788453877E+04  0.00000000000E+00 0. -1.
         24    2    1    2    0    0 -0.49441834166E+03  0.11426979997E+03 -0.11941903397E+04  0.12999835532E+04  0.79747020667E+02 0.  0.
        254    2    1    2    0    0  0.49441834166E+03 -0.11426979997E+03 -0.20846682822E+03  0.10550500542E+04  0.90120203878E+03 0.  0.
         23    2    4    4    0    0  0.13633461102E+03 -0.39051516009E+03 -0.37378625574E+03  0.56503105877E+03  0.91949529519E+02 0.  0.
         23    2    4    4    0    0  0.35808373064E+03  0.27624536012E+03  0.16531942752E+03  0.49001899546E+03  0.90844073338E+02 0.  0.
          2    1    3    3  502    0 -0.34911452515E+03  0.10145681836E+03 -0.77243003240E+03  0.85371107092E+03  0.00000000000E+00 0. -1.
         -1    1    3    3    0  502 -0.14530381651E+03  0.12812981617E+02 -0.42176030735E+03  0.44627248228E+03  0.00000000000E+00 0.  1.
         13    1    5    5    0    0  0.27137391393E+02 -0.13618637023E+03 -0.17914903299E+03  0.22666614540E+03  0.00000000000E+00 0. -1.
        -13    1    5    5    0    0  0.10919721963E+03 -0.25432878986E+03 -0.19463722275E+03  0.33836491338E+03  0.00000000000E+00 0.  1.
          3    1    6    6  503    0  0.28905847115E+03  0.18140250855E+03  0.14579545409E+03  0.37110373790E+03  0.00000000000E+00 0. -1.
         -3    1    6    6    0  503  0.69025259495E+02  0.94842851570E+02  0.19523973422E+02  0.11891525756E+03  0.00000000000E+00 0.  1.
<mgrwt>
<rscale>  0 0.18917548E+04</rscale>
<asrwt>0</asrwt>
<pdfrwt beam="1">  1        2 0.28905314E+00 0.18917548E+04</pdfrwt>
<pdfrwt beam="2">  1       -1 0.73259725E-01 0.18917548E+04</pdfrwt>
<totfact> 0.15634060E+01</totfact>
</mgrwt>
</event>
<event>
12    7  0.1701638E-007  0.1419199E+04  0.7818608E-02  0.8940037E-01
         -1   -1    0    0    0  501 -0.00000000000E+00  0.00000000000E+00  0.41621700429E+03  0.41621700429E+03  0.00000000000E+00 0.  1.
          2   -1    0    0  501    0  0.00000000000E+00 -0.00000000000E+00 -0.12097816809E+04  0.12097816809E+04  0.00000000000E+00 0. -1.
         24    2    1    2    0    0 -0.29265143290E+00 -0.42138681771E+03 -0.32933580316E+03  0.54076155348E+03  0.79962808160E+02 0.  0.
        254    2    1    2    0    0  0.29265143290E+00  0.42138681771E+03 -0.46422887343E+03  0.10852371317E+04  0.88581276200E+03 0.  0.
         23    2    4    4    0    0 -0.43018541047E+03  0.16827667054E+03 -0.20738598099E+03  0.51445431466E+03  0.90982259395E+02 0.  0.
         23    2    4    4    0    0  0.43047806191E+03  0.25311014717E+03 -0.25684289244E+03  0.57078281705E+03  0.10221861111E+03 0.  0.
          2    1    3    3  502    0 -0.37362478958E+02 -0.20985589865E+03 -0.18247371419E+03  0.28059242577E+03  0.00000000000E+00 0. -1.
         -1    1    3    3    0  502  0.37069827526E+02 -0.21153091906E+03 -0.14686208897E+03  0.26016912770E+03  0.00000000000E+00 0.  1.
         13    1    5    5    0    0 -0.29125508703E+02  0.40078700926E+02 -0.17219544813E+02  0.52451027146E+02  0.00000000000E+00 0.  1.
        -13    1    5    5    0    0 -0.40105990177E+03  0.12819796961E+03 -0.19016643618E+03  0.46200328751E+03  0.00000000000E+00 0. -1.
          3    1    6    6  503    0  0.41757568422E+03  0.21545110324E+03 -0.23869892964E+03  0.52703492195E+03  0.00000000000E+00 0. -1.
         -3    1    6    6    0  503  0.12902377683E+02  0.37659043929E+02 -0.18143962799E+02  0.43747895099E+02  0.00000000000E+00 0.  1.
<mgrwt>
<rscale>  0 0.14191994E+04</rscale>
<asrwt>0</asrwt>
<pdfrwt beam="1">  1        2 0.18612026E+00 0.14191994E+04</pdfrwt>
<pdfrwt beam="2">  1       -1 0.64033386E-01 0.14191994E+04</pdfrwt>
<totfact> 0.51222383E+01</totfact>
</mgrwt>
</event>
<event>
12    7  0.1701638E-007  0.1423259E+04  0.7818608E-02  0.8937153E-01
          2   -1    0    0  501    0  0.00000000000E+00  0.00000000000E+00  0.33791006686E+04  0.33791006686E+04  0.00000000000E+00 0. -1.
         -1   -1    0    0    0  501 -0.00000000000E+00 -0.00000000000E+00 -0.14986718490E+03  0.14986718490E+03  0.00000000000E+00 0.  1.
         24    2    1    2    0    0 -0.64924306899E+02 -0.35853686943E+03  0.14655380058E+04  0.15120506868E+04  0.75708524177E+02 0.  0.
        254    2    1    2    0    0  0.64924306899E+02  0.35853686943E+03  0.17636954779E+04  0.20169171667E+04  0.90805796411E+03 0.  0.
         23    2    4    4    0    0 -0.56485466577E+02 -0.28753710726E+03  0.67727980897E+03  0.74368243532E+03  0.92127243388E+02 0.  0.
         23    2    4    4    0    0  0.12140977348E+03  0.64607397669E+03  0.10864156689E+04  0.12732347314E+04  0.93143754708E+02 0.  0.
          4    1    3    3  502    0 -0.93041884831E+01 -0.45824609386E+02  0.10518497812E+03  0.11511013149E+03  0.00000000000E+00 0. -1.
         -3    1    3    3    0  502 -0.55620118416E+02 -0.31271226005E+03  0.13603530277E+04  0.13969405553E+04  0.00000000000E+00 0.  1.
         13    1    5    5    0    0 -0.24416776504E+02 -0.47892448374E+02  0.59045116846E+02  0.79851057660E+02  0.00000000000E+00 0.  1.
        -13    1    5    5    0    0 -0.32068690073E+02 -0.23964465889E+03  0.61823469212E+03  0.66383137766E+03  0.00000000000E+00 0. -1.
          3    1    6    6  503    0  0.92961505303E+02  0.56457281933E+03  0.88196322244E+03  0.10513055862E+04  0.00000000000E+00 0. -1.
         -3    1    6    6    0  503  0.28448268173E+02  0.81501157363E+02  0.20445244651E+03  0.22192914521E+03  0.00000000000E+00 0.  1.
<mgrwt>
<rscale>  0 0.14232587E+04</rscale>
<asrwt>0</asrwt>
<pdfrwt beam="1">  1        2 0.51986159E+00 0.14232587E+04</pdfrwt>
<pdfrwt beam="2">  1       -1 0.23056492E-01 0.14232587E+04</pdfrwt>
<totfact> 0.17790138E+01</totfact>
</mgrwt>
</event>
<event>
12    7  0.1701638E-007  0.1954637E+04  0.7818608E-02  0.8628128E-01
          2   -1    0    0  501    0  0.00000000000E+00  0.00000000000E+00  0.60940456834E+03  0.60940456834E+03  0.00000000000E+00 0. -1.
         -1   -1    0    0    0  501 -0.00000000000E+00 -0.00000000000E+00 -0.15673518320E+04  0.15673518320E+04  0.00000000000E+00 0.  1.
         24    2    1    2    0    0 -0.69525423289E+03 -0.25957419399E+03 -0.57566919390E+03  0.94246172865E+03  0.77986400187E+02 0.  0.
        254    2    1    2    0    0  0.69525423289E+03  0.25957419399E+03 -0.38227806975E+03  0.12342946717E+04  0.90916973299E+03 0.  0.
         23    2    4    4    0    0  0.73514703446E+03  0.19274150987E+03  0.67450042843E+02  0.76851097464E+03  0.92028028096E+02 0.  0.
         23    2    4    4    0    0 -0.39892801569E+02  0.66832684117E+02 -0.44972811259E+03  0.46578369704E+03  0.92957161581E+02 0.  0.
          4    1    3    3  502    0 -0.61501879979E+03 -0.25518962430E+03 -0.51317103873E+03  0.84066306177E+03  0.00000000000E+00 0. -1.
         -3    1    3    3    0  502 -0.80235433107E+02 -0.43845696942E+01 -0.62498155177E+02  0.10179866688E+03  0.00000000000E+00 0.  1.
         13    1    5    5    0    0  0.72626571532E+03  0.18642410819E+03  0.77346511312E+02  0.75378930755E+03  0.00000000000E+00 0. -1.
        -13    1    5    5    0    0  0.88813191411E+01  0.63174016841E+01 -0.98964684694E+01  0.14721667089E+02  0.00000000000E+00 0.  1.
          4    1    6    6  503    0  0.16503818287E+01  0.71698854847E+01 -0.29215488777E+03  0.29224751404E+03  0.00000000000E+00 0. -1.
         -4    1    6    6    0  503 -0.41543183398E+02  0.59662798632E+02 -0.15757322483E+03  0.17353618300E+03  0.00000000000E+00 0.  1.
<mgrwt>
<rscale>  0 0.19546369E+04</rscale>
<asrwt>0</asrwt>
<pdfrwt beam="1">  1        2 0.93754550E-01 0.19546369E+04</pdfrwt>
<pdfrwt beam="2">  1       -1 0.24113105E+00 0.19546369E+04</pdfrwt>
<totfact> 0.41301330E+00</totfact>
</mgrwt>
</event>
<event>
12    7  0.1701638E-007  0.2259827E+04  0.7818608E-02  0.8493931E-01
          2   -1    0    0  501    0  0.00000000000E+00  0.00000000000E+00  0.14341383807E+04  0.14341383807E+04  0.00000000000E+00 0. -1.
         -1   -1    0    0    0  501 -0.00000000000E+00 -0.00000000000E+00 -0.89022442960E+03  0.89022442960E+03  0.00000000000E+00 0.  1.
         24    2    1    2    0    0 -0.28764141470E+02 -0.63605973335E+03  0.95165766525E+03  0.11476944536E+04  0.78427588855E+02 0.  0.
        254    2    1    2    0    0  0.28764141470E+02  0.63605973335E+03 -0.40774371414E+03  0.11766683568E+04  0.90160641365E+03 0.  0.
         23    2    4    4    0    0 -0.10851633201E+03  0.67898855162E+03 -0.60144871783E+03  0.91831053758E+03  0.93554453162E+02 0.  0.
         23    2    4    4    0    0  0.13728047348E+03 -0.42928818272E+02  0.19370500369E+03  0.25835781917E+03  0.92403043415E+02 0.  0.
          2    1    3    3  502    0 -0.43321071200E+02 -0.44499674874E+03  0.61533090245E+03  0.76061221467E+03  0.00000000000E+00 0. -1.
         -1    1    3    3    0  502  0.14556929730E+02 -0.19106298461E+03  0.33632676280E+03  0.38708223889E+03  0.00000000000E+00 0.  1.
         13    1    5    5    0    0 -0.19134936881E+02  0.35759269999E+03 -0.34817922779E+03  0.49946717566E+03  0.00000000000E+00 0. -1.
        -13    1    5    5    0    0 -0.89381395132E+02  0.32139585163E+03 -0.25326949004E+03  0.41884336192E+03  0.00000000000E+00 0.  1.
          2    1    6    6  503    0  0.77286888060E+02 -0.41539535104E+01  0.16331809278E+03  0.18072995830E+03  0.00000000000E+00 0. -1.
         -2    1    6    6    0  503  0.59993585423E+02 -0.38774864761E+02  0.30386910912E+02  0.77627860874E+02  0.00000000000E+00 0.  1.
<mgrwt>
<rscale>  0 0.22598274E+04</rscale>
<asrwt>0</asrwt>
<pdfrwt beam="1">  1        2 0.22063667E+00 0.22598274E+04</pdfrwt>
<pdfrwt beam="2">  1       -1 0.13695760E+00 0.22598274E+04</pdfrwt>
<totfact> 0.63642818E+00</totfact>
</mgrwt>
</event>
<event>
12    7  0.1701638E-007  0.2464179E+04  0.7818608E-02  0.8415859E-01
          2   -1    0    0  501    0  0.00000000000E+00  0.00000000000E+00  0.11847950202E+04  0.11847950202E+04  0.00000000000E+00 0. -1.
         -1   -1    0    0    0  501 -0.00000000000E+00 -0.00000000000E+00 -0.12812722867E+04  0.12812722867E+04  0.00000000000E+00 0.  1.
         24    2    1    2    0    0 -0.62036434748E+03  0.86004962055E+03 -0.12079555647E+03  0.10702261473E+04  0.79089611006E+02 0.  0.
        254    2    1    2    0    0  0.62036434748E+03 -0.86004962055E+03  0.24318289989E+02  0.13958411595E+04  0.90732788444E+03 0.  0.
         23    2    4    4    0    0  0.45634583272E+03 -0.93321267459E+03  0.27169353999E+03  0.10774835505E+04  0.89532155080E+02 0.  0.
         23    2    4    4    0    0  0.16401851476E+03  0.73163054044E+02 -0.24737525000E+03  0.31835760903E+03  0.88894022592E+02 0.  0.
          2    1    3    3  502    0 -0.29504405369E+03  0.38283660250E+03 -0.91577029655E+02  0.49193618508E+03  0.00000000000E+00 0. -1.
         -1    1    3    3    0  502 -0.32532029379E+03  0.47721301805E+03 -0.29218526810E+02  0.57828996226E+03  0.00000000000E+00 0.  1.
         13    1    5    5    0    0  0.18063133991E+03 -0.44798794094E+03  0.15533457570E+03  0.50739502027E+03  0.00000000000E+00 0.  1.
        -13    1    5    5    0    0  0.27571449281E+03 -0.48522473365E+03  0.11635896429E+03  0.57008853020E+03  0.00000000000E+00 0. -1.
          3    1    6    6  503    0  0.27597944297E+02 -0.20794299812E+02 -0.48112068755E+02  0.59235298547E+02  0.00000000000E+00 0. -1.
         -3    1    6    6    0  503  0.13642057047E+03  0.93957353856E+02 -0.19926318125E+03  0.25912231048E+03  0.00000000000E+00 0.  1.
<mgrwt>
<rscale>  0 0.24641794E+04</rscale>
<asrwt>0</asrwt>
<pdfrwt beam="1">  1        2 0.18227616E+00 0.24641794E+04</pdfrwt>
<pdfrwt beam="2">  1       -1 0.19711881E+00 0.24641794E+04</pdfrwt>
<totfact> 0.31075334E+00</totfact>
</mgrwt>
</event>
<event>
12    7  0.1701638E-007  0.1314693E+04  0.7818608E-02  0.9017994E-01
          2   -1    0    0  501    0  0.00000000000E+00  0.00000000000E+00  0.16283231483E+04  0.16283231483E+04  0.00000000000E+00 0. -1.
         -1   -1    0    0    0  501 -0.00000000000E+00 -0.00000000000E+00 -0.26536757775E+03  0.26536757775E+03  0.00000000000E+00 0.  1.
         24    2    1    2    0    0 -0.10414544702E+01 -0.41765402634E+02  0.92878733824E+03  0.93330001993E+03  0.81593958286E+02 0.  0.
        254    2    1    2    0    0  0.10414544702E+01  0.41765402634E+02  0.43416823231E+03  0.96039070613E+03  0.85563007251E+03 0.  0.
         23    2    4    4    0    0 -0.30667425012E+02 -0.39616415366E+03  0.22885499464E+03  0.46715938736E+03  0.89312692427E+02 0.  0.
         23    2    4    4    0    0  0.31708879482E+02  0.43792955629E+03  0.20531323768E+03  0.49323131877E+03  0.91300925145E+02 0.  0.
          2    1    3    3  502    0 -0.38499528130E+02 -0.16635908761E+02  0.59537148982E+03  0.59684686312E+03  0.00000000000E+00 0. -1.
         -1    1    3    3    0  502  0.37458073660E+02 -0.25129493873E+02  0.33341584842E+03  0.33645315680E+03  0.00000000000E+00 0.  1.
         13    1    5    5    0    0  0.10056297850E+02 -0.17415106389E+03  0.14336603828E+03  0.22579535671E+03  0.00000000000E+00 0. -1.
        -13    1    5    5    0    0 -0.40723722862E+02 -0.22201308977E+03  0.85488956358E+02  0.24136403065E+03  0.00000000000E+00 0.  1.
          4    1    6    6  503    0  0.39100444186E+01  0.35654913746E+03  0.13197976793E+03  0.38021209214E+03  0.00000000000E+00 0. -1.
         -4    1    6    6    0  503  0.27798835063E+02  0.81380418835E+02  0.73333469751E+02  0.11301922662E+03  0.00000000000E+00 0.  1.
<mgrwt>
<rscale>  0 0.13146926E+04</rscale>
<asrwt>0</asrwt>
<pdfrwt beam="1">  1        2 0.25051125E+00 0.13146926E+04</pdfrwt>
<pdfrwt beam="2">  1       -1 0.40825782E-01 0.13146926E+04</pdfrwt>
<totfact> 0.70359685E+01</totfact>
</mgrwt>
</event>
<event>
12    7  0.1701638E-007  0.1857179E+04  0.7818608E-02  0.8676470E-01
          2   -1    0    0  501    0  0.00000000000E+00  0.00000000000E+00  0.13175012229E+04  0.13175012229E+04  0.00000000000E+00 0. -1.
         -1   -1    0    0    0  501 -0.00000000000E+00 -0.00000000000E+00 -0.65448007366E+03  0.65448007366E+03  0.00000000000E+00 0.  1.
         24    2    1    2    0    0 -0.34025984052E+03 -0.19632285905E+03 -0.35910910679E+03  0.53785721491E+03  0.77534566452E+02 0.  0.
        254    2    1    2    0    0  0.34025984052E+03  0.19632285905E+03  0.10221302561E+04  0.14341240817E+04  0.92608973497E+03 0.  0.
         23    2    4    4    0    0  0.18348509723E+01 -0.22427182770E+03 -0.30111676353E+02  0.24804250677E+03  0.10157338595E+03 0.  0.
         23    2    4    4    0    0  0.33842498955E+03  0.42059468675E+03  0.10522419324E+04  0.11860815749E+04  0.90249952500E+02 0.  0.
          2    1    3    3  502    0 -0.50668889506E+02 -0.54120174159E+00 -0.50952672092E+02  0.71859613528E+02  0.00000000000E+00 0. -1.
         -1    1    3    3    0  502 -0.28959095102E+03 -0.19578165731E+03 -0.30815643470E+03  0.46599760138E+03  0.00000000000E+00 0.  1.
         13    1    5    5    0    0 -0.33353003596E+02 -0.19421506963E+03 -0.92358640639E+01  0.19727447200E+03  0.00000000000E+00 0.  1.
        -13    1    5    5    0    0  0.35187854568E+02 -0.30056758070E+02 -0.20875812289E+02  0.50768034761E+02  0.00000000000E+00 0. -1.
          1    1    6    6  503    0  0.10635616957E+03  0.89041213155E+02  0.33423542755E+03  0.36187469306E+03  0.00000000000E+00 0. -1.
         -1    1    6    6    0  503  0.23206881997E+03  0.33155347360E+03  0.71800650488E+03  0.82420688186E+03  0.00000000000E+00 0.  1.
<mgrwt>
<rscale>  0 0.18571788E+04</rscale>
<asrwt>0</asrwt>
<pdfrwt beam="1">  1        2 0.20269249E+00 0.18571788E+04</pdfrwt>
<pdfrwt beam="2">  1       -1 0.10068924E+00 0.18571788E+04</pdfrwt>
<totfact> 0.16230208E+01</totfact>
</mgrwt>
</event>
<event>
12    7  0.1701638E-007  0.2236815E+04  0.7818608E-02  0.8503259E-01
         -1   -1    0    0    0  501 -0.00000000000E+00  0.00000000000E+00  0.89821208237E+03  0.89821208237E+03  0.00000000000E+00 0.  1.
          2   -1    0    0  501    0  0.00000000000E+00 -0.00000000000E+00 -0.13925836461E+04  0.13925836461E+04  0.00000000000E+00 0. -1.
         24    2    1    2    0    0  0.45612443328E+03  0.77697115228E+03 -0.46243824331E+03  0.10161961325E+04  0.84093879847E+02 0.  0.
        254    2    1    2    0    0 -0.45612443328E+03 -0.77697115228E+03 -0.31933320371E+02  0.12745995960E+04  0.90102759280E+03 0.  0.
         23    2    4    4    0    0  0.91312705661E+02 -0.49566557724E+03 -0.30452002890E+03  0.59575545385E+03  0.90386603630E+02 0.  0.
         23    2    4    4    0    0 -0.54743713894E+03 -0.28130557504E+03  0.27258670853E+03  0.67884414212E+03  0.87781592538E+02 0.  0.
          2    1    3    3  502    0  0.38150909774E+03  0.69949742187E+03 -0.41864189804E+03  0.90005937230E+03  0.00000000000E+00 0. -1.
         -1    1    3    3    0  502  0.74615335534E+02  0.77473730411E+02 -0.43796345265E+02  0.11613676015E+03  0.00000000000E+00 0.  1.
         13    1    5    5    0    0  0.96598673142E+02 -0.44994058356E+03 -0.30035684405E+03  0.54953804796E+03  0.00000000000E+00 0. -1.
        -13    1    5    5    0    0 -0.52859674807E+01 -0.45724993678E+02 -0.41631848494E+01  0.46217405890E+02  0.00000000000E+00 0.  1.
          1    1    6    6  503    0 -0.54254961026E+03 -0.28050131626E+03  0.25726476360E+03  0.66274144778E+03  0.00000000000E+00 0. -1.
         -1    1    6    6    0  503 -0.48875286820E+01 -0.80425878551E+00  0.15321944928E+02  0.16102694345E+02  0.00000000000E+00 0.  1.
<mgrwt>
<rscale>  0 0.22368151E+04</rscale>
<asrwt>0</asrwt>
<pdfrwt beam="1">  1        2 0.21424364E+00 0.22368151E+04</pdfrwt>
<pdfrwt beam="2">  1       -1 0.13818647E+00 0.22368151E+04</pdfrwt>
<totfact> 0.65810031E+00</totfact>
</mgrwt>
</event>
<event>
12    7  0.1701638E-007  0.1081814E+04  0.7818608E-02  0.9223101E-01
         -1   -1    0    0    0  501 -0.00000000000E+00  0.00000000000E+00  0.23972546061E+03  0.23972546061E+03  0.00000000000E+00 0.  1.
          2   -1    0    0  501    0  0.00000000000E+00 -0.00000000000E+00 -0.12204813833E+04  0.12204813833E+04  0.00000000000E+00 0. -1.
         24    2    1    2    0    0 -0.73807413274E+02  0.12407492892E+03 -0.58485342353E+02  0.17533393796E+03  0.80494299733E+02 0.  0.
        254    2    1    2    0    0  0.73807413274E+02 -0.12407492892E+03 -0.92227058032E+03  0.12848729059E+04  0.88287781648E+03 0.  0.
         23    2    4    4    0    0  0.29758191080E+03 -0.40245675170E+03 -0.64500091936E+03  0.82167677032E+03  0.92736714855E+02 0.  0.
         23    2    4    4    0    0 -0.22377449752E+03  0.27838182277E+03 -0.27726966096E+03  0.46319613561E+03  0.10050238885E+03 0.  0.
          4    1    3    3  502    0 -0.21841217990E+00 -0.45478213424E+01 -0.22345255453E+02  0.22804403612E+02  0.00000000000E+00 0. -1.
         -3    1    3    3    0  502 -0.73589001094E+02  0.12862275027E+03 -0.36140086900E+02  0.15252953435E+03  0.00000000000E+00 0.  1.
         13    1    5    5    0    0  0.20796902120E+03 -0.28301936646E+03 -0.51695693180E+03  0.62497643548E+03  0.00000000000E+00 0. -1.
        -13    1    5    5    0    0  0.89612889596E+02 -0.11943738524E+03 -0.12804398757E+03  0.19670033484E+03  0.00000000000E+00 0.  1.
          1    1    6    6  503    0 -0.66344675993E+02  0.13070669714E+03 -0.64623863003E+02  0.16019394614E+03  0.00000000000E+00 0. -1.
         -1    1    6    6    0  503 -0.15742982153E+03  0.14767512564E+03 -0.21264579795E+03  0.30300218947E+03  0.00000000000E+00 0.  1.
<mgrwt>
<rscale>  0 0.10818141E+04</rscale>
<asrwt>0</asrwt>
<pdfrwt beam="1">  1        2 0.18776637E+00 0.10818141E+04</pdfrwt>
<pdfrwt beam="2">  1       -1 0.36880840E-01 0.10818141E+04</pdfrwt>
<totfact> 0.14716733E+02</totfact>
</mgrwt>
</event>
<event>
12    7  0.1701638E-007  0.1825131E+04  0.7818608E-02  0.8693048E-01
          2   -1    0    0  501    0  0.00000000000E+00  0.00000000000E+00  0.11342440893E+04  0.11342440893E+04  0.00000000000E+00 0. -1.
         -1   -1    0    0    0  501 -0.00000000000E+00 -0.00000000000E+00 -0.73421201538E+03  0.73421201538E+03  0.00000000000E+00 0.  1.
         24    2    1    2    0    0 -0.38748221760E+03 -0.46503069660E+03 -0.18147052512E+03  0.63701437085E+03  0.80372504262E+02 0.  0.
        254    2    1    2    0    0  0.38748221760E+03  0.46503069660E+03  0.58150259907E+03  0.12314417339E+04  0.90105907323E+03 0.  0.
         23    2    4    4    0    0  0.32558992222E+03 -0.32367814231E+02 -0.12353277098E+03  0.36165400168E+03  0.92069531208E+02 0.  0.
         23    2    4    4    0    0  0.61892295373E+02  0.49739851083E+03  0.70503537006E+03  0.86978773218E+03  0.90663615738E+02 0.  0.
          2    1    3    3  502    0 -0.26054980539E+02 -0.56616582206E+02 -0.26213012358E+00  0.62324698987E+02  0.00000000000E+00 0. -1.
         -1    1    3    3    0  502 -0.36142723706E+03 -0.40841411440E+03 -0.18120839499E+03  0.57468967186E+03  0.00000000000E+00 0.  1.
         13    1    5    5    0    0  0.23847059522E+03 -0.29607528332E+02 -0.13184631140E+03  0.27409538549E+03  0.00000000000E+00 0.  1.
        -13    1    5    5    0    0  0.87119326998E+02 -0.27602858985E+01  0.83135404141E+01  0.87558616190E+02  0.00000000000E+00 0. -1.
          2    1    6    6  503    0  0.61570541384E+01  0.61100551929E+01  0.20707243183E-01  0.86742445730E+01  0.00000000000E+00 0. -1.
         -2    1    6    6    0  503  0.55735241235E+02  0.49128845564E+03  0.70501466281E+03  0.86111348761E+03  0.00000000000E+00 0.  1.
<mgrwt>
<rscale>  0 0.18251308E+04</rscale>
<asrwt>0</asrwt>
<pdfrwt beam="1">  1        2 0.17449909E+00 0.18251308E+04</pdfrwt>
<pdfrwt beam="2">  1       -1 0.11295570E+00 0.18251308E+04</pdfrwt>
<totfact> 0.15982401E+01</totfact>
</mgrwt>
</event>
<event>
12    7  0.1701638E-007  0.2968154E+04  0.7818608E-02  0.8252884E-01
          2   -1    0    0  501    0  0.00000000000E+00  0.00000000000E+00  0.22703474752E+04  0.22703474752E+04  0.00000000000E+00 0. -1.
         -1   -1    0    0    0  501 -0.00000000000E+00 -0.00000000000E+00 -0.97010875836E+03  0.97010875836E+03  0.00000000000E+00 0.  1.
         24    2    1    2    0    0  0.97420515549E+03  0.21224497897E+03 -0.39822108003E+03  0.10763432535E+04  0.76230929994E+02 0.  0.
        254    2    1    2    0    0 -0.97420515549E+03 -0.21224497897E+03  0.16984597969E+04  0.21641129801E+04  0.89693683883E+03 0.  0.
         23    2    4    4    0    0 -0.32837127014E+03 -0.45893568063E+03  0.11209173263E+04  0.12581960407E+04  0.90288286220E+02 0.  0.
         23    2    4    4    0    0 -0.64583388535E+03  0.24669070167E+03  0.57754247065E+03  0.90591693936E+03  0.95773095687E+02 0.  0.
          4    1    3    3  502    0  0.19318953804E+02  0.90029716431E+01  0.15883701793E+01  0.21372842448E+02  0.00000000000E+00 0. -1.
         -3    1    3    3    0  502  0.95488620169E+03  0.20324200732E+03 -0.39980945021E+03  0.10549704110E+04  0.00000000000E+00 0.  1.
         13    1    5    5    0    0 -0.86741079007E+02 -0.61572969012E+02  0.20187387828E+03  0.22818481113E+03  0.00000000000E+00 0.  1.
        -13    1    5    5    0    0 -0.24163019113E+03 -0.39736271162E+03  0.91904344798E+03  0.10300112296E+04  0.00000000000E+00 0. -1.
          2    1    6    6  503    0 -0.49149887267E+02  0.45122470974E+02  0.73302113930E+02  0.99120879293E+02  0.00000000000E+00 0.  1.
         -2    1    6    6    0  503 -0.59668399808E+03  0.20156823069E+03  0.50424035672E+03  0.80679606006E+03  0.00000000000E+00 0. -1.
<mgrwt>
<rscale>  0 0.29681536E+04</rscale>
<asrwt>0</asrwt>
<pdfrwt beam="1">  1        2 0.34928423E+00 0.29681536E+04</pdfrwt>
<pdfrwt beam="2">  1       -1 0.14924750E+00 0.29681536E+04</pdfrwt>
<totfact> 0.16262251E+00</totfact>
</mgrwt>
</event>
<event>
12    7  0.1701638E-007  0.2883761E+04  0.7818608E-02  0.8277725E-01
          2   -1    0    0  501    0  0.00000000000E+00  0.00000000000E+00  0.16598442463E+04  0.16598442463E+04  0.00000000000E+00 0. -1.
         -1   -1    0    0    0  501 -0.00000000000E+00 -0.00000000000E+00 -0.12525389886E+04  0.12525389886E+04  0.00000000000E+00 0.  1.
         24    2    1    2    0    0 -0.42069995727E+03  0.55170088871E+03 -0.91220363259E+03  0.11488818266E+04  0.80322223157E+02 0.  0.
        254    2    1    2    0    0  0.42069995727E+03 -0.55170088871E+03  0.13195088902E+04  0.17635014083E+04  0.94205688832E+03 0.  0.
         23    2    4    4    0    0 -0.10866230476E+03 -0.12115182958E+03  0.97662806073E+03  0.99429887802E+03  0.91337985171E+02 0.  0.
         23    2    4    4    0    0  0.52936226203E+03 -0.43054905913E+03  0.34288082952E+03  0.76920253024E+03  0.92240839630E+02 0.  0.
          2    1    3    3  502    0 -0.13344392099E+03  0.23555381158E+03 -0.37626076972E+03  0.46353537625E+03  0.00000000000E+00 0. -1.
         -1    1    3    3    0  502 -0.28725603627E+03  0.31614707713E+03 -0.53594286287E+03  0.68534645036E+03  0.00000000000E+00 0.  1.
         13    1    5    5    0    0 -0.36743820810E+01 -0.46867809410E+02  0.13615286270E+03  0.14404060075E+03  0.00000000000E+00 0. -1.
        -13    1    5    5    0    0 -0.10498792268E+03 -0.74284020173E+02  0.84047519802E+03  0.85025827726E+03  0.00000000000E+00 0.  1.
          1    1    6    6  503    0  0.74584496735E+02 -0.27185138356E+02  0.25054931049E+02  0.83244390024E+02  0.00000000000E+00 0. -1.
         -1    1    6    6    0  503  0.45477776529E+03 -0.40336392077E+03  0.31782589847E+03  0.68595814021E+03  0.00000000000E+00 0.  1.
<mgrwt>
<rscale>  0 0.28837612E+04</rscale>
<asrwt>0</asrwt>
<pdfrwt beam="1">  1        2 0.25536065E+00 0.28837612E+04</pdfrwt>
<pdfrwt beam="2">  1       -1 0.19269831E+00 0.28837612E+04</pdfrwt>
<totfact> 0.17184639E+00</totfact>
</mgrwt>
</event>
<event>
12    7  0.1701638E-007  0.2299967E+04  0.7818608E-02  0.8477934E-01
         -1   -1    0    0    0  501 -0.00000000000E+00  0.00000000000E+00  0.51752488345E+03  0.51752488345E+03  0.00000000000E+00 0.  1.
          2   -1    0    0  501    0  0.00000000000E+00 -0.00000000000E+00 -0.25553596185E+04  0.25553596185E+04  0.00000000000E+00 0. -1.
         24    2    1    2    0    0  0.45591317276E+03 -0.82931836663E+03 -0.89089677960E+03  0.13021980982E+04  0.79981502543E+02 0.  0.
        254    2    1    2    0    0 -0.45591317276E+03  0.82931836663E+03 -0.11469379554E+04  0.17706864037E+04  0.96137292057E+03 0.  0.
         23    2    4    4    0    0 -0.64388731863E+03  0.91614590935E+03 -0.94427413283E+03  0.14676504036E+04  0.91814284536E+02 0.  0.
         23    2    4    4    0    0  0.18797414587E+03 -0.86827542724E+02 -0.20266382260E+03  0.30303600016E+03  0.88796907096E+02 0.  0.
          4    1    3    3  502    0  0.38275987961E+03 -0.64191149350E+03 -0.67447400555E+03  0.10067128067E+04  0.00000000000E+00 0. -1.
         -3    1    3    3    0  502  0.73153293152E+02 -0.18740687312E+03 -0.21642277405E+03  0.29548529155E+03  0.00000000000E+00 0.  1.
         13    1    5    5    0    0 -0.54590875872E+03  0.82467294854E+03 -0.81691106668E+03  0.12827492100E+04  0.00000000000E+00 0. -1.
        -13    1    5    5    0    0 -0.97978559912E+02  0.91472960805E+02 -0.12736306615E+03  0.18490119356E+03  0.00000000000E+00 0.  1.
          3    1    6    6  503    0  0.38541128646E+02 -0.56943099703E+02 -0.37548534021E+02  0.78344288932E+02  0.00000000000E+00 0. -1.
         -3    1    6    6    0  503  0.14943301723E+03 -0.29884443022E+02 -0.16511528858E+03  0.22469171123E+03  0.00000000000E+00 0.  1.
<mgrwt>
<rscale>  0 0.22999671E+04</rscale>
<asrwt>0</asrwt>
<pdfrwt beam="1">  1        2 0.39313225E+00 0.22999671E+04</pdfrwt>
<pdfrwt beam="2">  1       -1 0.79619213E-01 0.22999671E+04</pdfrwt>
<totfact> 0.52539534E+00</totfact>
</mgrwt>
</event>
<event>
12    7  0.1701638E-007  0.1831021E+04  0.7818608E-02  0.8689974E-01
          2   -1    0    0  501    0  0.00000000000E+00  0.00000000000E+00  0.81894715412E+03  0.81894715412E+03  0.00000000000E+00 0. -1.
         -1   -1    0    0    0  501 -0.00000000000E+00 -0.00000000000E+00 -0.10234602082E+04  0.10234602082E+04  0.00000000000E+00 0.  1.
         24    2    1    2    0    0 -0.22984349995E+03 -0.44043642689E+03 -0.55756303267E+03  0.75107845065E+03  0.80187424395E+02 0.  0.
        254    2    1    2    0    0  0.22984349995E+03  0.44043642689E+03  0.35304997861E+03  0.10913289117E+04  0.90528571480E+03 0.  0.
         23    2    4    4    0    0 -0.11770486610E+03  0.47041013081E+03 -0.10882059089E+03  0.50546980456E+03  0.92291254453E+02 0.  0.
         23    2    4    4    0    0  0.34754836604E+03 -0.29973703921E+02  0.46187056950E+03  0.58585910710E+03  0.90654182115E+02 0.  0.
          2    1    3    3  502    0 -0.29088079435E+02 -0.12008721674E+03 -0.11230592007E+03  0.16697208051E+03  0.00000000000E+00 0. -1.
         -1    1    3    3    0  502 -0.20075542051E+03 -0.32034921015E+03 -0.44525711260E+03  0.58410637013E+03  0.00000000000E+00 0.  1.
         13    1    5    5    0    0 -0.86261277749E+02  0.43676800323E+03 -0.11273042961E+03  0.45925531728E+03  0.00000000000E+00 0. -1.
        -13    1    5    5    0    0 -0.31443588347E+02  0.33642127578E+02  0.39098387188E+01  0.46214487284E+02  0.00000000000E+00 0.  1.
          1    1    6    6  503    0  0.29847143548E+03 -0.18439963134E+01  0.42100334522E+03  0.51607404004E+03  0.00000000000E+00 0. -1.
         -1    1    6    6    0  503  0.49076930562E+02 -0.28129707607E+02  0.40867224276E+02  0.69785067052E+02  0.00000000000E+00 0.  1.
<mgrwt>
<rscale>  0 0.18310214E+04</rscale>
<asrwt>0</asrwt>
<pdfrwt beam="1">  1        2 0.12599187E+00 0.18310214E+04</pdfrwt>
<pdfrwt beam="2">  1       -1 0.15745542E+00 0.18310214E+04</pdfrwt>
<totfact> 0.10965154E+01</totfact>
</mgrwt>
</event>
<event>
12    7  0.1701638E-007  0.1399344E+04  0.7818608E-02  0.8954293E-01
         -1   -1    0    0    0  501 -0.00000000000E+00  0.00000000000E+00  0.37522056454E+03  0.37522056454E+03  0.00000000000E+00 0.  1.
          2   -1    0    0  501    0  0.00000000000E+00 -0.00000000000E+00 -0.13046752003E+04  0.13046752003E+04  0.00000000000E+00 0. -1.
         24    2    1    2    0    0  0.15548171189E+03 -0.30221578383E+02 -0.70983762481E+03  0.73163310635E+03  0.79559048336E+02 0.  0.
        254    2    1    2    0    0 -0.15548171189E+03  0.30221578383E+02 -0.21961701090E+03  0.94826265844E+03  0.90878079391E+03 0.  0.
         23    2    4    4    0    0 -0.36952867635E+03 -0.32345312379E+03 -0.10818228007E+03  0.51101706838E+03  0.90893742992E+02 0.  0.
         23    2    4    4    0    0  0.21404696447E+03  0.35367470218E+03 -0.11143473083E+03  0.43724559006E+03  0.88679810760E+02 0.  0.
          4    1    3    3  502    0  0.12544811661E+03 -0.12388460404E+02 -0.38936292312E+03  0.40926054026E+03  0.00000000000E+00 0. -1.
         -3    1    3    3    0  502  0.30033595282E+02 -0.17833117980E+02 -0.32047470169E+03  0.32237256609E+03  0.00000000000E+00 0.  1.
         13    1    5    5    0    0 -0.19241794478E+03 -0.21166152042E+03 -0.30661072329E+02  0.28768970447E+03  0.00000000000E+00 0. -1.
        -13    1    5    5    0    0 -0.17711073157E+03 -0.11179160337E+03 -0.77521207736E+02  0.22332736391E+03  0.00000000000E+00 0.  1.
          2    1    6    6  503    0  0.15262143372E+03  0.25770228627E+03 -0.12072392107E+03  0.32292109794E+03  0.00000000000E+00 0. -1.
         -2    1    6    6    0  503  0.61425530751E+02  0.95972415909E+02  0.92891902381E+01  0.11432449212E+03  0.00000000000E+00 0.  1.
<mgrwt>
<rscale>  0 0.13993441E+04</rscale>
<asrwt>0</asrwt>
<pdfrwt beam="1">  1        2 0.20071926E+00 0.13993441E+04</pdfrwt>
<pdfrwt beam="2">  1       -1 0.57726240E-01 0.13993441E+04</pdfrwt>
<totfact> 0.55402014E+01</totfact>
</mgrwt>
</event>
<event>
12    7  0.1701638E-007  0.1448538E+04  0.7818608E-02  0.8919415E-01
          2   -1    0    0  501    0  0.00000000000E+00  0.00000000000E+00  0.16364177193E+04  0.16364177193E+04  0.00000000000E+00 0. -1.
         -1   -1    0    0    0  501 -0.00000000000E+00 -0.00000000000E+00 -0.32055729649E+03  0.32055729649E+03  0.00000000000E+00 0.  1.
         24    2    1    2    0    0  0.33393944667E+03  0.87780835810E+02  0.79295013873E+03  0.86864072565E+03  0.80905862296E+02 0.  0.
        254    2    1    2    0    0 -0.33393944667E+03 -0.87780835810E+02  0.52291028408E+03  0.10883342901E+04  0.88984006019E+03 0.  0.
         23    2    4    4    0    0  0.23939199068E+03  0.14155635293E+02  0.41745205360E+03  0.48991811809E+03  0.90799989897E+02 0.  0.
         23    2    4    4    0    0 -0.57333143736E+03 -0.10193647110E+03  0.10545823048E+03  0.59841617205E+03  0.88772154363E+02 0.  0.
          2    1    3    3  502    0  0.31828074663E+03  0.93431582408E+02  0.77982196947E+03  0.84743990839E+03  0.00000000000E+00 0. -1.
         -1    1    3    3    0  502  0.15658700037E+02 -0.56507465974E+01  0.13128169264E+02  0.21200817253E+02  0.00000000000E+00 0.  1.
         13    1    5    5    0    0  0.94243181801E+02 -0.38519279256E+02  0.17546244676E+03  0.20286099283E+03  0.00000000000E+00 0. -1.
        -13    1    5    5    0    0  0.14514880888E+03  0.52674914549E+02  0.24198960684E+03  0.28705712526E+03  0.00000000000E+00 0.  1.
          2    1    6    6  503    0 -0.40068607309E+02 -0.31203245423E+02  0.14791595511E+02  0.52895435666E+02  0.00000000000E+00 0. -1.
         -2    1    6    6    0  503 -0.53326283005E+03 -0.70733225681E+02  0.90666634969E+02  0.54552073638E+03  0.00000000000E+00 0.  1.
<mgrwt>
<rscale>  0 0.14485381E+04</rscale>
<asrwt>0</asrwt>
<pdfrwt beam="1">  1        2 0.25175657E+00 0.14485381E+04</pdfrwt>
<pdfrwt beam="2">  1       -1 0.49316508E-01 0.14485381E+04</pdfrwt>
<totfact> 0.48446485E+01</totfact>
</mgrwt>
</event>
<event>
12    7  0.1701638E-007  0.2115820E+04  0.7818608E-02  0.8554306E-01
         -1   -1    0    0    0  501 -0.00000000000E+00  0.00000000000E+00  0.14230776539E+04  0.14230776539E+04  0.00000000000E+00 0.  1.
          2   -1    0    0  501    0  0.00000000000E+00 -0.00000000000E+00 -0.78644605271E+03  0.78644605271E+03  0.00000000000E+00 0. -1.
         24    2    1    2    0    0 -0.80707667502E+03 -0.56349797674E+02 -0.51238496321E+02  0.81472282278E+03  0.81239370963E+02 0.  0.
        254    2    1    2    0    0  0.80707667502E+03  0.56349797674E+02  0.68787009754E+03  0.13948008839E+04  0.90429872026E+03 0.  0.
         23    2    4    4    0    0 -0.11611405424E+03 -0.18403193356E+03  0.24201973503E+03  0.33783865746E+03  0.90615562508E+02 0.  0.
         23    2    4    4    0    0  0.92319072926E+03  0.24038173123E+03  0.44585036251E+03  0.10569622264E+04  0.91225561010E+02 0.  0.
          2    1    3    3  502    0 -0.77373215163E+03 -0.69971140404E+02 -0.45224233230E+02  0.77820475083E+03  0.00000000000E+00 0. -1.
         -1    1    3    3    0  502 -0.33344523395E+02  0.13621342730E+02 -0.60142630912E+01  0.36518071948E+02  0.00000000000E+00 0.  1.
         13    1    5    5    0    0 -0.77370951479E+02 -0.48951100981E+02  0.12515001580E+03  0.15506450553E+03  0.00000000000E+00 0. -1.
        -13    1    5    5    0    0 -0.38743102759E+02 -0.13508083257E+03  0.11686971923E+03  0.18277415193E+03  0.00000000000E+00 0.  1.
          1    1    6    6  503    0  0.24858635610E+03  0.10633426192E+03  0.11722008437E+03  0.29469085476E+03  0.00000000000E+00 0. -1.
         -1    1    6    6    0  503  0.67460437316E+03  0.13404746931E+03  0.32863027814E+03  0.76227137164E+03  0.00000000000E+00 0.  1.
<mgrwt>
<rscale>  0 0.21158202E+04</rscale>
<asrwt>0</asrwt>
<pdfrwt beam="1">  1        2 0.12099170E+00 0.21158202E+04</pdfrwt>
<pdfrwt beam="2">  1       -1 0.21893502E+00 0.21158202E+04</pdfrwt>
<totfact> 0.41398774E+00</totfact>
</mgrwt>
</event>
<event>
12    7  0.1701638E-007  0.1873875E+04  0.7818608E-02  0.8667971E-01
         -1   -1    0    0    0  501 -0.00000000000E+00  0.00000000000E+00  0.35777279595E+03  0.35777279595E+03  0.00000000000E+00 0.  1.
          2   -1    0    0  501    0  0.00000000000E+00 -0.00000000000E+00 -0.24536570319E+04  0.24536570319E+04  0.00000000000E+00 0. -1.
         24    2    1    2    0    0 -0.22677741657E+03 -0.35272626880E+03 -0.16837739696E+04  0.17371877838E+04  0.82962632019E+02 0.  0.
        254    2    1    2    0    0  0.22677741657E+03  0.35272626880E+03 -0.41211026642E+03  0.10742420441E+04  0.89906466963E+03 0.  0.
         23    2    4    4    0    0 -0.15803147206E+03  0.52652046148E+03 -0.26298573816E+03  0.61596931106E+03  0.89771661275E+02 0.  0.
         23    2    4    4    0    0  0.38480888863E+03 -0.17379419268E+03 -0.14912452826E+03  0.45827273300E+03  0.97434443118E+02 0.  0.
          2    1    3    3  502    0 -0.16231907971E+03 -0.17637123471E+03 -0.94075696511E+03  0.97081304249E+03  0.00000000000E+00 0. -1.
         -1    1    3    3    0  502 -0.64458336857E+02 -0.17635503409E+03 -0.74301700446E+03  0.76637474133E+03  0.00000000000E+00 0.  1.
         13    1    5    5    0    0 -0.60934625568E+02  0.20655332144E+03 -0.15224035864E+03  0.26373173869E+03  0.00000000000E+00 0. -1.
        -13    1    5    5    0    0 -0.97096846495E+02  0.31996714004E+03 -0.11074537952E+03  0.35223757238E+03  0.00000000000E+00 0.  1.
          4    1    6    6  503    0  0.63662865105E+02 -0.45233937441E+02  0.76734909897E+01  0.78472619134E+02  0.00000000000E+00 0. -1.
         -4    1    6    6    0  503  0.32114602353E+03 -0.12856025524E+03 -0.15679801925E+03  0.37980011387E+03  0.00000000000E+00 0.  1.
<mgrwt>
<rscale>  0 0.18738748E+04</rscale>
<asrwt>0</asrwt>
<pdfrwt beam="1">  1        2 0.37748571E+00 0.18738748E+04</pdfrwt>
<pdfrwt beam="2">  1       -1 0.55041966E-01 0.18738748E+04</pdfrwt>
<totfact> 0.13209537E+01</totfact>
</mgrwt>
</event>
<event>
12    7  0.1701638E-007  0.1499239E+04  0.7818608E-02  0.8884959E-01
         -1   -1    0    0    0  501 -0.00000000000E+00  0.00000000000E+00  0.24122167737E+03  0.24122167737E+03  0.00000000000E+00 0.  1.
          2   -1    0    0  501    0  0.00000000000E+00 -0.00000000000E+00 -0.23295152808E+04  0.23295152808E+04  0.00000000000E+00 0. -1.
         24    2    1    2    0    0  0.47027728007E+03  0.14972987453E+03 -0.81425027965E+03  0.95544141498E+03  0.79278143834E+02 0.  0.
        254    2    1    2    0    0 -0.47027728007E+03 -0.14972987453E+03 -0.12740433238E+04  0.16152955432E+04  0.86163422952E+03 0.  0.
         23    2    4    4    0    0 -0.11099199553E+03 -0.12555460846E+03 -0.12251929196E+04  0.12400119671E+04  0.91917384396E+02 0.  0.
         23    2    4    4    0    0 -0.35928528453E+03 -0.24175266065E+02 -0.48850404203E+02  0.37528357610E+03  0.93707210655E+02 0.  0.
          4    1    3    3  502    0  0.25241487373E+03  0.92080911716E+02 -0.36959996402E+03  0.45694233355E+03  0.00000000000E+00 0. -1.
         -3    1    3    3    0  502  0.21786240633E+03  0.57648962811E+02 -0.44465031563E+03  0.49849908144E+03  0.00000000000E+00 0.  1.
         13    1    5    5    0    0 -0.86507361318E+01  0.37937782773E+01 -0.10307107609E+02  0.13980860363E+02  0.00000000000E+00 0.  1.
        -13    1    5    5    0    0 -0.10234125940E+03 -0.12934838674E+03 -0.12148858119E+04  0.12260311067E+04  0.00000000000E+00 0. -1.
          1    1    6    6  503    0 -0.34039011253E+03 -0.20341671151E+01 -0.32617229617E+02  0.34195533365E+03  0.00000000000E+00 0. -1.
         -1    1    6    6    0  503 -0.18895172005E+02 -0.22141098950E+02 -0.16233174587E+02  0.33328242453E+02  0.00000000000E+00 0.  1.
<mgrwt>
<rscale>  0 0.14992393E+04</rscale>
<asrwt>0</asrwt>
<pdfrwt beam="1">  1        2 0.35838695E+00 0.14992393E+04</pdfrwt>
<pdfrwt beam="2">  1       -1 0.37111029E-01 0.14992393E+04</pdfrwt>
<totfact> 0.33572816E+01</totfact>
</mgrwt>
</event>
<event>
12    7  0.1701638E-007  0.1099021E+04  0.7818608E-02  0.9206147E-01
          2   -1    0    0  501    0  0.00000000000E+00  0.00000000000E+00  0.10814665672E+04  0.10814665672E+04  0.00000000000E+00 0. -1.
         -1   -1    0    0    0  501 -0.00000000000E+00 -0.00000000000E+00 -0.27921503350E+03  0.27921503350E+03  0.00000000000E+00 0.  1.
         24    2    1    2    0    0  0.84640382695E+01 -0.14584449456E+03  0.23268498103E+03  0.28642262866E+03  0.80952858330E+02 0.  0.
        254    2    1    2    0    0 -0.84640382695E+01  0.14584449456E+03  0.56956655271E+03  0.10742589721E+04  0.89904617489E+03 0.  0.
         23    2    4    4    0    0  0.37255310088E+03  0.36258843614E+02  0.54588739102E+03  0.66789739481E+03  0.89349704012E+02 0.  0.
         23    2    4    4    0    0 -0.38101713915E+03  0.10958565095E+03  0.23679161690E+02  0.40636157727E+03  0.85941570600E+02 0.  0.
          2    1    3    3  502    0  0.10308382267E+00 -0.40534891115E+02  0.14045017965E+03  0.14618256047E+03  0.00000000000E+00 0. -1.
         -1    1    3    3    0  502  0.83609544468E+01 -0.10530960345E+03  0.92234801384E+02  0.14024006818E+03  0.00000000000E+00 0.  1.
         13    1    5    5    0    0  0.22661733231E+02  0.26133913167E+02  0.55506772144E+02  0.65402884679E+02  0.00000000000E+00 0. -1.
        -13    1    5    5    0    0  0.34989136765E+03  0.10124930447E+02  0.49038061887E+03  0.60249451013E+03  0.00000000000E+00 0.  1.
          4    1    6    6  503    0 -0.60667741754E+02 -0.43333364678E+01 -0.18930356248E+02  0.63700165480E+02  0.00000000000E+00 0. -1.
         -4    1    6    6    0  503 -0.32034939740E+03  0.11391898742E+03  0.42609517938E+02  0.34266141179E+03  0.00000000000E+00 0.  1.
<mgrwt>
<rscale>  0 0.10990209E+04</rscale>
<asrwt>0</asrwt>
<pdfrwt beam="1">  1        2 0.16637947E+00 0.10990209E+04</pdfrwt>
<pdfrwt beam="2">  1       -1 0.42956160E-01 0.10990209E+04</pdfrwt>
<totfact> 0.13515880E+02</totfact>
</mgrwt>
</event>
<event>
12    7  0.1701638E-007  0.1720828E+04  0.7818608E-02  0.8749574E-01
          2   -1    0    0  501    0  0.00000000000E+00  0.00000000000E+00  0.54212318957E+03  0.54212318957E+03  0.00000000000E+00 0. -1.
         -1   -1    0    0    0  501 -0.00000000000E+00 -0.00000000000E+00 -0.13655786733E+04  0.13655786733E+04  0.00000000000E+00 0.  1.
         24    2    1    2    0    0  0.23235882979E+03 -0.58014133453E+03 -0.30147532481E+03  0.69807517707E+03  0.76596263375E+02 0.  0.
        254    2    1    2    0    0 -0.23235882979E+03  0.58014133453E+03 -0.52198015889E+03  0.12096266858E+04  0.89452715935E+03 0.  0.
         23    2    4    4    0    0 -0.17079788200E+02  0.69910340619E+03 -0.61018189723E+03  0.93280026170E+03  0.93579318282E+02 0.  0.
         23    2    4    4    0    0 -0.21527904159E+03 -0.11896207166E+03  0.88201738339E+02  0.27682642406E+03  0.91412702461E+02 0.  0.
          2    1    3    3  502    0  0.25390571954E+02 -0.56938120544E+02 -0.62006749060E+01  0.62650451591E+02  0.00000000000E+00 0. -1.
         -1    1    3    3    0  502  0.20696825784E+03 -0.52320321398E+03 -0.29527464990E+03  0.63542472548E+03  0.00000000000E+00 0.  1.
         13    1    5    5    0    0 -0.28447813576E+02  0.54297264498E+03 -0.42362859931E+03  0.68926755433E+03  0.00000000000E+00 0. -1.
        -13    1    5    5    0    0  0.11368025376E+02  0.15613076121E+03 -0.18655329791E+03  0.24353270737E+03  0.00000000000E+00 0.  1.
          3    1    6    6  503    0 -0.15980841074E+03 -0.75146229982E+02  0.18512981848E+02  0.17756242429E+03  0.00000000000E+00 0. -1.
         -3    1    6    6    0  503 -0.55470630850E+02 -0.43815841680E+02  0.69688756491E+02  0.99263999770E+02  0.00000000000E+00 0.  1.
<mgrwt>
<rscale>  0 0.17208276E+04</rscale>
<asrwt>0</asrwt>
<pdfrwt beam="1">  1        2 0.83403569E-01 0.17208276E+04</pdfrwt>
<pdfrwt beam="2">  1       -1 0.21008902E+00 0.17208276E+04</pdfrwt>
<totfact> 0.78031743E+00</totfact>
</mgrwt>
</event>
<event>
12    7  0.1701638E-007  0.1959320E+04  0.7818608E-02  0.8625879E-01
          2   -1    0    0  501    0  0.00000000000E+00  0.00000000000E+00  0.94144565654E+03  0.94144565654E+03  0.00000000000E+00 0. -1.
         -1   -1    0    0    0  501 -0.00000000000E+00 -0.00000000000E+00 -0.10194258350E+04  0.10194258350E+04  0.00000000000E+00 0.  1.
         24    2    1    2    0    0 -0.28772799994E+02 -0.16692759583E+03  0.68281049441E+03  0.70819265375E+03  0.81326301251E+02 0.  0.
        254    2    1    2    0    0  0.28772799994E+02  0.16692759583E+03 -0.76079067286E+03  0.12526788378E+04  0.98066769420E+03 0.  0.
         23    2    4    4    0    0 -0.19300906797E+03 -0.61484314089E+02 -0.87461492674E+03  0.90237639842E+03  0.91099248887E+02 0.  0.
         23    2    4    4    0    0  0.22178186796E+03  0.22841190992E+03  0.11382425387E+03  0.35030243937E+03  0.91633185630E+02 0.  0.
          4    1    3    3  502    0  0.20784392113E+01 -0.56033398710E+02  0.38232709373E+03  0.38641696169E+03  0.00000000000E+00 0. -1.
         -3    1    3    3    0  502 -0.30851239206E+02 -0.11089419712E+03  0.30048340068E+03  0.32177569206E+03  0.00000000000E+00 0.  1.
         13    1    5    5    0    0 -0.17626992017E+03 -0.71398609473E+02 -0.84992388321E+03  0.87094170496E+03  0.00000000000E+00 0. -1.
        -13    1    5    5    0    0 -0.16739147802E+02  0.99142953833E+01 -0.24691043529E+02  0.31434693455E+02  0.00000000000E+00 0.  1.
          1    1    6    6  503    0  0.39094437784E+02  0.93983238146E+02  0.56226552690E+02  0.11628692680E+03  0.00000000000E+00 0. -1.
         -1    1    6    6    0  503  0.18268743018E+03  0.13442867177E+03  0.57597701183E+02  0.23401551257E+03  0.00000000000E+00 0.  1.
<mgrwt>
<rscale>  0 0.19593203E+04</rscale>
<asrwt>0</asrwt>
<pdfrwt beam="1">  1        2 0.14483779E+00 0.19593203E+04</pdfrwt>
<pdfrwt beam="2">  1       -1 0.15683474E+00 0.19593203E+04</pdfrwt>
<totfact> 0.90369797E+00</totfact>
</mgrwt>
</event>
<event>
12    7  0.1701638E-007  0.1244986E+04  0.7818608E-02  0.9074366E-01
         -1   -1    0    0    0  501 -0.00000000000E+00  0.00000000000E+00  0.23145458995E+03  0.23145458995E+03  0.00000000000E+00 0.  1.
          2   -1    0    0  501    0  0.00000000000E+00 -0.00000000000E+00 -0.16741849282E+04  0.16741849282E+04  0.00000000000E+00 0. -1.
         24    2    1    2    0    0  0.88461375132E+02  0.13436720528E+03 -0.71075100185E+03  0.73291383301E+03  0.78203191964E+02 0.  0.
        254    2    1    2    0    0 -0.88461375132E+02 -0.13436720528E+03 -0.73197933641E+03  0.11727256852E+04  0.90200433644E+03 0.  0.
         23    2    4    4    0    0 -0.14038962371E+03  0.25068140171E+03  0.39657220670E+02  0.30411739033E+03  0.91456439602E+02 0.  0.
         23    2    4    4    0    0  0.51928248574E+02 -0.38504860699E+03 -0.77163655708E+03  0.86860829482E+03  0.89991226637E+02 0.  0.
          4    1    3    3  502    0  0.36080891050E+02  0.11196482973E+03 -0.54788758704E+03  0.56037376975E+03  0.00000000000E+00 0. -1.
         -3    1    3    3    0  502  0.52380484082E+02  0.22402375546E+02 -0.16286341481E+03  0.17254006325E+03  0.00000000000E+00 0.  1.
         13    1    5    5    0    0 -0.46375460097E+02  0.40132304348E+02 -0.22458577493E+02  0.65312118741E+02  0.00000000000E+00 0. -1.
        -13    1    5    5    0    0 -0.94014163609E+02  0.21054909736E+03  0.62115798163E+02  0.23880527159E+03  0.00000000000E+00 0.  1.
          4    1    6    6  503    0 -0.83263183825E+01 -0.75275733157E+01 -0.57563326413E+01  0.12614567107E+02  0.00000000000E+00 0. -1.
         -4    1    6    6    0  503  0.60254566956E+02 -0.37752103367E+03 -0.76588022444E+03  0.85599372771E+03  0.00000000000E+00 0.  1.
<mgrwt>
<rscale>  0 0.12449864E+04</rscale>
<asrwt>0</asrwt>
<pdfrwt beam="1">  1        2 0.25756691E+00 0.12449864E+04</pdfrwt>
<pdfrwt beam="2">  1       -1 0.35608399E-01 0.12449864E+04</pdfrwt>
<totfact> 0.85464696E+01</totfact>
</mgrwt>
</event>
<event>
12    7  0.1701638E-007  0.1512860E+04  0.7818608E-02  0.8875946E-01
          2   -1    0    0  501    0  0.00000000000E+00  0.00000000000E+00  0.20304223340E+04  0.20304223340E+04  0.00000000000E+00 0. -1.
         -1   -1    0    0    0  501 -0.00000000000E+00 -0.00000000000E+00 -0.28180657740E+03  0.28180657740E+03  0.00000000000E+00 0.  1.
         24    2    1    2    0    0  0.44097968806E+03  0.12235496364E+03  0.82518010435E+03  0.94690205397E+03  0.79167372031E+02 0.  0.
        254    2    1    2    0    0 -0.44097968806E+03 -0.12235496364E+03  0.92343565226E+03  0.13653268574E+04  0.89551672310E+03 0.  0.
         23    2    4    4    0    0  0.89014924074E+02 -0.37902462550E+03  0.46512531127E+03  0.61353210191E+03  0.92177879362E+02 0.  0.
         23    2    4    4    0    0 -0.52999461213E+03  0.25666966186E+03  0.45831034099E+03  0.75179475552E+03  0.91506183200E+02 0.  0.
          4    1    3    3  502    0  0.37073547508E+03  0.10843419301E+03  0.74648943108E+03  0.84050534645E+03  0.00000000000E+00 0. -1.
         -3    1    3    3    0  502  0.70244212978E+02  0.13920770630E+02  0.78690673268E+02  0.10639670752E+03  0.00000000000E+00 0.  1.
         13    1    5    5    0    0 -0.72100924753E+01 -0.12371675875E+03  0.11004633091E+03  0.16573477842E+03  0.00000000000E+00 0.  1.
        -13    1    5    5    0    0  0.96225016549E+02 -0.25530786675E+03  0.35507898036E+03  0.44779732349E+03  0.00000000000E+00 0. -1.
          3    1    6    6  503    0 -0.52509373109E+03  0.25053606170E+03  0.43286215198E+03  0.72516300737E+03  0.00000000000E+00 0. -1.
         -3    1    6    6    0  503 -0.49008810473E+01  0.61336001523E+01  0.25448189005E+02  0.26631748149E+02  0.00000000000E+00 0.  1.
<mgrwt>
<rscale>  0 0.15128600E+04</rscale>
<asrwt>0</asrwt>
<pdfrwt beam="1">  1        2 0.31237266E+00 0.15128600E+04</pdfrwt>
<pdfrwt beam="2">  1       -1 0.43354859E-01 0.15128600E+04</pdfrwt>
<totfact> 0.37103575E+01</totfact>
</mgrwt>
</event>
<event>
12    7  0.1701638E-007  0.1263618E+04  0.7818608E-02  0.9058924E-01
          2   -1    0    0  501    0  0.00000000000E+00  0.00000000000E+00  0.20497092018E+04  0.20497092018E+04  0.00000000000E+00 0. -1.
         -1   -1    0    0    0  501 -0.00000000000E+00 -0.00000000000E+00 -0.19475097835E+03  0.19475097835E+03  0.00000000000E+00 0.  1.
         24    2    1    2    0    0 -0.11063697270E+03  0.15774490975E+03  0.42652223631E+02  0.21270437796E+03  0.79372186210E+02 0.  0.
        254    2    1    2    0    0  0.11063697270E+03 -0.15774490975E+03  0.18123059998E+04  0.20317558022E+04  0.89802817689E+03 0.  0.
         23    2    4    4    0    0 -0.35992588517E+03  0.45836254157E+02  0.54829566009E+03  0.66449181458E+03  0.96299718369E+02 0.  0.
         23    2    4    4    0    0  0.47056285786E+03 -0.20358116391E+03  0.12640103397E+04  0.13672639876E+04  0.93882796042E+02 0.  0.
          2    1    3    3  502    0 -0.13979343792E+01 -0.89548470947E+00 -0.12295137451E+02  0.12406712632E+02  0.00000000000E+00 0. -1.
         -1    1    3    3    0  502 -0.10923903832E+03  0.15864039446E+03  0.54947361082E+02  0.20029766533E+03  0.00000000000E+00 0.  1.
         13    1    5    5    0    0 -0.63225884622E+02  0.24161588017E+02  0.50010177401E+02  0.84156477264E+02  0.00000000000E+00 0.  1.
        -13    1    5    5    0    0 -0.29670000054E+03  0.21674666140E+02  0.49828548269E+03  0.58033533732E+03  0.00000000000E+00 0. -1.
          2    1    6    6  503    0  0.46392119657E+03 -0.20075862714E+03  0.11901531444E+04  0.12930550685E+04  0.00000000000E+00 0. -1.
         -2    1    6    6    0  503  0.66416612963E+01 -0.28225367710E+01  0.73857195245E+02  0.74208919060E+02  0.00000000000E+00 0.  1.
<mgrwt>
<rscale>  0 0.12636184E+04</rscale>
<asrwt>0</asrwt>
<pdfrwt beam="1">  1        2 0.31533986E+00 0.12636184E+04</pdfrwt>
<pdfrwt beam="2">  1       -1 0.29961690E-01 0.12636184E+04</pdfrwt>
<totfact> 0.71847442E+01</totfact>
</mgrwt>
</event>
<event>
12    7  0.1701638E-007  0.1953285E+04  0.7818608E-02  0.8628778E-01
         -1   -1    0    0    0  501 -0.00000000000E+00  0.00000000000E+00  0.43000595740E+03  0.43000595740E+03  0.00000000000E+00 0.  1.
          2   -1    0    0  501    0  0.00000000000E+00 -0.00000000000E+00 -0.22181807863E+04  0.22181807863E+04  0.00000000000E+00 0. -1.
         24    2    1    2    0    0  0.49539015110E+03 -0.25901449604E+03 -0.13788702405E+04  0.14900260407E+04  0.79965936718E+02 0.  0.
        254    2    1    2    0    0 -0.49539015110E+03  0.25901449604E+03 -0.40930458839E+03  0.11581607029E+04  0.92806576102E+03 0.  0.
         23    2    4    4    0    0 -0.58761005185E+03 -0.42916447896E+02 -0.53963221403E+03  0.80458557556E+03  0.95013827666E+02 0.  0.
         23    2    4    4    0    0  0.92219900752E+02  0.30193094394E+03  0.13032762564E+03  0.35357512737E+03  0.91450946887E+02 0.  0.
          2    1    3    3  502    0  0.15342326313E+03 -0.11697156905E+03 -0.52474195764E+03  0.55908422241E+03  0.00000000000E+00 0. -1.
         -1    1    3    3    0  502  0.34196688796E+03 -0.14204292699E+03 -0.85412828284E+03  0.93094181833E+03  0.00000000000E+00 0.  1.
         13    1    5    5    0    0 -0.20399911624E+02 -0.10296305332E+02 -0.29577749733E+01  0.23041673779E+02  0.00000000000E+00 0.  1.
        -13    1    5    5    0    0 -0.56721014022E+03 -0.32620142564E+02 -0.53667443906E+03  0.78154390178E+03  0.00000000000E+00 0. -1.
          2    1    6    6  503    0  0.91251045915E+02  0.29659431759E+03  0.10488437592E+03  0.32756018518E+03  0.00000000000E+00 0. -1.
         -2    1    6    6    0  503  0.96885483679E+00  0.53366263526E+01  0.25443249723E+02  0.26014942187E+02  0.00000000000E+00 0.  1.
<mgrwt>
<rscale>  0 0.19532854E+04</rscale>
<asrwt>0</asrwt>
<pdfrwt beam="1">  1        2 0.34125859E+00 0.19532854E+04</pdfrwt>
<pdfrwt beam="2">  1       -1 0.66154762E-01 0.19532854E+04</pdfrwt>
<totfact> 0.12401271E+01</totfact>
</mgrwt>
</event>
<event>
12    7  0.1701638E-007  0.1343942E+04  0.7818608E-02  0.8995427E-01
          2   -1    0    0  501    0  0.00000000000E+00  0.00000000000E+00  0.12967342675E+04  0.12967342675E+04  0.00000000000E+00 0. -1.
         -1   -1    0    0    0  501 -0.00000000000E+00 -0.00000000000E+00 -0.34821685016E+03  0.34821685016E+03  0.00000000000E+00 0.  1.
         24    2    1    2    0    0  0.13389373567E+02 -0.22057204206E+03  0.61312241049E+03  0.65654195354E+03  0.79353295122E+02 0.  0.
        254    2    1    2    0    0 -0.13389373567E+02  0.22057204206E+03  0.33539500685E+03  0.98840916411E+03  0.90312322748E+03 0.  0.
         23    2    4    4    0    0  0.41439413675E+03 -0.19325410984E+02  0.21059161679E+03  0.47417932265E+03  0.91658217782E+02 0.  0.
         23    2    4    4    0    0 -0.42778351031E+03  0.23989745304E+03  0.12480339005E+03  0.51422984146E+03  0.91142328295E+02 0.  0.
          2    1    3    3  502    0  0.29586145743E+02 -0.20637504307E+03  0.50585666644E+03  0.54713523502E+03  0.00000000000E+00 0. -1.
         -1    1    3    3    0  502 -0.16196772176E+02 -0.14196998987E+02  0.10726574406E+03  0.10940671852E+03  0.00000000000E+00 0.  1.
         13    1    5    5    0    0  0.30099724346E+03 -0.53302978783E+01  0.10565733257E+03  0.31904737042E+03  0.00000000000E+00 0.  1.
        -13    1    5    5    0    0  0.11339689329E+03 -0.13995113106E+02  0.10493428422E+03  0.15513195223E+03  0.00000000000E+00 0. -1.
          1    1    6    6  503    0 -0.88304856494E+01  0.13933462379E+02 -0.10268736835E+02  0.19431052644E+02  0.00000000000E+00 0. -1.
         -1    1    6    6    0  503 -0.41895302466E+03  0.22596399066E+03  0.13507212689E+03  0.49479878882E+03  0.00000000000E+00 0.  1.
<mgrwt>
<rscale>  0 0.13439415E+04</rscale>
<asrwt>0</asrwt>
<pdfrwt beam="1">  1        2 0.19949758E+00 0.13439415E+04</pdfrwt>
<pdfrwt beam="2">  1       -1 0.53571824E-01 0.13439415E+04</pdfrwt>
<totfact> 0.65017748E+01</totfact>
</mgrwt>
</event>
<event>
12    7  0.1701638E-007  0.1770237E+04  0.7818608E-02  0.8722289E-01
         -1   -1    0    0    0  501 -0.00000000000E+00  0.00000000000E+00  0.40506686689E+03  0.40506686689E+03  0.00000000000E+00 0.  1.
          2   -1    0    0  501    0  0.00000000000E+00 -0.00000000000E+00 -0.19340885123E+04  0.19340885123E+04  0.00000000000E+00 0. -1.
         24    2    1    2    0    0 -0.53970331875E+02 -0.56978619278E+03 -0.16139812163E+03  0.60008211699E+03  0.80499014055E+02 0.  0.
        254    2    1    2    0    0  0.53970331875E+02  0.56978619278E+03 -0.13676235238E+04  0.17390732622E+04  0.90907238783E+03 0.  0.
         23    2    4    4    0    0  0.11237392051E+03  0.20923763014E+03  0.59390304195E+02  0.26313360745E+03  0.96456224566E+02 0.  0.
         23    2    4    4    0    0 -0.58403588638E+02  0.36054856264E+03 -0.14270138280E+04  0.14759396548E+04  0.92860939243E+02 0.  0.
          2    1    3    3  502    0  0.11841726262E+02 -0.12921057616E+03 -0.12323080281E+02  0.13033594202E+03  0.00000000000E+00 0. -1.
         -1    1    3    3    0  502 -0.65812058137E+02 -0.44057561662E+03 -0.14907504135E+03  0.46974617498E+03  0.00000000000E+00 0.  1.
         13    1    5    5    0    0  0.27403235620E+02  0.44236347802E+02 -0.26765185901E+02  0.58516382028E+02  0.00000000000E+00 0. -1.
        -13    1    5    5    0    0  0.84970684894E+02  0.16500128234E+03  0.86155490096E+02  0.20461722542E+03  0.00000000000E+00 0.  1.
          4    1    6    6  503    0  0.11814984734E+02  0.21275305263E+03 -0.82833631220E+03  0.85530374802E+03  0.00000000000E+00 0.  1.
         -4    1    6    6    0  503 -0.70218573372E+02  0.14779551001E+03 -0.59867751583E+03  0.62063590678E+03  0.00000000000E+00 0. -1.
<mgrwt>
<rscale>  0 0.17702375E+04</rscale>
<asrwt>0</asrwt>
<pdfrwt beam="1">  1        2 0.29755208E+00 0.17702375E+04</pdfrwt>
<pdfrwt beam="2">  1       -1 0.62317979E-01 0.17702375E+04</pdfrwt>
<totfact> 0.20462487E+01</totfact>
</mgrwt>
</event>
<event>
12    7  0.1701638E-007  0.3197832E+04  0.7818608E-02  0.8189390E-01
          2   -1    0    0  501    0  0.00000000000E+00  0.00000000000E+00  0.18698779266E+04  0.18698779266E+04  0.00000000000E+00 0. -1.
         -1   -1    0    0    0  501 -0.00000000000E+00 -0.00000000000E+00 -0.13672186853E+04  0.13672186853E+04  0.00000000000E+00 0.  1.
         24    2    1    2    0    0  0.50038450965E+03 -0.54581041568E+03 -0.10526944765E+04  0.12895108633E+04  0.79868256080E+02 0.  0.
        254    2    1    2    0    0 -0.50038450965E+03  0.54581041568E+03  0.15553537178E+04  0.19475857487E+04  0.90866462096E+03 0.  0.
         23    2    4    4    0    0  0.25372367028E+03  0.83466467493E+02  0.41156669064E+03  0.49871133093E+03  0.89350426407E+02 0.  0.
         23    2    4    4    0    0 -0.75410817993E+03  0.46234394819E+03  0.11437870272E+04  0.14488744177E+04  0.92451291334E+02 0.  0.
          2    1    3    3  502    0  0.15928585663E+03 -0.22565150302E+03 -0.36326530344E+03  0.45634665072E+03  0.00000000000E+00 0. -1.
         -1    1    3    3    0  502  0.34109865302E+03 -0.32015891266E+03 -0.68942917304E+03  0.83316421256E+03  0.00000000000E+00 0.  1.
         13    1    5    5    0    0  0.23683839605E+03  0.10061045901E+03  0.38208944342E+03  0.46065956310E+03  0.00000000000E+00 0.  1.
        -13    1    5    5    0    0  0.16885274222E+02 -0.17143991521E+02  0.29477247222E+02  0.38051767825E+02  0.00000000000E+00 0. -1.
          3    1    6    6  503    0 -0.36845183589E+03  0.25408258162E+03  0.64215824272E+03  0.78274000942E+03  0.00000000000E+00 0. -1.
         -3    1    6    6    0  503 -0.38565634404E+03  0.20826136657E+03  0.50162878449E+03  0.66613440831E+03  0.00000000000E+00 0.  1.
<mgrwt>
<rscale>  0 0.31978318E+04</rscale>
<asrwt>0</asrwt>
<pdfrwt beam="1">  1        2 0.28767353E+00 0.31978318E+04</pdfrwt>
<pdfrwt beam="2">  1       -1 0.21034134E+00 0.31978318E+04</pdfrwt>
<totfact> 0.96701166E-01</totfact>
</mgrwt>
</event>
<event>
12    7  0.1701638E-007  0.2702272E+04  0.7818608E-02  0.8334268E-01
         -1   -1    0    0    0  501 -0.00000000000E+00  0.00000000000E+00  0.63857496377E+03  0.63857496377E+03  0.00000000000E+00 0.  1.
          2   -1    0    0  501    0  0.00000000000E+00 -0.00000000000E+00 -0.28588158968E+04  0.28588158968E+04  0.00000000000E+00 0. -1.
         24    2    1    2    0    0  0.46915906949E+03  0.23518848206E+03  0.40824322820E+03  0.66973800404E+03  0.80390335864E+02 0.  0.
        254    2    1    2    0    0 -0.46915906949E+03 -0.23518848206E+03 -0.26284841613E+04  0.28276528566E+04  0.90070407831E+03 0.  0.
         23    2    4    4    0    0 -0.60750314255E+03 -0.31977320066E+03 -0.25147480345E+04  0.26085036173E+04  0.94965659069E+02 0.  0.
         23    2    4    4    0    0  0.13834407306E+03  0.84584718599E+02 -0.11373612680E+03  0.21914923930E+03  0.93791392876E+02 0.  0.
          4    1    3    3  502    0  0.77725848596E+02  0.27061547258E+02  0.10132564971E+03  0.13053935104E+03  0.00000000000E+00 0. -1.
         -3    1    3    3    0  502  0.39143322090E+03  0.20812693480E+03  0.30691757849E+03  0.53919865300E+03  0.00000000000E+00 0.  1.
         13    1    5    5    0    0 -0.17052735690E+03 -0.12950531028E+03 -0.88167881663E+03  0.90730851453E+03  0.00000000000E+00 0. -1.
        -13    1    5    5    0    0 -0.43697578565E+03 -0.19026789037E+03 -0.16330692178E+04  0.17011951027E+04  0.00000000000E+00 0.  1.
          2    1    6    6  503    0  0.12627436640E+03  0.10401617299E+03 -0.92509691054E+02  0.18794313713E+03  0.00000000000E+00 0.  1.
         -2    1    6    6    0  503  0.12069706652E+02 -0.19431454393E+02 -0.21226435747E+02  0.31206102176E+02  0.00000000000E+00 0. -1.
<mgrwt>
<rscale>  0 0.27022718E+04</rscale>
<asrwt>0</asrwt>
<pdfrwt beam="1">  1        2 0.43981783E+00 0.27022718E+04</pdfrwt>
<pdfrwt beam="2">  1       -1 0.98242303E-01 0.27022718E+04</pdfrwt>
<totfact> 0.21067374E+00</totfact>
</mgrwt>
</event>
<event>
12    7  0.1701638E-007  0.1640341E+04  0.7818608E-02  0.8796141E-01
          2   -1    0    0  501    0  0.00000000000E+00  0.00000000000E+00  0.23990905766E+04  0.23990905766E+04  0.00000000000E+00 0. -1.
         -1   -1    0    0    0  501 -0.00000000000E+00 -0.00000000000E+00 -0.28038930692E+03  0.28038930692E+03  0.00000000000E+00 0.  1.
         24    2    1    2    0    0  0.24911540958E+03  0.42397495746E+03  0.11969252541E+04  0.12964524605E+04  0.79659692536E+02 0.  0.
        254    2    1    2    0    0 -0.24911540958E+03 -0.42397495746E+03  0.92177601553E+03  0.13830274230E+04  0.90624531890E+03 0.  0.
         23    2    4    4    0    0 -0.17539656586E+03 -0.66167258695E+03  0.40082610854E+03  0.79849100206E+03  0.91387873656E+02 0.  0.
         23    2    4    4    0    0 -0.73718843722E+02  0.23769762949E+03  0.52094990699E+03  0.58453642090E+03  0.91429704041E+02 0.  0.
          4    1    3    3  502    0  0.18238838522E+03  0.31734003361E+03  0.97373029954E+03  0.10402504103E+04  0.00000000000E+00 0. -1.
         -3    1    3    3    0  502  0.66727024363E+02  0.10663492385E+03  0.22319495458E+03  0.25620205018E+03  0.00000000000E+00 0.  1.
         13    1    5    5    0    0 -0.51818914687E+02 -0.99119672462E+02  0.39746183758E+02  0.11869990948E+03  0.00000000000E+00 0.  1.
        -13    1    5    5    0    0 -0.12357765117E+03 -0.56255291449E+03  0.36107992478E+03  0.67979109258E+03  0.00000000000E+00 0. -1.
          1    1    6    6  503    0 -0.42439265847E+02  0.13606471081E+03  0.19400713337E+03  0.24073525835E+03  0.00000000000E+00 0. -1.
         -1    1    6    6    0  503 -0.31279577875E+02  0.10163291869E+03  0.32694277362E+03  0.34380116255E+03  0.00000000000E+00 0.  1.
<mgrwt>
<rscale>  0 0.16403406E+04</rscale>
<asrwt>0</asrwt>
<pdfrwt beam="1">  1        2 0.36909085E+00 0.16403406E+04</pdfrwt>
<pdfrwt beam="2">  1       -1 0.43136818E-01 0.16403406E+04</pdfrwt>
<totfact> 0.22994055E+01</totfact>
</mgrwt>
</event>
<event>
12    7  0.1701638E-007  0.2998748E+04  0.7818608E-02  0.8244088E-01
          2   -1    0    0  501    0  0.00000000000E+00  0.00000000000E+00  0.13449768566E+04  0.13449768566E+04  0.00000000000E+00 0. -1.
         -1   -1    0    0    0  501 -0.00000000000E+00 -0.00000000000E+00 -0.16714954610E+04  0.16714954610E+04  0.00000000000E+00 0.  1.
         24    2    1    2    0    0 -0.24021275058E+03  0.75753336342E+03  0.92125737677E+03  0.12194040403E+04  0.81682905853E+02 0.  0.
        254    2    1    2    0    0  0.24021275058E+03 -0.75753336342E+03 -0.12477759811E+04  0.17970682773E+04  0.10202698328E+04 0.  0.
         23    2    4    4    0    0  0.44868737493E+03  0.54313551091E+01 -0.67539765906E+03  0.81620828882E+03  0.93188587466E+02 0.  0.
         23    2    4    4    0    0 -0.20847462436E+03 -0.76296471853E+03 -0.57237832209E+03  0.98085998844E+03  0.94300278936E+02 0.  0.
          4    1    3    3  502    0 -0.19982093497E+03  0.67793041743E+03  0.84811633504E+03  0.11040015284E+04  0.00000000000E+00 0. -1.
         -3    1    3    3    0  502 -0.40391815611E+02  0.79602945998E+02  0.73141041733E+02  0.11540251196E+03  0.00000000000E+00 0.  1.
         13    1    5    5    0    0  0.11571081458E+03 -0.37835093775E+02 -0.15921502915E+03  0.20042433095E+03  0.00000000000E+00 0.  1.
        -13    1    5    5    0    0  0.33297656036E+03  0.43266448885E+02 -0.51618262991E+03  0.61578395787E+03  0.00000000000E+00 0. -1.
          1    1    6    6  503    0 -0.19659717606E+03 -0.75314024219E+03 -0.54768549267E+03  0.95175105617E+03  0.00000000000E+00 0. -1.
         -1    1    6    6    0  503 -0.11877448295E+02 -0.98244763447E+01 -0.24692829420E+02  0.29108932276E+02  0.00000000000E+00 0.  1.
<mgrwt>
<rscale>  0 0.29987482E+04</rscale>
<asrwt>0</asrwt>
<pdfrwt beam="1">  1        2 0.20691952E+00 0.29987482E+04</pdfrwt>
<pdfrwt beam="2">  1       -1 0.25715315E+00 0.29987482E+04</pdfrwt>
<totfact> 0.95034033E-01</totfact>
</mgrwt>
</event>
<event>
12    7  0.1701638E-007  0.1440961E+04  0.7818608E-02  0.8924691E-01
         -1   -1    0    0    0  501 -0.00000000000E+00  0.00000000000E+00  0.32829267023E+03  0.32829267023E+03  0.00000000000E+00 0.  1.
          2   -1    0    0  501    0  0.00000000000E+00 -0.00000000000E+00 -0.15811867201E+04  0.15811867201E+04  0.00000000000E+00 0. -1.
         24    2    1    2    0    0 -0.20934371678E+03 -0.11523565126E+03  0.10073187699E+03  0.27140112136E+03  0.80047551843E+02 0.  0.
        254    2    1    2    0    0  0.20934371678E+03  0.11523565126E+03 -0.13536259268E+04  0.16380782689E+04  0.89100685648E+03 0.  0.
         23    2    4    4    0    0  0.54975386592E+03  0.10596226577E+03 -0.89256087198E+03  0.10576601913E+04  0.92319311412E+02 0.  0.
         23    2    4    4    0    0 -0.34041014914E+03  0.92733854858E+01 -0.46106505487E+03  0.58041807763E+03  0.91318643799E+02 0.  0.
          4    1    3    3  502    0 -0.98806650450E+02 -0.10280717469E+02  0.45652410904E+02  0.10932790104E+03  0.00000000000E+00 0. -1.
         -3    1    3    3    0  502 -0.11053706633E+03 -0.10495493379E+03  0.55079466090E+02  0.16207322032E+03  0.00000000000E+00 0.  1.
         13    1    5    5    0    0  0.25475534526E+03  0.10576646680E+02 -0.45173624814E+03  0.51872708555E+03  0.00000000000E+00 0. -1.
        -13    1    5    5    0    0  0.29499852066E+03  0.95385619090E+02 -0.44082462383E+03  0.53893310577E+03  0.00000000000E+00 0.  1.
          1    1    6    6  503    0 -0.25271721363E+03  0.45272784828E+02 -0.31639426715E+03  0.40745668162E+03  0.00000000000E+00 0. -1.
         -1    1    6    6    0  503 -0.87692935506E+02 -0.35999399342E+02 -0.14467078772E+03  0.17296139601E+03  0.00000000000E+00 0.  1.
<mgrwt>
<rscale>  0 0.14409608E+04</rscale>
<asrwt>0</asrwt>
<pdfrwt beam="1">  1        2 0.24325949E+00 0.14409608E+04</pdfrwt>
<pdfrwt beam="2">  1       -1 0.50506566E-01 0.14409608E+04</pdfrwt>
<totfact> 0.49737898E+01</totfact>
</mgrwt>
</event>
<event>
12    7  0.1701638E-007  0.1859597E+04  0.7818608E-02  0.8675233E-01
         -1   -1    0    0    0  501 -0.00000000000E+00  0.00000000000E+00  0.13846046208E+04  0.13846046208E+04  0.00000000000E+00 0.  1.
          2   -1    0    0  501    0  0.00000000000E+00 -0.00000000000E+00 -0.62438426013E+03  0.62438426013E+03  0.00000000000E+00 0. -1.
         24    2    1    2    0    0 -0.14519978334E+03 -0.62599885071E+03  0.61419167093E+03  0.89241858518E+03  0.78879556146E+02 0.  0.
        254    2    1    2    0    0  0.14519978334E+03  0.62599885071E+03  0.14602868974E+03  0.11165702957E+04  0.90135859064E+03 0.  0.
         23    2    4    4    0    0 -0.75600023536E+02  0.79564106297E+03  0.43902818241E+02  0.80561398434E+03  0.91248943369E+02 0.  0.
         23    2    4    4    0    0  0.22079980687E+03 -0.16964221226E+03  0.10212587150E+03  0.31095631139E+03  0.93451051735E+02 0.  0.
          4    1    3    3  502    0 -0.13667110862E+02 -0.13937850106E+03  0.17257349319E+03  0.22224933527E+03  0.00000000000E+00 0. -1.
         -3    1    3    3    0  502 -0.13153267248E+03 -0.48662034965E+03  0.44161817773E+03  0.67016924991E+03  0.00000000000E+00 0.  1.
         13    1    5    5    0    0 -0.30228181644E+02  0.21524922438E+03 -0.27479067248E+02  0.21909146651E+03  0.00000000000E+00 0. -1.
        -13    1    5    5    0    0 -0.45371841892E+02  0.58039183859E+03  0.71381885489E+02  0.58652251782E+03  0.00000000000E+00 0.  1.
          2    1    6    6  503    0 -0.93473293517E+00 -0.74673312010E+00 -0.10325688088E+02  0.10394766496E+02  0.00000000000E+00 0. -1.
         -2    1    6    6    0  503  0.22173453981E+03 -0.16889547914E+03  0.11245155958E+03  0.30056154490E+03  0.00000000000E+00 0.  1.
<mgrwt>
<rscale>  0 0.18595971E+04</rscale>
<asrwt>0</asrwt>
<pdfrwt beam="1">  1        2 0.96059117E-01 0.18595971E+04</pdfrwt>
<pdfrwt beam="2">  1       -1 0.21301609E+00 0.18595971E+04</pdfrwt>
<totfact> 0.62167913E+00</totfact>
</mgrwt>
</event>
<event>
12    7  0.1701638E-007  0.1407617E+04  0.7818608E-02  0.8948323E-01
          2   -1    0    0  501    0  0.00000000000E+00  0.00000000000E+00  0.13369685155E+04  0.13369685155E+04  0.00000000000E+00 0. -1.
         -1   -1    0    0    0  501 -0.00000000000E+00 -0.00000000000E+00 -0.37049986165E+03  0.37049986165E+03  0.00000000000E+00 0.  1.
         24    2    1    2    0    0  0.96669071325E+02  0.16619189081E+03  0.73797442011E+03  0.76669326306E+03  0.79042146720E+02 0.  0.
        254    2    1    2    0    0 -0.96669071325E+02 -0.16619189081E+03  0.22849423372E+03  0.94077511408E+03  0.89212305569E+03 0.  0.
         23    2    4    4    0    0 -0.48499727592E+03 -0.13837736882E+03  0.11800487314E+03  0.52611995100E+03  0.92230140965E+02 0.  0.
         23    2    4    4    0    0  0.38832820459E+03 -0.27814521989E+02  0.11048936058E+03  0.41465516308E+03  0.90324766002E+02 0.  0.
          4    1    3    3  502    0  0.20394658970E+02  0.79443663385E+02  0.43035478799E+03  0.43810099442E+03  0.00000000000E+00 0. -1.
         -3    1    3    3    0  502  0.76274412356E+02  0.86748227427E+02  0.30761963212E+03  0.32859226863E+03  0.00000000000E+00 0.  1.
         13    1    5    5    0    0 -0.21241271979E+03 -0.17805811005E+02  0.29446898121E+02  0.21518208625E+03  0.00000000000E+00 0.  1.
        -13    1    5    5    0    0 -0.27258455613E+03 -0.12057155782E+03  0.88557975019E+02  0.31093786475E+03  0.00000000000E+00 0. -1.
          2    1    6    6  503    0  0.10194492542E+03  0.32485276798E+02  0.28633673297E+02  0.11076077047E+03  0.00000000000E+00 0. -1.
         -2    1    6    6    0  503  0.28638327917E+03 -0.60299798786E+02  0.81855687282E+02  0.30389439261E+03  0.00000000000E+00 0.  1.
<mgrwt>
<rscale>  0 0.14076173E+04</rscale>
<asrwt>0</asrwt>
<pdfrwt beam="1">  1        2 0.20568746E+00 0.14076173E+04</pdfrwt>
<pdfrwt beam="2">  1       -1 0.56999979E-01 0.14076173E+04</pdfrwt>
<totfact> 0.54356008E+01</totfact>
</mgrwt>
</event>
<event>
12    7  0.1701638E-007  0.1490400E+04  0.7818608E-02  0.8890862E-01
         -1   -1    0    0    0  501 -0.00000000000E+00  0.00000000000E+00  0.20183145631E+03  0.20183145631E+03  0.00000000000E+00 0.  1.
          2   -1    0    0  501    0  0.00000000000E+00 -0.00000000000E+00 -0.27514206105E+04  0.27514206105E+04  0.00000000000E+00 0. -1.
         24    2    1    2    0    0  0.38641748555E+03  0.25246493730E+03 -0.66003731685E+03  0.80971247529E+03  0.83234700139E+02 0.  0.
        254    2    1    2    0    0 -0.38641748555E+03 -0.25246493730E+03 -0.18895518373E+04  0.21435395915E+04  0.90072127583E+03 0.  0.
         23    2    4    4    0    0 -0.36381160440E+03 -0.14129595413E+03 -0.19459612755E+04  0.19868536807E+04  0.92189112549E+02 0.  0.
         23    2    4    4    0    0 -0.22605881146E+02 -0.11116898317E+03  0.56409438207E+02  0.15668591082E+03  0.92189377085E+02 0.  0.
          2    1    3    3  502    0  0.72763329321E+02  0.28497947496E+02 -0.16292799147E+03  0.18069910213E+03  0.00000000000E+00 0. -1.
         -1    1    3    3    0  502  0.31365415623E+03  0.22396698980E+03 -0.49710932538E+03  0.62901337316E+03  0.00000000000E+00 0.  1.
         13    1    5    5    0    0 -0.27368291270E+03 -0.14313377995E+03 -0.15845412145E+04  0.16143607020E+04  0.00000000000E+00 0.  1.
        -13    1    5    5    0    0 -0.90128691700E+02  0.18378258223E+01 -0.36142006102E+03  0.37249297869E+03  0.00000000000E+00 0. -1.
          2    1    6    6  503    0  0.13399860958E+02 -0.76006002755E+02  0.70385692577E+02  0.10445388671E+03  0.00000000000E+00 0.  1.
         -2    1    6    6    0  503 -0.36005742105E+02 -0.35162980418E+02 -0.13976254370E+02  0.52232024110E+02  0.00000000000E+00 0. -1.
<mgrwt>
<rscale>  0 0.14904003E+04</rscale>
<asrwt>0</asrwt>
<pdfrwt beam="1">  1        2 0.42329545E+00 0.14904003E+04</pdfrwt>
<pdfrwt beam="2">  1       -1 0.31050995E-01 0.14904003E+04</pdfrwt>
<totfact> 0.26287532E+01</totfact>
</mgrwt>
</event>
<event>
12    7  0.1701638E-007  0.2206357E+04  0.7818608E-02  0.8515787E-01
          2   -1    0    0  501    0  0.00000000000E+00  0.00000000000E+00  0.19305655300E+04  0.19305655300E+04  0.00000000000E+00 0. -1.
         -1   -1    0    0    0  501 -0.00000000000E+00 -0.00000000000E+00 -0.63038658625E+03  0.63038658625E+03  0.00000000000E+00 0.  1.
         24    2    1    2    0    0  0.47360782719E+03 -0.25189516499E+03 -0.31440770139E+03  0.62640415646E+03  0.75989580957E+02 0.  0.
        254    2    1    2    0    0 -0.47360782719E+03  0.25189516499E+03  0.16145866451E+04  0.19345479598E+04  0.92077696863E+03 0.  0.
         23    2    4    4    0    0  0.82528621282E+01 -0.10915837977E+03  0.11742312000E+04  0.11828442639E+04  0.91202960424E+02 0.  0.
         23    2    4    4    0    0 -0.48186068932E+03  0.36105354477E+03  0.44035544514E+03  0.75170369589E+03  0.92715383044E+02 0.  0.
          2    1    3    3  502    0  0.11478525774E+02 -0.23806403462E+02 -0.14920890996E+02  0.30350195845E+02  0.00000000000E+00 0. -1.
         -1    1    3    3    0  502  0.46212930141E+03 -0.22808876153E+03 -0.29948681040E+03  0.59605396061E+03  0.00000000000E+00 0.  1.
         13    1    5    5    0    0  0.17884064879E+02 -0.32827088524E+02  0.79548137708E+03  0.79635926491E+03  0.00000000000E+00 0.  1.
        -13    1    5    5    0    0 -0.96312027505E+01 -0.76331291251E+02  0.37874982292E+03  0.38648499900E+03  0.00000000000E+00 0. -1.
          1    1    6    6  503    0 -0.18638374625E+02  0.38786640806E+02  0.47674096291E+02  0.64223142019E+02  0.00000000000E+00 0. -1.
         -1    1    6    6    0  503 -0.46322231469E+03  0.32226690396E+03  0.39268134885E+03  0.68748055387E+03  0.00000000000E+00 0.  1.
<mgrwt>
<rscale>  0 0.22063568E+04</rscale>
<asrwt>0</asrwt>
<pdfrwt beam="1">  1        2 0.29701008E+00 0.22063568E+04</pdfrwt>
<pdfrwt beam="2">  1       -1 0.96982552E-01 0.22063568E+04</pdfrwt>
<totfact> 0.77605227E+00</totfact>
</mgrwt>
</event>
<event>
12    7  0.1701638E-007  0.1362099E+04  0.7818608E-02  0.8981719E-01
          2   -1    0    0  501    0  0.00000000000E+00  0.00000000000E+00  0.10551678915E+04  0.10551678915E+04  0.00000000000E+00 0. -1.
         -1   -1    0    0    0  501 -0.00000000000E+00 -0.00000000000E+00 -0.43957794047E+03  0.43957794047E+03  0.00000000000E+00 0.  1.
         24    2    1    2    0    0 -0.28234409901E+03 -0.10379487944E+02 -0.10387913092E+03  0.31125526701E+03  0.79139392121E+02 0.  0.
        254    2    1    2    0    0  0.28234409901E+03  0.10379487944E+02  0.71946908197E+03  0.11834905650E+04  0.89620769548E+03 0.  0.
         23    2    4    4    0    0  0.94526803334E+02  0.11710510691E+03  0.88158063137E+03  0.89909902890E+03  0.92443126043E+02 0.  0.
         23    2    4    4    0    0  0.18781729568E+03 -0.10672561897E+03 -0.16211154939E+03  0.28439153607E+03  0.89065689487E+02 0.  0.
          4    1    3    3  502    0 -0.11714273747E+03 -0.37927430896E+02 -0.22971566907E+02  0.12525415698E+03  0.00000000000E+00 0. -1.
         -3    1    3    3    0  502 -0.16520136155E+03  0.27547942951E+02 -0.80907564013E+02  0.18600111003E+03  0.00000000000E+00 0.  1.
         13    1    5    5    0    0  0.28691159274E+02 -0.24895573840E+01  0.31455977579E+03  0.31587534418E+03  0.00000000000E+00 0.  1.
        -13    1    5    5    0    0  0.65835644059E+02  0.11959466430E+03  0.56702085558E+03  0.58322368472E+03  0.00000000000E+00 0. -1.
          2    1    6    6  503    0 -0.44926745522E+01  0.83952779426E+01 -0.61630692707E+01  0.11342320715E+02  0.00000000000E+00 0.  1.
         -2    1    6    6    0  503  0.19230997023E+03 -0.11512089691E+03 -0.15594848012E+03  0.27304921536E+03  0.00000000000E+00 0. -1.
<mgrwt>
<rscale>  0 0.13620992E+04</rscale>
<asrwt>0</asrwt>
<pdfrwt beam="1">  1        2 0.16233352E+00 0.13620992E+04</pdfrwt>
<pdfrwt beam="2">  1       -1 0.67627376E-01 0.13620992E+04</pdfrwt>
<totfact> 0.57276546E+01</totfact>
</mgrwt>
</event>
<event>
12    7  0.1701638E-007  0.1868365E+04  0.7818608E-02  0.8670765E-01
         -1   -1    0    0    0  501 -0.00000000000E+00  0.00000000000E+00  0.19167358167E+03  0.19167358167E+03  0.00000000000E+00 0.  1.
          2   -1    0    0  501    0  0.00000000000E+00 -0.00000000000E+00 -0.45530381388E+04  0.45530381388E+04  0.00000000000E+00 0. -1.
         24    2    1    2    0    0 -0.94638821083E+02  0.35266740579E+03 -0.11685911313E+03  0.39190661864E+03  0.81264628521E+02 0.  0.
        254    2    1    2    0    0  0.94638821083E+02 -0.35266740579E+03 -0.42445054440E+04  0.43528051018E+04  0.89317130770E+03 0.  0.
         23    2    4    4    0    0  0.17815816026E+03  0.74886304692E+02 -0.23047165865E+03  0.31432250503E+03  0.91286160137E+02 0.  0.
         23    2    4    4    0    0 -0.83519339175E+02 -0.42755371048E+03 -0.40140337853E+04  0.40384825968E+04  0.84242503600E+02 0.  0.
          4    1    3    3  502    0 -0.42572623751E+02  0.28699350772E+03 -0.95045350493E+02  0.30530529052E+03  0.00000000000E+00 0. -1.
         -3    1    3    3    0  502 -0.52066197333E+02  0.65673898072E+02 -0.21813762639E+02  0.86601328125E+02  0.00000000000E+00 0.  1.
         13    1    5    5    0    0  0.18470244450E+03  0.55689682183E+02 -0.20152569240E+03  0.27897838340E+03  0.00000000000E+00 0.  1.
        -13    1    5    5    0    0 -0.65442842437E+01  0.19196622509E+02 -0.28945966243E+02  0.35344121629E+02  0.00000000000E+00 0. -1.
          4    1    6    6  503    0  0.16729387209E+02 -0.80658678652E+02 -0.69530996511E+03  0.70017258045E+03  0.00000000000E+00 0. -1.
         -4    1    6    6    0  503 -0.10024872638E+03 -0.34689503183E+03 -0.33187238202E+04  0.33383100163E+04  0.00000000000E+00 0.  1.
<mgrwt>
<rscale>  0 0.18683652E+04</rscale>
<asrwt>0</asrwt>
<pdfrwt beam="1">  1        2 0.70046738E+00 0.18683652E+04</pdfrwt>
<pdfrwt beam="2">  1       -1 0.29488245E-01 0.18683652E+04</pdfrwt>
<totfact> 0.12521447E+00</totfact>
</mgrwt>
</event>
<event>
12    7  0.1701638E-007  0.1481771E+04  0.7818608E-02  0.8896666E-01
         -1   -1    0    0    0  501 -0.00000000000E+00  0.00000000000E+00  0.59937967403E+03  0.59937967403E+03  0.00000000000E+00 0.  1.
          2   -1    0    0  501    0  0.00000000000E+00 -0.00000000000E+00 -0.91579897383E+03  0.91579897383E+03  0.00000000000E+00 0. -1.
         24    2    1    2    0    0  0.31600398421E+03 -0.30292285066E+03 -0.25533632417E+03  0.51311092038E+03  0.80407752608E+02 0.  0.
        254    2    1    2    0    0 -0.31600398421E+03  0.30292285066E+03 -0.61082975626E+02  0.10020677275E+04  0.89932631956E+03 0.  0.
         23    2    4    4    0    0 -0.26284358106E+03 -0.17552750801E+03 -0.31032076089E+03  0.45229278193E+03  0.91504818356E+02 0.  0.
         23    2    4    4    0    0 -0.53160403159E+02  0.47845035867E+03  0.24923778526E+03  0.54977494555E+03  0.91609186093E+02 0.  0.
          4    1    3    3  502    0  0.24847363924E+03 -0.21187914334E+03 -0.22233363271E+03  0.39504957285E+03  0.00000000000E+00 0. -1.
         -3    1    3    3    0  502  0.67530344976E+02 -0.91043707327E+02 -0.33002691462E+02  0.11806134753E+03  0.00000000000E+00 0.  1.
         13    1    5    5    0    0 -0.35290867718E+02 -0.13256121527E+02 -0.44453920135E+01  0.37959605008E+02  0.00000000000E+00 0.  1.
        -13    1    5    5    0    0 -0.22755271334E+03 -0.16227138648E+03 -0.30587536887E+03  0.41433317692E+03  0.00000000000E+00 0. -1.
          1    1    6    6  503    0 -0.76235241030E+02  0.32771156052E+03  0.15441774113E+03  0.37020469695E+03  0.00000000000E+00 0. -1.
         -1    1    6    6    0  503  0.23074837871E+02  0.15073879815E+03  0.94820044133E+02  0.17957024860E+03  0.00000000000E+00 0.  1.
<mgrwt>
<rscale>  0 0.14817710E+04</rscale>
<asrwt>0</asrwt>
<pdfrwt beam="1">  1        2 0.14089215E+00 0.14817710E+04</pdfrwt>
<pdfrwt beam="2">  1       -1 0.92212258E-01 0.14817710E+04</pdfrwt>
<totfact> 0.36169013E+01</totfact>
</mgrwt>
</event>
<event>
12    7  0.1701638E-007  0.1483241E+04  0.7818608E-02  0.8895675E-01
         -1   -1    0    0    0  501 -0.00000000000E+00  0.00000000000E+00  0.11280028560E+04  0.11280028560E+04  0.00000000000E+00 0.  1.
          2   -1    0    0  501    0  0.00000000000E+00 -0.00000000000E+00 -0.48758816027E+03  0.48758816027E+03  0.00000000000E+00 0. -1.
         24    2    1    2    0    0 -0.38706805241E+03  0.21041061780E+03  0.35759067153E+03  0.57279944556E+03  0.78318651588E+02 0.  0.
        254    2    1    2    0    0  0.38706805241E+03 -0.21041061780E+03  0.28282402417E+03  0.10427915707E+04  0.90184839411E+03 0.  0.
         23    2    4    4    0    0  0.59917613828E+03 -0.17626151509E+03  0.43178628658E+03  0.76548238091E+03  0.97178762163E+02 0.  0.
         23    2    4    4    0    0 -0.21210808588E+03 -0.34149102709E+02 -0.14896226241E+03  0.27730918977E+03  0.92491241719E+02 0.  0.
          2    1    3    3  502    0 -0.15200940507E+03  0.90423084396E+02  0.19291773382E+03  0.26172589754E+03  0.00000000000E+00 0. -1.
         -3    1    3    3    0  502 -0.23505864734E+03  0.11998753340E+03  0.16467293771E+03  0.31107354801E+03  0.00000000000E+00 0.  1.
         13    1    5    5    0    0  0.10266981949E+03 -0.68949150695E+02  0.95991989907E+02  0.15655522777E+03  0.00000000000E+00 0.  1.
        -13    1    5    5    0    0  0.49650631879E+03 -0.10731236440E+03  0.33579429668E+03  0.60892715314E+03  0.00000000000E+00 0. -1.
          4    1    6    6  503    0 -0.19138847931E+03  0.29501337685E+00 -0.13700690381E+03  0.23537316911E+03  0.00000000000E+00 0. -1.
         -4    1    6    6    0  503 -0.20719606571E+02 -0.34444116086E+02 -0.11955358608E+02  0.41936020661E+02  0.00000000000E+00 0.  1.
<mgrwt>
<rscale>  0 0.14832408E+04</rscale>
<asrwt>0</asrwt>
<pdfrwt beam="1">  1        2 0.75013564E-01 0.14832408E+04</pdfrwt>
<pdfrwt beam="2">  1       -1 0.17353890E+00 0.14832408E+04</pdfrwt>
<totfact> 0.16255867E+01</totfact>
</mgrwt>
</event>
<event>
12    7  0.1701638E-007  0.1377795E+04  0.7818608E-02  0.8970050E-01
          2   -1    0    0  501    0  0.00000000000E+00  0.00000000000E+00  0.41226597784E+03  0.41226597784E+03  0.00000000000E+00 0. -1.
         -1   -1    0    0    0  501 -0.00000000000E+00 -0.00000000000E+00 -0.11511499276E+04  0.11511499276E+04  0.00000000000E+00 0.  1.
         24    2    1    2    0    0  0.14358072441E+03  0.16724783468E+03  0.15756561806E+03  0.28085190960E+03  0.73916226249E+02 0.  0.
        254    2    1    2    0    0 -0.14358072441E+03 -0.16724783468E+03 -0.89644956782E+03  0.12825639958E+04  0.89037144672E+03 0.  0.
         23    2    4    4    0    0  0.75505843479E+02  0.76209969180E+02  0.13289829385E+03  0.19878549816E+03  0.10170853438E+03 0.  0.
         23    2    4    4    0    0 -0.21908656789E+03 -0.24345780386E+03 -0.10293478617E+04  0.10837784977E+04  0.88023776334E+02 0.  0.
          2    1    3    3  502    0  0.72770020964E+02  0.11753287897E+03  0.13073809932E+03  0.19026797998E+03  0.00000000000E+00 0. -1.
         -1    1    3    3    0  502  0.70810703450E+02  0.49714955708E+02  0.26827518739E+02  0.90583929622E+02  0.00000000000E+00 0.  1.
         13    1    5    5    0    0  0.45683579126E+02  0.82753428916E+01  0.11270712337E+03  0.12189489882E+03  0.00000000000E+00 0.  1.
        -13    1    5    5    0    0  0.29822264353E+02  0.67934626288E+02  0.20191170485E+02  0.76890599332E+02  0.00000000000E+00 0. -1.
          4    1    6    6  503    0 -0.20984118206E+03 -0.24404788102E+03 -0.10232791309E+04  0.10727035330E+04  0.00000000000E+00 0.  1.
         -4    1    6    6    0  503 -0.92453858285E+01  0.59007715569E+00 -0.60687307983E+01  0.11074964725E+02  0.00000000000E+00 0. -1.
<mgrwt>
<rscale>  0 0.13777953E+04</rscale>
<asrwt>0</asrwt>
<pdfrwt beam="1">  1        2 0.63425536E-01 0.13777953E+04</pdfrwt>
<pdfrwt beam="2">  1       -1 0.17709999E+00 0.13777953E+04</pdfrwt>
<totfact> 0.18716753E+01</totfact>
</mgrwt>
</event>
<event>
12    7  0.1701638E-007  0.1829303E+04  0.7818608E-02  0.8690870E-01
          2   -1    0    0  501    0  0.00000000000E+00  0.00000000000E+00  0.15242147101E+04  0.15242147101E+04  0.00000000000E+00 0. -1.
         -1   -1    0    0    0  501 -0.00000000000E+00 -0.00000000000E+00 -0.54886428343E+03  0.54886428343E+03  0.00000000000E+00 0.  1.
         24    2    1    2    0    0  0.14278276813E+03 -0.26081174045E+03 -0.33809603691E+03  0.45705273012E+03  0.78603976384E+02 0.  0.
        254    2    1    2    0    0 -0.14278276813E+03  0.26081174045E+03  0.13134464636E+04  0.16160262634E+04  0.89330262987E+03 0.  0.
         23    2    4    4    0    0 -0.33483975875E+02  0.57476696090E+03  0.95830858515E+03  0.11215663983E+04  0.89875500052E+02 0.  0.
         23    2    4    4    0    0 -0.10929879226E+03 -0.31395522045E+03  0.35513787842E+03  0.49445986508E+03  0.88620195501E+02 0.  0.
          4    1    3    3  502    0  0.15479739655E+02 -0.19519617347E+02 -0.32269521435E+01  0.25120728917E+02  0.00000000000E+00 0. -1.
         -3    1    3    3    0  502  0.12730302848E+03 -0.24129212311E+03 -0.33486908476E+03  0.43193200120E+03  0.00000000000E+00 0.  1.
         13    1    5    5    0    0  0.90623434370E+00  0.11954280472E+02  0.31564302712E+01  0.12397142185E+02  0.00000000000E+00 0.  1.
        -13    1    5    5    0    0 -0.34390210219E+02  0.56281268043E+03  0.95515215488E+03  0.11091692561E+04  0.00000000000E+00 0. -1.
          3    1    6    6  503    0 -0.11985422663E+03 -0.27920240007E+03  0.29078574853E+03  0.42056553281E+03  0.00000000000E+00 0. -1.
         -3    1    6    6    0  503  0.10555434373E+02 -0.34752820376E+02  0.64352129890E+02  0.73894332261E+02  0.00000000000E+00 0.  1.
<mgrwt>
<rscale>  0 0.18293026E+04</rscale>
<asrwt>0</asrwt>
<pdfrwt beam="1">  1        2 0.23449457E+00 0.18293026E+04</pdfrwt>
<pdfrwt beam="2">  1       -1 0.84440660E-01 0.18293026E+04</pdfrwt>
<totfact> 0.18333147E+01</totfact>
</mgrwt>
</event>
<event>
12    7  0.1701638E-007  0.4066010E+04  0.7818608E-02  0.7991361E-01
         -1   -1    0    0    0  501 -0.00000000000E+00  0.00000000000E+00  0.98357272528E+03  0.98357272528E+03  0.00000000000E+00 0.  1.
          2   -1    0    0  501    0  0.00000000000E+00 -0.00000000000E+00 -0.42021384489E+04  0.42021384489E+04  0.00000000000E+00 0. -1.
         24    2    1    2    0    0 -0.18824917665E+04  0.55841430444E+02 -0.20892119591E+04  0.28139128696E+04  0.80034436762E+02 0.  0.
        254    2    1    2    0    0  0.18824917665E+04 -0.55841430444E+02 -0.11293537646E+04  0.23717983046E+04  0.89615498432E+03 0.  0.
         23    2    4    4    0    0  0.11631785550E+04  0.89396897393E+02 -0.20518526997E+03  0.11880776156E+04  0.91930786385E+02 0.  0.
         23    2    4    4    0    0  0.71931321151E+03 -0.14523832784E+03 -0.92416849461E+03  0.11837206891E+04  0.92744785162E+02 0.  0.
          4    1    3    3  502    0 -0.17558476486E+04  0.67852912449E+02 -0.19290053346E+04  0.26093421706E+04  0.00000000000E+00 0. -1.
         -3    1    3    3    0  502 -0.12664411796E+03 -0.12011482005E+02 -0.16020662453E+03  0.20457069892E+03  0.00000000000E+00 0.  1.
         13    1    5    5    0    0  0.64062837344E+03  0.48386125148E+02 -0.66511914754E+02  0.64588680492E+03  0.00000000000E+00 0. -1.
        -13    1    5    5    0    0  0.52255018159E+03  0.41010772246E+02 -0.13867335521E+03  0.54219081066E+03  0.00000000000E+00 0.  1.
          2    1    6    6  503    0  0.15305409465E+02  0.24966239434E+01 -0.45129391108E+01  0.16151015740E+02  0.00000000000E+00 0.  1.
         -2    1    6    6    0  503  0.70400780205E+03 -0.14773495178E+03 -0.91965555550E+03  0.11675696733E+04  0.00000000000E+00 0. -1.
<mgrwt>
<rscale>  0 0.40660097E+04</rscale>
<asrwt>0</asrwt>
<pdfrwt beam="1">  1        2 0.64648284E+00 0.40660097E+04</pdfrwt>
<pdfrwt beam="2">  1       -1 0.15131888E+00 0.40660097E+04</pdfrwt>
<totfact> 0.69865453E-02</totfact>
</mgrwt>
</event>
<event>
12    7  0.1701638E-007  0.1503779E+04  0.7818608E-02  0.8881944E-01
          2   -1    0    0  501    0  0.00000000000E+00  0.00000000000E+00  0.27661798382E+04  0.27661798382E+04  0.00000000000E+00 0. -1.
         -1   -1    0    0    0  501 -0.00000000000E+00 -0.00000000000E+00 -0.20437485794E+03  0.20437485794E+03  0.00000000000E+00 0.  1.
         24    2    1    2    0    0 -0.71916888806E+02  0.39170060204E+03  0.13422686135E+04  0.14024097571E+04  0.80415765438E+02 0.  0.
        254    2    1    2    0    0  0.71916888806E+02 -0.39170060204E+03  0.12195363668E+04  0.15681449391E+04  0.90178057180E+03 0.  0.
         23    2    4    4    0    0  0.32368458468E+03 -0.34534022422E+02  0.84072400712E+02  0.34831404582E+03  0.91050518351E+02 0.  0.
         23    2    4    4    0    0 -0.25176769587E+03 -0.35716657962E+03  0.11354639661E+04  0.12198308933E+04  0.88057093619E+02 0.  0.
          4    1    3    3  502    0 -0.78952317091E+02  0.35768515528E+03  0.12767166335E+04  0.13282234379E+04  0.00000000000E+00 0. -1.
         -3    1    3    3    0  502  0.70354282847E+01  0.34015446762E+02  0.65551980044E+02  0.74186319205E+02  0.00000000000E+00 0.  1.
         13    1    5    5    0    0  0.42767731078E+02  0.50211727872E+01 -0.18205782843E+02  0.46751914685E+02  0.00000000000E+00 0.  1.
        -13    1    5    5    0    0  0.28091685360E+03 -0.39555195209E+02  0.10227818355E+03  0.30156213114E+03  0.00000000000E+00 0. -1.
          4    1    6    6  503    0 -0.50371280424E+02 -0.23817741939E+02  0.12251177724E+03  0.13458709553E+03  0.00000000000E+00 0. -1.
         -4    1    6    6    0  503 -0.20139641545E+03 -0.33334883768E+03  0.10129521888E+04  0.10852437978E+04  0.00000000000E+00 0.  1.
<mgrwt>
<rscale>  0 0.15037787E+04</rscale>
<asrwt>0</asrwt>
<pdfrwt beam="1">  1        2 0.42556610E+00 0.15037787E+04</pdfrwt>
<pdfrwt beam="2">  1       -1 0.31442288E-01 0.15037787E+04</pdfrwt>
<totfact> 0.25165673E+01</totfact>
</mgrwt>
</event>
<event>
12    7  0.1701638E-007  0.1029560E+04  0.7818608E-02  0.9276705E-01
          2   -1    0    0  501    0  0.00000000000E+00  0.00000000000E+00  0.11911205925E+04  0.11911205925E+04  0.00000000000E+00 0. -1.
         -1   -1    0    0    0  501 -0.00000000000E+00 -0.00000000000E+00 -0.22247825165E+03  0.22247825165E+03  0.00000000000E+00 0.  1.
         24    2    1    2    0    0  0.11022468279E+02  0.96527889116E+02  0.21114526257E+03  0.24530939045E+03  0.78455381943E+02 0.  0.
        254    2    1    2    0    0 -0.11022468279E+02 -0.96527889116E+02  0.75749707827E+03  0.11682894537E+04  0.88411497885E+03 0.  0.
         23    2    4    4    0    0  0.15368282117E+03  0.31303658900E+03  0.10809755923E+03  0.37649948867E+03  0.91959051109E+02 0.  0.
         23    2    4    4    0    0 -0.16470528945E+03 -0.40956447811E+03  0.64939951905E+03  0.79178996503E+03  0.10168932722E+03 0.  0.
          4    1    3    3  502    0 -0.10821407694E+02  0.81657395924E+02  0.20060807610E+03  0.21686086177E+03  0.00000000000E+00 0. -1.
         -3    1    3    3    0  502  0.21843875973E+02  0.14870493192E+02  0.10537186468E+02  0.28448528679E+02  0.00000000000E+00 0.  1.
         13    1    5    5    0    0  0.16386806528E+03  0.30454748467E+03  0.96924589390E+02  0.35916053412E+03  0.00000000000E+00 0.  1.
        -13    1    5    5    0    0 -0.10185244111E+02  0.84891043245E+01  0.11172969836E+02  0.17338954547E+02  0.00000000000E+00 0. -1.
          1    1    6    6  503    0 -0.31285925579E+02 -0.12626956612E+02  0.58877961742E+02  0.67859144936E+02  0.00000000000E+00 0. -1.
         -1    1    6    6    0  503 -0.13341936387E+03 -0.39693752150E+03  0.59052155731E+03  0.72393082009E+03  0.00000000000E+00 0.  1.
<mgrwt>
<rscale>  0 0.10295600E+04</rscale>
<asrwt>0</asrwt>
<pdfrwt beam="1">  1        2 0.18324932E+00 0.10295600E+04</pdfrwt>
<pdfrwt beam="2">  1       -1 0.34227424E-01 0.10295600E+04</pdfrwt>
<totfact> 0.17573226E+02</totfact>
</mgrwt>
</event>
<event>
12    7  0.1701638E-007  0.1296919E+04  0.7818608E-02  0.9032012E-01
         -1   -1    0    0    0  501 -0.00000000000E+00  0.00000000000E+00  0.31610950942E+03  0.31610950942E+03  0.00000000000E+00 0.  1.
          2   -1    0    0  501    0  0.00000000000E+00 -0.00000000000E+00 -0.13302335809E+04  0.13302335809E+04  0.00000000000E+00 0. -1.
         24    2    1    2    0    0  0.16929042254E+02  0.66043273041E+02  0.14105119017E+03  0.17641349359E+03  0.81104722965E+02 0.  0.
        254    2    1    2    0    0 -0.16929042254E+02 -0.66043273041E+02 -0.11551752617E+04  0.14699295968E+04  0.90642971479E+03 0.  0.
         23    2    4    4    0    0  0.20044162063E+03 -0.44997945247E+02  0.58403028443E+02  0.23347289024E+03  0.94324007485E+02 0.  0.
         23    2    4    4    0    0 -0.21737066289E+03 -0.21045327794E+02 -0.12135782901E+04  0.12364567065E+04  0.91433089894E+02 0.  0.
          2    1    3    3  502    0 -0.10471913818E+02  0.53088678150E+02  0.13508913946E+03  0.14552368992E+03  0.00000000000E+00 0. -1.
         -1    1    3    3    0  502  0.27400956073E+02  0.12954594891E+02  0.59620507111E+01  0.30889803676E+02  0.00000000000E+00 0.  1.
         13    1    5    5    0    0  0.18500071969E+03 -0.63178541059E+02  0.32349762551E+02  0.19814969461E+03  0.00000000000E+00 0.  1.
        -13    1    5    5    0    0  0.15440900938E+02  0.18180595812E+02  0.26053265891E+02  0.35323195629E+02  0.00000000000E+00 0. -1.
          1    1    6    6  503    0 -0.19845446988E+03 -0.10771564232E+02 -0.11796546511E+04  0.11962797746E+04  0.00000000000E+00 0. -1.
         -1    1    6    6    0  503 -0.18916193007E+02 -0.10273763562E+02 -0.33923639062E+02  0.40176931973E+02  0.00000000000E+00 0.  1.
<mgrwt>
<rscale>  0 0.12969186E+04</rscale>
<asrwt>0</asrwt>
<pdfrwt beam="1">  1        2 0.20465132E+00 0.12969186E+04</pdfrwt>
<pdfrwt beam="2">  1       -1 0.48632231E-01 0.12969186E+04</pdfrwt>
<totfact> 0.75038632E+01</totfact>
</mgrwt>
</event>
<event>
12    7  0.1701638E-007  0.1362764E+04  0.7818608E-02  0.8981222E-01
         -1   -1    0    0    0  501 -0.00000000000E+00  0.00000000000E+00  0.24241743640E+03  0.24241743640E+03  0.00000000000E+00 0.  1.
          2   -1    0    0  501    0  0.00000000000E+00 -0.00000000000E+00 -0.19152150422E+04  0.19152150422E+04  0.00000000000E+00 0. -1.
         24    2    1    2    0    0 -0.29261512877E+02  0.37393931666E+03 -0.31714563389E+03  0.49766669371E+03  0.80024597829E+02 0.  0.
        254    2    1    2    0    0  0.29261512877E+02 -0.37393931666E+03 -0.13556519720E+04  0.16599657849E+04  0.88148016960E+03 0.  0.
         23    2    4    4    0    0 -0.15596149625E+03 -0.48997078132E+03 -0.13213702197E+04  0.14205625288E+04  0.87082063909E+02 0.  0.
         23    2    4    4    0    0  0.18522300913E+03  0.11603146466E+03 -0.34281752273E+02  0.23940325615E+03  0.91475770634E+02 0.  0.
          4    1    3    3  502    0 -0.56277384986E+01  0.34917827298E+03 -0.29151740475E+03  0.45490607276E+03  0.00000000000E+00 0. -1.
         -3    1    3    3    0  502 -0.23633774379E+02  0.24761043673E+02 -0.25628229143E+02  0.42760620952E+02  0.00000000000E+00 0.  1.
         13    1    5    5    0    0 -0.66017767067E+02 -0.33274868344E+03 -0.90545447690E+03  0.96691666737E+03  0.00000000000E+00 0. -1.
        -13    1    5    5    0    0 -0.89943729188E+02 -0.15722209788E+03 -0.41591574278E+03  0.45364586141E+03  0.00000000000E+00 0.  1.
          3    1    6    6  503    0  0.21653370702E+02 -0.15834388698E+02 -0.44602209986E+01  0.27193563568E+02  0.00000000000E+00 0. -1.
         -3    1    6    6    0  503  0.16356963843E+03  0.13186585336E+03 -0.29821531275E+02  0.21220969258E+03  0.00000000000E+00 0.  1.
<mgrwt>
<rscale>  0 0.13627641E+04</rscale>
<asrwt>0</asrwt>
<pdfrwt beam="1">  1        2 0.29464845E+00 0.13627641E+04</pdfrwt>
<pdfrwt beam="2">  1       -1 0.37294992E-01 0.13627641E+04</pdfrwt>
<totfact> 0.57313115E+01</totfact>
</mgrwt>
</event>
<event>
12    7  0.1701638E-007  0.1250610E+04  0.7818608E-02  0.9069676E-01
         -1   -1    0    0    0  501 -0.00000000000E+00  0.00000000000E+00  0.57407179550E+03  0.57407179550E+03  0.00000000000E+00 0.  1.
          2   -1    0    0  501    0  0.00000000000E+00 -0.00000000000E+00 -0.68111044083E+03  0.68111044083E+03  0.00000000000E+00 0. -1.
         24    2    1    2    0    0 -0.14959166717E+03 -0.19967089811E+03  0.16051608421E+03  0.30701397788E+03  0.79031859922E+02 0.  0.
        254    2    1    2    0    0  0.14959166717E+03  0.19967089811E+03 -0.26755472953E+03  0.94816825845E+03  0.87475218125E+03 0.  0.
         23    2    4    4    0    0 -0.24270870383E+02  0.34766863804E+03  0.20568132846E+03  0.41454264971E+03  0.89879043899E+02 0.  0.
         23    2    4    4    0    0  0.17386253756E+03 -0.14799773992E+03 -0.47323605798E+03  0.53362560874E+03  0.93125779147E+02 0.  0.
          4    1    3    3  502    0 -0.47923939332E+02 -0.72944730049E+02  0.14307346421E+02  0.88443980941E+02  0.00000000000E+00 0. -1.
         -3    1    3    3    0  502 -0.10166772784E+03 -0.12672616806E+03  0.14620873778E+03  0.21856999694E+03  0.00000000000E+00 0.  1.
         13    1    5    5    0    0  0.12662500290E+02  0.16979404826E+02 -0.35568875044E+01  0.21477675632E+02  0.00000000000E+00 0.  1.
        -13    1    5    5    0    0 -0.36933370674E+02  0.33068923321E+03  0.20923821596E+03  0.39306497408E+03  0.00000000000E+00 0. -1.
          1    1    6    6  503    0  0.14667715398E+03 -0.70375810459E+02 -0.28413553329E+03  0.32741402455E+03  0.00000000000E+00 0. -1.
         -1    1    6    6    0  503  0.27185383579E+02 -0.77621929463E+02 -0.18910052469E+03  0.20621158419E+03  0.00000000000E+00 0.  1.
<mgrwt>
<rscale>  0 0.12506099E+04</rscale>
<asrwt>0</asrwt>
<pdfrwt beam="1">  1        2 0.10478622E+00 0.12506099E+04</pdfrwt>
<pdfrwt beam="2">  1       -1 0.88318738E-01 0.12506099E+04</pdfrwt>
<totfact> 0.60030285E+01</totfact>
</mgrwt>
</event>
<event>
12    7  0.1701638E-007  0.1461294E+04  0.7818608E-02  0.8910608E-01
          2   -1    0    0  501    0  0.00000000000E+00  0.00000000000E+00  0.54391950663E+03  0.54391950663E+03  0.00000000000E+00 0. -1.
         -1   -1    0    0    0  501 -0.00000000000E+00 -0.00000000000E+00 -0.98147825793E+03  0.98147825793E+03  0.00000000000E+00 0.  1.
         24    2    1    2    0    0  0.26810861396E+03  0.31839418953E+03 -0.30270230847E+03  0.52195358797E+03  0.86889421843E+02 0.  0.
        254    2    1    2    0    0 -0.26810861396E+03 -0.31839418953E+03 -0.13485644283E+03  0.10034441766E+04  0.90302650379E+03 0.  0.
         23    2    4    4    0    0 -0.18936288679E+03 -0.20615898744E+03 -0.51273207695E+03  0.59117345114E+03  0.90730566001E+02 0.  0.
         23    2    4    4    0    0 -0.78745727173E+02 -0.11223520209E+03  0.37787563412E+03  0.41227072545E+03  0.91539751314E+02 0.  0.
          2    1    3    3  502    0  0.15759814773E+03  0.18915341253E+03 -0.12544456157E+03  0.27631961144E+03  0.00000000000E+00 0. -1.
         -1    1    3    3    0  502  0.11051046624E+03  0.12924077700E+03 -0.17725774690E+03  0.24563397653E+03  0.00000000000E+00 0.  1.
         13    1    5    5    0    0 -0.18696174607E+03 -0.20486271555E+03 -0.45151426785E+03  0.52989485824E+03  0.00000000000E+00 0. -1.
        -13    1    5    5    0    0 -0.24011407203E+01 -0.12962718947E+01 -0.61217809095E+02  0.61278592901E+02  0.00000000000E+00 0.  1.
          2    1    6    6  503    0 -0.32417836699E+02  0.75424834103E+01  0.49246724206E+02  0.59439423258E+02  0.00000000000E+00 0.  1.
         -2    1    6    6    0  503 -0.46327890474E+02 -0.11977768550E+03  0.32862890991E+03  0.35283130219E+03  0.00000000000E+00 0. -1.
<mgrwt>
<rscale>  0 0.14612942E+04</rscale>
<asrwt>0</asrwt>
<pdfrwt beam="1">  1        2 0.83679924E-01 0.14612942E+04</pdfrwt>
<pdfrwt beam="2">  1       -1 0.15099666E+00 0.14612942E+04</pdfrwt>
<totfact> 0.21175141E+01</totfact>
</mgrwt>
</event>
<event>
12    7  0.1701638E-007  0.2580996E+04  0.7818608E-02  0.8374685E-01
         -1   -1    0    0    0  501 -0.00000000000E+00  0.00000000000E+00  0.98237684771E+03  0.98237684771E+03  0.00000000000E+00 0.  1.
          2   -1    0    0  501    0  0.00000000000E+00 -0.00000000000E+00 -0.16952615228E+04  0.16952615228E+04  0.00000000000E+00 0. -1.
         24    2    1    2    0    0  0.78279670200E+03  0.73231893813E+03  0.57057692327E+02  0.10765555963E+04  0.81576147632E+02 0.  0.
        254    2    1    2    0    0 -0.78279670200E+03 -0.73231893813E+03 -0.76994236741E+03  0.16010827742E+04  0.90641772760E+03 0.  0.
         23    2    4    4    0    0 -0.45330327702E+03 -0.76588645505E+03 -0.86460363544E+03  0.12445867026E+04  0.96905576958E+02 0.  0.
         23    2    4    4    0    0 -0.32949342498E+03  0.33567516917E+02  0.94661268029E+02  0.35649607162E+03  0.91847689772E+02 0.  0.
          2    1    3    3  502    0  0.47191841894E+02  0.28861495106E+02 -0.11217409884E+02  0.56443654432E+02  0.00000000000E+00 0. -1.
         -1    1    3    3    0  502  0.73560486011E+03  0.70345744302E+03  0.68275102211E+02  0.10201119419E+04  0.00000000000E+00 0.  1.
         13    1    5    5    0    0 -0.20067632576E+03 -0.24798824781E+03 -0.30839425847E+03  0.44370731054E+03  0.00000000000E+00 0.  1.
        -13    1    5    5    0    0 -0.25262695126E+03 -0.51789820724E+03 -0.55620937697E+03  0.80087939204E+03  0.00000000000E+00 0. -1.
          1    1    6    6  503    0 -0.13604599283E+03  0.16203820381E+02  0.86643646232E+02  0.16210551314E+03  0.00000000000E+00 0. -1.
         -1    1    6    6    0  503 -0.19344743216E+03  0.17363696536E+02  0.80176217968E+01  0.19439055848E+03  0.00000000000E+00 0.  1.
<mgrwt>
<rscale>  0 0.25809965E+04</rscale>
<asrwt>0</asrwt>
<pdfrwt beam="1">  1        2 0.26080946E+00 0.25809965E+04</pdfrwt>
<pdfrwt beam="2">  1       -1 0.15113490E+00 0.25809965E+04</pdfrwt>
<totfact> 0.34021995E+00</totfact>
</mgrwt>
</event>
<event>
12    7  0.1701638E-007  0.2459679E+04  0.7818608E-02  0.8417493E-01
          2   -1    0    0  501    0  0.00000000000E+00  0.00000000000E+00  0.15151119165E+04  0.15151119165E+04  0.00000000000E+00 0. -1.
         -1   -1    0    0    0  501 -0.00000000000E+00 -0.00000000000E+00 -0.99827935545E+03  0.99827935545E+03  0.00000000000E+00 0.  1.
         24    2    1    2    0    0  0.10000069130E+04  0.59722554065E+02  0.57233586876E+03  0.11568662271E+04  0.84796881925E+02 0.  0.
        254    2    1    2    0    0 -0.10000069130E+04 -0.59722554065E+02 -0.55503307714E+02  0.13565250449E+04  0.91296164803E+03 0.  0.
         23    2    4    4    0    0 -0.19131763279E+03 -0.28543273724E+03  0.27472773976E+03  0.44972346079E+03  0.93282238845E+02 0.  0.
         23    2    4    4    0    0 -0.80868928019E+03  0.22571018317E+03 -0.33023104747E+03  0.90680158410E+03  0.91176364965E+02 0.  0.
          4    1    3    3  502    0  0.37498371112E+03  0.13691520673E+01  0.25498666178E+03  0.45346759076E+03  0.00000000000E+00 0. -1.
         -3    1    3    3    0  502  0.62502320186E+03  0.58353401998E+02  0.31734920698E+03  0.70339863630E+03  0.00000000000E+00 0.  1.
         13    1    5    5    0    0 -0.34341238889E+02 -0.11619691218E+03  0.63320639345E+02  0.13671337336E+03  0.00000000000E+00 0.  1.
        -13    1    5    5    0    0 -0.15697639390E+03 -0.16923582506E+03  0.21140710041E+03  0.31301008743E+03  0.00000000000E+00 0. -1.
          3    1    6    6  503    0 -0.64133333848E+03  0.18876526226E+03 -0.30003378880E+03  0.73277626169E+03  0.00000000000E+00 0. -1.
         -3    1    6    6    0  503 -0.16735594171E+03  0.36944920919E+02 -0.30197258674E+02  0.17402532241E+03  0.00000000000E+00 0.  1.
<mgrwt>
<rscale>  0 0.24596788E+04</rscale>
<asrwt>0</asrwt>
<pdfrwt beam="1">  1        2 0.23309414E+00 0.24596788E+04</pdfrwt>
<pdfrwt beam="2">  1       -1 0.15358144E+00 0.24596788E+04</pdfrwt>
<totfact> 0.41516956E+00</totfact>
</mgrwt>
</event>
<event>
12    7  0.1701638E-007  0.2582346E+04  0.7818608E-02  0.8374223E-01
          2   -1    0    0  501    0  0.00000000000E+00  0.00000000000E+00  0.29576267382E+04  0.29576267382E+04  0.00000000000E+00 0. -1.
         -1   -1    0    0    0  501 -0.00000000000E+00 -0.00000000000E+00 -0.56367097515E+03  0.56367097515E+03  0.00000000000E+00 0.  1.
         24    2    1    2    0    0  0.87499108116E+03  0.63191521875E+03  0.15228949224E+04  0.18683760164E+04  0.81815391365E+02 0.  0.
        254    2    1    2    0    0 -0.87499108116E+03 -0.63191521875E+03  0.87106084072E+03  0.16529216970E+04  0.89915344205E+03 0.  0.
         23    2    4    4    0    0 -0.21327163402E+03 -0.60966340953E+03  0.71057513212E+03  0.96509046445E+03  0.96479652758E+02 0.  0.
         23    2    4    4    0    0 -0.66171944714E+03 -0.22251809225E+02  0.16048570860E+03  0.68783123254E+03  0.94807025324E+02 0.  0.
          4    1    3    3  502    0  0.47535225940E+03  0.38064387474E+03  0.81099978861E+03  0.10141844936E+04  0.00000000000E+00 0. -1.
         -3    1    3    3    0  502  0.39963882176E+03  0.25127134401E+03  0.71189513375E+03  0.85419152281E+03  0.00000000000E+00 0.  1.
         13    1    5    5    0    0  0.30965410447E+01 -0.78285142921E+02  0.10330130017E+03  0.12965072612E+03  0.00000000000E+00 0.  1.
        -13    1    5    5    0    0 -0.21636817506E+03 -0.53137826661E+03  0.60727383196E+03  0.83543973833E+03  0.00000000000E+00 0. -1.
          4    1    6    6  503    0 -0.56416805941E+03  0.14045087704E+02  0.12659730810E+03  0.57836817182E+03  0.00000000000E+00 0. -1.
         -4    1    6    6    0  503 -0.97551387728E+02 -0.36296896929E+02  0.33888400499E+02  0.10946306072E+03  0.00000000000E+00 0.  1.
<mgrwt>
<rscale>  0 0.25823465E+04</rscale>
<asrwt>0</asrwt>
<pdfrwt beam="1">  1        2 0.45501949E+00 0.25823465E+04</pdfrwt>
<pdfrwt beam="2">  1       -1 0.86718613E-01 0.25823465E+04</pdfrwt>
<totfact> 0.24429398E+00</totfact>
</mgrwt>
</event>
<event>
12    7  0.1701638E-007  0.1482547E+04  0.7818608E-02  0.8896143E-01
          2   -1    0    0  501    0  0.00000000000E+00  0.00000000000E+00  0.74779730162E+03  0.74779730162E+03  0.00000000000E+00 0. -1.
         -1   -1    0    0    0  501 -0.00000000000E+00 -0.00000000000E+00 -0.73480651490E+03  0.73480651490E+03  0.00000000000E+00 0.  1.
         24    2    1    2    0    0  0.15406679252E+03 -0.43777597382E+03 -0.15433169473E+02  0.47087430208E+03  0.78102790154E+02 0.  0.
        254    2    1    2    0    0 -0.15406679252E+03  0.43777597382E+03  0.28423956189E+02  0.10117295144E+04  0.89855679246E+03 0.  0.
         23    2    4    4    0    0  0.35865179434E+03  0.10791805634E+03  0.76943131441E+02  0.39318120508E+03  0.91617673431E+02 0.  0.
         23    2    4    4    0    0 -0.51271858687E+03  0.32985791748E+03 -0.48519175253E+02  0.61854830935E+03  0.92527323477E+02 0.  0.
          4    1    3    3  502    0  0.16326477909E+03 -0.41295180251E+03 -0.16722846621E+02  0.44436947790E+03  0.00000000000E+00 0. -1.
         -3    1    3    3    0  502 -0.91979865632E+01 -0.24824171308E+02  0.12896771481E+01  0.26504824186E+02  0.00000000000E+00 0.  1.
         13    1    5    5    0    0  0.29858328293E+03  0.65334061605E+02  0.32975878792E+02  0.30742141278E+03  0.00000000000E+00 0.  1.
        -13    1    5    5    0    0  0.60068511412E+02  0.42583994736E+02  0.43967252649E+02  0.85759792306E+02  0.00000000000E+00 0. -1.
          3    1    6    6  503    0 -0.16036514760E+02  0.10979028660E+02  0.15490760290E+02  0.24853018535E+02  0.00000000000E+00 0. -1.
         -3    1    6    6    0  503 -0.49668207211E+03  0.31887888882E+03 -0.64009935542E+02  0.59369529082E+03  0.00000000000E+00 0.  1.
<mgrwt>
<rscale>  0 0.14825469E+04</rscale>
<asrwt>0</asrwt>
<pdfrwt beam="1">  1        2 0.11504574E+00 0.14825469E+04</pdfrwt>
<pdfrwt beam="2">  1       -1 0.11304716E+00 0.14825469E+04</pdfrwt>
<totfact> 0.29752067E+01</totfact>
</mgrwt>
</event>
<event>
12    7  0.1701638E-007  0.1263680E+04  0.7818608E-02  0.9058873E-01
         -1   -1    0    0    0  501 -0.00000000000E+00  0.00000000000E+00  0.62799028032E+03  0.62799028032E+03  0.00000000000E+00 0.  1.
          2   -1    0    0  501    0  0.00000000000E+00 -0.00000000000E+00 -0.63571381924E+03  0.63571381924E+03  0.00000000000E+00 0. -1.
         24    2    1    2    0    0  0.18548877684E+03 -0.12576510664E+03 -0.23545718603E+03  0.33442663720E+03  0.78601150333E+02 0.  0.
        254    2    1    2    0    0 -0.18548877684E+03  0.12576510664E+03  0.22773364711E+03  0.92927746236E+03  0.87262307993E+03 0.  0.
         23    2    4    4    0    0 -0.34199051645E+02  0.31010492245E+03 -0.23465131539E+03  0.40087389302E+03  0.91126287242E+02 0.  0.
         23    2    4    4    0    0 -0.15128972520E+03 -0.18433981581E+03  0.46238496250E+03  0.52840356934E+03  0.92416069516E+02 0.  0.
          2    1    3    3  502    0  0.18365994260E+03 -0.13326669497E+03 -0.21514060066E+03  0.31269228413E+03  0.00000000000E+00 0. -1.
         -1    1    3    3    0  502  0.18288342412E+01  0.75015883298E+01 -0.20316585369E+02  0.21734353066E+02  0.00000000000E+00 0.  1.
         13    1    5    5    0    0 -0.27379080017E+02  0.31134849423E+03 -0.23830709049E+03  0.39303659914E+03  0.00000000000E+00 0. -1.
        -13    1    5    5    0    0 -0.68199716278E+01 -0.12435717807E+01  0.36557751007E+01  0.78372938802E+01  0.00000000000E+00 0.  1.
          3    1    6    6  503    0 -0.58695265669E+02 -0.12002816210E+03  0.32012411304E+03  0.34688808233E+03  0.00000000000E+00 0. -1.
         -3    1    6    6    0  503 -0.92594459527E+02 -0.64311653711E+02  0.14226084945E+03  0.18151548701E+03  0.00000000000E+00 0.  1.
<mgrwt>
<rscale>  0 0.12636805E+04</rscale>
<asrwt>0</asrwt>
<pdfrwt beam="1">  1        2 0.97802125E-01 0.12636805E+04</pdfrwt>
<pdfrwt beam="2">  1       -1 0.96613890E-01 0.12636805E+04</pdfrwt>
<totfact> 0.53513634E+01</totfact>
</mgrwt>
</event>
<event>
12    7  0.1701638E-007  0.1563805E+04  0.7818608E-02  0.8843098E-01
         -1   -1    0    0    0  501 -0.00000000000E+00  0.00000000000E+00  0.31629562250E+03  0.31629562250E+03  0.00000000000E+00 0.  1.
          2   -1    0    0  501    0  0.00000000000E+00 -0.00000000000E+00 -0.19329124108E+04  0.19329124108E+04  0.00000000000E+00 0. -1.
         24    2    1    2    0    0 -0.20139056680E+03  0.33886439618E+03 -0.10331227385E+04  0.11081609442E+04  0.72738201725E+02 0.  0.
        254    2    1    2    0    0  0.20139056680E+03 -0.33886439618E+03 -0.58349404982E+03  0.11410470891E+04  0.89785071926E+03 0.  0.
         23    2    4    4    0    0  0.52572301626E+03 -0.33543141347E+03 -0.29329967818E+03  0.69504960144E+03  0.90389846115E+02 0.  0.
         23    2    4    4    0    0 -0.32433244946E+03 -0.34329827083E+01 -0.29019437164E+03  0.44599748770E+03  0.97455951892E+02 0.  0.
          2    1    3    3  502    0 -0.20378632361E+03  0.30615111629E+03 -0.93672409221E+03  0.10063346345E+04  0.00000000000E+00 0. -1.
         -1    1    3    3    0  502  0.23957568184E+01  0.32713279893E+02 -0.96398646276E+02  0.10182630965E+03  0.00000000000E+00 0.  1.
         13    1    5    5    0    0  0.78264192670E+02 -0.88839555149E+02 -0.41474377550E+02  0.12545068516E+03  0.00000000000E+00 0.  1.
        -13    1    5    5    0    0  0.44745882359E+03 -0.24659185832E+03 -0.25182530063E+03  0.56959891629E+03  0.00000000000E+00 0. -1.
          4    1    6    6  503    0 -0.11815015986E+03 -0.46174882457E+02 -0.90767162427E+02  0.15598159449E+03  0.00000000000E+00 0. -1.
         -4    1    6    6    0  503 -0.20618228960E+03  0.42741899749E+02 -0.19942720921E+03  0.29001589321E+03  0.00000000000E+00 0.  1.
<mgrwt>
<rscale>  0 0.15638053E+04</rscale>
<asrwt>0</asrwt>
<pdfrwt beam="1">  1        2 0.29737113E+00 0.15638053E+04</pdfrwt>
<pdfrwt beam="2">  1       -1 0.48660866E-01 0.15638053E+04</pdfrwt>
<totfact> 0.33709537E+01</totfact>
</mgrwt>
</event>
<event>
12    7  0.1701638E-007  0.1578163E+04  0.7818608E-02  0.8834077E-01
         -1   -1    0    0    0  501 -0.00000000000E+00  0.00000000000E+00  0.55156612423E+03  0.55156612423E+03  0.00000000000E+00 0.  1.
          2   -1    0    0  501    0  0.00000000000E+00 -0.00000000000E+00 -0.11288753948E+04  0.11288753948E+04  0.00000000000E+00 0. -1.
         24    2    1    2    0    0  0.42368596143E+03  0.17555324879E+03 -0.49234311665E+03  0.67761077344E+03  0.80161578666E+02 0.  0.
        254    2    1    2    0    0 -0.42368596143E+03 -0.17555324879E+03 -0.84966153914E+02  0.10028307456E+04  0.88776208519E+03 0.  0.
         23    2    4    4    0    0 -0.21764641061E+03 -0.11778307000E+03 -0.47816935875E+03  0.54595568736E+03  0.90437079131E+02 0.  0.
         23    2    4    4    0    0 -0.20603955082E+03 -0.57770178796E+02  0.39320320484E+03  0.45687505822E+03  0.91303715529E+02 0.  0.
          2    1    3    3  502    0  0.43932753216E+02  0.13300365623E+02 -0.90122701092E+02  0.10113895285E+03  0.00000000000E+00 0. -1.
         -1    1    3    3    0  502  0.37975320821E+03  0.16225288317E+03 -0.40222041556E+03  0.57647182059E+03  0.00000000000E+00 0.  1.
         13    1    5    5    0    0 -0.16516690915E+02 -0.13455135700E+02 -0.58351402641E+01  0.22088246136E+02  0.00000000000E+00 0. -1.
        -13    1    5    5    0    0 -0.20112971969E+03 -0.10432793430E+03 -0.47233421849E+03  0.52386744122E+03  0.00000000000E+00 0.  1.
          3    1    6    6  503    0 -0.60108936462E+02  0.21682903964E+02  0.80608787639E+02  0.10286403264E+03  0.00000000000E+00 0. -1.
         -3    1    6    6    0  503 -0.14593061436E+03 -0.79453082760E+02  0.31259441720E+03  0.35401102558E+03  0.00000000000E+00 0.  1.
<mgrwt>
<rscale>  0 0.15781628E+04</rscale>
<asrwt>0</asrwt>
<pdfrwt beam="1">  1        2 0.17367314E+00 0.15781628E+04</pdfrwt>
<pdfrwt beam="2">  1       -1 0.84856328E-01 0.15781628E+04</pdfrwt>
<totfact> 0.31486504E+01</totfact>
</mgrwt>
</event>
<event>
12    7  0.1701638E-007  0.2337953E+04  0.7818608E-02  0.8463105E-01
          2   -1    0    0  501    0  0.00000000000E+00  0.00000000000E+00  0.24061148184E+04  0.24061148184E+04  0.00000000000E+00 0. -1.
         -1   -1    0    0    0  501 -0.00000000000E+00 -0.00000000000E+00 -0.56793067282E+03  0.56793067282E+03  0.00000000000E+00 0.  1.
         24    2    1    2    0    0  0.43648857633E+02 -0.78474145917E+02  0.20485740828E+04  0.20520553109E+04  0.78815047430E+02 0.  0.
        254    2    1    2    0    0 -0.43648857633E+02  0.78474145917E+02 -0.21038993720E+03  0.92199018038E+03  0.89316210885E+03 0.  0.
         23    2    4    4    0    0  0.27340684678E+02  0.36915453789E+03 -0.40367679870E+03  0.55513941495E+03  0.90566143437E+02 0.  0.
         23    2    4    4    0    0 -0.70989542312E+02 -0.29068039198E+03  0.19328686149E+03  0.36685076543E+03  0.87664518908E+02 0.  0.
          4    1    3    3  502    0 -0.94679614104E+01 -0.54344743037E+02  0.13187033191E+04  0.13198565972E+04  0.00000000000E+00 0. -1.
         -3    1    3    3    0  502  0.53116819044E+02 -0.24129402879E+02  0.72987076371E+03  0.73219871365E+03  0.00000000000E+00 0.  1.
         13    1    5    5    0    0  0.33295615160E+02  0.11023177175E+03 -0.78204112114E+02  0.13919599363E+03  0.00000000000E+00 0. -1.
        -13    1    5    5    0    0 -0.59549304815E+01  0.25892276615E+03 -0.32547268658E+03  0.41594342132E+03  0.00000000000E+00 0.  1.
          2    1    6    6  503    0 -0.29435368545E+02 -0.24038166797E+03  0.12548763666E+03  0.27275801395E+03  0.00000000000E+00 0. -1.
         -2    1    6    6    0  503 -0.41554173766E+02 -0.50298724005E+02  0.67799224835E+02  0.94092751486E+02  0.00000000000E+00 0.  1.
<mgrwt>
<rscale>  0 0.23379533E+04</rscale>
<asrwt>0</asrwt>
<pdfrwt beam="1">  1        2 0.37017150E+00 0.23379533E+04</pdfrwt>
<pdfrwt beam="2">  1       -1 0.87373951E-01 0.23379533E+04</pdfrwt>
<totfact> 0.52275119E+00</totfact>
</mgrwt>
</event>
<event>
12    7  0.1701638E-007  0.1596942E+04  0.7818608E-02  0.8822429E-01
         -1   -1    0    0    0  501 -0.00000000000E+00  0.00000000000E+00  0.14830857143E+04  0.14830857143E+04  0.00000000000E+00 0.  1.
          2   -1    0    0  501    0  0.00000000000E+00 -0.00000000000E+00 -0.42988454898E+03  0.42988454898E+03  0.00000000000E+00 0. -1.
         24    2    1    2    0    0  0.99275799278E+01  0.19016001396E+03  0.96256591954E+03  0.98445617079E+03  0.79758479198E+02 0.  0.
        254    2    1    2    0    0 -0.99275799278E+01 -0.19016001396E+03  0.90635245817E+02  0.92851409251E+03  0.90424791095E+03 0.  0.
         23    2    4    4    0    0  0.37926865996E+03 -0.14135476208E+03 -0.17077618198E+03  0.44864437679E+03  0.91057055216E+02 0.  0.
         23    2    4    4    0    0 -0.38919623988E+03 -0.48805251883E+02  0.26141142779E+03  0.47986971573E+03  0.89907417614E+02 0.  0.
          4    1    3    3  502    0 -0.24954576979E+01  0.54705324080E+02  0.13333035132E+03  0.14413841395E+03  0.00000000000E+00 0. -1.
         -3    1    3    3    0  502  0.12423037626E+02  0.13545468988E+03  0.82923556821E+03  0.84031775684E+03  0.00000000000E+00 0.  1.
         13    1    5    5    0    0  0.50840517741E+02  0.40311497017E+01 -0.13405133570E+00  0.51000258645E+02  0.00000000000E+00 0. -1.
        -13    1    5    5    0    0  0.32842814221E+03 -0.14538591178E+03 -0.17064213064E+03  0.39764411814E+03  0.00000000000E+00 0.  1.
          2    1    6    6  503    0 -0.35038840885E+03 -0.14704496799E+02  0.23054856442E+03  0.41969143408E+03  0.00000000000E+00 0.  1.
         -2    1    6    6    0  503 -0.38807831034E+02 -0.34100755084E+02  0.30862863374E+02  0.60178281651E+02  0.00000000000E+00 0. -1.
<mgrwt>
<rscale>  0 0.15969416E+04</rscale>
<asrwt>0</asrwt>
<pdfrwt beam="1">  1        2 0.66136085E-01 0.15969416E+04</pdfrwt>
<pdfrwt beam="2">  1       -1 0.22816703E+00 0.15969416E+04</pdfrwt>
<totfact> 0.78029150E+00</totfact>
</mgrwt>
</event>
<event>
12    7  0.1701638E-007  0.2071823E+04  0.7818608E-02  0.8573758E-01
         -1   -1    0    0    0  501 -0.00000000000E+00  0.00000000000E+00  0.47530996527E+03  0.47530996527E+03  0.00000000000E+00 0.  1.
          2   -1    0    0  501    0  0.00000000000E+00 -0.00000000000E+00 -0.22577106110E+04  0.22577106110E+04  0.00000000000E+00 0. -1.
         24    2    1    2    0    0  0.76589856916E+03  0.30066594021E+03 -0.40429316761E+03  0.92023419696E+03  0.79858537646E+02 0.  0.
        254    2    1    2    0    0 -0.76589856916E+03 -0.30066594021E+03 -0.13781074782E+04  0.18127863794E+04  0.84262305332E+03 0.  0.
         23    2    4    4    0    0 -0.71858590353E+03  0.11450069822E+03 -0.71856254832E+03  0.10267025825E+04  0.91158907762E+02 0.  0.
         23    2    4    4    0    0 -0.47312665627E+02 -0.41516663843E+03 -0.65954492985E+03  0.78608379684E+03  0.91249083170E+02 0.  0.
          2    1    3    3  502    0  0.28005880202E+03  0.73201676505E+02 -0.12313314767E+03  0.31456825982E+03  0.00000000000E+00 0. -1.
         -1    1    3    3    0  502  0.48583976714E+03  0.22746426370E+03 -0.28116001994E+03  0.60566593714E+03  0.00000000000E+00 0.  1.
         13    1    5    5    0    0 -0.11172093932E+03 -0.14725417622E+02 -0.11878577917E+03  0.16373291526E+03  0.00000000000E+00 0. -1.
        -13    1    5    5    0    0 -0.60686496421E+03  0.12922611584E+03 -0.59977676914E+03  0.86296966726E+03  0.00000000000E+00 0.  1.
          1    1    6    6  503    0 -0.32615003614E+02 -0.20513396783E+03 -0.40977270494E+03  0.45940978759E+03  0.00000000000E+00 0. -1.
         -1    1    6    6    0  503 -0.14697662013E+02 -0.21003267060E+03 -0.24977222491E+03  0.32667400925E+03  0.00000000000E+00 0.  1.
<mgrwt>
<rscale>  0 0.20718227E+04</rscale>
<asrwt>0</asrwt>
<pdfrwt beam="1">  1        2 0.34734010E+00 0.20718227E+04</pdfrwt>
<pdfrwt beam="2">  1       -1 0.73124609E-01 0.20718227E+04</pdfrwt>
<totfact> 0.94950171E+00</totfact>
</mgrwt>
</event>
<event>
12    7  0.1701638E-007  0.3291660E+04  0.7818608E-02  0.8165021E-01
          2   -1    0    0  501    0  0.00000000000E+00  0.00000000000E+00  0.14098424342E+04  0.14098424342E+04  0.00000000000E+00 0. -1.
         -1   -1    0    0    0  501 -0.00000000000E+00 -0.00000000000E+00 -0.19213185412E+04  0.19213185412E+04  0.00000000000E+00 0.  1.
         24    2    1    2    0    0  0.19762086333E+03  0.51885211207E+01 -0.17710438122E+04  0.17840514721E+04  0.84631813988E+02 0.  0.
        254    2    1    2    0    0 -0.19762086333E+03 -0.51885211207E+01  0.12595677052E+04  0.15471095033E+04  0.87633103604E+03 0.  0.
         23    2    4    4    0    0 -0.11911737233E+03 -0.40844762561E+03  0.87452998101E+03  0.97670178717E+03  0.90140346782E+02 0.  0.
         23    2    4    4    0    0 -0.78503491001E+02  0.40325910449E+03  0.38503772422E+03  0.57040771612E+03  0.91269984545E+02 0.  0.
          2    1    3    3  502    0  0.15680588408E+03  0.13003240890E+02 -0.10407967582E+04  0.10526229436E+04  0.00000000000E+00 0. -1.
         -1    1    3    3    0  502  0.40814979257E+02 -0.78147197695E+01 -0.73024705401E+03  0.73142852847E+03  0.00000000000E+00 0.  1.
         13    1    5    5    0    0 -0.11267644567E+03 -0.24071393904E+03  0.57175201262E+03  0.63050737172E+03  0.00000000000E+00 0. -1.
        -13    1    5    5    0    0 -0.64409266563E+01 -0.16773368657E+03  0.30277796840E+03  0.34619441546E+03  0.00000000000E+00 0.  1.
          4    1    6    6  503    0  0.13888433758E+02  0.29749342140E+02  0.52153488698E+02  0.61627090904E+02  0.00000000000E+00 0. -1.
         -4    1    6    6    0  503 -0.92391924759E+02  0.37350976235E+03  0.33288423552E+03  0.50878062521E+03  0.00000000000E+00 0.  1.
<mgrwt>
<rscale>  0 0.32916600E+04</rscale>
<asrwt>0</asrwt>
<pdfrwt beam="1">  1        2 0.21689884E+00 0.32916600E+04</pdfrwt>
<pdfrwt beam="2">  1       -1 0.29558747E+00 0.32916600E+04</pdfrwt>
<totfact> 0.47946149E-01</totfact>
</mgrwt>
</event>
<event>
12    7  0.1701638E-007  0.1984435E+04  0.7818608E-02  0.8613932E-01
         -1   -1    0    0    0  501 -0.00000000000E+00  0.00000000000E+00  0.19084922901E+04  0.19084922901E+04  0.00000000000E+00 0.  1.
          2   -1    0    0  501    0  0.00000000000E+00 -0.00000000000E+00 -0.51585007276E+03  0.51585007276E+03  0.00000000000E+00 0. -1.
         24    2    1    2    0    0  0.27123443932E+03  0.20464907891E+03 -0.31507911765E+03  0.47010290938E+03  0.79199295810E+02 0.  0.
        254    2    1    2    0    0 -0.27123443932E+03 -0.20464907891E+03  0.17077213350E+04  0.19542394535E+04  0.88729381662E+03 0.  0.
         23    2    4    4    0    0  0.16547669760E+03 -0.67306347739E+02  0.23570547231E+02  0.20661247771E+03  0.10109630732E+03 0.  0.
         23    2    4    4    0    0 -0.43671113692E+03 -0.13734273117E+03  0.16841507878E+04  0.17476269758E+04  0.90865437024E+02 0.  0.
          4    1    3    3  502    0  0.18938946843E+03  0.97296485673E+02 -0.17552756125E+03  0.27594365663E+03  0.00000000000E+00 0. -1.
         -3    1    3    3    0  502  0.81844970894E+02  0.10735259324E+03 -0.13955155640E+03  0.19415925275E+03  0.00000000000E+00 0.  1.
         13    1    5    5    0    0  0.74350444619E+02 -0.16412200636E+02  0.59068198782E+02  0.96365974556E+02  0.00000000000E+00 0. -1.
        -13    1    5    5    0    0  0.91126252980E+02 -0.50894147103E+02 -0.35497651551E+02  0.11024650315E+03  0.00000000000E+00 0.  1.
          2    1    6    6  503    0 -0.13121596215E+03  0.13229771166E+01  0.47956119605E+03  0.49719042605E+03  0.00000000000E+00 0. -1.
         -2    1    6    6    0  503 -0.30549517477E+03 -0.13866570829E+03  0.12045895917E+04  0.12504365497E+04  0.00000000000E+00 0.  1.
<mgrwt>
<rscale>  0 0.19844353E+04</rscale>
<asrwt>0</asrwt>
<pdfrwt beam="1">  1        2 0.79361551E-01 0.19844353E+04</pdfrwt>
<pdfrwt beam="2">  1       -1 0.29361419E+00 0.19844353E+04</pdfrwt>
<totfact> 0.22934380E+00</totfact>
</mgrwt>
</event>
<event>
12    7  0.1701638E-007  0.1390829E+04  0.7818608E-02  0.8960484E-01
         -1   -1    0    0    0  501 -0.00000000000E+00  0.00000000000E+00  0.85394161844E+03  0.85394161844E+03  0.00000000000E+00 0.  1.
          2   -1    0    0  501    0  0.00000000000E+00 -0.00000000000E+00 -0.56631686984E+03  0.56631686984E+03  0.00000000000E+00 0. -1.
         24    2    1    2    0    0  0.23034922986E+01 -0.22046734268E+03  0.40700730726E+03  0.47209169639E+03  0.92760262901E+02 0.  0.
        254    2    1    2    0    0 -0.23034922986E+01  0.22046734268E+03 -0.11938255866E+03  0.94816679189E+03  0.91441616055E+03 0.  0.
         23    2    4    4    0    0  0.42570884053E+03  0.24149421940E+03 -0.11014046157E+03  0.51004260527E+03  0.92005777029E+02 0.  0.
         23    2    4    4    0    0 -0.42801233283E+03 -0.21026876719E+02 -0.92420970906E+01  0.43812418662E+03  0.90723205116E+02 0.  0.
          2    1    3    3  502    0  0.40514189749E+00 -0.15592627640E+03  0.19058876283E+03  0.24624630825E+03  0.00000000000E+00 0. -1.
         -1    1    3    3    0  502  0.18983504011E+01 -0.64541066289E+02  0.21641854442E+03  0.22584538814E+03  0.00000000000E+00 0.  1.
         13    1    5    5    0    0  0.37346689970E+03  0.24252147063E+03 -0.10518112965E+03  0.45755574406E+03  0.00000000000E+00 0.  1.
        -13    1    5    5    0    0  0.52241940833E+02 -0.10272512243E+01 -0.49593319163E+01  0.52486861214E+02  0.00000000000E+00 0. -1.
          1    1    6    6  503    0 -0.30290530797E+03 -0.89718427745E+01 -0.47512787657E+02  0.30674025584E+03  0.00000000000E+00 0. -1.
         -1    1    6    6    0  503 -0.12510702486E+03 -0.12055033945E+02  0.38270690566E+02  0.13138393078E+03  0.00000000000E+00 0.  1.
<mgrwt>
<rscale>  0 0.13908293E+04</rscale>
<asrwt>0</asrwt>
<pdfrwt beam="1">  1        2 0.87125672E-01 0.13908293E+04</pdfrwt>
<pdfrwt beam="2">  1       -1 0.13137563E+00 0.13908293E+04</pdfrwt>
<totfact> 0.29233533E+01</totfact>
</mgrwt>
</event>
<event>
12    7  0.1701638E-007  0.2581202E+04  0.7818608E-02  0.8374615E-01
          2   -1    0    0  501    0  0.00000000000E+00  0.00000000000E+00  0.16587303861E+04  0.16587303861E+04  0.00000000000E+00 0. -1.
         -1   -1    0    0    0  501 -0.00000000000E+00 -0.00000000000E+00 -0.10041718668E+04  0.10041718668E+04  0.00000000000E+00 0.  1.
         24    2    1    2    0    0 -0.21775126710E+03  0.78528833624E+03  0.11078819456E+04  0.13777209339E+04  0.81358347627E+02 0.  0.
        254    2    1    2    0    0  0.21775126710E+03 -0.78528833624E+03 -0.45332342636E+03  0.12851813191E+04  0.88436163905E+03 0.  0.
         23    2    4    4    0    0  0.38109521821E+03 -0.81209137992E+03 -0.56671638347E+03  0.10652441137E+04  0.94082877393E+02 0.  0.
         23    2    4    4    0    0 -0.16334395111E+03  0.26803043687E+02  0.11339295711E+03  0.21993720535E+03  0.90081974113E+02 0.  0.
          2    1    3    3  502    0 -0.25117468017E+02  0.12092816496E+03  0.21869995730E+03  0.25116564176E+03  0.00000000000E+00 0. -1.
         -1    1    3    3    0  502 -0.19263379908E+03  0.66436017128E+03  0.88918198835E+03  0.11265552921E+04  0.00000000000E+00 0.  1.
         13    1    5    5    0    0  0.29073078174E+03 -0.51601888073E+03 -0.36305783856E+03  0.69470199860E+03  0.00000000000E+00 0.  1.
        -13    1    5    5    0    0  0.90364436476E+02 -0.29607249920E+03 -0.20365854490E+03  0.37054211511E+03  0.00000000000E+00 0. -1.
          1    1    6    6  503    0 -0.84649974826E+01 -0.18611008707E+02 -0.33812647599E+01  0.20723387243E+02  0.00000000000E+00 0. -1.
         -1    1    6    6    0  503 -0.15487895363E+03  0.45414052394E+02  0.11677422187E+03  0.19921381811E+03  0.00000000000E+00 0.  1.
<mgrwt>
<rscale>  0 0.25812016E+04</rscale>
<asrwt>0</asrwt>
<pdfrwt beam="1">  1        2 0.25518929E+00 0.25812016E+04</pdfrwt>
<pdfrwt beam="2">  1       -1 0.15448798E+00 0.25812016E+04</pdfrwt>
<totfact> 0.33589030E+00</totfact>
</mgrwt>
</event>
<event>
12    7  0.1701638E-007  0.1207027E+04  0.7818608E-02  0.9106728E-01
         -1   -1    0    0    0  501 -0.00000000000E+00  0.00000000000E+00  0.14927342389E+03  0.14927342389E+03  0.00000000000E+00 0.  1.
          2   -1    0    0  501    0  0.00000000000E+00 -0.00000000000E+00 -0.24400104686E+04  0.24400104686E+04  0.00000000000E+00 0. -1.
         24    2    1    2    0    0 -0.97322152902E+02 -0.20419894291E+03 -0.84477655058E+03  0.87805850404E+03  0.78552570759E+02 0.  0.
        254    2    1    2    0    0  0.97322152902E+02  0.20419894291E+03 -0.14459604941E+04  0.17112253884E+04  0.88674786142E+03 0.  0.
         23    2    4    4    0    0 -0.82562797214E+02 -0.22052754463E+03 -0.76779739363E+02  0.26379041587E+03  0.90781284984E+02 0.  0.
         23    2    4    4    0    0  0.17988495012E+03  0.42472648753E+03 -0.13691807547E+04  0.14474349725E+04  0.87526431051E+02 0.  0.
          2    1    3    3  502    0 -0.45814605310E+02 -0.10069072720E+03 -0.55787892026E+03  0.56874114523E+03  0.00000000000E+00 0. -1.
         -1    1    3    3    0  502 -0.51507547592E+02 -0.10350821571E+03 -0.28689763032E+03  0.30931735881E+03  0.00000000000E+00 0.  1.
         13    1    5    5    0    0 -0.26570059147E+02 -0.77800505477E+02  0.17157675192E+02  0.83983763392E+02  0.00000000000E+00 0.  1.
        -13    1    5    5    0    0 -0.55992738067E+02 -0.14272703915E+03 -0.93937414554E+02  0.17980665247E+03  0.00000000000E+00 0. -1.
          2    1    6    6  503    0 -0.93403236573E+01  0.15582441460E+02 -0.67829843426E+02  0.70220664957E+02  0.00000000000E+00 0. -1.
         -2    1    6    6    0  503  0.18922527377E+03  0.40914404607E+03 -0.13013509113E+04  0.13772143076E+04  0.00000000000E+00 0.  1.
<mgrwt>
<rscale>  0 0.12070273E+04</rscale>
<asrwt>0</asrwt>
<pdfrwt beam="1">  1        2 0.37538619E+00 0.12070273E+04</pdfrwt>
<pdfrwt beam="2">  1       -1 0.22965145E-01 0.12070273E+04</pdfrwt>
<totfact> 0.68979363E+01</totfact>
</mgrwt>
</event>
<event>
12    7  0.1701638E-007  0.3840552E+04  0.7818608E-02  0.8037508E-01
         -1   -1    0    0    0  501 -0.00000000000E+00  0.00000000000E+00  0.14333727592E+04  0.14333727592E+04  0.00000000000E+00 0.  1.
          2   -1    0    0  501    0  0.00000000000E+00 -0.00000000000E+00 -0.25725759445E+04  0.25725759445E+04  0.00000000000E+00 0. -1.
         24    2    1    2    0    0 -0.32564351280E+03  0.17128378510E+04 -0.10654036526E+04  0.20445256422E+04  0.71714414752E+02 0.  0.
        254    2    1    2    0    0  0.32564351280E+03 -0.17128378510E+04 -0.73799532662E+02  0.19614230615E+04  0.89547576964E+03 0.  0.
         23    2    4    4    0    0  0.41410524148E+03 -0.15222756825E+04  0.21269972299E+03  0.15944759890E+04  0.91137823889E+02 0.  0.
         23    2    4    4    0    0 -0.88461728680E+02 -0.19056216849E+03 -0.28649925565E+03  0.36694707247E+03  0.91809111778E+02 0.  0.
          4    1    3    3  502    0 -0.50227992615E+02  0.23856769119E+03 -0.12097517817E+03  0.27216242991E+03  0.00000000000E+00 0. -1.
         -3    1    3    3    0  502 -0.27541552019E+03  0.14742701598E+04 -0.94442847444E+03  0.17723632123E+04  0.00000000000E+00 0.  1.
         13    1    5    5    0    0  0.43267946172E+02 -0.79046151451E+02  0.12505345554E+02  0.90976881089E+02  0.00000000000E+00 0. -1.
        -13    1    5    5    0    0  0.37083729531E+03 -0.14432295310E+04  0.20019437743E+03  0.15034991080E+04  0.00000000000E+00 0.  1.
          3    1    6    6  503    0 -0.53148684331E+02 -0.24619569582E+02 -0.58851569674E+02  0.83032602667E+02  0.00000000000E+00 0. -1.
         -3    1    6    6    0  503 -0.35313044349E+02 -0.16594259890E+03 -0.22764768597E+03  0.28391446980E+03  0.00000000000E+00 0.  1.
<mgrwt>
<rscale>  0 0.38405522E+04</rscale>
<asrwt>0</asrwt>
<pdfrwt beam="1">  1        2 0.39578091E+00 0.38405522E+04</pdfrwt>
<pdfrwt beam="2">  1       -1 0.22051889E+00 0.38405522E+04</pdfrwt>
<totfact> 0.31307633E-01</totfact>
</mgrwt>
</event>
<event>
12    7  0.1701638E-007  0.2782425E+04  0.7818608E-02  0.8308745E-01
          2   -1    0    0  501    0  0.00000000000E+00  0.00000000000E+00  0.33267881693E+04  0.33267881693E+04  0.00000000000E+00 0. -1.
         -1   -1    0    0    0  501 -0.00000000000E+00 -0.00000000000E+00 -0.58178422293E+03  0.58178422293E+03  0.00000000000E+00 0.  1.
         24    2    1    2    0    0 -0.63872473288E+01 -0.99967742597E+03  0.18423149994E+03  0.10196531787E+04  0.79722056989E+02 0.  0.
        254    2    1    2    0    0  0.63872473288E+01  0.99967742597E+03  0.25607724464E+04  0.28889192135E+04  0.88820208673E+03 0.  0.
         23    2    4    4    0    0  0.40943624918E+02  0.68921410274E+03  0.24469677567E+04  0.25440648282E+04  0.89006674078E+02 0.  0.
         23    2    4    4    0    0 -0.34556377589E+02  0.31046332323E+03  0.11380468969E+03  0.34485438525E+03  0.91604701453E+02 0.  0.
          2    1    3    3  502    0 -0.42590347288E+02 -0.45347598492E+03  0.83679210957E+02  0.46309460905E+03  0.00000000000E+00 0. -1.
         -3    1    3    3    0  502  0.36203099960E+02 -0.54620144104E+03  0.10055228898E+03  0.55655856966E+03  0.00000000000E+00 0.  1.
         13    1    5    5    0    0  0.37613199264E+01  0.99090479453E+02  0.48038196254E+03  0.49050983740E+03  0.00000000000E+00 0. -1.
        -13    1    5    5    0    0  0.37182304992E+02  0.59012362329E+03  0.19665857942E+04  0.20535549908E+04  0.00000000000E+00 0.  1.
          3    1    6    6  503    0 -0.65374871463E+02  0.18271517709E+03  0.64508136005E+02  0.20449941166E+03  0.00000000000E+00 0. -1.
         -3    1    6    6    0  503  0.30818493874E+02  0.12774814614E+03  0.49296553684E+02  0.14035497359E+03  0.00000000000E+00 0.  1.
<mgrwt>
<rscale>  0 0.27824255E+04</rscale>
<asrwt>0</asrwt>
<pdfrwt beam="1">  1        2 0.51181355E+00 0.27824255E+04</pdfrwt>
<pdfrwt beam="2">  1       -1 0.89505267E-01 0.27824255E+04</pdfrwt>
<totfact> 0.12939352E+00</totfact>
</mgrwt>
</event>
<event>
12    7  0.1701638E-007  0.3325256E+04  0.7818608E-02  0.8156499E-01
          2   -1    0    0  501    0  0.00000000000E+00  0.00000000000E+00  0.24807659630E+04  0.24807659630E+04  0.00000000000E+00 0. -1.
         -1   -1    0    0    0  501 -0.00000000000E+00 -0.00000000000E+00 -0.11143058607E+04  0.11143058607E+04  0.00000000000E+00 0.  1.
         24    2    1    2    0    0 -0.52327937300E+03  0.14379369514E+03 -0.92364552012E+03  0.10743720777E+04  0.81586674620E+02 0.  0.
        254    2    1    2    0    0  0.52327937300E+03 -0.14379369514E+03  0.22901056224E+04  0.25206997461E+04  0.90268794111E+03 0.  0.
         23    2    4    4    0    0  0.73763939040E+03 -0.15062810908E+03  0.13131741550E+04  0.15164629985E+04  0.91831186643E+02 0.  0.
         23    2    4    4    0    0 -0.21436001740E+03  0.68344139398E+01  0.97693146739E+03  0.10042367476E+04  0.89996816236E+02 0.  0.
          4    1    3    3  502    0 -0.22472304247E+02  0.22918539267E+02 -0.75146077388E+02  0.81714116571E+02  0.00000000000E+00 0. -1.
         -3    1    3    3    0  502 -0.50080706875E+03  0.12087515587E+03 -0.84849944273E+03  0.99265796110E+03  0.00000000000E+00 0.  1.
         13    1    5    5    0    0  0.44736361112E+03 -0.46330731188E+02  0.79765545015E+03  0.91571554228E+03  0.00000000000E+00 0. -1.
        -13    1    5    5    0    0  0.29027577928E+03 -0.10429737789E+03  0.51551870486E+03  0.60074745620E+03  0.00000000000E+00 0.  1.
          1    1    6    6  503    0 -0.20875295650E+03  0.29956163729E+01  0.97509935851E+03  0.99719884152E+03  0.00000000000E+00 0. -1.
         -1    1    6    6    0  503 -0.56070609005E+01  0.38387975668E+01  0.18321088807E+01  0.70379060559E+01  0.00000000000E+00 0.  1.
<mgrwt>
<rscale>  0 0.33252561E+04</rscale>
<asrwt>0</asrwt>
<pdfrwt beam="1">  1        2 0.38165630E+00 0.33252561E+04</pdfrwt>
<pdfrwt beam="2">  1       -1 0.17143167E+00 0.33252561E+04</pdfrwt>
<totfact> 0.81242059E-01</totfact>
</mgrwt>
</event>
<event>
12    7  0.1701638E-007  0.1999790E+04  0.7818608E-02  0.8606719E-01
         -1   -1    0    0    0  501 -0.00000000000E+00  0.00000000000E+00  0.46063458328E+03  0.46063458328E+03  0.00000000000E+00 0.  1.
          2   -1    0    0  501    0  0.00000000000E+00 -0.00000000000E+00 -0.21704613345E+04  0.21704613345E+04  0.00000000000E+00 0. -1.
         24    2    1    2    0    0 -0.37006912800E+03 -0.21542703337E+02 -0.16182143529E+04  0.16621430657E+04  0.81771826498E+02 0.  0.
        254    2    1    2    0    0  0.37006912800E+03  0.21542703337E+02 -0.91612398399E+02  0.96895285209E+03  0.89054003305E+03 0.  0.
         23    2    4    4    0    0 -0.15090092070E+03  0.10211368283E+03 -0.32647767820E+03  0.38500430462E+03  0.91882251403E+02 0.  0.
         23    2    4    4    0    0  0.52097004871E+03 -0.80570979494E+02  0.23486527980E+03  0.58394854747E+03  0.89065885987E+02 0.  0.
          2    1    3    3  502    0 -0.28954504128E+03  0.15048265342E+02 -0.12936922781E+04  0.13257837274E+04  0.00000000000E+00 0. -1.
         -1    1    3    3    0  502 -0.80524086728E+02 -0.36590968680E+02 -0.32452207472E+03  0.33635933838E+03  0.00000000000E+00 0.  1.
         13    1    5    5    0    0 -0.15170005297E+03  0.84348407487E+02 -0.32328852363E+03  0.36693736444E+03  0.00000000000E+00 0.  1.
        -13    1    5    5    0    0  0.79913226648E+00  0.17765275344E+02 -0.31891545734E+01  0.18066940176E+02  0.00000000000E+00 0. -1.
          1    1    6    6  503    0  0.80719173830E+02  0.17579521015E+02  0.49349607864E+02  0.96228937328E+02  0.00000000000E+00 0. -1.
         -1    1    6    6    0  503  0.44025087488E+03 -0.98150500509E+02  0.18551567194E+03  0.48771961014E+03  0.00000000000E+00 0.  1.
<mgrwt>
<rscale>  0 0.19997895E+04</rscale>
<asrwt>0</asrwt>
<pdfrwt beam="1">  1        2 0.33391712E+00 0.19997895E+04</pdfrwt>
<pdfrwt beam="2">  1       -1 0.70866860E-01 0.19997895E+04</pdfrwt>
<totfact> 0.11415439E+01</totfact>
</mgrwt>
</event>
<event>
12    7  0.1701638E-007  0.1557153E+04  0.7818608E-02  0.8847312E-01
          2   -1    0    0  501    0  0.00000000000E+00  0.00000000000E+00  0.16621443379E+04  0.16621443379E+04  0.00000000000E+00 0. -1.
         -1   -1    0    0    0  501 -0.00000000000E+00 -0.00000000000E+00 -0.36469850033E+03  0.36469850033E+03  0.00000000000E+00 0.  1.
         24    2    1    2    0    0  0.19098200883E+03  0.90423286448E+02  0.10444278760E+04  0.10683254324E+04  0.76414284585E+02 0.  0.
        254    2    1    2    0    0 -0.19098200883E+03 -0.90423286448E+02  0.25301796161E+03  0.95851740589E+03  0.90004834874E+03 0.  0.
         23    2    4    4    0    0 -0.14554666035E+03 -0.38395249066E+03  0.42915142509E+03  0.60094767708E+03  0.91453920150E+02 0.  0.
         23    2    4    4    0    0 -0.45435348472E+02  0.29352920421E+03 -0.17613346348E+03  0.35756972881E+03  0.92786579785E+02 0.  0.
          2    1    3    3  502    0  0.18454679430E+03  0.99033910918E+02  0.10244406284E+04  0.10456308316E+04  0.00000000000E+00 0. -1.
         -1    1    3    3    0  502  0.64352145225E+01 -0.86106244692E+01  0.19987247565E+02  0.22694600788E+02  0.00000000000E+00 0.  1.
         13    1    5    5    0    0 -0.14185620932E+03 -0.35499758006E+03  0.42470806944E+03  0.57142226962E+03  0.00000000000E+00 0.  1.
        -13    1    5    5    0    0 -0.36904510338E+01 -0.28954910599E+02  0.44433556582E+01  0.29525407468E+02  0.00000000000E+00 0. -1.
          2    1    6    6  503    0 -0.31989854793E+02  0.54336203588E+02 -0.73773323381E+02  0.97047808181E+02  0.00000000000E+00 0. -1.
         -2    1    6    6    0  503 -0.13445493679E+02  0.23919300062E+03 -0.10236014010E+03  0.26052192063E+03  0.00000000000E+00 0.  1.
<mgrwt>
<rscale>  0 0.15571532E+04</rscale>
<asrwt>0</asrwt>
<pdfrwt beam="1">  1        2 0.25571451E+00 0.15571532E+04</pdfrwt>
<pdfrwt beam="2">  1       -1 0.56107463E-01 0.15571532E+04</pdfrwt>
<totfact> 0.36262206E+01</totfact>
</mgrwt>
</event>
<event>
12    7  0.1701638E-007  0.2741871E+04  0.7818608E-02  0.8321546E-01
          2   -1    0    0  501    0  0.00000000000E+00  0.00000000000E+00  0.29244900531E+04  0.29244900531E+04  0.00000000000E+00 0. -1.
         -1   -1    0    0    0  501 -0.00000000000E+00 -0.00000000000E+00 -0.64266388599E+03  0.64266388599E+03  0.00000000000E+00 0.  1.
         24    2    1    2    0    0  0.49399524416E+03 -0.79511084955E+03 -0.16775290059E+01  0.93944499332E+03  0.79507968311E+02 0.  0.
        254    2    1    2    0    0 -0.49399524416E+03  0.79511084955E+03  0.22835036961E+04  0.26277089458E+04  0.90234838570E+03 0.  0.
         23    2    4    4    0    0  0.77627147849E+02  0.59211927660E+03  0.15971684388E+04  0.17074536844E+04  0.88429919924E+02 0.  0.
         23    2    4    4    0    0 -0.57162239201E+03  0.20299157296E+03  0.68633525733E+03  0.92025526137E+03  0.88633644173E+02 0.  0.
          2    1    3    3  502    0  0.11720912177E+03 -0.17663403309E+03 -0.33096744772E+02  0.21455291745E+03  0.00000000000E+00 0. -1.
         -1    1    3    3    0  502  0.37678612239E+03 -0.61847681646E+03  0.31419215766E+02  0.72489207586E+03  0.00000000000E+00 0.  1.
         13    1    5    5    0    0 -0.16676742422E+02  0.18677430610E+03  0.49154791617E+03  0.52610085445E+03  0.00000000000E+00 0.  1.
        -13    1    5    5    0    0  0.94303890271E+02  0.40534497050E+03  0.11056205226E+04  0.11813528299E+04  0.00000000000E+00 0. -1.
          3    1    6    6  503    0 -0.51795096529E+03  0.16530303329E+03  0.57729326165E+03  0.79301059590E+03  0.00000000000E+00 0. -1.
         -3    1    6    6    0  503 -0.53671426721E+02  0.37688539667E+02  0.10904199568E+03  0.12724466547E+03  0.00000000000E+00 0.  1.
<mgrwt>
<rscale>  0 0.27418710E+04</rscale>
<asrwt>0</asrwt>
<pdfrwt beam="1">  1        2 0.44992154E+00 0.27418710E+04</pdfrwt>
<pdfrwt beam="2">  1       -1 0.98871369E-01 0.27418710E+04</pdfrwt>
<totfact> 0.18855732E+00</totfact>
</mgrwt>
</event>
<event>
12    7  0.1701638E-007  0.1392195E+04  0.7818608E-02  0.8959488E-01
         -1   -1    0    0    0  501 -0.00000000000E+00  0.00000000000E+00  0.43592688280E+03  0.43592688280E+03  0.00000000000E+00 0.  1.
          2   -1    0    0  501    0  0.00000000000E+00 -0.00000000000E+00 -0.11115436034E+04  0.11115436034E+04  0.00000000000E+00 0. -1.
         24    2    1    2    0    0  0.16775925466E+03 -0.19513676929E+03  0.14044500229E+03  0.30358569540E+03  0.78853975984E+02 0.  0.
        254    2    1    2    0    0 -0.16775925466E+03  0.19513676929E+03 -0.81606172292E+03  0.12438847908E+04  0.90281288815E+03 0.  0.
         23    2    4    4    0    0  0.21704569985E+03  0.39391613320E+03 -0.58739937940E+03  0.74562635249E+03  0.92961662998E+02 0.  0.
         23    2    4    4    0    0 -0.38480495451E+03 -0.19877936391E+03 -0.22866234352E+03  0.49825843835E+03  0.91580104314E+02 0.  0.
          4    1    3    3  502    0  0.66487073668E+02 -0.51781310777E+02  0.99207974615E+01  0.84854330078E+02  0.00000000000E+00 0. -1.
         -3    1    3    3    0  502  0.10127218099E+03 -0.14335545851E+03  0.13052420483E+03  0.21873136532E+03  0.00000000000E+00 0.  1.
         13    1    5    5    0    0  0.23796638381E+02  0.90165117712E+02 -0.76458190999E+02  0.12058973182E+03  0.00000000000E+00 0. -1.
        -13    1    5    5    0    0  0.19324906147E+03  0.30375101549E+03 -0.51094118840E+03  0.62503662067E+03  0.00000000000E+00 0.  1.
          3    1    6    6  503    0 -0.91392426671E+02 -0.26345305683E+02 -0.89414069733E+02  0.13054319841E+03  0.00000000000E+00 0. -1.
         -3    1    6    6    0  503 -0.29341252784E+03 -0.17243405822E+03 -0.13924827378E+03  0.36771523994E+03  0.00000000000E+00 0.  1.
<mgrwt>
<rscale>  0 0.13921950E+04</rscale>
<asrwt>0</asrwt>
<pdfrwt beam="1">  1        2 0.17100671E+00 0.13921950E+04</pdfrwt>
<pdfrwt beam="2">  1       -1 0.67065675E-01 0.13921950E+04</pdfrwt>
<totfact> 0.53615158E+01</totfact>
</mgrwt>
</event>
<event>
12    7  0.1701638E-007  0.1772871E+04  0.7818608E-02  0.8720861E-01
          2   -1    0    0  501    0  0.00000000000E+00  0.00000000000E+00  0.25690281554E+03  0.25690281554E+03  0.00000000000E+00 0. -1.
         -1   -1    0    0    0  501 -0.00000000000E+00 -0.00000000000E+00 -0.30586203349E+04  0.30586203349E+04  0.00000000000E+00 0.  1.
         24    2    1    2    0    0  0.63004382866E+03 -0.17726644863E+03 -0.92622236657E+03  0.11369309865E+04  0.79659122959E+02 0.  0.
        254    2    1    2    0    0 -0.63004382866E+03  0.17726644863E+03 -0.18754951528E+04  0.21785921640E+04  0.89465251848E+03 0.  0.
         23    2    4    4    0    0  0.20583215319E+03 -0.39094782299E+02 -0.51987962619E+03  0.56879044409E+03  0.96708149927E+02 0.  0.
         23    2    4    4    0    0 -0.83587598186E+03  0.21636123093E+03 -0.13556155266E+04  0.16098017199E+04  0.90924595224E+02 0.  0.
          4    1    3    3  502    0  0.46774409552E+03 -0.12789684356E+03 -0.62294601023E+03  0.78943262736E+03  0.00000000000E+00 0. -1.
         -3    1    3    3    0  502  0.16229973315E+03 -0.49369605068E+02 -0.30327635634E+03  0.34749835913E+03  0.00000000000E+00 0.  1.
         13    1    5    5    0    0  0.10022453429E+03  0.26898223815E+02 -0.19561979252E+03  0.22143977724E+03  0.00000000000E+00 0.  1.
        -13    1    5    5    0    0  0.10560761891E+03 -0.65993006115E+02 -0.32425983367E+03  0.34735066685E+03  0.00000000000E+00 0. -1.
          1    1    6    6  503    0 -0.31720072110E+03  0.12706381476E+03 -0.51733832231E+03  0.62000036308E+03  0.00000000000E+00 0. -1.
         -1    1    6    6    0  503 -0.51867526075E+03  0.89297416162E+02 -0.83827720429E+03  0.98980135678E+03  0.00000000000E+00 0.  1.
<mgrwt>
<rscale>  0 0.17728713E+04</rscale>
<asrwt>0</asrwt>
<pdfrwt beam="1">  1        2 0.39523509E-01 0.17728713E+04</pdfrwt>
<pdfrwt beam="2">  1       -1 0.47055698E+00 0.17728713E+04</pdfrwt>
<totfact> 0.33100293E-01</totfact>
</mgrwt>
</event>
<event>
12    7  0.1701638E-007  0.2427804E+04  0.7818608E-02  0.8429167E-01
         -1   -1    0    0    0  501 -0.00000000000E+00  0.00000000000E+00  0.13173190406E+04  0.13173190406E+04  0.00000000000E+00 0.  1.
          2   -1    0    0  501    0  0.00000000000E+00 -0.00000000000E+00 -0.11186037549E+04  0.11186037549E+04  0.00000000000E+00 0. -1.
         24    2    1    2    0    0  0.76830720178E+03 -0.41110797939E+03  0.66659249124E+03  0.11000766232E+04  0.80729799989E+02 0.  0.
        254    2    1    2    0    0 -0.76830720178E+03  0.41110797939E+03 -0.46787720555E+03  0.13358461722E+04  0.89792549209E+03 0.  0.
         23    2    4    4    0    0  0.14032713834E+03 -0.15052788210E+02  0.83166344949E+02  0.18720386722E+03  0.90611008073E+02 0.  0.
         23    2    4    4    0    0 -0.90863434012E+03  0.42616076760E+03 -0.55104355049E+03  0.11486423050E+04  0.92199709365E+02 0.  0.
          2    1    3    3  502    0  0.44474997847E+03 -0.27200656680E+03  0.43008845831E+03  0.67584480297E+03  0.00000000000E+00 0. -1.
         -1    1    3    3    0  502  0.32355722331E+03 -0.13910141259E+03  0.23650403293E+03  0.42423182028E+03  0.00000000000E+00 0.  1.
         13    1    5    5    0    0  0.16689711013E+02 -0.37136616030E+02  0.31150650232E+02  0.51264390309E+02  0.00000000000E+00 0. -1.
        -13    1    5    5    0    0  0.12363742733E+03  0.22083827820E+02  0.52015694718E+02  0.13593947691E+03  0.00000000000E+00 0.  1.
          1    1    6    6  503    0 -0.70056395067E+02  0.56585188974E+02 -0.32756500641E+02  0.95826773061E+02  0.00000000000E+00 0. -1.
         -1    1    6    6    0  503 -0.83857794505E+03  0.36957557863E+03 -0.51828704985E+03  0.10528155319E+04  0.00000000000E+00 0.  1.
<mgrwt>
<rscale>  0 0.24278040E+04</rscale>
<asrwt>0</asrwt>
<pdfrwt beam="1">  1        2 0.17209289E+00 0.24278040E+04</pdfrwt>
<pdfrwt beam="2">  1       -1 0.20266447E+00 0.24278040E+04</pdfrwt>
<totfact> 0.31309445E+00</totfact>
</mgrwt>
</event>
<event>
12    7  0.1701638E-007  0.1787464E+04  0.7818608E-02  0.8712994E-01
         -1   -1    0    0    0  501 -0.00000000000E+00  0.00000000000E+00  0.55564473330E+03  0.55564473330E+03  0.00000000000E+00 0.  1.
          2   -1    0    0  501    0  0.00000000000E+00 -0.00000000000E+00 -0.14375318907E+04  0.14375318907E+04  0.00000000000E+00 0. -1.
         24    2    1    2    0    0  0.53679143075E+03  0.70509134720E+02  0.98489127976E+02  0.55543913839E+03  0.75471517251E+02 0.  0.
        254    2    1    2    0    0 -0.53679143075E+03 -0.70509134720E+02 -0.98037628536E+03  0.14377374856E+04  0.90157353465E+03 0.  0.
         23    2    4    4    0    0 -0.37951036055E+03 -0.21102308005E+02 -0.11308528031E+04  0.11970029719E+04  0.97542970948E+02 0.  0.
         23    2    4    4    0    0 -0.15728107021E+03 -0.49406826714E+02  0.15047651775E+03  0.24073451374E+03  0.90175130393E+02 0.  0.
          2    1    3    3  502    0  0.33236143303E+03  0.20440178924E+02  0.89350587619E+02  0.34476869143E+03  0.00000000000E+00 0. -1.
         -1    1    3    3    0  502  0.20442999772E+03  0.50068955796E+02  0.91385403572E+01  0.21067044696E+03  0.00000000000E+00 0.  1.
         13    1    5    5    0    0 -0.23586872281E+02  0.23845338653E+02 -0.10535122613E+03  0.11056139275E+03  0.00000000000E+00 0. -1.
        -13    1    5    5    0    0 -0.35592348826E+03 -0.44947646658E+02 -0.10255015770E+04  0.10864415791E+04  0.00000000000E+00 0.  1.
          4    1    6    6  503    0  0.60695663188E+01 -0.21135950818E+02  0.14716012057E+02  0.26459952062E+02  0.00000000000E+00 0. -1.
         -4    1    6    6    0  503 -0.16335063653E+03 -0.28270875896E+02  0.13576050569E+03  0.21427456168E+03  0.00000000000E+00 0.  1.
<mgrwt>
<rscale>  0 0.17874642E+04</rscale>
<asrwt>0</asrwt>
<pdfrwt beam="1">  1        2 0.22115875E+00 0.17874642E+04</pdfrwt>
<pdfrwt beam="2">  1       -1 0.85483806E-01 0.17874642E+04</pdfrwt>
<totfact> 0.20059483E+01</totfact>
</mgrwt>
</event>
<event>
12    7  0.1709271E-007  0.2010439E+04  0.7818608E-02  0.8601756E-01
         -1   -1    0    0    0  501 -0.00000000000E+00  0.00000000000E+00  0.61909578222E+03  0.61909578222E+03  0.00000000000E+00 0.  1.
          2   -1    0    0  501    0  0.00000000000E+00 -0.00000000000E+00 -0.16321645916E+04  0.16321645916E+04  0.00000000000E+00 0. -1.
         24    2    1    2    0    0  0.48341665166E+03  0.33699154556E+03 -0.10134636858E+04  0.11750392472E+04  0.79709656379E+02 0.  0.
        254    2    1    2    0    0 -0.48341665166E+03 -0.33699154556E+03  0.39487635505E+00  0.10762211266E+04  0.90055360559E+03 0.  0.
         23    2    4    4    0    0  0.25453864700E+03 -0.30070446305E+02 -0.28463217985E+01  0.27189029289E+03  0.90675659704E+02 0.  0.
         23    2    4    4    0    0 -0.73795529866E+03 -0.30692109926E+03  0.32411981535E+01  0.80433083372E+03  0.90327186982E+02 0.  0.
          2    1    3    3  502    0  0.36931163152E+03  0.26752296068E+03 -0.71506215785E+03  0.84809993825E+03  0.00000000000E+00 0. -1.
         -1    1    3    3    0  502  0.11410502014E+03  0.69468584889E+02 -0.29840152790E+03  0.32693930899E+03  0.00000000000E+00 0.  1.
         13    1    5    5    0    0  0.21251852653E+03  0.11417557929E+02 -0.22754192313E+01  0.21283717317E+03  0.00000000000E+00 0. -1.
        -13    1    5    5    0    0  0.42020120468E+02 -0.41488004235E+02 -0.57090256716E+00  0.59053119725E+02  0.00000000000E+00 0.  1.
          1    1    6    6  503    0 -0.68593484023E+03 -0.28893241640E+03 -0.20023274951E+02  0.74457335288E+03  0.00000000000E+00 0. -1.
         -1    1    6    6    0  503 -0.52020458439E+02 -0.17988682862E+02  0.23264473104E+02  0.59757480838E+02  0.00000000000E+00 0.  1.
<mgrwt>
<rscale>  0 0.20104390E+04</rscale>
<asrwt>0</asrwt>
<pdfrwt beam="1">  1        2 0.25110224E+00 0.20104390E+04</pdfrwt>
<pdfrwt beam="2">  1       -1 0.95245507E-01 0.20104390E+04</pdfrwt>
<totfact> 0.12043454E+01</totfact>
</mgrwt>
</event>
<event>
12    7  0.2721288E-007  0.2533827E+04  0.7818608E-02  0.8391033E-01
         -1   -1    0    0    0  501 -0.00000000000E+00  0.00000000000E+00  0.43077710181E+03  0.43077710181E+03  0.00000000000E+00 0.  1.
          2   -1    0    0  501    0  0.00000000000E+00 -0.00000000000E+00 -0.37259854047E+04  0.37259854047E+04  0.00000000000E+00 0. -1.
         24    2    1    2    0    0  0.64774963100E+02 -0.36687236488E+03 -0.31459556586E+04  0.31689689942E+04  0.80847708813E+02 0.  0.
        254    2    1    2    0    0 -0.64774963100E+02  0.36687236488E+03 -0.14925264421E+03  0.98779351228E+03  0.90258990861E+03 0.  0.
         23    2    4    4    0    0  0.35983102211E+02  0.74837614792E+01 -0.47448864634E+03  0.48454558420E+03  0.91072264338E+02 0.  0.
         23    2    4    4    0    0 -0.10075806531E+03  0.35938860340E+03  0.32523600213E+03  0.50324792807E+03  0.90375129563E+02 0.  0.
          2    1    3    3  502    0  0.65934157310E+02 -0.35764500353E+03 -0.28827204090E+04  0.29055695170E+04  0.00000000000E+00 0. -1.
         -3    1    3    3    0  502 -0.11591942105E+01 -0.92273613472E+01 -0.26323524962E+03  0.26339947716E+03  0.00000000000E+00 0.  1.
         13    1    5    5    0    0  0.44941091968E+02 -0.47669259980E+01 -0.46376728115E+03  0.46596407200E+03  0.00000000000E+00 0.  1.
        -13    1    5    5    0    0 -0.89579897564E+01  0.12250687477E+02 -0.10721365195E+02  0.18581512204E+02  0.00000000000E+00 0. -1.
          4    1    6    6  503    0 -0.10897179525E+03  0.32522109759E+03  0.31723816527E+03  0.46720837747E+03  0.00000000000E+00 0. -1.
         -4    1    6    6    0  503  0.82137299363E+01  0.34167505814E+02  0.79978368664E+01  0.36039550601E+02  0.00000000000E+00 0.  1.
<mgrwt>
<rscale>  0 0.25338265E+04</rscale>
<asrwt>0</asrwt>
<pdfrwt beam="1">  1        2 0.57322854E+00 0.25338265E+04</pdfrwt>
<pdfrwt beam="2">  1       -1 0.66273398E-01 0.25338265E+04</pdfrwt>
<totfact> 0.13053920E+00</totfact>
</mgrwt>
</event>
<event>
12    7  0.1701638E-007  0.2463915E+04  0.7818608E-02  0.8415955E-01
         -1   -1    0    0    0  501 -0.00000000000E+00  0.00000000000E+00  0.16441178066E+04  0.16441178066E+04  0.00000000000E+00 0.  1.
          2   -1    0    0  501    0  0.00000000000E+00 -0.00000000000E+00 -0.92312064228E+03  0.92312064228E+03  0.00000000000E+00 0. -1.
         24    2    1    2    0    0 -0.56603524109E+03  0.21720318638E+03 -0.60068815368E+03  0.85706625277E+03  0.78505957369E+02 0.  0.
        254    2    1    2    0    0  0.56603524109E+03 -0.21720318638E+03  0.13216853180E+04  0.17101721961E+04  0.90014651152E+03 0.  0.
         23    2    4    4    0    0  0.38330992708E+03  0.28549040632E+03  0.89683566248E+03  0.10209167377E+04  0.97598706270E+02 0.  0.
         23    2    4    4    0    0  0.18272531402E+03 -0.50269359270E+03  0.42484965554E+03  0.68925545845E+03  0.92122031444E+02 0.  0.
          4    1    3    3  502    0 -0.22912192568E+03  0.99917028388E+02 -0.30013835155E+03  0.39059352204E+03  0.00000000000E+00 0. -1.
         -1    1    3    3    0  502 -0.33691331541E+03  0.11728615799E+03 -0.30054980213E+03  0.46647273073E+03  0.00000000000E+00 0.  1.
         13    1    5    5    0    0  0.95012338726E+02  0.97063645251E+02  0.34062329548E+03  0.36670550195E+03  0.00000000000E+00 0. -1.
        -13    1    5    5    0    0  0.28829758835E+03  0.18842676107E+03  0.55621236700E+03  0.65421123572E+03  0.00000000000E+00 0.  1.
          2    1    6    6  503    0  0.88709480175E-01  0.40647380810E+01  0.36750591912E+01  0.54805132149E+01  0.00000000000E+00 0. -1.
         -2    1    6    6    0  503  0.18263660454E+03 -0.50675833078E+03  0.42117459635E+03  0.68377494524E+03  0.00000000000E+00 0.  1.
<mgrwt>
<rscale>  0 0.24639148E+04</rscale>
<asrwt>0</asrwt>
<pdfrwt beam="1">  1        2 0.14201856E+00 0.24639148E+04</pdfrwt>
<pdfrwt beam="2">  1       -1 0.25294120E+00 0.24639148E+04</pdfrwt>
<totfact> 0.19246980E+00</totfact>
</mgrwt>
</event>
<event>
12    7  0.1701638E-007  0.1382711E+04  0.7818608E-02  0.8966429E-01
          2   -1    0    0  501    0  0.00000000000E+00  0.00000000000E+00  0.90950118098E+03  0.90950118098E+03  0.00000000000E+00 0. -1.
         -1   -1    0    0    0  501 -0.00000000000E+00 -0.00000000000E+00 -0.52553220825E+03  0.52553220825E+03  0.00000000000E+00 0.  1.
         24    2    1    2    0    0  0.19936621108E+03  0.75442909481E+02  0.48589041769E+03  0.53653856051E+03  0.79659338437E+02 0.  0.
        254    2    1    2    0    0 -0.19936621108E+03 -0.75442909481E+02 -0.10192144496E+03  0.89849482871E+03  0.86687164999E+03 0.  0.
         23    2    4    4    0    0  0.27028901570E+03 -0.12661380643E+03  0.16056012460E+03  0.35070690345E+03  0.90158585423E+02 0.  0.
         23    2    4    4    0    0 -0.46965522679E+03  0.51170896944E+02 -0.26248156956E+03  0.54778792526E+03  0.89333890333E+02 0.  0.
          4    1    3    3  502    0  0.18830794022E+03  0.65169942734E+02  0.48104939040E+03  0.52068754334E+03  0.00000000000E+00 0. -1.
         -3    1    3    3    0  502  0.11058270863E+02  0.10272966747E+02  0.48410272973E+01  0.15851017178E+02  0.00000000000E+00 0.  1.
         13    1    5    5    0    0  0.26967084656E+03 -0.11692976851E+03  0.16793209153E+03  0.33852049216E+03  0.00000000000E+00 0. -1.
        -13    1    5    5    0    0  0.61816914250E+00 -0.96840379162E+01 -0.73719669333E+01  0.12186411281E+02  0.00000000000E+00 0.  1.
          2    1    6    6  503    0 -0.36610003685E+03  0.15064588860E+02 -0.23302615669E+03  0.43423192941E+03  0.00000000000E+00 0. -1.
         -2    1    6    6    0  503 -0.10355518993E+03  0.36106308084E+02 -0.29455412871E+02  0.11355599585E+03  0.00000000000E+00 0.  1.
<mgrwt>
<rscale>  0 0.13827106E+04</rscale>
<asrwt>0</asrwt>
<pdfrwt beam="1">  1        2 0.13992326E+00 0.13827106E+04</pdfrwt>
<pdfrwt beam="2">  1       -1 0.80851109E-01 0.13827106E+04</pdfrwt>
<totfact> 0.49016880E+01</totfact>
</mgrwt>
</event>
<event>
12    7  0.1701638E-007  0.1352417E+04  0.7818608E-02  0.8989000E-01
         -1   -1    0    0    0  501 -0.00000000000E+00  0.00000000000E+00  0.32222794612E+03  0.32222794612E+03  0.00000000000E+00 0.  1.
          2   -1    0    0  501    0  0.00000000000E+00 -0.00000000000E+00 -0.14190513140E+04  0.14190513140E+04  0.00000000000E+00 0. -1.
         24    2    1    2    0    0  0.31594907257E+02  0.13817363650E+03  0.13660663930E+03  0.21262537826E+03  0.80361592763E+02 0.  0.
        254    2    1    2    0    0 -0.31594907257E+02 -0.13817363650E+03 -0.12334300072E+04  0.15286538818E+04  0.89182000197E+03 0.  0.
         23    2    4    4    0    0  0.17087346410E+03  0.22746469985E+03 -0.99525283104E+03  0.10390584584E+04  0.90423181651E+02 0.  0.
         23    2    4    4    0    0 -0.20246837136E+03 -0.36563833635E+03 -0.23817717613E+03  0.48959542349E+03  0.91052056902E+02 0.  0.
          4    1    3    3  502    0  0.14154168774E+02  0.24259346153E+02  0.78885527019E+02  0.83736388402E+02  0.00000000000E+00 0. -1.
         -3    1    3    3    0  502  0.17440738483E+02  0.11391429035E+03  0.57721112286E+02  0.12888898986E+03  0.00000000000E+00 0.  1.
         13    1    5    5    0    0  0.22568682580E+02  0.38278906740E+01 -0.16338464554E+03  0.16498042484E+03  0.00000000000E+00 0. -1.
        -13    1    5    5    0    0  0.14830478152E+03  0.22363680917E+03 -0.83186818550E+03  0.87407803352E+03  0.00000000000E+00 0.  1.
          1    1    6    6  503    0  0.17486109787E+01 -0.55370090972E+02 -0.42066456006E+02  0.69559264915E+02  0.00000000000E+00 0. -1.
         -1    1    6    6    0  503 -0.20421698234E+03 -0.31026824537E+03 -0.19611072012E+03  0.42003615857E+03  0.00000000000E+00 0.  1.
<mgrwt>
<rscale>  0 0.13524171E+04</rscale>
<asrwt>0</asrwt>
<pdfrwt beam="1">  1        2 0.21831558E+00 0.13524171E+04</pdfrwt>
<pdfrwt beam="2">  1       -1 0.49573531E-01 0.13524171E+04</pdfrwt>
<totfact> 0.64067524E+01</totfact>
</mgrwt>
</event>
<event>
12    7  0.1701638E-007  0.1248428E+04  0.7818608E-02  0.9071493E-01
          2   -1    0    0  501    0  0.00000000000E+00  0.00000000000E+00  0.12619899464E+04  0.12619899464E+04  0.00000000000E+00 0. -1.
         -1   -1    0    0    0  501 -0.00000000000E+00 -0.00000000000E+00 -0.30875295332E+03  0.30875295332E+03  0.00000000000E+00 0.  1.
         24    2    1    2    0    0 -0.17999808970E+03 -0.35761993227E+02  0.50819602644E+03  0.54613232817E+03  0.79492679713E+02 0.  0.
        254    2    1    2    0    0  0.17999808970E+03  0.35761993227E+02  0.44504096661E+03  0.10246105715E+04  0.90448169072E+03 0.  0.
         23    2    4    4    0    0  0.36849407616E+03  0.93398569477E+02  0.62983393841E+03  0.74134182236E+03  0.91573635131E+02 0.  0.
         23    2    4    4    0    0 -0.18849598646E+03 -0.57636576250E+02 -0.18479297180E+03  0.28326874916E+03  0.85088365775E+02 0.  0.
          2    1    3    3  502    0 -0.17574632621E+03 -0.25619319051E+02  0.40346574718E+03  0.44082619005E+03  0.00000000000E+00 0. -1.
         -1    1    3    3    0  502 -0.42517634894E+01 -0.10142674176E+02  0.10473027926E+03  0.10530613812E+03  0.00000000000E+00 0.  1.
         13    1    5    5    0    0  0.31871516338E+03  0.49185734674E+02  0.49200951117E+03  0.58827880376E+03  0.00000000000E+00 0.  1.
        -13    1    5    5    0    0  0.49778912782E+02  0.44212834804E+02  0.13782442724E+03  0.15306301860E+03  0.00000000000E+00 0. -1.
          3    1    6    6  503    0 -0.60478925747E+02 -0.41201035748E+02 -0.23855513193E+02  0.76969547978E+02  0.00000000000E+00 0. -1.
         -3    1    6    6    0  503 -0.12801706071E+03 -0.16435540502E+02 -0.16093745861E+03  0.20629920118E+03  0.00000000000E+00 0.  1.
<mgrwt>
<rscale>  0 0.12484280E+04</rscale>
<asrwt>0</asrwt>
<pdfrwt beam="1">  1        2 0.19415230E+00 0.12484280E+04</pdfrwt>
<pdfrwt beam="2">  1       -1 0.47500455E-01 0.12484280E+04</pdfrwt>
<totfact> 0.86291141E+01</totfact>
</mgrwt>
</event>
<event>
12    7  0.1701638E-007  0.1984789E+04  0.7818608E-02  0.8613765E-01
          2   -1    0    0  501    0  0.00000000000E+00  0.00000000000E+00  0.28729019680E+04  0.28729019680E+04  0.00000000000E+00 0. -1.
         -1   -1    0    0    0  501 -0.00000000000E+00 -0.00000000000E+00 -0.34280559560E+03  0.34280559560E+03  0.00000000000E+00 0.  1.
         24    2    1    2    0    0  0.66850307766E+03 -0.41748658248E+03  0.94177907579E+03  0.12307234259E+04  0.80875905607E+02 0.  0.
        254    2    1    2    0    0 -0.66850307766E+03  0.41748658248E+03  0.15883172966E+04  0.19849841377E+04  0.89231092156E+03 0.  0.
         23    2    4    4    0    0 -0.35772044270E+03  0.65272716689E+03  0.77445076516E+03  0.10780718015E+04  0.91913829806E+02 0.  0.
         23    2    4    4    0    0 -0.31078263496E+03 -0.23524058441E+03  0.81386653142E+03  0.90691233611E+03  0.90483565746E+02 0.  0.
          2    1    3    3  502    0  0.54027784064E+03 -0.30023584945E+03  0.75198428453E+03  0.97340745557E+03  0.00000000000E+00 0. -1.
         -3    1    3    3    0  502  0.12822523703E+03 -0.11725073302E+03  0.18979479126E+03  0.25731597035E+03  0.00000000000E+00 0.  1.
         13    1    5    5    0    0 -0.35678777162E+03  0.64891449827E+03  0.75247810335E+03  0.10557513135E+04  0.00000000000E+00 0.  1.
        -13    1    5    5    0    0 -0.93267108603E+00  0.38126686163E+01  0.21972661809E+02  0.22320487994E+02  0.00000000000E+00 0. -1.
          2    1    6    6  503    0 -0.15896769762E+03 -0.15561493541E+03  0.37881193910E+03  0.43930083339E+03  0.00000000000E+00 0.  1.
         -2    1    6    6    0  503 -0.15181493734E+03 -0.79625649007E+02  0.43505459232E+03  0.46761150272E+03  0.00000000000E+00 0. -1.
<mgrwt>
<rscale>  0 0.19847890E+04</rscale>
<asrwt>0</asrwt>
<pdfrwt beam="1">  1        2 0.44198490E+00 0.19847890E+04</pdfrwt>
<pdfrwt beam="2">  1       -1 0.52739324E-01 0.19847890E+04</pdfrwt>
<totfact> 0.80250284E+00</totfact>
</mgrwt>
</event>
<event>
12    7  0.1701638E-007  0.2597179E+04  0.7818608E-02  0.8369160E-01
         -1   -1    0    0    0  501 -0.00000000000E+00  0.00000000000E+00  0.55135403344E+03  0.55135403344E+03  0.00000000000E+00 0.  1.
          2   -1    0    0  501    0  0.00000000000E+00 -0.00000000000E+00 -0.30585342290E+04  0.30585342290E+04  0.00000000000E+00 0. -1.
         24    2    1    2    0    0  0.48802973358E+03  0.76762770146E+02 -0.25293439813E+04  0.25783805452E+04  0.79998226359E+02 0.  0.
        254    2    1    2    0    0 -0.48802973358E+03 -0.76762770146E+02  0.22163785798E+02  0.10315077172E+04  0.90523554588E+03 0.  0.
         23    2    4    4    0    0 -0.74473988941E+03 -0.36309996407E+02 -0.30997377519E+02  0.75165458658E+03  0.89821274756E+02 0.  0.
         23    2    4    4    0    0  0.25671015583E+03 -0.40452773739E+02  0.53161163317E+02  0.27985313063E+03  0.89191560298E+02 0.  0.
          4    1    3    3  502    0  0.21532649856E+03  0.18483581005E+02 -0.91900673426E+03  0.94407654423E+03  0.00000000000E+00 0. -1.
         -3    1    3    3    0  502  0.27270323502E+03  0.58279189141E+02 -0.16103372471E+04  0.16343040010E+04  0.00000000000E+00 0.  1.
         13    1    5    5    0    0  0.23667662037E+01  0.48289952337E+00  0.16583918806E+01  0.29300235225E+01  0.00000000000E+00 0. -1.
        -13    1    5    5    0    0 -0.74710665561E+03 -0.36792895931E+02 -0.32655769400E+02  0.74872456306E+03  0.00000000000E+00 0.  1.
          4    1    6    6  503    0  0.23725599580E+03 -0.30336167120E+02  0.73211037625E+02  0.25014105343E+03  0.00000000000E+00 0. -1.
         -4    1    6    6    0  503  0.19454160026E+02 -0.10116606619E+02 -0.20049874308E+02  0.29712077201E+02  0.00000000000E+00 0.  1.
<mgrwt>
<rscale>  0 0.25971794E+04</rscale>
<asrwt>0</asrwt>
<pdfrwt beam="1">  1        2 0.47054374E+00 0.25971794E+04</pdfrwt>
<pdfrwt beam="2">  1       -1 0.84823696E-01 0.25971794E+04</pdfrwt>
<totfact> 0.22124823E+00</totfact>
</mgrwt>
</event>
<event>
12    7  0.1701638E-007  0.2589295E+04  0.7818608E-02  0.8371847E-01
          2   -1    0    0  501    0  0.00000000000E+00  0.00000000000E+00  0.21667672472E+04  0.21667672472E+04  0.00000000000E+00 0. -1.
         -1   -1    0    0    0  501 -0.00000000000E+00 -0.00000000000E+00 -0.77355416118E+03  0.77355416118E+03  0.00000000000E+00 0.  1.
         24    2    1    2    0    0 -0.33183388520E+03 -0.10271319519E+04  0.10150009293E+04  0.14837800325E+04  0.79136113932E+02 0.  0.
        254    2    1    2    0    0  0.33183388520E+03  0.10271319519E+04  0.37821215669E+03  0.14565413758E+04  0.90186172443E+03 0.  0.
         23    2    4    4    0    0  0.50940056761E+03  0.22882749228E+03  0.42543953931E+02  0.56741920814E+03  0.91124147436E+02 0.  0.
         23    2    4    4    0    0 -0.17756668241E+03  0.79830445962E+03  0.33566820276E+03  0.88912216767E+03  0.95105992140E+02 0.  0.
          2    1    3    3  502    0 -0.29639172961E+03 -0.89374000472E+03  0.91830620762E+03  0.13152587367E+04  0.00000000000E+00 0. -1.
         -1    1    3    3    0  502 -0.35442155591E+02 -0.13339194718E+03  0.96694721673E+02  0.16852129588E+03  0.00000000000E+00 0.  1.
         13    1    5    5    0    0  0.17096469042E+03  0.35334914442E+02  0.31645919139E+02  0.17742306995E+03  0.00000000000E+00 0. -1.
        -13    1    5    5    0    0  0.33843587718E+03  0.19349257784E+03  0.10898034792E+02  0.38999613819E+03  0.00000000000E+00 0.  1.
          1    1    6    6  503    0 -0.84455850042E+02  0.55667177380E+03  0.20623228307E+03  0.59962322248E+03  0.00000000000E+00 0. -1.
         -1    1    6    6    0  503 -0.93110832365E+02  0.24163268582E+03  0.12943591969E+03  0.28949894519E+03  0.00000000000E+00 0.  1.
<mgrwt>
<rscale>  0 0.25892947E+04</rscale>
<asrwt>0</asrwt>
<pdfrwt beam="1">  1        2 0.33334881E+00 0.25892947E+04</pdfrwt>
<pdfrwt beam="2">  1       -1 0.11900833E+00 0.25892947E+04</pdfrwt>
<totfact> 0.34297383E+00</totfact>
</mgrwt>
</event>
<event>
12    7  0.1701638E-007  0.1252840E+04  0.7818608E-02  0.9067823E-01
         -1   -1    0    0    0  501 -0.00000000000E+00  0.00000000000E+00  0.24770717682E+03  0.24770717682E+03  0.00000000000E+00 0.  1.
          2   -1    0    0  501    0  0.00000000000E+00 -0.00000000000E+00 -0.15841366219E+04  0.15841366219E+04  0.00000000000E+00 0. -1.
         24    2    1    2    0    0 -0.14865483995E+02 -0.84699174767E+02  0.87728074634E+02  0.14593536258E+03  0.78778056281E+02 0.  0.
        254    2    1    2    0    0  0.14865483995E+02  0.84699174767E+02 -0.14241575197E+04  0.16859084362E+04  0.89814680384E+03 0.  0.
         23    2    4    4    0    0  0.34653746908E+02  0.46825918050E+03 -0.98705775356E+03  0.10973040442E+04  0.96569219930E+02 0.  0.
         23    2    4    4    0    0 -0.19788262913E+02 -0.38356000573E+03 -0.43709976617E+03  0.58860439196E+03  0.88820444147E+02 0.  0.
          4    1    3    3  502    0 -0.46347891713E+02 -0.37948843143E+02  0.39476946185E+02  0.71740302775E+02  0.00000000000E+00 0. -1.
         -3    1    3    3    0  502  0.31482407718E+02 -0.46750331624E+02  0.48251128449E+02  0.74195059804E+02  0.00000000000E+00 0.  1.
         13    1    5    5    0    0  0.31071149056E+02  0.44322448277E+02 -0.13936578583E+03  0.14950825390E+03  0.00000000000E+00 0.  1.
        -13    1    5    5    0    0  0.35825978522E+01  0.42393673222E+03 -0.84769196774E+03  0.94779579029E+03  0.00000000000E+00 0. -1.
          3    1    6    6  503    0 -0.25280923651E+02 -0.31826578804E+03 -0.40479347045E+03  0.51554824280E+03  0.00000000000E+00 0. -1.
         -3    1    6    6    0  503  0.54926607380E+01 -0.65294217697E+02 -0.32306295721E+02  0.73056149158E+02  0.00000000000E+00 0.  1.
<mgrwt>
<rscale>  0 0.12528400E+04</rscale>
<asrwt>0</asrwt>
<pdfrwt beam="1">  1        2 0.24371332E+00 0.12528400E+04</pdfrwt>
<pdfrwt beam="2">  1       -1 0.38108797E-01 0.12528400E+04</pdfrwt>
<totfact> 0.84827257E+01</totfact>
</mgrwt>
</event>
<event>
12    7  0.1701638E-007  0.1387593E+04  0.7818608E-02  0.8962848E-01
          2   -1    0    0  501    0  0.00000000000E+00  0.00000000000E+00  0.18663683260E+04  0.18663683260E+04  0.00000000000E+00 0. -1.
         -1   -1    0    0    0  501 -0.00000000000E+00 -0.00000000000E+00 -0.25790931417E+03  0.25790931417E+03  0.00000000000E+00 0.  1.
         24    2    1    2    0    0  0.30870571177E+03  0.12071655154E+03  0.83034630451E+03  0.89750637141E+03  0.78555706475E+02 0.  0.
        254    2    1    2    0    0 -0.30870571177E+03 -0.12071655154E+03  0.77811270729E+03  0.12267712687E+04  0.88861502251E+03 0.  0.
         23    2    4    4    0    0 -0.80669672100E+02  0.19516313447E+03  0.79305550298E+03  0.82582239733E+03  0.91920378948E+02 0.  0.
         23    2    4    4    0    0 -0.22803603967E+03 -0.31587968600E+03 -0.14942795690E+02  0.40094887140E+03  0.93575097721E+02 0.  0.
          4    1    3    3  502    0  0.12712450906E+03  0.78514971700E+02  0.44543670985E+03  0.46982880293E+03  0.00000000000E+00 0. -1.
         -3    1    3    3    0  502  0.18158120272E+03  0.42201579838E+02  0.38490959466E+03  0.42767756848E+03  0.00000000000E+00 0.  1.
         13    1    5    5    0    0 -0.10656088768E+02  0.97727579965E+02  0.23005264911E+03  0.25017684441E+03  0.00000000000E+00 0. -1.
        -13    1    5    5    0    0 -0.70013583332E+02  0.97435554501E+02  0.56300285387E+03  0.57564555292E+03  0.00000000000E+00 0.  1.
          3    1    6    6  503    0 -0.88368682686E+02 -0.18038036217E+03  0.24640893776E+02  0.20236914978E+03  0.00000000000E+00 0. -1.
         -3    1    6    6    0  503 -0.13966735699E+03 -0.13549932384E+03 -0.39583689466E+02  0.19857972162E+03  0.00000000000E+00 0.  1.
<mgrwt>
<rscale>  0 0.13875933E+04</rscale>
<asrwt>0</asrwt>
<pdfrwt beam="1">  1        2 0.28713358E+00 0.13875933E+04</pdfrwt>
<pdfrwt beam="2">  1       -1 0.39678357E-01 0.13875933E+04</pdfrwt>
<totfact> 0.54393445E+01</totfact>
</mgrwt>
</event>
<event>
12    7  0.1701638E-007  0.3989014E+04  0.7818608E-02  0.8006767E-01
          2   -1    0    0  501    0  0.00000000000E+00  0.00000000000E+00  0.36828129276E+04  0.36828129276E+04  0.00000000000E+00 0. -1.
         -1   -1    0    0    0  501 -0.00000000000E+00 -0.00000000000E+00 -0.10801682479E+04  0.10801682479E+04  0.00000000000E+00 0.  1.
         24    2    1    2    0    0  0.64460219829E+03  0.28719691757E+03  0.33331747406E+04  0.34079054339E+04  0.75970593503E+02 0.  0.
        254    2    1    2    0    0 -0.64460219829E+03 -0.28719691757E+03 -0.73053006094E+03  0.13550757416E+04  0.89697381898E+03 0.  0.
         23    2    4    4    0    0 -0.42213670303E+03 -0.16677567264E+03  0.10696333015E+03  0.47517708949E+03  0.91315887728E+02 0.  0.
         23    2    4    4    0    0 -0.22246549525E+03 -0.12042124492E+03 -0.83749339109E+03  0.87989865206E+03  0.93990877069E+02 0.  0.
          2    1    3    3  502    0  0.53317829847E+03  0.21164816642E+03  0.26084878511E+04  0.26708206442E+04  0.00000000000E+00 0. -1.
         -1    1    3    3    0  502  0.11142389981E+03  0.75548751145E+02  0.72468688953E+03  0.73708478964E+03  0.00000000000E+00 0.  1.
         13    1    5    5    0    0 -0.39408072698E+03 -0.14495713950E+03  0.12097270805E+03  0.43697435595E+03  0.00000000000E+00 0. -1.
        -13    1    5    5    0    0 -0.28055976054E+02 -0.21818533146E+02 -0.14009377900E+02  0.38202733543E+02  0.00000000000E+00 0.  1.
          2    1    6    6  503    0 -0.12472249284E+03 -0.11855384430E+03 -0.53984387168E+03  0.56660578889E+03  0.00000000000E+00 0. -1.
         -2    1    6    6    0  503 -0.97743002418E+02 -0.18674006252E+01 -0.29764951942E+03  0.31329286317E+03  0.00000000000E+00 0.  1.
<mgrwt>
<rscale>  0 0.39890137E+04</rscale>
<asrwt>0</asrwt>
<pdfrwt beam="1">  1        2 0.56658660E+00 0.39890137E+04</pdfrwt>
<pdfrwt beam="2">  1       -1 0.16617973E+00 0.39890137E+04</pdfrwt>
<totfact> 0.14105827E-01</totfact>
</mgrwt>
</event>
<event>
12    7  0.1701638E-007  0.1719055E+04  0.7818608E-02  0.8750571E-01
         -1   -1    0    0    0  501 -0.00000000000E+00  0.00000000000E+00  0.13404779587E+04  0.13404779587E+04  0.00000000000E+00 0.  1.
          2   -1    0    0  501    0  0.00000000000E+00 -0.00000000000E+00 -0.55113740450E+03  0.55113740450E+03  0.00000000000E+00 0. -1.
         24    2    1    2    0    0 -0.48827584145E+03 -0.36041084249E+03  0.41638178981E+03  0.74019440851E+03  0.78769884915E+02 0.  0.
        254    2    1    2    0    0  0.48827584145E+03  0.36041084249E+03  0.37295876435E+03  0.11514209547E+04  0.90463401561E+03 0.  0.
         23    2    4    4    0    0  0.32367345964E+03 -0.27054767185E+03  0.15961971695E+03  0.46008740549E+03  0.90782241835E+02 0.  0.
         23    2    4    4    0    0  0.16460238181E+03  0.63095851434E+03  0.21333904740E+03  0.69133354917E+03  0.85005506512E+02 0.  0.
          4    1    3    3  502    0 -0.45142427688E+03 -0.33022413378E+03  0.35486814692E+03  0.66239207270E+03  0.00000000000E+00 0. -1.
         -3    1    3    3    0  502 -0.36851564570E+02 -0.30186708713E+02  0.61513642892E+02  0.77802335800E+02  0.00000000000E+00 0.  1.
         13    1    5    5    0    0  0.14070625447E+03 -0.95513663571E+02  0.20817388767E+02  0.17133147303E+03  0.00000000000E+00 0. -1.
        -13    1    5    5    0    0  0.18296720517E+03 -0.17503400828E+03  0.13880232818E+03  0.28875593246E+03  0.00000000000E+00 0.  1.
          3    1    6    6  503    0 -0.23089360329E+01  0.12038304961E+03  0.41273492946E+02  0.12728279947E+03  0.00000000000E+00 0. -1.
         -3    1    6    6    0  503  0.16691131784E+03  0.51057546473E+03  0.17206555446E+03  0.56405074970E+03  0.00000000000E+00 0.  1.
<mgrwt>
<rscale>  0 0.17190550E+04</rscale>
<asrwt>0</asrwt>
<pdfrwt beam="1">  1        2 0.84790370E-01 0.17190550E+04</pdfrwt>
<pdfrwt beam="2">  1       -1 0.20622738E+00 0.17190550E+04</pdfrwt>
<totfact> 0.81303480E+00</totfact>
</mgrwt>
</event>
<event>
12    7  0.1701638E-007  0.2208401E+04  0.7818608E-02  0.8514939E-01
          2   -1    0    0  501    0  0.00000000000E+00  0.00000000000E+00  0.16372987747E+04  0.16372987747E+04  0.00000000000E+00 0. -1.
         -1   -1    0    0    0  501 -0.00000000000E+00 -0.00000000000E+00 -0.74467726713E+03  0.74467726713E+03  0.00000000000E+00 0.  1.
         24    2    1    2    0    0  0.30028874091E+02 -0.84441364980E+03  0.76571853666E+03  0.11431805064E+04  0.81244370254E+02 0.  0.
        254    2    1    2    0    0 -0.30028874091E+02  0.84441364980E+03  0.12690297087E+03  0.12387955353E+04  0.89698041735E+03 0.  0.
         23    2    4    4    0    0  0.20352930826E+03 -0.56659319037E+02 -0.13816070288E+03  0.26652445362E+03  0.85512845827E+02 0.  0.
         23    2    4    4    0    0 -0.23355818235E+03  0.90107296883E+03  0.26506367375E+03  0.97227108172E+03  0.92576376601E+02 0.  0.
          4    1    3    3  502    0  0.49350599110E+02 -0.78054395414E+03  0.70377427196E+03  0.10521323927E+04  0.00000000000E+00 0. -1.
         -3    1    3    3    0  502 -0.19321725019E+02 -0.63869695658E+02  0.61944264695E+02  0.91048113708E+02  0.00000000000E+00 0.  1.
         13    1    5    5    0    0  0.11386069856E+03 -0.95098674647E+01 -0.29586480414E+02  0.11802565856E+03  0.00000000000E+00 0. -1.
        -13    1    5    5    0    0  0.89668609702E+02 -0.47149451572E+02 -0.10857422246E+03  0.14849879505E+03  0.00000000000E+00 0.  1.
          3    1    6    6  503    0 -0.20278662152E+03  0.61334235407E+03  0.17737826429E+03  0.66990619179E+03  0.00000000000E+00 0. -1.
         -3    1    6    6    0  503 -0.30771560836E+02  0.28773061477E+03  0.87685409463E+02  0.30236488993E+03  0.00000000000E+00 0.  1.
<mgrwt>
<rscale>  0 0.22084014E+04</rscale>
<asrwt>0</asrwt>
<pdfrwt beam="1">  1        2 0.25189212E+00 0.22084014E+04</pdfrwt>
<pdfrwt beam="2">  1       -1 0.11456573E+00 0.22084014E+04</pdfrwt>
<totfact> 0.76588576E+00</totfact>
</mgrwt>
</event>
<event>
12    7  0.1701638E-007  0.2041500E+04  0.7818608E-02  0.8587460E-01
         -1   -1    0    0    0  501 -0.00000000000E+00  0.00000000000E+00  0.53198933754E+03  0.53198933754E+03  0.00000000000E+00 0.  1.
          2   -1    0    0  501    0  0.00000000000E+00 -0.00000000000E+00 -0.19585555220E+04  0.19585555220E+04  0.00000000000E+00 0. -1.
         24    2    1    2    0    0 -0.16911486493E+03  0.53969673646E+03 -0.13140099947E+04  0.14327732219E+04  0.79651958386E+02 0.  0.
        254    2    1    2    0    0  0.16911486493E+03 -0.53969673646E+03 -0.11255618980E+03  0.10577716376E+04  0.88675787936E+03 0.  0.
         23    2    4    4    0    0  0.10531980727E+03 -0.56016180850E+03 -0.43067855748E+03  0.72036001303E+03  0.92525753183E+02 0.  0.
         23    2    4    4    0    0  0.63795057665E+02  0.20465072033E+02  0.31812236768E+03  0.33741162459E+03  0.90311322850E+02 0.  0.
          4    1    3    3  502    0 -0.12587092642E+03  0.46186923634E+03 -0.11596961103E+04  0.12546161763E+04  0.00000000000E+00 0. -1.
         -3    1    3    3    0  502 -0.43243938519E+02  0.77827500120E+02 -0.15431388433E+03  0.17815704558E+03  0.00000000000E+00 0.  1.
         13    1    5    5    0    0  0.57593175119E+02 -0.18871421528E+03 -0.19765577563E+03  0.27928092400E+03  0.00000000000E+00 0.  1.
        -13    1    5    5    0    0  0.47726632149E+02 -0.37144759321E+03 -0.23302278185E+03  0.44107908903E+03  0.00000000000E+00 0. -1.
          3    1    6    6  503    0  0.56831597253E+02  0.49558777003E+02  0.16526871018E+03  0.18165805622E+03  0.00000000000E+00 0. -1.
         -3    1    6    6    0  503  0.69634604123E+01 -0.29093704970E+02  0.15285365750E+03  0.15575356837E+03  0.00000000000E+00 0.  1.
<mgrwt>
<rscale>  0 0.20415001E+04</rscale>
<asrwt>0</asrwt>
<pdfrwt beam="1">  1        2 0.30131622E+00 0.20415001E+04</pdfrwt>
<pdfrwt beam="2">  1       -1 0.81844516E-01 0.20415001E+04</pdfrwt>
<totfact> 0.11033812E+01</totfact>
</mgrwt>
</event>
<event>
12    7  0.1701638E-007  0.1933432E+04  0.7818608E-02  0.8638392E-01
          2   -1    0    0  501    0  0.00000000000E+00  0.00000000000E+00  0.96030402596E+03  0.96030402596E+03  0.00000000000E+00 0. -1.
         -1   -1    0    0    0  501 -0.00000000000E+00 -0.00000000000E+00 -0.97317125859E+03  0.97317125859E+03  0.00000000000E+00 0.  1.
         24    2    1    2    0    0 -0.55007295350E+03 -0.27660225125E+02  0.50757516790E+03  0.75352360103E+03  0.82582831221E+02 0.  0.
        254    2    1    2    0    0  0.55007295350E+03  0.27660225125E+02 -0.52044240054E+03  0.11799516835E+04  0.90447793833E+03 0.  0.
         23    2    4    4    0    0  0.15896457018E+02  0.39398378510E+03 -0.18555393705E+03  0.44500742393E+03  0.90141131203E+02 0.  0.
         23    2    4    4    0    0  0.53417649649E+03 -0.36632355997E+03 -0.33488846349E+03  0.73494425959E+03  0.91952714629E+02 0.  0.
          2    1    3    3  502    0 -0.40896763946E+03 -0.41945765619E+01  0.33013124625E+03  0.52560323852E+03  0.00000000000E+00 0. -1.
         -1    1    3    3    0  502 -0.14110531404E+03 -0.23465648563E+02  0.17744392166E+03  0.22792036251E+03  0.00000000000E+00 0.  1.
         13    1    5    5    0    0 -0.18530261991E+02  0.21167813696E+02 -0.24779531322E+01  0.28241586320E+02  0.00000000000E+00 0. -1.
        -13    1    5    5    0    0  0.34426719009E+02  0.37281597140E+03 -0.18307598391E+03  0.41676583761E+03  0.00000000000E+00 0.  1.
          4    1    6    6  503    0  0.62093218764E+01  0.34535457935E+01 -0.12163270049E+02  0.14086440111E+02  0.00000000000E+00 0. -1.
         -4    1    6    6    0  503  0.52796717461E+03 -0.36977710577E+03 -0.32272519345E+03  0.72085781947E+03  0.00000000000E+00 0.  1.
<mgrwt>
<rscale>  0 0.19334325E+04</rscale>
<asrwt>0</asrwt>
<pdfrwt beam="1">  1        2 0.14773908E+00 0.19334325E+04</pdfrwt>
<pdfrwt beam="2">  1       -1 0.14971866E+00 0.19334325E+04</pdfrwt>
<totfact> 0.99892073E+00</totfact>
</mgrwt>
</event>
<event>
12    7  0.1701638E-007  0.2321442E+04  0.7818608E-02  0.8469515E-01
         -1   -1    0    0    0  501 -0.00000000000E+00  0.00000000000E+00  0.33521835584E+03  0.33521835584E+03  0.00000000000E+00 0.  1.
          2   -1    0    0  501    0  0.00000000000E+00 -0.00000000000E+00 -0.40190906526E+04  0.40190906526E+04  0.00000000000E+00 0. -1.
         24    2    1    2    0    0 -0.14226245713E+03  0.32963497473E+03 -0.32475937142E+04  0.32683508480E+04  0.79715179623E+02 0.  0.
        254    2    1    2    0    0  0.14226245713E+03 -0.32963497473E+03 -0.43627858252E+03  0.10859581604E+04  0.92739867440E+03 0.  0.
         23    2    4    4    0    0 -0.35104096660E+03  0.17347530630E+02 -0.56032984587E+02  0.36731396285E+03  0.90824858334E+02 0.  0.
         23    2    4    4    0    0  0.49330342373E+03 -0.34698250536E+03 -0.38024559794E+03  0.71864419754E+03  0.90097952353E+02 0.  0.
          2    1    3    3  502    0 -0.98201743455E+02  0.19809785783E+03 -0.23089126886E+04  0.23194749724E+04  0.00000000000E+00 0. -1.
         -1    1    3    3    0  502 -0.44060713677E+02  0.13153711689E+03 -0.93868102559E+03  0.94887587567E+03  0.00000000000E+00 0.  1.
         13    1    5    5    0    0 -0.33544638224E+02  0.26855050629E+02  0.68440584390E+01  0.43511810279E+02  0.00000000000E+00 0. -1.
        -13    1    5    5    0    0 -0.31749632838E+03 -0.95075199990E+01 -0.62877043026E+02  0.32380215257E+03  0.00000000000E+00 0.  1.
          3    1    6    6  503    0  0.25847063205E+03 -0.22144221450E+03 -0.24938279921E+03  0.42194253464E+03  0.00000000000E+00 0. -1.
         -3    1    6    6    0  503  0.23483279169E+03 -0.12554029086E+03 -0.13086279873E+03  0.29670166291E+03  0.00000000000E+00 0.  1.
<mgrwt>
<rscale>  0 0.23214418E+04</rscale>
<asrwt>0</asrwt>
<pdfrwt beam="1">  1        2 0.61832164E+00 0.23214418E+04</pdfrwt>
<pdfrwt beam="2">  1       -1 0.51572055E-01 0.23214418E+04</pdfrwt>
<totfact> 0.12931496E+00</totfact>
</mgrwt>
</event>
<event>
12    7  0.1701638E-007  0.4247478E+04  0.7818608E-02  0.7956402E-01
          2   -1    0    0  501    0  0.00000000000E+00  0.00000000000E+00  0.26182354989E+04  0.26182354989E+04  0.00000000000E+00 0. -1.
         -1   -1    0    0    0  501 -0.00000000000E+00 -0.00000000000E+00 -0.17226360762E+04  0.17226360762E+04  0.00000000000E+00 0.  1.
         24    2    1    2    0    0  0.16082618821E+04 -0.97066196674E+02  0.16852600749E+04  0.23328680303E+04  0.79016447640E+02 0.  0.
        254    2    1    2    0    0 -0.16082618821E+04  0.97066196674E+02 -0.78966065219E+03  0.20080035448E+04  0.90143561193E+03 0.  0.
         23    2    4    4    0    0 -0.10009580225E+04 -0.16194824805E+03 -0.60293995602E+02  0.10199897460E+04  0.92733587285E+02 0.  0.
         23    2    4    4    0    0 -0.60730385953E+03  0.25901444472E+03 -0.72936665659E+03  0.98801379875E+03  0.91044419969E+02 0.  0.
          4    1    3    3  502    0  0.10077306459E+04 -0.93239801259E+02  0.10868580784E+04  0.14850842393E+04  0.00000000000E+00 0. -1.
         -3    1    3    3    0  502  0.60053123611E+03 -0.38263954150E+01  0.59840199657E+03  0.84778379104E+03  0.00000000000E+00 0.  1.
         13    1    5    5    0    0 -0.15534182181E+03 -0.53854446846E+02  0.91675247939E+01  0.16466762450E+03  0.00000000000E+00 0.  1.
        -13    1    5    5    0    0 -0.84561620072E+03 -0.10809380120E+03 -0.69461520396E+02  0.85532212154E+03  0.00000000000E+00 0. -1.
          3    1    6    6  503    0 -0.48967012444E+03  0.24497778489E+03 -0.61363338931E+03  0.82239703449E+03  0.00000000000E+00 0. -1.
         -3    1    6    6    0  503 -0.11763373509E+03  0.14036659831E+02 -0.11573326728E+03  0.16561676426E+03  0.00000000000E+00 0.  1.
<mgrwt>
<rscale>  0 0.42474778E+04</rscale>
<asrwt>0</asrwt>
<pdfrwt beam="1">  1        2 0.40280546E+00 0.42474778E+04</pdfrwt>
<pdfrwt beam="2">  1       -1 0.26502094E+00 0.42474778E+04</pdfrwt>
<totfact> 0.14523695E-01</totfact>
</mgrwt>
</event>
<event>
12    7  0.1701638E-007  0.1567224E+04  0.7818608E-02  0.8840940E-01
          2   -1    0    0  501    0  0.00000000000E+00  0.00000000000E+00  0.73548974343E+03  0.73548974343E+03  0.00000000000E+00 0. -1.
         -1   -1    0    0    0  501 -0.00000000000E+00 -0.00000000000E+00 -0.83488276798E+03  0.83488276798E+03  0.00000000000E+00 0.  1.
         24    2    1    2    0    0  0.66583025395E+02 -0.43067235456E+03  0.29030375159E+03  0.53006552907E+03  0.82348167385E+02 0.  0.
        254    2    1    2    0    0 -0.66583025395E+02  0.43067235456E+03 -0.38969677615E+03  0.10403069823E+04  0.86050163504E+03 0.  0.
         23    2    4    4    0    0 -0.75444907905E+02  0.32583026041E+03 -0.65419915078E+03  0.74048424150E+03  0.92103693139E+02 0.  0.
         23    2    4    4    0    0  0.88618825096E+01  0.10484209414E+03  0.26450237463E+03  0.29982274084E+03  0.94136985680E+02 0.  0.
          2    1    3    3  502    0  0.77445525425E+02 -0.41788206896E+03  0.28735879593E+03  0.51302856701E+03  0.00000000000E+00 0. -1.
         -1    1    3    3    0  502 -0.10862500030E+02 -0.12790285593E+02  0.29449556613E+01  0.17036962062E+02  0.00000000000E+00 0.  1.
         13    1    5    5    0    0  0.36148231476E+01 -0.53183636947E+01 -0.13090839945E+02  0.14584993289E+02  0.00000000000E+00 0. -1.
        -13    1    5    5    0    0 -0.79059731052E+02  0.33114862411E+03 -0.64110831084E+03  0.72589924821E+03  0.00000000000E+00 0.  1.
          4    1    6    6  503    0  0.31774030518E+02  0.23148988419E+02  0.27190072463E+02  0.47799212553E+02  0.00000000000E+00 0. -1.
         -4    1    6    6    0  503 -0.22912148009E+02  0.81693105726E+02  0.23731230217E+03  0.25202352829E+03  0.00000000000E+00 0.  1.
<mgrwt>
<rscale>  0 0.15672239E+04</rscale>
<asrwt>0</asrwt>
<pdfrwt beam="1">  1        2 0.11315227E+00 0.15672239E+04</pdfrwt>
<pdfrwt beam="2">  1       -1 0.12844350E+00 0.15672239E+04</pdfrwt>
<totfact> 0.22078518E+01</totfact>
</mgrwt>
</event>
<event>
12    7  0.1701638E-007  0.2060178E+04  0.7818608E-02  0.8578991E-01
         -1   -1    0    0    0  501 -0.00000000000E+00  0.00000000000E+00  0.32849668732E+03  0.32849668732E+03  0.00000000000E+00 0.  1.
          2   -1    0    0  501    0  0.00000000000E+00 -0.00000000000E+00 -0.32301178858E+04  0.32301178858E+04  0.00000000000E+00 0. -1.
         24    2    1    2    0    0 -0.75399538749E+03  0.26505439793E+03 -0.15328867767E+04  0.17306272278E+04  0.81029953101E+02 0.  0.
        254    2    1    2    0    0  0.75399538749E+03 -0.26505439793E+03 -0.13687344218E+04  0.18279873453E+04  0.91068157935E+03 0.  0.
         23    2    4    4    0    0  0.92200876775E+03 -0.28507329972E+03 -0.13036364392E+04  0.16245796741E+04  0.91783428511E+02 0.  0.
         23    2    4    4    0    0 -0.16801338026E+03  0.20018901790E+02 -0.65097982606E+02  0.20340767125E+03  0.92237091290E+02 0.  0.
          4    1    3    3  502    0 -0.63182655893E+02  0.43974640239E+02 -0.17435530809E+03  0.19059273451E+03  0.00000000000E+00 0. -1.
         -3    1    3    3    0  502 -0.69081273159E+03  0.22107975769E+03 -0.13585314686E+04  0.15400344933E+04  0.00000000000E+00 0.  1.
         13    1    5    5    0    0  0.16594979134E+02  0.32247091504E+01 -0.40974324518E+02  0.44324793866E+02  0.00000000000E+00 0.  1.
        -13    1    5    5    0    0  0.90541378861E+03 -0.28829800887E+03 -0.12626621147E+04  0.15802548802E+04  0.00000000000E+00 0. -1.
          1    1    6    6  503    0 -0.15323955844E+03 -0.78715536326E+01 -0.30256426478E+02  0.15639621150E+03  0.00000000000E+00 0. -1.
         -1    1    6    6    0  503 -0.14773821819E+02  0.27890455422E+02 -0.34841556128E+02  0.47011459755E+02  0.00000000000E+00 0.  1.
<mgrwt>
<rscale>  0 0.20601777E+04</rscale>
<asrwt>0</asrwt>
<pdfrwt beam="1">  1        2 0.49694121E+00 0.20601777E+04</pdfrwt>
<pdfrwt beam="2">  1       -1 0.50537952E-01 0.20601777E+04</pdfrwt>
<totfact> 0.51441765E+00</totfact>
</mgrwt>
</event>
<event>
12    7  0.1701638E-007  0.3081036E+04  0.7818608E-02  0.8220962E-01
          2   -1    0    0  501    0  0.00000000000E+00  0.00000000000E+00  0.25378496602E+04  0.25378496602E+04  0.00000000000E+00 0. -1.
         -1   -1    0    0    0  501 -0.00000000000E+00 -0.00000000000E+00 -0.93512050540E+03  0.93512050540E+03  0.00000000000E+00 0.  1.
         24    2    1    2    0    0  0.77197449544E+03 -0.10293255392E+04  0.10395521459E+03  0.12933083266E+04  0.79900273339E+02 0.  0.
        254    2    1    2    0    0 -0.77197449544E+03  0.10293255392E+04  0.14987739402E+04  0.21796618391E+04  0.92149157426E+03 0.  0.
         23    2    4    4    0    0 -0.44204022244E+03  0.69055668691E+03  0.14838327310E+04  0.16976753920E+04  0.89855812019E+02 0.  0.
         23    2    4    4    0    0 -0.32993427300E+03  0.33876885229E+03  0.14941209230E+02  0.48198644704E+03  0.92014866274E+02 0.  0.
          2    1    3    3  502    0  0.38874238561E+03 -0.50632763082E+03  0.12152609121E+02  0.63846377972E+03  0.00000000000E+00 0. -1.
         -1    1    3    3    0  502  0.38323210983E+03 -0.52299790838E+03  0.91802605470E+02  0.65484454685E+03  0.00000000000E+00 0.  1.
         13    1    5    5    0    0 -0.42803905214E+03  0.62372285880E+03  0.13546277885E+04  0.15515360390E+04  0.00000000000E+00 0. -1.
        -13    1    5    5    0    0 -0.14001170300E+02  0.66833828111E+02  0.12920494247E+03  0.14613935304E+03  0.00000000000E+00 0.  1.
          4    1    6    6  503    0 -0.25725818662E+03  0.22595594999E+03 -0.21053931354E+02  0.34304683929E+03  0.00000000000E+00 0. -1.
         -4    1    6    6    0  503 -0.72676086377E+02  0.11281290230E+03  0.35995140584E+02  0.13893960775E+03  0.00000000000E+00 0.  1.
<mgrwt>
<rscale>  0 0.30810357E+04</rscale>
<asrwt>0</asrwt>
<pdfrwt beam="1">  1        2 0.39043841E+00 0.30810357E+04</pdfrwt>
<pdfrwt beam="2">  1       -1 0.14386469E+00 0.30810357E+04</pdfrwt>
<totfact> 0.12473300E+00</totfact>
</mgrwt>
</event>
<event>
12    7  0.1701638E-007  0.3925995E+04  0.7818608E-02  0.8019644E-01
          2   -1    0    0  501    0  0.00000000000E+00  0.00000000000E+00  0.21552148326E+04  0.21552148326E+04  0.00000000000E+00 0. -1.
         -1   -1    0    0    0  501 -0.00000000000E+00 -0.00000000000E+00 -0.17879238520E+04  0.17879238520E+04  0.00000000000E+00 0.  1.
         24    2    1    2    0    0 -0.23126561650E+03  0.94401308155E+03 -0.14139537176E+04  0.17177072570E+04  0.81293429674E+02 0.  0.
        254    2    1    2    0    0  0.23126561650E+03 -0.94401308155E+03  0.17812446983E+04  0.22254314275E+04  0.91382048564E+03 0.  0.
         23    2    4    4    0    0  0.39299162522E+03 -0.10385339219E+04  0.15956764578E+04  0.19461616667E+04  0.91469941449E+02 0.  0.
         23    2    4    4    0    0 -0.16172600871E+03  0.94520840356E+02  0.18556824046E+03  0.27926976089E+03  0.92013783353E+02 0.  0.
          4    1    3    3  502    0 -0.65803581415E+01  0.21471948574E+01 -0.12314674601E+02  0.14126668735E+02  0.00000000000E+00 0. -1.
         -3    1    3    3    0  502 -0.22468525836E+03  0.94186588670E+03 -0.14016390430E+04  0.17035805883E+04  0.00000000000E+00 0.  1.
         13    1    5    5    0    0  0.20151303412E+03 -0.55587957924E+03  0.77084700357E+03  0.97150126735E+03  0.00000000000E+00 0. -1.
        -13    1    5    5    0    0  0.19147859110E+03 -0.48265434266E+03  0.82482945428E+03  0.97466039931E+03  0.00000000000E+00 0.  1.
          4    1    6    6  503    0 -0.16205144117E+03  0.66489787596E+02  0.17906742540E+03  0.25049292261E+03  0.00000000000E+00 0. -1.
         -4    1    6    6    0  503  0.32543245295E+00  0.28031052760E+02  0.65008150569E+01  0.28776838282E+02  0.00000000000E+00 0.  1.
<mgrwt>
<rscale>  0 0.39259954E+04</rscale>
<asrwt>0</asrwt>
<pdfrwt beam="1">  1        2 0.33157151E+00 0.39259954E+04</pdfrwt>
<pdfrwt beam="2">  1       -1 0.27506521E+00 0.39259954E+04</pdfrwt>
<totfact> 0.23660990E-01</totfact>
</mgrwt>
</event>
<event>
12    7  0.1701638E-007  0.1078913E+04  0.7818608E-02  0.9225992E-01
         -1   -1    0    0    0  501 -0.00000000000E+00  0.00000000000E+00  0.80636270967E+02  0.80636270967E+02  0.00000000000E+00 0.  1.
          2   -1    0    0  501    0  0.00000000000E+00 -0.00000000000E+00 -0.36089603287E+04  0.36089603287E+04  0.00000000000E+00 0. -1.
         24    2    1    2    0    0 -0.57256188036E+02 -0.17184715183E+03 -0.94446801038E+03  0.96530117117E+03  0.83527323476E+02 0.  0.
        254    2    1    2    0    0  0.57256188036E+02  0.17184715183E+03 -0.25838560473E+04  0.27242954285E+04  0.84419416821E+03 0.  0.
         23    2    4    4    0    0  0.12561190154E+03  0.98780100489E+02 -0.25837443642E+04  0.25902971897E+04  0.91480781272E+02 0.  0.
         23    2    4    4    0    0 -0.68355713506E+02  0.73067051338E+02 -0.11168309118E+00  0.13399823874E+03  0.89130342495E+02 0.  0.
          2    1    3    3  502    0 -0.32052898808E+02 -0.16608102184E+03 -0.87452771543E+03  0.89073510046E+03  0.00000000000E+00 0. -1.
         -1    1    3    3    0  502 -0.25203289229E+02 -0.57661299874E+01 -0.69940294946E+02  0.74566070703E+02  0.00000000000E+00 0.  1.
         13    1    5    5    0    0  0.13317993568E+03  0.89796340450E+02 -0.20016820269E+04  0.20081163350E+04  0.00000000000E+00 0.  1.
        -13    1    5    5    0    0 -0.75680341378E+01  0.89837600390E+01 -0.58206233729E+03  0.58218085470E+03  0.00000000000E+00 0. -1.
          1    1    6    6  503    0 -0.13185689125E+02  0.57281387674E+02 -0.33452097539E+02  0.67631816487E+02  0.00000000000E+00 0. -1.
         -1    1    6    6    0  503 -0.55170024382E+02  0.15785663664E+02  0.33340414448E+02  0.66366422257E+02  0.00000000000E+00 0.  1.
<mgrwt>
<rscale>  0 0.10789126E+04</rscale>
<asrwt>0</asrwt>
<pdfrwt beam="1">  1        2 0.55522449E+00 0.10789126E+04</pdfrwt>
<pdfrwt beam="2">  1       -1 0.12405584E-01 0.10789126E+04</pdfrwt>
<totfact> 0.35739372E+01</totfact>
</mgrwt>
</event>
<event>
12    7  0.1701638E-007  0.2509812E+04  0.7818608E-02  0.8399498E-01
          2   -1    0    0  501    0  0.00000000000E+00  0.00000000000E+00  0.26549754178E+04  0.26549754178E+04  0.00000000000E+00 0. -1.
         -1   -1    0    0    0  501 -0.00000000000E+00 -0.00000000000E+00 -0.59314633596E+03  0.59314633596E+03  0.00000000000E+00 0.  1.
         24    2    1    2    0    0  0.72817020466E+03 -0.78293473534E+03  0.61697616327E+03  0.12371841904E+04  0.82137009035E+02 0.  0.
        254    2    1    2    0    0 -0.72817020466E+03  0.78293473534E+03  0.14448529186E+04  0.20109375633E+04  0.90169356245E+03 0.  0.
         23    2    4    4    0    0  0.33400961629E+02  0.60045372803E+03  0.66904295934E+03  0.90473580221E+03  0.96270902210E+02 0.  0.
         23    2    4    4    0    0 -0.76157116629E+03  0.18248100731E+03  0.77580995924E+03  0.11062017611E+04  0.92256621012E+02 0.  0.
          2    1    3    3  502    0  0.49096942902E+03 -0.53640110020E+03  0.37522693954E+03  0.81827402298E+03  0.00000000000E+00 0. -1.
         -1    1    3    3    0  502  0.23720077564E+03 -0.24653363514E+03  0.24174922373E+03  0.41891016745E+03  0.00000000000E+00 0.  1.
         13    1    5    5    0    0  0.56103995114E+02  0.55542245823E+03  0.62186107711E+03  0.83567515495E+03  0.00000000000E+00 0. -1.
        -13    1    5    5    0    0 -0.22703033485E+02  0.45031269792E+02  0.47181882237E+02  0.69060647260E+02  0.00000000000E+00 0.  1.
          1    1    6    6  503    0 -0.73169172870E+03  0.16618095880E+03  0.76218520318E+03  0.10695397051E+04  0.00000000000E+00 0. -1.
         -1    1    6    6    0  503 -0.29879437588E+02  0.16300048507E+02  0.13624756058E+02  0.36662055992E+02  0.00000000000E+00 0.  1.
<mgrwt>
<rscale>  0 0.25098119E+04</rscale>
<asrwt>0</asrwt>
<pdfrwt beam="1">  1        2 0.40845775E+00 0.25098119E+04</pdfrwt>
<pdfrwt beam="2">  1       -1 0.91253284E-01 0.25098119E+04</pdfrwt>
<totfact> 0.33527739E+00</totfact>
</mgrwt>
</event>
<event>
12    7  0.1701638E-007  0.1406491E+04  0.7818608E-02  0.8949133E-01
          2   -1    0    0  501    0  0.00000000000E+00  0.00000000000E+00  0.50744100487E+03  0.50744100487E+03  0.00000000000E+00 0. -1.
         -1   -1    0    0    0  501 -0.00000000000E+00 -0.00000000000E+00 -0.97460487427E+03  0.97460487427E+03  0.00000000000E+00 0.  1.
         24    2    1    2    0    0 -0.17121246246E+03  0.35503403948E+03 -0.11987022694E+01  0.40186153493E+03  0.78283969465E+02 0.  0.
        254    2    1    2    0    0  0.17121246246E+03 -0.35503403948E+03 -0.46596516713E+03  0.10801843442E+04  0.89124172031E+03 0.  0.
         23    2    4    4    0    0  0.25135187354E+03  0.15954012386E+03 -0.45519980412E+03  0.55156804308E+03  0.91594918084E+02 0.  0.
         23    2    4    4    0    0 -0.80139411081E+02 -0.51457416334E+03 -0.10765363006E+02  0.52861630114E+03  0.90057792594E+02 0.  0.
          2    1    3    3  502    0 -0.27948319570E+02  0.40578844232E+02  0.25123552652E+02  0.55307721557E+02  0.00000000000E+00 0. -1.
         -1    1    3    3    0  502 -0.14326414289E+03  0.31445519525E+03 -0.26322254922E+02  0.34655381337E+03  0.00000000000E+00 0.  1.
         13    1    5    5    0    0  0.59109731592E+02  0.64710861558E+02 -0.76149866867E+02  0.11610451411E+03  0.00000000000E+00 0. -1.
        -13    1    5    5    0    0  0.19224214195E+03  0.94829262300E+02 -0.37904993726E+03  0.43546352897E+03  0.00000000000E+00 0.  1.
          3    1    6    6  503    0 -0.79121751806E+02 -0.26113051088E+03 -0.29691674651E+02  0.27446491737E+03  0.00000000000E+00 0. -1.
         -3    1    6    6    0  503 -0.10176592751E+01 -0.25344365246E+03  0.18926311645E+02  0.25415138377E+03  0.00000000000E+00 0.  1.
<mgrwt>
<rscale>  0 0.14064913E+04</rscale>
<asrwt>0</asrwt>
<pdfrwt beam="1">  1        2 0.78067848E-01 0.14064913E+04</pdfrwt>
<pdfrwt beam="2">  1       -1 0.14993921E+00 0.14064913E+04</pdfrwt>
<totfact> 0.23517806E+01</totfact>
</mgrwt>
</event>
<event>
12    7  0.1701638E-007  0.3029460E+04  0.7818608E-02  0.8235368E-01
         -1   -1    0    0    0  501 -0.00000000000E+00  0.00000000000E+00  0.90892781417E+03  0.90892781417E+03  0.00000000000E+00 0.  1.
          2   -1    0    0  501    0  0.00000000000E+00 -0.00000000000E+00 -0.25243000466E+04  0.25243000466E+04  0.00000000000E+00 0. -1.
         24    2    1    2    0    0  0.37654545145E+03 -0.12211246686E+04 -0.14556542201E+03  0.12886221002E+04  0.80160413379E+02 0.  0.
        254    2    1    2    0    0 -0.37654545145E+03  0.12211246686E+04 -0.14698068104E+04  0.21446057606E+04  0.89781394239E+03 0.  0.
         23    2    4    4    0    0 -0.22604282125E+03  0.45516553573E+03 -0.46261134542E+02  0.51848316405E+03  0.91726097095E+02 0.  0.
         23    2    4    4    0    0 -0.15050263020E+03  0.76595913284E+03 -0.14235456759E+04  0.16261225965E+04  0.91912853930E+02 0.  0.
          4    1    3    3  502    0  0.26224357960E+03 -0.90624995223E+03 -0.13871017000E+03  0.95357285103E+03  0.00000000000E+00 0. -1.
         -1    1    3    3    0  502  0.11430187185E+03 -0.31487471633E+03 -0.68552520161E+01  0.33504924917E+03  0.00000000000E+00 0.  1.
         13    1    5    5    0    0 -0.96820344998E+02  0.10869449452E+03 -0.28115268748E+02  0.14825363631E+03  0.00000000000E+00 0. -1.
        -13    1    5    5    0    0 -0.12922247625E+03  0.34647104121E+03 -0.18145865794E+02  0.37022952774E+03  0.00000000000E+00 0.  1.
          4    1    6    6  503    0 -0.61766560084E+02  0.13068414095E+03 -0.26491856795E+03  0.30178684578E+03  0.00000000000E+00 0. -1.
         -4    1    6    6    0  503 -0.88736070121E+02  0.63527499189E+03 -0.11586271079E+04  0.13243357508E+04  0.00000000000E+00 0.  1.
<mgrwt>
<rscale>  0 0.30294597E+04</rscale>
<asrwt>0</asrwt>
<pdfrwt beam="1">  1        2 0.38835385E+00 0.30294597E+04</pdfrwt>
<pdfrwt beam="2">  1       -1 0.13983505E+00 0.30294597E+04</pdfrwt>
<totfact> 0.13748089E+00</totfact>
</mgrwt>
</event>
<event>
12    7  0.1701638E-007  0.2105097E+04  0.7818608E-02  0.8559001E-01
          2   -1    0    0  501    0  0.00000000000E+00  0.00000000000E+00  0.24606876207E+04  0.24606876207E+04  0.00000000000E+00 0. -1.
         -1   -1    0    0    0  501 -0.00000000000E+00 -0.00000000000E+00 -0.45022323495E+03  0.45022323495E+03  0.00000000000E+00 0.  1.
         24    2    1    2    0    0 -0.72080040893E+03  0.77363440153E+02  0.19976736402E+03  0.75641573093E+03  0.81972110371E+02 0.  0.
        254    2    1    2    0    0  0.72080040893E+03 -0.77363440153E+02  0.18106970217E+04  0.21544951247E+04  0.91525253704E+03 0.  0.
         23    2    4    4    0    0  0.61998011352E+03 -0.35760333160E+03  0.16557361063E+04  0.18063780885E+04  0.96354870328E+02 0.  0.
         23    2    4    4    0    0  0.10082029541E+03  0.28023989145E+03  0.15496091544E+03  0.34811703622E+03  0.92051381663E+02 0.  0.
          2    1    3    3  502    0 -0.24309360073E+03  0.44113021805E+02  0.32559161836E+02  0.24919983232E+03  0.00000000000E+00 0. -1.
         -1    1    3    3    0  502 -0.47770680820E+03  0.33250418348E+02  0.16720820219E+03  0.50721589861E+03  0.00000000000E+00 0.  1.
         13    1    5    5    0    0  0.17563083746E+03 -0.10620629630E+03  0.37230926360E+03  0.42513545630E+03  0.00000000000E+00 0. -1.
        -13    1    5    5    0    0  0.44434927606E+03 -0.25139703530E+03  0.12834268427E+04  0.13812426322E+04  0.00000000000E+00 0.  1.
          3    1    6    6  503    0  0.12459181492E+02  0.45000580532E+01  0.29917100939E+02  0.32718720246E+02  0.00000000000E+00 0. -1.
         -3    1    6    6    0  503  0.88361113922E+02  0.27573983339E+03  0.12504381450E+03  0.31539831597E+03  0.00000000000E+00 0.  1.
<mgrwt>
<rscale>  0 0.21050974E+04</rscale>
<asrwt>0</asrwt>
<pdfrwt beam="1">  1        2 0.37856732E+00 0.21050974E+04</pdfrwt>
<pdfrwt beam="2">  1       -1 0.69265114E-01 0.21050974E+04</pdfrwt>
<totfact> 0.81110543E+00</totfact>
</mgrwt>
</event>
<event>
12    7  0.1701638E-007  0.2512959E+04  0.7818608E-02  0.8398383E-01
          2   -1    0    0  501    0  0.00000000000E+00  0.00000000000E+00  0.11454066947E+04  0.11454066947E+04  0.00000000000E+00 0. -1.
         -1   -1    0    0    0  501 -0.00000000000E+00 -0.00000000000E+00 -0.13783233209E+04  0.13783233209E+04  0.00000000000E+00 0.  1.
         24    2    1    2    0    0  0.55538988711E+03  0.87318583321E+03 -0.45213631879E+03  0.11320432672E+04  0.78633847703E+02 0.  0.
        254    2    1    2    0    0 -0.55538988711E+03 -0.87318583321E+03  0.21921969264E+03  0.13916867484E+04  0.90433583699E+03 0.  0.
         23    2    4    4    0    0 -0.15664855224E+03 -0.33089712824E+03 -0.34245184200E+03  0.50930200770E+03  0.89908801353E+02 0.  0.
         23    2    4    4    0    0 -0.39874133488E+03 -0.54228870497E+03  0.56167153464E+03  0.88238474073E+03  0.10028073678E+03 0.  0.
          4    1    3    3  502    0  0.11805175604E+03  0.14501561658E+03 -0.59101008436E+02  0.19610883549E+03  0.00000000000E+00 0. -1.
         -3    1    3    3    0  502  0.43733813107E+03  0.72817021663E+03 -0.39303531035E+03  0.93593443171E+03  0.00000000000E+00 0.  1.
         13    1    5    5    0    0 -0.13312543125E+03 -0.18660504858E+03 -0.18620333791E+03  0.29532271780E+03  0.00000000000E+00 0.  1.
        -13    1    5    5    0    0 -0.23523120983E+02 -0.14429207967E+03 -0.15624850409E+03  0.21397928990E+03  0.00000000000E+00 0. -1.
          3    1    6    6  503    0 -0.40352697763E+03 -0.52312641656E+03  0.54266385534E+03  0.85497329155E+03  0.00000000000E+00 0. -1.
         -3    1    6    6    0  503  0.47856427493E+01 -0.19162288409E+02  0.19007679298E+02  0.27411449175E+02  0.00000000000E+00 0.  1.
<mgrwt>
<rscale>  0 0.25129590E+04</rscale>
<asrwt>0</asrwt>
<pdfrwt beam="1">  1        2 0.17621641E+00 0.25129590E+04</pdfrwt>
<pdfrwt beam="2">  1       -1 0.21204974E+00 0.25129590E+04</pdfrwt>
<totfact> 0.25834092E+00</totfact>
</mgrwt>
</event>
<event>
12    7  0.1701638E-007  0.3090399E+04  0.7818608E-02  0.8218378E-01
          2   -1    0    0  501    0  0.00000000000E+00  0.00000000000E+00  0.25040509512E+04  0.25040509512E+04  0.00000000000E+00 0. -1.
         -1   -1    0    0    0  501 -0.00000000000E+00 -0.00000000000E+00 -0.95351155149E+03  0.95351155149E+03  0.00000000000E+00 0.  1.
         24    2    1    2    0    0 -0.62913288426E+03 -0.12644051181E+04  0.66309090130E+03  0.15621272704E+04  0.77611704327E+02 0.  0.
        254    2    1    2    0    0  0.62913288426E+03  0.12644051181E+04  0.88744849840E+03  0.18954352323E+04  0.90032293856E+03 0.  0.
         23    2    4    4    0    0  0.61433893444E+03  0.34555878719E+03  0.18293330518E+03  0.73387443198E+03  0.91015855698E+02 0.  0.
         23    2    4    4    0    0  0.14793949814E+02  0.91884633095E+03  0.70451519322E+03  0.11615608003E+04  0.91566339483E+02 0.  0.
          4    1    3    3  502    0 -0.55488027631E+03 -0.11215927557E+04  0.61387185595E+03  0.13938081239E+04  0.00000000000E+00 0. -1.
         -3    1    3    3    0  502 -0.74252607947E+02 -0.14281236241E+03  0.49219045345E+02  0.16831914647E+03  0.00000000000E+00 0.  1.
         13    1    5    5    0    0  0.51108305234E+03  0.31802802569E+03  0.13581486098E+03  0.61708458737E+03  0.00000000000E+00 0.  1.
        -13    1    5    5    0    0  0.10325588211E+03  0.27530761497E+02  0.47118444207E+02  0.11678984460E+03  0.00000000000E+00 0. -1.
          3    1    6    6  503    0 -0.36409772003E+02  0.26555047612E+03  0.21503008672E+03  0.34362867322E+03  0.00000000000E+00 0. -1.
         -3    1    6    6    0  503  0.51203721817E+02  0.65329585483E+03  0.48948510649E+03  0.81793212710E+03  0.00000000000E+00 0.  1.
<mgrwt>
<rscale>  0 0.30903990E+04</rscale>
<asrwt>0</asrwt>
<pdfrwt beam="1">  1        2 0.38523861E+00 0.30903990E+04</pdfrwt>
<pdfrwt beam="2">  1       -1 0.14669409E+00 0.30903990E+04</pdfrwt>
<totfact> 0.12382750E+00</totfact>
</mgrwt>
</event>
<event>
12    7  0.1701638E-007  0.1564769E+04  0.7818608E-02  0.8842489E-01
         -1   -1    0    0    0  501 -0.00000000000E+00  0.00000000000E+00  0.54967141374E+03  0.54967141374E+03  0.00000000000E+00 0.  1.
          2   -1    0    0  501    0  0.00000000000E+00 -0.00000000000E+00 -0.11136210375E+04  0.11136210375E+04  0.00000000000E+00 0. -1.
         24    2    1    2    0    0  0.93475186509E+02 -0.31279526026E+03  0.23994692752E+03  0.41297023457E+03  0.79946239957E+02 0.  0.
        254    2    1    2    0    0 -0.93475186509E+02  0.31279526026E+03 -0.80389655129E+03  0.12503222167E+04  0.90026523593E+03 0.  0.
         23    2    4    4    0    0 -0.13328021653E+03 -0.95409836032E+01  0.16163456801E+03  0.22754915729E+03  0.88307637969E+02 0.  0.
         23    2    4    4    0    0  0.39805030022E+02  0.32233624386E+03 -0.96553111930E+03  0.10227730594E+04  0.91264966776E+02 0.  0.
          4    1    3    3  502    0  0.20640928071E+02 -0.71475969433E+01  0.13699669056E+02  0.25784045182E+02  0.00000000000E+00 0. -1.
         -3    1    3    3    0  502  0.72834258438E+02 -0.30564766332E+03  0.22624725847E+03  0.38718618939E+03  0.00000000000E+00 0.  1.
         13    1    5    5    0    0 -0.14260080140E+03 -0.21409531535E+02  0.13857823010E+03  0.19999320603E+03  0.00000000000E+00 0. -1.
        -13    1    5    5    0    0  0.93205848697E+01  0.11868547931E+02  0.23056337910E+02  0.27555951266E+02  0.00000000000E+00 0.  1.
          4    1    6    6  503    0  0.62295666026E+02  0.20098983552E+03 -0.67724393174E+03  0.70918051797E+03  0.00000000000E+00 0. -1.
         -4    1    6    6    0  503 -0.22490636004E+02  0.12134640834E+03 -0.28828718755E+03  0.31359254142E+03  0.00000000000E+00 0.  1.
<mgrwt>
<rscale>  0 0.15647692E+04</rscale>
<asrwt>0</asrwt>
<pdfrwt beam="1">  1        2 0.17132631E+00 0.15647692E+04</pdfrwt>
<pdfrwt beam="2">  1       -1 0.84564833E-01 0.15647692E+04</pdfrwt>
<totfact> 0.32447875E+01</totfact>
</mgrwt>
</event>
<event>
12    7  0.1701638E-007  0.1627982E+04  0.7818608E-02  0.8803540E-01
         -1   -1    0    0    0  501 -0.00000000000E+00  0.00000000000E+00  0.78963089968E+03  0.78963089968E+03  0.00000000000E+00 0.  1.
          2   -1    0    0  501    0  0.00000000000E+00 -0.00000000000E+00 -0.83910236684E+03  0.83910236684E+03  0.00000000000E+00 0. -1.
         24    2    1    2    0    0 -0.38265165823E+03 -0.24034388488E+03 -0.35388430936E+03  0.57946983466E+03  0.79772867061E+02 0.  0.
        254    2    1    2    0    0  0.38265165823E+03  0.24034388488E+03  0.30441284220E+03  0.10492634319E+04  0.89671572776E+03 0.  0.
         23    2    4    4    0    0  0.19138235872E+02 -0.31716332094E+03  0.67304497692E+02  0.33689624755E+03  0.89500513857E+02 0.  0.
         23    2    4    4    0    0  0.36351342236E+03  0.55750720582E+03  0.23710834451E+03  0.71236718432E+03  0.91051334317E+02 0.  0.
          4    1    3    3  502    0 -0.15153150371E+03 -0.14177168526E+03 -0.15454638394E+03  0.25873846282E+03  0.00000000000E+00 0. -1.
         -3    1    3    3    0  502 -0.23112015452E+03 -0.98572199622E+02 -0.19933792543E+03  0.32073137183E+03  0.00000000000E+00 0.  1.
         13    1    5    5    0    0  0.28890776874E+02 -0.31155475448E+02  0.19525926555E+02  0.46761121100E+02  0.00000000000E+00 0. -1.
        -13    1    5    5    0    0 -0.97525410015E+01 -0.28600784549E+03  0.47778571137E+02  0.29013512645E+03  0.00000000000E+00 0.  1.
          1    1    6    6  503    0  0.11307711939E+02 -0.10564665929E+01  0.28302155339E+01  0.11704297968E+02  0.00000000000E+00 0. -1.
         -1    1    6    6    0  503  0.35220571042E+03  0.55856367241E+03  0.23427812898E+03  0.70066288635E+03  0.00000000000E+00 0.  1.
<mgrwt>
<rscale>  0 0.16279818E+04</rscale>
<asrwt>0</asrwt>
<pdfrwt beam="1">  1        2 0.12909267E+00 0.16279818E+04</pdfrwt>
<pdfrwt beam="2">  1       -1 0.12148168E+00 0.16279818E+04</pdfrwt>
<totfact> 0.21198336E+01</totfact>
</mgrwt>
</event>
<event>
12    7  0.1726337E-007  0.2549395E+04  0.7818608E-02  0.8385597E-01
          2   -1    0    0  501    0  0.00000000000E+00  0.00000000000E+00  0.12765856762E+04  0.12765856762E+04  0.00000000000E+00 0. -1.
         -1   -1    0    0    0  501 -0.00000000000E+00 -0.00000000000E+00 -0.12728117557E+04  0.12728117557E+04  0.00000000000E+00 0.  1.
         24    2    1    2    0    0 -0.38579788875E+02 -0.91019498351E+03 -0.64353734557E+03  0.11182117760E+04  0.79460384883E+02 0.  0.
        254    2    1    2    0    0  0.38579788875E+02  0.91019498351E+03  0.64731126610E+03  0.14311856558E+04  0.89405659672E+03 0.  0.
         23    2    4    4    0    0  0.44159346989E+03  0.63953692547E+03  0.39011367519E+03  0.87429176104E+03  0.90471720235E+02 0.  0.
         23    2    4    4    0    0 -0.40301368101E+03  0.27065805804E+03  0.25719759091E+03  0.55689389480E+03  0.91128468830E+02 0.  0.
          2    1    3    3  502    0  0.17877062613E+02 -0.23810340118E+03 -0.19425308200E+03  0.30781013448E+03  0.00000000000E+00 0. -1.
         -1    1    3    3    0  502 -0.56456851488E+02 -0.67209158233E+03 -0.44928426357E+03  0.81040164154E+03  0.00000000000E+00 0.  1.
         13    1    5    5    0    0  0.10811392377E+03  0.10572075445E+03  0.99558840392E+02  0.18104546704E+03  0.00000000000E+00 0. -1.
        -13    1    5    5    0    0  0.33347954612E+03  0.53381617102E+03  0.29055483479E+03  0.69324629400E+03  0.00000000000E+00 0.  1.
          1    1    6    6  503    0 -0.12120863523E+03  0.10611495779E+03  0.43648476335E+02  0.16690448468E+03  0.00000000000E+00 0. -1.
         -1    1    6    6    0  503 -0.28180504578E+03  0.16454310025E+03  0.21354911458E+03  0.38998941012E+03  0.00000000000E+00 0.  1.
<mgrwt>
<rscale>  0 0.25493946E+04</rscale>
<asrwt>0</asrwt>
<pdfrwt beam="1">  1        2 0.19639780E+00 0.25493946E+04</pdfrwt>
<pdfrwt beam="2">  1       -1 0.19581719E+00 0.25493946E+04</pdfrwt>
<totfact> 0.27785203E+00</totfact>
</mgrwt>
</event>
<event>
12    7  0.1701638E-007  0.1848831E+04  0.7818608E-02  0.8680754E-01
         -1   -1    0    0    0  501 -0.00000000000E+00  0.00000000000E+00  0.33204738752E+03  0.33204738752E+03  0.00000000000E+00 0.  1.
          2   -1    0    0  501    0  0.00000000000E+00 -0.00000000000E+00 -0.25735604369E+04  0.25735604369E+04  0.00000000000E+00 0. -1.
         24    2    1    2    0    0 -0.56921414884E+03  0.41103718183E+03 -0.86614143099E+03  0.11178496385E+04  0.80190546330E+02 0.  0.
        254    2    1    2    0    0  0.56921414884E+03 -0.41103718183E+03 -0.13753716184E+04  0.17877581859E+04  0.90081958825E+03 0.  0.
         23    2    4    4    0    0  0.62142498062E+03 -0.32867535474E+02 -0.12051113703E+04  0.13595414479E+04  0.93862944497E+02 0.  0.
         23    2    4    4    0    0 -0.52210831774E+02 -0.37816964636E+03 -0.17026024816E+03  0.42821673806E+03  0.92966500801E+02 0.  0.
          4    1    3    3  502    0 -0.22251985286E+03  0.15780336626E+03 -0.27602004902E+03  0.38807738247E+03  0.00000000000E+00 0. -1.
         -3    1    3    3    0  502 -0.34669429598E+03  0.25323381557E+03 -0.59012138197E+03  0.72977225603E+03  0.00000000000E+00 0.  1.
         13    1    5    5    0    0  0.50062951532E+03 -0.12154235674E+02 -0.10360580450E+04  0.11507362467E+04  0.00000000000E+00 0.  1.
        -13    1    5    5    0    0  0.12079546529E+03 -0.20713299800E+02 -0.16905332531E+03  0.20880520114E+03  0.00000000000E+00 0. -1.
          3    1    6    6  503    0  0.16211612095E+02 -0.11803579193E+02 -0.60655228255E+01  0.20950690100E+02  0.00000000000E+00 0. -1.
         -3    1    6    6    0  503 -0.68422443869E+02 -0.36636606717E+03 -0.16419472533E+03  0.40726604796E+03  0.00000000000E+00 0.  1.
<mgrwt>
<rscale>  0 0.18488310E+04</rscale>
<asrwt>0</asrwt>
<pdfrwt beam="1">  1        2 0.39593237E+00 0.18488310E+04</pdfrwt>
<pdfrwt beam="2">  1       -1 0.51084214E-01 0.18488310E+04</pdfrwt>
<totfact> 0.13025671E+01</totfact>
</mgrwt>
</event>
<event>
12    7  0.1701638E-007  0.1851937E+04  0.7818608E-02  0.8679157E-01
          2   -1    0    0  501    0  0.00000000000E+00  0.00000000000E+00  0.14453569729E+04  0.14453569729E+04  0.00000000000E+00 0. -1.
         -1   -1    0    0    0  501 -0.00000000000E+00 -0.00000000000E+00 -0.59322186482E+03  0.59322186482E+03  0.00000000000E+00 0.  1.
         24    2    1    2    0    0 -0.24963880860E+03 -0.31967147228E+03  0.96610269215E+03  0.10508071758E+04  0.79573387680E+02 0.  0.
        254    2    1    2    0    0  0.24963880860E+03  0.31967147228E+03 -0.11396758408E+03  0.98777166189E+03  0.89341751767E+03 0.  0.
         23    2    4    4    0    0  0.15530064390E+03  0.22250575243E+03  0.37421330009E+03  0.47275731019E+03  0.99180545013E+02 0.  0.
         23    2    4    4    0    0  0.94338164699E+02  0.97165719853E+02 -0.48818088418E+03  0.51501435171E+03  0.92619330353E+02 0.  0.
          2    1    3    3  502    0 -0.14781378022E+03 -0.23513343106E+03  0.71318946388E+03  0.76535995154E+03  0.00000000000E+00 0. -1.
         -1    1    3    3    0  502 -0.10182502838E+03 -0.84538041217E+02  0.25291322827E+03  0.28544722428E+03  0.00000000000E+00 0.  1.
         13    1    5    5    0    0  0.10234317011E+03  0.19339003928E+03  0.33695432364E+03  0.40176118277E+03  0.00000000000E+00 0.  1.
        -13    1    5    5    0    0  0.52957473786E+02  0.29115713149E+02  0.37258976458E+02  0.70996127420E+02  0.00000000000E+00 0. -1.
          3    1    6    6  503    0  0.91557103239E+02  0.83593298918E+02 -0.27817449717E+03  0.30455146306E+03  0.00000000000E+00 0.  1.
         -3    1    6    6    0  503  0.27810614598E+01  0.13572420935E+02 -0.21000638701E+03  0.21046288865E+03  0.00000000000E+00 0. -1.
<mgrwt>
<rscale>  0 0.18519367E+04</rscale>
<asrwt>0</asrwt>
<pdfrwt beam="1">  1        2 0.22236261E+00 0.18519367E+04</pdfrwt>
<pdfrwt beam="2">  1       -1 0.91264903E-01 0.18519367E+04</pdfrwt>
<totfact> 0.17106353E+01</totfact>
</mgrwt>
</event>
<event>
12    7  0.1701638E-007  0.1949997E+04  0.7818608E-02  0.8630362E-01
         -1   -1    0    0    0  501 -0.00000000000E+00  0.00000000000E+00  0.12721369727E+04  0.12721369727E+04  0.00000000000E+00 0.  1.
          2   -1    0    0  501    0  0.00000000000E+00 -0.00000000000E+00 -0.74726422811E+03  0.74726422811E+03  0.00000000000E+00 0. -1.
         24    2    1    2    0    0 -0.94138611792E+02 -0.59805336138E+03  0.67417748463E+03  0.90954535977E+03  0.78915013792E+02 0.  0.
        254    2    1    2    0    0  0.94138611792E+02  0.59805336138E+03 -0.14930474001E+03  0.11098558411E+04  0.91812754084E+03 0.  0.
         23    2    4    4    0    0  0.37330478440E+03  0.43977419122E+03  0.20885482552E+03  0.62019574856E+03  0.90909994385E+02 0.  0.
         23    2    4    4    0    0 -0.27916617261E+03  0.15827917017E+03 -0.35815956553E+03  0.48966009250E+03  0.92210000340E+02 0.  0.
          2    1    3    3  502    0 -0.97842470216E+02 -0.59467356964E+03  0.67449859153E+03  0.90452095243E+03  0.00000000000E+00 0. -1.
         -1    1    3    3    0  502  0.37038584245E+01 -0.33797917368E+01 -0.32110690204E+00  0.50244073337E+01  0.00000000000E+00 0.  1.
         13    1    5    5    0    0  0.33142443138E+03  0.41312809360E+03  0.16722349833E+03  0.55541036526E+03  0.00000000000E+00 0.  1.
        -13    1    5    5    0    0  0.41880353015E+02  0.26646097616E+02  0.41631327189E+02  0.64785383308E+02  0.00000000000E+00 0. -1.
          4    1    6    6  503    0 -0.42327653499E+02  0.16380844091E+02 -0.12126149474E+02  0.46978780369E+02  0.00000000000E+00 0. -1.
         -4    1    6    6    0  503 -0.23683851911E+03  0.14189832607E+03 -0.34603341606E+03  0.44268131213E+03  0.00000000000E+00 0.  1.
<mgrwt>
<rscale>  0 0.19499974E+04</rscale>
<asrwt>0</asrwt>
<pdfrwt beam="1">  1        2 0.11496373E+00 0.19499974E+04</pdfrwt>
<pdfrwt beam="2">  1       -1 0.19571338E+00 0.19499974E+04</pdfrwt>
<totfact> 0.64650912E+00</totfact>
</mgrwt>
</event>
<event>
12    7  0.1701638E-007  0.1780782E+04  0.7818608E-02  0.8716587E-01
          2   -1    0    0  501    0  0.00000000000E+00  0.00000000000E+00  0.11210811627E+04  0.11210811627E+04  0.00000000000E+00 0. -1.
         -1   -1    0    0    0  501 -0.00000000000E+00 -0.00000000000E+00 -0.70717097220E+03  0.70717097220E+03  0.00000000000E+00 0.  1.
         24    2    1    2    0    0  0.11211963790E+03 -0.19443728679E+03 -0.50513254727E+03  0.55899629518E+03  0.83314440573E+02 0.  0.
        254    2    1    2    0    0 -0.11211963790E+03  0.19443728679E+03  0.91904273778E+03  0.12692558397E+04  0.84616438186E+03 0.  0.
         23    2    4    4    0    0  0.79682893666E+02 -0.37228827571E+02  0.94561109487E+03  0.95368381879E+03  0.87161541571E+02 0.  0.
         23    2    4    4    0    0 -0.19180253157E+03  0.23166611436E+03 -0.26568357088E+02  0.31557202095E+03  0.91773760658E+02 0.  0.
          4    1    3    3  502    0  0.42472138251E+02 -0.13377720377E+02 -0.11427851435E+03  0.12264756325E+03  0.00000000000E+00 0. -1.
         -3    1    3    3    0  502  0.69647499651E+02 -0.18105956642E+03 -0.39085403293E+03  0.43634873193E+03  0.00000000000E+00 0.  1.
         13    1    5    5    0    0 -0.61511881035E+01 -0.60479492884E+01  0.84220210200E+01  0.12055921522E+02  0.00000000000E+00 0.  1.
        -13    1    5    5    0    0  0.85834081769E+02 -0.31180878282E+02  0.93718907385E+03  0.94162789727E+03  0.00000000000E+00 0. -1.
          4    1    6    6  503    0 -0.39120800159E+02  0.11633481869E+03 -0.17856110066E+02  0.12402849557E+03  0.00000000000E+00 0. -1.
         -4    1    6    6    0  503 -0.15268173141E+03  0.11533129567E+03 -0.87122470224E+01  0.19154352538E+03  0.00000000000E+00 0.  1.
<mgrwt>
<rscale>  0 0.17807819E+04</rscale>
<asrwt>0</asrwt>
<pdfrwt beam="1">  1        2 0.17247403E+00 0.17807819E+04</pdfrwt>
<pdfrwt beam="2">  1       -1 0.10879553E+00 0.17807819E+04</pdfrwt>
<totfact> 0.17862845E+01</totfact>
</mgrwt>
</event>
<event>
12    7  0.1701638E-007  0.3911340E+04  0.7818608E-02  0.8022675E-01
         -1   -1    0    0    0  501 -0.00000000000E+00  0.00000000000E+00  0.18829166319E+04  0.18829166319E+04  0.00000000000E+00 0.  1.
          2   -1    0    0  501    0  0.00000000000E+00 -0.00000000000E+00 -0.20312344132E+04  0.20312344132E+04  0.00000000000E+00 0. -1.
         24    2    1    2    0    0 -0.17661732525E+02  0.40574142292E+03  0.17362915350E+04  0.17848949724E+04  0.78763753565E+02 0.  0.
        254    2    1    2    0    0  0.17661732525E+02 -0.40574142292E+03 -0.18846093163E+04  0.21292560728E+04  0.90390326326E+03 0.  0.
         23    2    4    4    0    0 -0.11494378135E+03  0.17151985271E+03 -0.11912424862E+04  0.12124639660E+04  0.91537288591E+02 0.  0.
         23    2    4    4    0    0  0.13260551387E+03 -0.57726127562E+03 -0.69336683008E+03  0.91679210676E+03  0.94527262266E+02 0.  0.
          4    1    3    3  502    0 -0.28596135757E+02  0.18376353520E+03  0.64893617691E+03  0.67505921041E+03  0.00000000000E+00 0. -1.
         -3    1    3    3    0  502  0.10934403232E+02  0.22197788771E+03  0.10873553581E+04  0.11098357620E+04  0.00000000000E+00 0.  1.
         13    1    5    5    0    0 -0.17425494098E+02 -0.97349053487E+01 -0.11425799091E+03  0.11598838181E+03  0.00000000000E+00 0. -1.
        -13    1    5    5    0    0 -0.97518287253E+02  0.18125475805E+03 -0.10769844953E+04  0.10964755842E+04  0.00000000000E+00 0.  1.
          2    1    6    6  503    0 -0.87271811842E+00  0.23067672819E+01 -0.12532085983E+02  0.12772470055E+02  0.00000000000E+00 0. -1.
         -2    1    6    6    0  503  0.13347823199E+03 -0.57956804290E+03 -0.68083474410E+03  0.90401963670E+03  0.00000000000E+00 0.  1.
<mgrwt>
<rscale>  0 0.39113400E+04</rscale>
<asrwt>0</asrwt>
<pdfrwt beam="1">  1        2 0.31249760E+00 0.39113400E+04</pdfrwt>
<pdfrwt beam="2">  1       -1 0.28967948E+00 0.39113400E+04</pdfrwt>
<totfact> 0.22350981E-01</totfact>
</mgrwt>
</event>
<event>
12    7  0.1701638E-007  0.1347165E+04  0.7818608E-02  0.8992977E-01
         -1   -1    0    0    0  501 -0.00000000000E+00  0.00000000000E+00  0.81324401345E+03  0.81324401345E+03  0.00000000000E+00 0.  1.
          2   -1    0    0  501    0  0.00000000000E+00 -0.00000000000E+00 -0.55790544412E+03  0.55790544412E+03  0.00000000000E+00 0. -1.
         24    2    1    2    0    0 -0.11280706823E+02 -0.90647619115E+02 -0.29967894231E+03  0.32316850031E+03  0.79285344985E+02 0.  0.
        254    2    1    2    0    0  0.11280706823E+02  0.90647619115E+02  0.55501751165E+03  0.10479809573E+04  0.88423718727E+03 0.  0.
         23    2    4    4    0    0 -0.99169607068E+02 -0.23410220714E+03 -0.11148568675E+03  0.29288266644E+03  0.93342078397E+02 0.  0.
         23    2    4    4    0    0  0.11045031389E+03  0.32474982625E+03  0.66650319840E+03  0.75509829082E+03  0.91023040113E+02 0.  0.
          4    1    3    3  502    0 -0.27818692393E+02 -0.71509826977E+02 -0.28214364390E+03  0.29239112640E+03  0.00000000000E+00 0. -1.
         -3    1    3    3    0  502  0.16537985569E+02 -0.19137792138E+02 -0.17535298406E+02  0.30777373910E+02  0.00000000000E+00 0.  1.
         13    1    5    5    0    0 -0.52416726882E+02 -0.14899754916E+03 -0.11554001790E+03  0.19569690506E+03  0.00000000000E+00 0. -1.
        -13    1    5    5    0    0 -0.46752880186E+02 -0.85104657973E+02  0.40543311472E+01  0.97185761383E+02  0.00000000000E+00 0.  1.
          1    1    6    6  503    0  0.42549351405E+02  0.25041473753E+03  0.46551146026E+03  0.53030077099E+03  0.00000000000E+00 0. -1.
         -1    1    6    6    0  503  0.67900962487E+02  0.74335088724E+02  0.20099173813E+03  0.22479751983E+03  0.00000000000E+00 0.  1.
<mgrwt>
<rscale>  0 0.13471648E+04</rscale>
<asrwt>0</asrwt>
<pdfrwt beam="1">  1        2 0.85831607E-01 0.13471648E+04</pdfrwt>
<pdfrwt beam="2">  1       -1 0.12511446E+00 0.13471648E+04</pdfrwt>
<totfact> 0.33760625E+01</totfact>
</mgrwt>
</event>
<event>
12    7  0.2026800E-007  0.2125295E+04  0.7818608E-02  0.8550182E-01
          2   -1    0    0  501    0  0.00000000000E+00  0.00000000000E+00  0.11863659377E+04  0.11863659377E+04  0.00000000000E+00 0. -1.
         -1   -1    0    0    0  501 -0.00000000000E+00 -0.00000000000E+00 -0.95183120009E+03  0.95183120009E+03  0.00000000000E+00 0.  1.
         24    2    1    2    0    0 -0.19938205209E+02  0.57379901806E+03 -0.55691759567E+03  0.80381332451E+03  0.79472052625E+02 0.  0.
        254    2    1    2    0    0  0.19938205209E+02 -0.57379901806E+03  0.79145233326E+03  0.13343838133E+04  0.90804213566E+03 0.  0.
         23    2    4    4    0    0 -0.10099136324E+03 -0.74308544751E+03  0.33888328256E+03  0.82795163746E+03  0.91031846191E+02 0.  0.
         23    2    4    4    0    0  0.12092956845E+03  0.16928642945E+03  0.45256905070E+03  0.50643217581E+03  0.91503810398E+02 0.  0.
          2    1    3    3  502    0  0.15980017064E+00  0.11575883677E+03 -0.15939461694E+03  0.19699435966E+03  0.00000000000E+00 0. -1.
         -1    1    3    3    0  502 -0.20098005380E+02  0.45804018129E+03 -0.39752297873E+03  0.60681896486E+03  0.00000000000E+00 0.  1.
         13    1    5    5    0    0  0.31248693442E-01 -0.21406778192E+03  0.64897255270E+02  0.22368877928E+03  0.00000000000E+00 0. -1.
        -13    1    5    5    0    0 -0.10102261193E+03 -0.52901766559E+03  0.27398602729E+03  0.60426285818E+03  0.00000000000E+00 0.  1.
          1    1    6    6  503    0 -0.11126264112E+02  0.17921447263E+02  0.84760973408E+02  0.87346405983E+02  0.00000000000E+00 0. -1.
         -1    1    6    6    0  503  0.13205583256E+03  0.15136498219E+03  0.36780807729E+03  0.41908576982E+03  0.00000000000E+00 0.  1.
<mgrwt>
<rscale>  0 0.21252954E+04</rscale>
<asrwt>0</asrwt>
<pdfrwt beam="1">  1        2 0.18251784E+00 0.21252954E+04</pdfrwt>
<pdfrwt beam="2">  1       -1 0.14643557E+00 0.21252954E+04</pdfrwt>
<totfact> 0.75321305E+00</totfact>
</mgrwt>
</event>
<event>
12    7  0.1701638E-007  0.2366339E+04  0.7818608E-02  0.8452214E-01
         -1   -1    0    0    0  501 -0.00000000000E+00  0.00000000000E+00  0.13714308786E+04  0.13714308786E+04  0.00000000000E+00 0.  1.
          2   -1    0    0  501    0  0.00000000000E+00 -0.00000000000E+00 -0.10207513448E+04  0.10207513448E+04  0.00000000000E+00 0. -1.
         24    2    1    2    0    0 -0.16585080589E+03  0.38390866321E+03 -0.78283801569E+03  0.89101942894E+03  0.78663285110E+02 0.  0.
        254    2    1    2    0    0  0.16585080589E+03 -0.38390866321E+03  0.11335175496E+04  0.15011627944E+04  0.89091826155E+03 0.  0.
         23    2    4    4    0    0 -0.27605376249E+03 -0.33999459431E+03  0.26067009767E+03  0.51772287544E+03  0.91027863833E+02 0.  0.
         23    2    4    4    0    0  0.44190456838E+03 -0.43914068904E+02  0.87284745188E+03  0.98343991900E+03  0.89907213374E+02 0.  0.
          4    1    3    3  502    0 -0.16042144216E+03  0.31465106813E+03 -0.61206289753E+03  0.70665502497E+03  0.00000000000E+00 0. -1.
         -1    1    3    3    0  502 -0.54293637314E+01  0.69257595081E+02 -0.17077511816E+03  0.18436440396E+03  0.00000000000E+00 0.  1.
         13    1    5    5    0    0 -0.54282493957E+02 -0.12401032849E+03  0.10438334120E+03  0.17094160595E+03  0.00000000000E+00 0. -1.
        -13    1    5    5    0    0 -0.22177126853E+03 -0.21598426581E+03  0.15628675647E+03  0.34678126949E+03  0.00000000000E+00 0.  1.
          1    1    6    6  503    0  0.82370987036E+02 -0.66850897050E+01  0.25003742303E+03  0.26334081121E+03  0.00000000000E+00 0. -1.
         -1    1    6    6    0  503  0.35953358135E+03 -0.37228979199E+02  0.62281002885E+03  0.72009910779E+03  0.00000000000E+00 0.  1.
<mgrwt>
<rscale>  0 0.23663389E+04</rscale>
<asrwt>0</asrwt>
<pdfrwt beam="1">  1        2 0.15703867E+00 0.23663389E+04</pdfrwt>
<pdfrwt beam="2">  1       -1 0.21098937E+00 0.23663389E+04</pdfrwt>
<totfact> 0.31793050E+00</totfact>
</mgrwt>
</event>
<event>
12    7  0.1701638E-007  0.1884805E+04  0.7818608E-02  0.8662457E-01
         -1   -1    0    0    0  501 -0.00000000000E+00  0.00000000000E+00  0.12256877030E+04  0.12256877030E+04  0.00000000000E+00 0.  1.
          2   -1    0    0  501    0  0.00000000000E+00 -0.00000000000E+00 -0.72459147657E+03  0.72459147657E+03  0.00000000000E+00 0. -1.
         24    2    1    2    0    0 -0.46539506373E+03  0.27048996971E+03 -0.28561033474E+03  0.61454690398E+03  0.79606813866E+02 0.  0.
        254    2    1    2    0    0  0.46539506373E+03 -0.27048996971E+03  0.78670656114E+03  0.13357322756E+04  0.93569017819E+03 0.  0.
         23    2    4    4    0    0  0.14771977337E+03  0.27763776739E+03  0.62930518074E+01  0.32648200271E+03  0.87447322788E+02 0.  0.
         23    2    4    4    0    0  0.31767529036E+03 -0.54812773710E+03  0.78041350934E+03  0.10092502729E+04  0.90439269193E+02 0.  0.
          2    1    3    3  502    0 -0.41477112589E+03  0.21004310983E+03 -0.25212144359E+03  0.52888412453E+03  0.00000000000E+00 0. -1.
         -1    1    3    3    0  502 -0.50623937839E+02  0.60446859880E+02 -0.33488891152E+02  0.85662779445E+02  0.00000000000E+00 0.  1.
         13    1    5    5    0    0  0.15857362226E+03  0.26447290427E+03  0.11678060584E+02  0.30859016166E+03  0.00000000000E+00 0.  1.
        -13    1    5    5    0    0 -0.10853848890E+02  0.13164863119E+02 -0.53850087767E+01  0.17891841051E+02  0.00000000000E+00 0. -1.
          3    1    6    6  503    0  0.37262867120E+02 -0.21156217030E+02  0.46627614686E+02  0.63326465529E+02  0.00000000000E+00 0. -1.
         -3    1    6    6    0  503  0.28041242324E+03 -0.52697152007E+03  0.73378589465E+03  0.94592380732E+03  0.00000000000E+00 0.  1.
<mgrwt>
<rscale>  0 0.18848054E+04</rscale>
<asrwt>0</asrwt>
<pdfrwt beam="1">  1        2 0.11147561E+00 0.18848054E+04</pdfrwt>
<pdfrwt beam="2">  1       -1 0.18856734E+00 0.18848054E+04</pdfrwt>
<totfact> 0.75897512E+00</totfact>
</mgrwt>
</event>
<event>
12    7  0.1701638E-007  0.2212872E+04  0.7818608E-02  0.8513090E-01
         -1   -1    0    0    0  501 -0.00000000000E+00  0.00000000000E+00  0.76631859219E+03  0.76631859219E+03  0.00000000000E+00 0.  1.
          2   -1    0    0  501    0  0.00000000000E+00 -0.00000000000E+00 -0.15975084343E+04  0.15975084343E+04  0.00000000000E+00 0. -1.
         24    2    1    2    0    0  0.15799669796E+03  0.45433044215E+03 -0.11733135581E+04  0.12706209293E+04  0.80210555564E+02 0.  0.
        254    2    1    2    0    0 -0.15799669796E+03 -0.45433044215E+03  0.34212371598E+03  0.10932060972E+04  0.92014771999E+03 0.  0.
         23    2    4    4    0    0  0.10762186363E+03 -0.17090905983E+03 -0.27815849079E+03  0.35566239054E+03  0.91275504800E+02 0.  0.
         23    2    4    4    0    0 -0.26561856160E+03 -0.28342138233E+03  0.62028220677E+03  0.73754370662E+03  0.91322521418E+02 0.  0.
          4    1    3    3  502    0  0.16547017601E+03  0.43918782837E+03 -0.11475844490E+04  0.12398453110E+04  0.00000000000E+00 0. -1.
         -1    1    3    3    0  502 -0.74734780468E+01  0.15142613781E+02 -0.25729109089E+02  0.30775618283E+02  0.00000000000E+00 0.  1.
         13    1    5    5    0    0  0.34530525691E+02 -0.94330088113E+01 -0.91514217488E+02  0.98265919129E+02  0.00000000000E+00 0.  1.
        -13    1    5    5    0    0  0.73091337944E+02 -0.16147605102E+03 -0.18664427331E+03  0.25739647141E+03  0.00000000000E+00 0. -1.
          3    1    6    6  503    0 -0.17918496927E+03 -0.24604204329E+03  0.45795460013E+03  0.54987849209E+03  0.00000000000E+00 0. -1.
         -3    1    6    6    0  503 -0.86433592328E+02 -0.37379339035E+02  0.16232760664E+03  0.18766521454E+03  0.00000000000E+00 0.  1.
<mgrwt>
<rscale>  0 0.22128718E+04</rscale>
<asrwt>0</asrwt>
<pdfrwt beam="1">  1        2 0.24577053E+00 0.22128718E+04</pdfrwt>
<pdfrwt beam="2">  1       -1 0.11789517E+00 0.22128718E+04</pdfrwt>
<totfact> 0.75213091E+00</totfact>
</mgrwt>
</event>
<event>
12    7  0.1701638E-007  0.1865998E+04  0.7818608E-02  0.8671969E-01
         -1   -1    0    0    0  501 -0.00000000000E+00  0.00000000000E+00  0.52878658937E+03  0.52878658937E+03  0.00000000000E+00 0.  1.
          2   -1    0    0  501    0  0.00000000000E+00 -0.00000000000E+00 -0.16461980434E+04  0.16461980434E+04  0.00000000000E+00 0. -1.
         24    2    1    2    0    0 -0.98109303554E+02  0.70136792920E+03 -0.45889414832E+03  0.84787500690E+03  0.82254364030E+02 0.  0.
        254    2    1    2    0    0  0.98109303554E+02 -0.70136792920E+03 -0.65851730576E+03  0.13271096259E+04  0.90886330637E+03 0.  0.
         23    2    4    4    0    0 -0.13401102042E+03 -0.69389412326E+03 -0.10608081299E+03  0.72057807492E+03  0.92366743368E+02 0.  0.
         23    2    4    4    0    0  0.23212032397E+03 -0.74738059405E+01 -0.55243649277E+03  0.60653155100E+03  0.93588146892E+02 0.  0.
          4    1    3    3  502    0  0.85187249856E+01  0.34273366812E+02 -0.97684698810E+01  0.36642261827E+02  0.00000000000E+00 0. -1.
         -1    1    3    3    0  502 -0.10662802854E+03  0.66709456239E+03 -0.44912567844E+03  0.81123274507E+03  0.00000000000E+00 0.  1.
         13    1    5    5    0    0  0.59705380094E+01 -0.14104488772E+03 -0.40639211443E+01  0.14122968219E+03  0.00000000000E+00 0. -1.
        -13    1    5    5    0    0 -0.13998155842E+03 -0.55284923554E+03 -0.10201689184E+03  0.57934839273E+03  0.00000000000E+00 0.  1.
          4    1    6    6  503    0  0.52096000344E+02  0.34738989353E+02 -0.10293631575E+03  0.12048516810E+03  0.00000000000E+00 0. -1.
         -4    1    6    6    0  503  0.18002432363E+03 -0.42212795294E+02 -0.44950017703E+03  0.48604638290E+03  0.00000000000E+00 0.  1.
<mgrwt>
<rscale>  0 0.18659983E+04</rscale>
<asrwt>0</asrwt>
<pdfrwt beam="1">  1        2 0.25326124E+00 0.18659983E+04</pdfrwt>
<pdfrwt beam="2">  1       -1 0.81351783E-01 0.18659983E+04</pdfrwt>
<totfact> 0.16917565E+01</totfact>
</mgrwt>
</event>
<event>
12    7  0.1701638E-007  0.1403472E+04  0.7818608E-02  0.8951309E-01
          2   -1    0    0  501    0  0.00000000000E+00  0.00000000000E+00  0.23511493401E+04  0.23511493401E+04  0.00000000000E+00 0. -1.
         -1   -1    0    0    0  501 -0.00000000000E+00 -0.00000000000E+00 -0.20944361395E+03  0.20944361395E+03  0.00000000000E+00 0.  1.
         24    2    1    2    0    0  0.14968222989E+02  0.23948002752E+03  0.13027470229E+04  0.13271285635E+04  0.80905419821E+02 0.  0.
        254    2    1    2    0    0 -0.14968222989E+02 -0.23948002752E+03  0.83895870323E+03  0.12334643906E+04  0.87178435741E+03 0.  0.
         23    2    4    4    0    0 -0.20683651777E+03 -0.19833327053E+02 -0.99873129503E+02  0.24629757797E+03  0.86678422769E+02 0.  0.
         23    2    4    4    0    0  0.19186829478E+03 -0.21964670046E+03  0.93883183274E+03  0.98716681261E+03  0.89638106831E+02 0.  0.
          2    1    3    3  502    0  0.30678991376E+02  0.22093372930E+03  0.12387393818E+04  0.12586612608E+04  0.00000000000E+00 0. -1.
         -1    1    3    3    0  502 -0.15710768387E+02  0.18546298220E+02  0.64007641081E+02  0.68467302691E+02  0.00000000000E+00 0.  1.
         13    1    5    5    0    0 -0.17394023328E+03 -0.16668808479E+02 -0.42095630595E+02  0.17973618458E+03  0.00000000000E+00 0. -1.
        -13    1    5    5    0    0 -0.32896284483E+02 -0.31645185738E+01 -0.57777498907E+02  0.66561393394E+02  0.00000000000E+00 0.  1.
          1    1    6    6  503    0  0.68379438098E+02 -0.10144940818E+03  0.26317711377E+03  0.29022391904E+03  0.00000000000E+00 0. -1.
         -1    1    6    6    0  503  0.12348885668E+03 -0.11819729228E+03  0.67565471897E+03  0.69694289357E+03  0.00000000000E+00 0.  1.
<mgrwt>
<rscale>  0 0.14034717E+04</rscale>
<asrwt>0</asrwt>
<pdfrwt beam="1">  1        2 0.36171526E+00 0.14034717E+04</pdfrwt>
<pdfrwt beam="2">  1       -1 0.32222096E-01 0.14034717E+04</pdfrwt>
<totfact> 0.42365593E+01</totfact>
</mgrwt>
</event>
<event>
12    7  0.1701638E-007  0.4017162E+04  0.7818608E-02  0.8001093E-01
         -1   -1    0    0    0  501 -0.00000000000E+00  0.00000000000E+00  0.17470997776E+04  0.17470997776E+04  0.00000000000E+00 0.  1.
          2   -1    0    0  501    0  0.00000000000E+00 -0.00000000000E+00 -0.23091970966E+04  0.23091970966E+04  0.00000000000E+00 0. -1.
         24    2    1    2    0    0  0.18209866715E+04 -0.22486592258E+03  0.26415905296E+03  0.18553995023E+04  0.78550409892E+02 0.  0.
        254    2    1    2    0    0 -0.18209866715E+04  0.22486592258E+03 -0.82625637191E+03  0.22008973719E+04  0.89145527576E+03 0.  0.
         23    2    4    4    0    0 -0.13235753058E+04  0.24674059735E+03 -0.98416216306E+03  0.16701989669E+04  0.90867559987E+02 0.  0.
         23    2    4    4    0    0 -0.49741136567E+03 -0.21874674774E+02  0.15790579114E+03  0.53069840496E+03  0.93861547273E+02 0.  0.
          2    1    3    3  502    0  0.87568096080E+03 -0.74103995669E+02  0.14662168180E+03  0.89095817233E+03  0.00000000000E+00 0. -1.
         -1    1    3    3    0  502  0.94530571068E+03 -0.15076192691E+03  0.11753737116E+03  0.96444132993E+03  0.00000000000E+00 0.  1.
         13    1    5    5    0    0 -0.17377886239E+03  0.19309028631E+02 -0.94759697196E+02  0.19887516641E+03  0.00000000000E+00 0.  1.
        -13    1    5    5    0    0 -0.11497964434E+04  0.22743156872E+03 -0.88940246586E+03  0.14713238005E+04  0.00000000000E+00 0. -1.
          1    1    6    6  503    0 -0.42140053837E+03  0.72128717652E+01  0.15563572100E+03  0.44928044349E+03  0.00000000000E+00 0. -1.
         -1    1    6    6    0  503 -0.76010827300E+02 -0.29087546540E+02  0.22700701460E+01  0.81417961464E+02  0.00000000000E+00 0.  1.
<mgrwt>
<rscale>  0 0.40171620E+04</rscale>
<asrwt>0</asrwt>
<pdfrwt beam="1">  1        2 0.35526109E+00 0.40171620E+04</pdfrwt>
<pdfrwt beam="2">  1       -1 0.26878458E+00 0.40171620E+04</pdfrwt>
<totfact> 0.21112611E-01</totfact>
</mgrwt>
</event>
<event>
12    7  0.1701638E-007  0.2021406E+04  0.7818608E-02  0.8596677E-01
         -1   -1    0    0    0  501 -0.00000000000E+00  0.00000000000E+00  0.45535578394E+03  0.45535578394E+03  0.00000000000E+00 0.  1.
          2   -1    0    0  501    0  0.00000000000E+00 -0.00000000000E+00 -0.22433467337E+04  0.22433467337E+04  0.00000000000E+00 0. -1.
         24    2    1    2    0    0  0.33206230339E+01  0.58300437002E+03 -0.14752884468E+04  0.15882637638E+04  0.78744270243E+02 0.  0.
        254    2    1    2    0    0 -0.33206230339E+01 -0.58300437002E+03 -0.31270250297E+03  0.11104387539E+04  0.89184429622E+03 0.  0.
         23    2    4    4    0    0  0.13060625064E+03 -0.38601232999E+03  0.25438816081E+03  0.48882971669E+03  0.90430326486E+02 0.  0.
         23    2    4    4    0    0 -0.13392687368E+03 -0.19699204003E+03 -0.56709066378E+03  0.62160903716E+03  0.89798122486E+02 0.  0.
          2    1    3    3  502    0  0.36409796871E+02  0.23214132158E+03 -0.63384552213E+03  0.67599956539E+03  0.00000000000E+00 0. -1.
         -1    1    3    3    0  502 -0.33089173838E+02  0.35086304844E+03 -0.84144292468E+03  0.91226419840E+03  0.00000000000E+00 0.  1.
         13    1    5    5    0    0  0.31748776309E+02 -0.94977843096E+02  0.19587546117E+02  0.10204140061E+03  0.00000000000E+00 0. -1.
        -13    1    5    5    0    0  0.98857474334E+02 -0.29103448689E+03  0.23480061470E+03  0.38678831608E+03  0.00000000000E+00 0.  1.
          1    1    6    6  503    0 -0.46334492993E+01  0.44563836400E+01 -0.65653870767E+02  0.65967863042E+02  0.00000000000E+00 0. -1.
         -1    1    6    6    0  503 -0.12929342438E+03 -0.20144842367E+03 -0.50143679302E+03  0.55564117412E+03  0.00000000000E+00 0.  1.
<mgrwt>
<rscale>  0 0.20214064E+04</rscale>
<asrwt>0</asrwt>
<pdfrwt beam="1">  1        2 0.34513026E+00 0.20214064E+04</pdfrwt>
<pdfrwt beam="2">  1       -1 0.70054737E-01 0.20214064E+04</pdfrwt>
<totfact> 0.10616634E+01</totfact>
</mgrwt>
</event>
<event>
12    7  0.1701638E-007  0.2179075E+04  0.7818608E-02  0.8527188E-01
          2   -1    0    0  501    0  0.00000000000E+00  0.00000000000E+00  0.18254342846E+04  0.18254342846E+04  0.00000000000E+00 0. -1.
         -1   -1    0    0    0  501 -0.00000000000E+00 -0.00000000000E+00 -0.65030654596E+03  0.65030654596E+03  0.00000000000E+00 0.  1.
         24    2    1    2    0    0  0.60359544091E+03  0.25678839179E+02 -0.27186376058E+03  0.66748830159E+03  0.81509934232E+02 0.  0.
        254    2    1    2    0    0 -0.60359544091E+03 -0.25678839179E+02  0.14469914993E+04  0.18082525290E+04  0.90055868805E+03 0.  0.
         23    2    4    4    0    0 -0.36804944789E+03  0.40560306560E+03  0.96776128863E+03  0.11157163203E+04  0.91031603016E+02 0.  0.
         23    2    4    4    0    0 -0.23554599302E+03 -0.43128190478E+03  0.47923021063E+03  0.69253620868E+03  0.91971785530E+02 0.  0.
          2    1    3    3  502    0  0.58565107784E+03  0.31293822389E+02 -0.24714982538E+03  0.63643501198E+03  0.00000000000E+00 0. -1.
         -1    1    3    3    0  502  0.17944363072E+02 -0.56149832092E+01 -0.24713935203E+02  0.31053289612E+02  0.00000000000E+00 0.  1.
         13    1    5    5    0    0 -0.13440898883E+03  0.14395686291E+03  0.43932504594E+03  0.48145181550E+03  0.00000000000E+00 0.  1.
        -13    1    5    5    0    0 -0.23364045906E+03  0.26164620268E+03  0.52843624269E+03  0.63426450482E+03  0.00000000000E+00 0. -1.
          1    1    6    6  503    0 -0.11432165420E+03 -0.29035263066E+03  0.32980013177E+03  0.45402887316E+03  0.00000000000E+00 0. -1.
         -1    1    6    6    0  503 -0.12122433883E+03 -0.14092927411E+03  0.14943007886E+03  0.23850733551E+03  0.00000000000E+00 0.  1.
<mgrwt>
<rscale>  0 0.21790749E+04</rscale>
<asrwt>0</asrwt>
<pdfrwt beam="1">  1        2 0.28083604E+00 0.21790749E+04</pdfrwt>
<pdfrwt beam="2">  1       -1 0.10004716E+00 0.21790749E+04</pdfrwt>
<totfact> 0.82899549E+00</totfact>
</mgrwt>
</event>
<event>
12    7  0.1701638E-007  0.2287287E+04  0.7818608E-02  0.8482951E-01
         -1   -1    0    0    0  501 -0.00000000000E+00  0.00000000000E+00  0.70594169247E+03  0.70594169247E+03  0.00000000000E+00 0.  1.
          2   -1    0    0  501    0  0.00000000000E+00 -0.00000000000E+00 -0.18527308075E+04  0.18527308075E+04  0.00000000000E+00 0. -1.
         24    2    1    2    0    0  0.30649996371E+03  0.62487341196E+03 -0.12262241169E+04  0.14123380477E+04  0.81634351853E+02 0.  0.
        254    2    1    2    0    0 -0.30649996371E+03 -0.62487341196E+03  0.79435001809E+02  0.11463344523E+04  0.90739393228E+03 0.  0.
         23    2    4    4    0    0  0.95053336938E+02 -0.82574847868E+02  0.37353306126E+03  0.40460083178E+03  0.91220298496E+02 0.  0.
         23    2    4    4    0    0 -0.40155330065E+03 -0.54229856410E+03 -0.29409805945E+03  0.74173362054E+03  0.91336243547E+02 0.  0.
          2    1    3    3  502    0  0.17820616729E+03  0.33305307015E+03 -0.58693404896E+03  0.69797805369E+03  0.00000000000E+00 0. -1.
         -1    1    3    3    0  502  0.12829379642E+03  0.29182034181E+03 -0.63929006790E+03  0.71435999399E+03  0.00000000000E+00 0.  1.
         13    1    5    5    0    0  0.55403607354E+02 -0.84203712626E+02  0.33281587069E+03  0.34774448768E+03  0.00000000000E+00 0.  1.
        -13    1    5    5    0    0  0.39649729585E+02  0.16288647582E+01  0.40717190574E+02  0.56856344104E+02  0.00000000000E+00 0. -1.
          1    1    6    6  503    0 -0.29403150272E+03 -0.38053670380E+03 -0.16460322785E+03  0.50828823531E+03  0.00000000000E+00 0. -1.
         -1    1    6    6    0  503 -0.10752179793E+03 -0.16176186029E+03 -0.12949483160E+03  0.23344538523E+03  0.00000000000E+00 0.  1.
<mgrwt>
<rscale>  0 0.22872865E+04</rscale>
<asrwt>0</asrwt>
<pdfrwt beam="1">  1        2 0.28503550E+00 0.22872865E+04</pdfrwt>
<pdfrwt beam="2">  1       -1 0.10860642E+00 0.22872865E+04</pdfrwt>
<totfact> 0.65543333E+00</totfact>
</mgrwt>
</event>
<event>
12    7  0.1701638E-007  0.1086388E+04  0.7818608E-02  0.9218562E-01
          2   -1    0    0  501    0  0.00000000000E+00  0.00000000000E+00  0.15931463824E+04  0.15931463824E+04  0.00000000000E+00 0. -1.
         -1   -1    0    0    0  501 -0.00000000000E+00 -0.00000000000E+00 -0.18520549661E+03  0.18520549661E+03  0.00000000000E+00 0.  1.
         24    2    1    2    0    0 -0.35763846592E+02  0.14203590585E+03  0.22038017917E+03  0.27657937252E+03  0.80470334020E+02 0.  0.
        254    2    1    2    0    0  0.35763846592E+02 -0.14203590585E+03  0.11875607067E+04  0.15017725065E+04  0.90750591077E+03 0.  0.
         23    2    4    4    0    0  0.12215285163E+03 -0.26140482337E+03  0.19060218897E+00  0.30184337131E+03  0.88631730414E+02 0.  0.
         23    2    4    4    0    0 -0.86389005040E+02  0.11936891751E+03  0.11873701045E+04  0.11999291352E+04  0.90940452366E+02 0.  0.
          4    1    3    3  502    0 -0.60314967708E+02  0.10320173534E+03  0.14088203499E+03  0.18475995586E+03  0.00000000000E+00 0. -1.
         -3    1    3    3    0  502  0.24551121116E+02  0.38834170515E+02  0.79498144175E+02  0.91819416655E+02  0.00000000000E+00 0.  1.
         13    1    5    5    0    0  0.42382786386E+02 -0.43680947562E+02 -0.30268603906E+02  0.67974363875E+02  0.00000000000E+00 0.  1.
        -13    1    5    5    0    0  0.79770065245E+02 -0.21772387580E+03  0.30459206095E+02  0.23386900744E+03  0.00000000000E+00 0. -1.
          1    1    6    6  503    0 -0.24501648227E+02  0.80219521430E+02  0.37505685126E+03  0.38432166744E+03  0.00000000000E+00 0. -1.
         -1    1    6    6    0  503 -0.61887356813E+02  0.39149396085E+02  0.81231325321E+03  0.81560746777E+03  0.00000000000E+00 0.  1.
<mgrwt>
<rscale>  0 0.10863875E+04</rscale>
<asrwt>0</asrwt>
<pdfrwt beam="1">  1        2 0.24509943E+00 0.10863875E+04</pdfrwt>
<pdfrwt beam="2">  1       -1 0.28493154E-01 0.10863875E+04</pdfrwt>
<totfact> 0.14218390E+02</totfact>
</mgrwt>
</event>
<event>
12    7  0.1701638E-007  0.2239609E+04  0.7818608E-02  0.8502121E-01
         -1   -1    0    0    0  501 -0.00000000000E+00  0.00000000000E+00  0.67038424130E+03  0.67038424130E+03  0.00000000000E+00 0.  1.
          2   -1    0    0  501    0  0.00000000000E+00 -0.00000000000E+00 -0.18705118584E+04  0.18705118584E+04  0.00000000000E+00 0. -1.
         24    2    1    2    0    0 -0.22159766981E+03  0.17522568544E+03  0.51017511873E+03  0.58859404798E+03  0.79716581989E+02 0.  0.
        254    2    1    2    0    0  0.22159766981E+03 -0.17522568544E+03 -0.17103027359E+04  0.19523020518E+04  0.89807476574E+03 0.  0.
         23    2    4    4    0    0  0.10240776089E+03 -0.47524475733E+03 -0.52836930257E+03  0.72381271950E+03  0.91574036473E+02 0.  0.
         23    2    4    4    0    0  0.11918990893E+03  0.30001907188E+03 -0.11819334333E+04  0.12284893323E+04  0.89452338355E+02 0.  0.
          4    1    3    3  502    0 -0.25556592507E+02  0.35795316066E+02  0.35816625364E+02  0.56721025425E+02  0.00000000000E+00 0. -1.
         -3    1    3    3    0  502 -0.19604107731E+03  0.13943036938E+03  0.47435849336E+03  0.53187302256E+03  0.00000000000E+00 0.  1.
         13    1    5    5    0    0  0.59946823851E+02 -0.42364147568E+03 -0.45884335081E+03  0.62737783049E+03  0.00000000000E+00 0.  1.
        -13    1    5    5    0    0  0.42460937036E+02 -0.51603281650E+02 -0.69525951763E+02  0.96434889016E+02  0.00000000000E+00 0. -1.
          3    1    6    6  503    0  0.52616413935E+02  0.14676354640E+03 -0.40917044033E+03  0.43786810207E+03  0.00000000000E+00 0. -1.
         -3    1    6    6    0  503  0.66573494990E+02  0.15325552548E+03 -0.77276299296E+03  0.79062123019E+03  0.00000000000E+00 0.  1.
<mgrwt>
<rscale>  0 0.22396086E+04</rscale>
<asrwt>0</asrwt>
<pdfrwt beam="1">  1        2 0.28777105E+00 0.22396086E+04</pdfrwt>
<pdfrwt beam="2">  1       -1 0.10313604E+00 0.22396086E+04</pdfrwt>
<totfact> 0.72584513E+00</totfact>
</mgrwt>
</event>
<event>
12    7  0.1701638E-007  0.2010673E+04  0.7818608E-02  0.8601647E-01
         -1   -1    0    0    0  501 -0.00000000000E+00  0.00000000000E+00  0.42438890685E+03  0.42438890685E+03  0.00000000000E+00 0.  1.
          2   -1    0    0  501    0  0.00000000000E+00 -0.00000000000E+00 -0.23815455358E+04  0.23815455358E+04  0.00000000000E+00 0. -1.
         24    2    1    2    0    0 -0.15942199299E+03 -0.51370825965E+03  0.48959721741E+02  0.54577031300E+03  0.78464210388E+02 0.  0.
        254    2    1    2    0    0  0.15942199299E+03  0.51370825965E+03 -0.20061163507E+04  0.22601641297E+04  0.89136273904E+03 0.  0.
         23    2    4    4    0    0  0.34110782210E+03  0.66701153471E+03 -0.17136222702E+04  0.18725603173E+04  0.93391236343E+02 0.  0.
         23    2    4    4    0    0 -0.18168582912E+03 -0.15330327506E+03 -0.29249408049E+03  0.38760381241E+03  0.90400739078E+02 0.  0.
          2    1    3    3  502    0 -0.24152999276E+02 -0.10838684269E+03  0.41079461314E+02  0.11840015702E+03  0.00000000000E+00 0. -1.
         -1    1    3    3    0  502 -0.13526899371E+03 -0.40532141697E+03  0.78802604274E+01  0.42737015597E+03  0.00000000000E+00 0.  1.
         13    1    5    5    0    0  0.24027251892E+03  0.55123151569E+03 -0.13781030172E+04  0.15035807239E+04  0.00000000000E+00 0.  1.
        -13    1    5    5    0    0  0.10083530318E+03  0.11578001903E+03 -0.33551925299E+03  0.36897959334E+03  0.00000000000E+00 0. -1.
          1    1    6    6  503    0 -0.81095219974E+02 -0.12293967388E+03 -0.19412564257E+03  0.24367060393E+03  0.00000000000E+00 0.  1.
         -1    1    6    6    0  503 -0.10059060914E+03 -0.30363601184E+02 -0.98368437920E+02  0.14393320848E+03  0.00000000000E+00 0. -1.
<mgrwt>
<rscale>  0 0.20106730E+04</rscale>
<asrwt>0</asrwt>
<pdfrwt beam="1">  1        2 0.36639162E+00 0.20106730E+04</pdfrwt>
<pdfrwt beam="2">  1       -1 0.65290602E-01 0.20106730E+04</pdfrwt>
<totfact> 0.10239246E+01</totfact>
</mgrwt>
</event>
<event>
12    7  0.1701638E-007  0.2334954E+04  0.7818608E-02  0.8464265E-01
         -1   -1    0    0    0  501 -0.00000000000E+00  0.00000000000E+00  0.63100463268E+03  0.63100463268E+03  0.00000000000E+00 0.  1.
          2   -1    0    0  501    0  0.00000000000E+00 -0.00000000000E+00 -0.21600510219E+04  0.21600510219E+04  0.00000000000E+00 0. -1.
         24    2    1    2    0    0  0.39808502464E+03 -0.69290007220E+03  0.52632124502E+02  0.80475440086E+03  0.79229466039E+02 0.  0.
        254    2    1    2    0    0 -0.39808502464E+03  0.69290007220E+03 -0.15816785137E+04  0.19863012537E+04  0.89727562814E+03 0.  0.
         23    2    4    4    0    0 -0.44441644547E+03  0.86366307628E+03 -0.14481273226E+04  0.17460827261E+04  0.91171583404E+02 0.  0.
         23    2    4    4    0    0  0.46331420827E+02 -0.17076300408E+03 -0.13355119105E+03  0.24021852755E+03  0.92533324975E+02 0.  0.
          2    1    3    3  502    0  0.25823729724E+03 -0.37061849468E+03  0.28570365114E+02  0.45261554994E+03  0.00000000000E+00 0. -1.
         -1    1    3    3    0  502  0.13984772740E+03 -0.32228157751E+03  0.24061759388E+02  0.35213885092E+03  0.00000000000E+00 0.  1.
         13    1    5    5    0    0 -0.42931157397E+03  0.77846081801E+03 -0.13242929600E+04  0.15950114471E+04  0.00000000000E+00 0. -1.
        -13    1    5    5    0    0 -0.15104871495E+02  0.85202258269E+02 -0.12383436267E+03  0.15107127899E+03  0.00000000000E+00 0.  1.
          1    1    6    6  503    0  0.65232628319E+02 -0.68752721415E+02 -0.50927265139E+02  0.10759097933E+03  0.00000000000E+00 0. -1.
         -1    1    6    6    0  503 -0.18901207492E+02 -0.10201028267E+03 -0.82623925909E+02  0.13262754822E+03  0.00000000000E+00 0.  1.
<mgrwt>
<rscale>  0 0.23349537E+04</rscale>
<asrwt>0</asrwt>
<pdfrwt beam="1">  1        2 0.33231554E+00 0.23349537E+04</pdfrwt>
<pdfrwt beam="2">  1       -1 0.97077637E-01 0.23349537E+04</pdfrwt>
<totfact> 0.57035299E+00</totfact>
</mgrwt>
</event>
<event>
12    7  0.1701638E-007  0.2205505E+04  0.7818608E-02  0.8516140E-01
         -1   -1    0    0    0  501 -0.00000000000E+00  0.00000000000E+00  0.38545704620E+03  0.38545704620E+03  0.00000000000E+00 0.  1.
          2   -1    0    0  501    0  0.00000000000E+00 -0.00000000000E+00 -0.31548610088E+04  0.31548610088E+04  0.00000000000E+00 0. -1.
         24    2    1    2    0    0  0.16924339663E+03  0.62382839278E+03 -0.11380199474E+03  0.66084870510E+03  0.77232933906E+02 0.  0.
        254    2    1    2    0    0 -0.16924339663E+03 -0.62382839278E+03 -0.26556019679E+04  0.28794693499E+04  0.90626526712E+03 0.  0.
         23    2    4    4    0    0  0.28692125261E+03 -0.32549983616E+03 -0.57509570234E+03  0.72680710119E+03  0.96122562191E+02 0.  0.
         23    2    4    4    0    0 -0.45616464924E+03 -0.29832855662E+03 -0.20805062655E+04  0.21526622487E+04  0.91445728293E+02 0.  0.
          2    1    3    3  502    0 -0.50944393968E+01  0.10917855127E+02 -0.90610672685E+01  0.15075006248E+02  0.00000000000E+00 0. -1.
         -1    1    3    3    0  502  0.17433783603E+03  0.61291053766E+03 -0.10474092747E+03  0.64577369885E+03  0.00000000000E+00 0.  1.
         13    1    5    5    0    0  0.97075470891E+02 -0.12172066543E+03 -0.13542512316E+03  0.20634808316E+03  0.00000000000E+00 0. -1.
        -13    1    5    5    0    0  0.18984578172E+03 -0.20377917073E+03 -0.43967057917E+03  0.52045901803E+03  0.00000000000E+00 0.  1.
          2    1    6    6  503    0 -0.28599928724E+03 -0.13301698559E+03 -0.11803408291E+04  0.12217583982E+04  0.00000000000E+00 0.  1.
         -2    1    6    6    0  503 -0.17016536199E+03 -0.16531157103E+03 -0.90016543648E+03  0.93090385055E+03  0.00000000000E+00 0. -1.
<mgrwt>
<rscale>  0 0.22055053E+04</rscale>
<asrwt>0</asrwt>
<pdfrwt beam="1">  1        2 0.48536326E+00 0.22055053E+04</pdfrwt>
<pdfrwt beam="2">  1       -1 0.59301081E-01 0.22055053E+04</pdfrwt>
<totfact> 0.41649865E+00</totfact>
</mgrwt>
</event>
<event>
12    7  0.1701638E-007  0.1608644E+04  0.7818608E-02  0.8815255E-01
          2   -1    0    0  501    0  0.00000000000E+00  0.00000000000E+00  0.19528120074E+04  0.19528120074E+04  0.00000000000E+00 0. -1.
         -1   -1    0    0    0  501 -0.00000000000E+00 -0.00000000000E+00 -0.33128329791E+03  0.33128329791E+03  0.00000000000E+00 0.  1.
         24    2    1    2    0    0  0.16524864088E+03  0.22029750555E+03 -0.11611443449E+03  0.30892732033E+03  0.78201170633E+02 0.  0.
        254    2    1    2    0    0 -0.16524864088E+03 -0.22029750555E+03  0.17376431440E+04  0.19751679850E+04  0.89780107419E+03 0.  0.
         23    2    4    4    0    0 -0.27611587838E+03 -0.52844233984E+02  0.17258321027E+04  0.17509076667E+04  0.90270256491E+02 0.  0.
         23    2    4    4    0    0  0.11086723751E+03 -0.16745327156E+03  0.11811041315E+02  0.22426031832E+03  0.99101196604E+02 0.  0.
          4    1    3    3  502    0  0.76359921912E+02  0.93521701531E+02 -0.98512548578E+01  0.12113708579E+03  0.00000000000E+00 0. -1.
         -3    1    3    3    0  502  0.88888718968E+02  0.12677580402E+03 -0.10626317963E+03  0.18779023454E+03  0.00000000000E+00 0.  1.
         13    1    5    5    0    0 -0.48653149661E+02 -0.37830646812E+02  0.24501033611E+03  0.25264273512E+03  0.00000000000E+00 0. -1.
        -13    1    5    5    0    0 -0.22746272872E+03 -0.15013587173E+02  0.14808217666E+04  0.14982649315E+04  0.00000000000E+00 0.  1.
          2    1    6    6  503    0 -0.34361718031E+01  0.69622770799E+00  0.20457077129E+02  0.20755337009E+02  0.00000000000E+00 0. -1.
         -2    1    6    6    0  503  0.11430340931E+03 -0.16814949927E+03 -0.86460358139E+01  0.20350498132E+03  0.00000000000E+00 0.  1.
<mgrwt>
<rscale>  0 0.16086442E+04</rscale>
<asrwt>0</asrwt>
<pdfrwt beam="1">  1        2 0.30043261E+00 0.16086442E+04</pdfrwt>
<pdfrwt beam="2">  1       -1 0.50966662E-01 0.16086442E+04</pdfrwt>
<totfact> 0.29983534E+01</totfact>
</mgrwt>
</event>
<event>
12    7  0.1701638E-007  0.1941239E+04  0.7818608E-02  0.8634597E-01
         -1   -1    0    0    0  501 -0.00000000000E+00  0.00000000000E+00  0.43966253333E+03  0.43966253333E+03  0.00000000000E+00 0.  1.
          2   -1    0    0  501    0  0.00000000000E+00 -0.00000000000E+00 -0.21427859343E+04  0.21427859343E+04  0.00000000000E+00 0. -1.
         24    2    1    2    0    0  0.41779968340E+03 -0.63422955377E+03 -0.76075548116E+03  0.10778605652E+04  0.78935375536E+02 0.  0.
        254    2    1    2    0    0 -0.41779968340E+03  0.63422955377E+03 -0.94236791980E+03  0.15045879024E+04  0.89382535073E+03 0.  0.
         23    2    4    4    0    0 -0.72493753803E+02 -0.19559634031E+03 -0.48669962805E+02  0.23383648118E+03  0.93794786454E+02 0.  0.
         23    2    4    4    0    0 -0.34530592959E+03  0.82982589408E+03 -0.89369795700E+03  0.12707514213E+04  0.90917197649E+02 0.  0.
          4    1    3    3  502    0  0.13262591136E+03 -0.19960390704E+03 -0.18974043978E+03  0.30566777154E+03  0.00000000000E+00 0. -1.
         -3    1    3    3    0  502  0.28517377204E+03 -0.43462564673E+03 -0.57101504138E+03  0.77219279363E+03  0.00000000000E+00 0.  1.
         13    1    5    5    0    0 -0.45238740138E+02 -0.15294895514E+03  0.56403954335E+01  0.15959868593E+03  0.00000000000E+00 0.  1.
        -13    1    5    5    0    0 -0.27255013665E+02 -0.42647385167E+02 -0.54310358239E+02  0.74237795249E+02  0.00000000000E+00 0. -1.
          1    1    6    6  503    0 -0.34240738858E+03  0.76320819137E+03 -0.82035916010E+03  0.11716307928E+04  0.00000000000E+00 0. -1.
         -1    1    6    6    0  503 -0.28985410168E+01  0.66617702708E+02 -0.73338796901E+02  0.99120628454E+02  0.00000000000E+00 0.  1.
<mgrwt>
<rscale>  0 0.19412395E+04</rscale>
<asrwt>0</asrwt>
<pdfrwt beam="1">  1        2 0.32965937E+00 0.19412395E+04</pdfrwt>
<pdfrwt beam="2">  1       -1 0.67640390E-01 0.19412395E+04</pdfrwt>
<totfact> 0.13081110E+01</totfact>
</mgrwt>
</event>
<event>
12    7  0.1701638E-007  0.2108382E+04  0.7818608E-02  0.8557560E-01
          2   -1    0    0  501    0  0.00000000000E+00  0.00000000000E+00  0.20223077809E+04  0.20223077809E+04  0.00000000000E+00 0. -1.
         -1   -1    0    0    0  501 -0.00000000000E+00 -0.00000000000E+00 -0.54952989470E+03  0.54952989470E+03  0.00000000000E+00 0.  1.
         24    2    1    2    0    0 -0.26749815018E+03 -0.37759608112E+03  0.14907689250E+04  0.15630081881E+04  0.80427280262E+02 0.  0.
        254    2    1    2    0    0  0.26749815018E+03  0.37759608112E+03 -0.17991038848E+02  0.10088294875E+04  0.89625844291E+03 0.  0.
         23    2    4    4    0    0 -0.28010831118E+03 -0.13482643632E+02 -0.12771075023E+03  0.32212675389E+03  0.93878443616E+02 0.  0.
         23    2    4    4    0    0  0.54760646136E+03  0.39107872475E+03  0.10971971138E+03  0.68670273358E+03  0.81895199931E+02 0.  0.
          4    1    3    3  502    0 -0.26339613735E+03 -0.37615596318E+03  0.14891897483E+04  0.15583827964E+04  0.00000000000E+00 0. -1.
         -3    1    3    3    0  502 -0.41020128272E+01 -0.14401179346E+01  0.15791767413E+01  0.46253916678E+01  0.00000000000E+00 0.  1.
         13    1    5    5    0    0 -0.23314619287E+03  0.25668706649E+02 -0.99358436358E+02  0.25473148338E+03  0.00000000000E+00 0. -1.
        -13    1    5    5    0    0 -0.46962118316E+02 -0.39151350281E+02 -0.28352313868E+02  0.67395270510E+02  0.00000000000E+00 0.  1.
          3    1    6    6  503    0  0.30386732850E+03  0.18384622997E+03  0.88819970101E+02  0.36609257941E+03  0.00000000000E+00 0. -1.
         -3    1    6    6    0  503  0.24373913286E+03  0.20723249477E+03  0.20899741277E+02  0.32061015418E+03  0.00000000000E+00 0.  1.
<mgrwt>
<rscale>  0 0.21083819E+04</rscale>
<asrwt>0</asrwt>
<pdfrwt beam="1">  1        2 0.31112427E+00 0.21083819E+04</pdfrwt>
<pdfrwt beam="2">  1       -1 0.84543062E-01 0.21083819E+04</pdfrwt>
<totfact> 0.94280726E+00</totfact>
</mgrwt>
</event>
<event>
12    7  0.1701638E-007  0.1402745E+04  0.7818608E-02  0.8951834E-01
         -1   -1    0    0    0  501 -0.00000000000E+00  0.00000000000E+00  0.10829287237E+04  0.10829287237E+04  0.00000000000E+00 0.  1.
          2   -1    0    0  501    0  0.00000000000E+00 -0.00000000000E+00 -0.45425304039E+03  0.45425304039E+03  0.00000000000E+00 0. -1.
         24    2    1    2    0    0 -0.24732833566E+03  0.12310937349E+03 -0.14172906405E+03  0.32079297985E+03  0.80584023637E+02 0.  0.
        254    2    1    2    0    0  0.24732833566E+03 -0.12310937349E+03  0.77040474733E+03  0.12163887842E+04  0.89986164280E+03 0.  0.
         23    2    4    4    0    0 -0.27969837736E+03 -0.25520823676E+03  0.30960193874E+03  0.49791134148E+03  0.93273346094E+02 0.  0.
         23    2    4    4    0    0  0.52702671302E+03  0.13209886327E+03  0.46080280858E+03  0.71847744273E+03  0.93077072382E+02 0.  0.
          4    1    3    3  502    0 -0.21062858450E+03  0.12377617694E+03 -0.14474261601E+03  0.28396367281E+03  0.00000000000E+00 0. -1.
         -3    1    3    3    0  502 -0.36699751154E+02 -0.66680344777E+00  0.30135519604E+01  0.36829307040E+02  0.00000000000E+00 0.  1.
         13    1    5    5    0    0 -0.21868088898E+03 -0.15964091536E+03  0.17715108674E+03  0.32355688927E+03  0.00000000000E+00 0. -1.
        -13    1    5    5    0    0 -0.61017488380E+02 -0.95567321398E+02  0.13245085201E+03  0.17435445221E+03  0.00000000000E+00 0.  1.
          4    1    6    6  503    0  0.30661275143E+03  0.10433953193E+03  0.22409085094E+03  0.39384619681E+03  0.00000000000E+00 0.  1.
         -4    1    6    6    0  503  0.22041396158E+03  0.27759331339E+02  0.23671195765E+03  0.32463124592E+03  0.00000000000E+00 0. -1.
<mgrwt>
<rscale>  0 0.14027454E+04</rscale>
<asrwt>0</asrwt>
<pdfrwt beam="1">  1        2 0.69885083E-01 0.14027454E+04</pdfrwt>
<pdfrwt beam="2">  1       -1 0.16660442E+00 0.14027454E+04</pdfrwt>
<totfact> 0.19963636E+01</totfact>
</mgrwt>
</event>
<event>
12    7  0.1701638E-007  0.2135347E+04  0.7818608E-02  0.8545831E-01
         -1   -1    0    0    0  501 -0.00000000000E+00  0.00000000000E+00  0.64247953823E+03  0.64247953823E+03  0.00000000000E+00 0.  1.
          2   -1    0    0  501    0  0.00000000000E+00 -0.00000000000E+00 -0.17742617265E+04  0.17742617265E+04  0.00000000000E+00 0. -1.
         24    2    1    2    0    0  0.52188063869E+03  0.10928903099E+03 -0.12568731166E+04  0.13677564969E+04  0.82001890781E+02 0.  0.
        254    2    1    2    0    0 -0.52188063869E+03 -0.10928903099E+03  0.12509092835E+03  0.10489847679E+04  0.89466072314E+03 0.  0.
         23    2    4    4    0    0 -0.75056027287E+03 -0.17383769295E+03  0.28605229042E+02  0.77712137979E+03  0.97668383305E+02 0.  0.
         23    2    4    4    0    0  0.22867963417E+03  0.64548661956E+02  0.96485699306E+02  0.27186338808E+03  0.90218106628E+02 0.  0.
          4    1    3    3  502    0  0.51763776946E+03  0.11164060159E+03 -0.12121345184E+04  0.13227556748E+04  0.00000000000E+00 0. -1.
         -3    1    3    3    0  502  0.42428692336E+01 -0.23515705998E+01 -0.44738598174E+02  0.45000822106E+02  0.00000000000E+00 0.  1.
         13    1    5    5    0    0 -0.60949727671E+02  0.10800263720E+02 -0.72422298864E+01  0.62321464146E+02  0.00000000000E+00 0. -1.
        -13    1    5    5    0    0 -0.68961054520E+03 -0.18463795667E+03  0.35847458928E+02  0.71479991564E+03  0.00000000000E+00 0.  1.
          1    1    6    6  503    0  0.25327406658E+02 -0.20637870696E+02  0.20938572168E+02  0.38804935760E+02  0.00000000000E+00 0. -1.
         -1    1    6    6    0  503  0.20335222752E+03  0.85186532652E+02  0.75547127138E+02  0.23305845232E+03  0.00000000000E+00 0.  1.
<mgrwt>
<rscale>  0 0.21353471E+04</rscale>
<asrwt>0</asrwt>
<pdfrwt beam="1">  1        2 0.27296334E+00 0.21353471E+04</pdfrwt>
<pdfrwt beam="2">  1       -1 0.98843007E-01 0.21353471E+04</pdfrwt>
<totfact> 0.91325205E+00</totfact>
</mgrwt>
</event>
<event>
12    7  0.1701638E-007  0.2184096E+04  0.7818608E-02  0.8525077E-01
          2   -1    0    0  501    0  0.00000000000E+00  0.00000000000E+00  0.14794264709E+04  0.14794264709E+04  0.00000000000E+00 0. -1.
         -1   -1    0    0    0  501 -0.00000000000E+00 -0.00000000000E+00 -0.80610219614E+03  0.80610219614E+03  0.00000000000E+00 0.  1.
         24    2    1    2    0    0  0.36661944618E+03 -0.99410926357E+02 -0.57922119863E+03  0.69712212886E+03  0.78674741809E+02 0.  0.
        254    2    1    2    0    0 -0.36661944618E+03  0.99410926357E+02  0.12525454734E+04  0.15884065382E+04  0.89992934003E+03 0.  0.
         23    2    4    4    0    0  0.11146620019E+03 -0.20294913898E+03  0.45495035960E+02  0.25225759828E+03  0.89168552714E+02 0.  0.
         23    2    4    4    0    0 -0.47808564637E+03  0.30236006534E+03  0.12070504374E+04  0.13361489399E+04  0.91300256035E+02 0.  0.
          4    1    3    3  502    0  0.14229537434E+03 -0.78295876729E+02 -0.25345977540E+03  0.30103168541E+03  0.00000000000E+00 0. -1.
         -3    1    3    3    0  502  0.22432407184E+03 -0.21115049628E+02 -0.32576142323E+03  0.39609044345E+03  0.00000000000E+00 0.  1.
         13    1    5    5    0    0  0.74016623466E+02 -0.10873576405E+03 -0.17803725025E+02  0.13273620289E+03  0.00000000000E+00 0.  1.
        -13    1    5    5    0    0  0.37449576722E+02 -0.94213374929E+02  0.63298760986E+02  0.11952139538E+03  0.00000000000E+00 0. -1.
          3    1    6    6  503    0 -0.39818623080E+03  0.27035628165E+03  0.10833561930E+04  0.11854557918E+04  0.00000000000E+00 0. -1.
         -3    1    6    6    0  503 -0.79899415573E+02  0.32003783684E+02  0.12369424441E+03  0.15069314808E+03  0.00000000000E+00 0.  1.
<mgrwt>
<rscale>  0 0.21840961E+04</rscale>
<asrwt>0</asrwt>
<pdfrwt beam="1">  1        2 0.22760407E+00 0.21840961E+04</pdfrwt>
<pdfrwt beam="2">  1       -1 0.12401572E+00 0.21840961E+04</pdfrwt>
<totfact> 0.77600055E+00</totfact>
</mgrwt>
</event>
<event>
12    7  0.1701638E-007  0.1617759E+04  0.7818608E-02  0.8809712E-01
          2   -1    0    0  501    0  0.00000000000E+00  0.00000000000E+00  0.84754786095E+03  0.84754786095E+03  0.00000000000E+00 0. -1.
         -1   -1    0    0    0  501 -0.00000000000E+00 -0.00000000000E+00 -0.77197514014E+03  0.77197514014E+03  0.00000000000E+00 0.  1.
         24    2    1    2    0    0 -0.84191631090E+02  0.21213584994E+03  0.51074414214E+03  0.56521603950E+03  0.80744925507E+02 0.  0.
        254    2    1    2    0    0  0.84191631090E+02 -0.21213584994E+03 -0.43517142133E+03  0.10543069616E+04  0.93279105578E+03 0.  0.
         23    2    4    4    0    0  0.24986997099E+03 -0.38888842320E+03 -0.58819572714E+03  0.75348011311E+03  0.89938086127E+02 0.  0.
         23    2    4    4    0    0 -0.16567833991E+03  0.17675257326E+03  0.15302430580E+03  0.30082684848E+03  0.91594596620E+02 0.  0.
          2    1    3    3  502    0 -0.17940549570E+02  0.13869445233E+03  0.34404439581E+03  0.37138196067E+03  0.00000000000E+00 0. -1.
         -1    1    3    3    0  502 -0.66251081520E+02  0.73441397603E+02  0.16669974634E+03  0.19383407882E+03  0.00000000000E+00 0.  1.
         13    1    5    5    0    0  0.23746062012E+03 -0.38380196533E+03 -0.58636736770E+03  0.73994471726E+03  0.00000000000E+00 0. -1.
        -13    1    5    5    0    0  0.12409350874E+02 -0.50864578615E+01 -0.18283594410E+01  0.13535395854E+02  0.00000000000E+00 0.  1.
          4    1    6    6  503    0 -0.82111989334E+02  0.83799394129E+02  0.12747624995E+03  0.17324812135E+03  0.00000000000E+00 0. -1.
         -4    1    6    6    0  503 -0.83566350571E+02  0.92953179132E+02  0.25548055855E+02  0.12757872713E+03  0.00000000000E+00 0.  1.
<mgrwt>
<rscale>  0 0.16177588E+04</rscale>
<asrwt>0</asrwt>
<pdfrwt beam="1">  1        2 0.13039198E+00 0.16177588E+04</pdfrwt>
<pdfrwt beam="2">  1       -1 0.11876541E+00 0.16177588E+04</pdfrwt>
<totfact> 0.22121749E+01</totfact>
</mgrwt>
</event>
<event>
12    7  0.1701638E-007  0.2723513E+04  0.7818608E-02  0.8327416E-01
         -1   -1    0    0    0  501 -0.00000000000E+00  0.00000000000E+00  0.58550253313E+03  0.58550253313E+03  0.00000000000E+00 0.  1.
          2   -1    0    0  501    0  0.00000000000E+00 -0.00000000000E+00 -0.31671621052E+04  0.31671621052E+04  0.00000000000E+00 0. -1.
         24    2    1    2    0    0 -0.51067416912E+02 -0.11644495002E+03 -0.28174035629E+04  0.28211529002E+04  0.70523348522E+02 0.  0.
        254    2    1    2    0    0  0.51067416912E+02  0.11644495002E+03  0.23574399080E+03  0.93151173814E+03  0.89217239458E+03 0.  0.
         23    2    4    4    0    0 -0.16688019025E+03  0.45205675347E+03  0.11201481933E+03  0.50291494950E+03  0.90398121838E+02 0.  0.
         23    2    4    4    0    0  0.21794760716E+03 -0.33561180345E+03  0.12372917147E+03  0.42859678864E+03  0.90828724966E+02 0.  0.
          4    1    3    3  502    0 -0.58684605821E+02 -0.77076817360E+02 -0.23625466313E+04  0.23645319418E+04  0.00000000000E+00 0. -1.
         -3    1    3    3    0  502  0.76171889086E+01 -0.39368132664E+02 -0.45485693158E+03  0.45662095840E+03  0.00000000000E+00 0.  1.
         13    1    5    5    0    0 -0.55681029029E+02  0.10259683098E+03  0.63811094950E+02  0.13303511777E+03  0.00000000000E+00 0. -1.
        -13    1    5    5    0    0 -0.11119916122E+03  0.34945992249E+03  0.48203724380E+02  0.36987983174E+03  0.00000000000E+00 0.  1.
          2    1    6    6  503    0  0.16320201240E+03 -0.23613885798E+03  0.45300501924E+02  0.29060040017E+03  0.00000000000E+00 0. -1.
         -2    1    6    6    0  503  0.54745594755E+02 -0.99472945461E+02  0.78428669547E+02  0.13799638847E+03  0.00000000000E+00 0.  1.
<mgrwt>
<rscale>  0 0.27235135E+04</rscale>
<asrwt>0</asrwt>
<pdfrwt beam="1">  1        2 0.48725570E+00 0.27235135E+04</pdfrwt>
<pdfrwt beam="2">  1       -1 0.90077314E-01 0.27235135E+04</pdfrwt>
<totfact> 0.16342085E+00</totfact>
</mgrwt>
</event>
<event>
12    7  0.1701638E-007  0.1462620E+04  0.7818608E-02  0.8909698E-01
         -1   -1    0    0    0  501 -0.00000000000E+00  0.00000000000E+00  0.14739739073E+04  0.14739739073E+04  0.00000000000E+00 0.  1.
          2   -1    0    0  501    0  0.00000000000E+00 -0.00000000000E+00 -0.36283814299E+03  0.36283814299E+03  0.00000000000E+00 0. -1.
         24    2    1    2    0    0 -0.89882022008E+02  0.12061617842E+03  0.87639969280E+03  0.89282886081E+03  0.80249067169E+02 0.  0.
        254    2    1    2    0    0  0.89882022008E+02 -0.12061617842E+03  0.23473607155E+03  0.94398318951E+03  0.90187371534E+03 0.  0.
         23    2    4    4    0    0 -0.39394294481E+03 -0.10949816541E+03  0.14563391819E+03  0.44359674476E+03  0.91585707606E+02 0.  0.
         23    2    4    4    0    0  0.48382496682E+03 -0.11118013011E+02  0.89102153364E+02  0.50038644476E+03  0.90758975473E+02 0.  0.
          4    1    3    3  502    0  0.10912167074E+02  0.23795170665E+01  0.12715657449E+03  0.12764611991E+03  0.00000000000E+00 0. -1.
         -3    1    3    3    0  502 -0.10079418908E+03  0.11823666136E+03  0.74924311831E+03  0.76518274090E+03  0.00000000000E+00 0.  1.
         13    1    5    5    0    0 -0.33400316302E+03 -0.12243220598E+03  0.10851776030E+03  0.37191916093E+03  0.00000000000E+00 0. -1.
        -13    1    5    5    0    0 -0.59939781793E+02  0.12934040568E+02  0.37116157888E+02  0.71677583826E+02  0.00000000000E+00 0.  1.
          1    1    6    6  503    0  0.39467750557E+03 -0.44536803179E+02  0.71371717636E+02  0.40354402774E+03  0.00000000000E+00 0. -1.
         -1    1    6    6    0  503  0.89147461247E+02  0.33418790168E+02  0.17730435729E+02  0.96842417020E+02  0.00000000000E+00 0.  1.
<mgrwt>
<rscale>  0 0.14626195E+04</rscale>
<asrwt>0</asrwt>
<pdfrwt beam="1">  1        2 0.55821253E-01 0.14626195E+04</pdfrwt>
<pdfrwt beam="2">  1       -1 0.22676521E+00 0.14626195E+04</pdfrwt>
<totfact> 0.97620498E+00</totfact>
</mgrwt>
</event>
<event>
12    7  0.1701638E-007  0.1752734E+04  0.7818608E-02  0.8731847E-01
         -1   -1    0    0    0  501 -0.00000000000E+00  0.00000000000E+00  0.35986909971E+03  0.35986909971E+03  0.00000000000E+00 0.  1.
          2   -1    0    0  501    0  0.00000000000E+00 -0.00000000000E+00 -0.21341620589E+04  0.21341620589E+04  0.00000000000E+00 0. -1.
         24    2    1    2    0    0 -0.31818195230E+02  0.19347242116E+03 -0.15266066665E+04  0.15411965571E+04  0.79466584934E+02 0.  0.
        254    2    1    2    0    0  0.31818195230E+02 -0.19347242116E+03 -0.24768629264E+03  0.95283460146E+03  0.89894454939E+03 0.  0.
         23    2    4    4    0    0  0.36556508725E+03 -0.39802177499E+02 -0.39354875763E+03  0.54736662315E+03  0.97506662096E+02 0.  0.
         23    2    4    4    0    0 -0.33374689202E+03 -0.15367024366E+03  0.14586246499E+03  0.40546797831E+03  0.90149270748E+02 0.  0.
          4    1    3    3  502    0 -0.26924324944E+01  0.15282387551E+03 -0.13103050086E+04  0.13191897520E+04  0.00000000000E+00 0. -1.
         -3    1    3    3    0  502 -0.29125762735E+02  0.40648545650E+02 -0.21630165796E+03  0.22200680520E+03  0.00000000000E+00 0.  1.
         13    1    5    5    0    0  0.11939712592E+03  0.13084418973E+02 -0.76107607019E+02  0.14219438647E+03  0.00000000000E+00 0. -1.
        -13    1    5    5    0    0  0.24616796134E+03 -0.52886596472E+02 -0.31744115061E+03  0.40517223668E+03  0.00000000000E+00 0.  1.
          1    1    6    6  503    0 -0.84992768997E+02 -0.27660925231E+02  0.77643590213E+02  0.11839520542E+03  0.00000000000E+00 0. -1.
         -1    1    6    6    0  503 -0.24875412303E+03 -0.12600931843E+03  0.68218874779E+02  0.28707277288E+03  0.00000000000E+00 0.  1.
<mgrwt>
<rscale>  0 0.17527338E+04</rscale>
<asrwt>0</asrwt>
<pdfrwt beam="1">  1        2 0.32833263E+00 0.17527338E+04</pdfrwt>
<pdfrwt beam="2">  1       -1 0.55364477E-01 0.17527338E+04</pdfrwt>
<totfact> 0.20019520E+01</totfact>
</mgrwt>
</event>
<event>
12    7  0.1701638E-007  0.2958101E+04  0.7818608E-02  0.8255798E-01
         -1   -1    0    0    0  501 -0.00000000000E+00  0.00000000000E+00  0.88043622394E+03  0.88043622394E+03  0.00000000000E+00 0.  1.
          2   -1    0    0  501    0  0.00000000000E+00 -0.00000000000E+00 -0.24846667110E+04  0.24846667110E+04  0.00000000000E+00 0. -1.
         24    2    1    2    0    0 -0.10149384459E+03  0.23580234300E+03  0.77415336601E+03  0.82095640636E+03  0.93553415673E+02 0.  0.
        254    2    1    2    0    0  0.10149384459E+03 -0.23580234300E+03 -0.23783838530E+04  0.25441465285E+04  0.86606469788E+03 0.  0.
         23    2    4    4    0    0 -0.24311976790E+03 -0.19393769199E+03 -0.19861361904E+04  0.20123729069E+04  0.90491434420E+02 0.  0.
         23    2    4    4    0    0  0.34461361249E+03 -0.41864651015E+02 -0.39224766266E+03  0.53177362168E+03  0.91726577022E+02 0.  0.
          2    1    3    3  502    0 -0.22377358460E+02  0.10954177662E+03  0.21552919396E+03  0.24280234852E+03  0.00000000000E+00 0. -1.
         -1    1    3    3    0  502 -0.79116486128E+02  0.12626056638E+03  0.55862417205E+03  0.57815405784E+03  0.00000000000E+00 0.  1.
         13    1    5    5    0    0 -0.27655397725E+01 -0.14158235901E+02 -0.29384717923E+02  0.32734775110E+02  0.00000000000E+00 0.  1.
        -13    1    5    5    0    0 -0.24035422813E+03 -0.17977945609E+03 -0.19567514724E+04  0.19796381317E+04  0.00000000000E+00 0. -1.
          2    1    6    6  503    0  0.32934167428E+03 -0.29106127260E+02 -0.33293175791E+03  0.46920854691E+03  0.00000000000E+00 0. -1.
         -2    1    6    6    0  503  0.15271938206E+02 -0.12758523754E+02 -0.59315904750E+02  0.62565074772E+02  0.00000000000E+00 0.  1.
<mgrwt>
<rscale>  0 0.29581011E+04</rscale>
<asrwt>0</asrwt>
<pdfrwt beam="1">  1        2 0.38225642E+00 0.29581011E+04</pdfrwt>
<pdfrwt beam="2">  1       -1 0.13545173E+00 0.29581011E+04</pdfrwt>
<totfact> 0.15840205E+00</totfact>
</mgrwt>
</event>
<event>
12    7  0.1701638E-007  0.2324902E+04  0.7818608E-02  0.8468167E-01
         -1   -1    0    0    0  501 -0.00000000000E+00  0.00000000000E+00  0.71763634552E+03  0.71763634552E+03  0.00000000000E+00 0.  1.
          2   -1    0    0  501    0  0.00000000000E+00 -0.00000000000E+00 -0.18829757184E+04  0.18829757184E+04  0.00000000000E+00 0. -1.
         24    2    1    2    0    0 -0.78151019233E+03 -0.37629271248E+02 -0.11566199230E+04  0.13986091473E+04  0.78509602225E+02 0.  0.
        254    2    1    2    0    0  0.78151019233E+03  0.37629271248E+02 -0.87194498509E+01  0.12020029167E+04  0.91244771911E+03 0.  0.
         23    2    4    4    0    0  0.20403907259E+03  0.28192642024E+03  0.32521824040E+03  0.48512765182E+03  0.92018938814E+02 0.  0.
         23    2    4    4    0    0  0.57747111974E+03 -0.24429714899E+03 -0.33393769026E+03  0.71687526485E+03  0.96134141925E+02 0.  0.
          2    1    3    3  502    0 -0.32075876621E+03 -0.46983767133E+02 -0.43813263966E+03  0.54502648597E+03  0.00000000000E+00 0. -1.
         -1    1    3    3    0  502 -0.46075142612E+03  0.93544958849E+01 -0.71848728339E+03  0.85358266129E+03  0.00000000000E+00 0.  1.
         13    1    5    5    0    0  0.19192280220E+03  0.28820373990E+03  0.31100817066E+03  0.46542651398E+03  0.00000000000E+00 0.  1.
        -13    1    5    5    0    0  0.12116270386E+02 -0.62773196616E+01  0.14210069748E+02  0.19701137846E+02  0.00000000000E+00 0. -1.
          3    1    6    6  503    0  0.29943537036E+02 -0.14693143146E+02 -0.46526100919E+02  0.57246676169E+02  0.00000000000E+00 0. -1.
         -3    1    6    6    0  503  0.54752758271E+03 -0.22960400584E+03 -0.28741158934E+03  0.65962858868E+03  0.00000000000E+00 0.  1.
<mgrwt>
<rscale>  0 0.23249016E+04</rscale>
<asrwt>0</asrwt>
<pdfrwt beam="1">  1        2 0.28968857E+00 0.23249016E+04</pdfrwt>
<pdfrwt beam="2">  1       -1 0.11040559E+00 0.23249016E+04</pdfrwt>
<totfact> 0.60464150E+00</totfact>
</mgrwt>
</event>
<event>
12    7  0.1701638E-007  0.1683263E+04  0.7818608E-02  0.8770968E-01
          2   -1    0    0  501    0  0.00000000000E+00  0.00000000000E+00  0.11515201406E+04  0.11515201406E+04  0.00000000000E+00 0. -1.
         -1   -1    0    0    0  501 -0.00000000000E+00 -0.00000000000E+00 -0.61513777731E+03  0.61513777731E+03  0.00000000000E+00 0.  1.
         24    2    1    2    0    0  0.13193424654E+03 -0.25459088423E+03  0.73497886083E+03  0.79286732439E+03  0.78876514053E+02 0.  0.
        254    2    1    2    0    0 -0.13193424654E+03  0.25459088423E+03 -0.19859649753E+03  0.97379059354E+03  0.90917786351E+03 0.  0.
         23    2    4    4    0    0 -0.40065494052E+03  0.14128623778E+03 -0.41341801050E+03  0.59974120949E+03  0.91043311678E+02 0.  0.
         23    2    4    4    0    0  0.26872069398E+03  0.11330464646E+03  0.21482151298E+03  0.37404938405E+03  0.93359011305E+02 0.  0.
          4    1    3    3  502    0  0.11570091008E+03 -0.16716565898E+03  0.57434768301E+03  0.60926703432E+03  0.00000000000E+00 0. -1.
         -3    1    3    3    0  502  0.16233336458E+02 -0.87425225255E+02  0.16063117782E+03  0.18360029007E+03  0.00000000000E+00 0.  1.
         13    1    5    5    0    0 -0.17831429963E+03  0.10494829766E+03 -0.16731590252E+03  0.26609161180E+03  0.00000000000E+00 0.  1.
        -13    1    5    5    0    0 -0.22234064089E+03  0.36337940114E+02 -0.24610210798E+03  0.33364959768E+03  0.00000000000E+00 0. -1.
          1    1    6    6  503    0  0.12791209126E+03  0.94548985095E+02  0.14720112574E+03  0.21672375295E+03  0.00000000000E+00 0. -1.
         -1    1    6    6    0  503  0.14080860271E+03  0.18755661364E+02  0.67620387233E+02  0.15732563110E+03  0.00000000000E+00 0.  1.
<mgrwt>
<rscale>  0 0.16832630E+04</rscale>
<asrwt>0</asrwt>
<pdfrwt beam="1">  1        2 0.17715694E+00 0.16832630E+04</pdfrwt>
<pdfrwt beam="2">  1       -1 0.94636581E-01 0.16832630E+04</pdfrwt>
<totfact> 0.23778520E+01</totfact>
</mgrwt>
</event>
<event>
12    7  0.1701638E-007  0.1834074E+04  0.7818608E-02  0.8688386E-01
         -1   -1    0    0    0  501 -0.00000000000E+00  0.00000000000E+00  0.97299972831E+03  0.97299972831E+03  0.00000000000E+00 0.  1.
          2   -1    0    0  501    0  0.00000000000E+00 -0.00000000000E+00 -0.86429267042E+03  0.86429267042E+03  0.00000000000E+00 0. -1.
         24    2    1    2    0    0  0.27021925992E+03 -0.43332994673E+03  0.49689577545E+03  0.71688703269E+03  0.78919673094E+02 0.  0.
        254    2    1    2    0    0 -0.27021925992E+03  0.43332994673E+03 -0.38818871756E+03  0.11204053660E+04  0.91859915776E+03 0.  0.
         23    2    4    4    0    0 -0.49589245657E+03  0.57679527468E+03 -0.31912850301E+03  0.83000239870E+03  0.91972077512E+02 0.  0.
         23    2    4    4    0    0  0.22567319664E+03 -0.14346532794E+03 -0.69060214551E+02  0.29040296734E+03  0.89743402001E+02 0.  0.
          4    1    3    3  502    0  0.12923681872E+03 -0.21138697929E+03  0.29587419653E+03  0.38591210204E+03  0.00000000000E+00 0. -1.
         -3    1    3    3    0  502  0.14098244120E+03 -0.22194296745E+03  0.20102157892E+03  0.33097493065E+03  0.00000000000E+00 0.  1.
         13    1    5    5    0    0 -0.28831443374E+03  0.30736944897E+03 -0.13097405360E+03  0.44131099417E+03  0.00000000000E+00 0.  1.
        -13    1    5    5    0    0 -0.20757802283E+03  0.26942582571E+03 -0.18815444941E+03  0.38869140452E+03  0.00000000000E+00 0. -1.
          3    1    6    6  503    0  0.14062365773E+02 -0.33823045232E+02  0.12190168757E+02  0.38605035089E+02  0.00000000000E+00 0. -1.
         -3    1    6    6    0  503  0.21161083087E+03 -0.10964228271E+03 -0.81250383307E+02  0.25179793225E+03  0.00000000000E+00 0.  1.
<mgrwt>
<rscale>  0 0.18340736E+04</rscale>
<asrwt>0</asrwt>
<pdfrwt beam="1">  1        2 0.13296810E+00 0.18340736E+04</pdfrwt>
<pdfrwt beam="2">  1       -1 0.14969227E+00 0.18340736E+04</pdfrwt>
<totfact> 0.11694567E+01</totfact>
</mgrwt>
</event>
<event>
12    7  0.1701638E-007  0.1586650E+04  0.7818608E-02  0.8828791E-01
          2   -1    0    0  501    0  0.00000000000E+00  0.00000000000E+00  0.16519807007E+04  0.16519807007E+04  0.00000000000E+00 0. -1.
         -1   -1    0    0    0  501 -0.00000000000E+00 -0.00000000000E+00 -0.38097585344E+03  0.38097585344E+03  0.00000000000E+00 0.  1.
         24    2    1    2    0    0  0.16893289678E+03  0.49996282369E+03  0.29728714241E+03  0.61082161218E+03  0.78881228279E+02 0.  0.
        254    2    1    2    0    0 -0.16893289678E+03 -0.49996282369E+03  0.97371770484E+03  0.14221349420E+04  0.89209891590E+03 0.  0.
         23    2    4    4    0    0 -0.35972784147E+03  0.19004954520E+02  0.10136905549E+03  0.38523149840E+03  0.91445687297E+02 0.  0.
         23    2    4    4    0    0  0.19079494469E+03 -0.51896777821E+03  0.87234864935E+03  0.10369034436E+04  0.91903860240E+02 0.  0.
          2    1    3    3  502    0  0.10271210669E+03  0.30127063124E+03  0.22282417196E+03  0.38854135136E+03  0.00000000000E+00 0. -1.
         -1    1    3    3    0  502  0.66220790086E+02  0.19869219245E+03  0.74462970456E+02  0.22228026082E+03  0.00000000000E+00 0.  1.
         13    1    5    5    0    0 -0.26107019574E+03  0.30280072699E+02  0.33483360748E+02  0.26494464583E+03  0.00000000000E+00 0. -1.
        -13    1    5    5    0    0 -0.98657645722E+02 -0.11275118179E+02  0.67885694745E+02  0.12028685257E+03  0.00000000000E+00 0.  1.
          1    1    6    6  503    0  0.19894383379E+03 -0.46779549960E+03  0.80191817981E+03  0.94946513656E+03  0.00000000000E+00 0. -1.
         -1    1    6    6    0  503 -0.81488891044E+01 -0.51172278607E+02  0.70430469545E+02  0.87438307005E+02  0.00000000000E+00 0.  1.
<mgrwt>
<rscale>  0 0.15866503E+04</rscale>
<asrwt>0</asrwt>
<pdfrwt beam="1">  1        2 0.25415087E+00 0.15866503E+04</pdfrwt>
<pdfrwt beam="2">  1       -1 0.58611671E-01 0.15866503E+04</pdfrwt>
<totfact> 0.33647380E+01</totfact>
</mgrwt>
</event>
<event>
12    7  0.1701638E-007  0.3198010E+04  0.7818608E-02  0.8189343E-01
         -1   -1    0    0    0  501 -0.00000000000E+00  0.00000000000E+00  0.10271861100E+04  0.10271861100E+04  0.00000000000E+00 0.  1.
          2   -1    0    0  501    0  0.00000000000E+00 -0.00000000000E+00 -0.24891473338E+04  0.24891473338E+04  0.00000000000E+00 0. -1.
         24    2    1    2    0    0  0.15516595790E+03  0.14538439919E+04 -0.85392150363E+03  0.16950474912E+04  0.79153243329E+02 0.  0.
        254    2    1    2    0    0 -0.15516595790E+03 -0.14538439919E+04 -0.60803972025E+03  0.18212859526E+04  0.89979519475E+03 0.  0.
         23    2    4    4    0    0  0.29185361129E+03 -0.10422970891E+04 -0.26530279182E+03  0.11180194675E+04  0.89555602812E+02 0.  0.
         23    2    4    4    0    0 -0.44701956919E+03 -0.41154690282E+03 -0.34273692843E+03  0.70326648513E+03  0.88982012476E+02 0.  0.
          2    1    3    3  502    0  0.52106923098E+02  0.75354508244E+03 -0.47296281211E+03  0.89120095621E+03  0.00000000000E+00 0. -1.
         -1    1    3    3    0  502  0.10305903480E+03  0.70029890943E+03 -0.38095869152E+03  0.80384653501E+03  0.00000000000E+00 0.  1.
         13    1    5    5    0    0  0.69879777118E+02 -0.13506965906E+03 -0.34696371750E+02  0.15598344227E+03  0.00000000000E+00 0.  1.
        -13    1    5    5    0    0  0.22197383417E+03 -0.90722742999E+03 -0.23060642007E+03  0.96203602519E+03  0.00000000000E+00 0. -1.
          4    1    6    6  503    0 -0.22697871613E+03 -0.25383265475E+03 -0.15708951498E+03  0.37500329319E+03  0.00000000000E+00 0.  1.
         -4    1    6    6    0  503 -0.22004085306E+03 -0.15771424807E+03 -0.18564741345E+03  0.32826319194E+03  0.00000000000E+00 0. -1.
<mgrwt>
<rscale>  0 0.31980104E+04</rscale>
<asrwt>0</asrwt>
<pdfrwt beam="1">  1        2 0.38294574E+00 0.31980104E+04</pdfrwt>
<pdfrwt beam="2">  1       -1 0.15802863E+00 0.31980104E+04</pdfrwt>
<totfact> 0.10224501E+00</totfact>
</mgrwt>
</event>
<event>
12    7  0.1701638E-007  0.2543870E+04  0.7818608E-02  0.8387521E-01
         -1   -1    0    0    0  501 -0.00000000000E+00  0.00000000000E+00  0.67051604118E+03  0.67051604118E+03  0.00000000000E+00 0.  1.
          2   -1    0    0  501    0  0.00000000000E+00 -0.00000000000E+00 -0.24127970536E+04  0.24127970536E+04  0.00000000000E+00 0. -1.
         24    2    1    2    0    0 -0.72752589307E+03 -0.46390949951E+03  0.64059876675E+02  0.86891669565E+03  0.80041285363E+02 0.  0.
        254    2    1    2    0    0  0.72752589307E+03  0.46390949951E+03 -0.18063408890E+04  0.22143963991E+04  0.94666681362E+03 0.  0.
         23    2    4    4    0    0  0.56390269299E+03  0.45950580073E+03 -0.48314273589E+03  0.87796545048E+03  0.90909850598E+02 0.  0.
         23    2    4    4    0    0  0.16362320008E+03  0.44036987863E+01 -0.13231981532E+04  0.13364309486E+04  0.91664517148E+02 0.  0.
          2    1    3    3  502    0 -0.57567944278E+01  0.23575398774E+01  0.43052701934E+01  0.75653174287E+01  0.00000000000E+00 0. -1.
         -1    1    3    3    0  502 -0.72176909864E+03 -0.46626703939E+03  0.59754606482E+02  0.86135137823E+03  0.00000000000E+00 0.  1.
         13    1    5    5    0    0  0.49678695979E+03  0.36499711569E+03 -0.42037094730E+03  0.74614469857E+03  0.00000000000E+00 0. -1.
        -13    1    5    5    0    0  0.67115733199E+02  0.94508685042E+02 -0.62771788598E+02  0.13182075191E+03  0.00000000000E+00 0.  1.
          3    1    6    6  503    0  0.14381181887E+03 -0.43959522204E+01 -0.12803742084E+04  0.12884328765E+04  0.00000000000E+00 0. -1.
         -3    1    6    6    0  503  0.19811381209E+02  0.87996510067E+01 -0.42823944705E+02  0.47998072079E+02  0.00000000000E+00 0.  1.
<mgrwt>
<rscale>  0 0.25438704E+04</rscale>
<asrwt>0</asrwt>
<pdfrwt beam="1">  1        2 0.37119955E+00 0.25438704E+04</pdfrwt>
<pdfrwt beam="2">  1       -1 0.10315631E+00 0.25438704E+04</pdfrwt>
<totfact> 0.35042990E+00</totfact>
</mgrwt>
</event>
<event>
12    7  0.1701638E-007  0.2000804E+04  0.7818608E-02  0.8606245E-01
          2   -1    0    0  501    0  0.00000000000E+00  0.00000000000E+00  0.38857559393E+04  0.38857559393E+04  0.00000000000E+00 0. -1.
         -1   -1    0    0    0  501 -0.00000000000E+00 -0.00000000000E+00 -0.25755716947E+03  0.25755716947E+03  0.00000000000E+00 0.  1.
         24    2    1    2    0    0 -0.73839797650E+03  0.27551060155E+03  0.13005237812E+04  0.15227680212E+04  0.79515267435E+02 0.  0.
        254    2    1    2    0    0  0.73839797650E+03 -0.27551060155E+03  0.23276749886E+04  0.26205450875E+04  0.90997145003E+03 0.  0.
         23    2    4    4    0    0  0.85231770512E+03 -0.43888787815E+03  0.16731813340E+04  0.19305063872E+04  0.90835535373E+02 0.  0.
         23    2    4    4    0    0 -0.11391972862E+03  0.16337727660E+03  0.65449365462E+03  0.69003870034E+03  0.90120058547E+02 0.  0.
          2    1    3    3  502    0 -0.72214682903E+02  0.25291364403E+02  0.17709350770E+03  0.19291636532E+03  0.00000000000E+00 0. -1.
         -1    1    3    3    0  502 -0.66618329359E+03  0.25021923715E+03  0.11234302735E+04  0.13298516559E+04  0.00000000000E+00 0.  1.
         13    1    5    5    0    0  0.71194384622E+03 -0.40041985004E+03  0.13949408146E+04  0.16164962025E+04  0.00000000000E+00 0. -1.
        -13    1    5    5    0    0  0.14037385890E+03 -0.38468028111E+02  0.27824051945E+03  0.31401018472E+03  0.00000000000E+00 0.  1.
          3    1    6    6  503    0 -0.11975111673E+03  0.16390173466E+03  0.65323926610E+03  0.68405090992E+03  0.00000000000E+00 0. -1.
         -3    1    6    6    0  503  0.58313881140E+01 -0.52445805657E+00  0.12543885174E+01  0.59877904223E+01  0.00000000000E+00 0.  1.
<mgrwt>
<rscale>  0 0.20008041E+04</rscale>
<asrwt>0</asrwt>
<pdfrwt beam="1">  1        2 0.59780856E+00 0.20008041E+04</pdfrwt>
<pdfrwt beam="2">  1       -1 0.39624183E-01 0.20008041E+04</pdfrwt>
<totfact> 0.27894497E+00</totfact>
</mgrwt>
</event>
<event>
12    7  0.1701638E-007  0.1721633E+04  0.7818608E-02  0.8749121E-01
         -1   -1    0    0    0  501 -0.00000000000E+00  0.00000000000E+00  0.42822966295E+03  0.42822966295E+03  0.00000000000E+00 0.  1.
          2   -1    0    0  501    0  0.00000000000E+00 -0.00000000000E+00 -0.17303922354E+04  0.17303922354E+04  0.00000000000E+00 0. -1.
         24    2    1    2    0    0  0.56656539882E+03 -0.19259868668E+03 -0.67347359978E+03  0.90420390377E+03  0.76989640453E+02 0.  0.
        254    2    1    2    0    0 -0.56656539882E+03  0.19259868668E+03 -0.62868897262E+03  0.12544179945E+04  0.90566223034E+03 0.  0.
         23    2    4    4    0    0 -0.69138580472E+02 -0.31740895489E+03 -0.34364765724E+03  0.48154645467E+03  0.90910327942E+02 0.  0.
         23    2    4    4    0    0 -0.49742681835E+03  0.51000764157E+03 -0.28504131539E+03  0.77287153986E+03  0.92415537567E+02 0.  0.
          2    1    3    3  502    0  0.13838704595E+02 -0.19772218250E+02 -0.30074587132E+02  0.38560746239E+02  0.00000000000E+00 0. -1.
         -1    1    3    3    0  502  0.55272669422E+03 -0.17282646843E+03 -0.64339901265E+03  0.86564315753E+03  0.00000000000E+00 0.  1.
         13    1    5    5    0    0  0.21868437286E+02 -0.66355205778E+02 -0.61693120013E+02  0.93205595004E+02  0.00000000000E+00 0. -1.
        -13    1    5    5    0    0 -0.91007017759E+02 -0.25105374911E+03 -0.28195453722E+03  0.38834085967E+03  0.00000000000E+00 0.  1.
          1    1    6    6  503    0 -0.31186800759E+03  0.28000219126E+03 -0.20572003299E+03  0.46688715258E+03  0.00000000000E+00 0. -1.
         -1    1    6    6    0  503 -0.18555881076E+03  0.23000545031E+03 -0.79321282395E+02  0.30598438728E+03  0.00000000000E+00 0.  1.
<mgrwt>
<rscale>  0 0.17216333E+04</rscale>
<asrwt>0</asrwt>
<pdfrwt beam="1">  1        2 0.26621418E+00 0.17216333E+04</pdfrwt>
<pdfrwt beam="2">  1       -1 0.65881489E-01 0.17216333E+04</pdfrwt>
<totfact> 0.23833468E+01</totfact>
</mgrwt>
</event>
<event>
12    7  0.1701638E-007  0.1528587E+04  0.7818608E-02  0.8865662E-01
          2   -1    0    0  501    0  0.00000000000E+00  0.00000000000E+00  0.10791048899E+04  0.10791048899E+04  0.00000000000E+00 0. -1.
         -1   -1    0    0    0  501 -0.00000000000E+00 -0.00000000000E+00 -0.54132354442E+03  0.54132354442E+03  0.00000000000E+00 0.  1.
         24    2    1    2    0    0 -0.44906796376E+03  0.11938808847E+03  0.93749232622E+00  0.47193474019E+03  0.82498293122E+02 0.  0.
        254    2    1    2    0    0  0.44906796376E+03 -0.11938808847E+03  0.53684385312E+03  0.11484936941E+04  0.90272968878E+03 0.  0.
         23    2    4    4    0    0  0.52843947080E+03 -0.16083834888E+03  0.72837432892E+03  0.91866703515E+03  0.91119205836E+02 0.  0.
         23    2    4    4    0    0 -0.79371507045E+02  0.41450260414E+02 -0.19153047580E+03  0.22982665895E+03  0.90102218529E+02 0.  0.
          2    1    3    3  502    0 -0.15446812108E+02 -0.29095800060E+00  0.15473923838E+02  0.21866206342E+02  0.00000000000E+00 0. -1.
         -1    1    3    3    0  502 -0.43362115165E+03  0.11967904647E+03 -0.14536431512E+02  0.45006853385E+03  0.00000000000E+00 0.  1.
         13    1    5    5    0    0  0.52970645399E+02  0.10193460552E+02  0.58287528506E+02  0.79418082899E+02  0.00000000000E+00 0. -1.
        -13    1    5    5    0    0  0.47546882540E+03 -0.17103180943E+03  0.67008680041E+03  0.83924895225E+03  0.00000000000E+00 0.  1.
          3    1    6    6  503    0 -0.12602326223E+02 -0.21181515680E+02 -0.89109123787E+02  0.92454914282E+02  0.00000000000E+00 0. -1.
         -3    1    6    6    0  503 -0.66769180822E+02  0.62631776094E+02 -0.10242135201E+03  0.13737174467E+03  0.00000000000E+00 0.  1.
<mgrwt>
<rscale>  0 0.15285874E+04</rscale>
<asrwt>0</asrwt>
<pdfrwt beam="1">  1        2 0.16601614E+00 0.15285874E+04</pdfrwt>
<pdfrwt beam="2">  1       -1 0.83280546E-01 0.15285874E+04</pdfrwt>
<totfact> 0.35331060E+01</totfact>
</mgrwt>
</event>
<event>
12    7  0.1701638E-007  0.2168472E+04  0.7818608E-02  0.8531667E-01
         -1   -1    0    0    0  501 -0.00000000000E+00  0.00000000000E+00  0.11395983584E+04  0.11395983584E+04  0.00000000000E+00 0.  1.
          2   -1    0    0  501    0  0.00000000000E+00 -0.00000000000E+00 -0.10315631011E+04  0.10315631011E+04  0.00000000000E+00 0. -1.
         24    2    1    2    0    0  0.29780819158E+03  0.56013000026E+03 -0.58623658222E+03  0.86754343933E+03  0.80764798246E+02 0.  0.
        254    2    1    2    0    0 -0.29780819158E+03 -0.56013000026E+03  0.69427183952E+03  0.13036180201E+04  0.90275756379E+03 0.  0.
         23    2    4    4    0    0  0.24061774300E+02 -0.61357215277E+03  0.73622251931E+03  0.96280659269E+03  0.89012253972E+02 0.  0.
         23    2    4    4    0    0 -0.32186996588E+03  0.53442152514E+02 -0.41950679783E+02  0.34081142739E+03  0.89085525791E+02 0.  0.
          4    1    3    3  502    0  0.20554503759E+03  0.30245833837E+03 -0.34344943985E+03  0.50168448916E+03  0.00000000000E+00 0. -1.
         -3    1    3    3    0  502  0.92263153995E+02  0.25767166189E+03 -0.24278714237E+03  0.36585895018E+03  0.00000000000E+00 0.  1.
         13    1    5    5    0    0  0.40017120941E+02 -0.59197681829E+03  0.69810041114E+03  0.91617798893E+03  0.00000000000E+00 0. -1.
        -13    1    5    5    0    0 -0.15955346642E+02 -0.21595334476E+02  0.38122108170E+02  0.46628603763E+02  0.00000000000E+00 0.  1.
          3    1    6    6  503    0 -0.30975124454E+03  0.29548429022E+02 -0.34904435317E+02  0.31310902695E+03  0.00000000000E+00 0. -1.
         -3    1    6    6    0  503 -0.12118721340E+02  0.23893723492E+02 -0.70462444664E+01  0.27702400444E+02  0.00000000000E+00 0.  1.
<mgrwt>
<rscale>  0 0.21684719E+04</rscale>
<asrwt>0</asrwt>
<pdfrwt beam="1">  1        2 0.15870202E+00 0.21684719E+04</pdfrwt>
<pdfrwt beam="2">  1       -1 0.17532282E+00 0.21684719E+04</pdfrwt>
<totfact> 0.56534029E+00</totfact>
</mgrwt>
</event>
<event>
12    7  0.1701638E-007  0.1510797E+04  0.7818608E-02  0.8877305E-01
          2   -1    0    0  501    0  0.00000000000E+00  0.00000000000E+00  0.16289821858E+04  0.16289821858E+04  0.00000000000E+00 0. -1.
         -1   -1    0    0    0  501 -0.00000000000E+00 -0.00000000000E+00 -0.35029654350E+03  0.35029654350E+03  0.00000000000E+00 0.  1.
         24    2    1    2    0    0 -0.10988918975E+03  0.19859914931E+03 -0.15276391165E+03  0.28679807735E+03  0.86017837313E+02 0.  0.
        254    2    1    2    0    0  0.10988918975E+03 -0.19859914931E+03  0.14314495539E+04  0.16924806519E+04  0.87402841806E+03 0.  0.
         23    2    4    4    0    0  0.10803423028E+03 -0.12923346778E+03 -0.57200083495E+02  0.19956554082E+03  0.90453697675E+02 0.  0.
         23    2    4    4    0    0  0.18549594730E+01 -0.69365681529E+02  0.14886496374E+04  0.14929151111E+04  0.88897397721E+02 0.  0.
          2    1    3    3  502    0  0.73538254939E+01  0.53924135024E+02 -0.19509724786E+02  0.57814534926E+02  0.00000000000E+00 0. -1.
         -1    1    3    3    0  502 -0.11724301525E+03  0.14467501429E+03 -0.13325418687E+03  0.22898354242E+03  0.00000000000E+00 0.  1.
         13    1    5    5    0    0  0.50943430714E+02 -0.12260282366E+01 -0.17695196825E+02  0.53943083605E+02  0.00000000000E+00 0. -1.
        -13    1    5    5    0    0  0.57090799565E+02 -0.12800743954E+03 -0.39504886670E+02  0.14562245721E+03  0.00000000000E+00 0.  1.
          3    1    6    6  503    0 -0.32646289102E+02 -0.62726262053E+02  0.72032791443E+03  0.72379048658E+03  0.00000000000E+00 0. -1.
         -3    1    6    6    0  503  0.34501248575E+02 -0.66394194765E+01  0.76832172301E+03  0.76912462455E+03  0.00000000000E+00 0.  1.
<mgrwt>
<rscale>  0 0.15107969E+04</rscale>
<asrwt>0</asrwt>
<pdfrwt beam="1">  1        2 0.25061264E+00 0.15107969E+04</pdfrwt>
<pdfrwt beam="2">  1       -1 0.53891777E-01 0.15107969E+04</pdfrwt>
<totfact> 0.41067520E+01</totfact>
</mgrwt>
</event>
<event>
12    7  0.1701638E-007  0.1391089E+04  0.7818608E-02  0.8960294E-01
          2   -1    0    0  501    0  0.00000000000E+00  0.00000000000E+00  0.15929654717E+04  0.15929654717E+04  0.00000000000E+00 0. -1.
         -1   -1    0    0    0  501 -0.00000000000E+00 -0.00000000000E+00 -0.30369919784E+03  0.30369919784E+03  0.00000000000E+00 0.  1.
         24    2    1    2    0    0 -0.76785344643E+02  0.12942069394E+03  0.88528592075E+03  0.90140648250E+03  0.78465151766E+02 0.  0.
        254    2    1    2    0    0  0.76785344643E+02 -0.12942069394E+03  0.40398035316E+03  0.99525818709E+03  0.89704683716E+03 0.  0.
         23    2    4    4    0    0  0.97832783330E+02  0.10679042391E+03 -0.24431355667E+03  0.29823034723E+03  0.90976798710E+02 0.  0.
         23    2    4    4    0    0 -0.21047438688E+02 -0.23621111786E+03  0.64829390982E+03  0.69702783986E+03  0.96561530419E+02 0.  0.
          4    1    3    3  502    0 -0.68840920521E+02  0.10729953632E+03  0.84656417361E+03  0.85610931713E+03  0.00000000000E+00 0. -1.
         -1    1    3    3    0  502 -0.79444241215E+01  0.22121157621E+02  0.38721747137E+02  0.45297165369E+02  0.00000000000E+00 0.  1.
         13    1    5    5    0    0  0.73387372000E+01 -0.14772458811E+02 -0.10350580496E+02  0.19473497878E+02  0.00000000000E+00 0. -1.
        -13    1    5    5    0    0  0.90494046130E+02  0.12156288272E+03 -0.23396297617E+03  0.27875684935E+03  0.00000000000E+00 0.  1.
          1    1    6    6  503    0 -0.31106153853E+02 -0.45422662656E+02  0.24016779711E+03  0.24639679759E+03  0.00000000000E+00 0. -1.
         -1    1    6    6    0  503  0.10058715166E+02 -0.19078845520E+03  0.40812611271E+03  0.45063104228E+03  0.00000000000E+00 0.  1.
<mgrwt>
<rscale>  0 0.13910893E+04</rscale>
<asrwt>0</asrwt>
<pdfrwt beam="1">  1        2 0.24507161E+00 0.13910893E+04</pdfrwt>
<pdfrwt beam="2">  1       -1 0.46722954E-01 0.13910893E+04</pdfrwt>
<totfact> 0.56986415E+01</totfact>
</mgrwt>
</event>
<event>
12    7  0.1701638E-007  0.1670353E+04  0.7818608E-02  0.8778456E-01
          2   -1    0    0  501    0  0.00000000000E+00  0.00000000000E+00  0.14713915561E+04  0.14713915561E+04  0.00000000000E+00 0. -1.
         -1   -1    0    0    0  501 -0.00000000000E+00 -0.00000000000E+00 -0.47405449990E+03  0.47405449990E+03  0.00000000000E+00 0.  1.
         24    2    1    2    0    0 -0.61810278990E+02 -0.33495855873E+03 -0.19674341664E+03  0.40172040431E+03  0.81569385155E+02 0.  0.
        254    2    1    2    0    0  0.61810278990E+02  0.33495855873E+03  0.11940804728E+04  0.15437256517E+04  0.91719298156E+03 0.  0.
         23    2    4    4    0    0 -0.18318492741E+03 -0.12434935177E+03 -0.17174389878E+01  0.23635181355E+03  0.82702788684E+02 0.  0.
         23    2    4    4    0    0  0.24499520640E+03  0.45930791050E+03  0.11957979118E+04  0.13073738381E+04  0.91144385090E+02 0.  0.
          4    1    3    3  502    0  0.23367755541E+00 -0.34030521030E+00 -0.16705671024E+02  0.16710770694E+02  0.00000000000E+00 0. -1.
         -3    1    3    3    0  502 -0.62043956546E+02 -0.33461825352E+03 -0.18003774561E+03  0.38500963362E+03  0.00000000000E+00 0.  1.
         13    1    5    5    0    0 -0.17311247928E+03 -0.13256165846E+03 -0.13977554468E+02  0.21848545903E+03  0.00000000000E+00 0. -1.
        -13    1    5    5    0    0 -0.10072448126E+02  0.82123066880E+01  0.12260115480E+02  0.17866354524E+02  0.00000000000E+00 0.  1.
          4    1    6    6  503    0  0.20146758398E+03  0.41503738904E+03  0.98625614428E+03  0.10888279955E+04  0.00000000000E+00 0. -1.
         -4    1    6    6    0  503  0.43527622412E+02  0.44270521459E+02  0.20954176750E+03  0.21854584258E+03  0.00000000000E+00 0.  1.
<mgrwt>
<rscale>  0 0.16703530E+04</rscale>
<asrwt>0</asrwt>
<pdfrwt beam="1">  1        2 0.22636793E+00 0.16703530E+04</pdfrwt>
<pdfrwt beam="2">  1       -1 0.72931462E-01 0.16703530E+04</pdfrwt>
<totfact> 0.27143178E+01</totfact>
</mgrwt>
</event>
<event>
12    7  0.1701638E-007  0.3751706E+04  0.7818608E-02  0.8056599E-01
         -3   -1    0    0    0  501 -0.00000000000E+00  0.00000000000E+00  0.13306378298E+04  0.13306378298E+04  0.00000000000E+00 0.  1.
          2   -1    0    0  501    0  0.00000000000E+00 -0.00000000000E+00 -0.26444649388E+04  0.26444649388E+04  0.00000000000E+00 0. -1.
         24    2    1    2    0    0 -0.73273046227E+02 -0.12657657077E+03  0.12471446571E+04  0.12582271286E+04  0.79844497546E+02 0.  0.
        254    2    1    2    0    0  0.73273046227E+02  0.12657657077E+03 -0.25609717661E+04  0.27168756401E+04  0.89523532630E+03 0.  0.
         23    2    4    4    0    0  0.21677826926E+03 -0.40313728537E+02 -0.12884822978E+03  0.27283959018E+03  0.96028958757E+02 0.  0.
         23    2    4    4    0    0 -0.14350522303E+03  0.16689029930E+03 -0.24321235363E+04  0.24440360499E+04  0.98189593999E+02 0.  0.
          2    1    3    3  502    0 -0.57973496167E+02 -0.13602077403E+03  0.10689589998E+04  0.10791366551E+04  0.00000000000E+00 0. -1.
         -1    1    3    3    0  502 -0.15299550060E+02  0.94442032593E+01  0.17818565733E+03  0.17909047346E+03  0.00000000000E+00 0.  1.
         13    1    5    5    0    0  0.11735147788E+03 -0.26307468453E+02 -0.12335860478E+03  0.17228115866E+03  0.00000000000E+00 0. -1.
        -13    1    5    5    0    0  0.99426791382E+02 -0.14006260084E+02 -0.54896249960E+01  0.10055843151E+03  0.00000000000E+00 0.  1.
          4    1    6    6  503    0 -0.82506615002E+02  0.98665919623E+02 -0.89544484294E+03  0.90463460688E+03  0.00000000000E+00 0. -1.
         -4    1    6    6    0  503 -0.60998608030E+02  0.68224379681E+02 -0.15366786934E+04  0.15394014430E+04  0.00000000000E+00 0.  1.
<mgrwt>
<rscale>  0 0.37517063E+04</rscale>
<asrwt>0</asrwt>
<pdfrwt beam="1">  1        2 0.40684075E+00 0.37517063E+04</pdfrwt>
<pdfrwt beam="2">  1       -3 0.20471352E+00 0.37517063E+04</pdfrwt>
<totfact> 0.19974036E-01</totfact>
</mgrwt>
</event>
<event>
12    7  0.1701638E-007  0.1316157E+04  0.7818608E-02  0.9016850E-01
          2   -1    0    0  501    0  0.00000000000E+00  0.00000000000E+00  0.82909036310E+03  0.82909036310E+03  0.00000000000E+00 0. -1.
         -1   -1    0    0    0  501 -0.00000000000E+00 -0.00000000000E+00 -0.52233998364E+03  0.52233998364E+03  0.00000000000E+00 0.  1.
         24    2    1    2    0    0  0.86547798983E+02 -0.68026371825E+02  0.43382748192E+03  0.45469316936E+03  0.80134171383E+02 0.  0.
        254    2    1    2    0    0 -0.86547798983E+02  0.68026371825E+02 -0.12707710246E+03  0.89673717738E+03  0.88083532317E+03 0.  0.
         23    2    4    4    0    0 -0.11926728940E+02  0.35560156262E+03  0.22232274298E+03  0.42933403445E+03  0.91135025619E+02 0.  0.
         23    2    4    4    0    0 -0.74621070044E+02 -0.28757519079E+03 -0.34939984544E+03  0.46740314293E+03  0.90098010914E+02 0.  0.
          2    1    3    3  502    0  0.21278916771E+02 -0.54909658600E+02  0.29382458100E+03  0.29966772817E+03  0.00000000000E+00 0. -1.
         -1    1    3    3    0  502  0.65268882212E+02 -0.13116713225E+02  0.14000290092E+03  0.15502544120E+03  0.00000000000E+00 0.  1.
         13    1    5    5    0    0 -0.26305355531E+02  0.67834976858E+02  0.14782229204E+02  0.74243316973E+02  0.00000000000E+00 0. -1.
        -13    1    5    5    0    0  0.14378626591E+02  0.28776658576E+03  0.20754051377E+03  0.35509071748E+03  0.00000000000E+00 0.  1.
          1    1    6    6  503    0 -0.36547100657E+02 -0.90280640659E+02 -0.17969282294E+03  0.20439127980E+03  0.00000000000E+00 0. -1.
         -1    1    6    6    0  503 -0.38073969387E+02 -0.19729455014E+03 -0.16970702250E+03  0.26301186313E+03  0.00000000000E+00 0.  1.
<mgrwt>
<rscale>  0 0.13161566E+04</rscale>
<asrwt>0</asrwt>
<pdfrwt beam="1">  1        2 0.12755236E+00 0.13161566E+04</pdfrwt>
<pdfrwt beam="2">  1       -1 0.80359997E-01 0.13161566E+04</pdfrwt>
<totfact> 0.56719116E+01</totfact>
</mgrwt>
</event>
<event>
12    7  0.1701638E-007  0.1422984E+04  0.7818608E-02  0.8937348E-01
          2   -1    0    0  501    0  0.00000000000E+00  0.00000000000E+00  0.20994245390E+04  0.20994245390E+04  0.00000000000E+00 0. -1.
         -1   -1    0    0    0  501 -0.00000000000E+00 -0.00000000000E+00 -0.24112354096E+03  0.24112354096E+03  0.00000000000E+00 0.  1.
         24    2    1    2    0    0 -0.24595004742E+03 -0.15312448818E+03  0.10765108912E+04  0.11173483014E+04  0.75186387876E+02 0.  0.
        254    2    1    2    0    0  0.24595004742E+03  0.15312448818E+03  0.78179010680E+03  0.12231997786E+04  0.89503262094E+03 0.  0.
         23    2    4    4    0    0  0.53205394418E+03 -0.18446476384E+02  0.26888679300E+03  0.60458237243E+03  0.98985178661E+02 0.  0.
         23    2    4    4    0    0 -0.28610389675E+03  0.17157096456E+03  0.51290331380E+03  0.61861740617E+03  0.91245001408E+02 0.  0.
          4    1    3    3  502    0 -0.19690237421E+03 -0.11831190432E+03  0.71872667669E+03  0.75454376113E+03  0.00000000000E+00 0. -1.
         -3    1    3    3    0  502 -0.49047673213E+02 -0.34812583863E+02  0.35778421454E+03  0.36280454024E+03  0.00000000000E+00 0.  1.
         13    1    5    5    0    0  0.12727564712E+03 -0.46831994845E+02  0.72590765921E+02  0.15382374781E+03  0.00000000000E+00 0.  1.
        -13    1    5    5    0    0  0.40477829705E+03  0.28385518462E+02  0.19629602708E+03  0.45075862462E+03  0.00000000000E+00 0. -1.
          3    1    6    6  503    0 -0.24876017248E+03  0.14332239113E+03  0.48641281858E+03  0.56481887476E+03  0.00000000000E+00 0. -1.
         -3    1    6    6    0  503 -0.37343724274E+02  0.28248573435E+02  0.26490495222E+02  0.53798531400E+02  0.00000000000E+00 0.  1.
<mgrwt>
<rscale>  0 0.14229837E+04</rscale>
<asrwt>0</asrwt>
<pdfrwt beam="1">  1        2 0.32298838E+00 0.14229837E+04</pdfrwt>
<pdfrwt beam="2">  1       -1 0.37095931E-01 0.14229837E+04</pdfrwt>
<totfact> 0.45518535E+01</totfact>
</mgrwt>
</event>
<event>
12    7  0.1701638E-007  0.1532454E+04  0.7818608E-02  0.8863154E-01
         -1   -1    0    0    0  501 -0.00000000000E+00  0.00000000000E+00  0.28771084518E+03  0.28771084518E+03  0.00000000000E+00 0.  1.
          2   -1    0    0  501    0  0.00000000000E+00 -0.00000000000E+00 -0.20406040556E+04  0.20406040556E+04  0.00000000000E+00 0. -1.
         24    2    1    2    0    0  0.90687461121E+02  0.44846008480E+03 -0.83898498751E+03  0.95903981431E+03  0.80752045855E+02 0.  0.
        254    2    1    2    0    0 -0.90687461121E+02 -0.44846008480E+03 -0.91390822294E+03  0.13692750865E+04  0.91123287874E+03 0.  0.
         23    2    4    4    0    0  0.34963084408E+03 -0.32791678541E+03 -0.70789283487E+03  0.85997244194E+03  0.93108484838E+02 0.  0.
         23    2    4    4    0    0 -0.44031830520E+03 -0.12054329939E+03 -0.20601538807E+03  0.50930264456E+03  0.92390187359E+02 0.  0.
          4    1    3    3  502    0  0.55720534688E+02  0.40443446105E+03 -0.72979252724E+03  0.83622314252E+03  0.00000000000E+00 0. -1.
         -3    1    3    3    0  502  0.34966926433E+02  0.44025623746E+02 -0.10919246027E+03  0.12281667179E+03  0.00000000000E+00 0.  1.
         13    1    5    5    0    0  0.15116187343E+03 -0.20373857909E+03 -0.38749007891E+03  0.46314995611E+03  0.00000000000E+00 0.  1.
        -13    1    5    5    0    0  0.19846897065E+03 -0.12417820632E+03 -0.32040275596E+03  0.39682248583E+03  0.00000000000E+00 0. -1.
          1    1    6    6  503    0 -0.13731085987E+03 -0.83007529845E+02 -0.70461625835E+02  0.17524087127E+03  0.00000000000E+00 0. -1.
         -1    1    6    6    0  503 -0.30300744533E+03 -0.37535769541E+02 -0.13555376223E+03  0.33406177329E+03  0.00000000000E+00 0.  1.
<mgrwt>
<rscale>  0 0.15324541E+04</rscale>
<asrwt>0</asrwt>
<pdfrwt beam="1">  1        2 0.31393908E+00 0.15324541E+04</pdfrwt>
<pdfrwt beam="2">  1       -1 0.44263208E-01 0.15324541E+04</pdfrwt>
<totfact> 0.35182370E+01</totfact>
</mgrwt>
</event>
<event>
12    7  0.1701638E-007  0.1906831E+04  0.7818608E-02  0.8651464E-01
         -1   -1    0    0    0  501 -0.00000000000E+00  0.00000000000E+00  0.31893178334E+03  0.31893178334E+03  0.00000000000E+00 0.  1.
          2   -1    0    0  501    0  0.00000000000E+00 -0.00000000000E+00 -0.28501429129E+04  0.28501429129E+04  0.00000000000E+00 0. -1.
         24    2    1    2    0    0  0.60816189548E+03 -0.18615953573E+03 -0.38189515614E+03  0.74613095724E+03  0.79694612192E+02 0.  0.
        254    2    1    2    0    0 -0.60816189548E+03  0.18615953573E+03 -0.21493159734E+04  0.24229437390E+04  0.92009833438E+03 0.  0.
         23    2    4    4    0    0 -0.77500019947E+03  0.85213073134E+02 -0.20308845303E+04  0.21773881730E+04  0.92955384047E+02 0.  0.
         23    2    4    4    0    0  0.16683830399E+03  0.10094646259E+03 -0.11843144312E+03  0.24555556602E+03  0.90809257762E+02 0.  0.
          2    1    3    3  502    0  0.22129943882E+03 -0.10591912986E+03 -0.13132419623E+03  0.27827746622E+03  0.00000000000E+00 0. -1.
         -1    1    3    3    0  502  0.38686245666E+03 -0.80240405872E+02 -0.25057095991E+03  0.46785349101E+03  0.00000000000E+00 0.  1.
         13    1    5    5    0    0 -0.23791007144E+03 -0.10404760755E+02 -0.55637070754E+03  0.60519238705E+03  0.00000000000E+00 0. -1.
        -13    1    5    5    0    0 -0.53709012803E+03  0.95617833888E+02 -0.14745138228E+04  0.15721957859E+04  0.00000000000E+00 0.  1.
          2    1    6    6  503    0  0.17751476830E+03  0.92176705181E+02 -0.11684576367E+03  0.23164837671E+03  0.00000000000E+00 0.  1.
         -2    1    6    6    0  503 -0.10676464313E+02  0.87697574139E+01 -0.15856794552E+01  0.13907189315E+02  0.00000000000E+00 0. -1.
<mgrwt>
<rscale>  0 0.19068310E+04</rscale>
<asrwt>0</asrwt>
<pdfrwt beam="1">  1        2 0.43848351E+00 0.19068310E+04</pdfrwt>
<pdfrwt beam="2">  1       -1 0.49066430E-01 0.19068310E+04</pdfrwt>
<totfact> 0.95777057E+00</totfact>
</mgrwt>
</event>
<event>
12    7  0.1701638E-007  0.2129133E+04  0.7818608E-02  0.8548517E-01
          2   -1    0    0  501    0  0.00000000000E+00  0.00000000000E+00  0.18260084017E+04  0.18260084017E+04  0.00000000000E+00 0. -1.
         -1   -1    0    0    0  501 -0.00000000000E+00 -0.00000000000E+00 -0.62064458074E+03  0.62064458074E+03  0.00000000000E+00 0.  1.
         24    2    1    2    0    0  0.78974501834E+03 -0.17879737871E+03  0.88156648278E+03  0.11996379578E+04  0.79410764287E+02 0.  0.
        254    2    1    2    0    0 -0.78974501834E+03  0.17879737871E+03  0.32379733822E+03  0.12470150247E+04  0.89136752187E+03 0.  0.
         23    2    4    4    0    0 -0.37934603111E+03 -0.14722231577E+03  0.53151546448E+03  0.67600802682E+03  0.94341622610E+02 0.  0.
         23    2    4    4    0    0 -0.41039898723E+03  0.32601969448E+03 -0.20771812626E+03  0.57100699792E+03  0.90476526138E+02 0.  0.
          4    1    3    3  502    0  0.78511084205E+03 -0.17380197174E+03  0.86160454205E+03  0.11785450974E+04  0.00000000000E+00 0. -1.
         -3    1    3    3    0  502  0.46341762905E+01 -0.49954069770E+01  0.19961940730E+02  0.21092860367E+02  0.00000000000E+00 0.  1.
         13    1    5    5    0    0 -0.32266569888E+03 -0.14282094164E+03  0.40405254034E+03  0.53644145063E+03  0.00000000000E+00 0.  1.
        -13    1    5    5    0    0 -0.56680332228E+02 -0.44013741344E+01  0.12746292415E+03  0.13956657618E+03  0.00000000000E+00 0. -1.
          4    1    6    6  503    0 -0.27493006934E+03  0.25641364579E+03 -0.17746534401E+03  0.41572641135E+03  0.00000000000E+00 0.  1.
         -4    1    6    6    0  503 -0.13546891789E+03  0.69606048699E+02 -0.30252782254E+02  0.15528058657E+03  0.00000000000E+00 0. -1.
<mgrwt>
<rscale>  0 0.21291334E+04</rscale>
<asrwt>0</asrwt>
<pdfrwt beam="1">  1        2 0.28092437E+00 0.21291334E+04</pdfrwt>
<pdfrwt beam="2">  1       -1 0.95483783E-01 0.21291334E+04</pdfrwt>
<totfact> 0.92485464E+00</totfact>
</mgrwt>
</event>
<event>
12    7  0.1701638E-007  0.1875211E+04  0.7818608E-02  0.8667295E-01
         -1   -1    0    0    0  501 -0.00000000000E+00  0.00000000000E+00  0.37882697834E+03  0.37882697834E+03  0.00000000000E+00 0.  1.
          2   -1    0    0  501    0  0.00000000000E+00 -0.00000000000E+00 -0.23205955855E+04  0.23205955855E+04  0.00000000000E+00 0. -1.
         24    2    1    2    0    0 -0.22507420725E+03  0.19906220395E+03 -0.16855545868E+04  0.17140362803E+04  0.80882293149E+02 0.  0.
        254    2    1    2    0    0  0.22507420725E+03 -0.19906220395E+03 -0.25621402041E+03  0.98538628356E+03  0.90280470965E+03 0.  0.
         23    2    4    4    0    0 -0.25813325575E+03 -0.32606089788E+03 -0.21037046780E+03  0.47547655847E+03  0.94200515295E+02 0.  0.
         23    2    4    4    0    0  0.48320746300E+03  0.12699869393E+03 -0.45843552604E+02  0.50990972509E+03  0.91039419312E+02 0.  0.
          2    1    3    3  502    0 -0.18635951921E+03  0.19669232796E+03 -0.15232533692E+04  0.15471646872E+04  0.00000000000E+00 0. -1.
         -1    1    3    3    0  502 -0.38714688036E+02  0.23698759834E+01 -0.16230121751E+03  0.16687159311E+03  0.00000000000E+00 0.  1.
         13    1    5    5    0    0 -0.20183343091E+03 -0.26533863835E+03 -0.12364922734E+03  0.35557060939E+03  0.00000000000E+00 0.  1.
        -13    1    5    5    0    0 -0.56299824840E+02 -0.60722259524E+02 -0.86721240462E+02  0.11990594909E+03  0.00000000000E+00 0. -1.
          3    1    6    6  503    0  0.21547790697E+03  0.85545471831E+02  0.14714676661E+02  0.23230427859E+03  0.00000000000E+00 0. -1.
         -3    1    6    6    0  503  0.26772955603E+03  0.41453222100E+02 -0.60558229265E+02  0.27760544650E+03  0.00000000000E+00 0.  1.
<mgrwt>
<rscale>  0 0.18752111E+04</rscale>
<asrwt>0</asrwt>
<pdfrwt beam="1">  1        2 0.35701471E+00 0.18752111E+04</pdfrwt>
<pdfrwt beam="2">  1       -1 0.58281073E-01 0.18752111E+04</pdfrwt>
<totfact> 0.14071277E+01</totfact>
</mgrwt>
</event>
<event>
12    7  0.1701638E-007  0.1627369E+04  0.7818608E-02  0.8803909E-01
         -1   -1    0    0    0  501 -0.00000000000E+00  0.00000000000E+00  0.61662017697E+03  0.61662017697E+03  0.00000000000E+00 0.  1.
          2   -1    0    0  501    0  0.00000000000E+00 -0.00000000000E+00 -0.10737278424E+04  0.10737278424E+04  0.00000000000E+00 0. -1.
         24    2    1    2    0    0  0.38324859127E+03 -0.69782905380E+02  0.26146171094E+03  0.47650357893E+03  0.83332453813E+02 0.  0.
        254    2    1    2    0    0 -0.38324859127E+03  0.69782905380E+02 -0.71856937638E+03  0.12138444404E+04  0.89740026762E+03 0.  0.
         23    2    4    4    0    0 -0.45817127286E+03 -0.21301052959E+03 -0.74708809085E+03  0.90639064134E+03  0.90049865261E+02 0.  0.
         23    2    4    4    0    0  0.74922681590E+02  0.28279343497E+03  0.28518714474E+02  0.30745379910E+03  0.90160891912E+02 0.  0.
          2    1    3    3  502    0  0.24775744433E+02 -0.21899991297E+01  0.47441058012E+02  0.53565731524E+02  0.00000000000E+00 0. -1.
         -1    1    3    3    0  502  0.35847284683E+03 -0.67592906250E+02  0.21402065293E+03  0.42293784741E+03  0.00000000000E+00 0.  1.
         13    1    5    5    0    0 -0.11873573955E+03 -0.16533791173E+02 -0.20147235875E+03  0.23444115134E+03  0.00000000000E+00 0. -1.
        -13    1    5    5    0    0 -0.33943553330E+03 -0.19647673841E+03 -0.54561573210E+03  0.67194949000E+03  0.00000000000E+00 0.  1.
          1    1    6    6  503    0  0.68130906192E+02  0.20870872638E+03  0.58557855369E+02  0.22722274373E+03  0.00000000000E+00 0. -1.
         -1    1    6    6    0  503  0.67917753980E+01  0.74084708589E+02 -0.30039140895E+02  0.80231055368E+02  0.00000000000E+00 0.  1.
<mgrwt>
<rscale>  0 0.16273687E+04</rscale>
<asrwt>0</asrwt>
<pdfrwt beam="1">  1        2 0.16518890E+00 0.16273687E+04</pdfrwt>
<pdfrwt beam="2">  1       -1 0.94864644E-01 0.16273687E+04</pdfrwt>
<totfact> 0.26527684E+01</totfact>
</mgrwt>
</event>
<event>
12    7  0.2490710E-007  0.2988940E+04  0.7818608E-02  0.8246896E-01
          2   -1    0    0  501    0  0.00000000000E+00  0.00000000000E+00  0.18752519073E+04  0.18752519073E+04  0.00000000000E+00 0. -1.
         -1   -1    0    0    0  501 -0.00000000000E+00 -0.00000000000E+00 -0.11910080161E+04  0.11910080161E+04  0.00000000000E+00 0.  1.
         24    2    1    2    0    0 -0.11918710412E+04 -0.22686649777E+03  0.91849216858E+03  0.15242945759E+04  0.88437003416E+02 0.  0.
        254    2    1    2    0    0  0.11918710412E+04  0.22686649777E+03 -0.23424827738E+03  0.15419653476E+04  0.92236646246E+03 0.  0.
         23    2    4    4    0    0  0.13184674328E+04  0.17507210486E+03 -0.29604851721E+03  0.13656875436E+04  0.91930022418E+02 0.  0.
         23    2    4    4    0    0 -0.12659639155E+03  0.51794392918E+02  0.61800239831E+02  0.17627780401E+03  0.92440732657E+02 0.  0.
          4    1    3    3  502    0 -0.10511040629E+04 -0.21194195756E+03  0.77730495922E+03  0.13243648078E+04  0.00000000000E+00 0. -1.
         -3    1    3    3    0  502 -0.14076697828E+03 -0.14924540209E+02  0.14118720936E+03  0.19992976808E+03  0.00000000000E+00 0.  1.
         13    1    5    5    0    0  0.41135105162E+02  0.19162684344E+02 -0.20040548217E+02  0.49607750612E+02  0.00000000000E+00 0. -1.
        -13    1    5    5    0    0  0.12773323276E+04  0.15590942051E+03 -0.27600796899E+03  0.13160797930E+04  0.00000000000E+00 0.  1.
          1    1    6    6  503    0 -0.27242545172E+02  0.31405078348E+02 -0.19851319048E+02  0.46070707412E+02  0.00000000000E+00 0. -1.
         -1    1    6    6    0  503 -0.99353846376E+02  0.20389314570E+02  0.81651558878E+02  0.13020709660E+03  0.00000000000E+00 0.  1.
<mgrwt>
<rscale>  0 0.29889396E+04</rscale>
<asrwt>0</asrwt>
<pdfrwt beam="1">  1        2 0.28850029E+00 0.29889396E+04</pdfrwt>
<pdfrwt beam="2">  1       -1 0.18323200E+00 0.29889396E+04</pdfrwt>
<totfact> 0.15075917E+00</totfact>
</mgrwt>
</event>
<event>
12    7  0.1701638E-007  0.2249668E+04  0.7818608E-02  0.8498035E-01
          2   -1    0    0  501    0  0.00000000000E+00  0.00000000000E+00  0.15744634358E+04  0.15744634358E+04  0.00000000000E+00 0. -1.
         -1   -1    0    0    0  501 -0.00000000000E+00 -0.00000000000E+00 -0.80360772050E+03  0.80360772050E+03  0.00000000000E+00 0.  1.
         24    2    1    2    0    0  0.91763075668E+02 -0.66471453902E+03 -0.37607865851E+03  0.77349733420E+03  0.81222461032E+02 0.  0.
        254    2    1    2    0    0 -0.91763075668E+02  0.66471453902E+03  0.11469343738E+04  0.16045738221E+04  0.89940692251E+03 0.  0.
         23    2    4    4    0    0  0.33990099812E+03  0.56837567595E+03  0.65021651816E+03  0.93266436129E+03  0.92182931176E+02 0.  0.
         23    2    4    4    0    0 -0.43166407379E+03  0.96338863073E+02  0.49671785565E+03  0.67190946080E+03  0.95491603051E+02 0.  0.
          4    1    3    3  502    0  0.37743179618E+02 -0.78077536899E+02 -0.52162596418E+02  0.10120072056E+03  0.00000000000E+00 0. -1.
         -3    1    3    3    0  502  0.54019896050E+02 -0.58663700213E+03 -0.32391606210E+03  0.67229661364E+03  0.00000000000E+00 0.  1.
         13    1    5    5    0    0  0.27680627165E+03  0.49122071083E+03  0.59056484048E+03  0.81650862186E+03  0.00000000000E+00 0.  1.
        -13    1    5    5    0    0  0.63094726471E+02  0.77154965125E+02  0.59651677682E+02  0.11615573943E+03  0.00000000000E+00 0. -1.
          4    1    6    6  503    0 -0.74219089106E+02 -0.13689278262E+02  0.11465288540E+03  0.13726308191E+03  0.00000000000E+00 0. -1.
         -4    1    6    6    0  503 -0.35744498468E+03  0.11002814133E+03  0.38206497025E+03  0.53464637888E+03  0.00000000000E+00 0.  1.
<mgrwt>
<rscale>  0 0.22496675E+04</rscale>
<asrwt>0</asrwt>
<pdfrwt beam="1">  1        2 0.24222514E+00 0.22496675E+04</pdfrwt>
<pdfrwt beam="2">  1       -1 0.12363196E+00 0.22496675E+04</pdfrwt>
<totfact> 0.68736493E+00</totfact>
</mgrwt>
</event>
<event>
12    7  0.1701638E-007  0.2054847E+04  0.7818608E-02  0.8581398E-01
         -1   -1    0    0    0  501 -0.00000000000E+00  0.00000000000E+00  0.10227959626E+04  0.10227959626E+04  0.00000000000E+00 0.  1.
          2   -1    0    0  501    0  0.00000000000E+00 -0.00000000000E+00 -0.10320724621E+04  0.10320724621E+04  0.00000000000E+00 0. -1.
         24    2    1    2    0    0  0.30009005008E+03 -0.21397554629E+03  0.73792038991E+03  0.82879765938E+03  0.80867087108E+02 0.  0.
        254    2    1    2    0    0 -0.30009005008E+03  0.21397554629E+03 -0.74719688940E+03  0.12260707653E+04  0.89950361717E+03 0.  0.
         23    2    4    4    0    0 -0.33567866498E+03  0.11598837087E+03  0.91467701085E+02  0.37607241949E+03  0.83250561937E+02 0.  0.
         23    2    4    4    0    0  0.35588614898E+02  0.97987175428E+02 -0.83866459049E+03  0.84999834576E+03  0.90944248853E+02 0.  0.
          4    1    3    3  502    0  0.47730348725E+02 -0.82994435431E+01  0.63118946446E+02  0.79568010865E+02  0.00000000000E+00 0. -1.
         -3    1    3    3    0  502  0.25235970136E+03 -0.20567610275E+03  0.67480144347E+03  0.74922964852E+03  0.00000000000E+00 0.  1.
         13    1    5    5    0    0 -0.19418842492E+03  0.10360745703E+03  0.77548372758E+02  0.23336109283E+03  0.00000000000E+00 0.  1.
        -13    1    5    5    0    0 -0.14149024005E+03  0.12380913835E+02  0.13919328327E+02  0.14271132667E+03  0.00000000000E+00 0. -1.
          2    1    6    6  503    0  0.26456227635E+02  0.42724279372E+01 -0.60652552146E+02  0.66309258048E+02  0.00000000000E+00 0. -1.
         -2    1    6    6    0  503  0.91323872633E+01  0.93714747491E+02 -0.77801203834E+03  0.78368908771E+03  0.00000000000E+00 0.  1.
<mgrwt>
<rscale>  0 0.20548475E+04</rscale>
<asrwt>0</asrwt>
<pdfrwt beam="1">  1        2 0.15878038E+00 0.20548475E+04</pdfrwt>
<pdfrwt beam="2">  1       -1 0.15735323E+00 0.20548475E+04</pdfrwt>
<totfact> 0.77598741E+00</totfact>
</mgrwt>
</event>
<event>
12    7  0.2061158E-007  0.1957808E+04  0.7818608E-02  0.8626605E-01
          2   -1    0    0  501    0  0.00000000000E+00  0.00000000000E+00  0.96443168862E+03  0.96443168862E+03  0.00000000000E+00 0. -1.
         -1   -1    0    0    0  501 -0.00000000000E+00 -0.00000000000E+00 -0.99359356434E+03  0.99359356434E+03  0.00000000000E+00 0.  1.
         24    2    1    2    0    0  0.30891032423E+03 -0.26799948801E+03 -0.66124661110E+03  0.78157413074E+03  0.79760436056E+02 0.  0.
        254    2    1    2    0    0 -0.30891032423E+03  0.26799948801E+03  0.63208473538E+03  0.11764511222E+04  0.90402257509E+03 0.  0.
         23    2    4    4    0    0  0.21255645526E+03  0.38074224135E+03  0.34423627301E+03  0.56305831513E+03  0.91603239917E+02 0.  0.
         23    2    4    4    0    0 -0.52146677949E+03 -0.11274275334E+03  0.28784846237E+03  0.61339280708E+03  0.93570657534E+02 0.  0.
          4    1    3    3  502    0  0.95069188719E+01 -0.29246331602E+02 -0.78045386208E+02  0.83885706333E+02  0.00000000000E+00 0. -1.
         -3    1    3    3    0  502  0.29940340536E+03 -0.23875315641E+03 -0.58320122490E+03  0.69768842441E+03  0.00000000000E+00 0.  1.
         13    1    5    5    0    0  0.39797738827E+02  0.33351809562E+02  0.14555182615E+02  0.53926399451E+02  0.00000000000E+00 0.  1.
        -13    1    5    5    0    0  0.17275871643E+03  0.34739043179E+03  0.32968109040E+03  0.50913191568E+03  0.00000000000E+00 0. -1.
          1    1    6    6  503    0 -0.16983670964E+02  0.43277913872E+00  0.32678482223E+02  0.36830905196E+02  0.00000000000E+00 0.  1.
         -1    1    6    6    0  503 -0.50448310853E+03 -0.11317553248E+03  0.25516998014E+03  0.57656190189E+03  0.00000000000E+00 0. -1.
<mgrwt>
<rscale>  0 0.19578081E+04</rscale>
<asrwt>0</asrwt>
<pdfrwt beam="1">  1        2 0.14837411E+00 0.19578081E+04</pdfrwt>
<pdfrwt beam="2">  1       -1 0.15286055E+00 0.19578081E+04</pdfrwt>
<totfact> 0.93650670E+00</totfact>
</mgrwt>
</event>
<event>
12    7  0.1701638E-007  0.1916265E+04  0.7818608E-02  0.8646803E-01
          2   -1    0    0  501    0  0.00000000000E+00  0.00000000000E+00  0.17604265050E+04  0.17604265050E+04  0.00000000000E+00 0. -1.
         -1   -1    0    0    0  501 -0.00000000000E+00 -0.00000000000E+00 -0.52147451885E+03  0.52147451885E+03  0.00000000000E+00 0.  1.
         24    2    1    2    0    0  0.58733246652E+03 -0.45813950552E+03  0.28540793621E+03  0.80151300356E+03  0.78193171615E+02 0.  0.
        254    2    1    2    0    0 -0.58733246652E+03  0.45813950552E+03  0.95354404990E+03  0.14803880202E+04  0.85290749946E+03 0.  0.
         23    2    4    4    0    0 -0.41936123563E+03 -0.76665488540E+01  0.31714538908E+02  0.42979970586E+03  0.88313947149E+02 0.  0.
         23    2    4    4    0    0 -0.16797123089E+03  0.46580605437E+03  0.92182951099E+03  0.10505883144E+04  0.93683212368E+02 0.  0.
          2    1    3    3  502    0  0.30745116614E+03 -0.23705832284E+03  0.19042200995E+03  0.43241578355E+03  0.00000000000E+00 0. -1.
         -1    1    3    3    0  502  0.27988130038E+03 -0.22108118268E+03  0.94985926262E+02  0.36909722001E+03  0.00000000000E+00 0.  1.
         13    1    5    5    0    0 -0.19345051350E+03  0.25788817773E+02  0.47569025351E+02  0.20087552481E+03  0.00000000000E+00 0.  1.
        -13    1    5    5    0    0 -0.22591072213E+03 -0.33455366627E+02 -0.15854486443E+02  0.22892418105E+03  0.00000000000E+00 0. -1.
          1    1    6    6  503    0 -0.57112090060E+02  0.10657855373E+03  0.30667665359E+03  0.32965337675E+03  0.00000000000E+00 0.  1.
         -1    1    6    6    0  503 -0.11085914083E+03  0.35922750064E+03  0.61515285740E+03  0.72093493763E+03  0.00000000000E+00 0. -1.
<mgrwt>
<rscale>  0 0.19162647E+04</rscale>
<asrwt>0</asrwt>
<pdfrwt beam="1">  1        2 0.27083484E+00 0.19162647E+04</pdfrwt>
<pdfrwt beam="2">  1       -1 0.80226850E-01 0.19162647E+04</pdfrwt>
<totfact> 0.14991521E+01</totfact>
</mgrwt>
</event>
<event>
12    7  0.1701638E-007  0.1541565E+04  0.7818608E-02  0.8857273E-01
          2   -1    0    0  501    0  0.00000000000E+00  0.00000000000E+00  0.11583908391E+04  0.11583908391E+04  0.00000000000E+00 0. -1.
         -1   -1    0    0    0  501 -0.00000000000E+00 -0.00000000000E+00 -0.51287175044E+03  0.51287175044E+03  0.00000000000E+00 0.  1.
         24    2    1    2    0    0  0.28656812544E+03 -0.21418155548E+03 -0.16289031576E+03  0.40090865249E+03  0.78736671595E+02 0.  0.
        254    2    1    2    0    0 -0.28656812544E+03  0.21418155548E+03  0.80840940441E+03  0.12703539371E+04  0.91229289760E+03 0.  0.
         23    2    4    4    0    0  0.26801599149E+02  0.20391357441E+03  0.90333270799E+03  0.92986552797E+03  0.79629437071E+02 0.  0.
         23    2    4    4    0    0 -0.31336972459E+03  0.10267981072E+02 -0.94923303574E+02  0.34048840908E+03  0.92821912468E+02 0.  0.
          2    1    3    3  502    0  0.13059020872E+03 -0.13362101262E+03 -0.54642087302E+02  0.19466416036E+03  0.00000000000E+00 0. -1.
         -1    1    3    3    0  502  0.15597791672E+03 -0.80560542861E+02 -0.10824822845E+03  0.20624449213E+03  0.00000000000E+00 0.  1.
         13    1    5    5    0    0  0.14977145603E+01  0.16726222289E+03  0.80071322082E+03  0.81799789508E+03  0.00000000000E+00 0. -1.
        -13    1    5    5    0    0  0.25303884588E+02  0.36651351512E+02  0.10261948717E+03  0.11186763289E+03  0.00000000000E+00 0.  1.
          3    1    6    6  503    0 -0.25580525454E+03  0.34801657785E+02 -0.10186107188E+03  0.27753046968E+03  0.00000000000E+00 0. -1.
         -3    1    6    6    0  503 -0.57564470042E+02 -0.24533676712E+02  0.69377683070E+01  0.62957939399E+02  0.00000000000E+00 0.  1.
<mgrwt>
<rscale>  0 0.15415654E+04</rscale>
<asrwt>0</asrwt>
<pdfrwt beam="1">  1        2 0.17821397E+00 0.15415654E+04</pdfrwt>
<pdfrwt beam="2">  1       -1 0.78903347E-01 0.15415654E+04</pdfrwt>
<totfact> 0.35410710E+01</totfact>
</mgrwt>
</event>
<event>
12    7  0.1701638E-007  0.2270905E+04  0.7818608E-02  0.8489482E-01
          2   -1    0    0  501    0  0.00000000000E+00  0.00000000000E+00  0.95659425302E+03  0.95659425302E+03  0.00000000000E+00 0. -1.
         -1   -1    0    0    0  501 -0.00000000000E+00 -0.00000000000E+00 -0.13477522972E+04  0.13477522972E+04  0.00000000000E+00 0.  1.
         24    2    1    2    0    0  0.46519782574E+03 -0.72900057244E+02  0.71145912846E+03  0.85720705486E+03  0.83104801335E+02 0.  0.
        254    2    1    2    0    0 -0.46519782574E+03  0.72900057244E+02 -0.11026171727E+04  0.14471394954E+04  0.81038549730E+03 0.  0.
         23    2    4    4    0    0 -0.48856157915E+03  0.26548535010E+03 -0.34684060472E+03  0.66165642857E+03  0.91191757576E+02 0.  0.
         23    2    4    4    0    0  0.23363753409E+02 -0.19258529286E+03 -0.75577656796E+03  0.78548306682E+03  0.90279940168E+02 0.  0.
          4    1    3    3  502    0  0.43582771298E+03 -0.48847091727E+02  0.63341323545E+03  0.77041817256E+03  0.00000000000E+00 0. -1.
         -3    1    3    3    0  502  0.29370112758E+02 -0.24052965517E+02  0.78045893017E+02  0.86788882297E+02  0.00000000000E+00 0.  1.
         13    1    5    5    0    0 -0.10382558345E+03  0.10160590442E+03 -0.87855754928E+02  0.16977086106E+03  0.00000000000E+00 0.  1.
        -13    1    5    5    0    0 -0.38473599570E+03  0.16387944568E+03 -0.25898484979E+03  0.49188556751E+03  0.00000000000E+00 0. -1.
          4    1    6    6  503    0  0.41952683464E+02 -0.18457791131E+03 -0.62137332874E+03  0.64956435144E+03  0.00000000000E+00 0. -1.
         -4    1    6    6    0  503 -0.18588930056E+02 -0.80073815538E+01 -0.13440323922E+03  0.13591871538E+03  0.00000000000E+00 0.  1.
<mgrwt>
<rscale>  0 0.22709048E+04</rscale>
<asrwt>0</asrwt>
<pdfrwt beam="1">  1        2 0.14716835E+00 0.22709048E+04</pdfrwt>
<pdfrwt beam="2">  1       -1 0.20734650E+00 0.22709048E+04</pdfrwt>
<totfact> 0.37333417E+00</totfact>
</mgrwt>
</event>
<event>
12    7  0.1701638E-007  0.1501558E+04  0.7818608E-02  0.8883417E-01
          2   -1    0    0  501    0  0.00000000000E+00  0.00000000000E+00  0.21583238568E+04  0.21583238568E+04  0.00000000000E+00 0. -1.
         -1   -1    0    0    0  501 -0.00000000000E+00 -0.00000000000E+00 -0.26116062902E+03  0.26116062902E+03  0.00000000000E+00 0.  1.
         24    2    1    2    0    0  0.27782416448E+03 -0.24108101030E+03  0.12337229264E+03  0.39633909570E+03  0.80979233699E+02 0.  0.
        254    2    1    2    0    0 -0.27782416448E+03  0.24108101030E+03  0.17737909351E+04  0.20231453901E+04  0.90081999761E+03 0.  0.
         23    2    4    4    0    0 -0.40453440339E+03  0.48615265080E+03  0.91089301550E+03  0.11126555157E+04  0.91014985037E+02 0.  0.
         23    2    4    4    0    0  0.12671023891E+03 -0.24507164049E+03  0.86289791963E+03  0.91048987443E+03  0.91013175472E+02 0.  0.
          4    1    3    3  502    0  0.11407631206E+03 -0.11384748231E+03  0.94883273917E+02  0.18702269881E+03  0.00000000000E+00 0. -1.
         -3    1    3    3    0  502  0.16374785243E+03 -0.12723352799E+03  0.28489018722E+02  0.20931639689E+03  0.00000000000E+00 0.  1.
         13    1    5    5    0    0 -0.32399587375E+02  0.55227388701E+02  0.53542612671E+02  0.83466215299E+02  0.00000000000E+00 0. -1.
        -13    1    5    5    0    0 -0.37213481602E+03  0.43092526209E+03  0.85735040283E+03  0.10291893004E+04  0.00000000000E+00 0.  1.
          4    1    6    6  503    0  0.32792869577E+02 -0.16016501834E+02  0.19055112847E+03  0.19401451798E+03  0.00000000000E+00 0. -1.
         -4    1    6    6    0  503  0.93917369335E+02 -0.22905513866E+03  0.67234679117E+03  0.71647535645E+03  0.00000000000E+00 0.  1.
<mgrwt>
<rscale>  0 0.15015581E+04</rscale>
<asrwt>0</asrwt>
<pdfrwt beam="1">  1        2 0.33204981E+00 0.15015581E+04</pdfrwt>
<pdfrwt beam="2">  1       -1 0.40178560E-01 0.15015581E+04</pdfrwt>
<totfact> 0.36262833E+01</totfact>
</mgrwt>
</event>
<event>
12    7  0.1701638E-007  0.1403423E+04  0.7818608E-02  0.8951345E-01
          2   -1    0    0  501    0  0.00000000000E+00  0.00000000000E+00  0.26255183261E+04  0.26255183261E+04  0.00000000000E+00 0. -1.
         -1   -1    0    0    0  501 -0.00000000000E+00 -0.00000000000E+00 -0.18754349439E+03  0.18754349439E+03  0.00000000000E+00 0.  1.
         24    2    1    2    0    0  0.70728140338E+02 -0.21510650917E+03  0.43161446377E+02  0.24437194734E+03  0.81126186102E+02 0.  0.
        254    2    1    2    0    0 -0.70728140338E+02  0.21510650917E+03  0.23948133854E+04  0.25686898732E+04  0.90097904181E+03 0.  0.
         23    2    4    4    0    0  0.39932659115E+03  0.14312832320E+03  0.94125424006E+03  0.10365194056E+04  0.92008099545E+02 0.  0.
         23    2    4    4    0    0 -0.47005473149E+03  0.71978185966E+02  0.14535591453E+04  0.15321704676E+04  0.92627442481E+02 0.  0.
          4    1    3    3  502    0  0.44369009548E+02 -0.14549310631E+03  0.67001282260E+02  0.16621078429E+03  0.00000000000E+00 0. -1.
         -3    1    3    3    0  502  0.26359130790E+02 -0.69613402862E+02 -0.23839835882E+02  0.78161163047E+02  0.00000000000E+00 0.  1.
         13    1    5    5    0    0  0.77289915318E+02 -0.69537802155E+01  0.19960802412E+03  0.21416220340E+03  0.00000000000E+00 0. -1.
        -13    1    5    5    0    0  0.32203667583E+03  0.15008210342E+03  0.74164621594E+03  0.82235720217E+03  0.00000000000E+00 0.  1.
          2    1    6    6  503    0 -0.61842332085E+02 -0.21873458652E+02  0.20056152989E+03  0.21101623043E+03  0.00000000000E+00 0. -1.
         -2    1    6    6    0  503 -0.40821239940E+03  0.93851644618E+02  0.12529976154E+04  0.13211542372E+04  0.00000000000E+00 0.  1.
<mgrwt>
<rscale>  0 0.14034228E+04</rscale>
<asrwt>0</asrwt>
<pdfrwt beam="1">  1        2 0.40392587E+00 0.14034228E+04</pdfrwt>
<pdfrwt beam="2">  1       -1 0.28852847E-01 0.14034228E+04</pdfrwt>
<totfact> 0.35765700E+01</totfact>
</mgrwt>
</event>
<event>
12    7  0.1701638E-007  0.2568339E+04  0.7818608E-02  0.8379036E-01
         -1   -1    0    0    0  501 -0.00000000000E+00  0.00000000000E+00  0.11536775381E+04  0.11536775381E+04  0.00000000000E+00 0.  1.
          2   -1    0    0  501    0  0.00000000000E+00 -0.00000000000E+00 -0.14294209735E+04  0.14294209735E+04  0.00000000000E+00 0. -1.
         24    2    1    2    0    0  0.37134848688E+03 -0.29481031747E+03 -0.11471918142E+04  0.12438797334E+04  0.79843037651E+02 0.  0.
        254    2    1    2    0    0 -0.37134848688E+03  0.29481031747E+03  0.87144837873E+03  0.13392187782E+04  0.89959537409E+03 0.  0.
         23    2    4    4    0    0 -0.26324256904E+03  0.43468618393E+03  0.79007773811E+02  0.52228319288E+03  0.91042718471E+02 0.  0.
         23    2    4    4    0    0 -0.10810591784E+03 -0.13987586646E+03  0.79244060492E+03  0.81693558532E+03  0.90385235195E+02 0.  0.
          2    1    3    3  502    0  0.29169033163E+03 -0.20827300910E+03 -0.93376701846E+03  0.10001908521E+04  0.00000000000E+00 0. -1.
         -1    1    3    3    0  502  0.79658155252E+02 -0.86537308369E+02 -0.21342479571E+03  0.24368888129E+03  0.00000000000E+00 0.  1.
         13    1    5    5    0    0 -0.74873415095E+02  0.57026485753E+02  0.18856204664E+02  0.95987524292E+02  0.00000000000E+00 0. -1.
        -13    1    5    5    0    0 -0.18836915394E+03  0.37765969818E+03  0.60151569148E+02  0.42629566859E+03  0.00000000000E+00 0.  1.
          3    1    6    6  503    0 -0.49643805035E+02 -0.46896205747E+01  0.24534085879E+03  0.25035701890E+03  0.00000000000E+00 0. -1.
         -3    1    6    6    0  503 -0.58462112808E+02 -0.13518624589E+03  0.54709974613E+03  0.56657856642E+03  0.00000000000E+00 0.  1.
<mgrwt>
<rscale>  0 0.25683387E+04</rscale>
<asrwt>0</asrwt>
<pdfrwt beam="1">  1        2 0.21991092E+00 0.25683387E+04</pdfrwt>
<pdfrwt beam="2">  1       -1 0.17748885E+00 0.25683387E+04</pdfrwt>
<totfact> 0.30515246E+00</totfact>
</mgrwt>
</event>
<event>
12    7  0.1701638E-007  0.1396829E+04  0.7818608E-02  0.8956117E-01
         -1   -1    0    0    0  501 -0.00000000000E+00  0.00000000000E+00  0.19430190092E+03  0.19430190092E+03  0.00000000000E+00 0.  1.
          2   -1    0    0  501    0  0.00000000000E+00 -0.00000000000E+00 -0.25104362179E+04  0.25104362179E+04  0.00000000000E+00 0. -1.
         24    2    1    2    0    0 -0.16524381178E+03  0.34339735350E+03 -0.43084700998E+03  0.58075157798E+03  0.80099872658E+02 0.  0.
        254    2    1    2    0    0  0.16524381178E+03 -0.34339735350E+03 -0.18852873070E+04  0.21239865409E+04  0.90099019751E+03 0.  0.
         23    2    4    4    0    0  0.83658952400E+01 -0.22380245652E+02  0.79474599295E+02  0.12487410319E+03  0.93308446113E+02 0.  0.
         23    2    4    4    0    0  0.15687791654E+03 -0.32101710785E+03 -0.19647619063E+04  0.19991124377E+04  0.92187448682E+02 0.  0.
          2    1    3    3  502    0 -0.21046157061E+02  0.54055833469E+01 -0.19793723791E+02  0.29393069929E+02  0.00000000000E+00 0. -1.
         -1    1    3    3    0  502 -0.14419765472E+03  0.33799177015E+03 -0.41105328619E+03  0.55135850805E+03  0.00000000000E+00 0.  1.
         13    1    5    5    0    0  0.27166478347E+02  0.30113912328E+02  0.33924343219E+02  0.52874628361E+02  0.00000000000E+00 0. -1.
        -13    1    5    5    0    0 -0.18800583107E+02 -0.52494157980E+02  0.45550256076E+02  0.71999474830E+02  0.00000000000E+00 0.  1.
          2    1    6    6  503    0  0.16836521600E+03 -0.31077163109E+03 -0.18937629627E+04  0.19264641215E+04  0.00000000000E+00 0.  1.
         -2    1    6    6    0  503 -0.11487299460E+02 -0.10245476754E+02 -0.70998943644E+02  0.72648316164E+02  0.00000000000E+00 0. -1.
<mgrwt>
<rscale>  0 0.13968286E+04</rscale>
<asrwt>0</asrwt>
<pdfrwt beam="1">  1        2 0.38622094E+00 0.13968286E+04</pdfrwt>
<pdfrwt beam="2">  1       -1 0.29892602E-01 0.13968286E+04</pdfrwt>
<totfact> 0.39232924E+01</totfact>
</mgrwt>
</event>
<event>
12    7  0.1701638E-007  0.1527918E+04  0.7818608E-02  0.8866097E-01
         -1   -1    0    0    0  501 -0.00000000000E+00  0.00000000000E+00  0.43208879026E+03  0.43208879026E+03  0.00000000000E+00 0.  1.
          2   -1    0    0  501    0  0.00000000000E+00 -0.00000000000E+00 -0.13507260739E+04  0.13507260739E+04  0.00000000000E+00 0. -1.
         24    2    1    2    0    0  0.24800518923E+03  0.25600151961E+03 -0.69874636674E+03  0.78883510229E+03  0.83492404708E+02 0.  0.
        254    2    1    2    0    0 -0.24800518923E+03 -0.25600151961E+03 -0.21989091690E+03  0.99397976186E+03  0.90144350889E+03 0.  0.
         23    2    4    4    0    0 -0.88871890131E+02 -0.46541105721E+01  0.33488514932E+03  0.35773123662E+03  0.88902760473E+02 0.  0.
         23    2    4    4    0    0 -0.15913329910E+03 -0.25134740904E+03 -0.55477606622E+03  0.63624852524E+03  0.92394671446E+02 0.  0.
          4    1    3    3  502    0  0.91990803999E+02  0.97771315522E+02 -0.35484674579E+03  0.37939129030E+03  0.00000000000E+00 0. -1.
         -3    1    3    3    0  502  0.15601438523E+03  0.15823020409E+03 -0.34389962095E+03  0.40944381198E+03  0.00000000000E+00 0.  1.
         13    1    5    5    0    0 -0.58255731096E+02 -0.39565430616E+02  0.13210622661E+03  0.14970373614E+03  0.00000000000E+00 0.  1.
        -13    1    5    5    0    0 -0.30616159035E+02  0.34911320044E+02  0.20277892271E+03  0.20802750048E+03  0.00000000000E+00 0. -1.
          4    1    6    6  503    0 -0.15823383657E+03 -0.20068249665E+03 -0.50064642768E+03  0.56210164299E+03  0.00000000000E+00 0. -1.
         -4    1    6    6    0  503 -0.89946252753E+00 -0.50664912386E+02 -0.54129638534E+02  0.74146882252E+02  0.00000000000E+00 0.  1.
<mgrwt>
<rscale>  0 0.15279183E+04</rscale>
<asrwt>0</asrwt>
<pdfrwt beam="1">  1        2 0.20780401E+00 0.15279183E+04</pdfrwt>
<pdfrwt beam="2">  1       -1 0.66475199E-01 0.15279183E+04</pdfrwt>
<totfact> 0.38927233E+01</totfact>
</mgrwt>
</event>
<event>
12    7  0.1701638E-007  0.1954715E+04  0.7818608E-02  0.8628090E-01
          2   -1    0    0  501    0  0.00000000000E+00  0.00000000000E+00  0.19019225562E+04  0.19019225562E+04  0.00000000000E+00 0. -1.
         -1   -1    0    0    0  501 -0.00000000000E+00 -0.00000000000E+00 -0.50224331186E+03  0.50224331186E+03  0.00000000000E+00 0.  1.
         24    2    1    2    0    0 -0.33738886875E+03 -0.15470398529E+03 -0.27879667793E+03  0.47096122946E+03  0.79450111415E+02 0.  0.
        254    2    1    2    0    0  0.33738886875E+03  0.15470398529E+03  0.16784759223E+04  0.19332046386E+04  0.88444003823E+03 0.  0.
         23    2    4    4    0    0  0.31459657464E+03  0.44085937966E+03  0.14634212329E+04  0.15630862225E+04  0.91152821011E+02 0.  0.
         23    2    4    4    0    0  0.22792294117E+02 -0.28615539437E+03  0.21505468939E+03  0.37011841608E+03  0.91294710089E+02 0.  0.
          2    1    3    3  502    0 -0.19412299148E+03 -0.82889935331E+02 -0.20601222552E+03  0.29495001994E+03  0.00000000000E+00 0. -1.
         -1    1    3    3    0  502 -0.14326587728E+03 -0.71814049955E+02 -0.72784452413E+02  0.17601120952E+03  0.00000000000E+00 0.  1.
         13    1    5    5    0    0  0.16599355600E+03  0.15759329179E+03  0.64171692564E+03  0.68131499242E+03  0.00000000000E+00 0.  1.
        -13    1    5    5    0    0  0.14860301864E+03  0.28326608787E+03  0.82170430726E+03  0.88177123011E+03  0.00000000000E+00 0. -1.
          4    1    6    6  503    0  0.53118769622E+02 -0.13046324251E+03  0.81349949964E+02  0.16266553320E+03  0.00000000000E+00 0. -1.
         -4    1    6    6    0  503 -0.30326475505E+02 -0.15569215186E+03  0.13370473943E+03  0.20745288288E+03  0.00000000000E+00 0.  1.
<mgrwt>
<rscale>  0 0.19547152E+04</rscale>
<asrwt>0</asrwt>
<pdfrwt beam="1">  1        2 0.29260347E+00 0.19547152E+04</pdfrwt>
<pdfrwt beam="2">  1       -1 0.77268203E-01 0.19547152E+04</pdfrwt>
<totfact> 0.13505668E+01</totfact>
</mgrwt>
</event>
<event>
12    7  0.1701638E-007  0.1246001E+04  0.7818608E-02  0.9073518E-01
          2   -1    0    0  501    0  0.00000000000E+00  0.00000000000E+00  0.19381246448E+04  0.19381246448E+04  0.00000000000E+00 0. -1.
         -1   -1    0    0    0  501 -0.00000000000E+00 -0.00000000000E+00 -0.20026048918E+03  0.20026048918E+03  0.00000000000E+00 0.  1.
         24    2    1    2    0    0 -0.64038798123E+02 -0.15124571801E+03  0.12261225223E+02  0.18294650377E+03  0.79642016018E+02 0.  0.
        254    2    1    2    0    0  0.64038798123E+02  0.15124571801E+03  0.17256029304E+04  0.19554386302E+04  0.90501852371E+03 0.  0.
         23    2    4    4    0    0 -0.36194625433E+03  0.23655689841E+03  0.11244384728E+04  0.12080924919E+04  0.90340094632E+02 0.  0.
         23    2    4    4    0    0  0.42598505246E+03 -0.85311180398E+02  0.60116445759E+03  0.74734613830E+03  0.91576650625E+02 0.  0.
          4    1    3    3  502    0  0.41980922642E+01  0.50203035699E+01  0.10559615545E+02  0.12423079612E+02  0.00000000000E+00 0. -1.
         -3    1    3    3    0  502 -0.68236890387E+02 -0.15626602158E+03  0.17016096782E+01  0.17052342416E+03  0.00000000000E+00 0.  1.
         13    1    5    5    0    0 -0.75503806788E+02  0.70170445876E+02  0.18242333683E+03  0.20953040384E+03  0.00000000000E+00 0.  1.
        -13    1    5    5    0    0 -0.28644244754E+03  0.16638645253E+03  0.94201513593E+03  0.99856208804E+03  0.00000000000E+00 0. -1.
          1    1    6    6  503    0  0.41780336195E+02 -0.49900759976E+01  0.11533201324E+03  0.12276795440E+03  0.00000000000E+00 0.  1.
         -1    1    6    6    0  503  0.38420471626E+03 -0.80321104400E+02  0.48583244436E+03  0.62457818390E+03  0.00000000000E+00 0. -1.
<mgrwt>
<rscale>  0 0.12460013E+04</rscale>
<asrwt>0</asrwt>
<pdfrwt beam="1">  1        2 0.29817301E+00 0.12460013E+04</pdfrwt>
<pdfrwt beam="2">  1       -1 0.30809307E-01 0.12460013E+04</pdfrwt>
<totfact> 0.78973016E+01</totfact>
</mgrwt>
</event>
<event>
12    7  0.1701638E-007  0.1410460E+04  0.7818608E-02  0.8946282E-01
         -1   -1    0    0    0  501 -0.00000000000E+00  0.00000000000E+00  0.29842702884E+03  0.29842702884E+03  0.00000000000E+00 0.  1.
          2   -1    0    0  501    0  0.00000000000E+00 -0.00000000000E+00 -0.16665684219E+04  0.16665684219E+04  0.00000000000E+00 0. -1.
         24    2    1    2    0    0  0.20140694388E+03 -0.17483306154E+03 -0.78586094414E+03  0.83376285131E+03  0.80322551274E+02 0.  0.
        254    2    1    2    0    0 -0.20140694388E+03  0.17483306154E+03 -0.58228044893E+03  0.11312325994E+04  0.93247268934E+03 0.  0.
         23    2    4    4    0    0  0.13868757213E+03 -0.30867830982E+03 -0.10465004733E+03  0.36594491444E+03  0.91910317052E+02 0.  0.
         23    2    4    4    0    0 -0.34009451601E+03  0.48351137137E+03 -0.47763040159E+03  0.76528768499E+03  0.89927271773E+02 0.  0.
          4    1    3    3  502    0  0.94407474057E+02 -0.56274447303E+02 -0.42794634080E+03  0.44183442055E+03  0.00000000000E+00 0. -1.
         -3    1    3    3    0  502  0.10699946982E+03 -0.11855861424E+03 -0.35791460334E+03  0.39192843076E+03  0.00000000000E+00 0.  1.
         13    1    5    5    0    0  0.12429073893E+03 -0.18552640302E+03 -0.42770446667E+02  0.22737094166E+03  0.00000000000E+00 0.  1.
        -13    1    5    5    0    0  0.14396833203E+02 -0.12315190680E+03 -0.61879600667E+02  0.13857397279E+03  0.00000000000E+00 0. -1.
          2    1    6    6  503    0 -0.45508676226E+02  0.11258750062E+03 -0.68739713253E+02  0.13954258521E+03  0.00000000000E+00 0. -1.
         -2    1    6    6    0  503 -0.29458583979E+03  0.37092387074E+03 -0.40889068834E+03  0.62574509978E+03  0.00000000000E+00 0.  1.
<mgrwt>
<rscale>  0 0.14104596E+04</rscale>
<asrwt>0</asrwt>
<pdfrwt beam="1">  1        2 0.25639514E+00 0.14104596E+04</pdfrwt>
<pdfrwt beam="2">  1       -1 0.45911851E-01 0.14104596E+04</pdfrwt>
<totfact> 0.53496869E+01</totfact>
</mgrwt>
</event>
<event>
12    7  0.1701638E-007  0.2629589E+04  0.7818608E-02  0.8358219E-01
          4   -1    0    0  501    0  0.00000000000E+00  0.00000000000E+00  0.91141005641E+03  0.91141005641E+03  0.00000000000E+00 0. -1.
         -3   -1    0    0    0  501 -0.00000000000E+00 -0.00000000000E+00 -0.18967148083E+04  0.18967148083E+04  0.00000000000E+00 0.  1.
         24    2    1    2    0    0  0.11459684557E+04  0.18357783720E+03 -0.46890219677E+03  0.12542006157E+04  0.78774301212E+02 0.  0.
        254    2    1    2    0    0 -0.11459684557E+04 -0.18357783720E+03 -0.51640255516E+03  0.15539242490E+04  0.89502203815E+03 0.  0.
         23    2    4    4    0    0 -0.88399415230E+03 -0.39576575049E+03 -0.53352709097E+02  0.97421853008E+03  0.90438057377E+02 0.  0.
         23    2    4    4    0    0 -0.26197430345E+03  0.21218791329E+03 -0.46304984606E+03  0.57970571892E+03  0.89382964825E+02 0.  0.
          2    1    3    3  502    0  0.85349157499E+02  0.14422152377E+02 -0.58318110572E+02  0.10437183138E+03  0.00000000000E+00 0. -1.
         -1    1    3    3    0  502  0.10606192982E+04  0.16915568482E+03 -0.41058408620E+03  0.11498287844E+04  0.00000000000E+00 0.  1.
         13    1    5    5    0    0 -0.85298553672E+03 -0.39285702218E+03 -0.64049359136E+02  0.94128809943E+03  0.00000000000E+00 0. -1.
        -13    1    5    5    0    0 -0.31008615573E+02 -0.29087283113E+01  0.10696650039E+02  0.32930430640E+02  0.00000000000E+00 0.  1.
          4    1    6    6  503    0 -0.18449622671E+03  0.17396722788E+03 -0.39649215163E+03  0.47064793673E+03  0.00000000000E+00 0. -1.
         -4    1    6    6    0  503 -0.77478076738E+02  0.38220685406E+02 -0.66557694431E+02  0.10905778219E+03  0.00000000000E+00 0.  1.
<mgrwt>
<rscale>  0 0.26295893E+04</rscale>
<asrwt>0</asrwt>
<pdfrwt beam="1">  1        4 0.14021693E+00 0.26295893E+04</pdfrwt>
<pdfrwt beam="2">  1       -3 0.29180228E+00 0.26295893E+04</pdfrwt>
<totfact> 0.30261637E-02</totfact>
</mgrwt>
</event>
<event>
12    7  0.1701638E-007  0.1419441E+04  0.7818608E-02  0.8939865E-01
         -1   -1    0    0    0  501 -0.00000000000E+00  0.00000000000E+00  0.42465938340E+03  0.42465938340E+03  0.00000000000E+00 0.  1.
          2   -1    0    0  501    0  0.00000000000E+00 -0.00000000000E+00 -0.11861353975E+04  0.11861353975E+04  0.00000000000E+00 0. -1.
         24    2    1    2    0    0  0.23105868824E+03 -0.15247000851E+03 -0.60776544333E+03  0.67284522645E+03  0.81894100743E+02 0.  0.
        254    2    1    2    0    0 -0.23105868824E+03  0.15247000851E+03 -0.15371057077E+03  0.93794955445E+03  0.88288572659E+03 0.  0.
         23    2    4    4    0    0 -0.43521223205E+03 -0.21455979286E+02  0.19759025232E+03  0.48676068110E+03  0.89576821134E+02 0.  0.
         23    2    4    4    0    0  0.20415354380E+03  0.17392598780E+03 -0.35130082309E+03  0.45118887335E+03  0.90720518366E+02 0.  0.
          2    1    3    3  502    0  0.17589060005E+03 -0.15098786941E+03 -0.45991870035E+03  0.51503402880E+03  0.00000000000E+00 0. -1.
         -1    1    3    3    0  502  0.55168088187E+02 -0.14821391025E+01 -0.14784674299E+03  0.15781119764E+03  0.00000000000E+00 0.  1.
         13    1    5    5    0    0 -0.31391353905E+03 -0.31186714887E+02  0.10048382107E+03  0.33107600258E+03  0.00000000000E+00 0. -1.
        -13    1    5    5    0    0 -0.12129869299E+03  0.97307356014E+01  0.97106431245E+02  0.15568467852E+03  0.00000000000E+00 0.  1.
          1    1    6    6  503    0  0.14781582628E+03  0.16697067235E+03 -0.24951196782E+03  0.33464151866E+03  0.00000000000E+00 0. -1.
         -1    1    6    6    0  503  0.56337717522E+02  0.69553154458E+01 -0.10178885527E+03  0.11654735469E+03  0.00000000000E+00 0.  1.
<mgrwt>
<rscale>  0 0.14194415E+04</rscale>
<asrwt>0</asrwt>
<pdfrwt beam="1">  1        2 0.18248237E+00 0.14194415E+04</pdfrwt>
<pdfrwt beam="2">  1       -1 0.65332213E-01 0.14194415E+04</pdfrwt>
<totfact> 0.50822500E+01</totfact>
</mgrwt>
</event>
<event>
12    7  0.2610127E-007  0.2792003E+04  0.7818608E-02  0.8305755E-01
         -1   -1    0    0    0  501 -0.00000000000E+00  0.00000000000E+00  0.10150516652E+04  0.10150516652E+04  0.00000000000E+00 0.  1.
          2   -1    0    0  501    0  0.00000000000E+00 -0.00000000000E+00 -0.19199221231E+04  0.19199221231E+04  0.00000000000E+00 0. -1.
         24    2    1    2    0    0 -0.33262989117E+03 -0.15903140567E+03 -0.16652348755E+04  0.17074021681E+04  0.79254908796E+02 0.  0.
        254    2    1    2    0    0  0.33262989117E+03  0.15903140567E+03  0.76036441764E+03  0.12275716202E+04  0.89041810551E+03 0.  0.
         23    2    4    4    0    0  0.55969545951E+03  0.26115201840E+03  0.29117577466E+03  0.68870427104E+03  0.89837949026E+02 0.  0.
         23    2    4    4    0    0 -0.22706556833E+03 -0.10212061273E+03  0.46918864298E+03  0.53886734917E+03  0.90844072071E+02 0.  0.
          2    1    3    3  502    0 -0.25478359205E+03 -0.15182185577E+03 -0.12343206635E+04  0.12694534473E+04  0.00000000000E+00 0. -1.
         -1    1    3    3    0  502 -0.77846299121E+02 -0.72095498972E+01 -0.43091421206E+03  0.43794872080E+03  0.00000000000E+00 0.  1.
         13    1    5    5    0    0  0.46625424500E+03  0.20602837312E+03  0.27445120999E+03  0.57893365611E+03  0.00000000000E+00 0. -1.
        -13    1    5    5    0    0  0.93441214509E+02  0.55123645286E+02  0.16724564671E+02  0.10977061493E+03  0.00000000000E+00 0.  1.
          3    1    6    6  503    0 -0.23114968250E+03 -0.10842295786E+03  0.43982444592E+03  0.50855801708E+03  0.00000000000E+00 0. -1.
         -3    1    6    6    0  503  0.40841141639E+01  0.63023451230E+01  0.29364197062E+02  0.30309332088E+02  0.00000000000E+00 0.  1.
<mgrwt>
<rscale>  0 0.27920030E+04</rscale>
<asrwt>0</asrwt>
<pdfrwt beam="1">  1        2 0.29537263E+00 0.27920030E+04</pdfrwt>
<pdfrwt beam="2">  1       -1 0.15616179E+00 0.27920030E+04</pdfrwt>
<totfact> 0.22927633E+00</totfact>
</mgrwt>
</event>
<event>
12    7  0.1701638E-007  0.1322421E+04  0.7818608E-02  0.9011972E-01
          2   -1    0    0  501    0  0.00000000000E+00  0.00000000000E+00  0.23032522690E+04  0.23032522690E+04  0.00000000000E+00 0. -1.
         -1   -1    0    0    0  501 -0.00000000000E+00 -0.00000000000E+00 -0.18981812343E+03  0.18981812343E+03  0.00000000000E+00 0.  1.
         24    2    1    2    0    0 -0.29849001081E+03 -0.16384285289E+03  0.49456116269E+03  0.60585963966E+03  0.80835588278E+02 0.  0.
        254    2    1    2    0    0  0.29849001081E+03  0.16384285289E+03  0.16188729829E+04  0.18872107528E+04  0.90822570084E+03 0.  0.
         23    2    4    4    0    0 -0.16786595488E+03  0.67244377394E+02  0.51072349208E+01  0.20210768938E+03  0.90114644530E+02 0.  0.
         23    2    4    4    0    0  0.46635596569E+03  0.96598475494E+02  0.16137657480E+04  0.16851030634E+04  0.92267506477E+02 0.  0.
          4    1    3    3  502    0 -0.16573381634E+03 -0.69439908386E+02  0.32067691007E+03  0.36759118516E+03  0.00000000000E+00 0. -1.
         -3    1    3    3    0  502 -0.13275619447E+03 -0.94402944502E+02  0.17388425262E+03  0.23826845450E+03  0.00000000000E+00 0.  1.
         13    1    5    5    0    0 -0.71126152169E+01  0.26391796213E+02  0.22408286944E+02  0.35344695873E+02  0.00000000000E+00 0. -1.
        -13    1    5    5    0    0 -0.16075333967E+03  0.40852581181E+02 -0.17301052023E+02  0.16676299351E+03  0.00000000000E+00 0.  1.
          2    1    6    6  503    0  0.10662312831E+03 -0.14285210584E+02  0.40791733911E+03  0.42186385752E+03  0.00000000000E+00 0. -1.
         -2    1    6    6    0  503  0.35973283737E+03  0.11088368608E+03  0.12058484088E+04  0.12632392059E+04  0.00000000000E+00 0.  1.
<mgrwt>
<rscale>  0 0.13224205E+04</rscale>
<asrwt>0</asrwt>
<pdfrwt beam="1">  1        2 0.35434648E+00 0.13224205E+04</pdfrwt>
<pdfrwt beam="2">  1       -1 0.29202790E-01 0.13224205E+04</pdfrwt>
<totfact> 0.53979960E+01</totfact>
</mgrwt>
</event>
<event>
12    7  0.1701638E-007  0.1354461E+04  0.7818608E-02  0.8987458E-01
          2   -1    0    0  501    0  0.00000000000E+00  0.00000000000E+00  0.12841893106E+04  0.12841893106E+04  0.00000000000E+00 0. -1.
         -1   -1    0    0    0  501 -0.00000000000E+00 -0.00000000000E+00 -0.35714475367E+03  0.35714475367E+03  0.00000000000E+00 0.  1.
         24    2    1    2    0    0 -0.25660760478E+03  0.13062102810E+03 -0.10511237294E+02  0.30013230544E+03  0.84021418986E+02 0.  0.
        254    2    1    2    0    0  0.25660760478E+03 -0.13062102810E+03  0.93755579425E+03  0.13412017589E+04  0.91482346647E+03 0.  0.
         23    2    4    4    0    0 -0.13918070934E+03 -0.22592816380E+03  0.87552723165E+03  0.91949700049E+03  0.92260476402E+02 0.  0.
         23    2    4    4    0    0  0.39578831412E+03  0.95307135699E+02  0.62028562604E+02  0.42170475836E+03  0.90859897316E+02 0.  0.
          2    1    3    3  502    0 -0.14562840412E+03  0.83124397852E+02 -0.46780927823E+02  0.17408547559E+03  0.00000000000E+00 0. -1.
         -1    1    3    3    0  502 -0.11097920066E+03  0.47496630248E+02  0.36269690529E+02  0.12604682985E+03  0.00000000000E+00 0.  1.
         13    1    5    5    0    0 -0.14601126395E+03 -0.23040357204E+03  0.85000433089E+03  0.89269953385E+03  0.00000000000E+00 0.  1.
        -13    1    5    5    0    0  0.68305546033E+01  0.44754082456E+01  0.25522900758E+02  0.26797466639E+02  0.00000000000E+00 0. -1.
          2    1    6    6  503    0  0.13538900472E+03 -0.10829873119E+02  0.24479978741E+02  0.13800992033E+03  0.00000000000E+00 0. -1.
         -2    1    6    6    0  503  0.26039930940E+03  0.10613700882E+03  0.37548583864E+02  0.28369483803E+03  0.00000000000E+00 0.  1.
<mgrwt>
<rscale>  0 0.13544615E+04</rscale>
<asrwt>0</asrwt>
<pdfrwt beam="1">  1        2 0.19756758E+00 0.13544615E+04</pdfrwt>
<pdfrwt beam="2">  1       -1 0.54945348E-01 0.13544615E+04</pdfrwt>
<totfact> 0.62917266E+01</totfact>
</mgrwt>
</event>
<event>
12    7  0.1701638E-007  0.1244561E+04  0.7818608E-02  0.9074722E-01
          2   -1    0    0  501    0  0.00000000000E+00  0.00000000000E+00  0.17645847998E+04  0.17645847998E+04  0.00000000000E+00 0. -1.
         -1   -1    0    0    0  501 -0.00000000000E+00 -0.00000000000E+00 -0.21944713515E+03  0.21944713515E+03  0.00000000000E+00 0.  1.
         24    2    1    2    0    0  0.22466294246E+03 -0.11997250389E+03  0.19988856070E+03  0.33345518011E+03  0.79812787421E+02 0.  0.
        254    2    1    2    0    0 -0.22466294246E+03  0.11997250389E+03  0.13452491039E+04  0.16505767548E+04  0.92186855490E+03 0.  0.
         23    2    4    4    0    0 -0.16633263458E+03 -0.20473724065E+03  0.17520386928E+02  0.27940208027E+03  0.90413911916E+02 0.  0.
         23    2    4    4    0    0 -0.58330307877E+02  0.32470974454E+03  0.13277287170E+04  0.13711746745E+04  0.91747474896E+02 0.  0.
          4    1    3    3  502    0  0.19337864879E+02 -0.19016951256E+02  0.58528119299E+02  0.64506884918E+02  0.00000000000E+00 0. -1.
         -3    1    3    3    0  502  0.20532507758E+03 -0.10095555264E+03  0.14136044140E+03  0.26894829519E+03  0.00000000000E+00 0.  1.
         13    1    5    5    0    0 -0.11959526003E+03 -0.88800273315E+02  0.35453781007E+02  0.15311918674E+03  0.00000000000E+00 0. -1.
        -13    1    5    5    0    0 -0.46737374553E+02 -0.11593696733E+03 -0.17933394079E+02  0.12628289353E+03  0.00000000000E+00 0.  1.
          4    1    6    6  503    0  0.23227308444E+01  0.74869114813E+02  0.46354384146E+03  0.46955688941E+03  0.00000000000E+00 0. -1.
         -4    1    6    6    0  503 -0.60653038721E+02  0.24984062973E+03  0.86418487551E+03  0.90161778511E+03  0.00000000000E+00 0.  1.
<mgrwt>
<rscale>  0 0.12445611E+04</rscale>
<asrwt>0</asrwt>
<pdfrwt beam="1">  1        2 0.27147457E+00 0.12445611E+04</pdfrwt>
<pdfrwt beam="2">  1       -1 0.33761099E-01 0.12445611E+04</pdfrwt>
<totfact> 0.83766258E+01</totfact>
</mgrwt>
</event>
<event>
12    7  0.1701638E-007  0.2469782E+04  0.7818608E-02  0.8413831E-01
         -1   -1    0    0    0  501 -0.00000000000E+00  0.00000000000E+00  0.51446359374E+03  0.51446359374E+03  0.00000000000E+00 0.  1.
          2   -1    0    0  501    0  0.00000000000E+00 -0.00000000000E+00 -0.29641655118E+04  0.29641655118E+04  0.00000000000E+00 0. -1.
         24    2    1    2    0    0 -0.85854896441E+03  0.57973434750E+03 -0.14528537878E+04  0.17861876099E+04  0.80522116464E+02 0.  0.
        254    2    1    2    0    0  0.85854896441E+03 -0.57973434750E+03 -0.99684813025E+03  0.16924414956E+04  0.89300267818E+03 0.  0.
         23    2    4    4    0    0  0.53993198850E+03  0.14756832150E+03 -0.41168400886E+03  0.70210950494E+03  0.10085173304E+03 0.  0.
         23    2    4    4    0    0  0.31861697590E+03 -0.72730266899E+03 -0.58516412140E+03  0.99033199065E+03  0.88625352311E+02 0.  0.
          2    1    3    3  502    0 -0.52935519490E+03  0.34936731651E+03 -0.95493130111E+03  0.11463717696E+04  0.00000000000E+00 0. -1.
         -1    1    3    3    0  502 -0.32919376951E+03  0.23036703099E+03 -0.49792248665E+03  0.63981584035E+03  0.00000000000E+00 0.  1.
         13    1    5    5    0    0  0.79468472544E+02  0.57738936588E+02 -0.90415142792E+02  0.13350625818E+03  0.00000000000E+00 0. -1.
        -13    1    5    5    0    0  0.46046351596E+03  0.89829384910E+02 -0.32126886606E+03  0.56860324676E+03  0.00000000000E+00 0.  1.
          3    1    6    6  503    0  0.56225708227E+02 -0.83102380064E+02 -0.10420172224E+03  0.14465591849E+03  0.00000000000E+00 0. -1.
         -3    1    6    6    0  503  0.26239126767E+03 -0.64420028893E+03 -0.48096239916E+03  0.84567607215E+03  0.00000000000E+00 0.  1.
<mgrwt>
<rscale>  0 0.24697816E+04</rscale>
<asrwt>0</asrwt>
<pdfrwt beam="1">  1        2 0.45602546E+00 0.24697816E+04</pdfrwt>
<pdfrwt beam="2">  1       -1 0.79148245E-01 0.24697816E+04</pdfrwt>
<totfact> 0.29756828E+00</totfact>
</mgrwt>
</event>
<event>
12    7  0.1701638E-007  0.1592435E+04  0.7818608E-02  0.8825209E-01
         -1   -1    0    0    0  501 -0.00000000000E+00  0.00000000000E+00  0.28908172867E+03  0.28908172867E+03  0.00000000000E+00 0.  1.
          2   -1    0    0  501    0  0.00000000000E+00 -0.00000000000E+00 -0.21930203988E+04  0.21930203988E+04  0.00000000000E+00 0. -1.
         24    2    1    2    0    0 -0.43971041468E+03 -0.23885879558E+03 -0.33923545278E+03  0.60975588244E+03  0.79515852146E+02 0.  0.
        254    2    1    2    0    0  0.43971041468E+03  0.23885879558E+03 -0.15647032174E+04  0.18723462450E+04  0.89832373334E+03 0.  0.
         23    2    4    4    0    0  0.57916152379E+03  0.43831282095E+03 -0.13480870542E+04  0.15342012826E+04  0.94279745375E+02 0.  0.
         23    2    4    4    0    0 -0.13945110911E+03 -0.19945402537E+03 -0.21661616319E+03  0.33814496239E+03  0.90503775446E+02 0.  0.
          4    1    3    3  502    0 -0.59628044512E+02 -0.11983593806E+02 -0.65133893523E+02  0.89115286558E+02  0.00000000000E+00 0. -1.
         -3    1    3    3    0  502 -0.38008237016E+03 -0.22687520178E+03 -0.27410155926E+03  0.52064059588E+03  0.00000000000E+00 0.  1.
         13    1    5    5    0    0  0.31613946919E+03  0.26598764234E+03 -0.67722494030E+03  0.79330146201E+03  0.00000000000E+00 0. -1.
        -13    1    5    5    0    0  0.26302205460E+03  0.17232517861E+03 -0.67086211388E+03  0.74089982064E+03  0.00000000000E+00 0.  1.
          3    1    6    6  503    0 -0.37541130999E+02 -0.41533807686E+02 -0.10648896105E+03  0.12030915394E+03  0.00000000000E+00 0. -1.
         -3    1    6    6    0  503 -0.10190997811E+03 -0.15792021768E+03 -0.11012720214E+03  0.21783580845E+03  0.00000000000E+00 0.  1.
<mgrwt>
<rscale>  0 0.15924348E+04</rscale>
<asrwt>0</asrwt>
<pdfrwt beam="1">  1        2 0.33738774E+00 0.15924348E+04</pdfrwt>
<pdfrwt beam="2">  1       -1 0.44474113E-01 0.15924348E+04</pdfrwt>
<totfact> 0.28528043E+01</totfact>
</mgrwt>
</event>
<event>
12    7  0.1701638E-007  0.2071684E+04  0.7818608E-02  0.8573820E-01
          2   -1    0    0  501    0  0.00000000000E+00  0.00000000000E+00  0.62620610376E+03  0.62620610376E+03  0.00000000000E+00 0. -1.
         -1   -1    0    0    0  501 -0.00000000000E+00 -0.00000000000E+00 -0.17134437746E+04  0.17134437746E+04  0.00000000000E+00 0.  1.
         24    2    1    2    0    0  0.68255956035E+02  0.82835181189E+03 -0.52657987865E+03  0.98713678351E+03  0.79542824721E+02 0.  0.
        254    2    1    2    0    0 -0.68255956035E+02 -0.82835181189E+03 -0.56065779222E+03  0.13525130949E+04  0.90781546146E+03 0.  0.
         23    2    4    4    0    0 -0.14896593404E+03  0.14459055970E+03 -0.66441546965E+01  0.22624807655E+03  0.89703778572E+02 0.  0.
         23    2    4    4    0    0  0.80709978007E+02 -0.97294237159E+03 -0.55401363752E+03  0.11262650183E+04  0.91710533601E+02 0.  0.
          4    1    3    3  502    0  0.23372074114E+02  0.32817813305E+03 -0.16313447490E+03  0.36723289308E+03  0.00000000000E+00 0. -1.
         -3    1    3    3    0  502  0.44883881920E+02  0.50017367884E+03 -0.36344540375E+03  0.61990389043E+03  0.00000000000E+00 0.  1.
         13    1    5    5    0    0  0.11714154066E+02  0.15435949141E+02  0.41340783925E+01  0.19813645185E+02  0.00000000000E+00 0.  1.
        -13    1    5    5    0    0 -0.16068008811E+03  0.12915461056E+03 -0.10778233089E+02  0.20643443136E+03  0.00000000000E+00 0. -1.
          2    1    6    6  503    0 -0.12329886927E+02 -0.23264858743E+02 -0.16267156732E+02  0.30949962070E+02  0.00000000000E+00 0.  1.
         -2    1    6    6    0  503  0.93039864934E+02 -0.94967751285E+03 -0.53774648079E+03  0.10953150563E+04  0.00000000000E+00 0. -1.
<mgrwt>
<rscale>  0 0.20716843E+04</rscale>
<asrwt>0</asrwt>
<pdfrwt beam="1">  1        2 0.96339401E-01 0.20716843E+04</pdfrwt>
<pdfrwt beam="2">  1       -1 0.26360673E+00 0.20716843E+04</pdfrwt>
<totfact> 0.28227049E+00</totfact>
</mgrwt>
</event>
<event>
12    7  0.1701638E-007  0.1935937E+04  0.7818608E-02  0.8637172E-01
         -1   -1    0    0    0  501 -0.00000000000E+00  0.00000000000E+00  0.31902466468E+03  0.31902466468E+03  0.00000000000E+00 0.  1.
          2   -1    0    0  501    0  0.00000000000E+00 -0.00000000000E+00 -0.29369615758E+04  0.29369615758E+04  0.00000000000E+00 0. -1.
         24    2    1    2    0    0 -0.73817541896E+03  0.12860612559E+03 -0.66997969109E+03  0.10094014568E+04  0.92606856682E+02 0.  0.
        254    2    1    2    0    0  0.73817541896E+03 -0.12860612559E+03 -0.19479572200E+04  0.22465847836E+04  0.83136236040E+03 0.  0.
         23    2    4    4    0    0  0.35458604599E+03 -0.22868149555E+03 -0.24707617341E+03  0.49770716551E+03  0.92947817135E+02 0.  0.
         23    2    4    4    0    0  0.38358937297E+03  0.10007536996E+03 -0.17008810466E+04  0.17488776181E+04  0.91764381547E+02 0.  0.
          2    1    3    3  502    0 -0.73070388455E+03  0.12401041712E+03 -0.67194933799E+03  0.10004112471E+04  0.00000000000E+00 0. -1.
         -1    1    3    3    0  502 -0.74715344135E+01  0.45957084686E+01  0.19696468962E+01  0.89902097704E+01  0.00000000000E+00 0.  1.
         13    1    5    5    0    0  0.29807641678E+03 -0.22827057406E+03 -0.21119488817E+03  0.43076709021E+03  0.00000000000E+00 0. -1.
        -13    1    5    5    0    0  0.56509629209E+02 -0.41092149646E+00 -0.35881285245E+02  0.66940075296E+02  0.00000000000E+00 0.  1.
          1    1    6    6  503    0  0.56642050542E+02  0.33882496901E+02 -0.42573611758E+03  0.43082199027E+03  0.00000000000E+00 0. -1.
         -1    1    6    6    0  503  0.32694732243E+03  0.66192873061E+02 -0.12751449290E+04  0.13180556279E+04  0.00000000000E+00 0.  1.
<mgrwt>
<rscale>  0 0.19359372E+04</rscale>
<asrwt>0</asrwt>
<pdfrwt beam="1">  1        2 0.45184022E+00 0.19359372E+04</pdfrwt>
<pdfrwt beam="2">  1       -1 0.49080720E-01 0.19359372E+04</pdfrwt>
<totfact> 0.84466215E+00</totfact>
</mgrwt>
</event>
<event>
12    7  0.1701638E-007  0.1148979E+04  0.7818608E-02  0.9158726E-01
          2   -1    0    0  501    0  0.00000000000E+00  0.00000000000E+00  0.25876095902E+04  0.25876095902E+04  0.00000000000E+00 0. -1.
         -1   -1    0    0    0  501 -0.00000000000E+00 -0.00000000000E+00 -0.12754549246E+03  0.12754549246E+03  0.00000000000E+00 0.  1.
         24    2    1    2    0    0 -0.19737762837E+03  0.49812986149E+02  0.38815926226E+03  0.44566346070E+03  0.80678656134E+02 0.  0.
        254    2    1    2    0    0  0.19737762837E+03 -0.49812986149E+02  0.20719048355E+04  0.22694916220E+04  0.90352825806E+03 0.  0.
         23    2    4    4    0    0 -0.22448204783E+03 -0.29679254001E+03  0.56322364911E+03  0.68100314879E+03  0.89813184716E+02 0.  0.
         23    2    4    4    0    0  0.42185967620E+03  0.24697955387E+03  0.15086811864E+04  0.15884884732E+04  0.90621304608E+02 0.  0.
          4    1    3    3  502    0 -0.15472500810E+03  0.32485160400E+02  0.21740827207E+03  0.26881493735E+03  0.00000000000E+00 0. -1.
         -3    1    3    3    0  502 -0.42652620273E+02  0.17327825749E+02  0.17075099019E+03  0.17684852335E+03  0.00000000000E+00 0.  1.
         13    1    5    5    0    0 -0.94485999664E+02 -0.87837952046E+02  0.13247324385E+03  0.18491152016E+03  0.00000000000E+00 0. -1.
        -13    1    5    5    0    0 -0.12999604816E+03 -0.20895458797E+03  0.43075040525E+03  0.49609162863E+03  0.00000000000E+00 0.  1.
          2    1    6    6  503    0  0.29997767566E+03  0.12680238151E+03  0.10159498056E+04  0.10668736839E+04  0.00000000000E+00 0. -1.
         -2    1    6    6    0  503  0.12188200054E+03  0.12017717236E+03  0.49273138078E+03  0.52161478930E+03  0.00000000000E+00 0.  1.
<mgrwt>
<rscale>  0 0.11489786E+04</rscale>
<asrwt>0</asrwt>
<pdfrwt beam="1">  1        2 0.39809374E+00 0.11489786E+04</pdfrwt>
<pdfrwt beam="2">  1       -1 0.19622385E-01 0.11489786E+04</pdfrwt>
<totfact> 0.74347560E+01</totfact>
</mgrwt>
</event>
<event>
12    7  0.1701638E-007  0.1885725E+04  0.7818608E-02  0.8661995E-01
          2   -1    0    0  501    0  0.00000000000E+00  0.00000000000E+00  0.15374005335E+04  0.15374005335E+04  0.00000000000E+00 0. -1.
         -1   -1    0    0    0  501 -0.00000000000E+00 -0.00000000000E+00 -0.57824185914E+03  0.57824185914E+03  0.00000000000E+00 0.  1.
         24    2    1    2    0    0 -0.31012688289E+03 -0.57959663119E+03  0.12569910217E+03  0.67354695006E+03  0.75857045019E+02 0.  0.
        254    2    1    2    0    0  0.31012688289E+03  0.57959663119E+03  0.83345957221E+03  0.14420954426E+04  0.97615237985E+03 0.  0.
         23    2    4    4    0    0  0.64792690673E+03  0.27437244818E+03  0.44151281048E+03  0.83506081319E+03  0.85460418482E+02 0.  0.
         23    2    4    4    0    0 -0.33780002384E+03  0.30522418301E+03  0.39194676173E+03  0.60703462941E+03  0.87167191507E+02 0.  0.
          4    1    3    3  502    0 -0.43323491966E+02 -0.12169633662E+03  0.48557739331E+02  0.13800281646E+03  0.00000000000E+00 0. -1.
         -3    1    3    3    0  502 -0.26680339092E+03 -0.45790029457E+03  0.77141362837E+02  0.53554413360E+03  0.00000000000E+00 0.  1.
         13    1    5    5    0    0  0.46580581529E+03  0.19415739067E+03  0.26996366162E+03  0.57232204964E+03  0.00000000000E+00 0.  1.
        -13    1    5    5    0    0  0.18212109144E+03  0.80215057509E+02  0.17154914886E+03  0.26273876355E+03  0.00000000000E+00 0. -1.
          4    1    6    6  503    0 -0.96038997452E+02  0.76042778570E+02  0.15819725347E+03  0.20008089416E+03  0.00000000000E+00 0.  1.
         -4    1    6    6    0  503 -0.24176102639E+03  0.22918140444E+03  0.23374950826E+03  0.40695373525E+03  0.00000000000E+00 0. -1.
<mgrwt>
<rscale>  0 0.18857246E+04</rscale>
<asrwt>0</asrwt>
<pdfrwt beam="1">  1        2 0.23652316E+00 0.18857246E+04</pdfrwt>
<pdfrwt beam="2">  1       -1 0.88960287E-01 0.18857246E+04</pdfrwt>
<totfact> 0.16008922E+01</totfact>
</mgrwt>
</event>
<event>
12    7  0.1701638E-007  0.1393439E+04  0.7818608E-02  0.8958582E-01
         -1   -1    0    0    0  501 -0.00000000000E+00  0.00000000000E+00  0.35713125560E+03  0.35713125560E+03  0.00000000000E+00 0.  1.
          2   -1    0    0  501    0  0.00000000000E+00 -0.00000000000E+00 -0.13592143697E+04  0.13592143697E+04  0.00000000000E+00 0. -1.
         24    2    1    2    0    0  0.36975173417E+02  0.27939653488E+03  0.58247922385E+02  0.29962569303E+03  0.83385540177E+02 0.  0.
        254    2    1    2    0    0 -0.36975173417E+02 -0.27939653488E+03 -0.10603310365E+04  0.14167199323E+04  0.89630568024E+03 0.  0.
         23    2    4    4    0    0  0.27869732808E+03  0.18497457114E+03 -0.56176104629E+03  0.66022789322E+03  0.91856438088E+02 0.  0.
         23    2    4    4    0    0 -0.31567250150E+03 -0.46437110602E+03 -0.49856999024E+03  0.75649203908E+03  0.91752480736E+02 0.  0.
          2    1    3    3  502    0 -0.35788564402E+00 -0.15499553010E+01 -0.83416293215E+01  0.84919505007E+01  0.00000000000E+00 0. -1.
         -1    1    3    3    0  502  0.37333059061E+02  0.28094649018E+03  0.66589551706E+02  0.29113374253E+03  0.00000000000E+00 0.  1.
         13    1    5    5    0    0  0.17418913414E+03  0.70397661472E+02 -0.25785370785E+03  0.31903952709E+03  0.00000000000E+00 0.  1.
        -13    1    5    5    0    0  0.10450819394E+03  0.11457690966E+03 -0.30390733844E+03  0.34118836613E+03  0.00000000000E+00 0. -1.
          1    1    6    6  503    0 -0.23315976715E+03 -0.31720234464E+03 -0.29412266047E+03  0.49141524586E+03  0.00000000000E+00 0. -1.
         -1    1    6    6    0  503 -0.82512734348E+02 -0.14716876138E+03 -0.20444732976E+03  0.26507679322E+03  0.00000000000E+00 0.  1.
<mgrwt>
<rscale>  0 0.13934388E+04</rscale>
<asrwt>0</asrwt>
<pdfrwt beam="1">  1        2 0.20910991E+00 0.13934388E+04</pdfrwt>
<pdfrwt beam="2">  1       -1 0.54943269E-01 0.13934388E+04</pdfrwt>
<totfact> 0.56744467E+01</totfact>
</mgrwt>
</event>
<event>
12    7  0.1701638E-007  0.1608378E+04  0.7818608E-02  0.8815417E-01
         -1   -1    0    0    0  501 -0.00000000000E+00  0.00000000000E+00  0.64023356446E+03  0.64023356446E+03  0.00000000000E+00 0.  1.
          2   -1    0    0  501    0  0.00000000000E+00 -0.00000000000E+00 -0.10101316011E+04  0.10101316011E+04  0.00000000000E+00 0. -1.
         24    2    1    2    0    0 -0.24950716885E+03  0.20576504419E+03 -0.58578777724E+03  0.67392776381E+03  0.80238582642E+02 0.  0.
        254    2    1    2    0    0  0.24950716885E+03 -0.20576504419E+03  0.21588974058E+03  0.97643740177E+03  0.89567211566E+03 0.  0.
         23    2    4    4    0    0 -0.22244605860E+03  0.14368170815E+03 -0.10629067474E+03  0.30029351880E+03  0.93551096470E+02 0.  0.
         23    2    4    4    0    0  0.47195322746E+03 -0.34944675234E+03  0.32218041533E+03  0.67614388297E+03  0.92290025648E+02 0.  0.
          2    1    3    3  502    0 -0.19434605573E+03  0.11272132021E+03 -0.38015341283E+03  0.44158023359E+03  0.00000000000E+00 0. -1.
         -1    1    3    3    0  502 -0.55161113128E+02  0.93043723983E+02 -0.20563436441E+03  0.23234753022E+03  0.00000000000E+00 0.  1.
         13    1    5    5    0    0 -0.75222715459E+02  0.76115847600E+02 -0.85503790650E+02  0.13697801792E+03  0.00000000000E+00 0. -1.
        -13    1    5    5    0    0 -0.14722334314E+03  0.67565860549E+02 -0.20786884094E+02  0.16331550088E+03  0.00000000000E+00 0.  1.
          4    1    6    6  503    0  0.48000881576E+02 -0.31640606487E+02  0.29614083285E+01  0.57567200298E+02  0.00000000000E+00 0. -1.
         -4    1    6    6    0  503  0.42395234588E+03 -0.31780614586E+03  0.31921900700E+03  0.61857668268E+03  0.00000000000E+00 0.  1.
<mgrwt>
<rscale>  0 0.16083783E+04</rscale>
<asrwt>0</asrwt>
<pdfrwt beam="1">  1        2 0.15540486E+00 0.16083783E+04</pdfrwt>
<pdfrwt beam="2">  1       -1 0.98497472E-01 0.16083783E+04</pdfrwt>
<totfact> 0.26773431E+01</totfact>
</mgrwt>
</event>
<event>
12    7  0.1701638E-007  0.1693678E+04  0.7818608E-02  0.8764978E-01
          2   -1    0    0  501    0  0.00000000000E+00  0.00000000000E+00  0.27544486427E+04  0.27544486427E+04  0.00000000000E+00 0. -1.
         -1   -1    0    0    0  501 -0.00000000000E+00 -0.00000000000E+00 -0.26035580058E+03  0.26035580058E+03  0.00000000000E+00 0.  1.
         24    2    1    2    0    0 -0.29586229522E+03  0.35268906019E+03  0.15972593451E+04  0.16640195226E+04  0.76154350564E+02 0.  0.
        254    2    1    2    0    0  0.29586229522E+03 -0.35268906019E+03  0.89683349708E+03  0.13507849208E+04  0.89910261358E+03 0.  0.
         23    2    4    4    0    0 -0.24871604683E+03 -0.34503134816E+03  0.53752842823E+03  0.69195803023E+03  0.94672072308E+02 0.  0.
         23    2    4    4    0    0  0.54457834205E+03 -0.76577120310E+01  0.35930506885E+03  0.65882689053E+03  0.91260769229E+02 0.  0.
          2    1    3    3  502    0 -0.25366808506E+03  0.32933670976E+03  0.14788436892E+04  0.15361604158E+04  0.00000000000E+00 0. -1.
         -3    1    3    3    0  502 -0.42194210159E+02  0.23352350429E+02  0.11841565585E+03  0.12785910680E+03  0.00000000000E+00 0.  1.
         13    1    5    5    0    0 -0.15165252618E+03 -0.21786285802E+03  0.25967615531E+03  0.37134137830E+03  0.00000000000E+00 0.  1.
        -13    1    5    5    0    0 -0.97063520653E+02 -0.12716849014E+03  0.27785227292E+03  0.32061665193E+03  0.00000000000E+00 0. -1.
          2    1    6    6  503    0  0.23742303801E+03  0.41379947475E+02  0.14857610829E+03  0.28311986682E+03  0.00000000000E+00 0. -1.
         -2    1    6    6    0  503  0.30715530404E+03 -0.49037659506E+02  0.21072896056E+03  0.37570702372E+03  0.00000000000E+00 0.  1.
<mgrwt>
<rscale>  0 0.16936785E+04</rscale>
<asrwt>0</asrwt>
<pdfrwt beam="1">  1        2 0.42376131E+00 0.16936785E+04</pdfrwt>
<pdfrwt beam="2">  1       -1 0.40054741E-01 0.16936785E+04</pdfrwt>
<totfact> 0.16275173E+01</totfact>
</mgrwt>
</event>
<event>
12    7  0.1701638E-007  0.2164366E+04  0.7818608E-02  0.8533408E-01
         -1   -1    0    0    0  501 -0.00000000000E+00  0.00000000000E+00  0.10200228203E+04  0.10200228203E+04  0.00000000000E+00 0.  1.
          2   -1    0    0  501    0  0.00000000000E+00 -0.00000000000E+00 -0.11481312552E+04  0.11481312552E+04  0.00000000000E+00 0. -1.
         24    2    1    2    0    0 -0.59213735129E+03  0.59819761908E+03  0.22854208325E+03  0.87629197825E+03  0.84788637580E+02 0.  0.
        254    2    1    2    0    0  0.59213735129E+03 -0.59819761908E+03 -0.35665051821E+03  0.12918620972E+04  0.91282038314E+03 0.  0.
         23    2    4    4    0    0 -0.62968548913E+02  0.45649477190E+02 -0.34891990997E+03  0.36866371968E+03  0.90105059313E+02 0.  0.
         23    2    4    4    0    0  0.65510590020E+03 -0.64384709627E+03 -0.77306082383E+01  0.92319837756E+03  0.92372388572E+02 0.  0.
          4    1    3    3  502    0 -0.41741780352E+03  0.43403854817E+03  0.20163885015E+03  0.63504748632E+03  0.00000000000E+00 0. -1.
         -1    1    3    3    0  502 -0.17471954777E+03  0.16415907091E+03  0.26903233105E+02  0.24124449193E+03  0.00000000000E+00 0.  1.
         13    1    5    5    0    0 -0.50143692759E+02  0.69129759306E+02 -0.30917325508E+03  0.32075132923E+03  0.00000000000E+00 0.  1.
        -13    1    5    5    0    0 -0.12824856154E+02 -0.23480282117E+02 -0.39746654890E+02  0.47912390449E+02  0.00000000000E+00 0. -1.
          4    1    6    6  503    0  0.35257424145E+03 -0.40134724861E+03  0.18968547920E+02  0.53455403423E+03  0.00000000000E+00 0.  1.
         -4    1    6    6    0  503  0.30253165876E+03 -0.24249984766E+03 -0.26699156159E+02  0.38864434333E+03  0.00000000000E+00 0. -1.
<mgrwt>
<rscale>  0 0.21643660E+04</rscale>
<asrwt>0</asrwt>
<pdfrwt beam="1">  1        2 0.17663558E+00 0.21643660E+04</pdfrwt>
<pdfrwt beam="2">  1       -1 0.15692659E+00 0.21643660E+04</pdfrwt>
<totfact> 0.65624581E+00</totfact>
</mgrwt>
</event>
<event>
12    7  0.1701638E-007  0.2014324E+04  0.7818608E-02  0.8599953E-01
         -1   -1    0    0    0  501 -0.00000000000E+00  0.00000000000E+00  0.84401816699E+03  0.84401816699E+03  0.00000000000E+00 0.  1.
          2   -1    0    0  501    0  0.00000000000E+00 -0.00000000000E+00 -0.12018400748E+04  0.12018400748E+04  0.00000000000E+00 0. -1.
         24    2    1    2    0    0 -0.40885098089E+03  0.50785966699E+03 -0.61380063014E+03  0.89909998845E+03  0.80925952251E+02 0.  0.
        254    2    1    2    0    0  0.40885098089E+03 -0.50785966699E+03  0.25597872235E+03  0.11467582533E+04  0.90799164055E+03 0.  0.
         23    2    4    4    0    0  0.23122686719E+03 -0.33383624645E+03  0.58947335520E+03  0.72203733007E+03  0.94586288479E+02 0.  0.
         23    2    4    4    0    0  0.17762411370E+03 -0.17402342053E+03 -0.33349463285E+03  0.42472092324E+03  0.85642955580E+02 0.  0.
          4    1    3    3  502    0 -0.22208503797E+03  0.29671141693E+03 -0.29619668988E+03  0.47443851880E+03  0.00000000000E+00 0. -1.
         -3    1    3    3    0  502 -0.18676594292E+03  0.21114825005E+03 -0.31760394026E+03  0.42466146965E+03  0.00000000000E+00 0.  1.
         13    1    5    5    0    0  0.33671899813E+02 -0.53690990135E+02  0.41766382314E+02  0.75900921933E+02  0.00000000000E+00 0.  1.
        -13    1    5    5    0    0  0.19755496738E+03 -0.28014525632E+03  0.54770697288E+03  0.64613640814E+03  0.00000000000E+00 0. -1.
          1    1    6    6  503    0  0.10596199768E+03 -0.14849634877E+03 -0.26880473305E+03  0.32486165526E+03  0.00000000000E+00 0. -1.
         -1    1    6    6    0  503  0.71662116023E+02 -0.25527071758E+02 -0.64689899799E+02  0.99859267979E+02  0.00000000000E+00 0.  1.
<mgrwt>
<rscale>  0 0.20143236E+04</rscale>
<asrwt>0</asrwt>
<pdfrwt beam="1">  1        2 0.18489847E+00 0.20143236E+04</pdfrwt>
<pdfrwt beam="2">  1       -1 0.12984895E+00 0.20143236E+04</pdfrwt>
<totfact> 0.10168178E+01</totfact>
</mgrwt>
</event>
<event>
12    7  0.1701638E-007  0.3113062E+04  0.7818608E-02  0.8212162E-01
         -1   -1    0    0    0  501 -0.00000000000E+00  0.00000000000E+00  0.89605508058E+03  0.89605508058E+03  0.00000000000E+00 0.  1.
          2   -1    0    0  501    0  0.00000000000E+00 -0.00000000000E+00 -0.27038383870E+04  0.27038383870E+04  0.00000000000E+00 0. -1.
         24    2    1    2    0    0  0.76027514190E+03 -0.99215059563E+03 -0.16246538224E+04  0.20514679256E+04  0.81483197006E+02 0.  0.
        254    2    1    2    0    0 -0.76027514190E+03  0.99215059563E+03 -0.18312948401E+03  0.15484255420E+04  0.89537933597E+03 0.  0.
         23    2    4    4    0    0  0.35130317325E+02  0.66584115326E+03 -0.74969895247E+02  0.67723537039E+03  0.91916707640E+02 0.  0.
         23    2    4    4    0    0 -0.79540545922E+03  0.32630944238E+03 -0.10815958876E+03  0.87119017157E+03  0.90145003526E+02 0.  0.
          4    1    3    3  502    0  0.64520126327E+03 -0.84228107528E+03 -0.13287628310E+04  0.17003919374E+04  0.00000000000E+00 0. -1.
         -3    1    3    3    0  502  0.11507387863E+03 -0.14986952035E+03 -0.29589099145E+03  0.35107598820E+03  0.00000000000E+00 0.  1.
         13    1    5    5    0    0  0.24607493284E+02  0.23241902868E+03 -0.68828063004E+02  0.24364202404E+03  0.00000000000E+00 0. -1.
        -13    1    5    5    0    0  0.10522824041E+02  0.43342212457E+03 -0.61418322435E+01  0.43359334635E+03  0.00000000000E+00 0.  1.
          3    1    6    6  503    0 -0.30486491521E+03  0.17000252118E+03 -0.58928953050E+02  0.35400013452E+03  0.00000000000E+00 0. -1.
         -3    1    6    6    0  503 -0.49054054401E+03  0.15630692120E+03 -0.49230635712E+02  0.51719003706E+03  0.00000000000E+00 0.  1.
<mgrwt>
<rscale>  0 0.31130616E+04</rscale>
<asrwt>0</asrwt>
<pdfrwt beam="1">  1        2 0.41597513E+00 0.31130616E+04</pdfrwt>
<pdfrwt beam="2">  1       -1 0.13785463E+00 0.31130616E+04</pdfrwt>
<totfact> 0.11104764E+00</totfact>
</mgrwt>
</event>
<event>
12    7  0.1701638E-007  0.2335983E+04  0.7818608E-02  0.8463867E-01
          2   -1    0    0  501    0  0.00000000000E+00  0.00000000000E+00  0.17105102101E+04  0.17105102101E+04  0.00000000000E+00 0. -1.
         -1   -1    0    0    0  501 -0.00000000000E+00 -0.00000000000E+00 -0.79754235259E+03  0.79754235259E+03  0.00000000000E+00 0.  1.
         24    2    1    2    0    0  0.46444505661E+02 -0.37737385139E+03 -0.59579087730E+03  0.71121423591E+03  0.79314589169E+02 0.  0.
        254    2    1    2    0    0 -0.46444505661E+02  0.37737385139E+03  0.15087587349E+04  0.17968383268E+04  0.89872517319E+03 0.  0.
         23    2    4    4    0    0 -0.30129221496E+03  0.16116153380E+03  0.13352247630E+03  0.37827116926E+03  0.92253926996E+02 0.  0.
         23    2    4    4    0    0  0.25484770930E+03  0.21621231759E+03  0.13752362586E+04  0.14185671576E+04  0.96762040319E+02 0.  0.
          4    1    3    3  502    0  0.30778169821E+02 -0.21208065419E+03 -0.26259611584E+03  0.33894279705E+03  0.00000000000E+00 0. -1.
         -3    1    3    3    0  502  0.15666335839E+02 -0.16529319721E+03 -0.33319476146E+03  0.37227143885E+03  0.00000000000E+00 0.  1.
         13    1    5    5    0    0 -0.87253382762E+02  0.50055644326E+02  0.86289017946E+02  0.13253118482E+03  0.00000000000E+00 0. -1.
        -13    1    5    5    0    0 -0.21403883220E+03  0.11110588948E+03  0.47233458350E+02  0.24573998444E+03  0.00000000000E+00 0.  1.
          3    1    6    6  503    0  0.15029312381E+03  0.71470062605E+02  0.57161362590E+03  0.59534706704E+03  0.00000000000E+00 0. -1.
         -3    1    6    6    0  503  0.10455458549E+03  0.14474225499E+03  0.80362263265E+03  0.82322009052E+03  0.00000000000E+00 0.  1.
<mgrwt>
<rscale>  0 0.23359832E+04</rscale>
<asrwt>0</asrwt>
<pdfrwt beam="1">  1        2 0.26315542E+00 0.23359832E+04</pdfrwt>
<pdfrwt beam="2">  1       -1 0.12269882E+00 0.23359832E+04</pdfrwt>
<totfact> 0.58364624E+00</totfact>
</mgrwt>
</event>
<event>
12    7  0.1701638E-007  0.2816528E+04  0.7818608E-02  0.8298155E-01
          2   -1    0    0  501    0  0.00000000000E+00  0.00000000000E+00  0.11856459123E+04  0.11856459123E+04  0.00000000000E+00 0. -1.
         -1   -1    0    0    0  501 -0.00000000000E+00 -0.00000000000E+00 -0.16726810104E+04  0.16726810104E+04  0.00000000000E+00 0.  1.
         24    2    1    2    0    0 -0.51397388830E+02 -0.29739481612E+03 -0.14659820962E+04  0.14991386161E+04  0.85015974140E+02 0.  0.
        254    2    1    2    0    0  0.51397388830E+02  0.29739481612E+03  0.97894699807E+03  0.13591883066E+04  0.89329181103E+03 0.  0.
         23    2    4    4    0    0  0.11049811185E+03 -0.29641069043E+03  0.25167219200E+03  0.41416010748E+03  0.90114217999E+02 0.  0.
         23    2    4    4    0    0 -0.59100723019E+02  0.59380550655E+03  0.72727480607E+03  0.94502819916E+03  0.89731703382E+02 0.  0.
          4    1    3    3  502    0  0.70306838143E+00 -0.22132370970E+03 -0.10429157658E+04  0.10661416291E+04  0.00000000000E+00 0. -1.
         -3    1    3    3    0  502 -0.52100457211E+02 -0.76071106422E+02 -0.42306633039E+03  0.43299698703E+03  0.00000000000E+00 0.  1.
         13    1    5    5    0    0 -0.84064542462E+01 -0.44275497566E+01  0.22430846172E+02  0.24360101187E+02  0.00000000000E+00 0. -1.
        -13    1    5    5    0    0  0.11890456610E+03 -0.29198314067E+03  0.22924134582E+03  0.38980000630E+03  0.00000000000E+00 0.  1.
          1    1    6    6  503    0  0.14697924865E+02  0.16973776688E+03  0.24739866287E+03  0.30038814372E+03  0.00000000000E+00 0. -1.
         -1    1    6    6    0  503 -0.73798647885E+02  0.42406773967E+03  0.47987614321E+03  0.64464005544E+03  0.00000000000E+00 0.  1.
<mgrwt>
<rscale>  0 0.28165279E+04</rscale>
<asrwt>0</asrwt>
<pdfrwt beam="1">  1        2 0.18240706E+00 0.28165279E+04</pdfrwt>
<pdfrwt beam="2">  1       -1 0.25733554E+00 0.28165279E+04</pdfrwt>
<totfact> 0.11944955E+00</totfact>
</mgrwt>
</event>
<event>
12    7  0.1701638E-007  0.2808848E+04  0.7818608E-02  0.8300527E-01
         -1   -1    0    0    0  501 -0.00000000000E+00  0.00000000000E+00  0.16246451149E+04  0.16246451149E+04  0.00000000000E+00 0.  1.
          2   -1    0    0  501    0  0.00000000000E+00 -0.00000000000E+00 -0.12140539225E+04  0.12140539225E+04  0.00000000000E+00 0. -1.
         24    2    1    2    0    0 -0.60625131399E+03  0.60085871063E+02 -0.92082496897E+03  0.11070240970E+04  0.80204489467E+02 0.  0.
        254    2    1    2    0    0  0.60625131399E+03 -0.60085871063E+02  0.13314161614E+04  0.17316749405E+04  0.92459620220E+03 0.  0.
         23    2    4    4    0    0  0.56489036014E+03  0.28860022337E+03  0.11699411361E+04  0.13340104015E+04  0.91816564372E+02 0.  0.
         23    2    4    4    0    0  0.41360953852E+02 -0.34868609444E+03  0.16147502527E+03  0.39766453897E+03  0.93649243518E+02 0.  0.
          2    1    3    3  502    0 -0.51461334955E+03  0.73387330120E+02 -0.74689296069E+03  0.90997895277E+03  0.00000000000E+00 0. -1.
         -1    1    3    3    0  502 -0.91637964439E+02 -0.13301459058E+02 -0.17393200828E+03  0.19704514418E+03  0.00000000000E+00 0.  1.
         13    1    5    5    0    0  0.18878797446E+03  0.67729131306E+02  0.44245635764E+03  0.48579395112E+03  0.00000000000E+00 0.  1.
        -13    1    5    5    0    0  0.37610238568E+03  0.22087109207E+03  0.72748477846E+03  0.84821645039E+03  0.00000000000E+00 0. -1.
          1    1    6    6  503    0  0.55897307692E+02 -0.29155699594E+03  0.16304522827E+03  0.33869416492E+03  0.00000000000E+00 0. -1.
         -1    1    6    6    0  503 -0.14536353840E+02 -0.57129098501E+02 -0.15702030034E+01  0.58970374053E+02  0.00000000000E+00 0.  1.
<mgrwt>
<rscale>  0 0.28088480E+04</rscale>
<asrwt>0</asrwt>
<pdfrwt beam="1">  1        2 0.18677753E+00 0.28088480E+04</pdfrwt>
<pdfrwt beam="2">  1       -1 0.24994540E+00 0.28088480E+04</pdfrwt>
<totfact> 0.12842416E+00</totfact>
</mgrwt>
</event>
<event>
12    7  0.1701638E-007  0.2596089E+04  0.7818608E-02  0.8369531E-01
         -1   -1    0    0    0  501 -0.00000000000E+00  0.00000000000E+00  0.49527240524E+03  0.49527240524E+03  0.00000000000E+00 0.  1.
          2   -1    0    0  501    0  0.00000000000E+00 -0.00000000000E+00 -0.34020052878E+04  0.34020052878E+04  0.00000000000E+00 0. -1.
         24    2    1    2    0    0  0.10849789277E+04 -0.19744423314E+03 -0.17041841111E+04  0.20315782423E+04  0.83085324959E+02 0.  0.
        254    2    1    2    0    0 -0.10849789277E+04  0.19744423314E+03 -0.12025487714E+04  0.18656994507E+04  0.90473609083E+03 0.  0.
         23    2    4    4    0    0  0.47466432208E+02  0.22547505705E+03 -0.41543581574E+03  0.48332894352E+03  0.89038683221E+02 0.  0.
         23    2    4    4    0    0 -0.11324453599E+04 -0.28030823910E+02 -0.78711295567E+03  0.13823705072E+04  0.90461007772E+02 0.  0.
          2    1    3    3  502    0  0.76757612791E+03 -0.10134139658E+03 -0.11839360469E+04  0.14146192965E+04  0.00000000000E+00 0. -1.
         -1    1    3    3    0  502  0.31740279978E+03 -0.96102836560E+02 -0.52024806420E+03  0.61695894581E+03  0.00000000000E+00 0.  1.
         13    1    5    5    0    0  0.32119335995E+02  0.22304074628E+03 -0.35148311287E+03  0.41751551453E+03  0.00000000000E+00 0. -1.
        -13    1    5    5    0    0  0.15347096213E+02  0.24343107770E+01 -0.63952702869E+02  0.65813428990E+02  0.00000000000E+00 0.  1.
          1    1    6    6  503    0 -0.94422995953E+03 -0.57008712426E+02 -0.65794215485E+03  0.11522621615E+04  0.00000000000E+00 0. -1.
         -1    1    6    6    0  503 -0.18821540038E+03  0.28977888517E+02 -0.12917080082E+03  0.23010834567E+03  0.00000000000E+00 0.  1.
<mgrwt>
<rscale>  0 0.25960889E+04</rscale>
<asrwt>0</asrwt>
<pdfrwt beam="1">  1        2 0.52338543E+00 0.25960889E+04</pdfrwt>
<pdfrwt beam="2">  1       -1 0.76195755E-01 0.25960889E+04</pdfrwt>
<totfact> 0.16545399E+00</totfact>
</mgrwt>
</event>
<event>
12    7  0.1701638E-007  0.2582751E+04  0.7818608E-02  0.8374084E-01
          2   -1    0    0  501    0  0.00000000000E+00  0.00000000000E+00  0.66552802321E+03  0.66552802321E+03  0.00000000000E+00 0. -1.
         -1   -1    0    0    0  501 -0.00000000000E+00 -0.00000000000E+00 -0.25057565806E+04  0.25057565806E+04  0.00000000000E+00 0.  1.
         24    2    1    2    0    0  0.38126220183E+03  0.38339552603E+03  0.41531659411E+03  0.68615034363E+03  0.77210263554E+02 0.  0.
        254    2    1    2    0    0 -0.38126220183E+03 -0.38339552603E+03 -0.22555451515E+04  0.24851342602E+04  0.89221934788E+03 0.  0.
         23    2    4    4    0    0 -0.52813942518E+03  0.39370093519E+02 -0.83760913618E+03  0.99541900484E+03  0.93747925233E+02 0.  0.
         23    2    4    4    0    0  0.14687722335E+03 -0.42276561955E+03 -0.14179360153E+04  0.14897152553E+04  0.91680481266E+02 0.  0.
          2    1    3    3  502    0  0.20660743209E+03  0.16047237595E+03  0.17511122989E+03  0.31480463349E+03  0.00000000000E+00 0. -1.
         -1    1    3    3    0  502  0.17465476974E+03  0.22292315008E+03  0.24020536423E+03  0.37134571014E+03  0.00000000000E+00 0.  1.
         13    1    5    5    0    0 -0.36367662103E+03  0.57673248441E+02 -0.51838197929E+03  0.63585121272E+03  0.00000000000E+00 0. -1.
        -13    1    5    5    0    0 -0.16446280415E+03 -0.18303154921E+02 -0.31922715689E+03  0.35956779211E+03  0.00000000000E+00 0.  1.
          3    1    6    6  503    0  0.35933615114E+02 -0.24958516048E+02 -0.14562779005E+03  0.15205790164E+03  0.00000000000E+00 0.  1.
         -3    1    6    6    0  503  0.11094360824E+03 -0.39780710350E+03 -0.12723082253E+04  0.13376573537E+04  0.00000000000E+00 0. -1.
<mgrwt>
<rscale>  0 0.25827514E+04</rscale>
<asrwt>0</asrwt>
<pdfrwt beam="1">  1        2 0.10238893E+00 0.25827514E+04</pdfrwt>
<pdfrwt beam="2">  1       -1 0.38550101E+00 0.25827514E+04</pdfrwt>
<totfact> 0.39618805E-01</totfact>
</mgrwt>
</event>
<event>
12    7  0.1701638E-007  0.2175420E+04  0.7818608E-02  0.8528729E-01
          2   -1    0    0  501    0  0.00000000000E+00  0.00000000000E+00  0.17921684797E+04  0.17921684797E+04  0.00000000000E+00 0. -1.
         -1   -1    0    0    0  501 -0.00000000000E+00 -0.00000000000E+00 -0.66015712727E+03  0.66015712727E+03  0.00000000000E+00 0.  1.
         24    2    1    2    0    0 -0.79960548988E+03  0.93795692884E+02  0.20170256458E+02  0.80943328781E+03  0.81294752071E+02 0.  0.
        254    2    1    2    0    0  0.79960548988E+03 -0.93795692884E+02  0.11118410960E+04  0.16428923192E+04  0.90262837217E+03 0.  0.
         23    2    4    4    0    0  0.34788171461E+03  0.50187832311E+02 -0.66775845015E+02  0.36929939429E+03  0.91556120864E+02 0.  0.
         23    2    4    4    0    0  0.45172377527E+03 -0.14398352519E+03  0.11786169410E+04  0.12735929249E+04  0.90085626269E+02 0.  0.
          4    1    3    3  502    0 -0.15280462355E+03 -0.52026216994E+01  0.25920250745E+02  0.15507475503E+03  0.00000000000E+00 0. -1.
         -3    1    3    3    0  502 -0.64680086633E+03  0.98998314583E+02 -0.57499942870E+01  0.65435853277E+03  0.00000000000E+00 0.  1.
         13    1    5    5    0    0  0.16431196315E+03 -0.14620462342E+02 -0.56447290175E+02  0.17435158652E+03  0.00000000000E+00 0. -1.
        -13    1    5    5    0    0  0.18356975146E+03  0.64808294653E+02 -0.10328554840E+02  0.19494780777E+03  0.00000000000E+00 0.  1.
          4    1    6    6  503    0  0.29373492898E+02  0.69684245407E+01  0.42351036363E+02  0.52009338649E+02  0.00000000000E+00 0. -1.
         -4    1    6    6    0  503  0.42235028237E+03 -0.15095194974E+03  0.11362659046E+04  0.12215835862E+04  0.00000000000E+00 0.  1.
<mgrwt>
<rscale>  0 0.21754198E+04</rscale>
<asrwt>0</asrwt>
<pdfrwt beam="1">  1        2 0.27571823E+00 0.21754198E+04</pdfrwt>
<pdfrwt beam="2">  1       -1 0.10156264E+00 0.21754198E+04</pdfrwt>
<totfact> 0.83588894E+00</totfact>
</mgrwt>
</event>
<event>
12    7  0.1701638E-007  0.2710818E+04  0.7818608E-02  0.8331503E-01
         -1   -1    0    0    0  501 -0.00000000000E+00  0.00000000000E+00  0.63839385630E+03  0.63839385630E+03  0.00000000000E+00 0.  1.
          2   -1    0    0  501    0  0.00000000000E+00 -0.00000000000E+00 -0.28777435398E+04  0.28777435398E+04  0.00000000000E+00 0. -1.
         24    2    1    2    0    0  0.25492571591E+03  0.59620519637E+03  0.31744830640E+03  0.72652151566E+03  0.81316226376E+02 0.  0.
        254    2    1    2    0    0 -0.25492571591E+03 -0.59620519637E+03 -0.25567979899E+04  0.27896158805E+04  0.90790585549E+03 0.  0.
         23    2    4    4    0    0 -0.80652922128E+02 -0.11622624410E+03  0.12187636946E+02  0.16864620162E+03  0.90992137904E+02 0.  0.
         23    2    4    4    0    0 -0.17427279378E+03 -0.47997895227E+03 -0.25689856269E+04  0.26209696789E+04  0.95100499913E+02 0.  0.
          4    1    3    3  502    0  0.95110727167E+02  0.25473080843E+03  0.91051749143E+02  0.28674772224E+03  0.00000000000E+00 0. -1.
         -3    1    3    3    0  502  0.15981498874E+03  0.34147438794E+03  0.22639655726E+03  0.43977379342E+03  0.00000000000E+00 0.  1.
         13    1    5    5    0    0 -0.29473976073E+02 -0.91763075051E+02 -0.26532715549E+02  0.99965805167E+02  0.00000000000E+00 0.  1.
        -13    1    5    5    0    0 -0.51178946055E+02 -0.24463169050E+02  0.38720352495E+02  0.68680396450E+02  0.00000000000E+00 0. -1.
          3    1    6    6  503    0 -0.88466852220E+02 -0.28813275006E+03 -0.12833056326E+04  0.13182261612E+04  0.00000000000E+00 0. -1.
         -3    1    6    6    0  503 -0.85805941558E+02 -0.19184620221E+03 -0.12856799943E+04  0.13027435176E+04  0.00000000000E+00 0.  1.
<mgrwt>
<rscale>  0 0.27108182E+04</rscale>
<asrwt>0</asrwt>
<pdfrwt beam="1">  1        2 0.44272978E+00 0.27108182E+04</pdfrwt>
<pdfrwt beam="2">  1       -1 0.98214439E-01 0.27108182E+04</pdfrwt>
<totfact> 0.20510716E+00</totfact>
</mgrwt>
</event>
<event>
12    7  0.1701638E-007  0.4248004E+04  0.7818608E-02  0.7956303E-01
          2   -1    0    0  501    0  0.00000000000E+00  0.00000000000E+00  0.50988223403E+04  0.50988223403E+04  0.00000000000E+00 0. -1.
         -1   -1    0    0    0  501 -0.00000000000E+00 -0.00000000000E+00 -0.88478954502E+03  0.88478954502E+03  0.00000000000E+00 0.  1.
         24    2    1    2    0    0  0.16268724003E+04 -0.12413751454E+04  0.21343828126E+04  0.29579810695E+04  0.79598730960E+02 0.  0.
        254    2    1    2    0    0 -0.16268724003E+04  0.12413751454E+04  0.20796499827E+04  0.30256308159E+04  0.80110656259E+03 0.  0.
         23    2    4    4    0    0 -0.14975094603E+04  0.12499571478E+04  0.16135229890E+04  0.25331351278E+04  0.91595221329E+02 0.  0.
         23    2    4    4    0    0 -0.12936294005E+03 -0.85820023994E+01  0.46612699371E+03  0.49249568807E+03  0.92028297156E+02 0.  0.
          2    1    3    3  502    0  0.11790390490E+04 -0.87760602261E+03  0.14870788167E+04  0.20908679578E+04  0.00000000000E+00 0. -1.
         -1    1    3    3    0  502  0.44783335138E+03 -0.36376912283E+03  0.64730399586E+03  0.86711311164E+03  0.00000000000E+00 0.  1.
         13    1    5    5    0    0 -0.63082592928E+03  0.58571532536E+03  0.71400939193E+03  0.11183976069E+04  0.00000000000E+00 0. -1.
        -13    1    5    5    0    0 -0.86668353101E+03  0.66424182248E+03  0.89951359709E+03  0.14147375209E+04  0.00000000000E+00 0.  1.
          1    1    6    6  503    0 -0.12591948685E+02 -0.50312556969E+01  0.17776667122E+01  0.13675920609E+02  0.00000000000E+00 0. -1.
         -1    1    6    6    0  503 -0.11677099137E+03 -0.35507467024E+01  0.46434932700E+03  0.47881976746E+03  0.00000000000E+00 0.  1.
<mgrwt>
<rscale>  0 0.42480041E+04</rscale>
<asrwt>0</asrwt>
<pdfrwt beam="1">  1        2 0.78443419E+00 0.42480041E+04</pdfrwt>
<pdfrwt beam="2">  1       -1 0.13612147E+00 0.42480041E+04</pdfrwt>
<totfact> 0.99353940E-03</totfact>
</mgrwt>
</event>
<event>
12    7  0.1701638E-007  0.2438248E+04  0.7818608E-02  0.8425321E-01
          2   -1    0    0  501    0  0.00000000000E+00  0.00000000000E+00  0.18994607590E+04  0.18994607590E+04  0.00000000000E+00 0. -1.
         -1   -1    0    0    0  501 -0.00000000000E+00 -0.00000000000E+00 -0.78246583080E+03  0.78246583080E+03  0.00000000000E+00 0.  1.
         24    2    1    2    0    0 -0.79644953489E+03 -0.38781425727E+03 -0.12824511320E+03  0.89840543975E+03  0.77160646279E+02 0.  0.
        254    2    1    2    0    0  0.79644953489E+03  0.38781425727E+03  0.12452400414E+04  0.17835211501E+04  0.91956140212E+03 0.  0.
         23    2    4    4    0    0  0.72980232297E+03  0.38531878112E+03  0.38488299294E+03  0.91582060458E+03  0.97521627520E+02 0.  0.
         23    2    4    4    0    0  0.66647211924E+02  0.24954761501E+01  0.86035704848E+03  0.86770054550E+03  0.90784952130E+02 0.  0.
          2    1    3    3  502    0 -0.61555884004E+03 -0.28367756089E+03 -0.68124453125E+02  0.68119496858E+03  0.00000000000E+00 0. -1.
         -1    1    3    3    0  502 -0.18089069485E+03 -0.10413669638E+03 -0.60120660071E+02  0.21721047117E+03  0.00000000000E+00 0.  1.
         13    1    5    5    0    0  0.67067281987E+03  0.35051919879E+03  0.32079222883E+03  0.82193271872E+03  0.00000000000E+00 0.  1.
        -13    1    5    5    0    0  0.59129503096E+02  0.34799582336E+02  0.64090764111E+02  0.93887885861E+02  0.00000000000E+00 0. -1.
          3    1    6    6  503    0  0.14651728862E+01 -0.16911830388E+02  0.29275955270E+02  0.33841369589E+02  0.00000000000E+00 0. -1.
         -3    1    6    6    0  503  0.65182039037E+02  0.19407306539E+02  0.83108109321E+03  0.83385917591E+03  0.00000000000E+00 0.  1.
<mgrwt>
<rscale>  0 0.24382478E+04</rscale>
<asrwt>0</asrwt>
<pdfrwt beam="1">  1        2 0.29222473E+00 0.24382478E+04</pdfrwt>
<pdfrwt beam="2">  1       -1 0.12037936E+00 0.24382478E+04</pdfrwt>
<totfact> 0.47622280E+00</totfact>
</mgrwt>
</event>
<event>
12    7  0.1701638E-007  0.1573639E+04  0.7818608E-02  0.8836908E-01
         -1   -1    0    0    0  501 -0.00000000000E+00  0.00000000000E+00  0.72404804767E+03  0.72404804767E+03  0.00000000000E+00 0.  1.
          2   -1    0    0  501    0  0.00000000000E+00 -0.00000000000E+00 -0.85503280750E+03  0.85503280750E+03  0.00000000000E+00 0. -1.
         24    2    1    2    0    0 -0.29470722345E+03  0.30182400906E+03 -0.36222803313E+03  0.56187262072E+03  0.80880244414E+02 0.  0.
        254    2    1    2    0    0  0.29470722345E+03 -0.30182400906E+03  0.23124327330E+03  0.10172082344E+04  0.89626394593E+03 0.  0.
         23    2    4    4    0    0 -0.14783711487E+03 -0.37520632789E+03  0.35281175304E+03  0.54357932220E+03  0.91469915349E+02 0.  0.
         23    2    4    4    0    0  0.44254433832E+03  0.73382318838E+02 -0.12156847974E+03  0.47362891224E+03  0.91186595248E+02 0.  0.
          2    1    3    3  502    0 -0.10448308363E+03  0.15092044298E+03 -0.18998012642E+03  0.26417067079E+03  0.00000000000E+00 0. -1.
         -1    1    3    3    0  502 -0.19022413982E+03  0.15090356607E+03 -0.17224790671E+03  0.29770194993E+03  0.00000000000E+00 0.  1.
         13    1    5    5    0    0 -0.47968350464E+01 -0.17933012445E+02 -0.37576133438E+01  0.18939963565E+02  0.00000000000E+00 0. -1.
        -13    1    5    5    0    0 -0.14304027982E+03 -0.35727331545E+03  0.35656936638E+03  0.52463935863E+03  0.00000000000E+00 0.  1.
          1    1    6    6  503    0  0.34884573165E+03  0.92611656344E+02 -0.10976827794E+03  0.37725235350E+03  0.00000000000E+00 0. -1.
         -1    1    6    6    0  503  0.93698606670E+02 -0.19229337507E+02 -0.11800201799E+02  0.96376558744E+02  0.00000000000E+00 0.  1.
<mgrwt>
<rscale>  0 0.15736389E+04</rscale>
<asrwt>0</asrwt>
<pdfrwt beam="1">  1        2 0.13154351E+00 0.15736389E+04</pdfrwt>
<pdfrwt beam="2">  1       -1 0.11139201E+00 0.15736389E+04</pdfrwt>
<totfact> 0.25585121E+01</totfact>
</mgrwt>
</event>
<event>
12    7  0.1701638E-007  0.2223621E+04  0.7818608E-02  0.8508660E-01
         -3   -1    0    0    0  501 -0.00000000000E+00  0.00000000000E+00  0.97819609087E+03  0.97819609087E+03  0.00000000000E+00 0.  1.
          2   -1    0    0  501    0  0.00000000000E+00 -0.00000000000E+00 -0.12636754651E+04  0.12636754651E+04  0.00000000000E+00 0. -1.
         24    2    1    2    0    0  0.58762095210E+03 -0.31783899629E+03 -0.77232710675E+03  0.10241604219E+04  0.78073036445E+02 0.  0.
        254    2    1    2    0    0 -0.58762095210E+03  0.31783899629E+03  0.48684773254E+03  0.12177111341E+04  0.89413627622E+03 0.  0.
         23    2    4    4    0    0 -0.52977804356E+03 -0.36533236642E+02  0.62210933757E+03  0.82299969057E+03  0.91153771048E+02 0.  0.
         23    2    4    4    0    0 -0.57842908537E+02  0.35437223294E+03 -0.13526160503E+03  0.39471144350E+03  0.92606372819E+02 0.  0.
          2    1    3    3  502    0  0.39550096818E+03 -0.17785557766E+03 -0.46850008988E+03  0.63839326167E+03  0.00000000000E+00 0. -1.
         -1    1    3    3    0  502  0.19211998392E+03 -0.13998341864E+03 -0.30382701688E+03  0.38576716021E+03  0.00000000000E+00 0.  1.
         13    1    5    5    0    0 -0.93434551423E+02 -0.39760034921E+02  0.99411768846E+02  0.14210410114E+03  0.00000000000E+00 0.  1.
        -13    1    5    5    0    0 -0.43634349214E+03  0.32267982790E+01  0.52269756872E+03  0.68089558943E+03  0.00000000000E+00 0. -1.
          1    1    6    6  503    0  0.42650070776E+01  0.23216880090E+03 -0.10218198087E+03  0.25369607725E+03  0.00000000000E+00 0. -1.
         -1    1    6    6    0  503 -0.62107915614E+02  0.12220343203E+03 -0.33079624166E+02  0.14101536625E+03  0.00000000000E+00 0.  1.
<mgrwt>
<rscale>  0 0.22236208E+04</rscale>
<asrwt>0</asrwt>
<pdfrwt beam="1">  1        2 0.19441161E+00 0.22236208E+04</pdfrwt>
<pdfrwt beam="2">  1       -3 0.15049171E+00 0.22236208E+04</pdfrwt>
<totfact> 0.32051517E+00</totfact>
</mgrwt>
</event>
<event>
12    7  0.1701638E-007  0.1271380E+04  0.7818608E-02  0.9052574E-01
          2   -1    0    0  501    0  0.00000000000E+00  0.00000000000E+00  0.11056818015E+04  0.11056818015E+04  0.00000000000E+00 0. -1.
         -1   -1    0    0    0  501 -0.00000000000E+00 -0.00000000000E+00 -0.36547720210E+03  0.36547720210E+03  0.00000000000E+00 0.  1.
         24    2    1    2    0    0  0.11584633314E+03  0.12133668677E+03  0.49260560825E+03  0.52770645323E+03  0.87583394752E+02 0.  0.
        254    2    1    2    0    0 -0.11584633314E+03 -0.12133668677E+03  0.24759899115E+03  0.94345255037E+03  0.89479298719E+03 0.  0.
         23    2    4    4    0    0 -0.43856400794E+03  0.13990555303E+03  0.21805059165E+03  0.51725020807E+03  0.89943117598E+02 0.  0.
         23    2    4    4    0    0  0.32271767480E+03 -0.26124223980E+03  0.29548399499E+02  0.42620234230E+03  0.91548474514E+02 0.  0.
          2    1    3    3  502    0  0.74815362320E+02  0.12704390696E+03  0.37009769501E+03  0.39838398134E+03  0.00000000000E+00 0. -1.
         -1    1    3    3    0  502  0.41030970817E+02 -0.57072201861E+01  0.12250791324E+03  0.12932247188E+03  0.00000000000E+00 0.  1.
         13    1    5    5    0    0 -0.22257037386E+03  0.40445020214E+02  0.14414361875E+03  0.26823637674E+03  0.00000000000E+00 0.  1.
        -13    1    5    5    0    0 -0.21599363408E+03  0.99460532814E+02  0.73906972893E+02  0.24901383133E+03  0.00000000000E+00 0. -1.
          3    1    6    6  503    0  0.20903213451E+03 -0.20968264793E+03  0.48236995588E+02  0.29998008908E+03  0.00000000000E+00 0. -1.
         -3    1    6    6    0  503  0.11368554029E+03 -0.51559591870E+02 -0.18688596089E+02  0.12622225322E+03  0.00000000000E+00 0.  1.
<mgrwt>
<rscale>  0 0.12713796E+04</rscale>
<asrwt>0</asrwt>
<pdfrwt beam="1">  1        2 0.17010489E+00 0.12713796E+04</pdfrwt>
<pdfrwt beam="2">  1       -1 0.56227262E-01 0.12713796E+04</pdfrwt>
<totfact> 0.77454679E+01</totfact>
</mgrwt>
</event>
<event>
12    7  0.1701638E-007  0.1421949E+04  0.7818608E-02  0.8938082E-01
          2   -1    0    0  501    0  0.00000000000E+00  0.00000000000E+00  0.93346881705E+03  0.93346881705E+03  0.00000000000E+00 0. -1.
         -1   -1    0    0    0  501 -0.00000000000E+00 -0.00000000000E+00 -0.54151193211E+03  0.54151193211E+03  0.00000000000E+00 0.  1.
         24    2    1    2    0    0 -0.75408776585E+02  0.37188783161E+03  0.30730542291E+03  0.49480945243E+03  0.80079512860E+02 0.  0.
        254    2    1    2    0    0  0.75408776585E+02 -0.37188783161E+03  0.84651462035E+02  0.98017129673E+03  0.89976822462E+03 0.  0.
         23    2    4    4    0    0 -0.31094820699E+03 -0.41594625407E+03  0.19897037382E+03  0.56432416764E+03  0.95773079820E+02 0.  0.
         23    2    4    4    0    0  0.38635698358E+03  0.44058422461E+02 -0.11431891178E+03  0.41584712910E+03  0.92990095376E+02 0.  0.
          4    1    3    3  502    0 -0.47653125107E+02  0.10867245625E+03  0.13119962656E+03  0.17690072100E+03  0.00000000000E+00 0. -1.
         -3    1    3    3    0  502 -0.27755651478E+02  0.26321537535E+03  0.17610579635E+03  0.31790873143E+03  0.00000000000E+00 0.  1.
         13    1    5    5    0    0 -0.13093874672E+03 -0.10516016809E+03  0.79634143541E+02  0.18586342610E+03  0.00000000000E+00 0. -1.
        -13    1    5    5    0    0 -0.18000946027E+03 -0.31078608598E+03  0.11933623028E+03  0.37846074153E+03  0.00000000000E+00 0.  1.
          4    1    6    6  503    0  0.18513045776E+02  0.24907951418E+02 -0.37059455521E+01  0.31254966648E+02  0.00000000000E+00 0. -1.
         -4    1    6    6    0  503  0.36784393780E+03  0.19150471043E+02 -0.11061296623E+03  0.38459216245E+03  0.00000000000E+00 0.  1.
<mgrwt>
<rscale>  0 0.14219487E+04</rscale>
<asrwt>0</asrwt>
<pdfrwt beam="1">  1        2 0.14361059E+00 0.14219487E+04</pdfrwt>
<pdfrwt beam="2">  1       -1 0.83309528E-01 0.14219487E+04</pdfrwt>
<totfact> 0.44164849E+01</totfact>
</mgrwt>
</event>
<event>
12    7  0.1701638E-007  0.4019647E+04  0.7818608E-02  0.8000595E-01
          2   -1    0    0  501    0  0.00000000000E+00  0.00000000000E+00  0.29588409043E+04  0.29588409043E+04  0.00000000000E+00 0. -1.
         -1   -1    0    0    0  501 -0.00000000000E+00 -0.00000000000E+00 -0.13651935018E+04  0.13651935018E+04  0.00000000000E+00 0.  1.
         24    2    1    2    0    0 -0.16581731088E+04 -0.55057116738E+03  0.15842043127E+04  0.23597803002E+04  0.78696201756E+02 0.  0.
        254    2    1    2    0    0  0.16581731088E+04  0.55057116738E+03  0.94430898183E+01  0.19642541059E+04  0.89751788368E+03 0.  0.
         23    2    4    4    0    0  0.63145520303E+03  0.36386231494E+03  0.41189847616E+03  0.84203453411E+03  0.90721245021E+02 0.  0.
         23    2    4    4    0    0  0.10267179057E+04  0.18670885244E+03 -0.40245538634E+03  0.11222195718E+04  0.91632831131E+02 0.  0.
          4    1    3    3  502    0 -0.10899767547E+04 -0.39888469377E+03  0.10348309714E+04  0.15550027216E+04  0.00000000000E+00 0. -1.
         -3    1    3    3    0  502 -0.56819635405E+03 -0.15168647362E+03  0.54937334130E+03  0.80477757869E+03  0.00000000000E+00 0.  1.
         13    1    5    5    0    0  0.25119753741E+03  0.10203826140E+03  0.17947509061E+03  0.32515122288E+03  0.00000000000E+00 0.  1.
        -13    1    5    5    0    0  0.38025766561E+03  0.26182405354E+03  0.23242338555E+03  0.51688331123E+03  0.00000000000E+00 0. -1.
          2    1    6    6  503    0  0.93572272095E+01 -0.72571423771E+01 -0.34772373834E+01  0.12341596183E+02  0.00000000000E+00 0.  1.
         -2    1    6    6    0  503  0.10173606785E+04  0.19396599482E+03 -0.39897814895E+03  0.11098779756E+04  0.00000000000E+00 0. -1.
<mgrwt>
<rscale>  0 0.40196469E+04</rscale>
<asrwt>0</asrwt>
<pdfrwt beam="1">  1        2 0.45520629E+00 0.40196469E+04</pdfrwt>
<pdfrwt beam="2">  1       -1 0.21002977E+00 0.40196469E+04</pdfrwt>
<totfact> 0.21224480E-01</totfact>
</mgrwt>
</event>
<event>
12    7  0.1701638E-007  0.2375036E+04  0.7818608E-02  0.8448909E-01
          2   -1    0    0  501    0  0.00000000000E+00  0.00000000000E+00  0.13314666935E+04  0.13314666935E+04  0.00000000000E+00 0. -1.
         -1   -1    0    0    0  501 -0.00000000000E+00 -0.00000000000E+00 -0.10591322350E+04  0.10591322350E+04  0.00000000000E+00 0.  1.
         24    2    1    2    0    0 -0.33168006422E+03 -0.43340125690E+03  0.99359838923E+03  0.11365749800E+04  0.81954936381E+02 0.  0.
        254    2    1    2    0    0  0.33168006422E+03  0.43340125690E+03 -0.72126393067E+03  0.12540239485E+04  0.86862310083E+03 0.  0.
         23    2    4    4    0    0  0.27939310957E+03 -0.21054994249E+03 -0.34727552556E+03  0.50154117064E+03  0.92474143581E+02 0.  0.
         23    2    4    4    0    0  0.52286954645E+02  0.64395119940E+03 -0.37398840511E+03  0.75248277788E+03  0.94635780876E+02 0.  0.
          2    1    3    3  502    0 -0.31855018735E+03 -0.42130954996E+03  0.91994590016E+03  0.10607904685E+04  0.00000000000E+00 0. -1.
         -1    1    3    3    0  502 -0.13129876869E+02 -0.12091706939E+02  0.73652489078E+02  0.75784511549E+02  0.00000000000E+00 0.  1.
         13    1    5    5    0    0  0.59654892813E+02 -0.93881636412E+02 -0.13132327467E+03  0.17209959431E+03  0.00000000000E+00 0.  1.
        -13    1    5    5    0    0  0.21973821676E+03 -0.11666830608E+03 -0.21595225090E+03  0.32944157633E+03  0.00000000000E+00 0. -1.
          3    1    6    6  503    0  0.30128249864E+02  0.43437322104E+03 -0.30152186139E+03  0.52962556537E+03  0.00000000000E+00 0. -1.
         -3    1    6    6    0  503  0.22158704781E+02  0.20957797835E+03 -0.72466543711E+02  0.22285721250E+03  0.00000000000E+00 0.  1.
<mgrwt>
<rscale>  0 0.23750362E+04</rscale>
<asrwt>0</asrwt>
<pdfrwt beam="1">  1        2 0.20484103E+00 0.23750362E+04</pdfrwt>
<pdfrwt beam="2">  1       -1 0.16294342E+00 0.23750362E+04</pdfrwt>
<totfact> 0.45186797E+00</totfact>
</mgrwt>
</event>
<event>
12    7  0.1701638E-007  0.1546718E+04  0.7818608E-02  0.8853967E-01
         -1   -1    0    0    0  501 -0.00000000000E+00  0.00000000000E+00  0.30477777203E+03  0.30477777203E+03  0.00000000000E+00 0.  1.
          2   -1    0    0  501    0  0.00000000000E+00 -0.00000000000E+00 -0.19623608298E+04  0.19623608298E+04  0.00000000000E+00 0. -1.
         24    2    1    2    0    0  0.33619724149E+03 -0.34263652321E+02  0.43826862054E+01  0.34711944473E+03  0.79184076176E+02 0.  0.
        254    2    1    2    0    0 -0.33619724149E+03  0.34263652321E+02 -0.16619657439E+04  0.19200191571E+04  0.90007824459E+03 0.  0.
         23    2    4    4    0    0  0.16624387973E+03  0.22096200285E+03 -0.11002994477E+04  0.11384603005E+04  0.94719306924E+02 0.  0.
         23    2    4    4    0    0 -0.50244112121E+03 -0.18669835053E+03 -0.56166629627E+03  0.78155885652E+03  0.89787880349E+02 0.  0.
          2    1    3    3  502    0 -0.16670911414E+01  0.31484355671E+01 -0.60601207347E+01  0.70297156922E+01  0.00000000000E+00 0. -1.
         -1    1    3    3    0  502  0.33786433263E+03 -0.37412087888E+02  0.10442806940E+02  0.34008972904E+03  0.00000000000E+00 0.  1.
         13    1    5    5    0    0  0.76299398838E+02  0.14691624118E+03 -0.78645873440E+03  0.80369354924E+03  0.00000000000E+00 0.  1.
        -13    1    5    5    0    0  0.89944480889E+02  0.74045761676E+02 -0.31384071328E+03  0.33476675130E+03  0.00000000000E+00 0. -1.
          3    1    6    6  503    0 -0.43795069047E+03 -0.14268767144E+03 -0.51353081371E+03  0.68983655709E+03  0.00000000000E+00 0. -1.
         -3    1    6    6    0  503 -0.64490430742E+02 -0.44010679092E+02 -0.48135482562E+02  0.91722299431E+02  0.00000000000E+00 0.  1.
<mgrwt>
<rscale>  0 0.15467178E+04</rscale>
<asrwt>0</asrwt>
<pdfrwt beam="1">  1        2 0.30190167E+00 0.15467178E+04</pdfrwt>
<pdfrwt beam="2">  1       -1 0.46888888E-01 0.15467178E+04</pdfrwt>
<totfact> 0.34868265E+01</totfact>
</mgrwt>
</event>
<event>
12    7  0.1701638E-007  0.1357791E+04  0.7818608E-02  0.8984951E-01
         -1   -1    0    0    0  501 -0.00000000000E+00  0.00000000000E+00  0.10353251738E+04  0.10353251738E+04  0.00000000000E+00 0.  1.
          2   -1    0    0  501    0  0.00000000000E+00 -0.00000000000E+00 -0.44517336058E+03  0.44517336058E+03  0.00000000000E+00 0. -1.
         24    2    1    2    0    0  0.34982798164E+03  0.65902837705E+02  0.52497358069E+02  0.36799482878E+03  0.77080611343E+02 0.  0.
        254    2    1    2    0    0 -0.34982798164E+03 -0.65902837705E+02  0.53765445513E+03  0.11125037056E+04  0.90657011922E+03 0.  0.
         23    2    4    4    0    0 -0.16566962189E+03 -0.35733016660E+03 -0.69314706081E+02  0.40970033360E+03  0.88986309596E+02 0.  0.
         23    2    4    4    0    0 -0.18415835976E+03  0.29142732889E+03  0.60696916122E+03  0.70280337199E+03  0.81711856667E+02 0.  0.
          2    1    3    3  502    0  0.32584760354E+02  0.17182153304E+02 -0.15404072523E+02  0.39928416570E+02  0.00000000000E+00 0. -1.
         -1    1    3    3    0  502  0.31724322129E+03  0.48720684401E+02  0.67901430592E+02  0.32806641221E+03  0.00000000000E+00 0.  1.
         13    1    5    5    0    0  0.91978977602E+01 -0.26020263089E+02 -0.14214327766E+02  0.31043558563E+02  0.00000000000E+00 0.  1.
        -13    1    5    5    0    0 -0.17486751965E+03 -0.33130990351E+03 -0.55100378316E+02  0.37865677504E+03  0.00000000000E+00 0. -1.
          1    1    6    6  503    0 -0.15322687958E+03  0.27072820576E+03  0.49329493519E+03  0.58319133318E+03  0.00000000000E+00 0. -1.
         -1    1    6    6    0  503 -0.30931480176E+02  0.20699123136E+02  0.11367422603E+03  0.11961203881E+03  0.00000000000E+00 0.  1.
<mgrwt>
<rscale>  0 0.13577911E+04</rscale>
<asrwt>0</asrwt>
<pdfrwt beam="1">  1        2 0.68488210E-01 0.13577911E+04</pdfrwt>
<pdfrwt beam="2">  1       -1 0.15928080E+00 0.13577911E+04</pdfrwt>
<totfact> 0.23269956E+01</totfact>
</mgrwt>
</event>
<event>
12    7  0.1701638E-007  0.1072444E+04  0.7818608E-02  0.9232473E-01
          2   -1    0    0  501    0  0.00000000000E+00  0.00000000000E+00  0.30639207927E+04  0.30639207927E+04  0.00000000000E+00 0. -1.
         -1   -1    0    0    0  501 -0.00000000000E+00 -0.00000000000E+00 -0.93845207568E+02  0.93845207568E+02  0.00000000000E+00 0.  1.
         24    2    1    2    0    0  0.54579245631E+02 -0.92396364878E+02  0.19094154902E+03  0.23309338424E+03  0.79736242327E+02 0.  0.
        254    2    1    2    0    0 -0.54579245631E+02  0.92396364878E+02  0.27791340361E+04  0.29246726160E+04  0.90476954964E+03 0.  0.
         23    2    4    4    0    0  0.23381437268E+03 -0.31513578495E+03  0.12708567645E+04  0.13332470548E+04  0.92146999605E+02 0.  0.
         23    2    4    4    0    0 -0.28839361831E+03  0.40753214983E+03  0.15082772717E+04  0.15914255612E+04  0.92095909212E+02 0.  0.
          2    1    3    3  502    0  0.46163150470E+02 -0.10427413450E+03  0.18510016667E+03  0.21740791910E+03  0.00000000000E+00 0. -1.
         -1    1    3    3    0  502  0.84160951611E+01  0.11877769622E+02  0.58413823479E+01  0.15685465141E+02  0.00000000000E+00 0.  1.
         13    1    5    5    0    0  0.10351169734E+03 -0.12139186349E+03  0.66723605696E+03  0.68604271858E+03  0.00000000000E+00 0. -1.
        -13    1    5    5    0    0  0.13030267534E+03 -0.19374392146E+03  0.60362070751E+03  0.64720433624E+03  0.00000000000E+00 0.  1.
          1    1    6    6  503    0  0.46633137963E+01 -0.51576349406E+00  0.80547986038E+01  0.93216033005E+01  0.00000000000E+00 0.  1.
         -1    1    6    6    0  503 -0.29305693211E+03  0.40804791333E+03  0.15002224731E+04  0.15821039579E+04  0.00000000000E+00 0. -1.
<mgrwt>
<rscale>  0 0.10724445E+04</rscale>
<asrwt>0</asrwt>
<pdfrwt beam="1">  1        2 0.47137235E+00 0.10724445E+04</pdfrwt>
<pdfrwt beam="2">  1       -1 0.14437727E-01 0.10724445E+04</pdfrwt>
<totfact> 0.64310820E+01</totfact>
</mgrwt>
</event>
<event>
12    7  0.1701638E-007  0.1242221E+04  0.7818608E-02  0.9076683E-01
         -1   -1    0    0    0  501 -0.00000000000E+00  0.00000000000E+00  0.70166815077E+03  0.70166815077E+03  0.00000000000E+00 0.  1.
          2   -1    0    0  501    0  0.00000000000E+00 -0.00000000000E+00 -0.54980123643E+03  0.54980123643E+03  0.00000000000E+00 0. -1.
         24    2    1    2    0    0  0.26141819508E+03  0.80593755483E+02  0.82902654437E+02  0.29692534477E+03  0.80355361449E+02 0.  0.
        254    2    1    2    0    0 -0.26141819508E+03 -0.80593755483E+02  0.68964259899E+02  0.95454404242E+03  0.91190099991E+03 0.  0.
         23    2    4    4    0    0 -0.17104091736E+03 -0.46686058834E+03 -0.99154741535E+02  0.51393013678E+03  0.84135119721E+02 0.  0.
         23    2    4    4    0    0 -0.90377277720E+02  0.38626683285E+03  0.16811900143E+03  0.44061390564E+03  0.92230671195E+02 0.  0.
          4    1    3    3  502    0  0.78704069626E+02  0.20728434663E+02  0.64362867015E+02  0.10376211847E+03  0.00000000000E+00 0. -1.
         -3    1    3    3    0  502  0.18271412546E+03  0.59865320819E+02  0.18539787422E+02  0.19316322630E+03  0.00000000000E+00 0.  1.
         13    1    5    5    0    0 -0.16709455329E+03 -0.42152371653E+03 -0.67349071498E+02  0.45840891218E+03  0.00000000000E+00 0. -1.
        -13    1    5    5    0    0 -0.39463640734E+01 -0.45336871804E+02 -0.31805670038E+02  0.55521224599E+02  0.00000000000E+00 0.  1.
          3    1    6    6  503    0 -0.10075996434E+03  0.36773728113E+03  0.14182787963E+03  0.40681497734E+03  0.00000000000E+00 0. -1.
         -3    1    6    6    0  503  0.10382686619E+02  0.18529551725E+02  0.26291121808E+02  0.33798928304E+02  0.00000000000E+00 0.  1.
<mgrwt>
<rscale>  0 0.12422206E+04</rscale>
<asrwt>0</asrwt>
<pdfrwt beam="1">  1        2 0.84584806E-01 0.12422206E+04</pdfrwt>
<pdfrwt beam="2">  1       -1 0.10794895E+00 0.12422206E+04</pdfrwt>
<totfact> 0.49456345E+01</totfact>
</mgrwt>
</event>
<event>
12    7  0.1701638E-007  0.2805211E+04  0.7818608E-02  0.8301652E-01
          2   -1    0    0  501    0  0.00000000000E+00  0.00000000000E+00  0.14597513089E+04  0.14597513089E+04  0.00000000000E+00 0. -1.
         -1   -1    0    0    0  501 -0.00000000000E+00 -0.00000000000E+00 -0.13476971309E+04  0.13476971309E+04  0.00000000000E+00 0.  1.
         24    2    1    2    0    0  0.17332467456E+01 -0.11481370198E+04  0.55298195008E+03  0.12768090001E+04  0.78933930104E+02 0.  0.
        254    2    1    2    0    0 -0.17332467456E+01  0.11481370198E+04 -0.44092777208E+03  0.15306394398E+04  0.91116308856E+03 0.  0.
         23    2    4    4    0    0 -0.26646086094E+03  0.11504828332E+04 -0.37928260495E+03  0.12440148593E+04  0.95422931970E+02 0.  0.
         23    2    4    4    0    0  0.26472761419E+03 -0.23458133769E+01 -0.61645167132E+02  0.28662458043E+03  0.90924754164E+02 0.  0.
          2    1    3    3  502    0  0.35638216631E+02 -0.79297903514E+03  0.36805332774E+03  0.87495661876E+03  0.00000000000E+00 0. -1.
         -1    1    3    3    0  502 -0.33904969885E+02 -0.35515798466E+03  0.18492862234E+03  0.40185238137E+03  0.00000000000E+00 0.  1.
         13    1    5    5    0    0 -0.26164861804E+03  0.10420781621E+04 -0.32388350318E+03  0.11221797623E+04  0.00000000000E+00 0. -1.
        -13    1    5    5    0    0 -0.48122429023E+01  0.10840467106E+03 -0.55399101769E+02  0.12183509702E+03  0.00000000000E+00 0.  1.
          1    1    6    6  503    0  0.22986915889E+03 -0.19349878406E+02 -0.22921875227E+02  0.23181816229E+03  0.00000000000E+00 0. -1.
         -1    1    6    6    0  503  0.34858455303E+02  0.17004065029E+02 -0.38723291904E+02  0.54806418142E+02  0.00000000000E+00 0.  1.
<mgrwt>
<rscale>  0 0.28052113E+04</rscale>
<asrwt>0</asrwt>
<pdfrwt beam="1">  1        2 0.22457712E+00 0.28052113E+04</pdfrwt>
<pdfrwt beam="2">  1       -1 0.20733802E+00 0.28052113E+04</pdfrwt>
<totfact> 0.17762539E+00</totfact>
</mgrwt>
</event>
<event>
12    7  0.1701638E-007  0.1707486E+04  0.7818608E-02  0.8757106E-01
         -1   -1    0    0    0  501 -0.00000000000E+00  0.00000000000E+00  0.16006846326E+03  0.16006846326E+03  0.00000000000E+00 0.  1.
          2   -1    0    0  501    0  0.00000000000E+00 -0.00000000000E+00 -0.45535346395E+04  0.45535346395E+04  0.00000000000E+00 0. -1.
         24    2    1    2    0    0 -0.15814192742E+03 -0.58569267470E+03 -0.11950093028E+04  0.13425159932E+04  0.79102337435E+02 0.  0.
        254    2    1    2    0    0  0.15814192742E+03  0.58569267470E+03 -0.31984568734E+04  0.33710871096E+04  0.87524690839E+03 0.  0.
         23    2    4    4    0    0  0.24468414320E+02  0.49254177947E+03 -0.31327561551E+04  0.31726819820E+04  0.92486345437E+02 0.  0.
         23    2    4    4    0    0  0.13367351310E+03  0.93150895231E+02 -0.65700718350E+02  0.19840512753E+03  0.92207986911E+02 0.  0.
          2    1    3    3  502    0 -0.21755325129E+02 -0.31829161341E+02 -0.11241821130E+03  0.11884546233E+03  0.00000000000E+00 0. -1.
         -1    1    3    3    0  502 -0.13638660230E+03 -0.55386351336E+03 -0.10825910915E+04  0.12236705309E+04  0.00000000000E+00 0.  1.
         13    1    5    5    0    0  0.17561225781E+02  0.49421580136E+03 -0.30956414680E+04  0.31348929413E+04  0.00000000000E+00 0.  1.
        -13    1    5    5    0    0  0.69071885391E+01 -0.16740218979E+01 -0.37114687101E+02  0.37789040758E+02  0.00000000000E+00 0. -1.
          4    1    6    6  503    0  0.51964833334E+02  0.24429097111E+02  0.20721429208E+02  0.61045084303E+02  0.00000000000E+00 0. -1.
         -4    1    6    6    0  503  0.81708679770E+02  0.68721798120E+02 -0.86422147558E+02  0.13736004323E+03  0.00000000000E+00 0.  1.
<mgrwt>
<rscale>  0 0.17074862E+04</rscale>
<asrwt>0</asrwt>
<pdfrwt beam="1">  1        2 0.70054373E+00 0.17074862E+04</pdfrwt>
<pdfrwt beam="2">  1       -1 0.24625919E-01 0.17074862E+04</pdfrwt>
<totfact> 0.17421037E+00</totfact>
</mgrwt>
</event>
<event>
12    7  0.1701638E-007  0.2098340E+04  0.7818608E-02  0.8561975E-01
         -1   -1    0    0    0  501 -0.00000000000E+00  0.00000000000E+00  0.78681791530E+03  0.78681791530E+03  0.00000000000E+00 0.  1.
          2   -1    0    0  501    0  0.00000000000E+00 -0.00000000000E+00 -0.13989988705E+04  0.13989988705E+04  0.00000000000E+00 0. -1.
         24    2    1    2    0    0 -0.58442821195E+03  0.52375766286E+03  0.10546536240E+03  0.79607558146E+03  0.82066828885E+02 0.  0.
        254    2    1    2    0    0  0.58442821195E+03 -0.52375766286E+03 -0.71764631763E+03  0.13897412044E+04  0.89469880609E+03 0.  0.
         23    2    4    4    0    0 -0.16858387564E+03 -0.34281574310E+03 -0.35542182130E+03  0.52982174767E+03  0.91887193917E+02 0.  0.
         23    2    4    4    0    0  0.75301208759E+03 -0.18094191976E+03 -0.36222449633E+03  0.85991945671E+03  0.92128735485E+02 0.  0.
          2    1    3    3  502    0 -0.16576448833E+03  0.12372133560E+03 -0.33989987191E+01  0.20687287804E+03  0.00000000000E+00 0. -1.
         -1    1    3    3    0  502 -0.41866372363E+03  0.40003632725E+03  0.10886436112E+03  0.58920270342E+03  0.00000000000E+00 0.  1.
         13    1    5    5    0    0 -0.16771323834E+03 -0.30695844154E+03 -0.34756161910E+03  0.49310272177E+03  0.00000000000E+00 0. -1.
        -13    1    5    5    0    0 -0.87063730095E+00 -0.35857301558E+02 -0.78602022012E+01  0.36719025899E+02  0.00000000000E+00 0.  1.
          2    1    6    6  503    0  0.42294311512E+03 -0.99784011786E+02 -0.15256358729E+03  0.46055767913E+03  0.00000000000E+00 0. -1.
         -2    1    6    6    0  503  0.33006897247E+03 -0.81157907974E+02 -0.20966090904E+03  0.39936177759E+03  0.00000000000E+00 0.  1.
<mgrwt>
<rscale>  0 0.20983397E+04</rscale>
<asrwt>0</asrwt>
<pdfrwt beam="1">  1        2 0.21523060E+00 0.20983397E+04</pdfrwt>
<pdfrwt beam="2">  1       -1 0.12104891E+00 0.20983397E+04</pdfrwt>
<totfact> 0.92226358E+00</totfact>
</mgrwt>
</event>
<event>
12    7  0.1701638E-007  0.2827372E+04  0.7818608E-02  0.8294820E-01
         -1   -1    0    0    0  501 -0.00000000000E+00  0.00000000000E+00  0.32068788827E+04  0.32068788827E+04  0.00000000000E+00 0.  1.
          2   -1    0    0  501    0  0.00000000000E+00 -0.00000000000E+00 -0.62319417371E+03  0.62319417371E+03  0.00000000000E+00 0. -1.
         24    2    1    2    0    0 -0.11260639557E+04 -0.28898417691E+03  0.18415778340E+04  0.21792424517E+04  0.78465648678E+02 0.  0.
        254    2    1    2    0    0  0.11260639557E+04  0.28898417691E+03  0.74210687499E+03  0.16508306046E+04  0.90718641101E+03 0.  0.
         23    2    4    4    0    0  0.62894198879E+03 -0.24873065612E+03  0.57900518195E+03  0.89479354414E+03  0.89294576269E+02 0.  0.
         23    2    4    4    0    0  0.49712196696E+03  0.53771483303E+03  0.16310169304E+03  0.75603706048E+03  0.93393698185E+02 0.  0.
          2    1    3    3  502    0 -0.58662148727E+03 -0.17896891076E+03  0.91820743877E+03  0.11042008608E+04  0.00000000000E+00 0. -1.
         -1    1    3    3    0  502 -0.53944246848E+03 -0.11001526615E+03  0.92337039519E+03  0.10750415910E+04  0.00000000000E+00 0.  1.
         13    1    5    5    0    0  0.34260109057E+03 -0.14656971350E+03  0.37505785176E+03  0.52870273344E+03  0.00000000000E+00 0.  1.
        -13    1    5    5    0    0  0.28634089822E+03 -0.10216094262E+03  0.20394733019E+03  0.36609081070E+03  0.00000000000E+00 0. -1.
          1    1    6    6  503    0  0.12861549716E+03  0.17535877523E+03  0.84354778414E+02  0.23325602843E+03  0.00000000000E+00 0. -1.
         -1    1    6    6    0  503  0.36850646980E+03  0.36235605781E+03  0.78746914624E+02  0.52278103205E+03  0.00000000000E+00 0.  1.
<mgrwt>
<rscale>  0 0.28273721E+04</rscale>
<asrwt>0</asrwt>
<pdfrwt beam="1">  1        2 0.95876029E-01 0.28273721E+04</pdfrwt>
<pdfrwt beam="2">  1       -1 0.49336597E+00 0.28273721E+04</pdfrwt>
<totfact> 0.76965506E-02</totfact>
</mgrwt>
</event>
<event>
12    7  0.1701638E-007  0.3037922E+04  0.7818608E-02  0.8232984E-01
         -1   -1    0    0    0  501 -0.00000000000E+00  0.00000000000E+00  0.99651308992E+03  0.99651308992E+03  0.00000000000E+00 0.  1.
          2   -1    0    0  501    0  0.00000000000E+00 -0.00000000000E+00 -0.23153156626E+04  0.23153156626E+04  0.00000000000E+00 0. -1.
         24    2    1    2    0    0 -0.18982160179E+03  0.90493582103E+03  0.52086348069E+03  0.10644085157E+04  0.82010011620E+02 0.  0.
        254    2    1    2    0    0  0.18982160179E+03 -0.90493582103E+03 -0.18396660534E+04  0.22474202369E+04  0.90088037629E+03 0.  0.
         23    2    4    4    0    0  0.34028584378E+03 -0.49896094191E+03 -0.16618701485E+04  0.17706874824E+04  0.93623143484E+02 0.  0.
         23    2    4    4    0    0 -0.15046424199E+03 -0.40597487912E+03 -0.17779590494E+03  0.47673275447E+03  0.90596052742E+02 0.  0.
          4    1    3    3  502    0 -0.99192084004E+02  0.35072404153E+03  0.16943500227E+03  0.40193860580E+03  0.00000000000E+00 0. -1.
         -3    1    3    3    0  502 -0.90629517785E+02  0.55421177951E+03  0.35142847842E+03  0.66246990987E+03  0.00000000000E+00 0.  1.
         13    1    5    5    0    0  0.18505228796E+02 -0.38185882610E+02 -0.20122682159E+03  0.20565222793E+03  0.00000000000E+00 0. -1.
        -13    1    5    5    0    0  0.32178061498E+03 -0.46077505930E+03 -0.14606433269E+04  0.15650352545E+04  0.00000000000E+00 0.  1.
          4    1    6    6  503    0 -0.46580684100E+02 -0.38493378792E+02 -0.26120512802E+02  0.65831463079E+02  0.00000000000E+00 0. -1.
         -4    1    6    6    0  503 -0.10388355789E+03 -0.36748150033E+03 -0.15167539214E+03  0.41090129139E+03  0.00000000000E+00 0.  1.
<mgrwt>
<rscale>  0 0.30379219E+04</rscale>
<asrwt>0</asrwt>
<pdfrwt beam="1">  1        2 0.35620241E+00 0.30379219E+04</pdfrwt>
<pdfrwt beam="2">  1       -1 0.15330971E+00 0.30379219E+04</pdfrwt>
<totfact> 0.14174862E+00</totfact>
</mgrwt>
</event>
<event>
12    7  0.1701638E-007  0.1250954E+04  0.7818608E-02  0.9069389E-01
          2   -1    0    0  501    0  0.00000000000E+00  0.00000000000E+00  0.17795864776E+04  0.17795864776E+04  0.00000000000E+00 0. -1.
         -1   -1    0    0    0  501 -0.00000000000E+00 -0.00000000000E+00 -0.21983853476E+03  0.21983853476E+03  0.00000000000E+00 0.  1.
         24    2    1    2    0    0 -0.77004893994E+02 -0.14273767004E+03  0.77930808756E+03  0.79995223537E+03  0.79364270212E+02 0.  0.
        254    2    1    2    0    0  0.77004893994E+02  0.14273767004E+03  0.78043985532E+03  0.11994727770E+04  0.89629502895E+03 0.  0.
         23    2    4    4    0    0  0.42016277952E+03  0.28793200339E+03  0.36566334602E+03  0.63422777470E+03  0.95360304661E+02 0.  0.
         23    2    4    4    0    0 -0.34315788553E+03 -0.14519433335E+03  0.41477650931E+03  0.56524500234E+03  0.92863508212E+02 0.  0.
          4    1    3    3  502    0 -0.62462563260E+02 -0.14310927417E+03  0.59760800918E+03  0.61767076084E+03  0.00000000000E+00 0. -1.
         -3    1    3    3    0  502 -0.14542330733E+02  0.37160412189E+00  0.18170007838E+03  0.18228147453E+03  0.00000000000E+00 0.  1.
         13    1    5    5    0    0  0.97417521297E+02  0.11888786039E+03  0.10121624272E+03  0.18403593289E+03  0.00000000000E+00 0.  1.
        -13    1    5    5    0    0  0.32274525822E+03  0.16904414300E+03  0.26444710329E+03  0.45019184181E+03  0.00000000000E+00 0. -1.
          2    1    6    6  503    0 -0.31829534096E+03 -0.11199561259E+03  0.33581639346E+03  0.47605418960E+03  0.00000000000E+00 0. -1.
         -2    1    6    6    0  503 -0.24862544565E+02 -0.33198720762E+02  0.78960115846E+02  0.89190812738E+02  0.00000000000E+00 0.  1.
<mgrwt>
<rscale>  0 0.12509543E+04</rscale>
<asrwt>0</asrwt>
<pdfrwt beam="1">  1        2 0.27378253E+00 0.12509543E+04</pdfrwt>
<pdfrwt beam="2">  1       -1 0.33821314E-01 0.12509543E+04</pdfrwt>
<totfact> 0.81880891E+01</totfact>
</mgrwt>
</event>
<event>
12    7  0.1701638E-007  0.2877269E+04  0.7818608E-02  0.8279673E-01
         -1   -1    0    0    0  501 -0.00000000000E+00  0.00000000000E+00  0.17755151309E+04  0.17755151309E+04  0.00000000000E+00 0.  1.
          2   -1    0    0  501    0  0.00000000000E+00 -0.00000000000E+00 -0.11656729382E+04  0.11656729382E+04  0.00000000000E+00 0. -1.
         24    2    1    2    0    0 -0.97829893309E+03 -0.70583826652E+03  0.76090189380E+03  0.14285924553E+04  0.81414068226E+02 0.  0.
        254    2    1    2    0    0  0.97829893309E+03  0.70583826652E+03 -0.15105970113E+03  0.15125956138E+04  0.89991666093E+03 0.  0.
         23    2    4    4    0    0 -0.61687670410E+02  0.21693033545E+03 -0.25828237824E+03  0.35484095270E+03  0.91313611726E+02 0.  0.
         23    2    4    4    0    0  0.10399866035E+04  0.48890793107E+03  0.10722267711E+03  0.11577546611E+04  0.91082667364E+02 0.  0.
          2    1    3    3  502    0 -0.29880460844E+03 -0.26255490262E+03  0.25434136154E+03  0.47213218393E+03  0.00000000000E+00 0. -1.
         -1    1    3    3    0  502 -0.67949432465E+03 -0.44328336390E+03  0.50656053225E+03  0.95646027141E+03  0.00000000000E+00 0.  1.
         13    1    5    5    0    0 -0.80239434312E+02  0.19878606744E+03 -0.21035239868E+03  0.30033714233E+03  0.00000000000E+00 0.  1.
        -13    1    5    5    0    0  0.18551763903E+02  0.18144268009E+02 -0.47929979556E+02  0.54503810378E+02  0.00000000000E+00 0. -1.
          3    1    6    6  503    0  0.20895169754E+03  0.11017121538E+03  0.57600086716E+02  0.24313839391E+03  0.00000000000E+00 0. -1.
         -3    1    6    6    0  503  0.83103490596E+03  0.37873671569E+03  0.49622590394E+02  0.91461626719E+03  0.00000000000E+00 0.  1.
<mgrwt>
<rscale>  0 0.28772695E+04</rscale>
<asrwt>0</asrwt>
<pdfrwt beam="1">  1        2 0.17933430E+00 0.28772695E+04</pdfrwt>
<pdfrwt beam="2">  1       -1 0.27315617E+00 0.28772695E+04</pdfrwt>
<totfact> 0.96453654E-01</totfact>
</mgrwt>
</event>
<event>
12    7  0.1701638E-007  0.2889429E+04  0.7818608E-02  0.8276030E-01
          2   -1    0    0  501    0  0.00000000000E+00  0.00000000000E+00  0.20325777637E+04  0.20325777637E+04  0.00000000000E+00 0. -1.
         -1   -1    0    0    0  501 -0.00000000000E+00 -0.00000000000E+00 -0.10268734947E+04  0.10268734947E+04  0.00000000000E+00 0.  1.
         24    2    1    2    0    0  0.10784561075E+04 -0.51516783393E+03 -0.96324513464E+02  0.12017911967E+04  0.80982687189E+02 0.  0.
        254    2    1    2    0    0 -0.10784561075E+04  0.51516783393E+03  0.11020287825E+04  0.18576600617E+04  0.89887039904E+03 0.  0.
         23    2    4    4    0    0 -0.76723719732E+03  0.64092798884E+03  0.41258477436E+03  0.10853669007E+04  0.91397534745E+02 0.  0.
         23    2    4    4    0    0 -0.31121891022E+03 -0.12576015490E+03  0.68944400815E+03  0.77229316094E+03  0.91819711509E+02 0.  0.
          4    1    3    3  502    0  0.15697047226E+03 -0.10394632367E+03 -0.15691694593E+01  0.18827381565E+03  0.00000000000E+00 0. -1.
         -3    1    3    3    0  502  0.92148563528E+03 -0.41122151027E+03 -0.94755344004E+02  0.10135173811E+04  0.00000000000E+00 0.  1.
         13    1    5    5    0    0 -0.25720895920E+03  0.24502408587E+03  0.10666551021E+03  0.37090535507E+03  0.00000000000E+00 0. -1.
        -13    1    5    5    0    0 -0.51002823812E+03  0.39590390297E+03  0.30591926415E+03  0.71446154567E+03  0.00000000000E+00 0.  1.
          1    1    6    6  503    0 -0.11505723162E+02  0.79066029110E+01  0.69082018778E+02  0.70478516965E+02  0.00000000000E+00 0. -1.
         -1    1    6    6    0  503 -0.29971318706E+03 -0.13366675782E+03  0.62036198937E+03  0.70181464398E+03  0.00000000000E+00 0.  1.
<mgrwt>
<rscale>  0 0.28894292E+04</rscale>
<asrwt>0</asrwt>
<pdfrwt beam="1">  1        2 0.31270427E+00 0.28894292E+04</pdfrwt>
<pdfrwt beam="2">  1       -1 0.15798054E+00 0.28894292E+04</pdfrwt>
<totfact> 0.19062687E+00</totfact>
</mgrwt>
</event>
<event>
12    7  0.1701638E-007  0.1696591E+04  0.7818608E-02  0.8763311E-01
          2   -1    0    0  501    0  0.00000000000E+00  0.00000000000E+00  0.11431683748E+04  0.11431683748E+04  0.00000000000E+00 0. -1.
         -1   -1    0    0    0  501 -0.00000000000E+00 -0.00000000000E+00 -0.62948323713E+03  0.62948323713E+03  0.00000000000E+00 0.  1.
         24    2    1    2    0    0  0.31366082500E+03 -0.42111175973E+03  0.49404949949E+03  0.72574807172E+03  0.83109135161E+02 0.  0.
        254    2    1    2    0    0 -0.31366082500E+03  0.42111175973E+03  0.19635638198E+02  0.10469035402E+04  0.90548508376E+03 0.  0.
         23    2    4    4    0    0  0.15313510893E+03  0.21992908214E+03  0.33561486846E+03  0.44155064006E+03  0.10252055913E+03 0.  0.
         23    2    4    4    0    0 -0.46679593393E+03  0.20118267758E+03 -0.31597923026E+03  0.60535290016E+03  0.90754317163E+02 0.  0.
          2    1    3    3  502    0  0.25542843547E+03 -0.37267850314E+03  0.45211788984E+03  0.63917410669E+03  0.00000000000E+00 0. -1.
         -1    1    3    3    0  502  0.58232389532E+02 -0.48433256589E+02  0.41931609646E+02  0.86573965035E+02  0.00000000000E+00 0.  1.
         13    1    5    5    0    0  0.16460123625E+03  0.21295200384E+03  0.33247964285E+03  0.42776726830E+03  0.00000000000E+00 0. -1.
        -13    1    5    5    0    0 -0.11466127324E+02  0.69770782995E+01  0.31352256080E+01  0.13783371758E+02  0.00000000000E+00 0.  1.
          1    1    6    6  503    0 -0.16761430213E+03  0.28504943354E+02 -0.12105455663E+03  0.20871342016E+03  0.00000000000E+00 0. -1.
         -1    1    6    6    0  503 -0.29918163179E+03  0.17267773423E+03 -0.19492467363E+03  0.39663948000E+03  0.00000000000E+00 0.  1.
<mgrwt>
<rscale>  0 0.16965911E+04</rscale>
<asrwt>0</asrwt>
<pdfrwt beam="1">  1        2 0.17587206E+00 0.16965911E+04</pdfrwt>
<pdfrwt beam="2">  1       -1 0.96843575E-01 0.16965911E+04</pdfrwt>
<totfact> 0.22816276E+01</totfact>
</mgrwt>
</event>
<event>
12    7  0.1701638E-007  0.2033404E+04  0.7818608E-02  0.8591161E-01
         -1   -1    0    0    0  501 -0.00000000000E+00  0.00000000000E+00  0.84072931484E+03  0.84072931484E+03  0.00000000000E+00 0.  1.
          4   -1    0    0  501    0  0.00000000000E+00 -0.00000000000E+00 -0.12295074721E+04  0.12295074721E+04  0.00000000000E+00 0. -1.
         24    2    1    2    0    0  0.66249001544E+03  0.19004891909E+03 -0.59237092067E+03  0.91227991552E+03  0.79622386280E+02 0.  0.
        254    2    1    2    0    0 -0.66249001544E+03 -0.19004891909E+03  0.20359276340E+03  0.11579568714E+04  0.90796612855E+03 0.  0.
         23    2    4    4    0    0  0.13382480502E+03 -0.23807646107E+03 -0.91261282573E+02  0.30242296843E+03  0.92420508440E+02 0.  0.
         23    2    4    4    0    0 -0.79631482046E+03  0.48027541985E+02  0.29485404597E+03  0.85553390301E+03  0.92603524273E+02 0.  0.
          2    1    3    3  502    0  0.51663538784E+03  0.14096620995E+03 -0.50081967863E+03  0.73321480265E+03  0.00000000000E+00 0. -1.
         -1    1    3    3    0  502  0.14585462760E+03  0.49082709144E+02 -0.91551242043E+02  0.17906511287E+03  0.00000000000E+00 0.  1.
         13    1    5    5    0    0  0.13963773683E+02 -0.11002831690E+03 -0.18082367972E+02  0.11237521758E+03  0.00000000000E+00 0. -1.
        -13    1    5    5    0    0  0.11986103133E+03 -0.12804814417E+03 -0.73178914601E+02  0.19004775084E+03  0.00000000000E+00 0.  1.
          1    1    6    6  503    0 -0.15939044216E+03  0.17808202837E+02  0.21679747348E+02  0.16184083720E+03  0.00000000000E+00 0. -1.
         -1    1    6    6    0  503 -0.63692437830E+03  0.30219339148E+02  0.27317429862E+03  0.69369306581E+03  0.00000000000E+00 0.  1.
<mgrwt>
<rscale>  0 0.20334040E+04</rscale>
<asrwt>0</asrwt>
<pdfrwt beam="1">  1        4 0.18915499E+00 0.20334040E+04</pdfrwt>
<pdfrwt beam="2">  1       -1 0.12934297E+00 0.20334040E+04</pdfrwt>
<totfact> 0.30411953E-01</totfact>
</mgrwt>
</event>
<event>
12    7  0.1701638E-007  0.1237623E+04  0.7818608E-02  0.9080548E-01
          2   -1    0    0  501    0  0.00000000000E+00  0.00000000000E+00  0.30467094449E+04  0.30467094449E+04  0.00000000000E+00 0. -1.
         -1   -1    0    0    0  501 -0.00000000000E+00 -0.00000000000E+00 -0.12568569364E+03  0.12568569364E+03  0.00000000000E+00 0.  1.
         24    2    1    2    0    0  0.18732986659E+03  0.47461988035E+02  0.12155553408E+04  0.12340755545E+04  0.89568791458E+02 0.  0.
        254    2    1    2    0    0 -0.18732986659E+03 -0.47461988035E+02  0.17054684105E+04  0.19383195841E+04  0.90061933780E+03 0.  0.
         23    2    4    4    0    0 -0.48711394026E+03  0.16757352283E+03  0.79704365230E+03  0.95350137999E+03  0.92333209689E+02 0.  0.
         23    2    4    4    0    0  0.29978407367E+03 -0.21503551087E+03  0.90842475816E+03  0.98481820407E+03  0.92307053200E+02 0.  0.
          2    1    3    3  502    0  0.44942736966E+02  0.46497868047E+02  0.52689778927E+03  0.53085137437E+03  0.00000000000E+00 0. -1.
         -1    1    3    3    0  502  0.14238712962E+03  0.96411998803E+00  0.68865755152E+03  0.70322418010E+03  0.00000000000E+00 0.  1.
         13    1    5    5    0    0 -0.48511869666E+03  0.17342664611E+03  0.77505362453E+03  0.93065840797E+03  0.00000000000E+00 0.  1.
        -13    1    5    5    0    0 -0.19952436003E+01 -0.58531232761E+01  0.21990027773E+02  0.22842972017E+02  0.00000000000E+00 0. -1.
          1    1    6    6  503    0  0.26653596762E+02 -0.15880350852E+02  0.16855982349E+03  0.17139140544E+03  0.00000000000E+00 0. -1.
         -1    1    6    6    0  503  0.27313047691E+03 -0.19915516001E+03  0.73986493467E+03  0.81342679863E+03  0.00000000000E+00 0.  1.
<mgrwt>
<rscale>  0 0.12376232E+04</rscale>
<asrwt>0</asrwt>
<pdfrwt beam="1">  1        2 0.46872447E+00 0.12376232E+04</pdfrwt>
<pdfrwt beam="2">  1       -1 0.19336263E-01 0.12376232E+04</pdfrwt>
<totfact> 0.40038937E+01</totfact>
</mgrwt>
</event>
<event>
12    7  0.1701638E-007  0.1205746E+04  0.7818608E-02  0.9107842E-01
         -1   -1    0    0    0  501 -0.00000000000E+00  0.00000000000E+00  0.22054035237E+03  0.22054035237E+03  0.00000000000E+00 0.  1.
          2   -1    0    0  501    0  0.00000000000E+00 -0.00000000000E+00 -0.16480243600E+04  0.16480243600E+04  0.00000000000E+00 0. -1.
         24    2    1    2    0    0 -0.48210428456E+02  0.23871310966E+03 -0.21532497104E+03  0.33523546539E+03  0.81913246578E+02 0.  0.
        254    2    1    2    0    0  0.48210428456E+02 -0.23871310966E+03 -0.12121590365E+04  0.15333292469E+04  0.90689627605E+03 0.  0.
         23    2    4    4    0    0  0.70590499615E+01 -0.28900398593E+03 -0.13345652217E+04  0.13684000036E+04  0.88775586123E+02 0.  0.
         23    2    4    4    0    0  0.41151378494E+02  0.50290876270E+02  0.12240618521E+03  0.16492924333E+03  0.89419085991E+02 0.  0.
          2    1    3    3  502    0  0.29848068122E+01  0.40279717009E+02 -0.80109475986E+02  0.89715621921E+02  0.00000000000E+00 0. -1.
         -1    1    3    3    0  502 -0.51195235268E+02  0.19843339265E+03 -0.13521549506E+03  0.24551984347E+03  0.00000000000E+00 0.  1.
         13    1    5    5    0    0 -0.45512165030E+01 -0.45895111843E+02 -0.10069620856E+03  0.11075559255E+03  0.00000000000E+00 0. -1.
        -13    1    5    5    0    0  0.11610266464E+02 -0.24310887409E+03 -0.12338690132E+04  0.12576444111E+04  0.00000000000E+00 0.  1.
          3    1    6    6  503    0 -0.11296371672E+02  0.25023486931E+01 -0.96183408990E+01  0.15046004240E+02  0.00000000000E+00 0. -1.
         -3    1    6    6    0  503  0.52447750166E+02  0.47788527577E+02  0.13202452611E+03  0.14988323909E+03  0.00000000000E+00 0.  1.
<mgrwt>
<rscale>  0 0.12057460E+04</rscale>
<asrwt>0</asrwt>
<pdfrwt beam="1">  1        2 0.25354220E+00 0.12057460E+04</pdfrwt>
<pdfrwt beam="2">  1       -1 0.33929286E-01 0.12057460E+04</pdfrwt>
<totfact> 0.96627040E+01</totfact>
</mgrwt>
</event>
<event>
12    7  0.1701638E-007  0.1454248E+04  0.7818608E-02  0.8915461E-01
          2   -1    0    0  501    0  0.00000000000E+00  0.00000000000E+00  0.28509669414E+03  0.28509669414E+03  0.00000000000E+00 0. -1.
         -1   -1    0    0    0  501 -0.00000000000E+00 -0.00000000000E+00 -0.18544916233E+04  0.18544916233E+04  0.00000000000E+00 0.  1.
         24    2    1    2    0    0 -0.13714727628E+03  0.41623745057E+03 -0.45127949676E+03  0.63436149150E+03  0.81843307973E+02 0.  0.
        254    2    1    2    0    0  0.13714727628E+03 -0.41623745057E+03 -0.11181154324E+04  0.15052268259E+04  0.90744844852E+03 0.  0.
         23    2    4    4    0    0 -0.11164431973E+03 -0.63666686474E+03 -0.62641276033E+03  0.90476916365E+03  0.91679563701E+02 0.  0.
         23    2    4    4    0    0  0.24879159601E+03  0.22042941417E+03 -0.49170267206E+03  0.60045766229E+03  0.91057682870E+02 0.  0.
          4    1    3    3  502    0 -0.13462522530E+03  0.30754390985E+03 -0.31866929994E+03  0.46287939087E+03  0.00000000000E+00 0. -1.
         -3    1    3    3    0  502 -0.25220509800E+01  0.10869354072E+03 -0.13261019682E+03  0.17148210063E+03  0.00000000000E+00 0.  1.
         13    1    5    5    0    0  0.27966500960E+01 -0.41315496734E+02 -0.15830384891E+02  0.44332748707E+02  0.00000000000E+00 0.  1.
        -13    1    5    5    0    0 -0.11444096983E+03 -0.59535136800E+03 -0.61058237544E+03  0.86043641494E+03  0.00000000000E+00 0. -1.
          3    1    6    6  503    0  0.12610509292E+03  0.60602960425E+02 -0.16190237783E+03  0.21398035709E+03  0.00000000000E+00 0. -1.
         -3    1    6    6    0  503  0.12268650309E+03  0.15982645375E+03 -0.32980029423E+03  0.38647730520E+03  0.00000000000E+00 0.  1.
<mgrwt>
<rscale>  0 0.14542482E+04</rscale>
<asrwt>0</asrwt>
<pdfrwt beam="1">  1        2 0.43861029E-01 0.14542482E+04</pdfrwt>
<pdfrwt beam="2">  1       -1 0.28530641E+00 0.14542482E+04</pdfrwt>
<totfact> 0.53184109E+00</totfact>
</mgrwt>
</event>
<event>
12    7  0.1701638E-007  0.3333351E+04  0.7818608E-02  0.8154461E-01
          2   -1    0    0  501    0  0.00000000000E+00  0.00000000000E+00  0.40227006957E+04  0.40227006957E+04  0.00000000000E+00 0. -1.
         -3   -1    0    0    0  501 -0.00000000000E+00 -0.00000000000E+00 -0.69053286002E+03  0.69053286002E+03  0.00000000000E+00 0.  1.
         24    2    1    2    0    0 -0.17062649026E+03 -0.12536460495E+03  0.37078701458E+04  0.37150971570E+04  0.93894540382E+02 0.  0.
        254    2    1    2    0    0  0.17062649026E+03  0.12536460495E+03 -0.37570231013E+03  0.99813639868E+03  0.90016351913E+03 0.  0.
         23    2    4    4    0    0  0.55410511001E+02 -0.14137519578E+03  0.24732749652E+03  0.30459313062E+03  0.92459796539E+02 0.  0.
         23    2    4    4    0    0  0.11521597926E+03  0.26673980073E+03 -0.62302980665E+03  0.69354326806E+03  0.91713039042E+02 0.  0.
          4    1    3    3  502    0 -0.14118360730E+03 -0.10411283146E+03  0.34738823911E+04  0.34783086637E+04  0.00000000000E+00 0. -1.
         -3    1    3    3    0  502 -0.29442882954E+02 -0.21251773488E+02  0.23398775465E+03  0.23678849330E+03  0.00000000000E+00 0.  1.
         13    1    5    5    0    0 -0.22502370511E+02 -0.43122507621E+02  0.43350516674E+02  0.65155004705E+02  0.00000000000E+00 0.  1.
        -13    1    5    5    0    0  0.77912881512E+02 -0.98252688160E+02  0.20397697984E+03  0.23943812591E+03  0.00000000000E+00 0. -1.
          3    1    6    6  503    0  0.31605671541E+02  0.17049607707E+03 -0.30389590518E+03  0.34988648438E+03  0.00000000000E+00 0. -1.
         -3    1    6    6    0  503  0.83610307715E+02  0.96243723663E+02 -0.31913390147E+03  0.34365678368E+03  0.00000000000E+00 0.  1.
<mgrwt>
<rscale>  0 0.33333509E+04</rscale>
<asrwt>0</asrwt>
<pdfrwt beam="1">  1        2 0.61887702E+00 0.33333509E+04</pdfrwt>
<pdfrwt beam="2">  1       -3 0.10623583E+00 0.33333509E+04</pdfrwt>
<totfact> 0.13235037E-01</totfact>
</mgrwt>
</event>
<event>
12    7  0.1701638E-007  0.1703031E+04  0.7818608E-02  0.8759638E-01
         -1   -1    0    0    0  501 -0.00000000000E+00  0.00000000000E+00  0.32199985952E+03  0.32199985952E+03  0.00000000000E+00 0.  1.
          2   -1    0    0  501    0  0.00000000000E+00 -0.00000000000E+00 -0.22517982266E+04  0.22517982266E+04  0.00000000000E+00 0. -1.
         24    2    1    2    0    0 -0.59889755693E+03  0.83783251453E+02 -0.76950561834E+03  0.98186078199E+03  0.78827543621E+02 0.  0.
        254    2    1    2    0    0  0.59889755693E+03 -0.83783251453E+02 -0.11602927487E+04  0.15919373041E+04  0.90680052963E+03 0.  0.
         23    2    4    4    0    0  0.27273052194E+03  0.28099055642E+03 -0.98522857939E+03  0.10640189202E+04  0.90129231945E+02 0.  0.
         23    2    4    4    0    0  0.32616703498E+03 -0.36477380787E+03 -0.17506416932E+03  0.52791838392E+03  0.92765786157E+02 0.  0.
          4    1    3    3  502    0 -0.52257233074E+03  0.96137821110E+02 -0.69106285084E+03  0.87171795055E+03  0.00000000000E+00 0. -1.
         -3    1    3    3    0  502 -0.76325226189E+02 -0.12354569657E+02 -0.78442767502E+02  0.11014283144E+03  0.00000000000E+00 0.  1.
         13    1    5    5    0    0  0.23079586287E+03  0.23375292846E+03 -0.72036984395E+03  0.79173219838E+03  0.00000000000E+00 0. -1.
        -13    1    5    5    0    0  0.41934659073E+02  0.47237627952E+02 -0.26485873543E+03  0.27228672179E+03  0.00000000000E+00 0.  1.
          4    1    6    6  503    0  0.11821908146E+03 -0.83766560445E+02 -0.23028691069E+02  0.14670687947E+03  0.00000000000E+00 0. -1.
         -4    1    6    6    0  503  0.20794795352E+03 -0.28100724742E+03 -0.15203547825E+03  0.38121150445E+03  0.00000000000E+00 0.  1.
<mgrwt>
<rscale>  0 0.17030311E+04</rscale>
<asrwt>0</asrwt>
<pdfrwt beam="1">  1        2 0.34643050E+00 0.17030311E+04</pdfrwt>
<pdfrwt beam="2">  1       -1 0.49538440E-01 0.17030311E+04</pdfrwt>
<totfact> 0.21382219E+01</totfact>
</mgrwt>
</event>
<event>
12    7  0.1701638E-007  0.1890026E+04  0.7818608E-02  0.8659837E-01
         -1   -1    0    0    0  501 -0.00000000000E+00  0.00000000000E+00  0.52095330418E+03  0.52095330418E+03  0.00000000000E+00 0.  1.
          2   -1    0    0  501    0  0.00000000000E+00 -0.00000000000E+00 -0.17142597051E+04  0.17142597051E+04  0.00000000000E+00 0. -1.
         24    2    1    2    0    0  0.48130964558E+03 -0.18617636044E+03  0.14385511747E+03  0.54166781150E+03  0.79931915286E+02 0.  0.
        254    2    1    2    0    0 -0.48130964558E+03  0.18617636044E+03 -0.13371615184E+04  0.16935451978E+04  0.90209411847E+03 0.  0.
         23    2    4    4    0    0  0.16129217436E+03 -0.67731935225E+02 -0.12502370801E+02  0.19679782790E+03  0.89276509979E+02 0.  0.
         23    2    4    4    0    0 -0.64260181993E+03  0.25390829566E+03 -0.13246591476E+04  0.14967473699E+04  0.90134956441E+02 0.  0.
          4    1    3    3  502    0  0.29277223861E+02  0.13428500578E+01  0.23847197314E+02  0.37784228231E+02  0.00000000000E+00 0. -1.
         -3    1    3    3    0  502  0.45203242172E+03 -0.18751921049E+03  0.12000792015E+03  0.50388358327E+03  0.00000000000E+00 0.  1.
         13    1    5    5    0    0  0.15571114321E+03 -0.33227179924E+02 -0.21612214955E+02  0.16067698478E+03  0.00000000000E+00 0. -1.
        -13    1    5    5    0    0  0.55810311495E+01 -0.34504755301E+02  0.91098441546E+01  0.36120843118E+02  0.00000000000E+00 0.  1.
          2    1    6    6  503    0 -0.52124030159E+03  0.23005380095E+03 -0.11407221454E+04  0.12750934147E+04  0.00000000000E+00 0. -1.
         -2    1    6    6    0  503 -0.12136151835E+03  0.23854494711E+02 -0.18393700223E+03  0.22165395517E+03  0.00000000000E+00 0.  1.
<mgrwt>
<rscale>  0 0.18900257E+04</rscale>
<asrwt>0</asrwt>
<pdfrwt beam="1">  1        2 0.26373226E+00 0.18900257E+04</pdfrwt>
<pdfrwt beam="2">  1       -1 0.80146662E-01 0.18900257E+04</pdfrwt>
<totfact> 0.15973040E+01</totfact>
</mgrwt>
</event>
<event>
12    7  0.1701638E-007  0.2513156E+04  0.7818608E-02  0.8398314E-01
         -1   -1    0    0    0  501 -0.00000000000E+00  0.00000000000E+00  0.74381729667E+03  0.74381729667E+03  0.00000000000E+00 0.  1.
          2   -1    0    0  501    0  0.00000000000E+00 -0.00000000000E+00 -0.21228175435E+04  0.21228175435E+04  0.00000000000E+00 0. -1.
         24    2    1    2    0    0  0.83913725525E+03  0.44450501449E+03 -0.12187676386E+04  0.15470930395E+04  0.79788939331E+02 0.  0.
        254    2    1    2    0    0 -0.83913725525E+03 -0.44450501449E+03 -0.16023260826E+03  0.13195418007E+04  0.90209757456E+03 0.  0.
         23    2    4    4    0    0 -0.79875027312E+03 -0.32402456215E+03  0.23190108407E+03  0.89759097708E+03  0.94326738827E+02 0.  0.
         23    2    4    4    0    0 -0.40386982128E+02 -0.12048045234E+03 -0.39213369233E+03  0.42195082363E+03  0.90149970518E+02 0.  0.
          2    1    3    3  502    0  0.56025554700E+03  0.31097554642E+03 -0.87795522774E+03  0.10869210874E+04  0.00000000000E+00 0. -1.
         -1    1    3    3    0  502  0.27888170824E+03  0.13352946807E+03 -0.34081241084E+03  0.46017195201E+03  0.00000000000E+00 0.  1.
         13    1    5    5    0    0 -0.29301575297E+03 -0.11172674559E+03  0.13121654839E+03  0.33993952365E+03  0.00000000000E+00 0. -1.
        -13    1    5    5    0    0 -0.50573452014E+03 -0.21229781656E+03  0.10068453568E+03  0.55765145343E+03  0.00000000000E+00 0.  1.
          3    1    6    6  503    0 -0.64615246735E+02 -0.98674662832E+02 -0.34531166357E+03  0.36489993723E+03  0.00000000000E+00 0. -1.
         -3    1    6    6    0  503  0.24228264607E+02 -0.21805789507E+02 -0.46822028757E+02  0.57050886399E+02  0.00000000000E+00 0.  1.
<mgrwt>
<rscale>  0 0.25131561E+04</rscale>
<asrwt>0</asrwt>
<pdfrwt beam="1">  1        2 0.32658731E+00 0.25131561E+04</pdfrwt>
<pdfrwt beam="2">  1       -1 0.11443343E+00 0.25131561E+04</pdfrwt>
<totfact> 0.40164623E+00</totfact>
</mgrwt>
</event>
<event>
12    7  0.1701638E-007  0.1237161E+04  0.7818608E-02  0.9080938E-01
          2   -1    0    0  501    0  0.00000000000E+00  0.00000000000E+00  0.10616031371E+04  0.10616031371E+04  0.00000000000E+00 0. -1.
         -1   -1    0    0    0  501 -0.00000000000E+00 -0.00000000000E+00 -0.36043754971E+03  0.36043754971E+03  0.00000000000E+00 0.  1.
         24    2    1    2    0    0  0.22436348140E+03 -0.17643434442E+03  0.23483105110E+03  0.37821799964E+03  0.80219592471E+02 0.  0.
        254    2    1    2    0    0 -0.22436348140E+03  0.17643434442E+03  0.46633453625E+03  0.10438226871E+04  0.88917369101E+03 0.  0.
         23    2    4    4    0    0 -0.56137955628E+02 -0.71222689098E+02 -0.23877628462E+03  0.27149067206E+03  0.92026786389E+02 0.  0.
         23    2    4    4    0    0 -0.16822552577E+03  0.24765703352E+03  0.70511082086E+03  0.77233201507E+03  0.98395315054E+02 0.  0.
          4    1    3    3  502    0  0.20866334350E+03 -0.12778880421E+03  0.20362232855E+03  0.31832753900E+03  0.00000000000E+00 0. -1.
         -3    1    3    3    0  502  0.15700137898E+02 -0.48645540216E+02  0.31208722549E+02  0.59890460644E+02  0.00000000000E+00 0.  1.
         13    1    5    5    0    0  0.12937604729E+02  0.14062456258E+02 -0.28804962178E+02  0.34566749026E+02  0.00000000000E+00 0. -1.
        -13    1    5    5    0    0 -0.69075560357E+02 -0.85285145356E+02 -0.20997132244E+03  0.23692392303E+03  0.00000000000E+00 0.  1.
          3    1    6    6  503    0 -0.39995251105E+02  0.99053285374E+02  0.15493015990E+03  0.18818748072E+03  0.00000000000E+00 0. -1.
         -3    1    6    6    0  503 -0.12823027466E+03  0.14860374815E+03  0.55018066097E+03  0.58414453435E+03  0.00000000000E+00 0.  1.
<mgrwt>
<rscale>  0 0.12371607E+04</rscale>
<asrwt>0</asrwt>
<pdfrwt beam="1">  1        2 0.16332356E+00 0.12371607E+04</pdfrwt>
<pdfrwt beam="2">  1       -1 0.55451931E-01 0.12371607E+04</pdfrwt>
<totfact> 0.84965724E+01</totfact>
</mgrwt>
</event>
<event>
12    7  0.1701638E-007  0.2109361E+04  0.7818608E-02  0.8557131E-01
         -1   -1    0    0    0  501 -0.00000000000E+00  0.00000000000E+00  0.75189052661E+03  0.75189052661E+03  0.00000000000E+00 0.  1.
          2   -1    0    0  501    0  0.00000000000E+00 -0.00000000000E+00 -0.14794060181E+04  0.14794060181E+04  0.00000000000E+00 0. -1.
         24    2    1    2    0    0  0.41184960496E+03  0.20394961695E+03  0.43876543781E+03  0.64038657942E+03  0.79776677844E+02 0.  0.
        254    2    1    2    0    0 -0.41184960496E+03 -0.20394961695E+03 -0.11662809293E+04  0.15909099653E+04  0.97957529997E+03 0.  0.
         23    2    4    4    0    0 -0.19585542588E+03 -0.43781388327E+03 -0.11608277570E+04  0.12592203836E+04  0.89858494608E+02 0.  0.
         23    2    4    4    0    0 -0.21599417908E+03  0.23386426632E+03 -0.54531723578E+01  0.33168958166E+03  0.92963761974E+02 0.  0.
          2    1    3    3  502    0  0.24092630249E+03  0.12350361053E+03  0.20364190095E+03  0.33877521879E+03  0.00000000000E+00 0. -1.
         -1    1    3    3    0  502  0.17092330247E+03  0.80446006421E+02  0.23512353685E+03  0.30161136062E+03  0.00000000000E+00 0.  1.
         13    1    5    5    0    0 -0.53615317172E+02 -0.10244590614E+03 -0.38756925508E+03  0.40444986513E+03  0.00000000000E+00 0. -1.
        -13    1    5    5    0    0 -0.14224010871E+03 -0.33536797713E+03 -0.77325850188E+03  0.85477051852E+03  0.00000000000E+00 0.  1.
          4    1    6    6  503    0 -0.94409758244E+02  0.62771328099E+02 -0.37390326070E+02  0.11937955674E+03  0.00000000000E+00 0. -1.
         -4    1    6    6    0  503 -0.12158442083E+03  0.17109293822E+03  0.31937153712E+02  0.21231002493E+03  0.00000000000E+00 0.  1.
<mgrwt>
<rscale>  0 0.21093614E+04</rscale>
<asrwt>0</asrwt>
<pdfrwt beam="1">  1        2 0.22760093E+00 0.21093614E+04</pdfrwt>
<pdfrwt beam="2">  1       -1 0.11567546E+00 0.21093614E+04</pdfrwt>
<totfact> 0.92590519E+00</totfact>
</mgrwt>
</event>
<event>
12    7  0.1701638E-007  0.1877983E+04  0.7818608E-02  0.8665894E-01
         -1   -1    0    0    0  501 -0.00000000000E+00  0.00000000000E+00  0.46573503863E+03  0.46573503863E+03  0.00000000000E+00 0.  1.
          2   -1    0    0  501    0  0.00000000000E+00 -0.00000000000E+00 -0.18931468828E+04  0.18931468828E+04  0.00000000000E+00 0. -1.
         24    2    1    2    0    0 -0.57346021409E+03  0.21291364136E+03 -0.12521213150E+03  0.62958245968E+03  0.80666968707E+02 0.  0.
        254    2    1    2    0    0  0.57346021409E+03 -0.21291364136E+03 -0.13021997127E+04  0.17292994617E+04  0.95946010907E+03 0.  0.
         23    2    4    4    0    0  0.71410385769E+03 -0.21960260118E+02 -0.12865756854E+04  0.14745931808E+04  0.93388876171E+02 0.  0.
         23    2    4    4    0    0 -0.14064364360E+03 -0.19095338124E+03 -0.15624027301E+02  0.25470628091E+03  0.91582482033E+02 0.  0.
          4    1    3    3  502    0 -0.11220926412E+03  0.76230568153E+02 -0.35359594785E+02  0.14018673054E+03  0.00000000000E+00 0. -1.
         -3    1    3    3    0  502 -0.46125094997E+03  0.13668307321E+03 -0.89852536718E+02  0.48939572914E+03  0.00000000000E+00 0.  1.
         13    1    5    5    0    0  0.45604235730E+03 -0.55512509412E+02 -0.78594462616E+03  0.91036543527E+03  0.00000000000E+00 0.  1.
        -13    1    5    5    0    0  0.25806150039E+03  0.33552249294E+02 -0.50063105920E+03  0.56422774555E+03  0.00000000000E+00 0. -1.
          4    1    6    6  503    0 -0.13437976831E+02 -0.91802574384E+02 -0.13189544114E+01  0.92790255553E+02  0.00000000000E+00 0. -1.
         -4    1    6    6    0  503 -0.12720566677E+03 -0.99150806859E+02 -0.14305072889E+02  0.16191602536E+03  0.00000000000E+00 0.  1.
<mgrwt>
<rscale>  0 0.18779828E+04</rscale>
<asrwt>0</asrwt>
<pdfrwt beam="1">  1        2 0.29125336E+00 0.18779828E+04</pdfrwt>
<pdfrwt beam="2">  1       -1 0.71651546E-01 0.18779828E+04</pdfrwt>
<totfact> 0.16092453E+01</totfact>
</mgrwt>
</event>
<event>
12    7  0.1701638E-007  0.2528601E+04  0.7818608E-02  0.8392867E-01
          2   -1    0    0  501    0  0.00000000000E+00  0.00000000000E+00  0.18688495359E+04  0.18688495359E+04  0.00000000000E+00 0. -1.
         -1   -1    0    0    0  501 -0.00000000000E+00 -0.00000000000E+00 -0.85531526969E+03  0.85531526969E+03  0.00000000000E+00 0.  1.
         24    2    1    2    0    0  0.62053225241E+03  0.47062558627E+03  0.12826899400E+04  0.15040498837E+04  0.10160635777E+03 0.  0.
        254    2    1    2    0    0 -0.62053225241E+03 -0.47062558627E+03 -0.26915567377E+03  0.12201149218E+04  0.89982605376E+03 0.  0.
         23    2    4    4    0    0 -0.55684821605E+03 -0.35018670647E+03  0.22223252947E+03  0.70035298099E+03  0.91631521491E+02 0.  0.
         23    2    4    4    0    0 -0.63684036369E+02 -0.12043887980E+03 -0.49138820324E+03  0.51976194084E+03  0.10064257853E+03 0.  0.
          2    1    3    3  502    0  0.56518586306E+03  0.45660928965E+03  0.11607211302E+04  0.13693796571E+04  0.00000000000E+00 0. -1.
         -1    1    3    3    0  502  0.55346389354E+02  0.14016296621E+02  0.12196880977E+03  0.13467022663E+03  0.00000000000E+00 0.  1.
         13    1    5    5    0    0 -0.17018682041E+03 -0.15847579664E+03  0.81159134457E+02  0.24630253159E+03  0.00000000000E+00 0. -1.
        -13    1    5    5    0    0 -0.38666139564E+03 -0.19171090983E+03  0.14107339501E+03  0.45405044941E+03  0.00000000000E+00 0.  1.
          3    1    6    6  503    0  0.11994568608E+02  0.24376905838E+01 -0.13075089627E+03  0.13132253762E+03  0.00000000000E+00 0. -1.
         -3    1    6    6    0  503 -0.75678604977E+02 -0.12287657038E+03 -0.36063730697E+03  0.38843940322E+03  0.00000000000E+00 0.  1.
<mgrwt>
<rscale>  0 0.25286008E+04</rscale>
<asrwt>0</asrwt>
<pdfrwt beam="1">  1        2 0.28751531E+00 0.25286008E+04</pdfrwt>
<pdfrwt beam="2">  1       -1 0.13158697E+00 0.25286008E+04</pdfrwt>
<totfact> 0.39351902E+00</totfact>
</mgrwt>
</event>
<event>
12    7  0.1701638E-007  0.2291841E+04  0.7818608E-02  0.8481145E-01
          2   -1    0    0  501    0  0.00000000000E+00  0.00000000000E+00  0.14158996066E+04  0.14158996066E+04  0.00000000000E+00 0. -1.
         -1   -1    0    0    0  501 -0.00000000000E+00 -0.00000000000E+00 -0.92741977221E+03  0.92741977221E+03  0.00000000000E+00 0.  1.
         24    2    1    2    0    0  0.40647341302E+03  0.85850185813E+03  0.49163606840E+02  0.95433381451E+03  0.78037768961E+02 0.  0.
        254    2    1    2    0    0 -0.40647341302E+03 -0.85850185813E+03  0.43931622751E+03  0.13889855643E+04  0.91325575500E+03 0.  0.
         23    2    4    4    0    0 -0.45610828908E+03 -0.92276277976E+03  0.11239317563E+03  0.10395660926E+04  0.92409501477E+02 0.  0.
         23    2    4    4    0    0  0.49634876058E+02  0.64260921631E+02  0.32692305187E+03  0.34941947161E+03  0.92855793167E+02 0.  0.
          4    1    3    3  502    0  0.31944155142E+03  0.70629591933E+03  0.12853991333E+02  0.77528192003E+03  0.00000000000E+00 0. -1.
         -3    1    3    3    0  502  0.87031861603E+02  0.15220593880E+03  0.36309615506E+02  0.17905189449E+03  0.00000000000E+00 0.  1.
         13    1    5    5    0    0 -0.32148895849E+03 -0.58275092877E+03  0.10514842352E+03  0.67380263162E+03  0.00000000000E+00 0.  1.
        -13    1    5    5    0    0 -0.13461933059E+03 -0.34001185099E+03  0.72447521091E+01  0.36576346102E+03  0.00000000000E+00 0. -1.
          4    1    6    6  503    0  0.57257951341E+01  0.61105162384E+02  0.27297575966E+03  0.27978990504E+03  0.00000000000E+00 0. -1.
         -4    1    6    6    0  503  0.43909080924E+02  0.31557592475E+01  0.53947292219E+02  0.69629566577E+02  0.00000000000E+00 0.  1.
<mgrwt>
<rscale>  0 0.22918406E+04</rscale>
<asrwt>0</asrwt>
<pdfrwt beam="1">  1        2 0.21783071E+00 0.22918406E+04</pdfrwt>
<pdfrwt beam="2">  1       -1 0.14267997E+00 0.22918406E+04</pdfrwt>
<totfact> 0.58412214E+00</totfact>
</mgrwt>
</event>
<event>
12    7  0.1701638E-007  0.2547953E+04  0.7818608E-02  0.8386098E-01
          2   -1    0    0  501    0  0.00000000000E+00  0.00000000000E+00  0.22580023216E+04  0.22580023216E+04  0.00000000000E+00 0. -1.
         -1   -1    0    0    0  501 -0.00000000000E+00 -0.00000000000E+00 -0.71878422530E+03  0.71878422530E+03  0.00000000000E+00 0.  1.
         24    2    1    2    0    0 -0.81511624837E+03  0.75403917761E+03  0.80378765665E+03  0.13732482326E+04  0.82137273259E+02 0.  0.
        254    2    1    2    0    0  0.81511624837E+03 -0.75403917761E+03  0.73543043964E+03  0.16035383143E+04  0.89302162017E+03 0.  0.
         23    2    4    4    0    0  0.85273362654E+02  0.18635477648E+03  0.58145313286E+02  0.23094774006E+03  0.89198274003E+02 0.  0.
         23    2    4    4    0    0  0.72984288572E+03 -0.94039395410E+03  0.67728512636E+03  0.13725905742E+04  0.90985247912E+02 0.  0.
          4    1    3    3  502    0 -0.52323903000E+03  0.51936921478E+03  0.49699699173E+03  0.88911724399E+03  0.00000000000E+00 0. -1.
         -3    1    3    3    0  502 -0.29187721837E+03  0.23466996283E+03  0.30679066493E+03  0.48413098863E+03  0.00000000000E+00 0.  1.
         13    1    5    5    0    0  0.63655575211E+02  0.39164023228E+02  0.19418371848E+02  0.77219985341E+02  0.00000000000E+00 0. -1.
        -13    1    5    5    0    0  0.21617787442E+02  0.14719075325E+03  0.38726941438E+02  0.15372775472E+03  0.00000000000E+00 0.  1.
          3    1    6    6  503    0  0.10537464783E+00 -0.49638060206E+01  0.10594422763E+02  0.11700096910E+02  0.00000000000E+00 0. -1.
         -3    1    6    6    0  503  0.72973751107E+03 -0.93543014808E+03  0.66669070359E+03  0.13608904773E+04  0.00000000000E+00 0.  1.
<mgrwt>
<rscale>  0 0.25479533E+04</rscale>
<asrwt>0</asrwt>
<pdfrwt beam="1">  1        2 0.34738497E+00 0.25479533E+04</pdfrwt>
<pdfrwt beam="2">  1       -1 0.11058219E+00 0.25479533E+04</pdfrwt>
<totfact> 0.36466921E+00</totfact>
</mgrwt>
</event>
<event>
12    7  0.1915575E-007  0.1797710E+04  0.7818608E-02  0.8707518E-01
         -1   -1    0    0    0  501 -0.00000000000E+00  0.00000000000E+00  0.61512183211E+03  0.61512183211E+03  0.00000000000E+00 0.  1.
          2   -1    0    0  501    0  0.00000000000E+00 -0.00000000000E+00 -0.13134642575E+04  0.13134642575E+04  0.00000000000E+00 0. -1.
         24    2    1    2    0    0 -0.55767329127E+02 -0.33023911528E+03 -0.86522856249E+03  0.93135427755E+03  0.81439896283E+02 0.  0.
        254    2    1    2    0    0  0.55767329127E+02  0.33023911528E+03  0.16688613711E+03  0.99723181205E+03  0.92436596430E+03 0.  0.
         23    2    4    4    0    0  0.39188015282E+03  0.28500087299E+03 -0.15950648191E+03  0.51849638195E+03  0.92739573797E+02 0.  0.
         23    2    4    4    0    0 -0.33611282369E+03  0.45238242288E+02  0.32639261902E+03  0.47873543010E+03  0.87390740188E+02 0.  0.
          2    1    3    3  502    0 -0.71152281610E+02 -0.30868624682E+03 -0.77277729657E+03  0.83518536640E+03  0.00000000000E+00 0. -1.
         -1    1    3    3    0  502  0.15384952483E+02 -0.21552868451E+02 -0.92451265919E+02  0.96168911148E+02  0.00000000000E+00 0.  1.
         13    1    5    5    0    0  0.32397045630E+03  0.25183173208E+03 -0.16599683878E+03  0.44264097000E+03  0.00000000000E+00 0. -1.
        -13    1    5    5    0    0  0.67909696518E+02  0.33169140902E+02  0.64903568700E+01  0.75855411947E+02  0.00000000000E+00 0.  1.
          2    1    6    6  503    0 -0.17031137803E+03 -0.75439454596E+01  0.20475236507E+03  0.26643274499E+03  0.00000000000E+00 0. -1.
         -2    1    6    6    0  503 -0.16580144566E+03  0.52782187748E+02  0.12164025395E+03  0.21230268511E+03  0.00000000000E+00 0.  1.
<mgrwt>
<rscale>  0 0.17977103E+04</rscale>
<asrwt>0</asrwt>
<pdfrwt beam="1">  1        2 0.20207142E+00 0.17977103E+04</pdfrwt>
<pdfrwt beam="2">  1       -1 0.94634129E-01 0.17977103E+04</pdfrwt>
<totfact> 0.18876008E+01</totfact>
</mgrwt>
</event>
<event>
12    7  0.1701638E-007  0.1912855E+04  0.7818608E-02  0.8648484E-01
          2   -1    0    0  501    0  0.00000000000E+00  0.00000000000E+00  0.71904782162E+03  0.71904782162E+03  0.00000000000E+00 0. -1.
         -1   -1    0    0    0  501 -0.00000000000E+00 -0.00000000000E+00 -0.12721730712E+04  0.12721730712E+04  0.00000000000E+00 0.  1.
         24    2    1    2    0    0  0.53359041827E+03  0.47692755344E+02  0.31625046022E+03  0.62727188376E+03  0.80388613538E+02 0.  0.
        254    2    1    2    0    0 -0.53359041827E+03 -0.47692755344E+02 -0.86937570975E+03  0.13639490090E+04  0.90418440658E+03 0.  0.
         23    2    4    4    0    0 -0.64948374544E+03 -0.31125851044E+03 -0.73659795053E+03  0.10340498003E+04  0.89282992727E+02 0.  0.
         23    2    4    4    0    0  0.11589332717E+03  0.26356575510E+03 -0.13277775922E+03  0.32989920875E+03  0.91133879803E+02 0.  0.
          2    1    3    3  502    0  0.36563665045E+03 -0.41363804974E+01  0.22307607911E+03  0.42833422331E+03  0.00000000000E+00 0. -1.
         -1    1    3    3    0  502  0.16795376782E+03  0.51829135841E+02  0.93174381118E+02  0.19893766045E+03  0.00000000000E+00 0.  1.
         13    1    5    5    0    0 -0.12755299791E+03 -0.87925433563E+02 -0.19898788399E+03  0.25218411354E+03  0.00000000000E+00 0.  1.
        -13    1    5    5    0    0 -0.52193074753E+03 -0.22333307688E+03 -0.53761006654E+03  0.78186568673E+03  0.00000000000E+00 0. -1.
          4    1    6    6  503    0  0.10291727531E+03  0.12967926817E+03 -0.91688133675E+02  0.18924954956E+03  0.00000000000E+00 0. -1.
         -4    1    6    6    0  503  0.12976051854E+02  0.13388648692E+03 -0.41089625545E+02  0.14064965919E+03  0.00000000000E+00 0.  1.
<mgrwt>
<rscale>  0 0.19128547E+04</rscale>
<asrwt>0</asrwt>
<pdfrwt beam="1">  1        2 0.11062274E+00 0.19128547E+04</pdfrwt>
<pdfrwt beam="2">  1       -1 0.19571893E+00 0.19128547E+04</pdfrwt>
<totfact> 0.68143910E+00</totfact>
</mgrwt>
</event>
<event>
12    7  0.1701638E-007  0.1735939E+04  0.7818608E-02  0.8741128E-01
         -3   -1    0    0    0  501 -0.00000000000E+00  0.00000000000E+00  0.35539118461E+03  0.35539118461E+03  0.00000000000E+00 0.  1.
          4   -1    0    0  501    0  0.00000000000E+00 -0.00000000000E+00 -0.21198358936E+04  0.21198358936E+04  0.00000000000E+00 0. -1.
         24    2    1    2    0    0  0.55174559759E+03 -0.73437227973E+02 -0.10823340956E+04  0.12192109512E+04  0.72194307940E+02 0.  0.
        254    2    1    2    0    0 -0.55174559759E+03  0.73437227973E+02 -0.68211061347E+03  0.12560161271E+04  0.89581548971E+03 0.  0.
         23    2    4    4    0    0 -0.68399699931E+03  0.28488302490E+03 -0.33238816477E+03  0.81708597110E+03  0.90207312072E+02 0.  0.
         23    2    4    4    0    0  0.13225140172E+03 -0.21144579693E+03 -0.34972244870E+03  0.43893015600E+03  0.90300234891E+02 0.  0.
          4    1    3    3  502    0  0.24020203486E+03 -0.29262534718E+02 -0.54919944125E+03  0.60014443241E+03  0.00000000000E+00 0. -1.
         -3    1    3    3    0  502  0.31154356273E+03 -0.44174693255E+02 -0.53313465431E+03  0.61906651874E+03  0.00000000000E+00 0.  1.
         13    1    5    5    0    0 -0.61286967572E+03  0.27185889843E+03 -0.32287247530E+03  0.74415262909E+03  0.00000000000E+00 0.  1.
        -13    1    5    5    0    0 -0.71127323590E+02  0.13024126473E+02 -0.95156894726E+01  0.72933342016E+02  0.00000000000E+00 0. -1.
          2    1    6    6  503    0  0.68796465148E+02 -0.71904930002E+02 -0.20610649331E+03  0.22887367511E+03  0.00000000000E+00 0. -1.
         -2    1    6    6    0  503  0.63454936574E+02 -0.13954086692E+03 -0.14361595539E+03  0.21005648088E+03  0.00000000000E+00 0.  1.
<mgrwt>
<rscale>  0 0.17359389E+04</rscale>
<asrwt>0</asrwt>
<pdfrwt beam="1">  1        4 0.32612861E+00 0.17359389E+04</pdfrwt>
<pdfrwt beam="2">  1       -3 0.54675565E-01 0.17359389E+04</pdfrwt>
<totfact> 0.15184033E-01</totfact>
</mgrwt>
</event>
<event>
12    7  0.1701638E-007  0.1607813E+04  0.7818608E-02  0.8815762E-01
          2   -1    0    0  501    0  0.00000000000E+00  0.00000000000E+00  0.11254585310E+04  0.11254585310E+04  0.00000000000E+00 0. -1.
         -1   -1    0    0    0  501 -0.00000000000E+00 -0.00000000000E+00 -0.57422449553E+03  0.57422449553E+03  0.00000000000E+00 0.  1.
         24    2    1    2    0    0  0.33250296946E+03 -0.39336099569E+03 -0.12984139766E+02  0.52141165147E+03  0.80065128309E+02 0.  0.
        254    2    1    2    0    0 -0.33250296946E+03  0.39336099569E+03  0.56421817524E+03  0.11782713751E+04  0.89704525325E+03 0.  0.
         23    2    4    4    0    0  0.61587157081E+02  0.52660786013E+03  0.98483804742E+02  0.54702341726E+03  0.91797292819E+02 0.  0.
         23    2    4    4    0    0 -0.39409012654E+03 -0.13324686444E+03  0.46573437050E+03  0.63124795780E+03  0.92215647463E+02 0.  0.
          4    1    3    3  502    0  0.31465693165E+02 -0.53156166250E+02  0.22535450654E+02  0.65753436358E+02  0.00000000000E+00 0. -1.
         -3    1    3    3    0  502  0.30103727629E+03 -0.34020482944E+03 -0.35519590419E+02  0.45565821511E+03  0.00000000000E+00 0.  1.
         13    1    5    5    0    0  0.74075735282E+02  0.48835476753E+03  0.72778450600E+02  0.49927376898E+03  0.00000000000E+00 0. -1.
        -13    1    5    5    0    0 -0.12488578201E+02  0.38253092606E+02  0.25705354142E+02  0.47749648281E+02  0.00000000000E+00 0.  1.
          2    1    6    6  503    0 -0.12254230708E+03 -0.54925641631E+02  0.21470553224E+03  0.25324278609E+03  0.00000000000E+00 0. -1.
         -2    1    6    6    0  503 -0.27154781946E+03 -0.78321222811E+02  0.25102883826E+03  0.37800517170E+03  0.00000000000E+00 0.  1.
<mgrwt>
<rscale>  0 0.16078132E+04</rscale>
<asrwt>0</asrwt>
<pdfrwt beam="1">  1        2 0.17314747E+00 0.16078132E+04</pdfrwt>
<pdfrwt beam="2">  1       -1 0.88342230E-01 0.16078132E+04</pdfrwt>
<totfact> 0.28910503E+01</totfact>
</mgrwt>
</event>
<event>
12    7  0.1701638E-007  0.2290939E+04  0.7818608E-02  0.8481502E-01
          2   -1    0    0  501    0  0.00000000000E+00  0.00000000000E+00  0.10603983339E+04  0.10603983339E+04  0.00000000000E+00 0. -1.
         -1   -1    0    0    0  501 -0.00000000000E+00 -0.00000000000E+00 -0.12373658528E+04  0.12373658528E+04  0.00000000000E+00 0.  1.
         24    2    1    2    0    0  0.10572963904E+03  0.81618965039E+02  0.89069957303E+03  0.90428813336E+03  0.80937548281E+02 0.  0.
        254    2    1    2    0    0 -0.10572963904E+03 -0.81618965039E+02 -0.10676670919E+04  0.13934760533E+04  0.88545021325E+03 0.  0.
         23    2    4    4    0    0 -0.66452690038E+02 -0.64386482532E+02  0.13506233606E+03  0.18653030849E+03  0.89387595449E+02 0.  0.
         23    2    4    4    0    0 -0.39276949000E+02 -0.17232482507E+02 -0.12027294279E+04  0.12069457448E+04  0.91215771880E+02 0.  0.
          2    1    3    3  502    0  0.10375222888E+03  0.78931098901E+02  0.61949111590E+03  0.63305914894E+03  0.00000000000E+00 0. -1.
         -1    1    3    3    0  502  0.19774101556E+01  0.26878661386E+01  0.27120845713E+03  0.27122898443E+03  0.00000000000E+00 0.  1.
         13    1    5    5    0    0  0.19556665521E+02 -0.61172031826E+01  0.70576111805E+01  0.21672406803E+02  0.00000000000E+00 0. -1.
        -13    1    5    5    0    0 -0.86009355559E+02 -0.58269279350E+02  0.12800472488E+03  0.16485790169E+03  0.00000000000E+00 0.  1.
          1    1    6    6  503    0  0.70981550389E+01  0.33015185459E+00 -0.63220425441E+01  0.95111002062E+01  0.00000000000E+00 0. -1.
         -1    1    6    6    0  503 -0.46375104039E+02 -0.17562634362E+02 -0.11964073854E+04  0.11974346446E+04  0.00000000000E+00 0.  1.
<mgrwt>
<rscale>  0 0.22909393E+04</rscale>
<asrwt>0</asrwt>
<pdfrwt beam="1">  1        2 0.16313821E+00 0.22909393E+04</pdfrwt>
<pdfrwt beam="2">  1       -1 0.19036398E+00 0.22909393E+04</pdfrwt>
<totfact> 0.41902489E+00</totfact>
</mgrwt>
</event>
<event>
12    7  0.1701638E-007  0.2463996E+04  0.7818608E-02  0.8415925E-01
          2   -1    0    0  501    0  0.00000000000E+00  0.00000000000E+00  0.25955260758E+04  0.25955260758E+04  0.00000000000E+00 0. -1.
         -1   -1    0    0    0  501 -0.00000000000E+00 -0.00000000000E+00 -0.58478295826E+03  0.58478295826E+03  0.00000000000E+00 0.  1.
         24    2    1    2    0    0 -0.22021082521E+03  0.40781135794E+02  0.22174062198E+04  0.22300638772E+04  0.78349501531E+02 0.  0.
        254    2    1    2    0    0  0.22021082521E+03 -0.40781135794E+02 -0.20666310223E+03  0.95024515685E+03  0.90005572700E+03 0.  0.
         23    2    4    4    0    0  0.43128489068E+02 -0.28063452620E+03  0.25497014582E+03  0.39312357858E+03  0.94448763387E+02 0.  0.
         23    2    4    4    0    0  0.17708233614E+03  0.23985339041E+03 -0.46163324805E+03  0.55712157827E+03  0.91604555596E+02 0.  0.
          2    1    3    3  502    0 -0.21861253407E+03  0.40096191330E+02  0.22172007744E+04  0.22283129086E+04  0.00000000000E+00 0. -1.
         -1    1    3    3    0  502 -0.15982911347E+01  0.68494446444E+00  0.20544542816E+00  0.17509686732E+01  0.00000000000E+00 0.  1.
         13    1    5    5    0    0 -0.20056669849E+02 -0.13824685848E+03  0.15171474523E+03  0.20623246060E+03  0.00000000000E+00 0.  1.
        -13    1    5    5    0    0  0.63185158917E+02 -0.14238766772E+03  0.10325540060E+03  0.18689111798E+03  0.00000000000E+00 0. -1.
          3    1    6    6  503    0  0.16477735777E+02  0.91459194956E+02 -0.12670187116E+03  0.15712945069E+03  0.00000000000E+00 0. -1.
         -3    1    6    6    0  503  0.16060460036E+03  0.14839419545E+03 -0.33493137688E+03  0.39999212758E+03  0.00000000000E+00 0.  1.
<mgrwt>
<rscale>  0 0.24639963E+04</rscale>
<asrwt>0</asrwt>
<pdfrwt beam="1">  1        2 0.39931170E+00 0.24639963E+04</pdfrwt>
<pdfrwt beam="2">  1       -1 0.89966610E-01 0.24639963E+04</pdfrwt>
<totfact> 0.37654490E+00</totfact>
</mgrwt>
</event>
<event>
12    7  0.1701638E-007  0.1387769E+04  0.7818608E-02  0.8962720E-01
          2   -1    0    0  501    0  0.00000000000E+00  0.00000000000E+00  0.35756315756E+04  0.35756315756E+04  0.00000000000E+00 0. -1.
         -1   -1    0    0    0  501 -0.00000000000E+00 -0.00000000000E+00 -0.13465477497E+03  0.13465477497E+03  0.00000000000E+00 0.  1.
         24    2    1    2    0    0  0.12069167740E+03  0.34126212870E+03  0.52891200666E+03  0.64561608687E+03  0.77755381575E+02 0.  0.
        254    2    1    2    0    0 -0.12069167740E+03 -0.34126212870E+03  0.29120647939E+04  0.30646702637E+04  0.88377380558E+03 0.  0.
         23    2    4    4    0    0  0.18440102437E+03  0.19064395687E+03  0.14508043490E+04  0.14773820936E+04  0.86462335347E+02 0.  0.
         23    2    4    4    0    0 -0.30509270177E+03 -0.53190608556E+03  0.14612604449E+04  0.15872881700E+04  0.90531796921E+02 0.  0.
          2    1    3    3  502    0  0.45720596183E+02  0.52776186580E+02  0.73933763589E+02  0.10169513353E+03  0.00000000000E+00 0. -1.
         -1    1    3    3    0  502  0.74971081220E+02  0.28848594212E+03  0.45497824307E+03  0.54392095334E+03  0.00000000000E+00 0.  1.
         13    1    5    5    0    0  0.17633259010E+03  0.15697415330E+03  0.13571981701E+04  0.13775779252E+04  0.00000000000E+00 0.  1.
        -13    1    5    5    0    0  0.80684342638E+01  0.33669803569E+02  0.93606178878E+02  0.99804168389E+02  0.00000000000E+00 0. -1.
          1    1    6    6  503    0 -0.47388430155E+02 -0.33125212117E+02  0.15795110040E+03  0.16820075240E+03  0.00000000000E+00 0. -1.
         -1    1    6    6    0  503 -0.25770427161E+03 -0.49878087345E+03  0.13033093445E+04  0.14190874176E+04  0.00000000000E+00 0.  1.
<mgrwt>
<rscale>  0 0.13877692E+04</rscale>
<asrwt>0</asrwt>
<pdfrwt beam="1">  1        2 0.55009709E+00 0.13877692E+04</pdfrwt>
<pdfrwt beam="2">  1       -1 0.20716122E-01 0.13877692E+04</pdfrwt>
<totfact> 0.15670855E+01</totfact>
</mgrwt>
</event>
<event>
12    7  0.1701638E-007  0.2502329E+04  0.7818608E-02  0.8402156E-01
         -1   -1    0    0    0  501 -0.00000000000E+00  0.00000000000E+00  0.10391145196E+04  0.10391145196E+04  0.00000000000E+00 0.  1.
          2   -1    0    0  501    0  0.00000000000E+00 -0.00000000000E+00 -0.15064866124E+04  0.15064866124E+04  0.00000000000E+00 0. -1.
         24    2    1    2    0    0  0.69761226070E+03 -0.47084015070E+03 -0.90301291658E+03  0.12369672519E+04  0.79387284950E+02 0.  0.
        254    2    1    2    0    0 -0.69761226070E+03  0.47084015070E+03  0.43564082375E+03  0.13086338801E+04  0.90243359371E+03 0.  0.
         23    2    4    4    0    0 -0.89137595422E+03  0.46582298604E+03  0.41889483408E+03  0.10933257270E+04  0.91357086299E+02 0.  0.
         23    2    4    4    0    0  0.19376369352E+03  0.50171646553E+01  0.16745989672E+02  0.21530815310E+03  0.92236824293E+02 0.  0.
          2    1    3    3  502    0  0.39750465739E+03 -0.30218133265E+03 -0.49453392637E+03  0.70277116815E+03  0.00000000000E+00 0. -1.
         -1    1    3    3    0  502  0.30010760331E+03 -0.16865881805E+03 -0.40847899020E+03  0.53419608376E+03  0.00000000000E+00 0.  1.
         13    1    5    5    0    0 -0.71751750628E+03  0.33283627628E+03  0.33259439638E+03  0.85803868859E+03  0.00000000000E+00 0. -1.
        -13    1    5    5    0    0 -0.17385844794E+03  0.13298670977E+03  0.86300437692E+02  0.23528703841E+03  0.00000000000E+00 0.  1.
          3    1    6    6  503    0  0.17930106903E+03 -0.56949049559E+01  0.42052413895E+02  0.18425447298E+03  0.00000000000E+00 0. -1.
         -3    1    6    6    0  503  0.14462624489E+02  0.10712069611E+02 -0.25306424223E+02  0.31053680127E+02  0.00000000000E+00 0.  1.
<mgrwt>
<rscale>  0 0.25023286E+04</rscale>
<asrwt>0</asrwt>
<pdfrwt beam="1">  1        2 0.23176717E+00 0.25023286E+04</pdfrwt>
<pdfrwt beam="2">  1       -1 0.15986377E+00 0.25023286E+04</pdfrwt>
<totfact> 0.37450448E+00</totfact>
</mgrwt>
</event>
<event>
12    7  0.1701638E-007  0.1485839E+04  0.7818608E-02  0.8893925E-01
         -1   -1    0    0    0  501 -0.00000000000E+00  0.00000000000E+00  0.29711767160E+03  0.29711767160E+03  0.00000000000E+00 0.  1.
          2   -1    0    0  501    0  0.00000000000E+00 -0.00000000000E+00 -0.18576120122E+04  0.18576120122E+04  0.00000000000E+00 0. -1.
         24    2    1    2    0    0 -0.66055962941E+02  0.16006316887E+03  0.13443670756E+03  0.23349059735E+03  0.80380485442E+02 0.  0.
        254    2    1    2    0    0  0.66055962941E+02 -0.16006316887E+03 -0.16949310481E+04  0.19212390864E+04  0.88791033388E+03 0.  0.
         23    2    4    4    0    0 -0.32226765727E+03  0.17594355584E+03 -0.61249322972E+03  0.71970761082E+03  0.89546138155E+02 0.  0.
         23    2    4    4    0    0  0.38832362021E+03 -0.33600672471E+03 -0.10824378184E+04  0.12015314756E+04  0.91161960690E+02 0.  0.
          2    1    3    3  502    0 -0.66578391946E+02  0.63027760277E+02  0.82972218169E+02  0.12365100011E+03  0.00000000000E+00 0. -1.
         -1    1    3    3    0  502  0.52242900478E+00  0.97035408596E+02  0.51464489393E+02  0.10983959724E+03  0.00000000000E+00 0.  1.
         13    1    5    5    0    0 -0.11938403125E+03  0.36598698876E+02 -0.27478046430E+03  0.30182166131E+03  0.00000000000E+00 0.  1.
        -13    1    5    5    0    0 -0.20288362602E+03  0.13934485696E+03 -0.33771276542E+03  0.41788594951E+03  0.00000000000E+00 0. -1.
          2    1    6    6  503    0  0.27218278779E+03 -0.21975952623E+03 -0.82519963033E+03  0.89628798342E+03  0.00000000000E+00 0. -1.
         -2    1    6    6    0  503  0.11614083242E+03 -0.11624719848E+03 -0.25723818808E+03  0.30524349218E+03  0.00000000000E+00 0.  1.
<mgrwt>
<rscale>  0 0.14858390E+04</rscale>
<asrwt>0</asrwt>
<pdfrwt beam="1">  1        2 0.28578646E+00 0.14858390E+04</pdfrwt>
<pdfrwt beam="2">  1       -1 0.45710412E-01 0.14858390E+04</pdfrwt>
<totfact> 0.42009835E+01</totfact>
</mgrwt>
</event>
<event>
12    7  0.1701638E-007  0.1885380E+04  0.7818608E-02  0.8662168E-01
          2   -1    0    0  501    0  0.00000000000E+00  0.00000000000E+00  0.44668450850E+03  0.44668450850E+03  0.00000000000E+00 0. -1.
         -1   -1    0    0    0  501 -0.00000000000E+00 -0.00000000000E+00 -0.19894680219E+04  0.19894680219E+04  0.00000000000E+00 0.  1.
         24    2    1    2    0    0  0.16768373112E+03  0.70492919552E+02  0.30755043748E+03  0.36581640508E+03  0.78404625136E+02 0.  0.
        254    2    1    2    0    0 -0.16768373112E+03 -0.70492919552E+02 -0.18503339509E+04  0.20703361253E+04  0.91075180847E+03 0.  0.
         23    2    4    4    0    0 -0.33393249682E+03  0.65597911087E+02 -0.20491280192E+03  0.40844252277E+03  0.94984417898E+02 0.  0.
         23    2    4    4    0    0  0.16624876570E+03 -0.13609083064E+03 -0.16454211490E+04  0.16618936026E+04  0.91215253435E+02 0.  0.
          4    1    3    3  502    0  0.15310476913E+03  0.49156692889E+02  0.20767774557E+03  0.26265471021E+03  0.00000000000E+00 0. -1.
         -3    1    3    3    0  502  0.14578961987E+02  0.21336226663E+02  0.99872691904E+02  0.10316169487E+03  0.00000000000E+00 0.  1.
         13    1    5    5    0    0 -0.31112840743E+03  0.75406362824E+02 -0.21031210353E+03  0.38303810040E+03  0.00000000000E+00 0. -1.
        -13    1    5    5    0    0 -0.22804089392E+02 -0.98084517372E+01  0.53993016038E+01  0.25404422376E+02  0.00000000000E+00 0.  1.
          1    1    6    6  503    0  0.82415431428E+02 -0.55814399667E+02 -0.45139235259E+03  0.46223652660E+03  0.00000000000E+00 0. -1.
         -1    1    6    6    0  503  0.83833334277E+02 -0.80276430972E+02 -0.11940287964E+04  0.11996570760E+04  0.00000000000E+00 0.  1.
<mgrwt>
<rscale>  0 0.18853801E+04</rscale>
<asrwt>0</asrwt>
<pdfrwt beam="1">  1        2 0.68720693E-01 0.18853801E+04</pdfrwt>
<pdfrwt beam="2">  1       -1 0.30607201E+00 0.18853801E+04</pdfrwt>
<totfact> 0.22693061E+00</totfact>
</mgrwt>
</event>
<event>
12    7  0.1701638E-007  0.1535001E+04  0.7818608E-02  0.8861506E-01
         -1   -1    0    0    0  501 -0.00000000000E+00  0.00000000000E+00  0.40059758875E+03  0.40059758875E+03  0.00000000000E+00 0.  1.
          2   -1    0    0  501    0  0.00000000000E+00 -0.00000000000E+00 -0.14704455049E+04  0.14704455049E+04  0.00000000000E+00 0. -1.
         24    2    1    2    0    0  0.37164658256E+03 -0.30399887395E+03 -0.19226941691E+03  0.52303540434E+03  0.77858896820E+02 0.  0.
        254    2    1    2    0    0 -0.37164658256E+03  0.30399887395E+03 -0.87757849927E+03  0.13480076894E+04  0.90357302444E+03 0.  0.
         23    2    4    4    0    0 -0.32500439411E+03  0.59578457621E+03 -0.44360257645E+03  0.81585700160E+03  0.90842081542E+02 0.  0.
         23    2    4    4    0    0 -0.46642188449E+02 -0.29178570226E+03 -0.43397592282E+03  0.53215068776E+03  0.86803589272E+02 0.  0.
          4    1    3    3  502    0  0.33616510145E+03 -0.27292267570E+03 -0.14598366926E+03  0.45695185090E+03  0.00000000000E+00 0. -1.
         -3    1    3    3    0  502  0.35481481110E+02 -0.31076198252E+02 -0.46285747652E+02  0.66083553440E+02  0.00000000000E+00 0.  1.
         13    1    5    5    0    0 -0.27595566967E+03  0.42301199206E+03 -0.33170788274E+03  0.60425226232E+03  0.00000000000E+00 0. -1.
        -13    1    5    5    0    0 -0.49048724446E+02  0.17277258415E+03 -0.11189469372E+03  0.21160473928E+03  0.00000000000E+00 0.  1.
          2    1    6    6  503    0  0.10361103828E+02 -0.17250169166E+03 -0.28179699307E+03  0.33056577470E+03  0.00000000000E+00 0. -1.
         -2    1    6    6    0  503 -0.57003292277E+02 -0.11928401059E+03 -0.15217892975E+03  0.20158491306E+03  0.00000000000E+00 0.  1.
<mgrwt>
<rscale>  0 0.15350009E+04</rscale>
<asrwt>0</asrwt>
<pdfrwt beam="1">  1        2 0.22622238E+00 0.15350009E+04</pdfrwt>
<pdfrwt beam="2">  1       -1 0.61630399E-01 0.15350009E+04</pdfrwt>
<totfact> 0.38683898E+01</totfact>
</mgrwt>
</event>
<event>
12    7  0.1701638E-007  0.1850818E+04  0.7818608E-02  0.8679732E-01
         -1   -1    0    0    0  501 -0.00000000000E+00  0.00000000000E+00  0.31395999176E+03  0.31395999176E+03  0.00000000000E+00 0.  1.
          2   -1    0    0  501    0  0.00000000000E+00 -0.00000000000E+00 -0.27276768554E+04  0.27276768554E+04  0.00000000000E+00 0. -1.
         24    2    1    2    0    0  0.65234791231E+03 -0.25219957890E+03 -0.83547639685E+03  0.10925239951E+04  0.80158867071E+02 0.  0.
        254    2    1    2    0    0 -0.65234791231E+03  0.25219957890E+03 -0.15782404668E+04  0.19491128520E+04  0.90500580805E+03 0.  0.
         23    2    4    4    0    0 -0.86648999400E+03  0.25582061213E+03 -0.13074564853E+04  0.15918714876E+04  0.91450953443E+02 0.  0.
         23    2    4    4    0    0  0.21414208169E+03 -0.36210332227E+01 -0.27078398150E+03  0.35724136440E+03  0.91801333153E+02 0.  0.
          4    1    3    3  502    0  0.10142160222E+03 -0.45027552985E+02 -0.91195487497E+02  0.14363300061E+03  0.00000000000E+00 0. -1.
         -3    1    3    3    0  502  0.55092631009E+03 -0.20717202592E+03 -0.74428090935E+03  0.94889099453E+03  0.00000000000E+00 0.  1.
         13    1    5    5    0    0 -0.45412808308E+03  0.16716771076E+03 -0.64090044183E+03  0.80307579698E+03  0.00000000000E+00 0. -1.
        -13    1    5    5    0    0 -0.41236191092E+03  0.88652901370E+02 -0.66655604343E+03  0.78879569062E+03  0.00000000000E+00 0.  1.
          2    1    6    6  503    0  0.12308754349E+03 -0.22292374451E+02 -0.21527269505E+03  0.24897756236E+03  0.00000000000E+00 0. -1.
         -2    1    6    6    0  503  0.91054538202E+02  0.18671341228E+02 -0.55511286451E+02  0.10826380205E+03  0.00000000000E+00 0.  1.
<mgrwt>
<rscale>  0 0.18508176E+04</rscale>
<asrwt>0</asrwt>
<pdfrwt beam="1">  1        2 0.41964259E+00 0.18508176E+04</pdfrwt>
<pdfrwt beam="2">  1       -1 0.48301537E-01 0.18508176E+04</pdfrwt>
<totfact> 0.11751563E+01</totfact>
</mgrwt>
</event>
<event>
12    7  0.1701638E-007  0.2319963E+04  0.7818608E-02  0.8470091E-01
         -1   -1    0    0    0  501 -0.00000000000E+00  0.00000000000E+00  0.44816947408E+03  0.44816947408E+03  0.00000000000E+00 0.  1.
          2   -1    0    0  501    0  0.00000000000E+00 -0.00000000000E+00 -0.30023396468E+04  0.30023396468E+04  0.00000000000E+00 0. -1.
         24    2    1    2    0    0  0.42314601268E+03 -0.56844503853E+03 -0.21048447696E+04  0.22223794330E+04  0.80103246043E+02 0.  0.
        254    2    1    2    0    0 -0.42314601268E+03  0.56844503853E+03 -0.44932540311E+03  0.12281296879E+04  0.89678698841E+03 0.  0.
         23    2    4    4    0    0 -0.48987790295E+03  0.16594024358E+03 -0.58872127958E+03  0.78883677384E+03  0.90300534316E+02 0.  0.
         23    2    4    4    0    0  0.66731890263E+02  0.40250479495E+03  0.13939587647E+03  0.43929291408E+03  0.84165306666E+02 0.  0.
          2    1    3    3  502    0  0.26671316572E+03 -0.41968314660E+03 -0.14762700375E+04  0.15577686220E+04  0.00000000000E+00 0. -1.
         -1    1    3    3    0  502  0.15643284697E+03 -0.14876189193E+03 -0.62857473216E+03  0.66461081093E+03  0.00000000000E+00 0.  1.
         13    1    5    5    0    0 -0.33696566325E+03  0.15499341592E+03 -0.39589781622E+03  0.54249783233E+03  0.00000000000E+00 0. -1.
        -13    1    5    5    0    0 -0.15291223969E+03  0.10946827654E+02 -0.19282346335E+03  0.24633894151E+03  0.00000000000E+00 0.  1.
          2    1    6    6  503    0  0.52573727517E+02  0.10495262473E+03  0.23866959619E+02  0.11978598425E+03  0.00000000000E+00 0. -1.
         -2    1    6    6    0  503  0.14158162746E+02  0.29755217023E+03  0.11552891685E+03  0.31950692983E+03  0.00000000000E+00 0.  1.
<mgrwt>
<rscale>  0 0.23199629E+04</rscale>
<asrwt>0</asrwt>
<pdfrwt beam="1">  1        2 0.46189840E+00 0.23199629E+04</pdfrwt>
<pdfrwt beam="2">  1       -1 0.68949151E-01 0.23199629E+04</pdfrwt>
<totfact> 0.38057859E+00</totfact>
</mgrwt>
</event>
<event>
12    7  0.1701638E-007  0.2146289E+04  0.7818608E-02  0.8541123E-01
          2   -1    0    0  501    0  0.00000000000E+00  0.00000000000E+00  0.10439398626E+04  0.10439398626E+04  0.00000000000E+00 0. -1.
         -1   -1    0    0    0  501 -0.00000000000E+00 -0.00000000000E+00 -0.11031656981E+04  0.11031656981E+04  0.00000000000E+00 0.  1.
         24    2    1    2    0    0  0.70610639583E+02 -0.86383352300E+03  0.18285739346E+03  0.88958754853E+03  0.82066815923E+02 0.  0.
        254    2    1    2    0    0 -0.70610639583E+02  0.86383352300E+03 -0.24208322901E+03  0.12575180122E+04  0.87838092155E+03 0.  0.
         23    2    4    4    0    0 -0.88095404146E+02  0.10235103510E+04 -0.12539193938E+03  0.10386961993E+04  0.88500945006E+02 0.  0.
         23    2    4    4    0    0  0.17484764563E+02 -0.15967682798E+03 -0.11669128963E+03  0.21882181285E+03  0.91998490845E+02 0.  0.
          4    1    3    3  502    0  0.43500589292E+01 -0.14840625590E+02 -0.72044486874E+01  0.17060810693E+02  0.00000000000E+00 0. -1.
         -3    1    3    3    0  502  0.66260580654E+02 -0.84899289741E+03  0.19006184215E+03  0.87252673784E+03  0.00000000000E+00 0.  1.
         13    1    5    5    0    0 -0.85668873523E+02  0.57285014352E+03 -0.45521648282E+02  0.58100659488E+03  0.00000000000E+00 0.  1.
        -13    1    5    5    0    0 -0.24265306229E+01  0.45066020746E+03 -0.79870291095E+02  0.45768960447E+03  0.00000000000E+00 0. -1.
          1    1    6    6  503    0 -0.29297300687E+02 -0.15571142177E+02 -0.26824293834E+02  0.42665384517E+02  0.00000000000E+00 0. -1.
         -1    1    6    6    0  503  0.46782065250E+02 -0.14410568580E+03 -0.89866995797E+02  0.17615642833E+03  0.00000000000E+00 0.  1.
<mgrwt>
<rscale>  0 0.21462886E+04</rscale>
<asrwt>0</asrwt>
<pdfrwt beam="1">  1        2 0.16060613E+00 0.21462886E+04</pdfrwt>
<pdfrwt beam="2">  1       -1 0.16971780E+00 0.21462886E+04</pdfrwt>
<totfact> 0.61132432E+00</totfact>
</mgrwt>
</event>
<event>
12    7  0.1701638E-007  0.1379275E+04  0.7818608E-02  0.8968959E-01
         -1   -1    0    0    0  501 -0.00000000000E+00  0.00000000000E+00  0.63962254779E+03  0.63962254779E+03  0.00000000000E+00 0.  1.
          2   -1    0    0  501    0  0.00000000000E+00 -0.00000000000E+00 -0.74356300115E+03  0.74356300115E+03  0.00000000000E+00 0. -1.
         24    2    1    2    0    0 -0.34719840132E+02  0.21895886457E+03  0.31983346419E+03  0.39732005010E+03  0.80133174893E+02 0.  0.
        254    2    1    2    0    0  0.34719840132E+02 -0.21895886457E+03 -0.42377391755E+03  0.98586549884E+03  0.86208932074E+03 0.  0.
         23    2    4    4    0    0 -0.38248100481E+03 -0.21475364548E+03 -0.12767163630E+03  0.46657237703E+03  0.94756999776E+02 0.  0.
         23    2    4    4    0    0  0.41720084494E+03 -0.42052190963E+01 -0.29610228125E+03  0.51929312181E+03  0.88963793275E+02 0.  0.
          4    1    3    3  502    0 -0.25184473359E+01  0.43964742763E+02  0.19337287710E+02  0.48095445513E+02  0.00000000000E+00 0. -1.
         -3    1    3    3    0  502 -0.32201392796E+02  0.17499412181E+03  0.30049617648E+03  0.34922460459E+03  0.00000000000E+00 0.  1.
         13    1    5    5    0    0 -0.35300460053E+03 -0.22321293265E+03 -0.12407564091E+03  0.43569602473E+03  0.00000000000E+00 0. -1.
        -13    1    5    5    0    0 -0.29476404275E+02  0.84592871708E+01 -0.35959953899E+01  0.30876352299E+02  0.00000000000E+00 0.  1.
          4    1    6    6  503    0  0.28724344208E+03 -0.42828701254E+02 -0.21461634342E+03  0.36111392598E+03  0.00000000000E+00 0. -1.
         -4    1    6    6    0  503  0.12995740286E+03  0.38623482158E+02 -0.81485937828E+02  0.15817919584E+03  0.00000000000E+00 0.  1.
<mgrwt>
<rscale>  0 0.13792747E+04</rscale>
<asrwt>0</asrwt>
<pdfrwt beam="1">  1        2 0.11439431E+00 0.13792747E+04</pdfrwt>
<pdfrwt beam="2">  1       -1 0.98403468E-01 0.13792747E+04</pdfrwt>
<totfact> 0.41758498E+01</totfact>
</mgrwt>
</event>
<event>
12    7  0.1701638E-007  0.1149780E+04  0.7818608E-02  0.9157987E-01
          2   -1    0    0  501    0  0.00000000000E+00  0.00000000000E+00  0.67488149417E+03  0.67488149417E+03  0.00000000000E+00 0. -1.
         -1   -1    0    0    0  501 -0.00000000000E+00 -0.00000000000E+00 -0.48971329371E+03  0.48971329371E+03  0.00000000000E+00 0.  1.
         24    2    1    2    0    0 -0.21051914241E+03 -0.45468814782E+02  0.18718390373E+02  0.23047816923E+03  0.79900475054E+02 0.  0.
        254    2    1    2    0    0  0.21051914241E+03  0.45468814782E+02  0.16644981009E+03  0.93411661865E+03  0.89357853350E+03 0.  0.
         23    2    4    4    0    0  0.25347665104E+03  0.28136244652E+03  0.42058903650E+03  0.57315832484E+03  0.90554341579E+02 0.  0.
         23    2    4    4    0    0 -0.42957508629E+02 -0.23589363174E+03 -0.25413922641E+03  0.36095829381E+03  0.90625550661E+02 0.  0.
          2    1    3    3  502    0 -0.25277565511E+02  0.20618123202E+02  0.75606940435E+01  0.33484719156E+02  0.00000000000E+00 0. -1.
         -1    1    3    3    0  502 -0.18524157690E+03 -0.66086937983E+02  0.11157696329E+02  0.19699345007E+03  0.00000000000E+00 0.  1.
         13    1    5    5    0    0 -0.29813142777E+01  0.83231070181E+01  0.32882361844E+02  0.34050140466E+02  0.00000000000E+00 0. -1.
        -13    1    5    5    0    0  0.25645796531E+03  0.27303933950E+03  0.38770667465E+03  0.53910818437E+03  0.00000000000E+00 0.  1.
          1    1    6    6  503    0 -0.29322661768E+02 -0.29018133043E+02 -0.13682195579E+02  0.43463467583E+02  0.00000000000E+00 0. -1.
         -1    1    6    6    0  503 -0.13634846861E+02 -0.20687549869E+03 -0.24045703083E+03  0.31749482623E+03  0.00000000000E+00 0.  1.
<mgrwt>
<rscale>  0 0.11497799E+04</rscale>
<asrwt>0</asrwt>
<pdfrwt beam="1">  1        2 0.10382792E+00 0.11497799E+04</pdfrwt>
<pdfrwt beam="2">  1       -1 0.75340506E-01 0.11497799E+04</pdfrwt>
<totfact> 0.85961089E+01</totfact>
</mgrwt>
</event>
<event>
12    7  0.1701638E-007  0.2088990E+04  0.7818608E-02  0.8566109E-01
          2   -1    0    0  501    0  0.00000000000E+00  0.00000000000E+00  0.18702056508E+04  0.18702056508E+04  0.00000000000E+00 0. -1.
         -1   -1    0    0    0  501 -0.00000000000E+00 -0.00000000000E+00 -0.58334189689E+03  0.58334189689E+03  0.00000000000E+00 0.  1.
         24    2    1    2    0    0  0.67567102963E+03 -0.50912097164E+03  0.56481705551E+03  0.10203664748E+04  0.79962069837E+02 0.  0.
        254    2    1    2    0    0 -0.67567102963E+03  0.50912097164E+03  0.72204669837E+03  0.14331810729E+04  0.90383684868E+03 0.  0.
         23    2    4    4    0    0  0.24544104402E+01  0.11773915029E+03 -0.18106337020E+03  0.23453698400E+03  0.91406352060E+02 0.  0.
         23    2    4    4    0    0 -0.67812544007E+03  0.39138182135E+03  0.90311006857E+03  0.11986440889E+04  0.90033401237E+02 0.  0.
          4    1    3    3  502    0  0.50299786060E+03 -0.38710580007E+03  0.38157928948E+03  0.74058119230E+03  0.00000000000E+00 0. -1.
         -3    1    3    3    0  502  0.17267316902E+03 -0.12201517156E+03  0.18323776603E+03  0.27978528248E+03  0.00000000000E+00 0.  1.
         13    1    5    5    0    0  0.44576237816E+02  0.44477005897E+02 -0.94536350125E+02  0.11358858449E+03  0.00000000000E+00 0. -1.
        -13    1    5    5    0    0 -0.42121827376E+02  0.73262144392E+02 -0.86527020071E+02  0.12094839951E+03  0.00000000000E+00 0.  1.
          1    1    6    6  503    0 -0.63482847109E+03  0.36222623139E+03  0.80358658646E+03  0.10862625982E+04  0.00000000000E+00 0. -1.
         -1    1    6    6    0  503 -0.43296968977E+02  0.29155589959E+02  0.99523482110E+02  0.11238149065E+03  0.00000000000E+00 0.  1.
<mgrwt>
<rscale>  0 0.20889895E+04</rscale>
<asrwt>0</asrwt>
<pdfrwt beam="1">  1        2 0.28772394E+00 0.20889895E+04</pdfrwt>
<pdfrwt beam="2">  1       -1 0.89744908E-01 0.20889895E+04</pdfrwt>
<totfact> 0.10069251E+01</totfact>
</mgrwt>
</event>
<event>
12    7  0.1701638E-007  0.1656960E+04  0.7818608E-02  0.8786300E-01
         -1   -1    0    0    0  501 -0.00000000000E+00  0.00000000000E+00  0.37601394151E+03  0.37601394151E+03  0.00000000000E+00 0.  1.
          2   -1    0    0  501    0  0.00000000000E+00 -0.00000000000E+00 -0.18254079404E+04  0.18254079404E+04  0.00000000000E+00 0. -1.
         24    2    1    2    0    0  0.38291500119E+02  0.22265570109E+03 -0.12058197327E+04  0.12295296016E+04  0.81853607853E+02 0.  0.
        254    2    1    2    0    0 -0.38291500119E+02 -0.22265570109E+03 -0.24357426614E+03  0.97189228031E+03  0.91334789713E+03 0.  0.
         23    2    4    4    0    0 -0.46258316767E+03 -0.45165919085E+02 -0.12313301846E+03  0.48957326796E+03  0.92179700645E+02 0.  0.
         23    2    4    4    0    0  0.42429166755E+03 -0.17748978201E+03 -0.12044124767E+03  0.48231901234E+03  0.81237267647E+02 0.  0.
          4    1    3    3  502    0  0.59234935499E+02  0.20143734524E+03 -0.10805861052E+04  0.11007961266E+04  0.00000000000E+00 0. -1.
         -3    1    3    3    0  502 -0.20943435381E+02  0.21218355854E+02 -0.12523362754E+03  0.12873347497E+03  0.00000000000E+00 0.  1.
         13    1    5    5    0    0 -0.54638768718E+02 -0.34231093584E+02 -0.47135409734E+01  0.64648126682E+02  0.00000000000E+00 0. -1.
        -13    1    5    5    0    0 -0.40794439895E+03 -0.10934825501E+02 -0.11841947749E+03  0.42492514128E+03  0.00000000000E+00 0.  1.
          2    1    6    6  503    0  0.10278631532E+03 -0.82909887976E+01 -0.16488925819E+02  0.10443012873E+03  0.00000000000E+00 0. -1.
         -2    1    6    6    0  503  0.32150535223E+03 -0.16919879321E+03 -0.10395232185E+03  0.37788888361E+03  0.00000000000E+00 0.  1.
<mgrwt>
<rscale>  0 0.16569597E+04</rscale>
<asrwt>0</asrwt>
<pdfrwt beam="1">  1        2 0.28083199E+00 0.16569597E+04</pdfrwt>
<pdfrwt beam="2">  1       -1 0.57848300E-01 0.16569597E+04</pdfrwt>
<totfact> 0.27498817E+01</totfact>
</mgrwt>
</event>
<event>
12    7  0.1701638E-007  0.1597039E+04  0.7818608E-02  0.8822369E-01
         -1   -1    0    0    0  501 -0.00000000000E+00  0.00000000000E+00  0.59288249060E+03  0.59288249060E+03  0.00000000000E+00 0.  1.
          2   -1    0    0  501    0  0.00000000000E+00 -0.00000000000E+00 -0.10754805337E+04  0.10754805337E+04  0.00000000000E+00 0. -1.
         24    2    1    2    0    0  0.34966065654E+03 -0.69608651223E+02  0.28638444399E+03  0.46443803759E+03  0.81109197643E+02 0.  0.
        254    2    1    2    0    0 -0.34966065654E+03  0.69608651223E+02 -0.76898248704E+03  0.12039249867E+04  0.85498150220E+03 0.  0.
         23    2    4    4    0    0 -0.29393705049E+03  0.76660138512E+02  0.96662269215E+02  0.33207207308E+03  0.93018820362E+02 0.  0.
         23    2    4    4    0    0 -0.55723606048E+02 -0.70514872895E+01 -0.86564475625E+03  0.87185291359E+03  0.87360260777E+02 0.  0.
          4    1    3    3  502    0  0.17795002767E+03 -0.72360578760E+02  0.12815397293E+03  0.23092359447E+03  0.00000000000E+00 0. -1.
         -3    1    3    3    0  502  0.17171062887E+03  0.27519275371E+01  0.15823047106E+03  0.23351444311E+03  0.00000000000E+00 0.  1.
         13    1    5    5    0    0 -0.65619168298E+02  0.26838057240E+02  0.65116893739E+02  0.96261967644E+02  0.00000000000E+00 0. -1.
        -13    1    5    5    0    0 -0.22831788219E+03  0.49822081272E+02  0.31545375476E+02  0.23581010544E+03  0.00000000000E+00 0.  1.
          3    1    6    6  503    0 -0.63514516709E+02  0.18628873357E+02 -0.40033559408E+03  0.40577052215E+03  0.00000000000E+00 0. -1.
         -3    1    6    6    0  503  0.77909106611E+01 -0.25680360647E+02 -0.46530916217E+03  0.46608239144E+03  0.00000000000E+00 0.  1.
<mgrwt>
<rscale>  0 0.15970392E+04</rscale>
<asrwt>0</asrwt>
<pdfrwt beam="1">  1        2 0.16545854E+00 0.15970392E+04</pdfrwt>
<pdfrwt beam="2">  1       -1 0.91212691E-01 0.15970392E+04</pdfrwt>
<totfact> 0.28953438E+01</totfact>
</mgrwt>
</event>
<event>
12    7  0.1701638E-007  0.2064033E+04  0.7818608E-02  0.8577255E-01
         -3   -1    0    0    0  501 -0.00000000000E+00  0.00000000000E+00  0.21941362127E+04  0.21941362127E+04  0.00000000000E+00 0.  1.
          2   -1    0    0  501    0  0.00000000000E+00 -0.00000000000E+00 -0.48541091975E+03  0.48541091975E+03  0.00000000000E+00 0. -1.
         24    2    1    2    0    0 -0.19803805868E+03 -0.48685084249E+03 -0.14812007482E+03  0.55183615078E+03  0.79628922044E+02 0.  0.
        254    2    1    2    0    0  0.19803805868E+03  0.48685084249E+03  0.18568453678E+04  0.21277109817E+04  0.89612303074E+03 0.  0.
         23    2    4    4    0    0  0.13422231596E+03  0.33010722538E+03  0.18971312108E+04  0.19324041346E+04  0.89958313518E+02 0.  0.
         23    2    4    4    0    0  0.63815742718E+02  0.15674361711E+03 -0.40285842982E+02  0.19530684710E+03  0.88773897385E+02 0.  0.
          2    1    3    3  502    0 -0.18774029571E+03 -0.37618874004E+03 -0.11563306597E+03  0.43604517278E+03  0.00000000000E+00 0. -1.
         -1    1    3    3    0  502 -0.10297762972E+02 -0.11066210245E+03 -0.32487008851E+02  0.11579097799E+03  0.00000000000E+00 0.  1.
         13    1    5    5    0    0  0.99521276557E+02  0.28791790738E+03  0.14298855547E+04  0.14619760276E+04  0.00000000000E+00 0. -1.
        -13    1    5    5    0    0  0.34701039407E+02  0.42189317998E+02  0.46724565606E+03  0.47042810694E+03  0.00000000000E+00 0.  1.
          4    1    6    6  503    0  0.36047043643E+02  0.12055157395E+03 -0.66887885491E+02  0.14249933531E+03  0.00000000000E+00 0. -1.
         -4    1    6    6    0  503  0.27768699075E+02  0.36192043154E+02  0.26602042509E+02  0.52807511792E+02  0.00000000000E+00 0.  1.
<mgrwt>
<rscale>  0 0.20640326E+04</rscale>
<asrwt>0</asrwt>
<pdfrwt beam="1">  1        2 0.74678604E-01 0.20640326E+04</pdfrwt>
<pdfrwt beam="2">  1       -3 0.33755941E+00 0.20640326E+04</pdfrwt>
<totfact> 0.86105624E-01</totfact>
</mgrwt>
</event>
<event>
12    7  0.1701638E-007  0.2608110E+04  0.7818608E-02  0.8365452E-01
          2   -1    0    0  501    0  0.00000000000E+00  0.00000000000E+00  0.19852447002E+04  0.19852447002E+04  0.00000000000E+00 0. -1.
         -1   -1    0    0    0  501 -0.00000000000E+00 -0.00000000000E+00 -0.85659928746E+03  0.85659928746E+03  0.00000000000E+00 0.  1.
         24    2    1    2    0    0 -0.16514707862E+03  0.95393286973E+03  0.11677714647E+04  0.15190777464E+04  0.81520110571E+02 0.  0.
        254    2    1    2    0    0  0.16514707862E+03 -0.95393286973E+03 -0.39126051919E+02  0.13227662413E+04  0.90050996861E+03 0.  0.
         23    2    4    4    0    0  0.14293679919E+02 -0.59428381588E+03 -0.44833090917E+03  0.75007363376E+03  0.90731961555E+02 0.  0.
         23    2    4    4    0    0  0.15085339870E+03 -0.35964905384E+03  0.40920485725E+03  0.57269260750E+03  0.91782447418E+02 0.  0.
          4    1    3    3  502    0 -0.16284516611E+03  0.75073120148E+03  0.93401710190E+03  0.12093402464E+04  0.00000000000E+00 0. -1.
         -3    1    3    3    0  502 -0.23019125084E+01  0.20320166825E+03  0.23375436275E+03  0.30973749997E+03  0.00000000000E+00 0.  1.
         13    1    5    5    0    0  0.25314508832E+02 -0.38769746242E+03 -0.24109525263E+03  0.45724945879E+03  0.00000000000E+00 0. -1.
        -13    1    5    5    0    0 -0.11020828913E+02 -0.20658635346E+03 -0.20723565654E+03  0.29282417497E+03  0.00000000000E+00 0.  1.
          3    1    6    6  503    0  0.13403019867E+03 -0.35270773139E+03  0.40591883401E+03  0.55419936642E+03  0.00000000000E+00 0. -1.
         -3    1    6    6    0  503  0.16823200034E+02 -0.69413224524E+01  0.32860232423E+01  0.18493241077E+02  0.00000000000E+00 0.  1.
<mgrwt>
<rscale>  0 0.26081098E+04</rscale>
<asrwt>0</asrwt>
<pdfrwt beam="1">  1        2 0.30542226E+00 0.26081098E+04</pdfrwt>
<pdfrwt beam="2">  1       -1 0.13178451E+00 0.26081098E+04</pdfrwt>
<totfact> 0.33548240E+00</totfact>
</mgrwt>
</event>
<event>
12    7  0.1701638E-007  0.1130941E+04  0.7818608E-02  0.9175549E-01
         -1   -1    0    0    0  501 -0.00000000000E+00  0.00000000000E+00  0.11199447774E+03  0.11199447774E+03  0.00000000000E+00 0.  1.
          2   -1    0    0  501    0  0.00000000000E+00 -0.00000000000E+00 -0.28551114480E+04  0.28551114480E+04  0.00000000000E+00 0. -1.
         24    2    1    2    0    0  0.17893831358E+03 -0.39982514197E+02 -0.70191953211E+03  0.73014246368E+03  0.82458875795E+02 0.  0.
        254    2    1    2    0    0 -0.17893831358E+03  0.39982514197E+02 -0.20411974382E+04  0.22369634621E+04  0.89660527971E+03 0.  0.
         23    2    4    4    0    0  0.24339252833E+03 -0.10905690479E+03 -0.15106231597E+04  0.15366698440E+04  0.90766444493E+02 0.  0.
         23    2    4    4    0    0 -0.42233084191E+03  0.14903941899E+03 -0.53057427848E+03  0.70029361812E+03  0.91246907595E+02 0.  0.
          2    1    3    3  502    0  0.53275355430E+02 -0.25962738073E+01 -0.36033749491E+03  0.36426379778E+03  0.00000000000E+00 0. -1.
         -1    1    3    3    0  502  0.12566295815E+03 -0.37386240390E+02 -0.34158203720E+03  0.36587866590E+03  0.00000000000E+00 0.  1.
         13    1    5    5    0    0  0.13164165745E+03 -0.39098447974E+02 -0.54252146499E+03  0.55963180269E+03  0.00000000000E+00 0.  1.
        -13    1    5    5    0    0  0.11175087088E+03 -0.69958456819E+02 -0.96810169470E+03  0.97703804128E+03  0.00000000000E+00 0. -1.
          1    1    6    6  503    0 -0.35855069632E+03  0.11574721615E+03 -0.38936815026E+03  0.54181507575E+03  0.00000000000E+00 0. -1.
         -1    1    6    6    0  503 -0.63780145590E+02  0.33292202839E+02 -0.14120612822E+03  0.15847854236E+03  0.00000000000E+00 0.  1.
<mgrwt>
<rscale>  0 0.11309407E+04</rscale>
<asrwt>0</asrwt>
<pdfrwt beam="1">  1        2 0.43924795E+00 0.11309407E+04</pdfrwt>
<pdfrwt beam="2">  1       -1 0.17229918E-01 0.11309407E+04</pdfrwt>
<totfact> 0.64248803E+01</totfact>
</mgrwt>
</event>
<event>
12    7  0.1701638E-007  0.2043250E+04  0.7818608E-02  0.8586663E-01
         -1   -1    0    0    0  501 -0.00000000000E+00  0.00000000000E+00  0.15604369951E+04  0.15604369951E+04  0.00000000000E+00 0.  1.
          2   -1    0    0  501    0  0.00000000000E+00 -0.00000000000E+00 -0.66886229041E+03  0.66886229041E+03  0.00000000000E+00 0. -1.
         24    2    1    2    0    0 -0.39277861219E+03  0.59616084424E+03  0.80693044611E+03  0.10802350696E+04  0.78027368707E+02 0.  0.
        254    2    1    2    0    0  0.39277861219E+03 -0.59616084424E+03  0.84644258531E+02  0.11490642159E+04  0.89638224622E+03 0.  0.
         23    2    4    4    0    0  0.12153461516E+03 -0.14621215881E+02 -0.34070832040E+03  0.37381036617E+03  0.93099879860E+02 0.  0.
         23    2    4    4    0    0  0.27124399703E+03 -0.58153962836E+03  0.42535257894E+03  0.77525384971E+03  0.91280172060E+02 0.  0.
          2    1    3    3  502    0 -0.16317774209E+03  0.22605434676E+03  0.37027761911E+03  0.46350087207E+03  0.00000000000E+00 0. -1.
         -1    1    3    3    0  502 -0.22960087010E+03  0.37010649749E+03  0.43665282701E+03  0.61673419750E+03  0.00000000000E+00 0.  1.
         13    1    5    5    0    0 -0.18836540131E+00 -0.14856395690E+02 -0.34426750302E+01  0.15251228992E+02  0.00000000000E+00 0. -1.
        -13    1    5    5    0    0  0.12172298056E+03  0.23517980879E+00 -0.33726564537E+03  0.35855913718E+03  0.00000000000E+00 0.  1.
          1    1    6    6  503    0  0.58755694680E+01 -0.82878139271E+02  0.48432504414E+02  0.96171803401E+02  0.00000000000E+00 0. -1.
         -1    1    6    6    0  503  0.26536842756E+03 -0.49866148909E+03  0.37692007452E+03  0.67908204631E+03  0.00000000000E+00 0.  1.
<mgrwt>
<rscale>  0 0.20432498E+04</rscale>
<asrwt>0</asrwt>
<pdfrwt beam="1">  1        2 0.10290189E+00 0.20432498E+04</pdfrwt>
<pdfrwt beam="2">  1       -1 0.24006723E+00 0.20432498E+04</pdfrwt>
<totfact> 0.37139641E+00</totfact>
</mgrwt>
</event>
<event>
12    7  0.1701638E-007  0.2555784E+04  0.7818608E-02  0.8383377E-01
          2   -1    0    0  501    0  0.00000000000E+00  0.00000000000E+00  0.21137876446E+04  0.21137876446E+04  0.00000000000E+00 0. -1.
         -1   -1    0    0    0  501 -0.00000000000E+00 -0.00000000000E+00 -0.77255075552E+03  0.77255075552E+03  0.00000000000E+00 0.  1.
         24    2    1    2    0    0  0.65584216773E+03  0.18043739442E+03  0.15867339812E+04  0.17284740365E+04  0.84918580918E+02 0.  0.
        254    2    1    2    0    0 -0.65584216773E+03 -0.18043739442E+03 -0.24549709213E+03  0.11578643636E+04  0.90426459628E+03 0.  0.
         23    2    4    4    0    0 -0.65489805104E+03 -0.40109772227E+03 -0.40313621187E+03  0.87187746248E+03  0.88773105133E+02 0.  0.
         23    2    4    4    0    0 -0.94411668601E+00  0.22066032784E+03  0.15763911975E+03  0.28598690116E+03  0.90810483548E+02 0.  0.
          4    1    3    3  502    0  0.28548027961E+03  0.10019535726E+03  0.79791077823E+03  0.85334618396E+03  0.00000000000E+00 0. -1.
         -3    1    3    3    0  502  0.37036188811E+03  0.80242037162E+02  0.78882320295E+03  0.87512785250E+03  0.00000000000E+00 0.  1.
         13    1    5    5    0    0 -0.42827731681E+03 -0.26967700823E+03 -0.21784806792E+03  0.55100356583E+03  0.00000000000E+00 0.  1.
        -13    1    5    5    0    0 -0.22662073423E+03 -0.13142071403E+03 -0.18528814396E+03  0.32087389665E+03  0.00000000000E+00 0. -1.
          1    1    6    6  503    0 -0.40682329502E+02  0.13010700145E+03  0.11479535696E+03  0.17821576176E+03  0.00000000000E+00 0. -1.
         -1    1    6    6    0  503  0.39738212816E+02  0.90553326392E+02  0.42843762787E+02  0.10777113940E+03  0.00000000000E+00 0.  1.
<mgrwt>
<rscale>  0 0.25557842E+04</rscale>
<asrwt>0</asrwt>
<pdfrwt beam="1">  1        2 0.32519810E+00 0.25557842E+04</pdfrwt>
<pdfrwt beam="2">  1       -1 0.11885396E+00 0.25557842E+04</pdfrwt>
<totfact> 0.36948283E+00</totfact>
</mgrwt>
</event>
<event>
12    7  0.1701638E-007  0.1803561E+04  0.7818608E-02  0.8704408E-01
         -1   -1    0    0    0  501 -0.00000000000E+00  0.00000000000E+00  0.29390331488E+03  0.29390331488E+03  0.00000000000E+00 0.  1.
          2   -1    0    0  501    0  0.00000000000E+00 -0.00000000000E+00 -0.27669235005E+04  0.27669235005E+04  0.00000000000E+00 0. -1.
         24    2    1    2    0    0 -0.57108202897E+03  0.19374964914E+03 -0.14337440291E+04  0.15574967811E+04  0.80626744042E+02 0.  0.
        254    2    1    2    0    0  0.57108202897E+03 -0.19374964914E+03 -0.10392761565E+04  0.15033300343E+04  0.90345594916E+03 0.  0.
         23    2    4    4    0    0  0.21224185612E+03  0.28763697453E+03 -0.95883349687E+02  0.38146248481E+03  0.92403333087E+02 0.  0.
         23    2    4    4    0    0  0.35884017285E+03 -0.48138662367E+03 -0.94339280685E+03  0.11218675495E+04  0.89985884668E+02 0.  0.
          4    1    3    3  502    0 -0.52145318945E+03  0.15140286769E+03 -0.12675177595E+04  0.13789262228E+04  0.00000000000E+00 0. -1.
         -3    1    3    3    0  502 -0.49628839519E+02  0.42346781453E+02 -0.16622626957E+03  0.17857055834E+03  0.00000000000E+00 0.  1.
         13    1    5    5    0    0  0.62692474684E+02  0.11692925438E+03  0.57389398500E+01  0.13279959466E+03  0.00000000000E+00 0. -1.
        -13    1    5    5    0    0  0.14954938143E+03  0.17070772015E+03 -0.10162228954E+03  0.24866289015E+03  0.00000000000E+00 0.  1.
          1    1    6    6  503    0  0.18047064524E+03 -0.17085547822E+03 -0.40878111509E+03  0.47839653875E+03  0.00000000000E+00 0. -1.
         -1    1    6    6    0  503  0.17836952760E+03 -0.31053114545E+03 -0.53461169176E+03  0.64347101073E+03  0.00000000000E+00 0.  1.
<mgrwt>
<rscale>  0 0.18035609E+04</rscale>
<asrwt>0</asrwt>
<pdfrwt beam="1">  1        2 0.42568054E+00 0.18035609E+04</pdfrwt>
<pdfrwt beam="2">  1       -1 0.45215895E-01 0.18035609E+04</pdfrwt>
<totfact> 0.12658555E+01</totfact>
</mgrwt>
</event>
<event>
12    7  0.1701638E-007  0.1353044E+04  0.7818608E-02  0.8988527E-01
          2   -1    0    0  501    0  0.00000000000E+00  0.00000000000E+00  0.97452216467E+03  0.97452216467E+03  0.00000000000E+00 0. -1.
         -1   -1    0    0    0  501 -0.00000000000E+00 -0.00000000000E+00 -0.46964740587E+03  0.46964740587E+03  0.00000000000E+00 0.  1.
         24    2    1    2    0    0 -0.11369610620E+03 -0.10068117838E+03 -0.21797956327E+03  0.27719868689E+03  0.79123433707E+02 0.  0.
        254    2    1    2    0    0  0.11369610620E+03  0.10068117838E+03  0.72285432208E+03  0.11669708837E+04  0.90345955532E+03 0.  0.
         23    2    4    4    0    0  0.17879921340E+03 -0.28010253080E+03 -0.10557602747E+01  0.34227587978E+03  0.82006565409E+02 0.  0.
         23    2    4    4    0    0 -0.65103107202E+02  0.38078370919E+03  0.72391008235E+03  0.82469500387E+03  0.82712721717E+02 0.  0.
          4    1    3    3  502    0 -0.56728904773E+01 -0.50666223635E+02 -0.50829010507E+02  0.71991917692E+02  0.00000000000E+00 0. -1.
         -3    1    3    3    0  502 -0.10802321572E+03 -0.50014954747E+02 -0.16715055276E+03  0.20520676919E+03  0.00000000000E+00 0.  1.
         13    1    5    5    0    0  0.53939911156E+02 -0.40095275021E+02  0.22085243532E+02  0.70745339609E+02  0.00000000000E+00 0.  1.
        -13    1    5    5    0    0  0.12485930225E+03 -0.24000725578E+03 -0.23141003807E+02  0.27153054017E+03  0.00000000000E+00 0. -1.
          4    1    6    6  503    0 -0.79496795435E+02  0.35030818763E+03  0.63424578708E+03  0.72890553930E+03  0.00000000000E+00 0. -1.
         -4    1    6    6    0  503  0.14393688232E+02  0.30475521556E+02  0.89664295277E+02  0.95789464570E+02  0.00000000000E+00 0.  1.
<mgrwt>
<rscale>  0 0.13530437E+04</rscale>
<asrwt>0</asrwt>
<pdfrwt beam="1">  1        2 0.14992649E+00 0.13530437E+04</pdfrwt>
<pdfrwt beam="2">  1       -1 0.72253447E-01 0.13530437E+04</pdfrwt>
<totfact> 0.56348698E+01</totfact>
</mgrwt>
</event>
<event>
12    7  0.1701638E-007  0.1884641E+04  0.7818608E-02  0.8662540E-01
         -1   -1    0    0    0  501 -0.00000000000E+00  0.00000000000E+00  0.22312362408E+03  0.22312362408E+03  0.00000000000E+00 0.  1.
          2   -1    0    0  501    0  0.00000000000E+00 -0.00000000000E+00 -0.39797123377E+04  0.39797123377E+04  0.00000000000E+00 0. -1.
         24    2    1    2    0    0  0.63901989950E+03  0.31431358434E+03 -0.11257081311E+04  0.13343670068E+04  0.78594217665E+02 0.  0.
        254    2    1    2    0    0 -0.63901989950E+03 -0.31431358434E+03 -0.26308805825E+04  0.28684689550E+04  0.89411523037E+03 0.  0.
         23    2    4    4    0    0 -0.77248462788E+03 -0.46562297910E+03 -0.22786958578E+04  0.24524859039E+04  0.93247183878E+02 0.  0.
         23    2    4    4    0    0  0.13346472838E+03  0.15130939476E+03 -0.35218472465E+03  0.41598305110E+03  0.91106815661E+02 0.  0.
          2    1    3    3  502    0  0.15876396973E+01 -0.36781510169E+01 -0.47263253343E+01  0.61957683847E+01  0.00000000000E+00 0. -1.
         -1    1    3    3    0  502  0.63743225980E+03  0.31799173536E+03 -0.11209818058E+04  0.13281712384E+04  0.00000000000E+00 0.  1.
         13    1    5    5    0    0 -0.72401786381E+03 -0.45556061330E+03 -0.21858212574E+04  0.23472434703E+04  0.00000000000E+00 0.  1.
        -13    1    5    5    0    0 -0.48466764066E+02 -0.10062365796E+02 -0.92874600407E+02  0.10524243358E+03  0.00000000000E+00 0. -1.
          3    1    6    6  503    0  0.40426831921E+02 -0.65123106726E-01 -0.40583174096E+02  0.57282868293E+02  0.00000000000E+00 0. -1.
         -3    1    6    6    0  503  0.93037896461E+02  0.15137451786E+03 -0.31160155055E+03  0.35870018280E+03  0.00000000000E+00 0.  1.
<mgrwt>
<rscale>  0 0.18846409E+04</rscale>
<asrwt>0</asrwt>
<pdfrwt beam="1">  1        2 0.61226346E+00 0.18846409E+04</pdfrwt>
<pdfrwt beam="2">  1       -1 0.34326710E-01 0.18846409E+04</pdfrwt>
<totfact> 0.30853456E+00</totfact>
</mgrwt>
</event>
<event>
12    7  0.1701638E-007  0.2387618E+04  0.7818608E-02  0.8444154E-01
         -1   -1    0    0    0  501 -0.00000000000E+00  0.00000000000E+00  0.56344575434E+03  0.56344575434E+03  0.00000000000E+00 0.  1.
          2   -1    0    0  501    0  0.00000000000E+00 -0.00000000000E+00 -0.25294011352E+04  0.25294011352E+04  0.00000000000E+00 0. -1.
         24    2    1    2    0    0 -0.73220727383E+03 -0.47592478570E+03 -0.15382691290E+04  0.17706855762E+04  0.80147383145E+02 0.  0.
        254    2    1    2    0    0  0.73220727383E+03  0.47592478570E+03 -0.42768625193E+03  0.13221613134E+04  0.89585887008E+03 0.  0.
         23    2    4    4    0    0 -0.65892899079E+02  0.32834570479E+03  0.84495263105E+02  0.35825747149E+03  0.95164018338E+02 0.  0.
         23    2    4    4    0    0  0.79810017291E+03  0.14757908092E+03 -0.51218151504E+03  0.96390384193E+03  0.89650660960E+02 0.  0.
          4    1    3    3  502    0 -0.28935972655E+03 -0.22839072405E+03 -0.68916047967E+03  0.78155840532E+03  0.00000000000E+00 0. -1.
         -3    1    3    3    0  502 -0.44284754727E+03 -0.24753406166E+03 -0.84910864930E+03  0.98912717085E+03  0.00000000000E+00 0.  1.
         13    1    5    5    0    0 -0.65817490321E+02  0.24187818053E+03  0.22134646214E+02  0.25164844290E+03  0.00000000000E+00 0.  1.
        -13    1    5    5    0    0 -0.75408758037E-01  0.86467524255E+02  0.62360616891E+02  0.10660902859E+03  0.00000000000E+00 0. -1.
          1    1    6    6  503    0  0.76834259843E+02  0.41403927885E+02 -0.62221995021E+02  0.10718845737E+03  0.00000000000E+00 0. -1.
         -1    1    6    6    0  503  0.72126591307E+03  0.10617515303E+03 -0.44995952002E+03  0.85671538455E+03  0.00000000000E+00 0.  1.
<mgrwt>
<rscale>  0 0.23876183E+04</rscale>
<asrwt>0</asrwt>
<pdfrwt beam="1">  1        2 0.38913864E+00 0.23876183E+04</pdfrwt>
<pdfrwt beam="2">  1       -1 0.86683960E-01 0.23876183E+04</pdfrwt>
<totfact> 0.44953359E+00</totfact>
</mgrwt>
</event>
<event>
12    7  0.1701638E-007  0.2279647E+04  0.7818608E-02  0.8485989E-01
          2   -1    0    0  501    0  0.00000000000E+00  0.00000000000E+00  0.90286625422E+03  0.90286625422E+03  0.00000000000E+00 0. -1.
         -3   -1    0    0    0  501 -0.00000000000E+00 -0.00000000000E+00 -0.14389702072E+04  0.14389702072E+04  0.00000000000E+00 0.  1.
         24    2    1    2    0    0 -0.13380850507E+03  0.24283564317E+03 -0.11727805548E+04  0.12077831081E+04  0.80323973853E+02 0.  0.
        254    2    1    2    0    0  0.13380850507E+03 -0.24283564317E+03  0.63667660182E+03  0.11340533534E+04  0.89657461895E+03 0.  0.
         23    2    4    4    0    0  0.42910429821E+03  0.12723833915E+03  0.32266044883E+03  0.55950976610E+03  0.92851060416E+02 0.  0.
         23    2    4    4    0    0 -0.29529579315E+03 -0.37007398232E+03  0.31401615298E+03  0.57454358726E+03  0.85672816518E+02 0.  0.
          4    1    3    3  502    0 -0.35129300453E+02  0.16762679380E+02 -0.22981655010E+03  0.23308947181E+03  0.00000000000E+00 0. -1.
         -3    1    3    3    0  502 -0.98679204613E+02  0.22607296379E+03 -0.94296400474E+03  0.97469363628E+03  0.00000000000E+00 0.  1.
         13    1    5    5    0    0  0.22357674936E+03  0.97747957099E+02  0.13105092731E+03  0.27697575980E+03  0.00000000000E+00 0. -1.
        -13    1    5    5    0    0  0.20552754885E+03  0.29490382054E+02  0.19160952153E+03  0.28253400629E+03  0.00000000000E+00 0.  1.
          3    1    6    6  503    0 -0.14393371191E+03 -0.22490157286E+03  0.21399667200E+03  0.34218738511E+03  0.00000000000E+00 0. -1.
         -3    1    6    6    0  503 -0.15136208123E+03 -0.14517240946E+03  0.10001948098E+03  0.23235620216E+03  0.00000000000E+00 0.  1.
<mgrwt>
<rscale>  0 0.22796470E+04</rscale>
<asrwt>0</asrwt>
<pdfrwt beam="1">  1        2 0.13890250E+00 0.22796470E+04</pdfrwt>
<pdfrwt beam="2">  1       -3 0.22138003E+00 0.22796470E+04</pdfrwt>
<totfact> 0.17979748E+00</totfact>
</mgrwt>
</event>
<event>
12    7  0.1701638E-007  0.1201201E+04  0.7818608E-02  0.9111806E-01
          2   -1    0    0  501    0  0.00000000000E+00  0.00000000000E+00  0.59218290962E+03  0.59218290962E+03  0.00000000000E+00 0. -1.
         -1   -1    0    0    0  501 -0.00000000000E+00 -0.00000000000E+00 -0.60913750535E+03  0.60913750535E+03  0.00000000000E+00 0.  1.
         24    2    1    2    0    0  0.13588638873E+02 -0.16686065427E+03  0.17570858935E+03  0.26211704089E+03  0.99018713903E+02 0.  0.
        254    2    1    2    0    0 -0.13588638873E+02  0.16686065427E+03 -0.19266318508E+03  0.93920337409E+03  0.90385659591E+03 0.  0.
         23    2    4    4    0    0  0.68514161936E+02 -0.35601958044E+03 -0.13972301662E+03  0.39956427010E+03  0.93193092694E+02 0.  0.
         23    2    4    4    0    0 -0.82102800809E+02  0.52288023471E+03 -0.52940168461E+02  0.53963910399E+03  0.90901547673E+02 0.  0.
          4    1    3    3  502    0  0.50774196407E+02 -0.10411771479E+03  0.13746473810E+03  0.17976393347E+03  0.00000000000E+00 0. -1.
         -3    1    3    3    0  502 -0.37185557534E+02 -0.62742939479E+02  0.38243851247E+02  0.82353107421E+02  0.00000000000E+00 0.  1.
         13    1    5    5    0    0  0.22728986923E+02 -0.27625116282E+03 -0.13272886210E+03  0.30732436064E+03  0.00000000000E+00 0. -1.
        -13    1    5    5    0    0  0.45785175013E+02 -0.79768417618E+02 -0.69941545169E+01  0.92239909462E+02  0.00000000000E+00 0.  1.
          2    1    6    6  503    0 -0.80577182387E+02  0.52378972698E+03 -0.45399806379E+02  0.53189237900E+03  0.00000000000E+00 0. -1.
         -2    1    6    6    0  503 -0.15256184215E+01 -0.90949227764E+00 -0.75403620817E+01  0.77467249916E+01  0.00000000000E+00 0.  1.
<mgrwt>
<rscale>  0 0.12012008E+04</rscale>
<asrwt>0</asrwt>
<pdfrwt beam="1">  1        2 0.91105063E-01 0.12012008E+04</pdfrwt>
<pdfrwt beam="2">  1       -1 0.93713463E-01 0.12012008E+04</pdfrwt>
<totfact> 0.62768905E+01</totfact>
</mgrwt>
</event>
<event>
12    7  0.1701638E-007  0.2341698E+04  0.7818608E-02  0.8461659E-01
          2   -1    0    0  501    0  0.00000000000E+00  0.00000000000E+00  0.18587626526E+04  0.18587626526E+04  0.00000000000E+00 0. -1.
         -1   -1    0    0    0  501 -0.00000000000E+00 -0.00000000000E+00 -0.73752658153E+03  0.73752658153E+03  0.00000000000E+00 0.  1.
         24    2    1    2    0    0  0.13503044736E+02  0.12985580729E+03  0.15718065784E+04  0.15791625329E+04  0.78316807026E+02 0.  0.
        254    2    1    2    0    0 -0.13503044736E+02 -0.12985580729E+03 -0.45057050734E+03  0.10171267013E+04  0.90248993429E+03 0.  0.
         23    2    4    4    0    0  0.20888763585E+03 -0.42468374521E+03 -0.83116939492E+02  0.48836973661E+03  0.87213795601E+02 0.  0.
         23    2    4    4    0    0 -0.22239068059E+03  0.29482793792E+03 -0.36745356785E+03  0.52875696469E+03  0.90447086148E+02 0.  0.
          4    1    3    3  502    0 -0.72143919664E+01  0.12673186112E+03  0.14519779882E+04  0.14575160686E+04  0.00000000000E+00 0. -1.
         -3    1    3    3    0  502  0.20717436703E+02  0.31239461782E+01  0.11982859024E+03  0.12164646424E+03  0.00000000000E+00 0.  1.
         13    1    5    5    0    0  0.24988574572E+01 -0.34419087799E+02 -0.26009331680E+02  0.43213461189E+02  0.00000000000E+00 0. -1.
        -13    1    5    5    0    0  0.20638877839E+03 -0.39026465741E+03 -0.57107607812E+02  0.44515627542E+03  0.00000000000E+00 0.  1.
          3    1    6    6  503    0 -0.17040871032E+03  0.27072039453E+03 -0.28553819126E+03  0.42878983108E+03  0.00000000000E+00 0. -1.
         -3    1    6    6    0  503 -0.51981970266E+02  0.24107543392E+02 -0.81915376589E+02  0.99967133613E+02  0.00000000000E+00 0.  1.
<mgrwt>
<rscale>  0 0.23416976E+04</rscale>
<asrwt>0</asrwt>
<pdfrwt beam="1">  1        2 0.28596348E+00 0.23416976E+04</pdfrwt>
<pdfrwt beam="2">  1       -1 0.11346563E+00 0.23416976E+04</pdfrwt>
<totfact> 0.58355561E+00</totfact>
</mgrwt>
</event>
<event>
12    7  0.1701638E-007  0.3174932E+04  0.7818608E-02  0.8195469E-01
          2   -1    0    0  501    0  0.00000000000E+00  0.00000000000E+00  0.23250322005E+04  0.23250322005E+04  0.00000000000E+00 0. -1.
         -1   -1    0    0    0  501 -0.00000000000E+00 -0.00000000000E+00 -0.10838765164E+04  0.10838765164E+04  0.00000000000E+00 0.  1.
         24    2    1    2    0    0 -0.13984821291E+04 -0.48863764763E+02  0.12907022001E+03  0.14074910234E+04  0.78942551193E+02 0.  0.
        254    2    1    2    0    0  0.13984821291E+04  0.48863764763E+02  0.11120854641E+04  0.20014176935E+04  0.90044365254E+03 0.  0.
         23    2    4    4    0    0  0.10860897394E+04 -0.13523670728E+03  0.35086206236E+03  0.11535234884E+04  0.98144599760E+02 0.  0.
         23    2    4    4    0    0  0.31239238967E+03  0.18410047204E+03  0.76122340170E+03  0.84789420502E+03  0.89339390483E+02 0.  0.
          2    1    3    3  502    0 -0.13212654767E+03  0.95891954079E+01  0.30642026291E+02  0.13597172884E+03  0.00000000000E+00 0. -1.
         -3    1    3    3    0  502 -0.12663555814E+04 -0.58452960171E+02  0.98428193718E+02  0.12715192946E+04  0.00000000000E+00 0.  1.
         13    1    5    5    0    0  0.51200565590E+03 -0.10136613758E+03  0.13361187034E+03  0.53877362353E+03  0.00000000000E+00 0.  1.
        -13    1    5    5    0    0  0.57408408355E+03 -0.33870569702E+02  0.21725019202E+03  0.61474986491E+03  0.00000000000E+00 0. -1.
          4    1    6    6  503    0  0.16003633610E+03  0.13266873565E+03  0.49497079402E+03  0.53685073272E+03  0.00000000000E+00 0. -1.
         -4    1    6    6    0  503  0.15235605356E+03  0.51431736396E+02  0.26625260768E+03  0.31104347230E+03  0.00000000000E+00 0.  1.
<mgrwt>
<rscale>  0 0.31749317E+04</rscale>
<asrwt>0</asrwt>
<pdfrwt beam="1">  1        2 0.35769726E+00 0.31749317E+04</pdfrwt>
<pdfrwt beam="2">  1       -1 0.16675023E+00 0.31749317E+04</pdfrwt>
<totfact> 0.10943715E+00</totfact>
</mgrwt>
</event>
<event>
12    7  0.1701638E-007  0.5469892E+04  0.7818608E-02  0.7759846E-01
         -1   -1    0    0    0  501 -0.00000000000E+00  0.00000000000E+00  0.17104476291E+04  0.17104476291E+04  0.00000000000E+00 0.  1.
          2   -1    0    0  501    0  0.00000000000E+00 -0.00000000000E+00 -0.43730833560E+04  0.43730833560E+04  0.00000000000E+00 0. -1.
         24    2    1    2    0    0 -0.79201173961E+03 -0.12193082530E+04  0.11778175196E+04  0.18728954777E+04  0.80549048060E+02 0.  0.
        254    2    1    2    0    0  0.79201173961E+03  0.12193082530E+04 -0.38404532466E+04  0.42106355074E+04  0.93079268656E+03 0.  0.
         23    2    4    4    0    0  0.71647494003E+03  0.10771141357E+04 -0.38079699040E+04  0.40227247278E+04  0.90378345832E+02 0.  0.
         23    2    4    4    0    0  0.75536799580E+02  0.14219411735E+03 -0.32483342667E+02  0.18791077961E+03  0.91270578198E+02 0.  0.
          4    1    3    3  502    0 -0.13808941678E+03 -0.22799455237E+03  0.17832171267E+03  0.32070053968E+03  0.00000000000E+00 0. -1.
         -3    1    3    3    0  502 -0.65392232283E+03 -0.99131370065E+03  0.99949580698E+03  0.15521949380E+04  0.00000000000E+00 0.  1.
         13    1    5    5    0    0  0.62140451570E+03  0.96204609111E+03 -0.32879925235E+04  0.34817482804E+04  0.00000000000E+00 0.  1.
        -13    1    5    5    0    0  0.95070424331E+02  0.11506804456E+03 -0.51997738046E+03  0.54097644741E+03  0.00000000000E+00 0. -1.
          2    1    6    6  503    0  0.79961833480E+02  0.59428428365E+02 -0.21500769843E+01  0.99650668550E+02  0.00000000000E+00 0. -1.
         -2    1    6    6    0  503 -0.44250338997E+01  0.82765688983E+02 -0.30333265683E+02  0.88260111063E+02  0.00000000000E+00 0.  1.
<mgrwt>
<rscale>  0 0.54698922E+04</rscale>
<asrwt>0</asrwt>
<pdfrwt beam="1">  1        2 0.67278205E+00 0.54698922E+04</pdfrwt>
<pdfrwt beam="2">  1       -1 0.26314579E+00 0.54698922E+04</pdfrwt>
<totfact> 0.73438127E-03</totfact>
</mgrwt>
</event>
<event>
12    7  0.1701638E-007  0.1371771E+04  0.7818608E-02  0.8974509E-01
         -1   -1    0    0    0  501 -0.00000000000E+00  0.00000000000E+00  0.35256105569E+03  0.35256105569E+03  0.00000000000E+00 0.  1.
          2   -1    0    0  501    0  0.00000000000E+00 -0.00000000000E+00 -0.13343474926E+04  0.13343474926E+04  0.00000000000E+00 0. -1.
         24    2    1    2    0    0  0.29543534652E+03 -0.64744320067E+02 -0.57417872216E+03  0.65375839864E+03  0.79025108986E+02 0.  0.
        254    2    1    2    0    0 -0.29543534652E+03  0.64744320067E+02 -0.40760771476E+03  0.10331501497E+04  0.89987849828E+03 0.  0.
         23    2    4    4    0    0 -0.47537909340E+03 -0.35358013477E+02  0.83488244544E+02  0.49234529011E+03  0.90543504250E+02 0.  0.
         23    2    4    4    0    0  0.17994374687E+03  0.10010233354E+03 -0.49109595930E+03  0.54080485956E+03  0.94310262731E+02 0.  0.
          2    1    3    3  502    0  0.28607269778E+03 -0.44388119538E+02 -0.54317903975E+03  0.61550902739E+03  0.00000000000E+00 0. -1.
         -1    1    3    3    0  502  0.93626487415E+01 -0.20356200528E+02 -0.30999682411E+02  0.38249371250E+02  0.00000000000E+00 0.  1.
         13    1    5    5    0    0 -0.86512592735E+02 -0.23793069132E+02 -0.15155364364E+02  0.90995735666E+02  0.00000000000E+00 0.  1.
        -13    1    5    5    0    0 -0.38886650066E+03 -0.11564944345E+02  0.98643608908E+02  0.40134955444E+03  0.00000000000E+00 0. -1.
          3    1    6    6  503    0  0.18694101765E+03  0.10031558570E+03 -0.43187605771E+03  0.48117261979E+03  0.00000000000E+00 0. -1.
         -3    1    6    6    0  503 -0.69972707748E+01 -0.21325215592E+00 -0.59219901589E+02  0.59632239762E+02  0.00000000000E+00 0.  1.
<mgrwt>
<rscale>  0 0.13717711E+04</rscale>
<asrwt>0</asrwt>
<pdfrwt beam="1">  1        2 0.20528423E+00 0.13717711E+04</pdfrwt>
<pdfrwt beam="2">  1       -1 0.54240162E-01 0.13717711E+04</pdfrwt>
<totfact> 0.60234476E+01</totfact>
</mgrwt>
</event>
<event>
12    7  0.1701638E-007  0.1079956E+04  0.7818608E-02  0.9224951E-01
         -1   -1    0    0    0  501 -0.00000000000E+00  0.00000000000E+00  0.88719753395E+02  0.88719753395E+02  0.00000000000E+00 0.  1.
          2   -1    0    0  501    0  0.00000000000E+00 -0.00000000000E+00 -0.32864873099E+04  0.32864873099E+04  0.00000000000E+00 0. -1.
         24    2    1    2    0    0  0.82246897294E+02  0.10128205275E+03 -0.70605138267E+03  0.72110226049E+03  0.66763079496E+02 0.  0.
        254    2    1    2    0    0 -0.82246897294E+02 -0.10128205275E+03 -0.24917161738E+04  0.26541048028E+04  0.90476527730E+03 0.  0.
         23    2    4    4    0    0  0.25851143409E+02 -0.30202495842E+03 -0.26218296753E+03  0.41113560800E+03  0.91680000958E+02 0.  0.
         23    2    4    4    0    0 -0.10809804070E+03  0.20074290567E+03 -0.22295332063E+04  0.22429691948E+04  0.90053263540E+02 0.  0.
          4    1    3    3  502    0  0.62337148203E+02  0.72224254559E+02 -0.63128740381E+03  0.63845598846E+03  0.00000000000E+00 0. -1.
         -3    1    3    3    0  502  0.19909749092E+02  0.29057798194E+02 -0.74763978867E+02  0.82646272032E+02  0.00000000000E+00 0.  1.
         13    1    5    5    0    0  0.32024284079E+02 -0.27439611828E+03 -0.19475704244E+03  0.33800752962E+03  0.00000000000E+00 0.  1.
        -13    1    5    5    0    0 -0.61731406691E+01 -0.27628840140E+02 -0.67425925090E+02  0.73128078379E+02  0.00000000000E+00 0. -1.
          2    1    6    6  503    0 -0.62104934902E+02  0.36274382984E+02 -0.52534709963E+03  0.53024751662E+03  0.00000000000E+00 0. -1.
         -2    1    6    6    0  503 -0.45993105802E+02  0.16446852269E+03 -0.17041861067E+04  0.17127216782E+04  0.00000000000E+00 0.  1.
<mgrwt>
<rscale>  0 0.10799562E+04</rscale>
<asrwt>0</asrwt>
<pdfrwt beam="1">  1        2 0.50561344E+00 0.10799562E+04</pdfrwt>
<pdfrwt beam="2">  1       -1 0.13649193E-01 0.10799562E+04</pdfrwt>
<totfact> 0.50736130E+01</totfact>
</mgrwt>
</event>
<event>
12    7  0.1701638E-007  0.2171768E+04  0.7818608E-02  0.8530272E-01
         -1   -1    0    0    0  501 -0.00000000000E+00  0.00000000000E+00  0.13696322526E+04  0.13696322526E+04  0.00000000000E+00 0.  1.
          2   -1    0    0  501    0  0.00000000000E+00 -0.00000000000E+00 -0.86092027642E+03  0.86092027642E+03  0.00000000000E+00 0. -1.
         24    2    1    2    0    0  0.25368922611E+02 -0.48730150331E+03  0.96211767677E+03  0.10818159735E+04  0.80926133578E+02 0.  0.
        254    2    1    2    0    0 -0.25368922611E+02  0.48730150331E+03 -0.45340570060E+03  0.11487365556E+04  0.93590202873E+03 0.  0.
         23    2    4    4    0    0  0.13048149238E+03  0.68226177665E+02 -0.63499204322E+03  0.65816654631E+03  0.91038873896E+02 0.  0.
         23    2    4    4    0    0 -0.15585041499E+03  0.41907532564E+03  0.18158634262E+03  0.49057000924E+03  0.88158117780E+02 0.  0.
          2    1    3    3  502    0  0.49775307187E+02 -0.19305862846E+03  0.38668908541E+03  0.43506052913E+03  0.00000000000E+00 0. -1.
         -1    1    3    3    0  502 -0.24406384575E+02 -0.29424287485E+03  0.57542859136E+03  0.64675544432E+03  0.00000000000E+00 0.  1.
         13    1    5    5    0    0  0.12133773953E+03  0.80976702655E+02 -0.46244698800E+03  0.48490956901E+03  0.00000000000E+00 0. -1.
        -13    1    5    5    0    0  0.91437528539E+01 -0.12750524989E+02 -0.17254505521E+03  0.17325697730E+03  0.00000000000E+00 0.  1.
          1    1    6    6  503    0 -0.16216233732E+03  0.35004584724E+03  0.16299141429E+03  0.41880176689E+03  0.00000000000E+00 0. -1.
         -1    1    6    6    0  503  0.63119223267E+01  0.69029478400E+02  0.18594928330E+02  0.71768242358E+02  0.00000000000E+00 0.  1.
<mgrwt>
<rscale>  0 0.21717681E+04</rscale>
<asrwt>0</asrwt>
<pdfrwt beam="1">  1        2 0.13244927E+00 0.21717681E+04</pdfrwt>
<pdfrwt beam="2">  1       -1 0.21071265E+00 0.21717681E+04</pdfrwt>
<totfact> 0.41439126E+00</totfact>
</mgrwt>
</event>
<event>
12    7  0.1701638E-007  0.2153127E+04  0.7818608E-02  0.8538195E-01
         -1   -1    0    0    0  501 -0.00000000000E+00  0.00000000000E+00  0.29873882687E+03  0.29873882687E+03  0.00000000000E+00 0.  1.
          2   -1    0    0  501    0  0.00000000000E+00 -0.00000000000E+00 -0.38796048316E+04  0.38796048316E+04  0.00000000000E+00 0. -1.
         24    2    1    2    0    0  0.36846899478E+03 -0.37275897917E+03 -0.28784973104E+04  0.29266656477E+04  0.70045633651E+02 0.  0.
        254    2    1    2    0    0 -0.36846899478E+03  0.37275897917E+03 -0.70236869428E+03  0.12516780107E+04  0.89367634138E+03 0.  0.
         23    2    4    4    0    0  0.78034446479E+02 -0.65950488487E+02 -0.59401431298E+03  0.60952212158E+03  0.90693830577E+02 0.  0.
         23    2    4    4    0    0 -0.44650344126E+03  0.43870946765E+03 -0.10835438131E+03  0.64215588914E+03  0.93766699537E+02 0.  0.
          2    1    3    3  502    0  0.25906370206E+03 -0.30465991484E+03 -0.21680986014E+04  0.22046730394E+04  0.00000000000E+00 0. -1.
         -1    1    3    3    0  502  0.10940529272E+03 -0.68099064327E+02 -0.71039870904E+03  0.72199260830E+03  0.00000000000E+00 0.  1.
         13    1    5    5    0    0  0.32459684721E+02 -0.49038551408E+02 -0.12666119342E+03  0.13964765868E+03  0.00000000000E+00 0.  1.
        -13    1    5    5    0    0  0.45574761757E+02 -0.16911937078E+02 -0.46735311956E+03  0.46987446290E+03  0.00000000000E+00 0. -1.
          4    1    6    6  503    0 -0.33491815599E+03  0.28971624037E+03 -0.10880730960E+03  0.45600954131E+03  0.00000000000E+00 0.  1.
         -4    1    6    6    0  503 -0.11158528527E+03  0.14899322728E+03  0.45292829362E+00  0.18614634782E+03  0.00000000000E+00 0. -1.
<mgrwt>
<rscale>  0 0.21531267E+04</rscale>
<asrwt>0</asrwt>
<pdfrwt beam="1">  1        2 0.59686227E+00 0.21531267E+04</pdfrwt>
<pdfrwt beam="2">  1       -1 0.45959820E-01 0.21531267E+04</pdfrwt>
<totfact> 0.21105298E+00</totfact>
</mgrwt>
</event>
<event>
12    7  0.1701638E-007  0.1820725E+04  0.7818608E-02  0.8695355E-01
         -1   -1    0    0    0  501 -0.00000000000E+00  0.00000000000E+00  0.85889220927E+03  0.85889220927E+03  0.00000000000E+00 0.  1.
          2   -1    0    0  501    0  0.00000000000E+00 -0.00000000000E+00 -0.96491714963E+03  0.96491714963E+03  0.00000000000E+00 0. -1.
         24    2    1    2    0    0 -0.34511556686E+03  0.16447267299E+03 -0.61209231153E+03  0.72555665286E+03  0.74962951105E+02 0.  0.
        254    2    1    2    0    0  0.34511556686E+03 -0.16447267299E+03  0.50606737117E+03  0.10982527060E+04  0.89660404165E+03 0.  0.
         23    2    4    4    0    0  0.17785394800E+03  0.22856629869E+03  0.58051179143E+03  0.65526896108E+03  0.92243653682E+02 0.  0.
         23    2    4    4    0    0  0.16726161885E+03 -0.39303897168E+03 -0.74444420264E+02  0.44298374496E+03  0.90755408580E+02 0.  0.
          4    1    3    3  502    0 -0.31427891686E+03  0.17105569502E+03 -0.56913085841E+03  0.67226573791E+03  0.00000000000E+00 0. -1.
         -3    1    3    3    0  502 -0.30836650000E+02 -0.65830220303E+01 -0.42961453119E+02  0.53290914951E+02  0.00000000000E+00 0.  1.
         13    1    5    5    0    0  0.38734019958E+02  0.16531284582E+02  0.14816028909E+03  0.15402947425E+03  0.00000000000E+00 0. -1.
        -13    1    5    5    0    0  0.13911992805E+03  0.21203501411E+03  0.43235150234E+03  0.50123948683E+03  0.00000000000E+00 0.  1.
          2    1    6    6  503    0  0.23828845891E+02 -0.30790080307E+02 -0.33251330262E+02  0.51200526423E+02  0.00000000000E+00 0. -1.
         -2    1    6    6    0  503  0.14343277296E+03 -0.36224889137E+03 -0.41193090003E+02  0.39178321853E+03  0.00000000000E+00 0.  1.
<mgrwt>
<rscale>  0 0.18207249E+04</rscale>
<asrwt>0</asrwt>
<pdfrwt beam="1">  1        2 0.14844879E+00 0.18207249E+04</pdfrwt>
<pdfrwt beam="2">  1       -1 0.13213726E+00 0.18207249E+04</pdfrwt>
<totfact> 0.13890965E+01</totfact>
</mgrwt>
</event>
<event>
12    7  0.1701638E-007  0.3173347E+04  0.7818608E-02  0.8195892E-01
         -1   -1    0    0    0  501 -0.00000000000E+00  0.00000000000E+00  0.16673082849E+04  0.16673082849E+04  0.00000000000E+00 0.  1.
          2   -1    0    0  501    0  0.00000000000E+00 -0.00000000000E+00 -0.15099383285E+04  0.15099383285E+04  0.00000000000E+00 0. -1.
         24    2    1    2    0    0 -0.96950548810E+03  0.37557258558E+03 -0.94912836658E+03  0.14100502494E+04  0.80008693693E+02 0.  0.
        254    2    1    2    0    0  0.96950548810E+03 -0.37557258558E+03  0.11064983229E+04  0.17671963640E+04  0.90423934422E+03 0.  0.
         23    2    4    4    0    0  0.79389696074E+03 -0.19532913545E+03  0.12233233102E+04  0.14742134177E+04  0.91429885573E+02 0.  0.
         23    2    4    4    0    0  0.17560852736E+03 -0.18024345013E+03 -0.11682498730E+03  0.29298294631E+03  0.94153454396E+02 0.  0.
          2    1    3    3  502    0 -0.87099488900E+03  0.31036489846E+03 -0.84318026674E+03  0.12513638276E+04  0.00000000000E+00 0. -1.
         -1    1    3    3    0  502 -0.98510599105E+02  0.65207687117E+02 -0.10594809984E+03  0.15868642177E+03  0.00000000000E+00 0.  1.
         13    1    5    5    0    0  0.12117315734E+03 -0.48860230652E+01  0.14450159048E+03  0.18864653968E+03  0.00000000000E+00 0. -1.
        -13    1    5    5    0    0  0.67272380341E+03 -0.19044311238E+03  0.10788217198E+04  0.12855668780E+04  0.00000000000E+00 0.  1.
          1    1    6    6  503    0  0.12911177242E+03 -0.17428459310E+03 -0.73118286106E+02  0.22889135618E+03  0.00000000000E+00 0. -1.
         -1    1    6    6    0  503  0.46496754935E+02 -0.59588570347E+01 -0.43706701193E+02  0.64091590133E+02  0.00000000000E+00 0.  1.
<mgrwt>
<rscale>  0 0.31733469E+04</rscale>
<asrwt>0</asrwt>
<pdfrwt beam="1">  1        2 0.23229821E+00 0.31733469E+04</pdfrwt>
<pdfrwt beam="2">  1       -1 0.25650897E+00 0.31733469E+04</pdfrwt>
<totfact> 0.76118877E-01</totfact>
</mgrwt>
</event>
<event>
12    7  0.1701638E-007  0.3055964E+04  0.7818608E-02  0.8227928E-01
         -1   -1    0    0    0  501 -0.00000000000E+00  0.00000000000E+00  0.21329309334E+04  0.21329309334E+04  0.00000000000E+00 0.  1.
          2   -1    0    0  501    0  0.00000000000E+00 -0.00000000000E+00 -0.10946106552E+04  0.10946106552E+04  0.00000000000E+00 0. -1.
         24    2    1    2    0    0 -0.74381820253E+03 -0.36758787334E+03 -0.71182417702E+03  0.10960413789E+04  0.78909329157E+02 0.  0.
        254    2    1    2    0    0  0.74381820253E+03  0.36758787334E+03  0.17501444552E+04  0.21315002097E+04  0.88988828892E+03 0.  0.
         23    2    4    4    0    0  0.27271380643E+03  0.60132793632E+03  0.11402072917E+04  0.13207985387E+04  0.92021762143E+02 0.  0.
         23    2    4    4    0    0  0.47110439610E+03 -0.23374006297E+03  0.60993716353E+03  0.81070167096E+03  0.92952067069E+02 0.  0.
          2    1    3    3  502    0 -0.63211793196E+03 -0.32066622330E+03 -0.64127810396E+03  0.95584387496E+03  0.00000000000E+00 0. -1.
         -1    1    3    3    0  502 -0.11170027057E+03 -0.46921650040E+02 -0.70546073057E+02  0.14019750394E+03  0.00000000000E+00 0.  1.
         13    1    5    5    0    0  0.19989787660E+03  0.33091916054E+03  0.65765405201E+03  0.76287318999E+03  0.00000000000E+00 0.  1.
        -13    1    5    5    0    0  0.72815929831E+02  0.27040877577E+03  0.48255323968E+03  0.55792534875E+03  0.00000000000E+00 0. -1.
          1    1    6    6  503    0  0.62211355946E+01 -0.13789863520E+02  0.41345965000E+02  0.44026715591E+02  0.00000000000E+00 0. -1.
         -1    1    6    6    0  503  0.46488326051E+03 -0.21995019945E+03  0.56859119853E+03  0.76667495537E+03  0.00000000000E+00 0.  1.
<mgrwt>
<rscale>  0 0.30559640E+04</rscale>
<asrwt>0</asrwt>
<pdfrwt beam="1">  1        2 0.16840164E+00 0.30559640E+04</pdfrwt>
<pdfrwt beam="2">  1       -1 0.32814322E+00 0.30559640E+04</pdfrwt>
<totfact> 0.46137491E-01</totfact>
</mgrwt>
</event>
<event>
12    7  0.1701638E-007  0.1891777E+04  0.7818608E-02  0.8658960E-01
          2   -1    0    0  501    0  0.00000000000E+00  0.00000000000E+00  0.60523738782E+03  0.60523738782E+03  0.00000000000E+00 0. -1.
         -1   -1    0    0    0  501 -0.00000000000E+00 -0.00000000000E+00 -0.14782708319E+04  0.14782708319E+04  0.00000000000E+00 0.  1.
         24    2    1    2    0    0 -0.74102954229E+02 -0.75350501394E+03 -0.27224970935E+03  0.80869627865E+03  0.81293991242E+02 0.  0.
        254    2    1    2    0    0  0.74102954229E+02  0.75350501394E+03 -0.60078373470E+03  0.12748119410E+04  0.83123001346E+03 0.  0.
         23    2    4    4    0    0  0.34391977247E+03  0.71430625939E+03 -0.58104483356E+03  0.98672526792E+03  0.86599155002E+02 0.  0.
         23    2    4    4    0    0 -0.26981681824E+03  0.39198754542E+02 -0.19738901145E+02  0.28808667312E+03  0.90921115521E+02 0.  0.
          2    1    3    3  502    0 -0.16499244111E+02 -0.23066214288E+02 -0.15421879430E+02  0.32281723359E+02  0.00000000000E+00 0. -1.
         -1    1    3    3    0  502 -0.57603710118E+02 -0.73043879965E+03 -0.25682782992E+03  0.77641455529E+03  0.00000000000E+00 0.  1.
         13    1    5    5    0    0  0.12923752339E+03  0.28364366865E+03 -0.17742205989E+03  0.35865673778E+03  0.00000000000E+00 0.  1.
        -13    1    5    5    0    0  0.21468224907E+03  0.43066259074E+03 -0.40362277366E+03  0.62806853014E+03  0.00000000000E+00 0. -1.
          2    1    6    6  503    0 -0.15502146593E+03  0.67258867130E+02 -0.56871666027E+01  0.16907913524E+03  0.00000000000E+00 0. -1.
         -2    1    6    6    0  503 -0.11479535230E+03 -0.28060112588E+02 -0.14051734542E+02  0.11900753788E+03  0.00000000000E+00 0.  1.
<mgrwt>
<rscale>  0 0.18917767E+04</rscale>
<asrwt>0</asrwt>
<pdfrwt beam="1">  1        2 0.93113445E-01 0.18917767E+04</pdfrwt>
<pdfrwt beam="2">  1       -1 0.22742628E+00 0.18917767E+04</pdfrwt>
<totfact> 0.51566977E+00</totfact>
</mgrwt>
</event>
<event>
12    7  0.1701638E-007  0.1819304E+04  0.7818608E-02  0.8696100E-01
          2   -1    0    0  501    0  0.00000000000E+00  0.00000000000E+00  0.12455878996E+04  0.12455878996E+04  0.00000000000E+00 0. -1.
         -1   -1    0    0    0  501 -0.00000000000E+00 -0.00000000000E+00 -0.66431851079E+03  0.66431851079E+03  0.00000000000E+00 0.  1.
         24    2    1    2    0    0  0.32886412422E+03 -0.19846633814E+03  0.81752034092E+03  0.90671116149E+03  0.79026090428E+02 0.  0.
        254    2    1    2    0    0 -0.32886412422E+03  0.19846633814E+03 -0.23625095209E+03  0.10031952489E+04  0.89612816915E+03 0.  0.
         23    2    4    4    0    0 -0.57754850682E+03 -0.52076919853E+02 -0.25200658236E+03  0.63811593346E+03  0.86083353021E+02 0.  0.
         23    2    4    4    0    0  0.24868438260E+03  0.25054325799E+03  0.15755630264E+02  0.36507931547E+03  0.91754130287E+02 0.  0.
          2    1    3    3  502    0  0.26210189495E+03 -0.11778221499E+03  0.59092532412E+03  0.65708659413E+03  0.00000000000E+00 0. -1.
         -1    1    3    3    0  502  0.66762229264E+02 -0.80684123152E+02  0.22659501681E+03  0.24962456735E+03  0.00000000000E+00 0.  1.
         13    1    5    5    0    0 -0.23498514550E+02 -0.43358716998E+01  0.66483304832E+01  0.24802827815E+02  0.00000000000E+00 0.  1.
        -13    1    5    5    0    0 -0.55404999227E+03 -0.47741048153E+02 -0.25865491284E+03  0.61331310564E+03  0.00000000000E+00 0. -1.
          4    1    6    6  503    0  0.76654999000E+02  0.12148441972E+03  0.38785239299E+02  0.14879095367E+03  0.00000000000E+00 0. -1.
         -4    1    6    6    0  503  0.17202938360E+03  0.12905883827E+03 -0.23029609035E+02  0.21628836180E+03  0.00000000000E+00 0.  1.
<mgrwt>
<rscale>  0 0.18193044E+04</rscale>
<asrwt>0</asrwt>
<pdfrwt beam="1">  1        2 0.19162891E+00 0.18193044E+04</pdfrwt>
<pdfrwt beam="2">  1       -1 0.10220285E+00 0.18193044E+04</pdfrwt>
<totfact> 0.17336128E+01</totfact>
</mgrwt>
</event>
<event>
12    7  0.1701638E-007  0.2086114E+04  0.7818608E-02  0.8567385E-01
         -1   -1    0    0    0  501 -0.00000000000E+00  0.00000000000E+00  0.84092077367E+03  0.84092077367E+03  0.00000000000E+00 0.  1.
          2   -1    0    0  501    0  0.00000000000E+00 -0.00000000000E+00 -0.12937815206E+04  0.12937815206E+04  0.00000000000E+00 0. -1.
         24    2    1    2    0    0  0.85209991480E+03  0.66971225480E+02 -0.20937734813E+03  0.88362823484E+03  0.80003585315E+02 0.  0.
        254    2    1    2    0    0 -0.85209991480E+03 -0.66971225480E+02 -0.24348339882E+03  0.12510740594E+04  0.88053547736E+03 0.  0.
         23    2    4    4    0    0 -0.33661541393E+03 -0.14921796511E+03 -0.52774003307E+03  0.64967891842E+03  0.89427157670E+02 0.  0.
         23    2    4    4    0    0 -0.51548450086E+03  0.82246739632E+02  0.28425663425E+03  0.60139514103E+03  0.91572292353E+02 0.  0.
          2    1    3    3  502    0  0.29377247521E+03  0.31490665517E+02 -0.11084560452E+03  0.31556406203E+03  0.00000000000E+00 0. -1.
         -1    1    3    3    0  502  0.55832743959E+03  0.35480559963E+02 -0.98531743606E+02  0.56806417281E+03  0.00000000000E+00 0.  1.
         13    1    5    5    0    0 -0.23652444373E+03 -0.12753391094E+03 -0.43615114532E+03  0.51228559660E+03  0.00000000000E+00 0.  1.
        -13    1    5    5    0    0 -0.10009097021E+03 -0.21684054174E+02 -0.91588887750E+02  0.13739332182E+03  0.00000000000E+00 0. -1.
          1    1    6    6  503    0 -0.10995139311E+03  0.47881817910E+02  0.92731795430E+02  0.15159539313E+03  0.00000000000E+00 0. -1.
         -1    1    6    6    0  503 -0.40553310775E+03  0.34364921721E+02  0.19152483882E+03  0.44979974790E+03  0.00000000000E+00 0.  1.
<mgrwt>
<rscale>  0 0.20861139E+04</rscale>
<asrwt>0</asrwt>
<pdfrwt beam="1">  1        2 0.19904331E+00 0.20861139E+04</pdfrwt>
<pdfrwt beam="2">  1       -1 0.12937243E+00 0.20861139E+04</pdfrwt>
<totfact> 0.90006064E+00</totfact>
</mgrwt>
</event>
<event>
12    7  0.1701638E-007  0.1339972E+04  0.7818608E-02  0.8998454E-01
         -1   -1    0    0    0  501 -0.00000000000E+00  0.00000000000E+00  0.46994732432E+03  0.46994732432E+03  0.00000000000E+00 0.  1.
          2   -1    0    0  501    0  0.00000000000E+00 -0.00000000000E+00 -0.95517320839E+03  0.95517320839E+03  0.00000000000E+00 0. -1.
         24    2    1    2    0    0  0.21386812833E+03  0.25268339743E+03  0.23927608458E+02  0.34143429690E+03  0.80102265890E+02 0.  0.
        254    2    1    2    0    0 -0.21386812833E+03 -0.25268339743E+03 -0.50915349253E+03  0.10836862358E+04  0.89752443036E+03 0.  0.
         23    2    4    4    0    0 -0.50256212312E+03  0.58656401951E+02 -0.20554944602E+03  0.55392535671E+03  0.92593007067E+02 0.  0.
         23    2    4    4    0    0  0.28869399479E+03 -0.31133979938E+03 -0.30360404651E+03  0.52976087911E+03  0.90523359811E+02 0.  0.
          4    1    3    3  502    0 -0.51428978489E+00  0.31198197022E+02 -0.58762227236E+01  0.31750936757E+02  0.00000000000E+00 0. -1.
         -3    1    3    3    0  502  0.21438241811E+03  0.22148520041E+03  0.29803831181E+02  0.30968336014E+03  0.00000000000E+00 0.  1.
         13    1    5    5    0    0 -0.14340463532E+03  0.94142857979E+00 -0.10109802188E+03  0.17546106618E+03  0.00000000000E+00 0. -1.
        -13    1    5    5    0    0 -0.35915748781E+03  0.57714973371E+02 -0.10445142414E+03  0.37846429053E+03  0.00000000000E+00 0.  1.
          1    1    6    6  503    0  0.84582150237E+02 -0.71379367801E+02 -0.35906549723E+02  0.11635477901E+03  0.00000000000E+00 0. -1.
         -1    1    6    6    0  503  0.20411184456E+03 -0.23996043158E+03 -0.26769749678E+03  0.41340610010E+03  0.00000000000E+00 0.  1.
<mgrwt>
<rscale>  0 0.13399718E+04</rscale>
<asrwt>0</asrwt>
<pdfrwt beam="1">  1        2 0.14694972E+00 0.13399718E+04</pdfrwt>
<pdfrwt beam="2">  1       -1 0.72299589E-01 0.13399718E+04</pdfrwt>
<totfact> 0.57996770E+01</totfact>
</mgrwt>
</event>
<event>
12    7  0.1701638E-007  0.2778509E+04  0.7818608E-02  0.8309972E-01
          2   -1    0    0  501    0  0.00000000000E+00  0.00000000000E+00  0.11001876294E+04  0.11001876294E+04  0.00000000000E+00 0. -1.
         -1   -1    0    0    0  501 -0.00000000000E+00 -0.00000000000E+00 -0.17542712936E+04  0.17542712936E+04  0.00000000000E+00 0.  1.
         24    2    1    2    0    0 -0.59719670468E+02 -0.10800171897E+04  0.31652022560E+03  0.11299209869E+04  0.80825827069E+02 0.  0.
        254    2    1    2    0    0  0.59719670468E+02  0.10800171897E+04 -0.97060388980E+03  0.17245379362E+04  0.92841564679E+03 0.  0.
         23    2    4    4    0    0  0.27154751564E+03  0.48841233460E+03 -0.21993458738E+01  0.56603125115E+03  0.90010434489E+02 0.  0.
         23    2    4    4    0    0 -0.21182784517E+03  0.59160485512E+03 -0.96840454392E+03  0.11585066850E+04  0.97278147163E+02 0.  0.
          2    1    3    3  502    0 -0.61766032898E+02 -0.10806999506E+04  0.31533167439E+03  0.11274579775E+04  0.00000000000E+00 0. -1.
         -1    1    3    3    0  502  0.20463624303E+01  0.68276088184E+00  0.11885512096E+01  0.24630094591E+01  0.00000000000E+00 0.  1.
         13    1    5    5    0    0  0.21124260043E+02  0.78871746497E+02  0.24513016574E+02  0.85251831297E+02  0.00000000000E+00 0. -1.
        -13    1    5    5    0    0  0.25042325559E+03  0.40954058811E+03 -0.26712362448E+02  0.48077941985E+03  0.00000000000E+00 0.  1.
          4    1    6    6  503    0 -0.20482908268E+03  0.53612432194E+03 -0.92106371994E+03  0.10852385074E+04  0.00000000000E+00 0.  1.
         -4    1    6    6    0  503 -0.69987624930E+01  0.55480533183E+02 -0.47340823982E+02  0.73268177635E+02  0.00000000000E+00 0. -1.
<mgrwt>
<rscale>  0 0.27785086E+04</rscale>
<asrwt>0</asrwt>
<pdfrwt beam="1">  1        2 0.16925964E+00 0.27785086E+04</pdfrwt>
<pdfrwt beam="2">  1       -1 0.26988789E+00 0.27785086E+04</pdfrwt>
<totfact> 0.11197498E+00</totfact>
</mgrwt>
</event>
<event>
12    7  0.1701638E-007  0.2262991E+04  0.7818608E-02  0.8492658E-01
         -1   -1    0    0    0  501 -0.00000000000E+00  0.00000000000E+00  0.56694594976E+03  0.56694594976E+03  0.00000000000E+00 0.  1.
          2   -1    0    0  501    0  0.00000000000E+00 -0.00000000000E+00 -0.22582083482E+04  0.22582083482E+04  0.00000000000E+00 0. -1.
         24    2    1    2    0    0 -0.61860850004E+03  0.11624378159E+03 -0.15917469200E+04  0.17136019491E+04  0.81143634903E+02 0.  0.
        254    2    1    2    0    0  0.61860850004E+03 -0.11624378159E+03 -0.99515478420E+02  0.11115523489E+04  0.91074486039E+03 0.  0.
         23    2    4    4    0    0  0.30568695686E+03  0.38333833579E+03 -0.12690306521E+03  0.51452033198E+03  0.90741328942E+02 0.  0.
         23    2    4    4    0    0  0.31292154318E+03 -0.49958211738E+03  0.27387586793E+02  0.59703201688E+03  0.90526046379E+02 0.  0.
          2    1    3    3  502    0 -0.26879668778E+03  0.70977650689E+02 -0.79700304963E+03  0.84409913362E+03  0.00000000000E+00 0. -1.
         -1    1    3    3    0  502 -0.34981181226E+03  0.45266130902E+02 -0.79474387036E+03  0.86950281545E+03  0.00000000000E+00 0.  1.
         13    1    5    5    0    0  0.38235604146E+02  0.65936404235E+02 -0.53243836352E+02  0.92975679279E+02  0.00000000000E+00 0. -1.
        -13    1    5    5    0    0  0.26745135271E+03  0.31740193156E+03 -0.73659228861E+02  0.42154465270E+03  0.00000000000E+00 0.  1.
          2    1    6    6  503    0  0.26482893403E+03 -0.47099194925E+03  0.21408262982E+02  0.54076436114E+03  0.00000000000E+00 0.  1.
         -2    1    6    6    0  503  0.48092609153E+02 -0.28590168133E+02  0.59793238111E+01  0.56267655738E+02  0.00000000000E+00 0. -1.
<mgrwt>
<rscale>  0 0.22629910E+04</rscale>
<asrwt>0</asrwt>
<pdfrwt beam="1">  1        2 0.34741667E+00 0.22629910E+04</pdfrwt>
<pdfrwt beam="2">  1       -1 0.87222454E-01 0.22629910E+04</pdfrwt>
<totfact> 0.64109417E+00</totfact>
</mgrwt>
</event>
<event>
12    7  0.1701638E-007  0.2415952E+04  0.7818608E-02  0.8433555E-01
         -1   -1    0    0    0  501 -0.00000000000E+00  0.00000000000E+00  0.11514827594E+04  0.11514827594E+04  0.00000000000E+00 0.  1.
          2   -1    0    0  501    0  0.00000000000E+00 -0.00000000000E+00 -0.12672409734E+04  0.12672409734E+04  0.00000000000E+00 0. -1.
         24    2    1    2    0    0  0.36879633722E+03  0.84705295529E+03 -0.52776881911E+03  0.10669597011E+04  0.79709660687E+02 0.  0.
        254    2    1    2    0    0 -0.36879633722E+03 -0.84705295529E+03  0.41201060513E+03  0.13517640317E+04  0.89666259613E+03 0.  0.
         23    2    4    4    0    0 -0.65388034765E+03 -0.64565845316E+03  0.26037471074E+03  0.96036178865E+03  0.10032660630E+03 0.  0.
         23    2    4    4    0    0  0.28508401043E+03 -0.20139450213E+03  0.15163589439E+03  0.39140224307E+03  0.91485697884E+02 0.  0.
          2    1    3    3  502    0  0.15669152698E+03  0.39147689655E+03 -0.28426789758E+03  0.50854167258E+03  0.00000000000E+00 0. -1.
         -1    1    3    3    0  502  0.21210481024E+03  0.45557605874E+03 -0.24350092153E+03  0.55841802855E+03  0.00000000000E+00 0.  1.
         13    1    5    5    0    0 -0.34167007898E+02 -0.53960712043E+02 -0.30938764886E+01  0.63943060176E+02  0.00000000000E+00 0. -1.
        -13    1    5    5    0    0 -0.61971333975E+03 -0.59169774112E+03  0.26346858723E+03  0.89641872848E+03  0.00000000000E+00 0.  1.
          1    1    6    6  503    0  0.59437642138E+01 -0.35758976521E+02  0.14796583839E+02  0.39153181585E+02  0.00000000000E+00 0. -1.
         -1    1    6    6    0  503  0.27914024622E+03 -0.16563552561E+03  0.13683931055E+03  0.35224906148E+03  0.00000000000E+00 0.  1.
<mgrwt>
<rscale>  0 0.24159521E+04</rscale>
<asrwt>0</asrwt>
<pdfrwt beam="1">  1        2 0.19496015E+00 0.24159521E+04</pdfrwt>
<pdfrwt beam="2">  1       -1 0.17715119E+00 0.24159521E+04</pdfrwt>
<totfact> 0.38586711E+00</totfact>
</mgrwt>
</event>
<event>
12    7  0.1701638E-007  0.1052422E+04  0.7818608E-02  0.9252847E-01
          2   -1    0    0  501    0  0.00000000000E+00  0.00000000000E+00  0.71983596827E+03  0.71983596827E+03  0.00000000000E+00 0. -1.
         -1   -1    0    0    0  501 -0.00000000000E+00 -0.00000000000E+00 -0.38466833781E+03  0.38466833781E+03  0.00000000000E+00 0.  1.
         24    2    1    2    0    0  0.97741830916E+02  0.24333045123E+02 -0.36021872230E+02  0.13401978034E+03  0.80735145059E+02 0.  0.
        254    2    1    2    0    0 -0.97741830916E+02 -0.24333045123E+02  0.37118950268E+03  0.97048452574E+03  0.89101796009E+03 0.  0.
         23    2    4    4    0    0 -0.18429839171E+03 -0.19484651804E+03 -0.20938788893E+03  0.35239323517E+03  0.91687738454E+02 0.  0.
         23    2    4    4    0    0  0.86556560793E+02  0.17051347292E+03  0.58057739161E+03  0.61809129057E+03  0.91650712852E+02 0.  0.
          4    1    3    3  502    0 -0.55088199694E+01  0.30549558803E+01  0.15464648526E+02  0.16698359408E+02  0.00000000000E+00 0. -1.
         -3    1    3    3    0  502  0.10325065089E+03  0.21278089243E+02 -0.51486520755E+02  0.11732142093E+03  0.00000000000E+00 0.  1.
         13    1    5    5    0    0 -0.48373491163E+02 -0.79698282340E+02 -0.12319260346E+03  0.15449345748E+03  0.00000000000E+00 0.  1.
        -13    1    5    5    0    0 -0.13592490055E+03 -0.11514823570E+03 -0.86195285468E+02  0.19789977769E+03  0.00000000000E+00 0. -1.
          4    1    6    6  503    0  0.87349620614E+02  0.14965026495E+03  0.56771238600E+03  0.59356761303E+03  0.00000000000E+00 0. -1.
         -4    1    6    6    0  503 -0.79305982169E+00  0.20863207972E+02  0.12865005612E+02  0.24523677541E+02  0.00000000000E+00 0.  1.
<mgrwt>
<rscale>  0 0.10524222E+04</rscale>
<asrwt>0</asrwt>
<pdfrwt beam="1">  1        2 0.11074399E+00 0.10524222E+04</pdfrwt>
<pdfrwt beam="2">  1       -1 0.59179744E-01 0.10524222E+04</pdfrwt>
<totfact> 0.13010974E+02</totfact>
</mgrwt>
</event>
<event>
12    7  0.1701638E-007  0.2208406E+04  0.7818608E-02  0.8514937E-01
         -1   -1    0    0    0  501 -0.00000000000E+00  0.00000000000E+00  0.57822026211E+03  0.57822026211E+03  0.00000000000E+00 0.  1.
          2   -1    0    0  501    0  0.00000000000E+00 -0.00000000000E+00 -0.21086506432E+04  0.21086506432E+04  0.00000000000E+00 0. -1.
         24    2    1    2    0    0  0.76082883443E+03  0.66258065140E+02 -0.16441612415E+02  0.76802795516E+03  0.79661576674E+02 0.  0.
        254    2    1    2    0    0 -0.76082883443E+03 -0.66258065140E+02 -0.15139887687E+04  0.19188429502E+04  0.89807885468E+03 0.  0.
         23    2    4    4    0    0 -0.24094242521E+03 -0.38129210688E+03 -0.27776743047E+03  0.53809010397E+03  0.94600695152E+02 0.  0.
         23    2    4    4    0    0 -0.51988640922E+03  0.31503404174E+03 -0.12362213382E+04  0.13807528462E+04  0.93310767377E+02 0.  0.
          2    1    3    3  502    0  0.99346944737E+02 -0.12601172644E+02 -0.18615609865E+02  0.10185846018E+03  0.00000000000E+00 0. -1.
         -1    1    3    3    0  502  0.66148188969E+03  0.78859237784E+02  0.21739974497E+01  0.66616949498E+03  0.00000000000E+00 0.  1.
         13    1    5    5    0    0 -0.14421490567E+03 -0.27280988943E+03 -0.14387537434E+03  0.34047510648E+03  0.00000000000E+00 0. -1.
        -13    1    5    5    0    0 -0.96727519537E+02 -0.10848221745E+03 -0.13389205613E+03  0.19761499749E+03  0.00000000000E+00 0.  1.
          3    1    6    6  503    0 -0.27794296127E+03  0.14974613031E+03 -0.54235568644E+03  0.62755548271E+03  0.00000000000E+00 0. -1.
         -3    1    6    6    0  503 -0.24194344795E+03  0.16528791143E+03 -0.69386565179E+03  0.75319736351E+03  0.00000000000E+00 0.  1.
<mgrwt>
<rscale>  0 0.22084062E+04</rscale>
<asrwt>0</asrwt>
<pdfrwt beam="1">  1        2 0.32440779E+00 0.22084062E+04</pdfrwt>
<pdfrwt beam="2">  1       -1 0.88956963E-01 0.22084062E+04</pdfrwt>
<totfact> 0.74862800E+00</totfact>
</mgrwt>
</event>
<event>
12    7  0.1701638E-007  0.1484400E+04  0.7818608E-02  0.8894894E-01
          2   -1    0    0  501    0  0.00000000000E+00  0.00000000000E+00  0.36306203194E+04  0.36306203194E+04  0.00000000000E+00 0. -1.
         -1   -1    0    0    0  501 -0.00000000000E+00 -0.00000000000E+00 -0.15172631449E+03  0.15172631449E+03  0.00000000000E+00 0.  1.
         24    2    1    2    0    0 -0.16162896988E+03  0.44267005091E+03  0.93826313088E+03  0.10530413937E+04  0.80484633634E+02 0.  0.
        254    2    1    2    0    0  0.16162896988E+03 -0.44267005091E+03  0.25406308740E+04  0.27293052401E+04  0.87876114956E+03 0.  0.
         23    2    4    4    0    0 -0.27268416787E+03 -0.10951113488E+03  0.33645090843E+03  0.45627749477E+03  0.92954797532E+02 0.  0.
         23    2    4    4    0    0  0.43431313774E+03 -0.33315891604E+03  0.22041799656E+04  0.22730277453E+04  0.92860355310E+02 0.  0.
          2    1    3    3  502    0 -0.45726747887E+02  0.49410020582E+02  0.11257103604E+03  0.13116601603E+03  0.00000000000E+00 0. -1.
         -1    1    3    3    0  502 -0.11590222199E+03  0.39326003033E+03  0.82569209485E+03  0.92187537770E+03  0.00000000000E+00 0.  1.
         13    1    5    5    0    0 -0.45735917811E+02 -0.44217055494E+02  0.32704053515E+02  0.71529555366E+02  0.00000000000E+00 0. -1.
        -13    1    5    5    0    0 -0.22694825005E+03 -0.65294079384E+02  0.30374685491E+03  0.38474793940E+03  0.00000000000E+00 0.  1.
          4    1    6    6  503    0  0.17780646508E+02 -0.41356715667E+02  0.13701310481E+03  0.14421900086E+03  0.00000000000E+00 0. -1.
         -4    1    6    6    0  503  0.41653249123E+03 -0.29180220037E+03  0.20671668608E+04  0.21288087445E+04  0.00000000000E+00 0.  1.
<mgrwt>
<rscale>  0 0.14843997E+04</rscale>
<asrwt>0</asrwt>
<pdfrwt beam="1">  1        2 0.55855691E+00 0.14843997E+04</pdfrwt>
<pdfrwt beam="2">  1       -1 0.23342513E-01 0.14843997E+04</pdfrwt>
<totfact> 0.11578760E+01</totfact>
</mgrwt>
</event>
<event>
12    7  0.1701638E-007  0.1481309E+04  0.7818608E-02  0.8896978E-01
          2   -1    0    0  501    0  0.00000000000E+00  0.00000000000E+00  0.17217688421E+04  0.17217688421E+04  0.00000000000E+00 0. -1.
         -1   -1    0    0    0  501 -0.00000000000E+00 -0.00000000000E+00 -0.31860771596E+03  0.31860771596E+03  0.00000000000E+00 0.  1.
         24    2    1    2    0    0  0.27351659790E+03  0.20361989410E+03  0.87366953841E+03  0.94126865671E+03  0.80098883646E+02 0.  0.
        254    2    1    2    0    0 -0.27351659790E+03 -0.20361989410E+03  0.52949158770E+03  0.10991079013E+04  0.90077991026E+03 0.  0.
         23    2    4    4    0    0 -0.40265819875E+03  0.21988900476E+03  0.43136695811E+03  0.63602445821E+03  0.89246061323E+02 0.  0.
         23    2    4    4    0    0  0.12914160085E+03 -0.42350889886E+03  0.98124629596E+02  0.46308344312E+03  0.93704278888E+02 0.  0.
          2    1    3    3  502    0  0.13465083083E+03  0.14932164656E+03  0.49060483822E+03  0.53020836250E+03  0.00000000000E+00 0. -1.
         -1    1    3    3    0  502  0.13886576707E+03  0.54298247541E+02  0.38306470019E+03  0.41106029421E+03  0.00000000000E+00 0.  1.
         13    1    5    5    0    0 -0.36883131084E+03  0.20220645583E+03  0.35403752546E+03  0.54978773729E+03  0.00000000000E+00 0. -1.
        -13    1    5    5    0    0 -0.33826887902E+02  0.17682548926E+02  0.77329432643E+02  0.86236720917E+02  0.00000000000E+00 0.  1.
          2    1    6    6  503    0  0.10450606746E+03 -0.26990205592E+03  0.10361656780E+03  0.30741670587E+03  0.00000000000E+00 0. -1.
         -2    1    6    6    0  503  0.24635533391E+02 -0.15360684293E+03 -0.54919382025E+01  0.15566673725E+03  0.00000000000E+00 0.  1.
<mgrwt>
<rscale>  0 0.14813087E+04</rscale>
<asrwt>0</asrwt>
<pdfrwt beam="1">  1        2 0.26488751E+00 0.14813087E+04</pdfrwt>
<pdfrwt beam="2">  1       -1 0.49016573E-01 0.14813087E+04</pdfrwt>
<totfact> 0.43819953E+01</totfact>
</mgrwt>
</event>
<event>
12    7  0.1701638E-007  0.2023248E+04  0.7818608E-02  0.8595828E-01
         -1   -1    0    0    0  501 -0.00000000000E+00  0.00000000000E+00  0.33241944870E+03  0.33241944870E+03  0.00000000000E+00 0.  1.
          2   -1    0    0  501    0  0.00000000000E+00 -0.00000000000E+00 -0.30785899330E+04  0.30785899330E+04  0.00000000000E+00 0. -1.
         24    2    1    2    0    0  0.58086716689E+03 -0.31848959120E+03 -0.33546049434E+03  0.74680899882E+03  0.79672154382E+02 0.  0.
        254    2    1    2    0    0 -0.58086716689E+03  0.31848959120E+03 -0.24107099899E+04  0.26642003828E+04  0.92065125814E+03 0.  0.
         23    2    4    4    0    0 -0.84782319542E+02 -0.23521477955E+03 -0.20928688308E+03  0.33886308766E+03  0.92266779110E+02 0.  0.
         23    2    4    4    0    0 -0.49608484735E+03  0.55370437075E+03 -0.22014231069E+04  0.23253372952E+04  0.90780697426E+02 0.  0.
          2    1    3    3  502    0  0.18372587984E+03 -0.59704966207E+02 -0.94116360541E+02  0.21489013759E+03  0.00000000000E+00 0. -1.
         -1    1    3    3    0  502  0.39714128705E+03 -0.25878462499E+03 -0.24134413380E+03  0.53191886123E+03  0.00000000000E+00 0.  1.
         13    1    5    5    0    0 -0.10060599381E+03 -0.22753390068E+03 -0.19807055240E+03  0.31800186426E+03  0.00000000000E+00 0.  1.
        -13    1    5    5    0    0  0.15823674273E+02 -0.76808788713E+01 -0.11216330681E+02  0.20861223399E+02  0.00000000000E+00 0. -1.
          4    1    6    6  503    0 -0.29603203906E+03  0.27224516228E+03 -0.11118815645E+04  0.11823844594E+04  0.00000000000E+00 0. -1.
         -4    1    6    6    0  503 -0.20005280829E+03  0.28145920847E+03 -0.10895415424E+04  0.11429528357E+04  0.00000000000E+00 0.  1.
<mgrwt>
<rscale>  0 0.20232481E+04</rscale>
<asrwt>0</asrwt>
<pdfrwt beam="1">  1        2 0.47362922E+00 0.20232481E+04</pdfrwt>
<pdfrwt beam="2">  1       -1 0.51141454E-01 0.20232481E+04</pdfrwt>
<totfact> 0.63179282E+00</totfact>
</mgrwt>
</event>
<event>
12    7  0.1701638E-007  0.1333793E+04  0.7818608E-02  0.9003188E-01
         -1   -1    0    0    0  501 -0.00000000000E+00  0.00000000000E+00  0.66631199219E+03  0.66631199219E+03  0.00000000000E+00 0.  1.
          2   -1    0    0  501    0  0.00000000000E+00 -0.00000000000E+00 -0.66748200566E+03  0.66748200566E+03  0.00000000000E+00 0. -1.
         24    2    1    2    0    0  0.79661835752E+02  0.49884278548E+02  0.33436545546E+03  0.35616115510E+03  0.78842001968E+02 0.  0.
        254    2    1    2    0    0 -0.79661835752E+02 -0.49884278548E+02 -0.33553546893E+03  0.97763284274E+03  0.91342622854E+03 0.  0.
         23    2    4    4    0    0 -0.23428607643E+03 -0.14810737494E+03  0.23277836152E+03  0.37357114922E+03  0.92433099151E+02 0.  0.
         23    2    4    4    0    0  0.15462424068E+03  0.98223096391E+02 -0.56831383045E+03  0.60406169352E+03  0.91397413680E+02 0.  0.
          2    1    3    3  502    0  0.41169436678E+02  0.63578089911E+02  0.15928378500E+03  0.17637579255E+03  0.00000000000E+00 0. -1.
         -1    1    3    3    0  502  0.38492399073E+02 -0.13693811363E+02  0.17508167046E+03  0.17978536255E+03  0.00000000000E+00 0.  1.
         13    1    5    5    0    0 -0.13983602483E+03 -0.12354989171E+03  0.19220281379E+03  0.26788171123E+03  0.00000000000E+00 0. -1.
        -13    1    5    5    0    0 -0.94450051600E+02 -0.24557483234E+02  0.40575547728E+02  0.10568943799E+03  0.00000000000E+00 0.  1.
          1    1    6    6  503    0  0.78816303603E+02 -0.21936962326E+01 -0.21225634551E+03  0.22642786539E+03  0.00000000000E+00 0. -1.
         -1    1    6    6    0  503  0.75807937073E+02  0.10041679262E+03 -0.35605748494E+03  0.37763382813E+03  0.00000000000E+00 0.  1.
<mgrwt>
<rscale>  0 0.13337935E+04</rscale>
<asrwt>0</asrwt>
<pdfrwt beam="1">  1        2 0.10268954E+00 0.13337935E+04</pdfrwt>
<pdfrwt beam="2">  1       -1 0.10250954E+00 0.13337935E+04</pdfrwt>
<totfact> 0.43768662E+01</totfact>
</mgrwt>
</event>
<event>
12    7  0.2465445E-007  0.2054758E+04  0.7818608E-02  0.8581439E-01
         -1   -1    0    0    0  501 -0.00000000000E+00  0.00000000000E+00  0.75760563048E+03  0.75760563048E+03  0.00000000000E+00 0.  1.
          2   -1    0    0  501    0  0.00000000000E+00 -0.00000000000E+00 -0.13932150048E+04  0.13932150048E+04  0.00000000000E+00 0. -1.
         24    2    1    2    0    0 -0.71796825167E+03 -0.40321397047E+03 -0.27092797908E+03  0.87059827736E+03  0.80495181919E+02 0.  0.
        254    2    1    2    0    0  0.71796825167E+03  0.40321397047E+03 -0.36468139526E+03  0.12802223579E+04  0.90989936220E+03 0.  0.
         23    2    4    4    0    0  0.68771108626E+03  0.48055708158E+03  0.52334565837E+02  0.84561722809E+03  0.91912691431E+02 0.  0.
         23    2    4    4    0    0  0.30257165413E+02 -0.77343111117E+02 -0.41701596109E+03  0.43460512985E+03  0.89899133397E+02 0.  0.
          2    1    3    3  502    0 -0.65671681526E+03 -0.39133176921E+03 -0.25837877740E+03  0.80695546447E+03  0.00000000000E+00 0. -1.
         -1    1    3    3    0  502 -0.61251436414E+02 -0.11882201252E+02 -0.12549201685E+02  0.63642812889E+02  0.00000000000E+00 0.  1.
         13    1    5    5    0    0  0.25417860426E+00 -0.39344108221E+00  0.52846010839E+01  0.53053191482E+01  0.00000000000E+00 0. -1.
        -13    1    5    5    0    0  0.68745690765E+03  0.48095052267E+03  0.47049964753E+02  0.84031190895E+03  0.00000000000E+00 0.  1.
          3    1    6    6  503    0  0.11551368532E+02  0.81419754314E+01 -0.78095767652E+01  0.16146682883E+02  0.00000000000E+00 0. -1.
         -3    1    6    6    0  503  0.18705796881E+02 -0.85485086548E+02 -0.40920638433E+03  0.41845844696E+03  0.00000000000E+00 0.  1.
<mgrwt>
<rscale>  0 0.20547579E+04</rscale>
<asrwt>0</asrwt>
<pdfrwt beam="1">  1        2 0.21434077E+00 0.20547579E+04</pdfrwt>
<pdfrwt beam="2">  1       -1 0.11655471E+00 0.20547579E+04</pdfrwt>
<totfact> 0.10228356E+01</totfact>
</mgrwt>
</event>
<event>
12    7  0.1701638E-007  0.2142910E+04  0.7818608E-02  0.8542573E-01
          2   -1    0    0  501    0  0.00000000000E+00  0.00000000000E+00  0.67224699195E+03  0.67224699195E+03  0.00000000000E+00 0. -1.
         -1   -1    0    0    0  501 -0.00000000000E+00 -0.00000000000E+00 -0.17077292407E+04  0.17077292407E+04  0.00000000000E+00 0.  1.
         24    2    1    2    0    0  0.49577266200E+03 -0.59036911489E+02  0.36985577583E+03  0.62705903277E+03  0.84462100163E+02 0.  0.
        254    2    1    2    0    0 -0.49577266200E+03  0.59036911489E+02 -0.14053380246E+04  0.17529171998E+04  0.92112314972E+03 0.  0.
         23    2    4    4    0    0 -0.11693418100E+03  0.24979979361E+01  0.11070849895E+03  0.18673539792E+03  0.94519280647E+02 0.  0.
         23    2    4    4    0    0 -0.37883848099E+03  0.56538913553E+02 -0.15160465235E+04  0.15661818019E+04  0.88391921644E+02 0.  0.
          4    1    3    3  502    0  0.29411700539E+03 -0.88041946694E+01  0.25641010175E+03  0.39029279648E+03  0.00000000000E+00 0. -1.
         -3    1    3    3    0  502  0.20165565661E+03 -0.50232716819E+02  0.11344567408E+03  0.23676623629E+03  0.00000000000E+00 0.  1.
         13    1    5    5    0    0 -0.42038854786E+02 -0.45079965049E+02  0.46390313220E+02  0.77146158175E+02  0.00000000000E+00 0. -1.
        -13    1    5    5    0    0 -0.74895326218E+02  0.47577962985E+02  0.64318185734E+02  0.10958923974E+03  0.00000000000E+00 0.  1.
          3    1    6    6  503    0 -0.60426732328E+02 -0.19713145901E+02 -0.19170130245E+03  0.20196382711E+03  0.00000000000E+00 0. -1.
         -3    1    6    6    0  503 -0.31841174866E+03  0.76252059454E+02 -0.13243452211E+04  0.13642179748E+04  0.00000000000E+00 0.  1.
<mgrwt>
<rscale>  0 0.21429100E+04</rscale>
<asrwt>0</asrwt>
<pdfrwt beam="1">  1        2 0.10342261E+00 0.21429100E+04</pdfrwt>
<pdfrwt beam="2">  1       -1 0.26272757E+00 0.21429100E+04</pdfrwt>
<totfact> 0.26034571E+00</totfact>
</mgrwt>
</event>
<event>
12    7  0.1701638E-007  0.2053433E+04  0.7818608E-02  0.8582039E-01
          2   -1    0    0  501    0  0.00000000000E+00  0.00000000000E+00  0.25444219534E+04  0.25444219534E+04  0.00000000000E+00 0. -1.
         -1   -1    0    0    0  501 -0.00000000000E+00 -0.00000000000E+00 -0.41429718634E+03  0.41429718634E+03  0.00000000000E+00 0.  1.
         24    2    1    2    0    0 -0.80473985076E+02  0.14939711157E+03  0.20332991171E+04  0.20419064316E+04  0.79252863442E+02 0.  0.
        254    2    1    2    0    0  0.80473985076E+02 -0.14939711157E+03  0.96825649900E+02  0.91681270813E+03  0.89575374746E+03 0.  0.
         23    2    4    4    0    0  0.97209719830E+02 -0.37160674638E+03 -0.27088870160E+03  0.47837411174E+03  0.88993249975E+02 0.  0.
         23    2    4    4    0    0 -0.16735734754E+02  0.22220963480E+03  0.36771435150E+03  0.43843859639E+03  0.85775007364E+02 0.  0.
          4    1    3    3  502    0 -0.46988784593E+02  0.93212612287E+02  0.16299040784E+04  0.16332433505E+04  0.00000000000E+00 0. -1.
         -3    1    3    3    0  502 -0.33485200483E+02  0.56184499286E+02  0.40339503871E+03  0.40866308112E+03  0.00000000000E+00 0.  1.
         13    1    5    5    0    0  0.26282438571E+02 -0.19669787568E+03 -0.18388100959E+03  0.27054213454E+03  0.00000000000E+00 0. -1.
        -13    1    5    5    0    0  0.70927281259E+02 -0.17490887069E+03 -0.87007692009E+02  0.20783197719E+03  0.00000000000E+00 0.  1.
          1    1    6    6  503    0  0.17199515657E+01  0.12991418630E+03  0.28466997365E+03  0.31291795719E+03  0.00000000000E+00 0. -1.
         -1    1    6    6    0  503 -0.18455686320E+02  0.92295448505E+02  0.83044377848E+02  0.12552063920E+03  0.00000000000E+00 0.  1.
<mgrwt>
<rscale>  0 0.20534331E+04</rscale>
<asrwt>0</asrwt>
<pdfrwt beam="1">  1        2 0.39144952E+00 0.20534331E+04</pdfrwt>
<pdfrwt beam="2">  1       -1 0.63738030E-01 0.20534331E+04</pdfrwt>
<totfact> 0.86259230E+00</totfact>
</mgrwt>
</event>
<event>
12    7  0.1701638E-007  0.1373136E+04  0.7818608E-02  0.8973497E-01
         -1   -1    0    0    0  501 -0.00000000000E+00  0.00000000000E+00  0.28734908523E+03  0.28734908523E+03  0.00000000000E+00 0.  1.
          2   -1    0    0  501    0  0.00000000000E+00 -0.00000000000E+00 -0.16404290759E+04  0.16404290759E+04  0.00000000000E+00 0. -1.
         24    2    1    2    0    0 -0.10077474351E+03  0.17262274179E+03  0.76684496168E+02  0.22854075464E+03  0.79976275660E+02 0.  0.
        254    2    1    2    0    0  0.10077474351E+03 -0.17262274179E+03 -0.14297644869E+04  0.16992374065E+04  0.89622938798E+03 0.  0.
         23    2    4    4    0    0 -0.32093696948E+03  0.75089692440E+01 -0.21055687052E+03  0.39344525495E+03  0.86070029168E+02 0.  0.
         23    2    4    4    0    0  0.42171171299E+03 -0.18013171104E+03 -0.12192076164E+04  0.13057921516E+04  0.91311166474E+02 0.  0.
          4    1    3    3  502    0 -0.66631393248E+02  0.48575854472E+02  0.52141661596E+02  0.97560796829E+02  0.00000000000E+00 0. -1.
         -3    1    3    3    0  502 -0.34143350258E+02  0.12404688732E+03  0.24542834572E+02  0.13097995781E+03  0.00000000000E+00 0.  1.
         13    1    5    5    0    0 -0.54286502671E+02  0.23939536160E+02 -0.11872311641E+02  0.60506838849E+02  0.00000000000E+00 0.  1.
        -13    1    5    5    0    0 -0.26665046681E+03 -0.16430566916E+02 -0.19868455888E+03  0.33293841610E+03  0.00000000000E+00 0. -1.
          2    1    6    6  503    0  0.13756980425E+02 -0.23421217374E+02 -0.41339578404E+02  0.49464822615E+02  0.00000000000E+00 0. -1.
         -2    1    6    6    0  503  0.40795473256E+03 -0.15671049366E+03 -0.11778680380E+04  0.12563273290E+04  0.00000000000E+00 0.  1.
<mgrwt>
<rscale>  0 0.13731363E+04</rscale>
<asrwt>0</asrwt>
<pdfrwt beam="1">  1        2 0.25237370E+00 0.13731363E+04</pdfrwt>
<pdfrwt beam="2">  1       -1 0.44207552E-01 0.13731363E+04</pdfrwt>
<totfact> 0.59538826E+01</totfact>
</mgrwt>
</event>
<event>
12    7  0.1701638E-007  0.1277764E+04  0.7818608E-02  0.9047387E-01
         -1   -1    0    0    0  501 -0.00000000000E+00  0.00000000000E+00  0.57169829053E+03  0.57169829053E+03  0.00000000000E+00 0.  1.
          2   -1    0    0  501    0  0.00000000000E+00 -0.00000000000E+00 -0.71396089580E+03  0.71396089580E+03  0.00000000000E+00 0. -1.
         24    2    1    2    0    0  0.38927828620E+01  0.25342924839E+02 -0.35605516201E+03  0.36627879838E+03  0.82021107961E+02 0.  0.
        254    2    1    2    0    0 -0.38927828620E+01 -0.25342924839E+02  0.21379255674E+03  0.91938038795E+03  0.89380961218E+03 0.  0.
         23    2    4    4    0    0 -0.17139890321E+03 -0.22588275679E+03 -0.24326039394E+03  0.38499157086E+03  0.92963899096E+02 0.  0.
         23    2    4    4    0    0  0.16750612034E+03  0.20053983195E+03  0.45705295068E+03  0.53438881709E+03  0.91648696435E+02 0.  0.
          2    1    3    3  502    0  0.46116733862E+01  0.10755733024E+02 -0.35043423838E+03  0.35062958910E+03  0.00000000000E+00 0. -1.
         -1    1    3    3    0  502 -0.71889052414E+00  0.14587191815E+02 -0.56209236316E+01  0.15649209281E+02  0.00000000000E+00 0.  1.
         13    1    5    5    0    0 -0.16240050301E+03 -0.14923426194E+03 -0.16863522888E+03  0.27763758524E+03  0.00000000000E+00 0.  1.
        -13    1    5    5    0    0 -0.89984001942E+01 -0.76648494846E+02 -0.74625165060E+02  0.10735398562E+03  0.00000000000E+00 0. -1.
          1    1    6    6  503    0  0.31298372901E+02  0.10323892296E+03  0.15142719968E+03  0.18592487774E+03  0.00000000000E+00 0. -1.
         -1    1    6    6    0  503  0.13620774744E+03  0.97300908984E+02  0.30562575100E+03  0.34846393935E+03  0.00000000000E+00 0.  1.
<mgrwt>
<rscale>  0 0.12777640E+04</rscale>
<asrwt>0</asrwt>
<pdfrwt beam="1">  1        2 0.10984014E+00 0.12777640E+04</pdfrwt>
<pdfrwt beam="2">  1       -1 0.87953583E-01 0.12777640E+04</pdfrwt>
<totfact> 0.56954164E+01</totfact>
</mgrwt>
</event>
<event>
12    7  0.1701638E-007  0.2025378E+04  0.7818608E-02  0.8594846E-01
         -1   -1    0    0    0  501 -0.00000000000E+00  0.00000000000E+00  0.80201429756E+03  0.80201429756E+03  0.00000000000E+00 0.  1.
          2   -1    0    0  501    0  0.00000000000E+00 -0.00000000000E+00 -0.12787047278E+04  0.12787047278E+04  0.00000000000E+00 0. -1.
         24    2    1    2    0    0 -0.73627791506E+03 -0.21798995099E+03  0.74230825287E+02  0.77540455635E+03  0.78212682163E+02 0.  0.
        254    2    1    2    0    0  0.73627791506E+03  0.21798995099E+03 -0.55092125556E+03  0.13053144690E+04  0.90039260676E+03 0.  0.
         23    2    4    4    0    0  0.24219293600E+03  0.49233408618E+03 -0.75495199735E+02  0.56132957480E+03  0.91329599292E+02 0.  0.
         23    2    4    4    0    0  0.49408497906E+03 -0.27434413518E+03 -0.47542605582E+03  0.74398489423E+03  0.89993984516E+02 0.  0.
          4    1    3    3  502    0 -0.22676510314E+03 -0.74101562264E+02  0.58963347181E+02  0.24574403317E+03  0.00000000000E+00 0. -1.
         -3    1    3    3    0  502 -0.50951281192E+03 -0.14388838873E+03  0.15267478107E+02  0.52966052318E+03  0.00000000000E+00 0.  1.
         13    1    5    5    0    0  0.11526958967E+02  0.20889855890E+02  0.15776750458E+02  0.28603543787E+02  0.00000000000E+00 0. -1.
        -13    1    5    5    0    0  0.23066597703E+03  0.47144423029E+03 -0.91271950194E+02  0.53272603102E+03  0.00000000000E+00 0.  1.
          2    1    6    6  503    0  0.14828014344E+03 -0.69418072566E+02 -0.88774741715E+02  0.18624399186E+03  0.00000000000E+00 0. -1.
         -2    1    6    6    0  503  0.34580483562E+03 -0.20492606261E+03 -0.38665131411E+03  0.55774090237E+03  0.00000000000E+00 0.  1.
<mgrwt>
<rscale>  0 0.20253785E+04</rscale>
<asrwt>0</asrwt>
<pdfrwt beam="1">  1        2 0.19672380E+00 0.20253785E+04</pdfrwt>
<pdfrwt beam="2">  1       -1 0.12338682E+00 0.20253785E+04</pdfrwt>
<totfact> 0.10393507E+01</totfact>
</mgrwt>
</event>
<event>
12    7  0.1701638E-007  0.1947113E+04  0.7818608E-02  0.8631754E-01
          2   -1    0    0  501    0  0.00000000000E+00  0.00000000000E+00  0.10434363517E+04  0.10434363517E+04  0.00000000000E+00 0. -1.
         -1   -1    0    0    0  501 -0.00000000000E+00 -0.00000000000E+00 -0.90835646224E+03  0.90835646224E+03  0.00000000000E+00 0.  1.
         24    2    1    2    0    0 -0.23055266007E+03 -0.52814605837E+01  0.78244150287E+03  0.81970346543E+03  0.80725726539E+02 0.  0.
        254    2    1    2    0    0  0.23055266007E+03  0.52814605837E+01 -0.64736161342E+03  0.11320893485E+04  0.89964815988E+03 0.  0.
         23    2    4    4    0    0  0.15986158528E+03  0.20721808068E+03 -0.80493106240E+03  0.85144144391E+03  0.92430826974E+02 0.  0.
         23    2    4    4    0    0  0.70691074790E+02 -0.20193662010E+03  0.15756944898E+03  0.28064790459E+03  0.90329887123E+02 0.  0.
          2    1    3    3  502    0 -0.19418811464E+03 -0.89891585280E+01  0.73223534886E+03  0.75760044546E+03  0.00000000000E+00 0. -1.
         -1    1    3    3    0  502 -0.36364545434E+02  0.37076979443E+01  0.50206154011E+02  0.62103019969E+02  0.00000000000E+00 0.  1.
         13    1    5    5    0    0  0.14470927636E+03  0.14462685451E+03 -0.50888841368E+03  0.54847526771E+03  0.00000000000E+00 0. -1.
        -13    1    5    5    0    0  0.15152308925E+02  0.62591226172E+02 -0.29604264872E+03  0.30296617620E+03  0.00000000000E+00 0.  1.
          2    1    6    6  503    0  0.69475339496E+02 -0.18228528377E+03  0.16881032398E+03  0.25797610928E+03  0.00000000000E+00 0. -1.
         -2    1    6    6    0  503  0.12157352937E+01 -0.19651336327E+02 -0.11240875001E+02  0.22671795309E+02  0.00000000000E+00 0.  1.
<mgrwt>
<rscale>  0 0.19471129E+04</rscale>
<asrwt>0</asrwt>
<pdfrwt beam="1">  1        2 0.16052867E+00 0.19471129E+04</pdfrwt>
<pdfrwt beam="2">  1       -1 0.13974715E+00 0.19471129E+04</pdfrwt>
<totfact> 0.10593111E+01</totfact>
</mgrwt>
</event>
<event>
12    7  0.1701638E-007  0.2239980E+04  0.7818608E-02  0.8501970E-01
         -1   -1    0    0    0  501 -0.00000000000E+00  0.00000000000E+00  0.12999232177E+04  0.12999232177E+04  0.00000000000E+00 0.  1.
          2   -1    0    0  501    0  0.00000000000E+00 -0.00000000000E+00 -0.96496253630E+03  0.96496253630E+03  0.00000000000E+00 0. -1.
         24    2    1    2    0    0  0.75557909048E+03 -0.36882686194E+03 -0.27610639904E+03  0.88853706776E+03  0.79563566642E+02 0.  0.
        254    2    1    2    0    0 -0.75557909048E+03  0.36882686194E+03  0.61106708049E+03  0.13763486863E+04  0.90221932662E+03 0.  0.
         23    2    4    4    0    0 -0.31751411277E+03  0.17847505569E+03 -0.20443632824E+03  0.42672460477E+03  0.87356274551E+02 0.  0.
         23    2    4    4    0    0 -0.43806497771E+03  0.19035180625E+03  0.81550340872E+03  0.94962408151E+03  0.92765034959E+02 0.  0.
          2    1    3    3  502    0  0.39312829836E+03 -0.16865110266E+03 -0.17589930995E+03  0.46252958894E+03  0.00000000000E+00 0. -1.
         -1    1    3    3    0  502  0.36245079212E+03 -0.20017575928E+03 -0.10020708909E+03  0.42600747883E+03  0.00000000000E+00 0.  1.
         13    1    5    5    0    0 -0.38799994570E+02 -0.73803736941E+01 -0.19019650081E+02  0.43836703614E+02  0.00000000000E+00 0. -1.
        -13    1    5    5    0    0 -0.27871411820E+03  0.18585542938E+03 -0.18541667816E+03  0.38288790116E+03  0.00000000000E+00 0.  1.
          2    1    6    6  503    0 -0.45004320973E+02  0.48306212627E+02  0.14824579411E+03  0.16228276112E+03  0.00000000000E+00 0. -1.
         -2    1    6    6    0  503 -0.39306065674E+03  0.14204559363E+03  0.66725761461E+03  0.78734132039E+03  0.00000000000E+00 0.  1.
<mgrwt>
<rscale>  0 0.22399796E+04</rscale>
<asrwt>0</asrwt>
<pdfrwt beam="1">  1        2 0.14845577E+00 0.22399796E+04</pdfrwt>
<pdfrwt beam="2">  1       -1 0.19998819E+00 0.22399796E+04</pdfrwt>
<totfact> 0.41513448E+00</totfact>
</mgrwt>
</event>
<event>
12    7  0.1701638E-007  0.2876252E+04  0.7818608E-02  0.8279978E-01
          2   -1    0    0  501    0  0.00000000000E+00  0.00000000000E+00  0.23827904435E+04  0.23827904435E+04  0.00000000000E+00 0. -1.
         -1   -1    0    0    0  501 -0.00000000000E+00 -0.00000000000E+00 -0.86797650868E+03  0.86797650868E+03  0.00000000000E+00 0.  1.
         24    2    1    2    0    0 -0.87928022439E+03 -0.73047780144E+03 -0.61504642021E+01  0.11454661778E+04  0.72961667689E+02 0.  0.
        254    2    1    2    0    0  0.87928022439E+03  0.73047780144E+03  0.15209643990E+04  0.21053007743E+04  0.90123643732E+03 0.  0.
         23    2    4    4    0    0  0.75866907800E+02 -0.11830187682E+03  0.57497915712E+03  0.59891249098E+03  0.91345601819E+02 0.  0.
         23    2    4    4    0    0  0.80341331659E+03  0.84877967826E+03  0.94598524187E+03  0.15063882833E+04  0.91747931006E+02 0.  0.
          4    1    3    3  502    0 -0.29496105612E+03 -0.24958501639E+03  0.32261528485E+02  0.38773123585E+03  0.00000000000E+00 0. -1.
         -3    1    3    3    0  502 -0.58431916827E+03 -0.48089278505E+03 -0.38411992687E+02  0.75773494199E+03  0.00000000000E+00 0.  1.
         13    1    5    5    0    0  0.40179413681E+02 -0.31582682515E+02  0.36985589478E+03  0.37337010328E+03  0.00000000000E+00 0. -1.
        -13    1    5    5    0    0  0.35687494118E+02 -0.86719194303E+02  0.20512326234E+03  0.22554238770E+03  0.00000000000E+00 0.  1.
          4    1    6    6  503    0  0.76104835314E+03  0.80310118430E+03  0.91976230868E+03  0.14387942217E+04  0.00000000000E+00 0.  1.
         -4    1    6    6    0  503  0.42364963453E+02  0.45678493955E+02  0.26222933191E+02  0.67594061599E+02  0.00000000000E+00 0. -1.
<mgrwt>
<rscale>  0 0.28762518E+04</rscale>
<asrwt>0</asrwt>
<pdfrwt beam="1">  1        2 0.36658314E+00 0.28762518E+04</pdfrwt>
<pdfrwt beam="2">  1       -1 0.13353485E+00 0.28762518E+04</pdfrwt>
<totfact> 0.18936121E+00</totfact>
</mgrwt>
</event>
<event>
12    7  0.1701638E-007  0.1331145E+04  0.7818608E-02  0.9005225E-01
         -1   -1    0    0    0  501 -0.00000000000E+00  0.00000000000E+00  0.16680215562E+03  0.16680215562E+03  0.00000000000E+00 0.  1.
          2   -1    0    0  501    0  0.00000000000E+00 -0.00000000000E+00 -0.26557622875E+04  0.26557622875E+04  0.00000000000E+00 0. -1.
         24    2    1    2    0    0  0.16578972023E+03 -0.15914661207E+03 -0.63695267738E+02  0.25088001239E+03  0.77909036823E+02 0.  0.
        254    2    1    2    0    0 -0.16578972023E+03  0.15914661207E+03 -0.24252648641E+04  0.25716844307E+04  0.82391581761E+03 0.  0.
         23    2    4    4    0    0  0.91790615440E+02  0.99274332454E+01 -0.42795697264E+01  0.13079424173E+03  0.92545923409E+02 0.  0.
         23    2    4    4    0    0 -0.25758033567E+03  0.14921917882E+03 -0.24209852944E+04  0.24408901890E+04  0.90338952171E+02 0.  0.
          2    1    3    3  502    0  0.22901577272E+01 -0.24446629105E+02 -0.25910857724E+02  0.35696709162E+02  0.00000000000E+00 0. -1.
         -1    1    3    3    0  502  0.16349956250E+03 -0.13469998296E+03 -0.37784410014E+02  0.21518330323E+03  0.00000000000E+00 0.  1.
         13    1    5    5    0    0  0.43895208999E+02  0.17488540991E+02  0.42401937405E+02  0.63486713056E+02  0.00000000000E+00 0.  1.
        -13    1    5    5    0    0  0.47895406441E+02 -0.75611077455E+01 -0.46681507131E+02  0.67307528676E+02  0.00000000000E+00 0. -1.
          4    1    6    6  503    0 -0.20246074004E+03  0.70454404970E+02 -0.17387256447E+04  0.17518907049E+04  0.00000000000E+00 0. -1.
         -4    1    6    6    0  503 -0.55119595621E+02  0.78764773853E+02 -0.68225964967E+03  0.68899948403E+03  0.00000000000E+00 0.  1.
<mgrwt>
<rscale>  0 0.13311452E+04</rscale>
<asrwt>0</asrwt>
<pdfrwt beam="1">  1        2 0.40857883E+00 0.13311452E+04</pdfrwt>
<pdfrwt beam="2">  1       -1 0.25661869E-01 0.13311452E+04</pdfrwt>
<totfact> 0.42340575E+01</totfact>
</mgrwt>
</event>
<event>
12    7  0.1701638E-007  0.2465515E+04  0.7818608E-02  0.8415375E-01
          2   -1    0    0  501    0  0.00000000000E+00  0.00000000000E+00  0.28637230175E+04  0.28637230175E+04  0.00000000000E+00 0. -1.
         -1   -1    0    0    0  501 -0.00000000000E+00 -0.00000000000E+00 -0.53066981062E+03  0.53066981062E+03  0.00000000000E+00 0.  1.
         24    2    1    2    0    0 -0.64315580467E+03 -0.30161895198E+03  0.21065337599E+04  0.22245008534E+04  0.79348495941E+02 0.  0.
        254    2    1    2    0    0  0.64315580467E+03  0.30161895198E+03  0.22651944699E+03  0.11698919747E+04  0.90150584659E+03 0.  0.
         23    2    4    4    0    0  0.52012382178E+03  0.34419133778E+03  0.53368065267E+03  0.82642766733E+03  0.95766295209E+02 0.  0.
         23    2    4    4    0    0  0.12303198289E+03 -0.42572385806E+02 -0.30716120568E+03  0.34346430742E+03  0.81672806674E+02 0.  0.
          4    1    3    3  502    0 -0.36537020568E+03 -0.18703600090E+03  0.13281509791E+04  0.13901305249E+04  0.00000000000E+00 0. -1.
         -3    1    3    3    0  502 -0.27778559899E+03 -0.11458295108E+03  0.77838278079E+03  0.83437032852E+03  0.00000000000E+00 0.  1.
         13    1    5    5    0    0  0.47331822256E+02  0.69257799592E+02  0.64036343265E+02  0.10553481635E+03  0.00000000000E+00 0.  1.
        -13    1    5    5    0    0  0.47279199953E+03  0.27493353819E+03  0.46964430940E+03  0.72089285098E+03  0.00000000000E+00 0. -1.
          1    1    6    6  503    0  0.12402573009E+03 -0.23858776456E+02 -0.29558394327E+03  0.32143660411E+03  0.00000000000E+00 0. -1.
         -1    1    6    6    0  503 -0.99374719866E+00 -0.18713609351E+02 -0.11577262402E+02  0.22027703311E+02  0.00000000000E+00 0.  1.
<mgrwt>
<rscale>  0 0.24655152E+04</rscale>
<asrwt>0</asrwt>
<pdfrwt beam="1">  1        2 0.44057276E+00 0.24655152E+04</pdfrwt>
<pdfrwt beam="2">  1       -1 0.81641511E-01 0.24655152E+04</pdfrwt>
<totfact> 0.32133061E+00</totfact>
</mgrwt>
</event>
<event>
12    7  0.1701638E-007  0.1660008E+04  0.7818608E-02  0.8784508E-01
          2   -1    0    0  501    0  0.00000000000E+00  0.00000000000E+00  0.11054317637E+04  0.11054317637E+04  0.00000000000E+00 0. -1.
         -1   -1    0    0    0  501 -0.00000000000E+00 -0.00000000000E+00 -0.62320174190E+03  0.62320174190E+03  0.00000000000E+00 0.  1.
         24    2    1    2    0    0 -0.29866322705E+03 -0.32803088862E+03  0.58170263645E+03  0.73597964710E+03  0.80523888492E+02 0.  0.
        254    2    1    2    0    0  0.29866322705E+03  0.32803088862E+03 -0.99472614684E+02  0.99265385846E+03  0.88241877506E+03 0.  0.
         23    2    4    4    0    0  0.28201622752E+03  0.60084042586E+03 -0.17986037949E+03  0.69349959030E+03  0.89719316238E+02 0.  0.
         23    2    4    4    0    0  0.16646999530E+02 -0.27280953724E+03  0.80387764802E+02  0.29915426816E+03  0.91262901701E+02 0.  0.
          4    1    3    3  502    0 -0.18090263968E+03 -0.14507554898E+03  0.32909260119E+03  0.40258492286E+03  0.00000000000E+00 0. -1.
         -3    1    3    3    0  502 -0.11776058737E+03 -0.18295533964E+03  0.25261003526E+03  0.33339472424E+03  0.00000000000E+00 0.  1.
         13    1    5    5    0    0  0.33037310299E+01  0.76413550373E+01 -0.15809874402E+02  0.17867766344E+02  0.00000000000E+00 0. -1.
        -13    1    5    5    0    0  0.27871249649E+03  0.59319907082E+03 -0.16405050508E+03  0.67563182396E+03  0.00000000000E+00 0.  1.
          4    1    6    6  503    0  0.25485798047E+02 -0.18761660410E+03  0.12301276273E+02  0.18973886643E+03  0.00000000000E+00 0.  1.
         -4    1    6    6    0  503 -0.88387985164E+01 -0.85192933147E+02  0.68086488529E+02  0.10941540174E+03  0.00000000000E+00 0. -1.
<mgrwt>
<rscale>  0 0.16600084E+04</rscale>
<asrwt>0</asrwt>
<pdfrwt beam="1">  1        2 0.17006642E+00 0.16600084E+04</pdfrwt>
<pdfrwt beam="2">  1       -1 0.95877191E-01 0.16600084E+04</pdfrwt>
<totfact> 0.24689041E+01</totfact>
</mgrwt>
</event>
<event>
12    7  0.1701638E-007  0.1819234E+04  0.7818608E-02  0.8696137E-01
          2   -1    0    0  501    0  0.00000000000E+00  0.00000000000E+00  0.78402916318E+03  0.78402916318E+03  0.00000000000E+00 0. -1.
         -1   -1    0    0    0  501 -0.00000000000E+00 -0.00000000000E+00 -0.10553217105E+04  0.10553217105E+04  0.00000000000E+00 0.  1.
         24    2    1    2    0    0  0.30993071774E+03 -0.20431413389E+03  0.47975668224E+03  0.61262596188E+03  0.85690022188E+02 0.  0.
        254    2    1    2    0    0 -0.30993071774E+03  0.20431413389E+03 -0.75104922959E+03  0.12267249118E+04  0.89609025715E+03 0.  0.
         23    2    4    4    0    0 -0.15116614833E+03  0.44055552253E+03 -0.66431203385E+02  0.47921760641E+03  0.91082581675E+02 0.  0.
         23    2    4    4    0    0 -0.15876456941E+03 -0.23624138864E+03 -0.68461802621E+03  0.74750730543E+03  0.95127008016E+02 0.  0.
          2    1    3    3  502    0  0.26652031665E+03 -0.14527440706E+03  0.41921936277E+03  0.51757376929E+03  0.00000000000E+00 0. -1.
         -1    1    3    3    0  502  0.43410401083E+02 -0.59039726831E+02  0.60537319479E+02  0.95052192590E+02  0.00000000000E+00 0.  1.
         13    1    5    5    0    0 -0.27727712949E+02  0.36313974166E+02 -0.30692218009E+02  0.55041284791E+02  0.00000000000E+00 0. -1.
        -13    1    5    5    0    0 -0.12343843538E+03  0.40424154836E+03 -0.35738985376E+02  0.42417632162E+03  0.00000000000E+00 0.  1.
          3    1    6    6  503    0 -0.50438001437E+02 -0.18784080851E+02 -0.85809281580E+02  0.10129198630E+03  0.00000000000E+00 0. -1.
         -3    1    6    6    0  503 -0.10832656797E+03 -0.21745730779E+03 -0.59880874463E+03  0.64621531913E+03  0.00000000000E+00 0.  1.
<mgrwt>
<rscale>  0 0.18192339E+04</rscale>
<asrwt>0</asrwt>
<pdfrwt beam="1">  1        2 0.12061987E+00 0.18192339E+04</pdfrwt>
<pdfrwt beam="2">  1       -1 0.16235718E+00 0.18192339E+04</pdfrwt>
<totfact> 0.10678774E+01</totfact>
</mgrwt>
</event>
<event>
12    7  0.1701638E-007  0.1584435E+04  0.7818608E-02  0.8830167E-01
         -1   -1    0    0    0  501 -0.00000000000E+00  0.00000000000E+00  0.32709695183E+03  0.32709695183E+03  0.00000000000E+00 0.  1.
          2   -1    0    0  501    0  0.00000000000E+00 -0.00000000000E+00 -0.19187244916E+04  0.19187244916E+04  0.00000000000E+00 0. -1.
         24    2    1    2    0    0 -0.17114037593E+03 -0.27496229946E+03 -0.11209984782E+04  0.11692864225E+04  0.75497385590E+02 0.  0.
        254    2    1    2    0    0  0.17114037593E+03  0.27496229946E+03 -0.47062906155E+03  0.10765350209E+04  0.91243774765E+03 0.  0.
         23    2    4    4    0    0  0.30704013056E+03 -0.16111467733E+03 -0.49396421606E+03  0.61038315244E+03  0.91298220241E+02 0.  0.
         23    2    4    4    0    0 -0.13589975463E+03  0.43607697679E+03  0.23335154509E+02  0.46615186849E+03  0.90117490364E+02 0.  0.
          4    1    3    3  502    0 -0.14656443980E+03 -0.24676067770E+03 -0.88590675376E+03  0.93123721115E+03  0.00000000000E+00 0. -1.
         -3    1    3    3    0  502 -0.24575936128E+02 -0.28201621759E+02 -0.23509172443E+03  0.23804921130E+03  0.00000000000E+00 0.  1.
         13    1    5    5    0    0  0.35849301200E+02  0.20795552056E+01 -0.21988504578E+02  0.42106902997E+02  0.00000000000E+00 0. -1.
        -13    1    5    5    0    0  0.27119082936E+03 -0.16319423254E+03 -0.47197571148E+03  0.56827624945E+03  0.00000000000E+00 0.  1.
          1    1    6    6  503    0 -0.60619334177E+02  0.75688924050E+02 -0.32540296901E+01  0.97026314003E+02  0.00000000000E+00 0. -1.
         -1    1    6    6    0  503 -0.75280420452E+02  0.36038805274E+03  0.26589184200E+02  0.36912555449E+03  0.00000000000E+00 0.  1.
<mgrwt>
<rscale>  0 0.15844355E+04</rscale>
<asrwt>0</asrwt>
<pdfrwt beam="1">  1        2 0.29518838E+00 0.15844355E+04</pdfrwt>
<pdfrwt beam="2">  1       -1 0.50322608E-01 0.15844355E+04</pdfrwt>
<totfact> 0.32150118E+01</totfact>
</mgrwt>
</event>
<event>
12    7  0.1701638E-007  0.1261775E+04  0.7818608E-02  0.9060439E-01
          2   -1    0    0  501    0  0.00000000000E+00  0.00000000000E+00  0.55621747449E+03  0.55621747449E+03  0.00000000000E+00 0. -1.
         -1   -1    0    0    0  501 -0.00000000000E+00 -0.00000000000E+00 -0.71558211074E+03  0.71558211074E+03  0.00000000000E+00 0.  1.
         24    2    1    2    0    0  0.62284953274E+02 -0.21805481572E+03  0.16212195785E+03  0.29142174110E+03  0.84945770409E+02 0.  0.
        254    2    1    2    0    0 -0.62284953274E+02  0.21805481572E+03 -0.32148659409E+03  0.98037784412E+03  0.89797537216E+03 0.  0.
         23    2    4    4    0    0 -0.19238564319E+03 -0.20140131547E+03 -0.42902675873E+03  0.51988287733E+03  0.92949022868E+02 0.  0.
         23    2    4    4    0    0  0.13010068992E+03  0.41945613119E+03  0.10754016464E+03  0.46049496680E+03  0.87298865551E+02 0.  0.
          2    1    3    3  502    0  0.53676277837E+02 -0.22139058470E+03  0.16551558895E+03  0.28158541153E+03  0.00000000000E+00 0. -1.
         -1    1    3    3    0  502  0.86086754361E+01  0.33357689872E+01 -0.33936311047E+01  0.98363295784E+01  0.00000000000E+00 0.  1.
         13    1    5    5    0    0 -0.83789050909E+02 -0.13186891198E+03 -0.29547047300E+03  0.33423467117E+03  0.00000000000E+00 0. -1.
        -13    1    5    5    0    0 -0.10859659228E+03 -0.69532403492E+02 -0.13355628573E+03  0.18564820615E+03  0.00000000000E+00 0.  1.
          3    1    6    6  503    0  0.12234581163E+03  0.30750097537E+03  0.10846686466E+03  0.34826772489E+03  0.00000000000E+00 0. -1.
         -3    1    6    6    0  503  0.77548782902E+01  0.11195515582E+03 -0.92670001840E+00  0.11222724190E+03  0.00000000000E+00 0.  1.
<mgrwt>
<rscale>  0 0.12617754E+04</rscale>
<asrwt>0</asrwt>
<pdfrwt beam="1">  1        2 0.85571919E-01 0.12617754E+04</pdfrwt>
<pdfrwt beam="2">  1       -1 0.11008956E+00 0.12617754E+04</pdfrwt>
<totfact> 0.46504740E+01</totfact>
</mgrwt>
</event>
<event>
12    7  0.2320507E-007  0.1335024E+04  0.7818608E-02  0.9002243E-01
          2   -1    0    0  501    0  0.00000000000E+00  0.00000000000E+00  0.18138648217E+04  0.18138648217E+04  0.00000000000E+00 0. -1.
         -1   -1    0    0    0  501 -0.00000000000E+00 -0.00000000000E+00 -0.24564792690E+03  0.24564792690E+03  0.00000000000E+00 0.  1.
         24    2    1    2    0    0  0.70264974279E+02  0.22412334748E+03  0.14020919972E+02  0.24922633767E+03  0.82150713304E+02 0.  0.
        254    2    1    2    0    0 -0.70264974279E+02 -0.22412334748E+03  0.15541959748E+04  0.18102864109E+04  0.89802189278E+03 0.  0.
         23    2    4    4    0    0  0.36027255665E+03  0.11814599373E+02  0.98408086396E+03  0.10524528499E+04  0.96467375483E+02 0.  0.
         23    2    4    4    0    0 -0.43053753092E+03 -0.23593794685E+03  0.57011511085E+03  0.75783356105E+03  0.90836040940E+02 0.  0.
          4    1    3    3  502    0 -0.18242803969E+02  0.33356092055E+02 -0.36073126320E+01  0.38189546714E+02  0.00000000000E+00 0. -1.
         -3    1    3    3    0  502  0.88507778248E+02  0.19076725543E+03  0.17628232604E+02  0.21103679096E+03  0.00000000000E+00 0.  1.
         13    1    5    5    0    0  0.68043458401E+01 -0.73873356733E+01  0.94433320334E+02  0.94965908831E+02  0.00000000000E+00 0. -1.
        -13    1    5    5    0    0  0.35346821081E+03  0.19201935046E+02  0.88964754362E+03  0.95748694103E+03  0.00000000000E+00 0.  1.
          3    1    6    6  503    0 -0.25234482217E+02 -0.35695618802E+02  0.27792119222E+02  0.51801140771E+02  0.00000000000E+00 0. -1.
         -3    1    6    6    0  503 -0.40530304871E+03 -0.20024232805E+03  0.54232299163E+03  0.70603242028E+03  0.00000000000E+00 0.  1.
<mgrwt>
<rscale>  0 0.13350238E+04</rscale>
<asrwt>0</asrwt>
<pdfrwt beam="1">  1        2 0.27905612E+00 0.13350238E+04</pdfrwt>
<pdfrwt beam="2">  1       -1 0.37791990E-01 0.13350238E+04</pdfrwt>
<totfact> 0.63803081E+01</totfact>
</mgrwt>
</event>
<event>
12    7  0.1701638E-007  0.1335315E+04  0.7818608E-02  0.9002019E-01
         -1   -1    0    0    0  501 -0.00000000000E+00  0.00000000000E+00  0.53055020147E+03  0.53055020147E+03  0.00000000000E+00 0.  1.
          2   -1    0    0  501    0  0.00000000000E+00 -0.00000000000E+00 -0.84019674365E+03  0.84019674365E+03  0.00000000000E+00 0. -1.
         24    2    1    2    0    0 -0.32855874498E+03 -0.14205625261E+03 -0.20015627168E+02  0.36758853410E+03  0.81178059014E+02 0.  0.
        254    2    1    2    0    0  0.32855874498E+03  0.14205625261E+03 -0.28963091502E+03  0.10031584110E+04  0.89124065373E+03 0.  0.
         23    2    4    4    0    0 -0.22184450414E+03  0.29614642191E+03 -0.12901777886E+03  0.40229869063E+03  0.90999791180E+02 0.  0.
         23    2    4    4    0    0  0.55040324911E+03 -0.15409016930E+03 -0.16061313615E+03  0.60085972038E+03  0.92457055798E+02 0.  0.
          2    1    3    3  502    0 -0.22846829633E+03 -0.10606216009E+03 -0.50587576829E+02  0.25691642057E+03  0.00000000000E+00 0. -1.
         -1    1    3    3    0  502 -0.10009044865E+03 -0.35994092526E+02  0.30571949661E+02  0.11067211353E+03  0.00000000000E+00 0.  1.
         13    1    5    5    0    0 -0.15976140500E+03  0.26497649834E+03 -0.12154423149E+03  0.33242931791E+03  0.00000000000E+00 0.  1.
        -13    1    5    5    0    0 -0.62083099137E+02  0.31169923573E+02 -0.74735473777E+01  0.69869372721E+02  0.00000000000E+00 0. -1.
          2    1    6    6  503    0  0.39193809388E+03 -0.74080787999E+02 -0.13714817976E+03  0.42179741084E+03  0.00000000000E+00 0. -1.
         -2    1    6    6    0  503  0.15846515523E+03 -0.80009381298E+02 -0.23464956395E+02  0.17906230954E+03  0.00000000000E+00 0.  1.
<mgrwt>
<rscale>  0 0.13353150E+04</rscale>
<asrwt>0</asrwt>
<pdfrwt beam="1">  1        2 0.12926104E+00 0.13353150E+04</pdfrwt>
<pdfrwt beam="2">  1       -1 0.81623108E-01 0.13353150E+04</pdfrwt>
<totfact> 0.53801093E+01</totfact>
</mgrwt>
</event>
<event>
12    7  0.1701638E-007  0.1400222E+04  0.7818608E-02  0.8953658E-01
          2   -1    0    0  501    0  0.00000000000E+00  0.00000000000E+00  0.16567362918E+04  0.16567362918E+04  0.00000000000E+00 0. -1.
         -1   -1    0    0    0  501 -0.00000000000E+00 -0.00000000000E+00 -0.29585585040E+03  0.29585585040E+03  0.00000000000E+00 0.  1.
         24    2    1    2    0    0  0.25664471615E+03 -0.30881259908E+03  0.34709856668E+03  0.53654866715E+03  0.78583239655E+02 0.  0.
        254    2    1    2    0    0 -0.25664471615E+03  0.30881259908E+03  0.10137818748E+04  0.14160434751E+04  0.90343439276E+03 0.  0.
         23    2    4    4    0    0 -0.54328572005E+03  0.26260865263E+02  0.42020376570E+03  0.69314655624E+03  0.89621074881E+02 0.  0.
         23    2    4    4    0    0  0.28664100390E+03  0.28255173382E+03  0.59357810905E+03  0.72289691883E+03  0.90809891063E+02 0.  0.
          2    1    3    3  502    0  0.89106669678E+02 -0.71239047146E+02  0.64179876860E+02  0.13089712378E+03  0.00000000000E+00 0. -1.
         -1    1    3    3    0  502  0.16753804647E+03 -0.23757355194E+03  0.28291868982E+03  0.40565154338E+03  0.00000000000E+00 0.  1.
         13    1    5    5    0    0 -0.14526767567E+03  0.42927250561E+02  0.13839021193E+03  0.20517625885E+03  0.00000000000E+00 0.  1.
        -13    1    5    5    0    0 -0.39801804438E+03 -0.16666385298E+02  0.28181355377E+03  0.48797029739E+03  0.00000000000E+00 0. -1.
          1    1    6    6  503    0  0.20474078598E+03  0.25316584972E+03  0.46890463307E+03  0.57086188507E+03  0.00000000000E+00 0. -1.
         -1    1    6    6    0  503  0.81900217920E+02  0.29385884102E+02  0.12467347598E+03  0.15203503377E+03  0.00000000000E+00 0.  1.
<mgrwt>
<rscale>  0 0.14002216E+04</rscale>
<asrwt>0</asrwt>
<pdfrwt beam="1">  1        2 0.25488250E+00 0.14002216E+04</pdfrwt>
<pdfrwt beam="2">  1       -1 0.45516286E-01 0.14002216E+04</pdfrwt>
<totfact> 0.55103526E+01</totfact>
</mgrwt>
</event>
<event>
12    7  0.1701638E-007  0.1784070E+04  0.7818608E-02  0.8714817E-01
          2   -1    0    0  501    0  0.00000000000E+00  0.00000000000E+00  0.21228550658E+04  0.21228550658E+04  0.00000000000E+00 0. -1.
         -1   -1    0    0    0  501 -0.00000000000E+00 -0.00000000000E+00 -0.37483793056E+03  0.37483793056E+03  0.00000000000E+00 0.  1.
         24    2    1    2    0    0  0.25526768344E+03  0.42848266640E+03  0.12710340430E+04  0.13676922682E+04  0.79344920590E+02 0.  0.
        254    2    1    2    0    0 -0.25526768344E+03 -0.42848266640E+03  0.47698309222E+03  0.11300007281E+04  0.89477918490E+03 0.  0.
         23    2    4    4    0    0 -0.37109852539E+03 -0.31643687137E+03 -0.11493237083E+03  0.50979401027E+03  0.93989754380E+02 0.  0.
         23    2    4    4    0    0  0.11583084195E+03 -0.11204579503E+03  0.59191546305E+03  0.62020671787E+03  0.91221781205E+02 0.  0.
          4    1    3    3  502    0  0.17012485008E+03  0.24705917920E+03  0.85043689015E+03  0.90178911435E+03  0.00000000000E+00 0. -1.
         -3    1    3    3    0  502  0.85142833359E+02  0.18142348720E+03  0.42059715286E+03  0.46590315386E+03  0.00000000000E+00 0.  1.
         13    1    5    5    0    0 -0.35941706175E+03 -0.31548624512E+03 -0.12504282163E+03  0.49431558986E+03  0.00000000000E+00 0.  1.
        -13    1    5    5    0    0 -0.11681463644E+02 -0.95062625113E+00  0.10110450795E+02  0.15478420410E+02  0.00000000000E+00 0. -1.
          1    1    6    6  503    0  0.55825847256E+02 -0.23579705952E+02  0.10098504751E+03  0.11777311907E+03  0.00000000000E+00 0. -1.
         -1    1    6    6    0  503  0.60004994697E+02 -0.88466089074E+02  0.49093041554E+03  0.50243359880E+03  0.00000000000E+00 0.  1.
<mgrwt>
<rscale>  0 0.17840702E+04</rscale>
<asrwt>0</asrwt>
<pdfrwt beam="1">  1        2 0.32659308E+00 0.17840702E+04</pdfrwt>
<pdfrwt beam="2">  1       -1 0.57667375E-01 0.17840702E+04</pdfrwt>
<totfact> 0.18709581E+01</totfact>
</mgrwt>
</event>
<event>
12    7  0.1701638E-007  0.1533555E+04  0.7818608E-02  0.8862441E-01
          2   -1    0    0  501    0  0.00000000000E+00  0.00000000000E+00  0.89897866473E+03  0.89897866473E+03  0.00000000000E+00 0. -1.
         -1   -1    0    0    0  501 -0.00000000000E+00 -0.00000000000E+00 -0.65401703691E+03  0.65401703691E+03  0.00000000000E+00 0.  1.
         24    2    1    2    0    0 -0.23682357334E+03  0.35666007201E+03 -0.16980508048E+03  0.46649839066E+03  0.74129422514E+02 0.  0.
        254    2    1    2    0    0  0.23682357334E+03 -0.35666007201E+03  0.41476670830E+03  0.10864973110E+04  0.90837942106E+03 0.  0.
         23    2    4    4    0    0  0.34741048319E+03  0.19345580336E+03  0.30258464274E+03  0.50715569596E+03  0.86776968414E+02 0.  0.
         23    2    4    4    0    0 -0.11058690985E+03 -0.55011587536E+03  0.11218206557E+03  0.57934161502E+03  0.90525963698E+02 0.  0.
          4    1    3    3  502    0 -0.10557750619E+03  0.97940303877E+02 -0.65567306633E+02  0.15823395538E+03  0.00000000000E+00 0. -1.
         -1    1    3    3    0  502 -0.13124606715E+03  0.25871976813E+03 -0.10423777385E+03  0.30826443528E+03  0.00000000000E+00 0.  1.
         13    1    5    5    0    0  0.38460453689E+01  0.14105084772E+02 -0.12790821438E+01  0.14675882683E+02  0.00000000000E+00 0.  1.
        -13    1    5    5    0    0  0.34356443782E+03  0.17935071858E+03  0.30386372488E+03  0.49247981328E+03  0.00000000000E+00 0. -1.
          3    1    6    6  503    0 -0.10417637812E+03 -0.50305881849E+03  0.75323480467E+02  0.51922492171E+03  0.00000000000E+00 0. -1.
         -3    1    6    6    0  503 -0.64105317273E+01 -0.47057056875E+02  0.36858585101E+02  0.60116693309E+02  0.00000000000E+00 0.  1.
<mgrwt>
<rscale>  0 0.15335545E+04</rscale>
<asrwt>0</asrwt>
<pdfrwt beam="1">  1        2 0.13830441E+00 0.15335545E+04</pdfrwt>
<pdfrwt beam="2">  1       -1 0.10061801E+00 0.15335545E+04</pdfrwt>
<totfact> 0.30365590E+01</totfact>
</mgrwt>
</event>
<event>
12    7  0.1701638E-007  0.1446258E+04  0.7818608E-02  0.8920999E-01
         -1   -1    0    0    0  501 -0.00000000000E+00  0.00000000000E+00  0.19756571217E+04  0.19756571217E+04  0.00000000000E+00 0.  1.
          2   -1    0    0  501    0  0.00000000000E+00 -0.00000000000E+00 -0.26467928488E+03  0.26467928488E+03  0.00000000000E+00 0. -1.
         24    2    1    2    0    0  0.17223286275E+02  0.17914028676E+03 -0.89076802433E+02  0.21628712100E+03  0.80358932589E+02 0.  0.
        254    2    1    2    0    0 -0.17223286275E+02 -0.17914028676E+03  0.18000546392E+04  0.20240492856E+04  0.90784961434E+03 0.  0.
         23    2    4    4    0    0 -0.11200046738E+03  0.34967247044E+03  0.79097360545E+03  0.87726331392E+03  0.95586275987E+02 0.  0.
         23    2    4    4    0    0  0.94777181108E+02 -0.52881275720E+03  0.10090810338E+04  0.11467859716E+04  0.90817871497E+02 0.  0.
          2    1    3    3  502    0  0.37119907601E+01  0.14560197028E+03 -0.10208309581E+03  0.17786138163E+03  0.00000000000E+00 0. -1.
         -1    1    3    3    0  502  0.13511295515E+02  0.33538316476E+02  0.13006293374E+02  0.38425739367E+02  0.00000000000E+00 0.  1.
         13    1    5    5    0    0  0.10591068941E+02  0.88063827809E+02  0.15150151204E+03  0.17555659104E+03  0.00000000000E+00 0.  1.
        -13    1    5    5    0    0 -0.12259153632E+03  0.26160864264E+03  0.63947209341E+03  0.70170672288E+03  0.00000000000E+00 0. -1.
          1    1    6    6  503    0  0.77462525393E+02 -0.48363375585E+03  0.85580507750E+03  0.98605495958E+03  0.00000000000E+00 0. -1.
         -1    1    6    6    0  503  0.17314655715E+02 -0.45179001355E+02  0.15327595626E+03  0.16073101205E+03  0.00000000000E+00 0.  1.
<mgrwt>
<rscale>  0 0.14462579E+04</rscale>
<asrwt>0</asrwt>
<pdfrwt beam="1">  1        2 0.40719891E-01 0.14462579E+04</pdfrwt>
<pdfrwt beam="2">  1       -1 0.30394724E+00 0.14462579E+04</pdfrwt>
<totfact> 0.43831109E+00</totfact>
</mgrwt>
</event>
<event>
12    7  0.1701638E-007  0.1522250E+04  0.7818608E-02  0.8869791E-01
         -1   -1    0    0    0  501 -0.00000000000E+00  0.00000000000E+00  0.66936306285E+03  0.66936306285E+03  0.00000000000E+00 0.  1.
          2   -1    0    0  501    0  0.00000000000E+00 -0.00000000000E+00 -0.86546590905E+03  0.86546590905E+03  0.00000000000E+00 0. -1.
         24    2    1    2    0    0  0.56547577470E+02 -0.77307402155E+02  0.42530604996E+03  0.44285413094E+03  0.77849098991E+02 0.  0.
        254    2    1    2    0    0 -0.56547577470E+02  0.77307402155E+02 -0.62140889617E+03  0.10919748410E+04  0.89279671488E+03 0.  0.
         23    2    4    4    0    0 -0.37236998686E+03  0.96547438763E+02 -0.65422597598E+03  0.76420247666E+03  0.89515264833E+02 0.  0.
         23    2    4    4    0    0  0.31582240939E+03 -0.19240036608E+02  0.32817079816E+02  0.32777236430E+03  0.79017648569E+02 0.  0.
          4    1    3    3  502    0 -0.46557743201E+01  0.98822573390E+01  0.12860735919E+02  0.16874056211E+02  0.00000000000E+00 0. -1.
         -3    1    3    3    0  502  0.61203351790E+02 -0.87189659494E+02  0.41244531404E+03  0.42598007473E+03  0.00000000000E+00 0.  1.
         13    1    5    5    0    0 -0.62714727738E+02  0.76914882033E+01 -0.18115854415E+03  0.19186118467E+03  0.00000000000E+00 0.  1.
        -13    1    5    5    0    0 -0.30965525912E+03  0.88855950560E+02 -0.47306743183E+03  0.57234129199E+03  0.00000000000E+00 0. -1.
          3    1    6    6  503    0  0.21192479221E+03 -0.41658866298E+02 -0.18011502996E+01  0.21598801549E+03  0.00000000000E+00 0. -1.
         -3    1    6    6    0  503  0.10389761719E+03  0.22418829690E+02  0.34618230116E+02  0.11178434881E+03  0.00000000000E+00 0.  1.
<mgrwt>
<rscale>  0 0.15222495E+04</rscale>
<asrwt>0</asrwt>
<pdfrwt beam="1">  1        2 0.13314860E+00 0.15222495E+04</pdfrwt>
<pdfrwt beam="2">  1       -1 0.10297893E+00 0.15222495E+04</pdfrwt>
<totfact> 0.30374080E+01</totfact>
</mgrwt>
</event>
<event>
12    7  0.1701638E-007  0.1381932E+04  0.7818608E-02  0.8967002E-01
         -1   -1    0    0    0  501 -0.00000000000E+00  0.00000000000E+00  0.36787925154E+03  0.36787925154E+03  0.00000000000E+00 0.  1.
          2   -1    0    0  501    0  0.00000000000E+00 -0.00000000000E+00 -0.12978010870E+04  0.12978010870E+04  0.00000000000E+00 0. -1.
         24    2    1    2    0    0 -0.22978315830E+03 -0.21256730594E+03 -0.55747836973E+03  0.64396689193E+03  0.76980944328E+02 0.  0.
        254    2    1    2    0    0  0.22978315830E+03  0.21256730594E+03 -0.37244346578E+03  0.10217134467E+04  0.89844258163E+03 0.  0.
         23    2    4    4    0    0  0.24917157894E+03  0.90556273905E+02  0.25292824264E+03  0.37760172995E+03  0.91232976724E+02 0.  0.
         23    2    4    4    0    0 -0.19388420640E+02  0.12201103203E+03 -0.62537170842E+03  0.64411171670E+03  0.92344610602E+02 0.  0.
          4    1    3    3  502    0 -0.10791201662E+03 -0.96979741907E+02 -0.18293960387E+03  0.23348869852E+03  0.00000000000E+00 0. -1.
         -3    1    3    3    0  502 -0.12187114168E+03 -0.11558756403E+03 -0.37453876586E+03  0.41047819341E+03  0.00000000000E+00 0.  1.
         13    1    5    5    0    0  0.24228737115E+03  0.61894031509E+02  0.21670756149E+03  0.33090211326E+03  0.00000000000E+00 0. -1.
        -13    1    5    5    0    0  0.68842077961E+01  0.28662242396E+02  0.36220681154E+02  0.46699616695E+02  0.00000000000E+00 0.  1.
          1    1    6    6  503    0 -0.18374966321E+02  0.13651543843E+03 -0.59003763556E+03  0.60590305800E+03  0.00000000000E+00 0. -1.
         -1    1    6    6    0  503 -0.10134543193E+01 -0.14504406403E+02 -0.35334072862E+02  0.38208658702E+02  0.00000000000E+00 0.  1.
<mgrwt>
<rscale>  0 0.13819321E+04</rscale>
<asrwt>0</asrwt>
<pdfrwt beam="1">  1        2 0.19966170E+00 0.13819321E+04</pdfrwt>
<pdfrwt beam="2">  1       -1 0.56596809E-01 0.13819321E+04</pdfrwt>
<totfact> 0.58196628E+01</totfact>
</mgrwt>
</event>
<event>
12    7  0.1701638E-007  0.1780463E+04  0.7818608E-02  0.8716759E-01
          2   -1    0    0  501    0  0.00000000000E+00  0.00000000000E+00  0.26951675916E+04  0.26951675916E+04  0.00000000000E+00 0. -1.
         -1   -1    0    0    0  501 -0.00000000000E+00 -0.00000000000E+00 -0.29404919482E+03  0.29404919482E+03  0.00000000000E+00 0.  1.
         24    2    1    2    0    0  0.30204215801E+03 -0.42636856728E+03  0.23322254103E+03  0.57798106806E+03  0.81545944136E+02 0.  0.
        254    2    1    2    0    0 -0.30204215801E+03  0.42636856728E+03  0.21678958557E+04  0.24112357183E+04  0.91720533562E+03 0.  0.
         23    2    4    4    0    0  0.28631967420E+02  0.60981518970E+03  0.94945269290E+03  0.11322288919E+04  0.88246770235E+02 0.  0.
         23    2    4    4    0    0 -0.33067412543E+03 -0.18344662242E+03  0.12184431628E+04  0.12790068264E+04  0.90866278128E+02 0.  0.
          2    1    3    3  502    0  0.14875682407E+03 -0.23310064799E+03  0.16514859082E+03  0.32208471223E+03  0.00000000000E+00 0. -1.
         -1    1    3    3    0  502  0.15328533394E+03 -0.19326791930E+03  0.68073950205E+02  0.25589635583E+03  0.00000000000E+00 0.  1.
         13    1    5    5    0    0 -0.14473849972E+02  0.28158907182E+03  0.49994683484E+03  0.57397624983E+03  0.00000000000E+00 0. -1.
        -13    1    5    5    0    0  0.43105817392E+02  0.32822611788E+03  0.44950585806E+03  0.55825264207E+03  0.00000000000E+00 0.  1.
          1    1    6    6  503    0 -0.57862527327E+02 -0.46301935531E+01  0.26583459376E+03  0.27209840500E+03  0.00000000000E+00 0. -1.
         -1    1    6    6    0  503 -0.27281159811E+03 -0.17881642886E+03  0.95260856909E+03  0.10069084215E+04  0.00000000000E+00 0.  1.
<mgrwt>
<rscale>  0 0.17804627E+04</rscale>
<asrwt>0</asrwt>
<pdfrwt beam="1">  1        2 0.41464115E+00 0.17804627E+04</pdfrwt>
<pdfrwt beam="2">  1       -1 0.45238339E-01 0.17804627E+04</pdfrwt>
<totfact> 0.13985526E+01</totfact>
</mgrwt>
</event>
<event>
12    7  0.1701638E-007  0.2478867E+04  0.7818608E-02  0.8410553E-01
         -1   -1    0    0    0  501 -0.00000000000E+00  0.00000000000E+00  0.17486348244E+04  0.17486348244E+04  0.00000000000E+00 0.  1.
          2   -1    0    0  501    0  0.00000000000E+00 -0.00000000000E+00 -0.87851135833E+03  0.87851135833E+03  0.00000000000E+00 0. -1.
         24    2    1    2    0    0  0.87342431386E+03 -0.11248413147E+03 -0.27648431668E+03  0.92633085562E+03  0.78246819894E+02 0.  0.
        254    2    1    2    0    0 -0.87342431386E+03  0.11248413147E+03  0.11466077828E+04  0.17008153272E+04  0.89584633594E+03 0.  0.
         23    2    4    4    0    0 -0.30411247740E+03 -0.27551032929E+03  0.84350227820E+03  0.94257172800E+03  0.92493397852E+02 0.  0.
         23    2    4    4    0    0 -0.56931183646E+03  0.38799446076E+03  0.30310550461E+03  0.75824359916E+03  0.91677369211E+02 0.  0.
          4    1    3    3  502    0  0.78537872168E+03 -0.12055930751E+03 -0.23453657522E+03  0.82846948538E+03  0.00000000000E+00 0. -1.
         -3    1    3    3    0  502  0.88045592185E+02  0.80751760402E+01 -0.41947741463E+02  0.97861370240E+02  0.00000000000E+00 0.  1.
         13    1    5    5    0    0 -0.46591748965E+02 -0.29195185451E+02  0.19507692201E+03  0.20267746650E+03  0.00000000000E+00 0. -1.
        -13    1    5    5    0    0 -0.25752072843E+03 -0.24631514383E+03  0.64842535619E+03  0.73989426150E+03  0.00000000000E+00 0.  1.
          3    1    6    6  503    0 -0.13417304834E+03  0.55728876341E+02  0.39284561647E+02  0.15050379179E+03  0.00000000000E+00 0. -1.
         -3    1    6    6    0  503 -0.43513878812E+03  0.33226558442E+03  0.26382094296E+03  0.60773980737E+03  0.00000000000E+00 0.  1.
<mgrwt>
<rscale>  0 0.24788671E+04</rscale>
<asrwt>0</asrwt>
<pdfrwt beam="1">  1        2 0.13515559E+00 0.24788671E+04</pdfrwt>
<pdfrwt beam="2">  1       -1 0.26902074E+00 0.24788671E+04</pdfrwt>
<totfact> 0.16200901E+00</totfact>
</mgrwt>
</event>
<event>
12    7  0.1701638E-007  0.1406694E+04  0.7818608E-02  0.8948987E-01
          4   -1    0    0  501    0  0.00000000000E+00  0.00000000000E+00  0.38982019401E+03  0.38982019401E+03  0.00000000000E+00 0. -1.
         -3   -1    0    0    0  501 -0.00000000000E+00 -0.00000000000E+00 -0.12690385034E+04  0.12690385034E+04  0.00000000000E+00 0.  1.
         24    2    1    2    0    0  0.29579939198E+03 -0.94760092403E+02  0.81900872028E+02  0.33127191405E+03  0.80972666927E+02 0.  0.
        254    2    1    2    0    0 -0.29579939198E+03  0.94760092403E+02 -0.96111918144E+03  0.13275867834E+04  0.86154502556E+03 0.  0.
         23    2    4    4    0    0 -0.54122879343E+03  0.25299058140E+03 -0.58190846536E+03  0.83921662845E+03  0.93457189612E+02 0.  0.
         23    2    4    4    0    0  0.24542940145E+03 -0.15823048899E+03 -0.37921071608E+03  0.48837015494E+03  0.97119319900E+02 0.  0.
          2    1    3    3  502    0  0.29616477268E+03 -0.10170341524E+03  0.76195289660E+02  0.32227764336E+03  0.00000000000E+00 0. -1.
         -1    1    3    3    0  502 -0.36538069462E+00  0.69433228327E+01  0.57055823674E+01  0.89942706854E+01  0.00000000000E+00 0.  1.
         13    1    5    5    0    0 -0.95313914007E+01 -0.50939166628E+01 -0.24615654135E+02  0.26883560729E+02  0.00000000000E+00 0.  1.
        -13    1    5    5    0    0 -0.53169740203E+03  0.25808449806E+03 -0.55729281122E+03  0.81233306772E+03  0.00000000000E+00 0. -1.
          1    1    6    6  503    0  0.15820473725E+03 -0.44402011615E+02 -0.19982979898E+03  0.25871263225E+03  0.00000000000E+00 0. -1.
         -1    1    6    6    0  503  0.87224664198E+02 -0.11382847738E+03 -0.17938091710E+03  0.22965752269E+03  0.00000000000E+00 0.  1.
<mgrwt>
<rscale>  0 0.14066938E+04</rscale>
<asrwt>0</asrwt>
<pdfrwt beam="1">  1        4 0.59972338E-01 0.14066938E+04</pdfrwt>
<pdfrwt beam="2">  1       -3 0.19523669E+00 0.14066938E+04</pdfrwt>
<totfact> 0.91839410E-01</totfact>
</mgrwt>
</event>
<event>
12    7  0.1701638E-007  0.2423498E+04  0.7818608E-02  0.8430758E-01
          2   -1    0    0  501    0  0.00000000000E+00  0.00000000000E+00  0.43840737133E+04  0.43840737133E+04  0.00000000000E+00 0. -1.
         -1   -1    0    0    0  501 -0.00000000000E+00 -0.00000000000E+00 -0.33492503363E+03  0.33492503363E+03  0.00000000000E+00 0.  1.
         24    2    1    2    0    0 -0.12902047719E+03 -0.54457493323E+03  0.34669499019E+04  0.35128409056E+04  0.84270187911E+02 0.  0.
        254    2    1    2    0    0  0.12902047719E+03  0.54457493323E+03  0.58219877777E+03  0.12061578413E+04  0.89590913594E+03 0.  0.
         23    2    4    4    0    0  0.19237417947E+03 -0.87995652480E+02 -0.11418747712E+03  0.25883553145E+03  0.95947864101E+02 0.  0.
         23    2    4    4    0    0 -0.63353702283E+02  0.63257058571E+03  0.69638625488E+03  0.94732230985E+03  0.91140031062E+02 0.  0.
          2    1    3    3  502    0 -0.10568656335E+03 -0.45040033798E+03  0.30403709673E+04  0.30753675769E+04  0.00000000000E+00 0. -1.
         -1    1    3    3    0  502 -0.23333913843E+02 -0.94174595251E+02  0.42657893457E+03  0.43747332873E+03  0.00000000000E+00 0.  1.
         13    1    5    5    0    0  0.12240364896E+03 -0.64749539982E+02 -0.21079587587E+02  0.14006964417E+03  0.00000000000E+00 0. -1.
        -13    1    5    5    0    0  0.69970530514E+02 -0.23246112498E+02 -0.93107889531E+02  0.11876588727E+03  0.00000000000E+00 0.  1.
          1    1    6    6  503    0  0.37937702977E+01  0.39278722946E+02  0.17333096632E+02  0.43100429327E+02  0.00000000000E+00 0. -1.
         -1    1    6    6    0  503 -0.67147472581E+02  0.59329186276E+03  0.67905315825E+03  0.90422188053E+03  0.00000000000E+00 0.  1.
<mgrwt>
<rscale>  0 0.24234983E+04</rscale>
<asrwt>0</asrwt>
<pdfrwt beam="1">  1        2 0.67447283E+00 0.24234983E+04</pdfrwt>
<pdfrwt beam="2">  1       -1 0.51526932E-01 0.24234983E+04</pdfrwt>
<totfact> 0.61849565E-01</totfact>
</mgrwt>
</event>
<event>
12    7  0.1701638E-007  0.1805855E+04  0.7818608E-02  0.8703192E-01
          2   -1    0    0  501    0  0.00000000000E+00  0.00000000000E+00  0.10941418335E+04  0.10941418335E+04  0.00000000000E+00 0. -1.
         -1   -1    0    0    0  501 -0.00000000000E+00 -0.00000000000E+00 -0.74513011156E+03  0.74513011156E+03  0.00000000000E+00 0.  1.
         24    2    1    2    0    0 -0.44891064510E+03  0.44017047822E+03 -0.11048994834E+03  0.64418522761E+03  0.86578066514E+02 0.  0.
        254    2    1    2    0    0  0.44891064510E+03 -0.44017047822E+03  0.45950167032E+03  0.11950867175E+04  0.90654269623E+03 0.  0.
         23    2    4    4    0    0  0.10087453484E+03 -0.36244853700E+03 -0.20175766571E+03  0.43792982012E+03  0.97630722243E+02 0.  0.
         23    2    4    4    0    0  0.34803611027E+03 -0.77721941218E+02  0.66125933603E+03  0.75715689736E+03  0.94089444367E+02 0.  0.
          4    1    3    3  502    0 -0.62799545733E+02  0.27108809390E+02 -0.22191046415E+02  0.71910451478E+02  0.00000000000E+00 0. -1.
         -3    1    3    3    0  502 -0.38611109937E+03  0.41306166883E+03 -0.88298901927E+02  0.57227477613E+03  0.00000000000E+00 0.  1.
         13    1    5    5    0    0  0.10262205133E+03 -0.29652831081E+03 -0.19972555012E+03  0.37195513157E+03  0.00000000000E+00 0.  1.
        -13    1    5    5    0    0 -0.17475164963E+01 -0.65920226197E+02 -0.20321155851E+01  0.65974688552E+02  0.00000000000E+00 0. -1.
          3    1    6    6  503    0  0.39951867941E+02 -0.13738913905E+02  0.29983079761E+02  0.51806317947E+02  0.00000000000E+00 0. -1.
         -3    1    6    6    0  503  0.30808424233E+03 -0.63983027313E+02  0.63127625627E+03  0.70535057941E+03  0.00000000000E+00 0.  1.
<mgrwt>
<rscale>  0 0.18058550E+04</rscale>
<asrwt>0</asrwt>
<pdfrwt beam="1">  1        2 0.16832951E+00 0.18058550E+04</pdfrwt>
<pdfrwt beam="2">  1       -1 0.11463540E+00 0.18058550E+04</pdfrwt>
<totfact> 0.16355921E+01</totfact>
</mgrwt>
</event>
<event>
12    7  0.1701638E-007  0.1946955E+04  0.7818608E-02  0.8631830E-01
          2   -1    0    0  501    0  0.00000000000E+00  0.00000000000E+00  0.57104432098E+03  0.57104432098E+03  0.00000000000E+00 0. -1.
         -1   -1    0    0    0  501 -0.00000000000E+00 -0.00000000000E+00 -0.16595184478E+04  0.16595184478E+04  0.00000000000E+00 0.  1.
         24    2    1    2    0    0  0.11002547195E+03 -0.39246018845E+03 -0.11710216286E+04  0.12428235849E+04  0.84783279072E+02 0.  0.
        254    2    1    2    0    0 -0.11002547195E+03  0.39246018845E+03  0.82547501842E+02  0.98773918386E+03  0.89592633698E+03 0.  0.
         23    2    4    4    0    0 -0.28333626418E+03 -0.13681382360E+03 -0.17035423215E+03  0.36918500951E+03  0.90992010108E+02 0.  0.
         23    2    4    4    0    0  0.17331079224E+03  0.52927401205E+03  0.25290173399E+03  0.61855417436E+03  0.92099777538E+02 0.  0.
          4    1    3    3  502    0  0.84556388440E+02 -0.15583502330E+03 -0.54350566174E+03  0.57169287354E+03  0.00000000000E+00 0. -1.
         -3    1    3    3    0  502  0.25469083506E+02 -0.23662516515E+03 -0.62751596690E+03  0.67113071134E+03  0.00000000000E+00 0.  1.
         13    1    5    5    0    0 -0.21541054142E+03 -0.14027066584E+03 -0.15241921066E+03  0.29884641010E+03  0.00000000000E+00 0. -1.
        -13    1    5    5    0    0 -0.67925722759E+02  0.34568422357E+01 -0.17935021485E+02  0.70338599405E+02  0.00000000000E+00 0.  1.
          2    1    6    6  503    0  0.15717241632E+03  0.49503807818E+03  0.20714818971E+03  0.55917460582E+03  0.00000000000E+00 0. -1.
         -2    1    6    6    0  503  0.16138375921E+02  0.34235933875E+02  0.45753544277E+02  0.59379568537E+02  0.00000000000E+00 0.  1.
<mgrwt>
<rscale>  0 0.19469551E+04</rscale>
<asrwt>0</asrwt>
<pdfrwt beam="1">  1        2 0.87852974E-01 0.19469551E+04</pdfrwt>
<pdfrwt beam="2">  1       -1 0.25531052E+00 0.19469551E+04</pdfrwt>
<totfact> 0.36114245E+00</totfact>
</mgrwt>
</event>
<event>
12    7  0.1701638E-007  0.2127603E+04  0.7818608E-02  0.8549180E-01
         -1   -1    0    0    0  501 -0.00000000000E+00  0.00000000000E+00  0.47740371342E+03  0.47740371342E+03  0.00000000000E+00 0.  1.
          2   -1    0    0  501    0  0.00000000000E+00 -0.00000000000E+00 -0.23704758193E+04  0.23704758193E+04  0.00000000000E+00 0. -1.
         24    2    1    2    0    0  0.32763735047E+03 -0.79969590905E+03 -0.88775475618E+03  0.12414490742E+04  0.78914615005E+02 0.  0.
        254    2    1    2    0    0 -0.32763735047E+03  0.79969590905E+03 -0.10053173497E+04  0.16064304585E+04  0.90724641852E+03 0.  0.
         23    2    4    4    0    0  0.30080535147E+03  0.16696253998E+03 -0.28084357722E+03  0.45343075166E+03  0.91465744732E+02 0.  0.
         23    2    4    4    0    0 -0.62844270194E+03  0.63273336907E+03 -0.72447377250E+03  0.11529997068E+04  0.96199433114E+02 0.  0.
          2    1    3    3  502    0  0.26817564014E+03 -0.56929106427E+03 -0.62404423591E+03  0.88625148699E+03  0.00000000000E+00 0. -1.
         -1    1    3    3    0  502  0.59461710334E+02 -0.23040484478E+03 -0.26371052027E+03  0.35519758726E+03  0.00000000000E+00 0.  1.
         13    1    5    5    0    0  0.11228047254E+03  0.14786764564E+02 -0.10029969240E+03  0.15127981100E+03  0.00000000000E+00 0.  1.
        -13    1    5    5    0    0  0.18852487893E+03  0.15217577542E+03 -0.18054388482E+03  0.30215094066E+03  0.00000000000E+00 0. -1.
          2    1    6    6  503    0 -0.55093761935E+03  0.53533185813E+03 -0.66022444797E+03  0.10129209152E+04  0.00000000000E+00 0. -1.
         -2    1    6    6    0  503 -0.77505082590E+02  0.97401510934E+02 -0.64249324529E+02  0.14007879162E+03  0.00000000000E+00 0.  1.
<mgrwt>
<rscale>  0 0.21276033E+04</rscale>
<asrwt>0</asrwt>
<pdfrwt beam="1">  1        2 0.36468859E+00 0.21276033E+04</pdfrwt>
<pdfrwt beam="2">  1       -1 0.73446725E-01 0.21276033E+04</pdfrwt>
<totfact> 0.80797517E+00</totfact>
</mgrwt>
</event>
<event>
12    7  0.1701638E-007  0.1171298E+04  0.7818608E-02  0.9138357E-01
          2   -1    0    0  501    0  0.00000000000E+00  0.00000000000E+00  0.11341354388E+04  0.11341354388E+04  0.00000000000E+00 0. -1.
         -1   -1    0    0    0  501 -0.00000000000E+00 -0.00000000000E+00 -0.30241944082E+03  0.30241944082E+03  0.00000000000E+00 0.  1.
         24    2    1    2    0    0 -0.21968837095E+03  0.26044612786E+02  0.25293809555E+03  0.34544934908E+03  0.80101625540E+02 0.  0.
        254    2    1    2    0    0  0.21968837095E+03 -0.26044612786E+02  0.57877790244E+03  0.10911055306E+04  0.89810139532E+03 0.  0.
         23    2    4    4    0    0  0.39040109752E+03  0.58258214777E+02 -0.67853153172E+02  0.41028614974E+03  0.89014817532E+02 0.  0.
         23    2    4    4    0    0 -0.17071272657E+03 -0.84302827563E+02  0.64663105561E+03  0.68081938081E+03  0.95569375113E+02 0.  0.
          4    1    3    3  502    0 -0.86346150151E+02  0.28677637988E+02  0.53563193967E+02  0.10557973439E+03  0.00000000000E+00 0. -1.
         -3    1    3    3    0  502 -0.13334222080E+03 -0.26330252024E+01  0.19937490158E+03  0.23986961469E+03  0.00000000000E+00 0.  1.
         13    1    5    5    0    0  0.18530684475E+03 -0.28261732500E+01 -0.64597817786E+02  0.19626383271E+03  0.00000000000E+00 0.  1.
        -13    1    5    5    0    0  0.20509425277E+03  0.61084388027E+02 -0.32553353867E+01  0.21402231703E+03  0.00000000000E+00 0. -1.
          3    1    6    6  503    0 -0.11100698152E+03 -0.17876827326E+02  0.24788875176E+03  0.27219655426E+03  0.00000000000E+00 0. -1.
         -3    1    6    6    0  503 -0.59705745051E+02 -0.66426000237E+02  0.39874230385E+03  0.40862282655E+03  0.00000000000E+00 0.  1.
<mgrwt>
<rscale>  0 0.11712978E+04</rscale>
<asrwt>0</asrwt>
<pdfrwt beam="1">  1        2 0.17448237E+00 0.11712978E+04</pdfrwt>
<pdfrwt beam="2">  1       -1 0.46526068E-01 0.11712978E+04</pdfrwt>
<totfact> 0.10759188E+02</totfact>
</mgrwt>
</event>
<event>
12    7  0.1701638E-007  0.1293235E+04  0.7818608E-02  0.9034947E-01
         -1   -1    0    0    0  501 -0.00000000000E+00  0.00000000000E+00  0.15612653136E+03  0.15612653136E+03  0.00000000000E+00 0.  1.
          2   -1    0    0  501    0  0.00000000000E+00 -0.00000000000E+00 -0.26780470440E+04  0.26780470440E+04  0.00000000000E+00 0. -1.
         24    2    1    2    0    0 -0.39362027095E+02 -0.16403736004E+03 -0.51322417450E+02  0.19413356303E+03  0.81217147799E+02 0.  0.
        254    2    1    2    0    0  0.39362027095E+02  0.16403736004E+03 -0.24705980952E+04  0.26400400123E+04  0.91514954738E+03 0.  0.
         23    2    4    4    0    0  0.10172075603E+03 -0.36488187270E+03 -0.10879929805E+04  0.11555859451E+04  0.90356282536E+02 0.  0.
         23    2    4    4    0    0 -0.62358728936E+02  0.52891923274E+03 -0.13826051147E+04  0.14844540672E+04  0.91448392719E+02 0.  0.
          4    1    3    3  502    0 -0.21423501617E+02 -0.12668950228E+02 -0.31919127451E+02  0.40475911585E+02  0.00000000000E+00 0. -1.
         -3    1    3    3    0  502 -0.17938525478E+02 -0.15136840981E+03 -0.19403289999E+02  0.15365765144E+03  0.00000000000E+00 0.  1.
         13    1    5    5    0    0  0.81816602789E+02 -0.34025652035E+03 -0.10460290433E+04  0.11030164167E+04  0.00000000000E+00 0. -1.
        -13    1    5    5    0    0  0.19904153242E+02 -0.24625352348E+02 -0.41963937210E+02  0.52569528443E+02  0.00000000000E+00 0.  1.
          3    1    6    6  503    0 -0.19233858102E+02  0.43831437794E+03 -0.10831118759E+04  0.11685977798E+04  0.00000000000E+00 0. -1.
         -3    1    6    6    0  503 -0.43124870834E+02  0.90604854800E+02 -0.29949323882E+03  0.31585628741E+03  0.00000000000E+00 0.  1.
<mgrwt>
<rscale>  0 0.12932350E+04</rscale>
<asrwt>0</asrwt>
<pdfrwt beam="1">  1        2 0.41200723E+00 0.12932350E+04</pdfrwt>
<pdfrwt beam="2">  1       -1 0.24019467E-01 0.12932350E+04</pdfrwt>
<totfact> 0.46171525E+01</totfact>
</mgrwt>
</event>
<event>
12    7  0.1701638E-007  0.1531016E+04  0.7818608E-02  0.8864086E-01
          2   -1    0    0  501    0  0.00000000000E+00  0.00000000000E+00  0.66186681374E+03  0.66186681374E+03  0.00000000000E+00 0. -1.
         -1   -1    0    0    0  501 -0.00000000000E+00 -0.00000000000E+00 -0.88537810870E+03  0.88537810870E+03  0.00000000000E+00 0.  1.
         24    2    1    2    0    0  0.10354038209E+03  0.23457667599E+03 -0.49532457462E+03  0.56365662798E+03  0.81335923201E+02 0.  0.
        254    2    1    2    0    0 -0.10354038209E+03 -0.23457667599E+03  0.27181327967E+03  0.98358829446E+03  0.90984429787E+03 0.  0.
         23    2    4    4    0    0 -0.12061073349E+03  0.25158589905E+03  0.37691202830E+03  0.47779083317E+03  0.91536820718E+02 0.  0.
         23    2    4    4    0    0  0.17070351406E+02 -0.48616257503E+03 -0.10509874864E+03  0.50579746130E+03  0.90221275909E+02 0.  0.
          4    1    3    3  502    0  0.52003706699E+02  0.46941267244E+02 -0.90067380701E+02  0.11410521963E+03  0.00000000000E+00 0. -1.
         -3    1    3    3    0  502  0.51536675389E+02  0.18763540874E+03 -0.40525719392E+03  0.44955140835E+03  0.00000000000E+00 0.  1.
         13    1    5    5    0    0 -0.10514017625E+03  0.25426097185E+03  0.36877716264E+03  0.46010835045E+03  0.00000000000E+00 0.  1.
        -13    1    5    5    0    0 -0.15470557240E+02 -0.26750727998E+01  0.81348656620E+01  0.17682482720E+02  0.00000000000E+00 0. -1.
          3    1    6    6  503    0 -0.71072754031E+01 -0.20703666154E+03 -0.88091532530E+02  0.22511066320E+03  0.00000000000E+00 0. -1.
         -3    1    6    6    0  503  0.24177626810E+02 -0.27912591349E+03 -0.17007216106E+02  0.28068679809E+03  0.00000000000E+00 0.  1.
<mgrwt>
<rscale>  0 0.15310159E+04</rscale>
<asrwt>0</asrwt>
<pdfrwt beam="1">  1        2 0.10182566E+00 0.15310159E+04</pdfrwt>
<pdfrwt beam="2">  1       -1 0.13621202E+00 0.15310159E+04</pdfrwt>
<totfact> 0.21796302E+01</totfact>
</mgrwt>
</event>
<event>
12    7  0.1701638E-007  0.1477006E+04  0.7818608E-02  0.8899889E-01
          2   -1    0    0  501    0  0.00000000000E+00  0.00000000000E+00  0.94705937263E+03  0.94705937263E+03  0.00000000000E+00 0. -1.
         -1   -1    0    0    0  501 -0.00000000000E+00 -0.00000000000E+00 -0.57587358010E+03  0.57587358010E+03  0.00000000000E+00 0.  1.
         24    2    1    2    0    0  0.74593253931E+02 -0.97567840400E+02  0.57613170531E+03  0.59484616804E+03  0.82647351739E+02 0.  0.
        254    2    1    2    0    0 -0.74593253931E+02  0.97567840400E+02 -0.20494591278E+03  0.92808678469E+03  0.89680466978E+03 0.  0.
         23    2    4    4    0    0 -0.37558530210E+03  0.98365027642E+02 -0.39514410888E+03  0.56113468699E+03  0.89405102464E+02 0.  0.
         23    2    4    4    0    0  0.30099204817E+03 -0.79718724201E+00  0.19019819610E+03  0.36695209770E+03  0.88778599011E+02 0.  0.
          2    1    3    3  502    0  0.90154766415E+02 -0.90786421258E+02  0.53962965338E+03  0.55459013605E+03  0.00000000000E+00 0. -1.
         -1    1    3    3    0  502 -0.15561512484E+02 -0.67814191424E+01  0.36502051928E+02  0.40256031987E+02  0.00000000000E+00 0.  1.
         13    1    5    5    0    0 -0.23740302895E+03  0.75115824905E+02 -0.30823510220E+03  0.39624672054E+03  0.00000000000E+00 0. -1.
        -13    1    5    5    0    0 -0.13818227315E+03  0.23249202737E+02 -0.86909006679E+02  0.16488796645E+03  0.00000000000E+00 0.  1.
          2    1    6    6  503    0  0.23000421265E+03 -0.28939414642E+02  0.11130171038E+03  0.25715267506E+03  0.00000000000E+00 0. -1.
         -2    1    6    6    0  503  0.70987835518E+02  0.28142227400E+02  0.78896485717E+02  0.10979942264E+03  0.00000000000E+00 0.  1.
<mgrwt>
<rscale>  0 0.14770057E+04</rscale>
<asrwt>0</asrwt>
<pdfrwt beam="1">  1        2 0.14570144E+00 0.14770057E+04</pdfrwt>
<pdfrwt beam="2">  1       -1 0.88595936E-01 0.14770057E+04</pdfrwt>
<totfact> 0.37676807E+01</totfact>
</mgrwt>
</event>
<event>
12    7  0.1701638E-007  0.1760422E+04  0.7818608E-02  0.8727634E-01
          2   -1    0    0  501    0  0.00000000000E+00  0.00000000000E+00  0.57564725300E+03  0.57564725300E+03  0.00000000000E+00 0. -1.
         -1   -1    0    0    0  501 -0.00000000000E+00 -0.00000000000E+00 -0.13459139583E+04  0.13459139583E+04  0.00000000000E+00 0.  1.
         24    2    1    2    0    0 -0.17345245602E+03  0.60826454752E+03 -0.15751916236E+03  0.65706501555E+03  0.82768556100E+02 0.  0.
        254    2    1    2    0    0  0.17345245602E+03 -0.60826454752E+03 -0.61274754291E+03  0.12644961957E+04  0.90742468744E+03 0.  0.
         23    2    4    4    0    0  0.44705765732E+03 -0.60269008658E+03 -0.24336911710E+03  0.79455931587E+03  0.94868803348E+02 0.  0.
         23    2    4    4    0    0 -0.27360520130E+03 -0.55744609422E+01 -0.36937842581E+03  0.46993687985E+03  0.97515992484E+02 0.  0.
          2    1    3    3  502    0 -0.10940490671E+03  0.45472244190E+03 -0.84010910743E+02  0.47518392850E+03  0.00000000000E+00 0. -1.
         -1    1    3    3    0  502 -0.64047549315E+02  0.15354210562E+03 -0.73508251613E+02  0.18188108705E+03  0.00000000000E+00 0.  1.
         13    1    5    5    0    0  0.44191821131E+03 -0.60128954999E+03 -0.23110003970E+03  0.78118375352E+03  0.00000000000E+00 0. -1.
        -13    1    5    5    0    0  0.51394460156E+01 -0.14005365905E+01 -0.12269077397E+02  0.13375562353E+02  0.00000000000E+00 0.  1.
          2    1    6    6  503    0 -0.16412175239E+03  0.13063430248E+02 -0.28982799012E+03  0.33332696662E+03  0.00000000000E+00 0. -1.
         -2    1    6    6    0  503 -0.10948344891E+03 -0.18637891190E+02 -0.79550435687E+02  0.13660991322E+03  0.00000000000E+00 0.  1.
<mgrwt>
<rscale>  0 0.17604223E+04</rscale>
<asrwt>0</asrwt>
<pdfrwt beam="1">  1        2 0.88561116E-01 0.17604223E+04</pdfrwt>
<pdfrwt beam="2">  1       -1 0.20706368E+00 0.17604223E+04</pdfrwt>
<totfact> 0.75920182E+00</totfact>
</mgrwt>
</event>
<event>
12    7  0.1701638E-007  0.1632533E+04  0.7818608E-02  0.8800807E-01
          2   -1    0    0  501    0  0.00000000000E+00  0.00000000000E+00  0.16886919228E+04  0.16886919228E+04  0.00000000000E+00 0. -1.
         -1   -1    0    0    0  501 -0.00000000000E+00 -0.00000000000E+00 -0.39456039078E+03  0.39456039078E+03  0.00000000000E+00 0.  1.
         24    2    1    2    0    0  0.64321228134E+01  0.51059213762E+03  0.15743725039E+03  0.54067583147E+03  0.82450977700E+02 0.  0.
        254    2    1    2    0    0 -0.64321228134E+01 -0.51059213762E+03  0.11366942816E+04  0.15425764821E+04  0.90924287737E+03 0.  0.
         23    2    4    4    0    0  0.15874822480E+03 -0.30318149827E+02 -0.94118328373E+02  0.20788094986E+03  0.90752633520E+02 0.  0.
         23    2    4    4    0    0 -0.16518034761E+03 -0.48027398779E+03  0.12308126100E+04  0.13346955322E+04  0.92546379145E+02 0.  0.
          2    1    3    3  502    0 -0.25397807910E+02  0.31000090529E+03  0.12397692925E+03  0.33483710803E+03  0.00000000000E+00 0. -1.
         -1    1    3    3    0  502  0.31829930724E+02  0.20059123233E+03  0.33460321144E+02  0.20583872344E+03  0.00000000000E+00 0.  1.
         13    1    5    5    0    0  0.95440902913E+02 -0.16227676254E+02 -0.10421534268E+03  0.14224324615E+03  0.00000000000E+00 0. -1.
        -13    1    5    5    0    0  0.63307321888E+02 -0.14090473572E+02  0.10097014304E+02  0.65637703708E+02  0.00000000000E+00 0.  1.
          4    1    6    6  503    0 -0.13134409487E+03 -0.43095577261E+03  0.11416599523E+04  0.12273392343E+04  0.00000000000E+00 0. -1.
         -4    1    6    6    0  503 -0.33836252740E+02 -0.49318215177E+02  0.89152657641E+02  0.10735629796E+03  0.00000000000E+00 0.  1.
<mgrwt>
<rscale>  0 0.16325329E+04</rscale>
<asrwt>0</asrwt>
<pdfrwt beam="1">  1        2 0.25979875E+00 0.16325329E+04</pdfrwt>
<pdfrwt beam="2">  1       -1 0.60701600E-01 0.16325329E+04</pdfrwt>
<totfact> 0.29841015E+01</totfact>
</mgrwt>
</event>
<event>
12    7  0.1701638E-007  0.1769424E+04  0.7818608E-02  0.8722731E-01
         -1   -1    0    0    0  501 -0.00000000000E+00  0.00000000000E+00  0.51909465969E+03  0.51909465969E+03  0.00000000000E+00 0.  1.
          2   -1    0    0  501    0  0.00000000000E+00 -0.00000000000E+00 -0.15078464781E+04  0.15078464781E+04  0.00000000000E+00 0. -1.
         24    2    1    2    0    0 -0.21506440454E+03 -0.32345546361E+03  0.23765174385E+03  0.46231849372E+03  0.79899331936E+02 0.  0.
        254    2    1    2    0    0  0.21506440454E+03  0.32345546361E+03 -0.12264035622E+04  0.15646226440E+04  0.89056284770E+03 0.  0.
         23    2    4    4    0    0  0.17955859196E+03  0.61258710606E+03 -0.98244485643E+03  0.11751444073E+04  0.90896819116E+02 0.  0.
         23    2    4    4    0    0  0.35505812575E+02 -0.28913164245E+03 -0.24395870578E+03  0.38947823667E+03  0.85555112747E+02 0.  0.
          4    1    3    3  502    0 -0.95949547205E+01 -0.33306155888E+02 -0.17944329291E-01  0.34660690965E+02  0.00000000000E+00 0. -1.
         -3    1    3    3    0  502 -0.20546944982E+03 -0.29014930772E+03  0.23766968818E+03  0.42765780276E+03  0.00000000000E+00 0.  1.
         13    1    5    5    0    0  0.84508156761E+02  0.14805702502E+03 -0.27174650314E+03  0.32079381725E+03  0.00000000000E+00 0. -1.
        -13    1    5    5    0    0  0.95050435202E+02  0.46453008104E+03 -0.71069835329E+03  0.85435059010E+03  0.00000000000E+00 0.  1.
          1    1    6    6  503    0 -0.23303198075E+02 -0.30696483217E+02 -0.32672818051E+02  0.50525500114E+02  0.00000000000E+00 0. -1.
         -1    1    6    6    0  503  0.58809010650E+02 -0.25843515923E+03 -0.21128588773E+03  0.33895273655E+03  0.00000000000E+00 0.  1.
<mgrwt>
<rscale>  0 0.17694237E+04</rscale>
<asrwt>0</asrwt>
<pdfrwt beam="1">  1        2 0.23197638E+00 0.17694237E+04</pdfrwt>
<pdfrwt beam="2">  1       -1 0.79860717E-01 0.17694237E+04</pdfrwt>
<totfact> 0.21214145E+01</totfact>
</mgrwt>
</event>
<event>
12    7  0.1701638E-007  0.1365770E+04  0.7818608E-02  0.8978976E-01
          2   -1    0    0  501    0  0.00000000000E+00  0.00000000000E+00  0.33844267450E+04  0.33844267450E+04  0.00000000000E+00 0. -1.
         -1   -1    0    0    0  501 -0.00000000000E+00 -0.00000000000E+00 -0.13778746678E+03  0.13778746678E+03  0.00000000000E+00 0.  1.
         24    2    1    2    0    0  0.53058418891E+02 -0.74778889074E+02 -0.24142845255E+02  0.12648261761E+03  0.83713186024E+02 0.  0.
        254    2    1    2    0    0 -0.53058418891E+02  0.74778889074E+02  0.32707821235E+04  0.33957315942E+04  0.90805852364E+03 0.  0.
         23    2    4    4    0    0 -0.39530446888E+03 -0.10685362603E+03  0.91491635997E+03  0.10064558639E+04  0.90543578789E+02 0.  0.
         23    2    4    4    0    0  0.34224604999E+03  0.18163251511E+03  0.23558657635E+04  0.23892757303E+04  0.91718539598E+02 0.  0.
          2    1    3    3  502    0  0.29070666970E+02  0.34529987355E+01 -0.33074681428E+02  0.44169689040E+02  0.00000000000E+00 0. -1.
         -3    1    3    3    0  502  0.23987751921E+02 -0.78231887809E+02  0.89318361729E+01  0.82312928571E+02  0.00000000000E+00 0.  1.
         13    1    5    5    0    0 -0.36884223208E+03 -0.11831840883E+03  0.87768487400E+03  0.95936154607E+03  0.00000000000E+00 0. -1.
        -13    1    5    5    0    0 -0.26462236799E+02  0.11464782799E+02  0.37231485972E+02  0.47094317796E+02  0.00000000000E+00 0.  1.
          4    1    6    6  503    0  0.21972628325E+03  0.65670298004E+02  0.13260947419E+04  0.13457783963E+04  0.00000000000E+00 0. -1.
         -4    1    6    6    0  503  0.12251976674E+03  0.11596221710E+03  0.10297710216E+04  0.10434973340E+04  0.00000000000E+00 0.  1.
<mgrwt>
<rscale>  0 0.13657695E+04</rscale>
<asrwt>0</asrwt>
<pdfrwt beam="1">  1        2 0.52068097E+00 0.13657695E+04</pdfrwt>
<pdfrwt beam="2">  1       -1 0.21198074E-01 0.13657695E+04</pdfrwt>
<totfact> 0.20464666E+01</totfact>
</mgrwt>
</event>
<event>
12    7  0.1701638E-007  0.2308524E+04  0.7818608E-02  0.8474568E-01
         -1   -1    0    0    0  501 -0.00000000000E+00  0.00000000000E+00  0.59742438184E+03  0.59742438184E+03  0.00000000000E+00 0.  1.
          2   -1    0    0  501    0  0.00000000000E+00 -0.00000000000E+00 -0.22301079970E+04  0.22301079970E+04  0.00000000000E+00 0. -1.
         24    2    1    2    0    0 -0.17293065182E+03 -0.94121095204E+03 -0.93397003058E+03  0.13395451581E+04  0.79360859802E+02 0.  0.
        254    2    1    2    0    0  0.17293065182E+03  0.94121095204E+03 -0.69871358457E+03  0.14879872207E+04  0.90006790252E+03 0.  0.
         23    2    4    4    0    0 -0.24818120480E+03  0.16203744211E+03  0.62720452865E+02  0.31648752485E+03  0.91544825706E+02 0.  0.
         23    2    4    4    0    0  0.42111185662E+03  0.77917350993E+03 -0.76143403743E+03  0.11714996959E+04  0.90460984284E+02 0.  0.
          2    1    3    3  502    0 -0.15234503351E+03 -0.72287671484E+03 -0.75707118541E+03  0.10577885109E+04  0.00000000000E+00 0. -1.
         -1    1    3    3    0  502 -0.20585618312E+02 -0.21833423720E+03 -0.17689884518E+03  0.28175664720E+03  0.00000000000E+00 0.  1.
         13    1    5    5    0    0 -0.82094013572E+02  0.58563523127E+02 -0.22062440383E+02  0.10322724728E+03  0.00000000000E+00 0.  1.
        -13    1    5    5    0    0 -0.16608719123E+03  0.10347391898E+03  0.84782893248E+02  0.21326027757E+03  0.00000000000E+00 0. -1.
          3    1    6    6  503    0  0.26259969244E+03  0.49301175255E+03 -0.42188841984E+03  0.70000644670E+03  0.00000000000E+00 0. -1.
         -3    1    6    6    0  503  0.15851216418E+03  0.28616175737E+03 -0.33954561760E+03  0.47149324916E+03  0.00000000000E+00 0.  1.
<mgrwt>
<rscale>  0 0.23085241E+04</rscale>
<asrwt>0</asrwt>
<pdfrwt beam="1">  1        2 0.34309354E+00 0.23085241E+04</pdfrwt>
<pdfrwt beam="2">  1       -1 0.91911442E-01 0.23085241E+04</pdfrwt>
<totfact> 0.59015885E+00</totfact>
</mgrwt>
</event>
<event>
12    7  0.1701638E-007  0.1787013E+04  0.7818608E-02  0.8713236E-01
          2   -1    0    0  501    0  0.00000000000E+00  0.00000000000E+00  0.33629373476E+03  0.33629373476E+03  0.00000000000E+00 0. -1.
         -1   -1    0    0    0  501 -0.00000000000E+00 -0.00000000000E+00 -0.23739779356E+04  0.23739779356E+04  0.00000000000E+00 0.  1.
         24    2    1    2    0    0 -0.26724440149E+03 -0.19182947715E+03  0.11020976584E+03  0.35613368357E+03  0.80416973667E+02 0.  0.
        254    2    1    2    0    0  0.26724440149E+03  0.19182947715E+03 -0.21478939666E+04  0.23541379867E+04  0.90570362164E+03 0.  0.
         23    2    4    4    0    0  0.39474848251E+03 -0.12685994147E+03 -0.18270590812E+04  0.18757296883E+04  0.91088792003E+02 0.  0.
         23    2    4    4    0    0 -0.12750408101E+03  0.31868941861E+03 -0.32083488539E+03  0.47840829843E+03  0.90106826127E+02 0.  0.
          2    1    3    3  502    0 -0.16680838820E+03 -0.71893829674E+02  0.48858208423E+02  0.18809807455E+03  0.00000000000E+00 0. -1.
         -1    1    3    3    0  502 -0.10043601330E+03 -0.11993564748E+03  0.61351557419E+02  0.16803560902E+03  0.00000000000E+00 0.  1.
         13    1    5    5    0    0  0.88513961279E+02 -0.45678725917E+01 -0.53295604114E+03  0.54027560429E+03  0.00000000000E+00 0.  1.
        -13    1    5    5    0    0  0.30623452123E+03 -0.12229206887E+03 -0.12941030401E+04  0.13354540840E+04  0.00000000000E+00 0. -1.
          1    1    6    6  503    0 -0.68494831058E+02  0.24953534346E+03 -0.27114720198E+03  0.37480692985E+03  0.00000000000E+00 0. -1.
         -1    1    6    6    0  503 -0.59009249956E+02  0.69154075152E+02 -0.49687683407E+02  0.10360136859E+03  0.00000000000E+00 0.  1.
<mgrwt>
<rscale>  0 0.17870130E+04</rscale>
<asrwt>0</asrwt>
<pdfrwt beam="1">  1        2 0.51737498E-01 0.17870130E+04</pdfrwt>
<pdfrwt beam="2">  1       -1 0.36522737E+00 0.17870130E+04</pdfrwt>
<totfact> 0.12887337E+00</totfact>
</mgrwt>
</event>
<event>
12    7  0.1701638E-007  0.2578657E+04  0.7818608E-02  0.8375487E-01
          2   -1    0    0  501    0  0.00000000000E+00  0.00000000000E+00  0.37298625898E+04  0.37298625898E+04  0.00000000000E+00 0. -1.
         -1   -1    0    0    0  501 -0.00000000000E+00 -0.00000000000E+00 -0.44569132313E+03  0.44569132313E+03  0.00000000000E+00 0.  1.
         24    2    1    2    0    0 -0.24749468074E+03 -0.78539542124E+03  0.26228906117E+04  0.27502532221E+04  0.78981262216E+02 0.  0.
        254    2    1    2    0    0  0.24749468074E+03  0.78539542124E+03  0.66128065494E+03  0.14253006908E+04  0.95712609934E+03 0.  0.
         23    2    4    4    0    0  0.68428079144E+02  0.36726605521E+03  0.84283133864E+03  0.92670869621E+03  0.94114743285E+02 0.  0.
         23    2    4    4    0    0  0.17906660159E+03  0.41812936602E+03 -0.18155068371E+03  0.49859199464E+03  0.93468239659E+02 0.  0.
          4    1    3    3  502    0 -0.18794939420E+03 -0.67546996605E+03  0.22744045581E+04  0.23800211646E+04  0.00000000000E+00 0. -1.
         -3    1    3    3    0  502 -0.59545286541E+02 -0.10992545518E+03  0.34848605356E+03  0.37023205746E+03  0.00000000000E+00 0.  1.
         13    1    5    5    0    0  0.35867766822E+02  0.21633580495E+03  0.60134067929E+03  0.64007678428E+03  0.00000000000E+00 0. -1.
        -13    1    5    5    0    0  0.32560312322E+02  0.15093025027E+03  0.24149065935E+03  0.28663191193E+03  0.00000000000E+00 0.  1.
          4    1    6    6  503    0  0.78473394154E+02  0.20912507361E+03 -0.40166526250E+02  0.22694651315E+03  0.00000000000E+00 0. -1.
         -4    1    6    6    0  503  0.10059320744E+03  0.20900429242E+03 -0.14138415746E+03  0.27164548149E+03  0.00000000000E+00 0.  1.
<mgrwt>
<rscale>  0 0.25786565E+04</rscale>
<asrwt>0</asrwt>
<pdfrwt beam="1">  1        2 0.57382499E+00 0.25786565E+04</pdfrwt>
<pdfrwt beam="2">  1       -1 0.68567899E-01 0.25786565E+04</pdfrwt>
<totfact> 0.12048613E+00</totfact>
</mgrwt>
</event>
<event>
12    7  0.1701638E-007  0.1431711E+04  0.7818608E-02  0.8931179E-01
          2   -1    0    0  501    0  0.00000000000E+00  0.00000000000E+00  0.88255505598E+03  0.88255505598E+03  0.00000000000E+00 0. -1.
         -1   -1    0    0    0  501 -0.00000000000E+00 -0.00000000000E+00 -0.58064301544E+03  0.58064301544E+03  0.00000000000E+00 0.  1.
         24    2    1    2    0    0 -0.75708554558E+02 -0.40100427426E+03 -0.30871613117E+02  0.41684047025E+03  0.79162541224E+02 0.  0.
        254    2    1    2    0    0  0.75708554558E+02  0.40100427426E+03  0.33278365365E+03  0.10463576012E+04  0.90420299502E+03 0.  0.
         23    2    4    4    0    0 -0.27052863475E+03  0.45337063371E+03  0.41220559020E+03  0.67586654730E+03  0.90285477478E+02 0.  0.
         23    2    4    4    0    0  0.34623718931E+03 -0.52366359450E+02 -0.79421936547E+02  0.37049105387E+03  0.91287184931E+02 0.  0.
          4    1    3    3  502    0 -0.12988790361E+02 -0.18085740139E+02  0.13893614025E+02  0.26245669777E+02  0.00000000000E+00 0. -1.
         -3    1    3    3    0  502 -0.62719764197E+02 -0.38291853412E+03 -0.44765227142E+02  0.39059480047E+03  0.00000000000E+00 0.  1.
         13    1    5    5    0    0 -0.13526062487E+03  0.28459915873E+03  0.28542597051E+03  0.42515891433E+03  0.00000000000E+00 0. -1.
        -13    1    5    5    0    0 -0.13526800989E+03  0.16877147497E+03  0.12677961969E+03  0.25070763297E+03  0.00000000000E+00 0.  1.
          4    1    6    6  503    0  0.30589013691E+03 -0.69545314567E+02 -0.88004850231E+02  0.32580696785E+03  0.00000000000E+00 0. -1.
         -4    1    6    6    0  503  0.40347052400E+02  0.17178955117E+02  0.85829136841E+01  0.44684086022E+02  0.00000000000E+00 0.  1.
<mgrwt>
<rscale>  0 0.14317115E+04</rscale>
<asrwt>0</asrwt>
<pdfrwt beam="1">  1        2 0.13577770E+00 0.14317115E+04</pdfrwt>
<pdfrwt beam="2">  1       -1 0.89329695E-01 0.14317115E+04</pdfrwt>
<totfact> 0.41031109E+01</totfact>
</mgrwt>
</event>
<event>
12    7  0.1701638E-007  0.1913260E+04  0.7818608E-02  0.8648284E-01
         -1   -1    0    0    0  501 -0.00000000000E+00  0.00000000000E+00  0.27529217703E+03  0.27529217703E+03  0.00000000000E+00 0.  1.
          2   -1    0    0  501    0  0.00000000000E+00 -0.00000000000E+00 -0.33242541147E+04  0.33242541147E+04  0.00000000000E+00 0. -1.
         24    2    1    2    0    0  0.22113892951E+03  0.22073113375E+02 -0.25300631022E+04  0.25410459925E+04  0.79408981222E+02 0.  0.
        254    2    1    2    0    0 -0.22113892951E+03 -0.22073113375E+02 -0.51889883543E+03  0.10585002992E+04  0.89542014359E+03 0.  0.
         23    2    4    4    0    0 -0.22351730002E+03  0.40177194935E+03 -0.37734105700E+03  0.60196163886E+03  0.92686885072E+02 0.  0.
         23    2    4    4    0    0  0.23783705129E+01 -0.42384506273E+03 -0.14155777843E+03  0.45653866035E+03  0.93480746257E+02 0.  0.
          2    1    3    3  502    0  0.17546407633E+03  0.22792580395E+02 -0.22792038805E+04  0.22860615636E+04  0.00000000000E+00 0. -1.
         -1    1    3    3    0  502  0.45674853171E+02 -0.71946701971E+00 -0.25085922173E+03  0.25498442888E+03  0.00000000000E+00 0.  1.
         13    1    5    5    0    0 -0.28584145936E+02  0.82130816289E+01 -0.26715803218E+02  0.39978022091E+02  0.00000000000E+00 0. -1.
        -13    1    5    5    0    0 -0.19493315408E+03  0.39355886772E+03 -0.35062525379E+03  0.56198361677E+03  0.00000000000E+00 0.  1.
          2    1    6    6  503    0  0.23452846146E+02 -0.46545517724E+02  0.23589096049E+01  0.52173610830E+02  0.00000000000E+00 0. -1.
         -2    1    6    6    0  503 -0.21074475633E+02 -0.37729954500E+03 -0.14391668803E+03  0.40436504952E+03  0.00000000000E+00 0.  1.
<mgrwt>
<rscale>  0 0.19132602E+04</rscale>
<asrwt>0</asrwt>
<pdfrwt beam="1">  1        2 0.51142372E+00 0.19132602E+04</pdfrwt>
<pdfrwt beam="2">  1       -1 0.42352642E-01 0.19132602E+04</pdfrwt>
<totfact> 0.62970678E+00</totfact>
</mgrwt>
</event>
<event>
12    7  0.1701638E-007  0.1615814E+04  0.7818608E-02  0.8810891E-01
         -1   -1    0    0    0  501 -0.00000000000E+00  0.00000000000E+00  0.64907162659E+03  0.64907162659E+03  0.00000000000E+00 0.  1.
          2   -1    0    0  501    0  0.00000000000E+00 -0.00000000000E+00 -0.10056112831E+04  0.10056112831E+04  0.00000000000E+00 0. -1.
         24    2    1    2    0    0  0.68390486182E+02 -0.26345914805E+03  0.37252415360E+03  0.46804461003E+03  0.78762495346E+02 0.  0.
        254    2    1    2    0    0 -0.68390486182E+02  0.26345914805E+03 -0.72906381015E+03  0.11866382997E+04  0.89581718769E+03 0.  0.
         23    2    4    4    0    0  0.12557660408E+03  0.48560259012E+03 -0.71476325455E+03  0.87799030925E+03  0.91657591403E+02 0.  0.
         23    2    4    4    0    0 -0.19396709026E+03 -0.22214344207E+03 -0.14300555595E+02  0.30864799045E+03  0.89934060059E+02 0.  0.
          2    1    3    3  502    0 -0.13658933718E+02 -0.68108144086E+02  0.11737009668E+03  0.13638557606E+03  0.00000000000E+00 0. -1.
         -1    1    3    3    0  502  0.82049419901E+02 -0.19535100396E+03  0.25515405692E+03  0.33165903397E+03  0.00000000000E+00 0.  1.
         13    1    5    5    0    0  0.10360318724E+03  0.23811430718E+03 -0.32894465433E+03  0.41909024005E+03  0.00000000000E+00 0. -1.
        -13    1    5    5    0    0  0.21973416837E+02  0.24748828294E+03 -0.38581860022E+03  0.45890006921E+03  0.00000000000E+00 0.  1.
          3    1    6    6  503    0 -0.52510701735E+02 -0.58084851113E+02 -0.44289547843E+02  0.89959923153E+02  0.00000000000E+00 0. -1.
         -3    1    6    6    0  503 -0.14145638852E+03 -0.16405859096E+03  0.29988992247E+02  0.21868806730E+03  0.00000000000E+00 0.  1.
<mgrwt>
<rscale>  0 0.16158140E+04</rscale>
<asrwt>0</asrwt>
<pdfrwt beam="1">  1        2 0.15470943E+00 0.16158140E+04</pdfrwt>
<pdfrwt beam="2">  1       -1 0.99857173E-01 0.16158140E+04</pdfrwt>
<totfact> 0.26107964E+01</totfact>
</mgrwt>
</event>
<event>
12    7  0.1701638E-007  0.1542778E+04  0.7818608E-02  0.8856494E-01
          2   -1    0    0  501    0  0.00000000000E+00  0.00000000000E+00  0.31887369053E+04  0.31887369053E+04  0.00000000000E+00 0. -1.
         -1   -1    0    0    0  501 -0.00000000000E+00 -0.00000000000E+00 -0.18660722082E+03  0.18660722082E+03  0.00000000000E+00 0.  1.
         24    2    1    2    0    0 -0.21755429511E+03 -0.44976682176E+03  0.93551691692E+03  0.10634156145E+04  0.77722597058E+02 0.  0.
        254    2    1    2    0    0  0.21755429511E+03  0.44976682176E+03  0.20666127676E+04  0.23119285116E+04  0.90802260234E+03 0.  0.
         23    2    4    4    0    0 -0.17071291450E+03  0.53029849207E+03  0.15757292617E+04  0.16738091651E+04  0.91405825121E+02 0.  0.
         23    2    4    4    0    0  0.38826720961E+03 -0.80531670310E+02  0.49088350583E+03  0.63811934653E+03  0.94830945088E+02 0.  0.
          4    1    3    3  502    0 -0.21678258422E+03 -0.39478551241E+03  0.84385342851E+03  0.95652438465E+03  0.00000000000E+00 0. -1.
         -3    1    3    3    0  502 -0.77171088698E+00 -0.54981309350E+02  0.91663488414E+02  0.10689122987E+03  0.00000000000E+00 0.  1.
         13    1    5    5    0    0 -0.18668753130E+02  0.99807436205E+02  0.19994773143E+03  0.22425240683E+03  0.00000000000E+00 0. -1.
        -13    1    5    5    0    0 -0.15204416137E+03  0.43049105587E+03  0.13757815303E+04  0.14495567582E+04  0.00000000000E+00 0.  1.
          3    1    6    6  503    0  0.35605512490E+02 -0.17426756503E+02  0.10164838396E+03  0.10910471266E+03  0.00000000000E+00 0. -1.
         -3    1    6    6    0  503  0.35266169712E+03 -0.63104913807E+02  0.38923512186E+03  0.52901463387E+03  0.00000000000E+00 0.  1.
<mgrwt>
<rscale>  0 0.15427784E+04</rscale>
<asrwt>0</asrwt>
<pdfrwt beam="1">  1        2 0.49057487E+00 0.15427784E+04</pdfrwt>
<pdfrwt beam="2">  1       -1 0.28708806E-01 0.15427784E+04</pdfrwt>
<totfact> 0.16083877E+01</totfact>
</mgrwt>
</event>
<event>
12    7  0.1701638E-007  0.1422074E+04  0.7818608E-02  0.8937994E-01
          2   -1    0    0  501    0  0.00000000000E+00  0.00000000000E+00  0.79586888390E+03  0.79586888390E+03  0.00000000000E+00 0. -1.
         -1   -1    0    0    0  501 -0.00000000000E+00 -0.00000000000E+00 -0.63524700264E+03  0.63524700264E+03  0.00000000000E+00 0.  1.
         24    2    1    2    0    0 -0.25605636467E+03 -0.17001761274E+03 -0.21789416192E+03  0.38516392053E+03  0.80015806877E+02 0.  0.
        254    2    1    2    0    0  0.25605636467E+03  0.17001761274E+03  0.37851604318E+03  0.10459519660E+04  0.92534872870E+03 0.  0.
         23    2    4    4    0    0  0.30615422303E+03  0.49010215471E+03  0.67832892594E+02  0.58842441850E+03  0.87814945396E+02 0.  0.
         23    2    4    4    0    0 -0.50097858360E+02 -0.32008454197E+03  0.31068315059E+03  0.45752754750E+03  0.88563690309E+02 0.  0.
          4    1    3    3  502    0 -0.71878527323E+02 -0.37010362209E+02 -0.18611215089E+02  0.82961840192E+02  0.00000000000E+00 0. -1.
         -3    1    3    3    0  502 -0.18417783735E+03 -0.13300725053E+03 -0.19928294683E+03  0.30220208034E+03  0.00000000000E+00 0.  1.
         13    1    5    5    0    0  0.18187461985E+03  0.21025314052E+03  0.41633937766E+02  0.28110166349E+03  0.00000000000E+00 0.  1.
        -13    1    5    5    0    0  0.12427960319E+03  0.27984901419E+03  0.26198954828E+02  0.30732275501E+03  0.00000000000E+00 0. -1.
          3    1    6    6  503    0  0.22764717970E+02 -0.13085290137E+03  0.13206776708E+03  0.18730352181E+03  0.00000000000E+00 0. -1.
         -3    1    6    6    0  503 -0.72862576330E+02 -0.18923164060E+03  0.17861538351E+03  0.27022402569E+03  0.00000000000E+00 0.  1.
<mgrwt>
<rscale>  0 0.14220736E+04</rscale>
<asrwt>0</asrwt>
<pdfrwt beam="1">  1        2 0.12244137E+00 0.14220736E+04</pdfrwt>
<pdfrwt beam="2">  1       -1 0.97730308E-01 0.14220736E+04</pdfrwt>
<totfact> 0.38664920E+01</totfact>
</mgrwt>
</event>
<event>
12    7  0.1701638E-007  0.1400838E+04  0.7818608E-02  0.8953212E-01
          2   -1    0    0  501    0  0.00000000000E+00  0.00000000000E+00  0.20962803747E+04  0.20962803747E+04  0.00000000000E+00 0. -1.
         -1   -1    0    0    0  501 -0.00000000000E+00 -0.00000000000E+00 -0.23402716985E+03  0.23402716985E+03  0.00000000000E+00 0.  1.
         24    2    1    2    0    0  0.23003890413E+03 -0.30863935890E+02 -0.52517956180E+01  0.24461199937E+03  0.77051728893E+02 0.  0.
        254    2    1    2    0    0 -0.23003890413E+03  0.30863935890E+02  0.18675050005E+04  0.20856955452E+04  0.89926664592E+03 0.  0.
         23    2    4    4    0    0 -0.14295663210E+03  0.42195981570E+03  0.13529642090E+04  0.14273946993E+04  0.91960817752E+02 0.  0.
         23    2    4    4    0    0 -0.87082272030E+02 -0.39109587981E+03  0.51454079145E+03  0.65830084587E+03  0.89824653092E+02 0.  0.
          2    1    3    3  502    0  0.10688304882E+02 -0.83708216535E+01  0.18377961738E+02  0.22848632214E+02  0.00000000000E+00 0. -1.
         -1    1    3    3    0  502  0.21935059925E+03 -0.22493114236E+02 -0.23629757356E+02  0.22176336715E+03  0.00000000000E+00 0.  1.
         13    1    5    5    0    0  0.77089898851E+01  0.47725806257E+02  0.20444164612E+03  0.21007990808E+03  0.00000000000E+00 0.  1.
        -13    1    5    5    0    0 -0.15066562198E+03  0.37423400944E+03  0.11485225629E+04  0.12173147912E+04  0.00000000000E+00 0. -1.
          4    1    6    6  503    0 -0.30746033199E+02 -0.24760250427E+03  0.37468754580E+03  0.45015894487E+03  0.00000000000E+00 0. -1.
         -4    1    6    6    0  503 -0.56336238830E+02 -0.14349337555E+03  0.13985324566E+03  0.20814190100E+03  0.00000000000E+00 0.  1.
<mgrwt>
<rscale>  0 0.14008377E+04</rscale>
<asrwt>0</asrwt>
<pdfrwt beam="1">  1        2 0.32250466E+00 0.14008377E+04</pdfrwt>
<pdfrwt beam="2">  1       -1 0.36004181E-01 0.14008377E+04</pdfrwt>
<totfact> 0.48318371E+01</totfact>
</mgrwt>
</event>
<event>
12    7  0.1701638E-007  0.2855193E+04  0.7818608E-02  0.8286335E-01
         -1   -1    0    0    0  501 -0.00000000000E+00  0.00000000000E+00  0.11597786078E+04  0.11597786078E+04  0.00000000000E+00 0.  1.
          2   -1    0    0  501    0  0.00000000000E+00 -0.00000000000E+00 -0.17572590425E+04  0.17572590425E+04  0.00000000000E+00 0. -1.
         24    2    1    2    0    0 -0.49135782004E+03  0.53764275118E+03 -0.13508585084E+04  0.15368642811E+04  0.81491554996E+02 0.  0.
        254    2    1    2    0    0  0.49135782004E+03 -0.53764275118E+03  0.75337807366E+03  0.13801733693E+04  0.89822478932E+03 0.  0.
         23    2    4    4    0    0  0.21029346277E+03 -0.46664533092E+02 -0.17335590578E+03  0.29063721509E+03  0.89536593615E+02 0.  0.
         23    2    4    4    0    0  0.28106435726E+03 -0.49097821809E+03  0.92673397944E+03  0.10895361542E+04  0.90533855782E+02 0.  0.
          2    1    3    3  502    0 -0.36287980794E+03  0.44574696647E+03 -0.10465571105E+04  0.11940074953E+04  0.00000000000E+00 0. -1.
         -1    1    3    3    0  502 -0.12847801209E+03  0.91895784707E+02 -0.30430139784E+03  0.34285678580E+03  0.00000000000E+00 0.  1.
         13    1    5    5    0    0  0.36007760185E+02  0.25450285887E+02 -0.25167197633E+02  0.50770697079E+02  0.00000000000E+00 0. -1.
        -13    1    5    5    0    0  0.17428570259E+03 -0.72114818979E+02 -0.14818870815E+03  0.23986651802E+03  0.00000000000E+00 0.  1.
          3    1    6    6  503    0  0.16799716949E+02 -0.20250115536E+02  0.15893809354E+02  0.30739402150E+02  0.00000000000E+00 0. -1.
         -3    1    6    6    0  503  0.26426464031E+03 -0.47072810255E+03  0.91084017009E+03  0.10587967520E+04  0.00000000000E+00 0.  1.
<mgrwt>
<rscale>  0 0.28551928E+04</rscale>
<asrwt>0</asrwt>
<pdfrwt beam="1">  1        2 0.27034755E+00 0.28551928E+04</pdfrwt>
<pdfrwt beam="2">  1       -1 0.17842748E+00 0.28551928E+04</pdfrwt>
<totfact> 0.19193876E+00</totfact>
</mgrwt>
</event>
<event>
12    7  0.1701638E-007  0.1729375E+04  0.7818608E-02  0.8744786E-01
         -1   -1    0    0    0  501 -0.00000000000E+00  0.00000000000E+00  0.24070903807E+03  0.24070903807E+03  0.00000000000E+00 0.  1.
          2   -1    0    0  501    0  0.00000000000E+00 -0.00000000000E+00 -0.31061736660E+04  0.31061736660E+04  0.00000000000E+00 0. -1.
         24    2    1    2    0    0  0.55314415312E+03 -0.65819872466E+02 -0.16893764523E+04  0.17806542835E+04  0.80225743837E+02 0.  0.
        254    2    1    2    0    0 -0.55314415312E+03  0.65819872466E+02 -0.11760881757E+04  0.15662284206E+04  0.87154309065E+03 0.  0.
         23    2    4    4    0    0 -0.17214077722E+02  0.38138936420E+03 -0.33092911751E+03  0.51307873786E+03  0.89339458411E+02 0.  0.
         23    2    4    4    0    0 -0.53593007540E+03 -0.31556949174E+03 -0.84515905819E+03  0.10531496828E+04  0.89583876210E+02 0.  0.
          2    1    3    3  502    0  0.83546058919E+01 -0.12991591036E+02 -0.47294331147E+02  0.49752734959E+02  0.00000000000E+00 0. -1.
         -1    1    3    3    0  502  0.54478954723E+03 -0.52828281430E+02 -0.16420821211E+04  0.17309015485E+04  0.00000000000E+00 0.  1.
         13    1    5    5    0    0 -0.13009086074E+02  0.13181104717E+02 -0.38973692758E+02  0.43150047152E+02  0.00000000000E+00 0.  1.
        -13    1    5    5    0    0 -0.42049916482E+01  0.36820825948E+03 -0.29195542475E+03  0.46992869071E+03  0.00000000000E+00 0. -1.
          1    1    6    6  503    0 -0.39642785854E+03 -0.19847926559E+03 -0.64330216320E+03  0.78127251268E+03  0.00000000000E+00 0. -1.
         -1    1    6    6    0  503 -0.13950221686E+03 -0.11709022615E+03 -0.20185689499E+03  0.27187717010E+03  0.00000000000E+00 0.  1.
<mgrwt>
<rscale>  0 0.17293745E+04</rscale>
<asrwt>0</asrwt>
<pdfrwt beam="1">  1        2 0.47787282E+00 0.17293745E+04</pdfrwt>
<pdfrwt beam="2">  1       -1 0.37032163E-01 0.17293745E+04</pdfrwt>
<totfact> 0.11359078E+01</totfact>
</mgrwt>
</event>
<event>
12    7  0.1701638E-007  0.1407155E+04  0.7818608E-02  0.8948655E-01
         -1   -1    0    0    0  501 -0.00000000000E+00  0.00000000000E+00  0.24607540963E+03  0.24607540963E+03  0.00000000000E+00 0.  1.
          2   -1    0    0  501    0  0.00000000000E+00 -0.00000000000E+00 -0.20116658708E+04  0.20116658708E+04  0.00000000000E+00 0. -1.
         24    2    1    2    0    0  0.28461512470E+03  0.24952580729E+03 -0.26466005178E+03  0.46896816606E+03  0.81346788817E+02 0.  0.
        254    2    1    2    0    0 -0.28461512470E+03 -0.24952580729E+03 -0.15009304094E+04  0.17887731144E+04  0.89646431227E+03 0.  0.
         23    2    4    4    0    0 -0.27344193073E+03 -0.38199643343E+03 -0.27464711003E+03  0.55185923351E+03  0.91792232394E+02 0.  0.
         23    2    4    4    0    0 -0.11173193967E+02  0.13247062613E+03 -0.12262832993E+04  0.12369138809E+04  0.92260020291E+02 0.  0.
          4    1    3    3  502    0  0.11814674663E+03  0.12012199758E+03 -0.16473963052E+03  0.23564187638E+03  0.00000000000E+00 0. -1.
         -3    1    3    3    0  502  0.16646837807E+03  0.12940380972E+03 -0.99920421255E+02  0.23332628967E+03  0.00000000000E+00 0.  1.
         13    1    5    5    0    0 -0.17159883858E+03 -0.21812499885E+03 -0.21119909890E+03  0.34875454965E+03  0.00000000000E+00 0. -1.
        -13    1    5    5    0    0 -0.10184309216E+03 -0.16387143457E+03 -0.63448011131E+02  0.20310468386E+03  0.00000000000E+00 0.  1.
          3    1    6    6  503    0  0.83013204788E+01 -0.42605989894E+01 -0.14224782123E+02  0.17012026683E+02  0.00000000000E+00 0. -1.
         -3    1    6    6    0  503 -0.19474514446E+02  0.13673122512E+03 -0.12120585172E+04  0.12199018542E+04  0.00000000000E+00 0.  1.
<mgrwt>
<rscale>  0 0.14071553E+04</rscale>
<asrwt>0</asrwt>
<pdfrwt beam="1">  1        2 0.30948706E+00 0.14071553E+04</pdfrwt>
<pdfrwt beam="2">  1       -1 0.37857755E-01 0.14071553E+04</pdfrwt>
<totfact> 0.49150544E+01</totfact>
</mgrwt>
</event>
<event>
12    7  0.1701638E-007  0.2366343E+04  0.7818608E-02  0.8452213E-01
         -1   -1    0    0    0  501 -0.00000000000E+00  0.00000000000E+00  0.10342785974E+04  0.10342785974E+04  0.00000000000E+00 0.  1.
          2   -1    0    0  501    0  0.00000000000E+00 -0.00000000000E+00 -0.13534990096E+04  0.13534990096E+04  0.00000000000E+00 0. -1.
         24    2    1    2    0    0  0.86474802775E+03  0.18226238553E+03  0.36756322200E+03  0.96008347891E+03  0.75158736236E+02 0.  0.
        254    2    1    2    0    0 -0.86474802775E+03 -0.18226238553E+03 -0.68678363424E+03  0.14276941281E+04  0.88635773505E+03 0.  0.
         23    2    4    4    0    0 -0.17549016931E+03  0.26341679285E+03  0.35713749872E+02  0.33034839719E+03  0.87575026770E+02 0.  0.
         23    2    4    4    0    0 -0.68925785844E+03 -0.44567917838E+03 -0.72249738411E+03  0.10973457309E+04  0.91972048225E+02 0.  0.
          4    1    3    3  502    0  0.48363788399E+02 -0.65164843747E+01  0.15538447580E+02  0.51214880163E+02  0.00000000000E+00 0. -1.
         -3    1    3    3    0  502  0.81638423935E+03  0.18877886991E+03  0.35202477442E+03  0.90886859875E+03  0.00000000000E+00 0.  1.
         13    1    5    5    0    0 -0.13196767702E+03  0.23905517649E+03  0.51820036755E+02  0.27793553460E+03  0.00000000000E+00 0. -1.
        -13    1    5    5    0    0 -0.43522492296E+02  0.24361616354E+02 -0.16106286883E+02  0.52412862583E+02  0.00000000000E+00 0.  1.
          2    1    6    6  503    0 -0.63055546950E+03 -0.38172514245E+03 -0.66864174172E+03  0.99518644649E+03  0.00000000000E+00 0. -1.
         -2    1    6    6    0  503 -0.58702388942E+02 -0.63954035925E+02 -0.53855642388E+02  0.10215928443E+03  0.00000000000E+00 0.  1.
<mgrwt>
<rscale>  0 0.23663432E+04</rscale>
<asrwt>0</asrwt>
<pdfrwt beam="1">  1        2 0.20823062E+00 0.23663432E+04</pdfrwt>
<pdfrwt beam="2">  1       -1 0.15911978E+00 0.23663432E+04</pdfrwt>
<totfact> 0.46930446E+00</totfact>
</mgrwt>
</event>
<event>
12    7  0.1701638E-007  0.1641274E+04  0.7818608E-02  0.8795585E-01
         -1   -1    0    0    0  501 -0.00000000000E+00  0.00000000000E+00  0.20543308162E+03  0.20543308162E+03  0.00000000000E+00 0.  1.
          2   -1    0    0  501    0  0.00000000000E+00 -0.00000000000E+00 -0.32781731306E+04  0.32781731306E+04  0.00000000000E+00 0. -1.
         24    2    1    2    0    0  0.28389714902E+02 -0.45201469506E+03 -0.18045353242E+04  0.18622952905E+04  0.81686914864E+02 0.  0.
        254    2    1    2    0    0 -0.28389714902E+02  0.45201469506E+03 -0.12682047248E+04  0.16213109218E+04  0.90287464283E+03 0.  0.
         23    2    4    4    0    0 -0.30194808375E+03  0.25054492860E+03 -0.11967592334E+04  0.12626694039E+04  0.90310322756E+02 0.  0.
         23    2    4    4    0    0  0.27355836885E+03  0.20146976646E+03 -0.71445491399E+02  0.35864151785E+03  0.89972396444E+02 0.  0.
          4    1    3    3  502    0  0.57073248620E+01 -0.41398733933E+03 -0.15737385072E+04  0.16272894579E+04  0.00000000000E+00 0. -1.
         -3    1    3    3    0  502  0.22682390040E+02 -0.38027355736E+02 -0.23079681702E+03  0.23500583259E+03  0.00000000000E+00 0.  1.
         13    1    5    5    0    0 -0.28806867928E+03  0.20169635149E+03 -0.10329633355E+04  0.10911820355E+04  0.00000000000E+00 0.  1.
        -13    1    5    5    0    0 -0.13879404466E+02  0.48848577114E+02 -0.16379589791E+03  0.17148736842E+03  0.00000000000E+00 0. -1.
          1    1    6    6  503    0  0.55046195406E+02  0.48512636777E+02  0.21048443259E+02  0.76332146042E+02  0.00000000000E+00 0. -1.
         -1    1    6    6    0  503  0.21851217344E+03  0.15295712968E+03 -0.92493934658E+02  0.28230937181E+03  0.00000000000E+00 0.  1.
<mgrwt>
<rscale>  0 0.16412741E+04</rscale>
<asrwt>0</asrwt>
<pdfrwt beam="1">  1        2 0.50433426E+00 0.16412741E+04</pdfrwt>
<pdfrwt beam="2">  1       -1 0.31605094E-01 0.16412741E+04</pdfrwt>
<totfact> 0.11765317E+01</totfact>
</mgrwt>
</event>
<event>
12    7  0.1701638E-007  0.3899416E+04  0.7818608E-02  0.8025151E-01
         -1   -1    0    0    0  501 -0.00000000000E+00  0.00000000000E+00  0.14950463140E+04  0.14950463140E+04  0.00000000000E+00 0.  1.
          2   -1    0    0  501    0  0.00000000000E+00 -0.00000000000E+00 -0.25426373124E+04  0.25426373124E+04  0.00000000000E+00 0. -1.
         24    2    1    2    0    0  0.53506179570E+03 -0.21569650895E+03  0.13185981186E+04  0.14415213714E+04  0.80416145158E+02 0.  0.
        254    2    1    2    0    0 -0.53506179570E+03  0.21569650895E+03 -0.23661891170E+04  0.25961622551E+04  0.89910589363E+03 0.  0.
         23    2    4    4    0    0 -0.38092879194E+03 -0.36082978778E+02 -0.22212768745E+04  0.22558618264E+04  0.91830826815E+02 0.  0.
         23    2    4    4    0    0 -0.15413300376E+03  0.25177948773E+03 -0.14491224250E+03  0.34030042865E+03  0.87492459223E+02 0.  0.
          4    1    3    3  502    0  0.24520569696E+03 -0.13002017735E+03  0.70048527537E+03  0.75346579309E+03  0.00000000000E+00 0. -1.
         -3    1    3    3    0  502  0.28985609874E+03 -0.85676331602E+02  0.61811284327E+03  0.68805557827E+03  0.00000000000E+00 0.  1.
         13    1    5    5    0    0 -0.14126381379E+03  0.23062166017E+02 -0.96550436757E+03  0.97605635718E+03  0.00000000000E+00 0. -1.
        -13    1    5    5    0    0 -0.23966497815E+03 -0.59145144794E+02 -0.12557725070E+04  0.12798054693E+04  0.00000000000E+00 0.  1.
          1    1    6    6  503    0 -0.15725205561E+03  0.19498840877E+03 -0.12570230542E+03  0.28026729766E+03  0.00000000000E+00 0. -1.
         -1    1    6    6    0  503  0.31190518494E+01  0.56791078961E+02 -0.19209937085E+02  0.60033130992E+02  0.00000000000E+00 0.  1.
<mgrwt>
<rscale>  0 0.38994156E+04</rscale>
<asrwt>0</asrwt>
<pdfrwt beam="1">  1        2 0.39117497E+00 0.38994156E+04</pdfrwt>
<pdfrwt beam="2">  1       -1 0.23000713E+00 0.38994156E+04</pdfrwt>
<totfact> 0.28046524E-01</totfact>
</mgrwt>
</event>
<event>
12    7  0.1701638E-007  0.2606880E+04  0.7818608E-02  0.8365868E-01
          2   -1    0    0  501    0  0.00000000000E+00  0.00000000000E+00  0.27241765829E+04  0.27241765829E+04  0.00000000000E+00 0. -1.
         -1   -1    0    0    0  501 -0.00000000000E+00 -0.00000000000E+00 -0.62365839850E+03  0.62365839850E+03  0.00000000000E+00 0.  1.
         24    2    1    2    0    0 -0.10372159264E+04 -0.19564131274E+03  0.14997009415E+04  0.18358619828E+04  0.84816890451E+02 0.  0.
        254    2    1    2    0    0  0.10372159264E+04  0.19564131274E+03  0.60081724291E+03  0.15119729986E+04  0.90054904799E+03 0.  0.
         23    2    4    4    0    0 -0.11538700399E+03 -0.97660932592E+02  0.16651875434E+03  0.24247361027E+03  0.90626363100E+02 0.  0.
         23    2    4    4    0    0  0.11526029304E+04  0.29330224533E+03  0.43429848857E+03  0.12694993883E+04  0.92161800713E+02 0.  0.
          4    1    3    3  502    0 -0.70744478247E+03 -0.14408104915E+03  0.10898779989E+04  0.13073146222E+04  0.00000000000E+00 0. -1.
         -3    1    3    3    0  502 -0.32977114391E+03 -0.51560263589E+02  0.40982294253E+03  0.52854736056E+03  0.00000000000E+00 0.  1.
         13    1    5    5    0    0 -0.10141317481E+03 -0.30054732752E+02  0.85322816333E+02  0.13589665917E+03  0.00000000000E+00 0. -1.
        -13    1    5    5    0    0 -0.13973829178E+02 -0.67606199840E+02  0.81195938007E+02  0.10657695111E+03  0.00000000000E+00 0.  1.
          2    1    6    6  503    0  0.49269465393E+03  0.10322570409E+03  0.14111808883E+03  0.52279812833E+03  0.00000000000E+00 0. -1.
         -2    1    6    6    0  503  0.65990827644E+03  0.19007654124E+03  0.29318039974E+03  0.74670125996E+03  0.00000000000E+00 0.  1.
<mgrwt>
<rscale>  0 0.26068798E+04</rscale>
<asrwt>0</asrwt>
<pdfrwt beam="1">  1        2 0.41910409E+00 0.26068798E+04</pdfrwt>
<pdfrwt beam="2">  1       -1 0.95947447E-01 0.26068798E+04</pdfrwt>
<totfact> 0.27030399E+00</totfact>
</mgrwt>
</event>
<event>
12    7  0.1701638E-007  0.1719906E+04  0.7818608E-02  0.8750092E-01
          2   -1    0    0  501    0  0.00000000000E+00  0.00000000000E+00  0.17351002520E+04  0.17351002520E+04  0.00000000000E+00 0. -1.
         -1   -1    0    0    0  501 -0.00000000000E+00 -0.00000000000E+00 -0.42621132379E+03  0.42621132379E+03  0.00000000000E+00 0.  1.
         24    2    1    2    0    0 -0.34753341418E+03  0.48834542623E+03  0.65877363250E+03  0.89405481876E+03  0.78042237099E+02 0.  0.
        254    2    1    2    0    0  0.34753341418E+03 -0.48834542623E+03  0.65011529565E+03  0.12672567570E+04  0.90776046464E+03 0.  0.
         23    2    4    4    0    0  0.41031547808E+03  0.79816864378E+02  0.52136880580E+03  0.67451601161E+03  0.91743636625E+02 0.  0.
         23    2    4    4    0    0 -0.62782063893E+02 -0.56816229061E+03  0.12874648985E+03  0.59274074537E+03  0.89531874509E+02 0.  0.
          4    1    3    3  502    0 -0.33516324436E+03  0.48511600106E+03  0.63177768054E+03  0.86418457084E+03  0.00000000000E+00 0. -1.
         -3    1    3    3    0  502 -0.12370169828E+02  0.32294251790E+01  0.26995951966E+02  0.29870247925E+02  0.00000000000E+00 0.  1.
         13    1    5    5    0    0  0.16254824563E+03  0.63003745117E+02  0.26821817999E+03  0.31989435152E+03  0.00000000000E+00 0.  1.
        -13    1    5    5    0    0  0.24776723245E+03  0.16813119261E+02  0.25315062581E+03  0.35462166009E+03  0.00000000000E+00 0. -1.
          3    1    6    6  503    0 -0.82202569686E+02 -0.39173595783E+03  0.10376722116E+03  0.41349964850E+03  0.00000000000E+00 0. -1.
         -3    1    6    6    0  503  0.19420505792E+02 -0.17642633278E+03  0.24979268695E+02  0.17924109687E+03  0.00000000000E+00 0.  1.
<mgrwt>
<rscale>  0 0.17199062E+04</rscale>
<asrwt>0</asrwt>
<pdfrwt beam="1">  1        2 0.26693850E+00 0.17199062E+04</pdfrwt>
<pdfrwt beam="2">  1       -1 0.65570974E-01 0.17199062E+04</pdfrwt>
<totfact> 0.23921181E+01</totfact>
</mgrwt>
</event>
<event>
12    7  0.1701638E-007  0.1540175E+04  0.7818608E-02  0.8858168E-01
          2   -1    0    0  501    0  0.00000000000E+00  0.00000000000E+00  0.16120645414E+04  0.16120645414E+04  0.00000000000E+00 0. -1.
         -1   -1    0    0    0  501 -0.00000000000E+00 -0.00000000000E+00 -0.36787289603E+03  0.36787289603E+03  0.00000000000E+00 0.  1.
         24    2    1    2    0    0  0.11690317261E+03  0.10004376265E+03  0.10469655321E+04  0.10611611678E+04  0.79063849358E+02 0.  0.
        254    2    1    2    0    0 -0.11690317261E+03 -0.10004376265E+03  0.19722611322E+03  0.91877626965E+03  0.88406820309E+03 0.  0.
         23    2    4    4    0    0 -0.23838470612E+02 -0.26677947409E+02  0.53795899316E+03  0.54685667694E+03  0.91500607804E+02 0.  0.
         23    2    4    4    0    0 -0.93064702001E+02 -0.73365815246E+02 -0.34073287994E+03  0.37191959271E+03  0.90452785259E+02 0.  0.
          2    1    3    3  502    0  0.12678487508E+03  0.83732133675E+02  0.86966313019E+03  0.88283601805E+03  0.00000000000E+00 0. -1.
         -1    1    3    3    0  502 -0.98817024672E+01  0.16311628979E+02  0.17730240195E+03  0.17832514972E+03  0.00000000000E+00 0.  1.
         13    1    5    5    0    0  0.30972548909E+02  0.91520007002E+01  0.15349286892E+03  0.15685381319E+03  0.00000000000E+00 0. -1.
        -13    1    5    5    0    0 -0.54811019521E+02 -0.35829948109E+02  0.38446612424E+03  0.39000286375E+03  0.00000000000E+00 0.  1.
          1    1    6    6  503    0 -0.89733678674E+02 -0.82234726110E+02 -0.22510432383E+03  0.25590357534E+03  0.00000000000E+00 0. -1.
         -1    1    6    6    0  503 -0.33310233266E+01  0.88689108643E+01 -0.11562855612E+03  0.11601601737E+03  0.00000000000E+00 0.  1.
<mgrwt>
<rscale>  0 0.15401751E+04</rscale>
<asrwt>0</asrwt>
<pdfrwt beam="1">  1        2 0.24800992E+00 0.15401751E+04</pdfrwt>
<pdfrwt beam="2">  1       -1 0.56595831E-01 0.15401751E+04</pdfrwt>
<totfact> 0.38075640E+01</totfact>
</mgrwt>
</event>
<event>
12    7  0.1701638E-007  0.3867949E+04  0.7818608E-02  0.8031728E-01
         -1   -1    0    0    0  501 -0.00000000000E+00  0.00000000000E+00  0.21411823724E+04  0.21411823724E+04  0.00000000000E+00 0.  1.
          2   -1    0    0  501    0  0.00000000000E+00 -0.00000000000E+00 -0.17468189670E+04  0.17468189670E+04  0.00000000000E+00 0. -1.
         24    2    1    2    0    0  0.17296649015E+04 -0.15237937365E+03 -0.38991712289E+03  0.17813989067E+04  0.79915935965E+02 0.  0.
        254    2    1    2    0    0 -0.17296649015E+04  0.15237937365E+03  0.78428052834E+03  0.21066024327E+04  0.89873117076E+03 0.  0.
         23    2    4    4    0    0 -0.72929206683E+02 -0.60166187839E+02 -0.14410632145E+03  0.19367068836E+03  0.88334955151E+02 0.  0.
         23    2    4    4    0    0 -0.16567356949E+04  0.21254556149E+03  0.92838684979E+03  0.19129317444E+04  0.86353560388E+02 0.  0.
          4    1    3    3  502    0  0.11403955103E+04 -0.74352785620E+02 -0.22816388460E+03  0.11653707629E+04  0.00000000000E+00 0. -1.
         -3    1    3    3    0  502  0.58926939120E+03 -0.78026588032E+02 -0.16175323829E+03  0.61602814379E+03  0.00000000000E+00 0.  1.
         13    1    5    5    0    0 -0.46924515479E+02 -0.45289325237E+02 -0.23375283133E+02  0.69277969044E+02  0.00000000000E+00 0.  1.
        -13    1    5    5    0    0 -0.26004691204E+02 -0.14876862602E+02 -0.12073103832E+03  0.12439271932E+03  0.00000000000E+00 0. -1.
          2    1    6    6  503    0 -0.13215961486E+04  0.18736253018E+03  0.77516516452E+03  0.15435679868E+04  0.00000000000E+00 0. -1.
         -2    1    6    6    0  503 -0.33513954629E+03  0.25183031307E+02  0.15322168528E+03  0.36936375755E+03  0.00000000000E+00 0.  1.
<mgrwt>
<rscale>  0 0.38679493E+04</rscale>
<asrwt>0</asrwt>
<pdfrwt beam="1">  1        2 0.26874138E+00 0.38679493E+04</pdfrwt>
<pdfrwt beam="2">  1       -1 0.32941267E+00 0.38679493E+04</pdfrwt>
<totfact> 0.17799510E-01</totfact>
</mgrwt>
</event>
<event>
12    7  0.1701638E-007  0.1539291E+04  0.7818608E-02  0.8858737E-01
         -1   -1    0    0    0  501 -0.00000000000E+00  0.00000000000E+00  0.41350311164E+03  0.41350311164E+03  0.00000000000E+00 0.  1.
          2   -1    0    0  501    0  0.00000000000E+00 -0.00000000000E+00 -0.14325264634E+04  0.14325264634E+04  0.00000000000E+00 0. -1.
         24    2    1    2    0    0  0.18742817854E+03 -0.44498653227E+03 -0.48800549343E+03  0.69134494513E+03  0.81646405455E+02 0.  0.
        254    2    1    2    0    0 -0.18742817854E+03  0.44498653227E+03 -0.53101785832E+03  0.11546846299E+04  0.90452987382E+03 0.  0.
         23    2    4    4    0    0 -0.35299663926E+03  0.21538070766E+03  0.11875346710E+03  0.44021426808E+03  0.93224134835E+02 0.  0.
         23    2    4    4    0    0  0.16556846072E+03  0.22960582462E+03 -0.64977132542E+03  0.71447036181E+03  0.90185213239E+02 0.  0.
          4    1    3    3  502    0  0.12390598622E+03 -0.37515983087E+03 -0.38571159775E+03  0.55215127344E+03  0.00000000000E+00 0. -1.
         -3    1    3    3    0  502  0.63522192320E+02 -0.69826701404E+02 -0.10229389568E+03  0.13919367169E+03  0.00000000000E+00 0.  1.
         13    1    5    5    0    0 -0.32112026594E+03  0.17092039752E+03  0.78120261222E+02  0.37206825006E+03  0.00000000000E+00 0.  1.
        -13    1    5    5    0    0 -0.31876373324E+02  0.44460310131E+02  0.40633205876E+02  0.68146018028E+02  0.00000000000E+00 0. -1.
          2    1    6    6  503    0  0.25757596577E+01  0.54232426780E+02 -0.16676852162E+03  0.17538395153E+03  0.00000000000E+00 0. -1.
         -2    1    6    6    0  503  0.16299270106E+03  0.17537339784E+03 -0.48300280380E+03  0.53908641028E+03  0.00000000000E+00 0.  1.
<mgrwt>
<rscale>  0 0.15392909E+04</rscale>
<asrwt>0</asrwt>
<pdfrwt beam="1">  1        2 0.22038869E+00 0.15392909E+04</pdfrwt>
<pdfrwt beam="2">  1       -1 0.63615863E-01 0.15392909E+04</pdfrwt>
<totfact> 0.38143750E+01</totfact>
</mgrwt>
</event>
<event>
12    7  0.1701638E-007  0.1667002E+04  0.7818608E-02  0.8780411E-01
         -1   -1    0    0    0  501 -0.00000000000E+00  0.00000000000E+00  0.53007517320E+03  0.53007517320E+03  0.00000000000E+00 0.  1.
          2   -1    0    0  501    0  0.00000000000E+00 -0.00000000000E+00 -0.13106143090E+04  0.13106143090E+04  0.00000000000E+00 0. -1.
         24    2    1    2    0    0 -0.54271766768E+03  0.42094068320E+02 -0.48706608137E+03  0.73478611626E+03  0.79767735473E+02 0.  0.
        254    2    1    2    0    0  0.54271766768E+03 -0.42094068320E+02 -0.29347305438E+03  0.11059033659E+04  0.91683228765E+03 0.  0.
         23    2    4    4    0    0  0.24369767157E+03 -0.44523167709E+03  0.26458041756E+01  0.51588212991E+03  0.92236490976E+02 0.  0.
         23    2    4    4    0    0  0.29901999611E+03  0.40313760877E+03 -0.29611885856E+03  0.59002123600E+03  0.92226844541E+02 0.  0.
          2    1    3    3  502    0 -0.53524612131E+03  0.44310760142E+02 -0.46170222343E+03  0.70825193043E+03  0.00000000000E+00 0. -1.
         -1    1    3    3    0  502 -0.74715463719E+01 -0.22166918229E+01 -0.25363857938E+02  0.26534185824E+02  0.00000000000E+00 0.  1.
         13    1    5    5    0    0  0.14604935331E+02 -0.19288658413E+01  0.81823079953E+01  0.16851552557E+02  0.00000000000E+00 0. -1.
        -13    1    5    5    0    0  0.22909273624E+03 -0.44330281125E+03 -0.55365038197E+01  0.49903057735E+03  0.00000000000E+00 0.  1.
          3    1    6    6  503    0  0.38916569115E+02  0.64185004107E+02 -0.85189340111E+02  0.11354046755E+03  0.00000000000E+00 0. -1.
         -3    1    6    6    0  503  0.26010342700E+03  0.33895260466E+03 -0.21092951845E+03  0.47648076844E+03  0.00000000000E+00 0.  1.
<mgrwt>
<rscale>  0 0.16670022E+04</rscale>
<asrwt>0</asrwt>
<pdfrwt beam="1">  1        2 0.20163297E+00 0.16670022E+04</pdfrwt>
<pdfrwt beam="2">  1       -1 0.81550027E-01 0.16670022E+04</pdfrwt>
<totfact> 0.26537215E+01</totfact>
</mgrwt>
</event>
<event>
12    7  0.1701638E-007  0.2155620E+04  0.7818608E-02  0.8537130E-01
         -1   -1    0    0    0  501 -0.00000000000E+00  0.00000000000E+00  0.83613648597E+03  0.83613648597E+03  0.00000000000E+00 0.  1.
          2   -1    0    0  501    0  0.00000000000E+00 -0.00000000000E+00 -0.13893358623E+04  0.13893358623E+04  0.00000000000E+00 0. -1.
         24    2    1    2    0    0 -0.56195664941E+03  0.30854609253E+03 -0.85831188696E+03  0.10746775426E+04  0.85067962295E+02 0.  0.
        254    2    1    2    0    0  0.56195664941E+03 -0.30854609253E+03  0.30511251067E+03  0.11507948056E+04  0.90567051043E+03 0.  0.
         23    2    4    4    0    0 -0.13113732494E+03 -0.17912595768E+03  0.36582129254E+03  0.43755435000E+03  0.91353622897E+02 0.  0.
         23    2    4    4    0    0  0.69309397435E+03 -0.12942013485E+03 -0.60708781867E+02  0.71324045563E+03  0.88868232632E+02 0.  0.
          4    1    3    3  502    0 -0.46544698907E+03  0.27165853113E+03 -0.76282093650E+03  0.93398877849E+03  0.00000000000E+00 0. -1.
         -3    1    3    3    0  502 -0.96509660338E+02  0.36887561398E+02 -0.95490950462E+02  0.14068876410E+03  0.00000000000E+00 0.  1.
         13    1    5    5    0    0 -0.53846685440E+02 -0.12473438544E+02  0.10303921299E+03  0.11692789067E+03  0.00000000000E+00 0.  1.
        -13    1    5    5    0    0 -0.77290639500E+02 -0.16665251914E+03  0.26278207955E+03  0.32062645933E+03  0.00000000000E+00 0. -1.
          2    1    6    6  503    0  0.67367282001E+03 -0.13030604827E+03 -0.73322129457E+02  0.69006584418E+03  0.00000000000E+00 0. -1.
         -2    1    6    6    0  503  0.19421154339E+02  0.88591342529E+00  0.12613347591E+02  0.23174611451E+02  0.00000000000E+00 0.  1.
<mgrwt>
<rscale>  0 0.21556200E+04</rscale>
<asrwt>0</asrwt>
<pdfrwt beam="1">  1        2 0.21374398E+00 0.21556200E+04</pdfrwt>
<pdfrwt beam="2">  1       -1 0.12863638E+00 0.21556200E+04</pdfrwt>
<totfact> 0.79908854E+00</totfact>
</mgrwt>
</event>
<event>
12    7  0.1701638E-007  0.3127322E+04  0.7818608E-02  0.8208279E-01
          2   -1    0    0  501    0  0.00000000000E+00  0.00000000000E+00  0.15588129631E+04  0.15588129631E+04  0.00000000000E+00 0. -1.
         -1   -1    0    0    0  501 -0.00000000000E+00 -0.00000000000E+00 -0.15685241851E+04  0.15685241851E+04  0.00000000000E+00 0.  1.
         24    2    1    2    0    0  0.25396214267E+03  0.86649649791E+03  0.11017847081E+04  0.14267584307E+04  0.79982035541E+02 0.  0.
        254    2    1    2    0    0 -0.25396214267E+03 -0.86649649791E+03 -0.11114959300E+04  0.17005787175E+04  0.91718690624E+03 0.  0.
         23    2    4    4    0    0 -0.46481772028E+03 -0.19307799998E+03 -0.21069842469E+03  0.55268046011E+03  0.87904707768E+02 0.  0.
         23    2    4    4    0    0  0.21085557762E+03 -0.67341849793E+03 -0.90079750535E+03  0.11478982574E+04  0.91003931917E+02 0.  0.
          2    1    3    3  502    0  0.16372065804E+02  0.34419686372E+02  0.26003618884E+02  0.46140519543E+02  0.00000000000E+00 0. -1.
         -1    1    3    3    0  502  0.23759007686E+03  0.83207681154E+03  0.10757810892E+04  0.13806179112E+04  0.00000000000E+00 0.  1.
         13    1    5    5    0    0 -0.30094891992E+03 -0.10113162846E+03 -0.92473591076E+02  0.33067994152E+03  0.00000000000E+00 0.  1.
        -13    1    5    5    0    0 -0.16386880036E+03 -0.91946371526E+02 -0.11822483362E+03  0.22200051858E+03  0.00000000000E+00 0. -1.
          2    1    6    6  503    0  0.14423794395E+03 -0.57260768334E+03 -0.73812428630E+03  0.94525742818E+03  0.00000000000E+00 0.  1.
         -2    1    6    6    0  503  0.66617633673E+02 -0.10081081459E+03 -0.16267321905E+03  0.20264082918E+03  0.00000000000E+00 0. -1.
<mgrwt>
<rscale>  0 0.31273221E+04</rscale>
<asrwt>0</asrwt>
<pdfrwt beam="1">  1        2 0.23981738E+00 0.31273221E+04</pdfrwt>
<pdfrwt beam="2">  1       -1 0.24131141E+00 0.31273221E+04</pdfrwt>
<totfact> 0.90151176E-01</totfact>
</mgrwt>
</event>
<event>
12    7  0.1701638E-007  0.1605306E+04  0.7818608E-02  0.8817295E-01
         -1   -1    0    0    0  501 -0.00000000000E+00  0.00000000000E+00  0.52542316583E+03  0.52542316583E+03  0.00000000000E+00 0.  1.
          2   -1    0    0  501    0  0.00000000000E+00 -0.00000000000E+00 -0.12261576136E+04  0.12261576136E+04  0.00000000000E+00 0. -1.
         24    2    1    2    0    0  0.15248444449E+03  0.32662693597E+03 -0.70170129049E+03  0.79382884422E+03  0.88559989446E+02 0.  0.
        254    2    1    2    0    0 -0.15248444449E+03 -0.32662693597E+03  0.96684276601E+00  0.95775193517E+03  0.88732810922E+03 0.  0.
         23    2    4    4    0    0  0.16760454004E+03  0.21950472826E+03  0.10478643769E+03  0.30999179859E+03  0.94027177419E+02 0.  0.
         23    2    4    4    0    0 -0.32008898453E+03 -0.54613166424E+03 -0.10381959493E+03  0.64776013658E+03  0.89988518982E+02 0.  0.
          2    1    3    3  502    0  0.15928198546E+03  0.32593167056E+03 -0.67546251814E+03  0.76671495236E+03  0.00000000000E+00 0. -1.
         -1    1    3    3    0  502 -0.67975409711E+01  0.69526541059E+00 -0.26238772353E+02  0.27113891860E+02  0.00000000000E+00 0.  1.
         13    1    5    5    0    0 -0.11171640411E+02  0.15675773943E+02  0.14952390136E+02  0.24374359662E+02  0.00000000000E+00 0. -1.
        -13    1    5    5    0    0  0.17877618045E+03  0.20382895432E+03  0.89834047559E+02  0.28561743893E+03  0.00000000000E+00 0.  1.
          1    1    6    6  503    0 -0.93970568792E+02 -0.12737627412E+03 -0.62085055478E+02  0.17002863618E+03  0.00000000000E+00 0. -1.
         -1    1    6    6    0  503 -0.22611841574E+03 -0.41875539012E+03 -0.41734539450E+02  0.47773150040E+03  0.00000000000E+00 0.  1.
<mgrwt>
<rscale>  0 0.16053057E+04</rscale>
<asrwt>0</asrwt>
<pdfrwt beam="1">  1        2 0.18863963E+00 0.16053057E+04</pdfrwt>
<pdfrwt beam="2">  1       -1 0.80834334E-01 0.16053057E+04</pdfrwt>
<totfact> 0.30472266E+01</totfact>
</mgrwt>
</event>
<event>
12    7  0.1701638E-007  0.2309373E+04  0.7818608E-02  0.8474235E-01
          2   -1    0    0  501    0  0.00000000000E+00  0.00000000000E+00  0.16224226170E+04  0.16224226170E+04  0.00000000000E+00 0. -1.
         -1   -1    0    0    0  501 -0.00000000000E+00 -0.00000000000E+00 -0.82179651062E+03  0.82179651062E+03  0.00000000000E+00 0.  1.
         24    2    1    2    0    0  0.28936068775E+03 -0.87259509540E+03 -0.62323874264E+02  0.92491037297E+03  0.80144398385E+02 0.  0.
        254    2    1    2    0    0 -0.28936068775E+03  0.87259509540E+03  0.86294998069E+03  0.15193087547E+04  0.84762292019E+03 0.  0.
         23    2    4    4    0    0 -0.28522454004E+03 -0.59525147248E+02  0.13974621857E+03  0.33565084409E+03  0.90753524097E+02 0.  0.
         23    2    4    4    0    0 -0.41361477106E+01  0.93212024265E+03  0.72320376211E+03  0.11836579106E+04  0.95692807255E+02 0.  0.
          4    1    3    3  502    0  0.27557802896E+03 -0.78236077755E+03 -0.74524193370E+02  0.83281780222E+03  0.00000000000E+00 0. -1.
         -3    1    3    3    0  502  0.13782658785E+02 -0.90234317849E+02  0.12200319106E+02  0.92092570749E+02  0.00000000000E+00 0.  1.
         13    1    5    5    0    0 -0.26825421449E+03 -0.76896414981E+02  0.11774411179E+03  0.30288126071E+03  0.00000000000E+00 0.  1.
        -13    1    5    5    0    0 -0.16970325550E+02  0.17371267733E+02  0.22002106780E+02  0.32769583376E+02  0.00000000000E+00 0. -1.
          4    1    6    6  503    0  0.34236525243E+02  0.50164515768E+03  0.34993211781E+03  0.61259488322E+03  0.00000000000E+00 0. -1.
         -4    1    6    6    0  503 -0.38372672954E+02  0.43047508497E+03  0.37327164431E+03  0.57106302739E+03  0.00000000000E+00 0.  1.
<mgrwt>
<rscale>  0 0.23093733E+04</rscale>
<asrwt>0</asrwt>
<pdfrwt beam="1">  1        2 0.24960348E+00 0.23093733E+04</pdfrwt>
<pdfrwt beam="2">  1       -1 0.12643023E+00 0.23093733E+04</pdfrwt>
<totfact> 0.60802824E+00</totfact>
</mgrwt>
</event>
<event>
12    7  0.1701638E-007  0.2140050E+04  0.7818608E-02  0.8543803E-01
         -1   -1    0    0    0  501 -0.00000000000E+00  0.00000000000E+00  0.72601659149E+03  0.72601659149E+03  0.00000000000E+00 0.  1.
          2   -1    0    0  501    0  0.00000000000E+00 -0.00000000000E+00 -0.15770354813E+04  0.15770354813E+04  0.00000000000E+00 0. -1.
         24    2    1    2    0    0 -0.72046468990E+03  0.47134241036E+03 -0.14214291354E+03  0.87542426447E+03  0.70213942693E+02 0.  0.
        254    2    1    2    0    0  0.72046468990E+03 -0.47134241036E+03 -0.70887597631E+03  0.14276278084E+04  0.89128164584E+03 0.  0.
         23    2    4    4    0    0 -0.74430625537E+02 -0.36929175174E+03 -0.59203225983E+02  0.39212314587E+03  0.91319349764E+02 0.  0.
         23    2    4    4    0    0  0.79489531544E+03 -0.10205065863E+03 -0.64967275032E+03  0.10355046625E+04  0.89007438399E+02 0.  0.
          4    1    3    3  502    0 -0.28078726376E+03  0.16432352701E+03 -0.84098597079E+02  0.33603018175E+03  0.00000000000E+00 0. -1.
         -3    1    3    3    0  502 -0.43967742614E+03  0.30701888336E+03 -0.58044316461E+02  0.53939408271E+03  0.00000000000E+00 0.  1.
         13    1    5    5    0    0 -0.54388659612E+02 -0.35102633347E+03 -0.71515211087E+02  0.36234243265E+03  0.00000000000E+00 0. -1.
        -13    1    5    5    0    0 -0.20041965925E+02 -0.18265418270E+02  0.12311985104E+02  0.29780713221E+02  0.00000000000E+00 0.  1.
          4    1    6    6  503    0  0.43729182460E+03 -0.21032604998E+02 -0.31819775226E+03  0.54121744233E+03  0.00000000000E+00 0. -1.
         -4    1    6    6    0  503  0.35760349083E+03 -0.81018053628E+02 -0.33147499807E+03  0.49428722016E+03  0.00000000000E+00 0.  1.
<mgrwt>
<rscale>  0 0.21400504E+04</rscale>
<asrwt>0</asrwt>
<pdfrwt beam="1">  1        2 0.24262084E+00 0.21400504E+04</pdfrwt>
<pdfrwt beam="2">  1       -1 0.11169486E+00 0.21400504E+04</pdfrwt>
<totfact> 0.88459133E+00</totfact>
</mgrwt>
</event>
<event>
12    7  0.1701638E-007  0.1368302E+04  0.7818608E-02  0.8977088E-01
         -1   -1    0    0    0  501 -0.00000000000E+00  0.00000000000E+00  0.96068343938E+03  0.96068343938E+03  0.00000000000E+00 0.  1.
          2   -1    0    0  501    0  0.00000000000E+00 -0.00000000000E+00 -0.48721852386E+03  0.48721852386E+03  0.00000000000E+00 0. -1.
         24    2    1    2    0    0  0.17561090182E+03 -0.51884235893E+02 -0.21948397867E+03  0.29572267962E+03  0.75812423636E+02 0.  0.
        254    2    1    2    0    0 -0.17561090182E+03  0.51884235893E+02  0.69294889419E+03  0.11521792836E+04  0.90211294684E+03 0.  0.
         23    2    4    4    0    0 -0.13373868757E+03 -0.17294380141E+03  0.83495544480E+03  0.86811059443E+03  0.93111837906E+02 0.  0.
         23    2    4    4    0    0 -0.41872214253E+02  0.22482803730E+03 -0.14200655061E+03  0.28406868919E+03  0.90709597498E+02 0.  0.
          2    1    3    3  502    0  0.16233177377E+03 -0.22478997097E+02 -0.19770258560E+03  0.25679412462E+03  0.00000000000E+00 0. -1.
         -1    1    3    3    0  502  0.13279128045E+02 -0.29405238796E+02 -0.21781393067E+02  0.38928554998E+02  0.00000000000E+00 0.  1.
         13    1    5    5    0    0 -0.52981270144E+02 -0.12903952042E+03  0.59547100297E+03  0.61159130814E+03  0.00000000000E+00 0. -1.
        -13    1    5    5    0    0 -0.80757417422E+02 -0.43904280991E+02  0.23948444183E+03  0.25651928628E+03  0.00000000000E+00 0.  1.
          4    1    6    6  503    0 -0.34018971622E+02  0.17227167361E+03 -0.58497565636E+02  0.18508588586E+03  0.00000000000E+00 0. -1.
         -4    1    6    6    0  503 -0.78532426308E+01  0.52556363696E+02 -0.83508984972E+02  0.98982803333E+02  0.00000000000E+00 0.  1.
<mgrwt>
<rscale>  0 0.13683023E+04</rscale>
<asrwt>0</asrwt>
<pdfrwt beam="1">  1        2 0.74956696E-01 0.13683023E+04</pdfrwt>
<pdfrwt beam="2">  1       -1 0.14779745E+00 0.13683023E+04</pdfrwt>
<totfact> 0.25706110E+01</totfact>
</mgrwt>
</event>
<event>
12    7  0.1701638E-007  0.1159471E+04  0.7818608E-02  0.9149091E-01
          2   -1    0    0  501    0  0.00000000000E+00  0.00000000000E+00  0.22215515187E+04  0.22215515187E+04  0.00000000000E+00 0. -1.
         -1   -1    0    0    0  501 -0.00000000000E+00 -0.00000000000E+00 -0.15128754476E+03  0.15128754476E+03  0.00000000000E+00 0.  1.
         24    2    1    2    0    0 -0.17758213137E+02 -0.16709002275E+03  0.70193811878E+03  0.72622335789E+03  0.80304502423E+02 0.  0.
        254    2    1    2    0    0  0.17758213137E+02  0.16709002275E+03  0.13683258552E+04  0.16466157056E+04  0.90044056222E+03 0.  0.
         23    2    4    4    0    0  0.24470287082E+02 -0.17936512043E+03  0.12542176604E+04  0.12704154779E+04  0.90127162480E+02 0.  0.
         23    2    4    4    0    0 -0.67120739454E+01  0.34645514318E+03  0.11410819480E+03  0.37620022772E+03  0.91813468734E+02 0.  0.
          4    1    3    3  502    0  0.37704187117E+01 -0.14002971092E+03  0.64127865928E+03  0.65639991991E+03  0.00000000000E+00 0. -1.
         -3    1    3    3    0  502 -0.21528631848E+02 -0.27060311824E+02  0.60659459494E+02  0.69823437981E+02  0.00000000000E+00 0.  1.
         13    1    5    5    0    0  0.95299431239E+01 -0.76017030869E+02  0.83026570164E+03  0.83379286644E+03  0.00000000000E+00 0. -1.
        -13    1    5    5    0    0  0.14940343958E+02 -0.10334808957E+03  0.42395195875E+03  0.43662261144E+03  0.00000000000E+00 0.  1.
          4    1    6    6  503    0  0.20414076086E+02  0.69309770743E+02 -0.68849278982E+01  0.72580858738E+02  0.00000000000E+00 0. -1.
         -4    1    6    6    0  503 -0.27126150032E+02  0.27714537244E+03  0.12099312270E+03  0.30361936898E+03  0.00000000000E+00 0.  1.
<mgrwt>
<rscale>  0 0.11594707E+04</rscale>
<asrwt>0</asrwt>
<pdfrwt beam="1">  1        2 0.34177713E+00 0.11594707E+04</pdfrwt>
<pdfrwt beam="2">  1       -1 0.23275009E-01 0.11594707E+04</pdfrwt>
<totfact> 0.89908849E+01</totfact>
</mgrwt>
</event>
<event>
12    7  0.1701638E-007  0.1262991E+04  0.7818608E-02  0.9059439E-01
          4   -1    0    0  501    0  0.00000000000E+00  0.00000000000E+00  0.63511857705E+03  0.63511857705E+03  0.00000000000E+00 0. -1.
         -3   -1    0    0    0  501 -0.00000000000E+00 -0.00000000000E+00 -0.62789349180E+03  0.62789349180E+03  0.00000000000E+00 0.  1.
         24    2    1    2    0    0  0.22332204513E+03  0.12582952651E+03 -0.15432200015E+03  0.30950494424E+03  0.79197381257E+02 0.  0.
        254    2    1    2    0    0 -0.22332204513E+03 -0.12582952651E+03  0.16154708540E+03  0.95350712460E+03  0.90408659446E+03 0.  0.
         23    2    4    4    0    0 -0.53298382286E+03  0.82081699276E+02  0.30142846546E+02  0.54699098514E+03  0.86495004689E+02 0.  0.
         23    2    4    4    0    0  0.30966177773E+03 -0.20791122578E+03  0.13140423885E+03  0.40651613946E+03  0.94184941807E+02 0.  0.
          2    1    3    3  502    0  0.23431420178E+02  0.16746528882E+01 -0.43426934448E+02  0.49373419462E+02  0.00000000000E+00 0. -1.
         -1    1    3    3    0  502  0.19989062495E+03  0.12415487362E+03 -0.11089506570E+03  0.26013152478E+03  0.00000000000E+00 0.  1.
         13    1    5    5    0    0 -0.12858399280E+03  0.23607304251E+02  0.44595225929E+02  0.13812994677E+03  0.00000000000E+00 0. -1.
        -13    1    5    5    0    0 -0.40439983006E+03  0.58474395026E+02 -0.14452379383E+02  0.40886103837E+03  0.00000000000E+00 0.  1.
          3    1    6    6  503    0  0.43258826897E+02 -0.60291716623E+02  0.55408391352E+02  0.92609432727E+02  0.00000000000E+00 0. -1.
         -3    1    6    6    0  503  0.26640295083E+03 -0.14761950916E+03  0.75995847498E+02  0.31390670674E+03  0.00000000000E+00 0.  1.
<mgrwt>
<rscale>  0 0.12629914E+04</rscale>
<asrwt>0</asrwt>
<pdfrwt beam="1">  1        4 0.97710550E-01 0.12629914E+04</pdfrwt>
<pdfrwt beam="2">  1       -3 0.96598999E-01 0.12629914E+04</pdfrwt>
<totfact> 0.18565824E+00</totfact>
</mgrwt>
</event>
<event>
12    7  0.1701638E-007  0.1609573E+04  0.7818608E-02  0.8814688E-01
         -1   -1    0    0    0  501 -0.00000000000E+00  0.00000000000E+00  0.20756939867E+03  0.20756939867E+03  0.00000000000E+00 0.  1.
          2   -1    0    0  501    0  0.00000000000E+00 -0.00000000000E+00 -0.31203138811E+04  0.31203138811E+04  0.00000000000E+00 0. -1.
         24    2    1    2    0    0  0.26349379406E+03 -0.39886656896E+03 -0.15313345070E+04  0.16066204209E+04  0.87865152857E+02 0.  0.
        254    2    1    2    0    0 -0.26349379406E+03  0.39886656896E+03 -0.13814099754E+04  0.17212628589E+04  0.90880624440E+03 0.  0.
         23    2    4    4    0    0 -0.40574830855E+03  0.90930029342E+02 -0.12904202040E+04  0.13588312618E+04  0.91313389214E+02 0.  0.
         23    2    4    4    0    0  0.14225451449E+03  0.30793653962E+03 -0.90989771393E+02  0.36243159705E+03  0.89533595470E+02 0.  0.
          4    1    3    3  502    0  0.25773236593E+03 -0.40055278185E+03 -0.15259394005E+04  0.15985492040E+04  0.00000000000E+00 0. -1.
         -3    1    3    3    0  502  0.57614281321E+01  0.16862128936E+01 -0.53951064678E+01  0.80712168750E+01  0.00000000000E+00 0.  1.
         13    1    5    5    0    0 -0.34742070126E+03  0.61498631448E+02 -0.11672324698E+04  0.12193911857E+04  0.00000000000E+00 0.  1.
        -13    1    5    5    0    0 -0.58327607298E+02  0.29431397893E+02 -0.12318773425E+03  0.13944007611E+03  0.00000000000E+00 0. -1.
          4    1    6    6  503    0 -0.10317891413E+02  0.42797673811E+02 -0.20237154654E+02  0.48452473573E+02  0.00000000000E+00 0. -1.
         -4    1    6    6    0  503  0.15257240591E+03  0.26513886581E+03 -0.70752616739E+02  0.31397912348E+03  0.00000000000E+00 0.  1.
<mgrwt>
<rscale>  0 0.16095735E+04</rscale>
<asrwt>0</asrwt>
<pdfrwt beam="1">  1        2 0.48004827E+00 0.16095735E+04</pdfrwt>
<pdfrwt beam="2">  1       -1 0.31933755E-01 0.16095735E+04</pdfrwt>
<totfact> 0.14664890E+01</totfact>
</mgrwt>
</event>
<event>
12    7  0.1701638E-007  0.1815976E+04  0.7818608E-02  0.8697850E-01
          2   -1    0    0  501    0  0.00000000000E+00  0.00000000000E+00  0.23645683108E+04  0.23645683108E+04  0.00000000000E+00 0. -1.
         -1   -1    0    0    0  501 -0.00000000000E+00 -0.00000000000E+00 -0.34866494120E+03  0.34866494120E+03  0.00000000000E+00 0.  1.
         24    2    1    2    0    0  0.43710004139E+03 -0.40023454751E+03  0.12849927015E+04  0.14173272221E+04  0.79787670934E+02 0.  0.
        254    2    1    2    0    0 -0.43710004139E+03  0.40023454751E+03  0.73091066808E+03  0.12959060299E+04  0.89100948050E+03 0.  0.
         23    2    4    4    0    0 -0.19090089997E+03 -0.23748899133E+03  0.45146772181E+03  0.55213255900E+03  0.90460401578E+02 0.  0.
         23    2    4    4    0    0 -0.24619914142E+03  0.63772353884E+03  0.27944294627E+03  0.74377347088E+03  0.88347532652E+02 0.  0.
          2    1    3    3  502    0  0.22989081330E+03 -0.19928841777E+03  0.56665120422E+03  0.64316346813E+03  0.00000000000E+00 0. -1.
         -1    1    3    3    0  502  0.20720922809E+03 -0.20094612973E+03  0.71834149727E+03  0.77416375397E+03  0.00000000000E+00 0.  1.
         13    1    5    5    0    0 -0.14067539614E+03 -0.11323949212E+03  0.29737076386E+03  0.34791108182E+03  0.00000000000E+00 0. -1.
        -13    1    5    5    0    0 -0.50225503824E+02 -0.12424949922E+03  0.15409695795E+03  0.20422147718E+03  0.00000000000E+00 0.  1.
          1    1    6    6  503    0 -0.46627803060E+02  0.12260599224E+03  0.17313533758E+02  0.13231076979E+03  0.00000000000E+00 0. -1.
         -1    1    6    6    0  503 -0.19957133837E+03  0.51511754661E+03  0.26212941251E+03  0.61146270109E+03  0.00000000000E+00 0.  1.
<mgrwt>
<rscale>  0 0.18159758E+04</rscale>
<asrwt>0</asrwt>
<pdfrwt beam="1">  1        2 0.36377973E+00 0.18159758E+04</pdfrwt>
<pdfrwt beam="2">  1       -1 0.53640762E-01 0.18159758E+04</pdfrwt>
<totfact> 0.15694505E+01</totfact>
</mgrwt>
</event>
<event>
12    7  0.1701638E-007  0.2562135E+04  0.7818608E-02  0.8381178E-01
          2   -1    0    0  501    0  0.00000000000E+00  0.00000000000E+00  0.20550402481E+04  0.20550402481E+04  0.00000000000E+00 0. -1.
         -1   -1    0    0    0  501 -0.00000000000E+00 -0.00000000000E+00 -0.79858960579E+03  0.79858960579E+03  0.00000000000E+00 0.  1.
         24    2    1    2    0    0  0.33975276044E+03 -0.55560162693E+03 -0.46604042186E+03  0.80478628668E+03  0.79763314581E+02 0.  0.
        254    2    1    2    0    0 -0.33975276044E+03  0.55560162693E+03  0.17224910641E+04  0.20488435672E+04  0.89814218846E+03 0.  0.
         23    2    4    4    0    0 -0.59923194407E+03  0.24997426449E+03  0.13184630723E+04  0.14726045652E+04  0.93022991106E+02 0.  0.
         23    2    4    4    0    0  0.25947918364E+03  0.30562736244E+03  0.40402799187E+03  0.57623900197E+03  0.89862326679E+02 0.  0.
          2    1    3    3  502    0  0.12725546288E+03 -0.15593781441E+03 -0.17445249180E+03  0.26635357458E+03  0.00000000000E+00 0. -1.
         -1    1    3    3    0  502  0.21249729756E+03 -0.39966381252E+03 -0.29158793006E+03  0.53843271211E+03  0.00000000000E+00 0.  1.
         13    1    5    5    0    0 -0.22943031701E+03  0.13520544497E+03  0.47627094203E+03  0.54566729143E+03  0.00000000000E+00 0.  1.
        -13    1    5    5    0    0 -0.36980162707E+03  0.11476881951E+03  0.84219213024E+03  0.92693727379E+03  0.00000000000E+00 0. -1.
          3    1    6    6  503    0  0.83666586710E+02  0.16768603935E+03  0.18378516136E+03  0.26247988697E+03  0.00000000000E+00 0. -1.
         -3    1    6    6    0  503  0.17581259693E+03  0.13794132309E+03  0.22024283051E+03  0.31375911500E+03  0.00000000000E+00 0.  1.
<mgrwt>
<rscale>  0 0.25621349E+04</rscale>
<asrwt>0</asrwt>
<pdfrwt beam="1">  1        2 0.31616004E+00 0.25621349E+04</pdfrwt>
<pdfrwt beam="2">  1       -1 0.12285994E+00 0.25621349E+04</pdfrwt>
<totfact> 0.36712032E+00</totfact>
</mgrwt>
</event>
<event>
12    7  0.1701638E-007  0.1413381E+04  0.7818608E-02  0.8944189E-01
         -1   -1    0    0    0  501 -0.00000000000E+00  0.00000000000E+00  0.51544393736E+03  0.51544393736E+03  0.00000000000E+00 0.  1.
          2   -1    0    0  501    0  0.00000000000E+00 -0.00000000000E+00 -0.96889559595E+03  0.96889559595E+03  0.00000000000E+00 0. -1.
         24    2    1    2    0    0 -0.10890470281E+03 -0.40638327617E+03 -0.15278210526E+03  0.45430506295E+03  0.77737488333E+02 0.  0.
        254    2    1    2    0    0  0.10890470281E+03  0.40638327617E+03 -0.30066955333E+03  0.10300344704E+04  0.89082053658E+03 0.  0.
         23    2    4    4    0    0 -0.94859225386E+02 -0.68009140662E+02  0.23747934107E+03  0.27884113237E+03  0.87934201603E+02 0.  0.
         23    2    4    4    0    0  0.20376392820E+03  0.47439241683E+03 -0.53814889439E+03  0.75119333799E+03  0.90107130299E+02 0.  0.
          2    1    3    3  502    0 -0.49188129167E+02 -0.22124047208E+03 -0.42203755972E+02  0.23053844702E+03  0.00000000000E+00 0. -1.
         -1    1    3    3    0  502 -0.59716573642E+02 -0.18514280409E+03 -0.11057834929E+03  0.22376661593E+03  0.00000000000E+00 0.  1.
         13    1    5    5    0    0 -0.30477822324E+02 -0.23620210455E+02  0.17370346470E+03  0.17793174434E+03  0.00000000000E+00 0. -1.
        -13    1    5    5    0    0 -0.64381403063E+02 -0.44388930207E+02  0.63775876365E+02  0.10090938802E+03  0.00000000000E+00 0.  1.
          1    1    6    6  503    0  0.17473969893E+03  0.45020636010E+03 -0.47359415619E+03  0.67639570802E+03  0.00000000000E+00 0. -1.
         -1    1    6    6    0  503  0.29024229267E+02  0.24186056730E+02 -0.64554738203E+02  0.74797629970E+02  0.00000000000E+00 0.  1.
<mgrwt>
<rscale>  0 0.14133809E+04</rscale>
<asrwt>0</asrwt>
<pdfrwt beam="1">  1        2 0.14906086E+00 0.14133809E+04</pdfrwt>
<pdfrwt beam="2">  1       -1 0.79299067E-01 0.14133809E+04</pdfrwt>
<totfact> 0.46541581E+01</totfact>
</mgrwt>
</event>
<event>
12    7  0.1701638E-007  0.2044723E+04  0.7818608E-02  0.8585992E-01
         -1   -1    0    0    0  501 -0.00000000000E+00  0.00000000000E+00  0.93651353868E+03  0.93651353868E+03  0.00000000000E+00 0.  1.
          2   -1    0    0  501    0  0.00000000000E+00 -0.00000000000E+00 -0.11160789103E+04  0.11160789103E+04  0.00000000000E+00 0. -1.
         24    2    1    2    0    0 -0.32963284606E+03  0.31677110512E+03  0.61206872173E+03  0.76785204826E+03  0.77245722662E+02 0.  0.
        254    2    1    2    0    0  0.32963284606E+03 -0.31677110512E+03 -0.79163409333E+03  0.12847404007E+04  0.90270239461E+03 0.  0.
         23    2    4    4    0    0  0.42242485116E+03  0.59510079492E+02 -0.77085855148E+03  0.88596018093E+03  0.93372005292E+02 0.  0.
         23    2    4    4    0    0 -0.92792005106E+02 -0.37628118461E+03 -0.20775541847E+02  0.39878021976E+03  0.91630532211E+02 0.  0.
          4    1    3    3  502    0 -0.43263293712E+02  0.84213214611E+02  0.11982129830E+03  0.15271123608E+03  0.00000000000E+00 0. -1.
         -3    1    3    3    0  502 -0.28636955235E+03  0.23255789050E+03  0.49224742343E+03  0.61514081219E+03  0.00000000000E+00 0.  1.
         13    1    5    5    0    0  0.42261604080E+03  0.61013109011E+02 -0.77314256758E+03  0.88321930867E+03  0.00000000000E+00 0. -1.
        -13    1    5    5    0    0 -0.19118963145E+00 -0.15030295193E+01  0.22840161006E+01  0.27408722624E+01  0.00000000000E+00 0.  1.
          1    1    6    6  503    0 -0.34802627778E+02 -0.22033083871E+03  0.29410900566E+02  0.22499311647E+03  0.00000000000E+00 0. -1.
         -1    1    6    6    0  503 -0.57989377328E+02 -0.15595034590E+03 -0.50186442413E+02  0.17378710329E+03  0.00000000000E+00 0.  1.
<mgrwt>
<rscale>  0 0.20447230E+04</rscale>
<asrwt>0</asrwt>
<pdfrwt beam="1">  1        2 0.17170445E+00 0.20447230E+04</pdfrwt>
<pdfrwt beam="2">  1       -1 0.14407901E+00 0.20447230E+04</pdfrwt>
<totfact> 0.87360960E+00</totfact>
</mgrwt>
</event>
<event>
12    7  0.1701638E-007  0.1626558E+04  0.7818608E-02  0.8804396E-01
         -1   -1    0    0    0  501 -0.00000000000E+00  0.00000000000E+00  0.30155790613E+03  0.30155790613E+03  0.00000000000E+00 0.  1.
          2   -1    0    0  501    0  0.00000000000E+00 -0.00000000000E+00 -0.21933535015E+04  0.21933535015E+04  0.00000000000E+00 0. -1.
         24    2    1    2    0    0  0.52063241611E+03 -0.19980698446E+03 -0.93413047197E+03  0.10907582583E+04  0.78567776944E+02 0.  0.
        254    2    1    2    0    0 -0.52063241611E+03  0.19980698446E+03 -0.95766512342E+03  0.14041531494E+04  0.86228918267E+03 0.  0.
         23    2    4    4    0    0 -0.51008328401E+02  0.45673082840E+03 -0.56527637278E+03  0.73421872394E+03  0.91295442299E+02 0.  0.
         23    2    4    4    0    0 -0.46962408771E+03 -0.25692384394E+03 -0.39238875064E+03  0.66993442543E+03  0.91030530099E+02 0.  0.
          2    1    3    3  502    0  0.46489919899E+03 -0.15591676513E+03 -0.84342619146E+03  0.97560701274E+03  0.00000000000E+00 0. -1.
         -3    1    3    3    0  502  0.55733217126E+02 -0.43890219331E+02 -0.90704280510E+02  0.11515124553E+03  0.00000000000E+00 0.  1.
         13    1    5    5    0    0  0.13378771864E+02  0.26725493689E+03 -0.30146917042E+03  0.40309782131E+03  0.00000000000E+00 0. -1.
        -13    1    5    5    0    0 -0.64387100265E+02  0.18947589151E+03 -0.26380720236E+03  0.33112090263E+03  0.00000000000E+00 0.  1.
          2    1    6    6  503    0 -0.45507617929E+03 -0.24663473331E+03 -0.35248718082E+03  0.62623496651E+03  0.00000000000E+00 0. -1.
         -2    1    6    6    0  503 -0.14547908426E+02 -0.10289110630E+02 -0.39901569811E+02  0.43699458927E+02  0.00000000000E+00 0.  1.
<mgrwt>
<rscale>  0 0.16265584E+04</rscale>
<asrwt>0</asrwt>
<pdfrwt beam="1">  1        2 0.33743899E+00 0.16265584E+04</pdfrwt>
<pdfrwt beam="2">  1       -1 0.46393525E-01 0.16265584E+04</pdfrwt>
<totfact> 0.26273910E+01</totfact>
</mgrwt>
</event>
<event>
12    7  0.1701638E-007  0.1451806E+04  0.7818608E-02  0.8917149E-01
         -1   -1    0    0    0  501 -0.00000000000E+00  0.00000000000E+00  0.20761491371E+03  0.20761491371E+03  0.00000000000E+00 0.  1.
          2   -1    0    0  501    0  0.00000000000E+00 -0.00000000000E+00 -0.25380407186E+04  0.25380407186E+04  0.00000000000E+00 0. -1.
         24    2    1    2    0    0  0.30751259463E+02 -0.10142570811E+03 -0.15253736438E+04  0.15312032750E+04  0.81153570438E+02 0.  0.
        254    2    1    2    0    0 -0.30751259463E+02  0.10142570811E+03 -0.80505216109E+03  0.12144523573E+04  0.90307958224E+03 0.  0.
         23    2    4    4    0    0  0.14559578779E+03  0.20338109759E+03  0.96412193691E+02  0.28578363351E+03  0.99070529482E+02 0.  0.
         23    2    4    4    0    0 -0.17634704725E+03 -0.10195538947E+03 -0.90146435478E+03  0.92866872379E+03  0.91073778301E+02 0.  0.
          4    1    3    3  502    0  0.23605427164E+02 -0.11421230136E+03 -0.14252656972E+04  0.14300293610E+04  0.00000000000E+00 0. -1.
         -3    1    3    3    0  502  0.71458322984E+01  0.12786593244E+02 -0.10010794662E+03  0.10117391394E+03  0.00000000000E+00 0.  1.
         13    1    5    5    0    0  0.15268169840E+03  0.20207866310E+03  0.10534429740E+03  0.27430805329E+03  0.00000000000E+00 0. -1.
        -13    1    5    5    0    0 -0.70859106081E+01  0.13024344872E+01 -0.89321037068E+01  0.11475580219E+02  0.00000000000E+00 0.  1.
          4    1    6    6  503    0 -0.18558992908E+03 -0.85750660495E+02 -0.83041671215E+03  0.85521267143E+03  0.00000000000E+00 0. -1.
         -4    1    6    6    0  503  0.92428818299E+01 -0.16204728977E+02 -0.71047642633E+02  0.73456052368E+02  0.00000000000E+00 0.  1.
<mgrwt>
<rscale>  0 0.14518059E+04</rscale>
<asrwt>0</asrwt>
<pdfrwt beam="1">  1        2 0.39046782E+00 0.14518059E+04</pdfrwt>
<pdfrwt beam="2">  1       -1 0.31940755E-01 0.14518059E+04</pdfrwt>
<totfact> 0.33489996E+01</totfact>
</mgrwt>
</event>
<event>
12    7  0.1701638E-007  0.1654109E+04  0.7818608E-02  0.8787979E-01
          2   -1    0    0  501    0  0.00000000000E+00  0.00000000000E+00  0.30081206495E+04  0.30081206495E+04  0.00000000000E+00 0. -1.
         -3   -1    0    0    0  501 -0.00000000000E+00 -0.00000000000E+00 -0.22739090724E+03  0.22739090724E+03  0.00000000000E+00 0.  1.
         24    2    1    2    0    0 -0.26984711616E+03  0.10397870794E+03  0.60024840571E+01  0.30014216894E+03  0.80126487222E+02 0.  0.
        254    2    1    2    0    0  0.26984711616E+03 -0.10397870794E+03  0.27747272582E+04  0.29353693878E+04  0.91304602712E+03 0.  0.
         23    2    4    4    0    0  0.37360180330E+03 -0.48411935724E+02  0.27587742744E+04  0.27859417188E+04  0.93347415832E+02 0.  0.
         23    2    4    4    0    0 -0.10375468714E+03 -0.55566772215E+02  0.15952983774E+02  0.14942766906E+03  0.90672097748E+02 0.  0.
          4    1    3    3  502    0 -0.72450712385E+02  0.67695544963E+02  0.74352108458E+01  0.99433771392E+02  0.00000000000E+00 0. -1.
         -1    1    3    3    0  502 -0.19739640377E+03  0.36283162976E+02 -0.14327267888E+01  0.20070839754E+03  0.00000000000E+00 0.  1.
         13    1    5    5    0    0  0.36199553888E+03 -0.54383917282E+02  0.27288759029E+04  0.27533183750E+04  0.00000000000E+00 0. -1.
        -13    1    5    5    0    0  0.11606264424E+02  0.59719815575E+01  0.29898371505E+02  0.32623343732E+02  0.00000000000E+00 0.  1.
          3    1    6    6  503    0 -0.47782018828E+02  0.29454084848E+01 -0.29831857584E+02  0.56406883280E+02  0.00000000000E+00 0. -1.
         -3    1    6    6    0  503 -0.55972668316E+02 -0.58512180700E+02  0.45784841358E+02  0.93020785779E+02  0.00000000000E+00 0.  1.
<mgrwt>
<rscale>  0 0.16541092E+04</rscale>
<asrwt>0</asrwt>
<pdfrwt beam="1">  1        2 0.46278777E+00 0.16541092E+04</pdfrwt>
<pdfrwt beam="2">  1       -3 0.34983219E-01 0.16541092E+04</pdfrwt>
<totfact> 0.86549729E+00</totfact>
</mgrwt>
</event>
<event>
12    7  0.1701638E-007  0.1225190E+04  0.7818608E-02  0.9091089E-01
          2   -1    0    0  501    0  0.00000000000E+00  0.00000000000E+00  0.11056920626E+04  0.11056920626E+04  0.00000000000E+00 0. -1.
         -1   -1    0    0    0  501 -0.00000000000E+00 -0.00000000000E+00 -0.33940062539E+03  0.33940062539E+03  0.00000000000E+00 0.  1.
         24    2    1    2    0    0 -0.17645312013E+03  0.18583282437E+03  0.91830346468E+02  0.28370592586E+03  0.79916816858E+02 0.  0.
        254    2    1    2    0    0  0.17645312013E+03 -0.18583282437E+03  0.67446109070E+03  0.11613867621E+04  0.91008346106E+03 0.  0.
         23    2    4    4    0    0 -0.15662357994E+03 -0.90925632561E+02  0.76582226555E+03  0.79201160621E+03  0.89443979665E+02 0.  0.
         23    2    4    4    0    0  0.33307670008E+03 -0.94907191809E+02 -0.91361174856E+02  0.36937515589E+03  0.90242331125E+02 0.  0.
          2    1    3    3  502    0 -0.16992244205E+03  0.19068030069E+03  0.76948217780E+02  0.26674639942E+03  0.00000000000E+00 0. -1.
         -1    1    3    3    0  502 -0.65306780824E+01 -0.48474763156E+01  0.14882128689E+02  0.16959526442E+02  0.00000000000E+00 0.  1.
         13    1    5    5    0    0 -0.12521656978E+03 -0.53213230552E+02  0.39110625860E+03  0.41409533053E+03  0.00000000000E+00 0. -1.
        -13    1    5    5    0    0 -0.31407010167E+02 -0.37712402009E+02  0.37471600695E+03  0.37791627567E+03  0.00000000000E+00 0.  1.
          1    1    6    6  503    0  0.58606527590E+02  0.59542190932E-01  0.14284849707E+02  0.60322347041E+02  0.00000000000E+00 0. -1.
         -1    1    6    6    0  503  0.27447017249E+03 -0.94966734000E+02 -0.10564602456E+03  0.30905280885E+03  0.00000000000E+00 0.  1.
<mgrwt>
<rscale>  0 0.12251899E+04</rscale>
<asrwt>0</asrwt>
<pdfrwt beam="1">  1        2 0.17010647E+00 0.12251899E+04</pdfrwt>
<pdfrwt beam="2">  1       -1 0.52215481E-01 0.12251899E+04</pdfrwt>
<totfact> 0.89660063E+01</totfact>
</mgrwt>
</event>
<event>
12    7  0.1701638E-007  0.2351951E+04  0.7818608E-02  0.8457715E-01
          2   -1    0    0  501    0  0.00000000000E+00  0.00000000000E+00  0.37298611108E+04  0.37298611108E+04  0.00000000000E+00 0. -1.
         -1   -1    0    0    0  501 -0.00000000000E+00 -0.00000000000E+00 -0.37076940622E+03  0.37076940622E+03  0.00000000000E+00 0.  1.
         24    2    1    2    0    0 -0.19743347879E+03  0.35534417289E+03 -0.15692623748E+03  0.44274087923E+03  0.78384835157E+02 0.  0.
        254    2    1    2    0    0  0.19743347879E+03 -0.35534417289E+03  0.35160179421E+04  0.36578896378E+04  0.92332278953E+03 0.  0.
         23    2    4    4    0    0  0.50009346882E+03  0.26965958222E+01  0.22018991056E+04  0.22597299016E+04  0.88987683074E+02 0.  0.
         23    2    4    4    0    0 -0.30265999002E+03 -0.35804076871E+03  0.13141188365E+04  0.13981597363E+04  0.90255581447E+02 0.  0.
          2    1    3    3  502    0 -0.59242184488E+01  0.69558807787E+02 -0.21796937956E+02  0.73134332630E+02  0.00000000000E+00 0. -1.
         -1    1    3    3    0  502 -0.19150926034E+03  0.28578536510E+03 -0.13512929952E+03  0.36960654660E+03  0.00000000000E+00 0.  1.
         13    1    5    5    0    0  0.12979321995E+03 -0.28525650890E+02  0.47099512885E+03  0.48938369824E+03  0.00000000000E+00 0. -1.
        -13    1    5    5    0    0  0.37030024886E+03  0.31222246712E+02  0.17309039767E+04  0.17703462033E+04  0.00000000000E+00 0.  1.
          4    1    6    6  503    0 -0.16749599029E+03 -0.13603908359E+03  0.65592518759E+03  0.69050661890E+03  0.00000000000E+00 0. -1.
         -4    1    6    6    0  503 -0.13516399974E+03 -0.22200168512E+03  0.65819364893E+03  0.70765311736E+03  0.00000000000E+00 0.  1.
<mgrwt>
<rscale>  0 0.23519510E+04</rscale>
<asrwt>0</asrwt>
<pdfrwt beam="1">  1        2 0.57382476E+00 0.23519510E+04</pdfrwt>
<pdfrwt beam="2">  1       -1 0.57041450E-01 0.23519510E+04</pdfrwt>
<totfact> 0.17786472E+00</totfact>
</mgrwt>
</event>
<event>
12    7  0.1701638E-007  0.3270586E+04  0.7818608E-02  0.8170420E-01
         -1   -1    0    0    0  501 -0.00000000000E+00  0.00000000000E+00  0.11829108729E+04  0.11829108729E+04  0.00000000000E+00 0.  1.
          2   -1    0    0  501    0  0.00000000000E+00 -0.00000000000E+00 -0.22606808196E+04  0.22606808196E+04  0.00000000000E+00 0. -1.
         24    2    1    2    0    0  0.49074423042E+02  0.29583409507E+03 -0.20395162135E+04  0.20630145143E+04  0.80476022785E+02 0.  0.
        254    2    1    2    0    0 -0.49074423042E+02 -0.29583409507E+03  0.96174626686E+03  0.13805771781E+04  0.94398694488E+03 0.  0.
         23    2    4    4    0    0 -0.23030374159E+03  0.22646502250E+03  0.66791191558E+03  0.74784585422E+03  0.94025926732E+02 0.  0.
         23    2    4    4    0    0  0.18122931855E+03 -0.52229911757E+03  0.29383435128E+03  0.63273132389E+03  0.91486983357E+02 0.  0.
          2    1    3    3  502    0  0.63791039706E+02  0.27933332526E+03 -0.19419930730E+04  0.19630164286E+04  0.00000000000E+00 0. -1.
         -1    1    3    3    0  502 -0.14716616663E+02  0.16500769811E+02 -0.97523140549E+02  0.99998085746E+02  0.00000000000E+00 0.  1.
         13    1    5    5    0    0 -0.15239173843E+02  0.84367244217E+01  0.11032460039E+03  0.11169121805E+03  0.00000000000E+00 0. -1.
        -13    1    5    5    0    0 -0.21506456775E+03  0.21802829807E+03  0.55758731520E+03  0.63615463618E+03  0.00000000000E+00 0.  1.
          2    1    6    6  503    0  0.16422079551E+03 -0.34438719266E+03  0.20580216737E+03  0.43350379495E+03  0.00000000000E+00 0. -1.
         -2    1    6    6    0  503  0.17008523034E+02 -0.17791192491E+03  0.88032183909E+02  0.19922752894E+03  0.00000000000E+00 0.  1.
<mgrwt>
<rscale>  0 0.32705864E+04</rscale>
<asrwt>0</asrwt>
<pdfrwt beam="1">  1        2 0.34779705E+00 0.32705864E+04</pdfrwt>
<pdfrwt beam="2">  1       -1 0.18198629E+00 0.32705864E+04</pdfrwt>
<totfact> 0.91474617E-01</totfact>
</mgrwt>
</event>
<event>
12    7  0.1701638E-007  0.2223340E+04  0.7818608E-02  0.8508776E-01
         -1   -1    0    0    0  501 -0.00000000000E+00  0.00000000000E+00  0.64909535574E+03  0.64909535574E+03  0.00000000000E+00 0.  1.
          2   -1    0    0  501    0  0.00000000000E+00 -0.00000000000E+00 -0.19038957338E+04  0.19038957338E+04  0.00000000000E+00 0. -1.
         24    2    1    2    0    0 -0.73430501432E+03 -0.47297078701E+03 -0.15415317570E+03  0.89065892597E+03  0.81270544542E+02 0.  0.
        254    2    1    2    0    0  0.73430501432E+03  0.47297078701E+03 -0.11006472023E+04  0.16623321635E+04  0.88826726751E+03 0.  0.
         23    2    4    4    0    0  0.79112802455E+03  0.52581933611E+03 -0.55577745698E+03  0.11044745321E+04  0.92767908617E+02 0.  0.
         23    2    4    4    0    0 -0.56823010228E+02 -0.52848549096E+02 -0.54486974534E+03  0.55785763146E+03  0.91105839289E+02 0.  0.
          4    1    3    3  502    0 -0.24034753092E+03 -0.13487751483E+03 -0.14421706953E+02  0.27598345105E+03  0.00000000000E+00 0. -1.
         -3    1    3    3    0  502 -0.49395748341E+03 -0.33809327218E+03 -0.13973146875E+03  0.61467547492E+03  0.00000000000E+00 0.  1.
         13    1    5    5    0    0  0.66891319726E+03  0.46858533565E+03 -0.44629234568E+03  0.93069540671E+03  0.00000000000E+00 0. -1.
        -13    1    5    5    0    0  0.12221482729E+03  0.57234000457E+02 -0.10948511130E+03  0.17377912537E+03  0.00000000000E+00 0.  1.
          2    1    6    6  503    0 -0.20237687236E+02 -0.73163076080E+02 -0.39641130473E+03  0.40361407583E+03  0.00000000000E+00 0. -1.
         -2    1    6    6    0  503 -0.36585322993E+02  0.20314526984E+02 -0.14845844061E+03  0.15424355563E+03  0.00000000000E+00 0.  1.
<mgrwt>
<rscale>  0 0.22233397E+04</rscale>
<asrwt>0</asrwt>
<pdfrwt beam="1">  1        2 0.29290703E+00 0.22233397E+04</pdfrwt>
<pdfrwt beam="2">  1       -1 0.99860826E-01 0.22233397E+04</pdfrwt>
<totfact> 0.75023348E+00</totfact>
</mgrwt>
</event>
<event>
12    7  0.1701638E-007  0.1189919E+04  0.7818608E-02  0.9121726E-01
          2   -1    0    0  501    0  0.00000000000E+00  0.00000000000E+00  0.29182822523E+03  0.29182822523E+03  0.00000000000E+00 0. -1.
         -1   -1    0    0    0  501 -0.00000000000E+00 -0.00000000000E+00 -0.12129631270E+04  0.12129631270E+04  0.00000000000E+00 0.  1.
         24    2    1    2    0    0  0.17037912678E+03  0.15505008807E+03 -0.38903980962E+03  0.45880560849E+03  0.77980999338E+02 0.  0.
        254    2    1    2    0    0 -0.17037912678E+03 -0.15505008807E+03 -0.53209509217E+03  0.10459857438E+04  0.87056959078E+03 0.  0.
         23    2    4    4    0    0 -0.23348270506E+03  0.22922171849E+03  0.46286936248E+02  0.34274979153E+03  0.90984445596E+02 0.  0.
         23    2    4    4    0    0  0.63103578280E+02 -0.38427180655E+03 -0.57838202842E+03  0.70323595222E+03  0.91477597264E+02 0.  0.
          4    1    3    3  502    0  0.13486322836E+02  0.26266163274E+01 -0.74042337301E+02  0.75306359160E+02  0.00000000000E+00 0. -1.
         -3    1    3    3    0  502  0.15689280395E+03  0.15242347174E+03 -0.31499747232E+03  0.38349924933E+03  0.00000000000E+00 0.  1.
         13    1    5    5    0    0 -0.59849571071E+02  0.45267797586E+02  0.49278095482E+02  0.89774580757E+02  0.00000000000E+00 0. -1.
        -13    1    5    5    0    0 -0.17363313399E+03  0.18395392090E+03 -0.29911592340E+01  0.25297521078E+03  0.00000000000E+00 0.  1.
          4    1    6    6  503    0 -0.20083947940E+02 -0.14667375601E+03 -0.22594226858E+03  0.27012305417E+03  0.00000000000E+00 0. -1.
         -4    1    6    6    0  503  0.83187526220E+02 -0.23759805055E+03 -0.35243975984E+03  0.43311289805E+03  0.00000000000E+00 0.  1.
<mgrwt>
<rscale>  0 0.11899191E+04</rscale>
<asrwt>0</asrwt>
<pdfrwt beam="1">  1        2 0.44896650E-01 0.11899191E+04</pdfrwt>
<pdfrwt beam="2">  1       -1 0.18660971E+00 0.11899191E+04</pdfrwt>
<totfact> 0.23921978E+01</totfact>
</mgrwt>
</event>
<event>
12    7  0.1701638E-007  0.2443116E+04  0.7818608E-02  0.8423536E-01
         -1   -1    0    0    0  501 -0.00000000000E+00  0.00000000000E+00  0.54187562888E+03  0.54187562888E+03  0.00000000000E+00 0.  1.
          2   -1    0    0  501    0  0.00000000000E+00 -0.00000000000E+00 -0.27537751143E+04  0.27537751143E+04  0.00000000000E+00 0. -1.
         24    2    1    2    0    0  0.20476336518E+03  0.29089174530E+03 -0.22291145682E+04  0.22587442898E+04  0.80174591608E+02 0.  0.
        254    2    1    2    0    0 -0.20476336518E+03 -0.29089174530E+03  0.17215082804E+02  0.10369064534E+04  0.97382369596E+03 0.  0.
         23    2    4    4    0    0  0.30520060687E+03 -0.31104759488E+02 -0.24107819350E+03  0.40212183396E+03  0.97305485289E+02 0.  0.
         23    2    4    4    0    0 -0.50996397205E+03 -0.25978698581E+03  0.25829327630E+03  0.63478461944E+03  0.93185651861E+02 0.  0.
          2    1    3    3  502    0  0.20725458706E+03  0.27860437739E+03 -0.21969585813E+04  0.22242306245E+04  0.00000000000E+00 0. -1.
         -1    1    3    3    0  502 -0.24912218801E+01  0.12287367915E+02 -0.32155986878E+02  0.34513665248E+02  0.00000000000E+00 0.  1.
         13    1    5    5    0    0  0.21052600244E+03  0.83995813311E+01 -0.11655419247E+03  0.24078336830E+03  0.00000000000E+00 0.  1.
        -13    1    5    5    0    0  0.94674604434E+02 -0.39504340819E+02 -0.12452400102E+03  0.16133846565E+03  0.00000000000E+00 0. -1.
          1    1    6    6  503    0 -0.46113767571E+02 -0.37953894830E+02  0.76274423399E+00  0.59729050479E+02  0.00000000000E+00 0. -1.
         -1    1    6    6    0  503 -0.46385020448E+03 -0.22183309098E+03  0.25753053207E+03  0.57505556896E+03  0.00000000000E+00 0.  1.
<mgrwt>
<rscale>  0 0.24431157E+04</rscale>
<asrwt>0</asrwt>
<pdfrwt beam="1">  1        2 0.42365772E+00 0.24431157E+04</pdfrwt>
<pdfrwt beam="2">  1       -1 0.83365480E-01 0.24431157E+04</pdfrwt>
<totfact> 0.35884025E+00</totfact>
</mgrwt>
</event>
<event>
12    7  0.1701638E-007  0.1582421E+04  0.7818608E-02  0.8831421E-01
         -1   -1    0    0    0  501 -0.00000000000E+00  0.00000000000E+00  0.98417705356E+03  0.98417705356E+03  0.00000000000E+00 0.  1.
          2   -1    0    0  501    0  0.00000000000E+00 -0.00000000000E+00 -0.63607877952E+03  0.63607877952E+03  0.00000000000E+00 0. -1.
         24    2    1    2    0    0  0.36851123251E+03 -0.48059663202E+03  0.29444147004E+03  0.67808160120E+03  0.79531298338E+02 0.  0.
        254    2    1    2    0    0 -0.36851123251E+03  0.48059663202E+03  0.53656804002E+02  0.94217423188E+03  0.71974966440E+03 0.  0.
         23    2    4    4    0    0 -0.31165190977E+02 -0.17114010225E+03  0.36906704441E+02  0.20240745245E+03  0.96677134063E+02 0.  0.
         23    2    4    4    0    0 -0.33734604153E+03  0.65173673427E+03  0.16750099562E+02  0.73976677942E+03  0.91712592222E+02 0.  0.
          4    1    3    3  502    0  0.17652045636E+03 -0.22368210180E+03  0.94821424666E+02  0.30030693757E+03  0.00000000000E+00 0. -1.
         -3    1    3    3    0  502  0.19199077615E+03 -0.25691453022E+03  0.19962004538E+03  0.37777466363E+03  0.00000000000E+00 0.  1.
         13    1    5    5    0    0  0.38230690060E+01  0.11965074720E+02  0.32619314815E+01  0.12977637176E+02  0.00000000000E+00 0.  1.
        -13    1    5    5    0    0 -0.34988259983E+02 -0.18310517697E+03  0.33644772959E+02  0.18942981528E+03  0.00000000000E+00 0. -1.
          4    1    6    6  503    0 -0.26652909000E+03  0.42159858578E+03  0.12909927157E+02  0.49894868431E+03  0.00000000000E+00 0. -1.
         -4    1    6    6    0  503 -0.70816951530E+02  0.23013814848E+03  0.38401724051E+01  0.24081809512E+03  0.00000000000E+00 0.  1.
<mgrwt>
<rscale>  0 0.15824211E+04</rscale>
<asrwt>0</asrwt>
<pdfrwt beam="1">  1        2 0.97858273E-01 0.15824211E+04</pdfrwt>
<pdfrwt beam="2">  1       -1 0.15141186E+00 0.15824211E+04</pdfrwt>
<totfact> 0.17233422E+01</totfact>
</mgrwt>
</event>
<event>
12    7  0.1701638E-007  0.1924505E+04  0.7818608E-02  0.8642754E-01
          2   -1    0    0  501    0  0.00000000000E+00  0.00000000000E+00  0.16052486487E+04  0.16052486487E+04  0.00000000000E+00 0. -1.
         -1   -1    0    0    0  501 -0.00000000000E+00 -0.00000000000E+00 -0.57681411309E+03  0.57681411309E+03  0.00000000000E+00 0.  1.
         24    2    1    2    0    0 -0.57151084994E+03 -0.34843734223E+03  0.77796104298E+03  0.10293784820E+04  0.79771183311E+02 0.  0.
        254    2    1    2    0    0  0.57151084994E+03  0.34843734223E+03  0.25047349261E+03  0.11526842798E+04  0.90438423546E+03 0.  0.
         23    2    4    4    0    0  0.40951813538E+03  0.55271408024E+03  0.43711894252E+03  0.81962703430E+03  0.86703793194E+02 0.  0.
         23    2    4    4    0    0  0.16199271456E+03 -0.20427673801E+03 -0.18664544990E+03  0.33305724550E+03  0.90110929161E+02 0.  0.
          4    1    3    3  502    0 -0.48928814437E+03 -0.30182637579E+03  0.62177694696E+03  0.84682266214E+03  0.00000000000E+00 0. -1.
         -3    1    3    3    0  502 -0.82222705563E+02 -0.46610966447E+02  0.15618409602E+03  0.18255581983E+03  0.00000000000E+00 0.  1.
         13    1    5    5    0    0  0.34322472060E+03  0.49944154266E+03  0.36031234457E+03  0.70503194893E+03  0.00000000000E+00 0.  1.
        -13    1    5    5    0    0  0.66293414777E+02  0.53272537582E+02  0.76806597947E+02  0.11459508537E+03  0.00000000000E+00 0. -1.
          2    1    6    6  503    0  0.14406603567E+03 -0.13173814806E+03 -0.16404951247E+03  0.25499451922E+03  0.00000000000E+00 0.  1.
         -2    1    6    6    0  503  0.17926678884E+02 -0.72538589943E+02 -0.22595937427E+02  0.78062726284E+02  0.00000000000E+00 0. -1.
<mgrwt>
<rscale>  0 0.19245052E+04</rscale>
<asrwt>0</asrwt>
<pdfrwt beam="1">  1        2 0.24696133E+00 0.19245052E+04</pdfrwt>
<pdfrwt beam="2">  1       -1 0.88740634E-01 0.19245052E+04</pdfrwt>
<totfact> 0.14696904E+01</totfact>
</mgrwt>
</event>
<event>
12    7  0.1701638E-007  0.1248293E+04  0.7818608E-02  0.9071605E-01
         -1   -1    0    0    0  501 -0.00000000000E+00  0.00000000000E+00  0.79898089499E+03  0.79898089499E+03  0.00000000000E+00 0.  1.
          2   -1    0    0  501    0  0.00000000000E+00 -0.00000000000E+00 -0.48756952992E+03  0.48756952992E+03  0.00000000000E+00 0. -1.
         24    2    1    2    0    0 -0.14190498458E+03  0.25016046443E+03  0.29069720077E+02  0.30177902796E+03  0.86650161440E+02 0.  0.
        254    2    1    2    0    0  0.14190498458E+03 -0.25016046443E+03  0.28234164500E+03  0.98477139695E+03  0.89852135040E+03 0.  0.
         23    2    4    4    0    0  0.37488464056E+03 -0.46614887982E+03  0.23903740934E+03  0.65054251194E+03  0.90738111552E+02 0.  0.
         23    2    4    4    0    0 -0.23297965597E+03  0.21598841539E+03  0.43304235652E+02  0.33422888501E+03  0.94356637659E+02 0.  0.
          4    1    3    3  502    0 -0.61469702508E+02  0.82072276999E+02  0.50333891150E+02  0.11422733288E+03  0.00000000000E+00 0. -1.
         -1    1    3    3    0  502 -0.80435282074E+02  0.16808818743E+03 -0.21264171073E+02  0.18755169508E+03  0.00000000000E+00 0.  1.
         13    1    5    5    0    0  0.32172865431E+03 -0.41570316396E+03  0.23855567874E+03  0.57725839915E+03  0.00000000000E+00 0.  1.
        -13    1    5    5    0    0  0.53155986249E+02 -0.50445715865E+02  0.48173060451E+00  0.73284112791E+02  0.00000000000E+00 0. -1.
          3    1    6    6  503    0 -0.45875549059E+02  0.92792330899E+02  0.37616194036E+02  0.11013610093E+03  0.00000000000E+00 0. -1.
         -3    1    6    6    0  503 -0.18710410692E+03  0.12319608449E+03  0.56880416167E+01  0.22409278408E+03  0.00000000000E+00 0.  1.
<mgrwt>
<rscale>  0 0.12482928E+04</rscale>
<asrwt>0</asrwt>
<pdfrwt beam="1">  1        2 0.75010697E-01 0.12482928E+04</pdfrwt>
<pdfrwt beam="2">  1       -1 0.12292014E+00 0.12482928E+04</pdfrwt>
<totfact> 0.41632897E+01</totfact>
</mgrwt>
</event>
<event>
12    7  0.1701638E-007  0.1160814E+04  0.7818608E-02  0.9147865E-01
          2   -1    0    0  501    0  0.00000000000E+00  0.00000000000E+00  0.25100193099E+04  0.25100193099E+04  0.00000000000E+00 0. -1.
         -1   -1    0    0    0  501 -0.00000000000E+00 -0.00000000000E+00 -0.13421097014E+03  0.13421097014E+03  0.00000000000E+00 0.  1.
         24    2    1    2    0    0 -0.59645331261E+02 -0.34519079488E+02  0.34398253378E+01  0.10575946327E+03  0.80150478989E+02 0.  0.
        254    2    1    2    0    0  0.59645331261E+02  0.34519079488E+02  0.23723685144E+04  0.25384708167E+04  0.90052905950E+03 0.  0.
         23    2    4    4    0    0 -0.34214934486E+03  0.24090852899E+03  0.13521182086E+04  0.14186292097E+04  0.95823227899E+02 0.  0.
         23    2    4    4    0    0  0.40179467612E+03 -0.20638944951E+03  0.10202503058E+04  0.11198416071E+04  0.95388530832E+02 0.  0.
          2    1    3    3  502    0  0.91156730055E+00 -0.14858637713E+02  0.32519180301E+02  0.35764607604E+02  0.00000000000E+00 0. -1.
         -1    1    3    3    0  502 -0.60556898562E+02 -0.19660441775E+02 -0.29079354963E+02  0.69994855663E+02  0.00000000000E+00 0.  1.
         13    1    5    5    0    0 -0.17084419977E+03  0.16293616558E+03  0.85767260885E+03  0.88957194123E+03  0.00000000000E+00 0. -1.
        -13    1    5    5    0    0 -0.17130514509E+03  0.77972363417E+02  0.49444559972E+03  0.52905726843E+03  0.00000000000E+00 0.  1.
          2    1    6    6  503    0  0.23334015910E+03 -0.16661026966E+03  0.68384787550E+03  0.74152176545E+03  0.00000000000E+00 0. -1.
         -2    1    6    6    0  503  0.16845451703E+03 -0.39779179842E+02  0.33640243031E+03  0.37831984164E+03  0.00000000000E+00 0.  1.
<mgrwt>
<rscale>  0 0.11608137E+04</rscale>
<asrwt>0</asrwt>
<pdfrwt beam="1">  1        2 0.38615678E+00 0.11608137E+04</pdfrwt>
<pdfrwt beam="2">  1       -1 0.20647843E-01 0.11608137E+04</pdfrwt>
<totfact> 0.75592623E+01</totfact>
</mgrwt>
</event>
<event>
12    7  0.1701638E-007  0.1337499E+04  0.7818608E-02  0.9000345E-01
         -1   -1    0    0    0  501 -0.00000000000E+00  0.00000000000E+00  0.30964155605E+03  0.30964155605E+03  0.00000000000E+00 0.  1.
          2   -1    0    0  501    0  0.00000000000E+00 -0.00000000000E+00 -0.14443350737E+04  0.14443350737E+04  0.00000000000E+00 0. -1.
         24    2    1    2    0    0  0.18629216097E+03 -0.30866544874E+03 -0.36319740505E+03  0.51804330018E+03  0.80482155416E+02 0.  0.
        254    2    1    2    0    0 -0.18629216097E+03  0.30866544874E+03 -0.77149611261E+03  0.12359333296E+04  0.89573758151E+03 0.  0.
         23    2    4    4    0    0 -0.36399654996E+03 -0.60017134146E+02 -0.71884198687E+03  0.81326518342E+03  0.92579218510E+02 0.  0.
         23    2    4    4    0    0  0.17770438899E+03  0.36868258288E+03 -0.52654125739E+02  0.42266814617E+03  0.91488841083E+02 0.  0.
          4    1    3    3  502    0  0.10766816120E+03 -0.16331068130E+03 -0.14100503898E+03  0.24113322579E+03  0.00000000000E+00 0. -1.
         -3    1    3    3    0  502  0.78623999774E+02 -0.14535476744E+03 -0.22219236607E+03  0.27691007439E+03  0.00000000000E+00 0.  1.
         13    1    5    5    0    0 -0.28329019715E+03 -0.74384398836E+01 -0.55642642716E+03  0.62443497262E+03  0.00000000000E+00 0.  1.
        -13    1    5    5    0    0 -0.80706352805E+02 -0.52578694262E+02 -0.16241555971E+03  0.18883021080E+03  0.00000000000E+00 0. -1.
          1    1    6    6  503    0  0.47102654122E+02  0.16001009981E+03 -0.57546334665E+02  0.17644679850E+03  0.00000000000E+00 0. -1.
         -1    1    6    6    0  503  0.13060173486E+03  0.20867248307E+03  0.48922089251E+01  0.24622134767E+03  0.00000000000E+00 0.  1.
<mgrwt>
<rscale>  0 0.13374994E+04</rscale>
<asrwt>0</asrwt>
<pdfrwt beam="1">  1        2 0.22220540E+00 0.13374994E+04</pdfrwt>
<pdfrwt beam="2">  1       -1 0.47637162E-01 0.13374994E+04</pdfrwt>
<totfact> 0.66905027E+01</totfact>
</mgrwt>
</event>
<event>
12    7  0.1701638E-007  0.2456288E+04  0.7818608E-02  0.8418726E-01
         -1   -1    0    0    0  501 -0.00000000000E+00  0.00000000000E+00  0.49983178725E+03  0.49983178725E+03  0.00000000000E+00 0.  1.
          2   -1    0    0  501    0  0.00000000000E+00 -0.00000000000E+00 -0.30176912321E+04  0.30176912321E+04  0.00000000000E+00 0. -1.
         24    2    1    2    0    0 -0.89633395032E+03  0.34218021035E+03 -0.44796219017E+03  0.10616942871E+04  0.77606627365E+02 0.  0.
        254    2    1    2    0    0  0.89633395032E+03 -0.34218021035E+03 -0.20698972547E+04  0.24558287322E+04  0.90891048531E+03 0.  0.
         23    2    4    4    0    0  0.65008903019E+03 -0.30171857852E+03 -0.20682263608E+04  0.21905156947E+04  0.84551058094E+02 0.  0.
         23    2    4    4    0    0  0.24624492013E+03 -0.40461631830E+02 -0.16708938309E+01  0.26531303749E+03  0.90080584133E+02 0.  0.
          4    1    3    3  502    0 -0.35585084528E+02  0.15180168687E+01 -0.27356892478E+02  0.44911047440E+02  0.00000000000E+00 0. -1.
         -3    1    3    3    0  502 -0.86074886579E+03  0.34066219349E+03 -0.42060529769E+03  0.10167832397E+04  0.00000000000E+00 0.  1.
         13    1    5    5    0    0  0.25514125636E+02 -0.28375709894E+02 -0.14839251241E+03  0.15322039440E+03  0.00000000000E+00 0.  1.
        -13    1    5    5    0    0  0.62457490455E+03 -0.27334286863E+03 -0.19198338484E+04  0.20372953003E+04  0.00000000000E+00 0. -1.
          1    1    6    6  503    0  0.15054530648E+03 -0.68469820083E+02  0.40633926894E+01  0.16543432753E+03  0.00000000000E+00 0. -1.
         -1    1    6    6    0  503  0.95699613647E+02  0.28008188253E+02 -0.57342865203E+01  0.99878709960E+02  0.00000000000E+00 0.  1.
<mgrwt>
<rscale>  0 0.24562883E+04</rscale>
<asrwt>0</asrwt>
<pdfrwt beam="1">  1        2 0.46426018E+00 0.24562883E+04</pdfrwt>
<pdfrwt beam="2">  1       -1 0.76897199E-01 0.24562883E+04</pdfrwt>
<totfact> 0.29318971E+00</totfact>
</mgrwt>
</event>
<event>
12    7  0.1701638E-007  0.1992234E+04  0.7818608E-02  0.8610260E-01
         -1   -1    0    0    0  501 -0.00000000000E+00  0.00000000000E+00  0.57927858049E+03  0.57927858049E+03  0.00000000000E+00 0.  1.
          2   -1    0    0  501    0  0.00000000000E+00 -0.00000000000E+00 -0.17129055365E+04  0.17129055365E+04  0.00000000000E+00 0. -1.
         24    2    1    2    0    0 -0.45201733299E+03 -0.15724805359E+03  0.27093054766E+03  0.55569798386E+03  0.79688568331E+02 0.  0.
        254    2    1    2    0    0  0.45201733299E+03  0.15724805359E+03 -0.14045575037E+04  0.17364861331E+04  0.90197322009E+03 0.  0.
         23    2    4    4    0    0  0.34892026724E+03  0.39533940827E+02 -0.46372270068E+02  0.36634382999E+03  0.93536778726E+02 0.  0.
         23    2    4    4    0    0  0.10309706575E+03  0.11771411277E+03 -0.13581852336E+04  0.13701423031E+04  0.90206345507E+02 0.  0.
          4    1    3    3  502    0 -0.10007504186E+03 -0.72949660126E+01  0.78925270241E+02  0.12766138341E+03  0.00000000000E+00 0. -1.
         -3    1    3    3    0  502 -0.35194229113E+03 -0.14995308758E+03  0.19200527742E+03  0.42803660045E+03  0.00000000000E+00 0.  1.
         13    1    5    5    0    0  0.19330580716E+01 -0.86145165449E-01  0.12088864919E+02  0.12242744363E+02  0.00000000000E+00 0. -1.
        -13    1    5    5    0    0  0.34698720917E+03  0.39620085992E+02 -0.58461134987E+02  0.35410108563E+03  0.00000000000E+00 0.  1.
          1    1    6    6  503    0  0.15304701873E+02 -0.64355905616E+01 -0.41371099706E+02  0.44578230294E+02  0.00000000000E+00 0. -1.
         -1    1    6    6    0  503  0.87792363877E+02  0.12414970333E+03 -0.13168141339E+04  0.13255640728E+04  0.00000000000E+00 0.  1.
<mgrwt>
<rscale>  0 0.19922344E+04</rscale>
<asrwt>0</asrwt>
<pdfrwt beam="1">  1        2 0.26352393E+00 0.19922344E+04</pdfrwt>
<pdfrwt beam="2">  1       -1 0.89119782E-01 0.19922344E+04</pdfrwt>
<totfact> 0.12607109E+01</totfact>
</mgrwt>
</event>
<event>
12    7  0.1701638E-007  0.1483616E+04  0.7818608E-02  0.8895422E-01
         -1   -1    0    0    0  501 -0.00000000000E+00  0.00000000000E+00  0.39374997815E+03  0.39374997815E+03  0.00000000000E+00 0.  1.
          2   -1    0    0  501    0  0.00000000000E+00 -0.00000000000E+00 -0.13975335950E+04  0.13975335950E+04  0.00000000000E+00 0. -1.
         24    2    1    2    0    0 -0.47059636097E+03  0.26695326331E+02 -0.44069064439E+03  0.65024907429E+03  0.80262314692E+02 0.  0.
        254    2    1    2    0    0  0.47059636097E+03 -0.26695326331E+02 -0.56309297242E+03  0.11410344988E+04  0.87333410358E+03 0.  0.
         23    2    4    4    0    0  0.64653269572E+03 -0.16385027148E+03 -0.19302301853E+03  0.70032355629E+03  0.91344182740E+02 0.  0.
         23    2    4    4    0    0 -0.17593633475E+03  0.13715494515E+03 -0.37006995389E+03  0.44071094251E+03  0.86656166632E+02 0.  0.
          4    1    3    3  502    0 -0.36405985393E+03  0.80047500183E+01 -0.37961358943E+03  0.52603244249E+03  0.00000000000E+00 0. -1.
         -3    1    3    3    0  502 -0.10653650704E+03  0.18690576313E+02 -0.61077054958E+02  0.12421663181E+03  0.00000000000E+00 0.  1.
         13    1    5    5    0    0  0.61878926197E+03 -0.16460484809E+03 -0.20156538376E+03  0.67128496980E+03  0.00000000000E+00 0. -1.
        -13    1    5    5    0    0  0.27743433750E+02  0.75457661248E+00  0.85423652296E+01  0.29038586498E+02  0.00000000000E+00 0.  1.
          4    1    6    6  503    0 -0.89351254767E+02  0.77518877537E+02 -0.27337644361E+03  0.29787162172E+03  0.00000000000E+00 0.  1.
         -4    1    6    6    0  503 -0.86585079979E+02  0.59636067614E+02 -0.96693510280E+02  0.14283932080E+03  0.00000000000E+00 0. -1.
<mgrwt>
<rscale>  0 0.14836156E+04</rscale>
<asrwt>0</asrwt>
<pdfrwt beam="1">  1        2 0.21500517E+00 0.14836156E+04</pdfrwt>
<pdfrwt beam="2">  1       -1 0.60576921E-01 0.14836156E+04</pdfrwt>
<totfact> 0.44232105E+01</totfact>
</mgrwt>
</event>
<event>
12    7  0.1701638E-007  0.2846238E+04  0.7818608E-02  0.8289055E-01
         -1   -1    0    0    0  501 -0.00000000000E+00  0.00000000000E+00  0.89726873643E+03  0.89726873643E+03  0.00000000000E+00 0.  1.
          2   -1    0    0  501    0  0.00000000000E+00 -0.00000000000E+00 -0.22571477169E+04  0.22571477169E+04  0.00000000000E+00 0. -1.
         24    2    1    2    0    0 -0.19596928032E+03  0.36101168839E+03  0.71265473992E+03  0.82631705975E+03  0.78674690473E+02 0.  0.
        254    2    1    2    0    0  0.19596928032E+03 -0.36101168839E+03 -0.20725337204E+04  0.23280993936E+04  0.97771026704E+03 0.  0.
         23    2    4    4    0    0 -0.16212751400E+02 -0.66950638050E+03 -0.12845385739E+04  0.14508949303E+04  0.80963597354E+02 0.  0.
         23    2    4    4    0    0  0.21218203172E+03  0.30849469211E+03 -0.78799514649E+03  0.87720446328E+03  0.91439214025E+02 0.  0.
          4    1    3    3  502    0 -0.33377925037E+02  0.11075452333E+03  0.25422908001E+03  0.27930820868E+03  0.00000000000E+00 0. -1.
         -3    1    3    3    0  502 -0.16259135529E+03  0.25025716506E+03  0.45842565991E+03  0.54700885107E+03  0.00000000000E+00 0.  1.
         13    1    5    5    0    0  0.12353078288E+02 -0.58941260882E+03 -0.11215949920E+04  0.12670971344E+04  0.00000000000E+00 0.  1.
        -13    1    5    5    0    0 -0.28565829688E+02 -0.80093771686E+02 -0.16294358193E+03  0.18379779591E+03  0.00000000000E+00 0. -1.
          1    1    6    6  503    0  0.25712790989E+02  0.38546345986E+02 -0.43209034843E+02  0.63356050235E+02  0.00000000000E+00 0. -1.
         -1    1    6    6    0  503  0.18646924073E+03  0.26994834613E+03 -0.74478611165E+03  0.81384841305E+03  0.00000000000E+00 0.  1.
<mgrwt>
<rscale>  0 0.28462383E+04</rscale>
<asrwt>0</asrwt>
<pdfrwt beam="1">  1        2 0.34725349E+00 0.28462383E+04</pdfrwt>
<pdfrwt beam="2">  1       -1 0.13804134E+00 0.28462383E+04</pdfrwt>
<totfact> 0.20549222E+00</totfact>
</mgrwt>
</event>
<event>
12    7  0.1701638E-007  0.1243898E+04  0.7818608E-02  0.9075277E-01
          2   -1    0    0  501    0  0.00000000000E+00  0.00000000000E+00  0.24810371335E+04  0.24810371335E+04  0.00000000000E+00 0. -1.
         -1   -1    0    0    0  501 -0.00000000000E+00 -0.00000000000E+00 -0.15591077780E+03  0.15591077780E+03  0.00000000000E+00 0.  1.
         24    2    1    2    0    0  0.24854776458E+03  0.76780846935E+02  0.85466718981E+03  0.89680860212E+03  0.78347774556E+02 0.  0.
        254    2    1    2    0    0 -0.24854776458E+03 -0.76780846935E+02  0.14704591659E+04  0.17401393092E+04  0.89339989201E+03 0.  0.
         23    2    4    4    0    0  0.16960343464E+03  0.15813169352E+03  0.72333215631E+02  0.25962693118E+03  0.91668379342E+02 0.  0.
         23    2    4    4    0    0 -0.41815119922E+03 -0.23491254046E+03  0.13981259502E+04  0.14805123780E+04  0.84418016717E+02 0.  0.
          4    1    3    3  502    0  0.24089912683E+03  0.63630010678E+02  0.83793296771E+03  0.87419267095E+03  0.00000000000E+00 0. -1.
         -3    1    3    3    0  502  0.76486377489E+01  0.13150836257E+02  0.16734222095E+02  0.22615931172E+02  0.00000000000E+00 0.  1.
         13    1    5    5    0    0  0.19322321504E+02 -0.74412992194E+00 -0.14662565711E+02  0.24267193304E+02  0.00000000000E+00 0. -1.
        -13    1    5    5    0    0  0.15028111313E+03  0.15887582345E+03  0.86995781342E+02  0.23535973787E+03  0.00000000000E+00 0.  1.
          3    1    6    6  503    0 -0.60438905147E+02 -0.42352066958E+01  0.20328631256E+03  0.21212289623E+03  0.00000000000E+00 0. -1.
         -3    1    6    6    0  503 -0.35771229407E+03 -0.23067733376E+03  0.11948396377E+04  0.12683894817E+04  0.00000000000E+00 0.  1.
<mgrwt>
<rscale>  0 0.12438978E+04</rscale>
<asrwt>0</asrwt>
<pdfrwt beam="1">  1        2 0.38169799E+00 0.12438978E+04</pdfrwt>
<pdfrwt beam="2">  1       -1 0.23986275E-01 0.12438978E+04</pdfrwt>
<totfact> 0.60489509E+01</totfact>
</mgrwt>
</event>
<event>
12    7  0.1701638E-007  0.1178195E+04  0.7818608E-02  0.9132159E-01
         -1   -1    0    0    0  501 -0.00000000000E+00  0.00000000000E+00  0.25882703229E+03  0.25882703229E+03  0.00000000000E+00 0.  1.
          2   -1    0    0  501    0  0.00000000000E+00 -0.00000000000E+00 -0.13408023374E+04  0.13408023374E+04  0.00000000000E+00 0. -1.
         24    2    1    2    0    0 -0.20967881157E+02 -0.16186695866E+03  0.15485162542E+01  0.18116846527E+03  0.78606937081E+02 0.  0.
        254    2    1    2    0    0  0.20967881157E+02  0.16186695866E+03 -0.10835238214E+04  0.14184609045E+04  0.90075906967E+03 0.  0.
         23    2    4    4    0    0  0.43096205069E+03 -0.48895110451E+02 -0.58119711071E+03  0.73080255156E+03  0.90350799154E+02 0.  0.
         23    2    4    4    0    0 -0.40999416954E+03  0.21076206911E+03 -0.50232671068E+03  0.68765835290E+03  0.89588041676E+02 0.  0.
          2    1    3    3  502    0  0.12081135680E+02 -0.14063510112E+02  0.21518915400E+02  0.28404222855E+02  0.00000000000E+00 0. -1.
         -1    1    3    3    0  502 -0.33049016837E+02 -0.14780344855E+03 -0.19970399146E+02  0.15276424241E+03  0.00000000000E+00 0.  1.
         13    1    5    5    0    0  0.86631245951E+02  0.35170741647E+01 -0.66205260713E+02  0.10908931722E+03  0.00000000000E+00 0. -1.
        -13    1    5    5    0    0  0.34433080474E+03 -0.52412184616E+02 -0.51499185000E+03  0.62171323434E+03  0.00000000000E+00 0.  1.
          3    1    6    6  503    0 -0.17581592377E+03  0.10814886335E+03 -0.28622687238E+03  0.35289267230E+03  0.00000000000E+00 0. -1.
         -3    1    6    6    0  503 -0.23417824576E+03  0.10261320576E+03 -0.21609983831E+03  0.33476568059E+03  0.00000000000E+00 0.  1.
<mgrwt>
<rscale>  0 0.11781950E+04</rscale>
<asrwt>0</asrwt>
<pdfrwt beam="1">  1        2 0.20627728E+00 0.11781950E+04</pdfrwt>
<pdfrwt beam="2">  1       -1 0.39819543E-01 0.11781950E+04</pdfrwt>
<totfact> 0.10818945E+02</totfact>
</mgrwt>
</event>
<event>
12    7  0.1701638E-007  0.1795731E+04  0.7818608E-02  0.8708573E-01
         -1   -1    0    0    0  501 -0.00000000000E+00  0.00000000000E+00  0.27573115862E+03  0.27573115862E+03  0.00000000000E+00 0.  1.
          2   -1    0    0  501    0  0.00000000000E+00 -0.00000000000E+00 -0.29237259466E+04  0.29237259466E+04  0.00000000000E+00 0. -1.
         24    2    1    2    0    0 -0.19820134846E+03 -0.46687609293E+03 -0.23063363601E+03  0.56317197171E+03  0.81937384511E+02 0.  0.
        254    2    1    2    0    0  0.19820134846E+03  0.46687609293E+03 -0.24173611520E+04  0.26362851335E+04  0.92147018694E+03 0.  0.
         23    2    4    4    0    0  0.47041567575E+03  0.19998984772E+03 -0.68614986185E+03  0.86118233332E+03  0.97706351490E+02 0.  0.
         23    2    4    4    0    0 -0.27221432730E+03  0.26688624522E+03 -0.17312112902E+04  0.17751028002E+04  0.92566259082E+02 0.  0.
          2    1    3    3  502    0 -0.12741878261E+03 -0.27562937844E+03 -0.18021306394E+03  0.35310600226E+03  0.00000000000E+00 0. -1.
         -3    1    3    3    0  502 -0.70782565843E+02 -0.19124671449E+03 -0.50420572072E+02  0.21006596944E+03  0.00000000000E+00 0.  1.
         13    1    5    5    0    0  0.68615886526E+02  0.24658308826E+02 -0.49237329700E+02  0.87980035882E+02  0.00000000000E+00 0.  1.
        -13    1    5    5    0    0  0.40179978923E+03  0.17533153889E+03 -0.63691253215E+03  0.77320229744E+03  0.00000000000E+00 0. -1.
          2    1    6    6  503    0 -0.10439260872E+03  0.85740815160E+02 -0.81866555758E+03  0.82973646377E+03  0.00000000000E+00 0. -1.
         -2    1    6    6    0  503 -0.16782171858E+03  0.18114543006E+03 -0.91254573259E+03  0.94536633646E+03  0.00000000000E+00 0.  1.
<mgrwt>
<rscale>  0 0.17957309E+04</rscale>
<asrwt>0</asrwt>
<pdfrwt beam="1">  1        2 0.44980401E+00 0.17957309E+04</pdfrwt>
<pdfrwt beam="2">  1       -1 0.42420177E-01 0.17957309E+04</pdfrwt>
<totfact> 0.11454681E+01</totfact>
</mgrwt>
</event>
<event>
12    7  0.1701638E-007  0.2365524E+04  0.7818608E-02  0.8452525E-01
          2   -1    0    0  501    0  0.00000000000E+00  0.00000000000E+00  0.13758128282E+04  0.13758128282E+04  0.00000000000E+00 0. -1.
         -1   -1    0    0    0  501 -0.00000000000E+00 -0.00000000000E+00 -0.10167994254E+04  0.10167994254E+04  0.00000000000E+00 0.  1.
         24    2    1    2    0    0 -0.75641068156E+03 -0.50621592813E+03  0.60963321603E+03  0.10984771255E+04  0.81164351876E+02 0.  0.
        254    2    1    2    0    0  0.75641068156E+03  0.50621592813E+03 -0.25061981331E+03  0.12941351281E+04  0.88519136576E+03 0.  0.
         23    2    4    4    0    0  0.35854044299E+01 -0.20848560104E+03 -0.59151241473E+02  0.23473749059E+03  0.90131676765E+02 0.  0.
         23    2    4    4    0    0  0.75282527713E+03  0.71470152916E+03 -0.19146857183E+03  0.10593976376E+04  0.90105309371E+02 0.  0.
          2    1    3    3  502    0 -0.60742633981E+03 -0.36600671115E+03  0.47646388926E+03  0.85436848530E+03  0.00000000000E+00 0. -1.
         -1    1    3    3    0  502 -0.14898434175E+03 -0.14020921697E+03  0.13316932677E+03  0.24410864017E+03  0.00000000000E+00 0.  1.
         13    1    5    5    0    0 -0.18705702334E+02 -0.18603782834E+03 -0.25763479965E+02  0.18874250654E+03  0.00000000000E+00 0.  1.
        -13    1    5    5    0    0  0.22291106764E+02 -0.22447772698E+02 -0.33387761508E+02  0.45994984056E+02  0.00000000000E+00 0. -1.
          4    1    6    6  503    0  0.35967559299E+02  0.41662803461E+02 -0.30775435794E+02  0.63060145595E+02  0.00000000000E+00 0. -1.
         -4    1    6    6    0  503  0.71685771783E+03  0.67303872570E+03 -0.16069313604E+03  0.99633749196E+03  0.00000000000E+00 0.  1.
<mgrwt>
<rscale>  0 0.23655238E+04</rscale>
<asrwt>0</asrwt>
<pdfrwt beam="1">  1        2 0.21166351E+00 0.23655238E+04</pdfrwt>
<pdfrwt beam="2">  1       -1 0.15643068E+00 0.23655238E+04</pdfrwt>
<totfact> 0.47768146E+00</totfact>
</mgrwt>
</event>
<event>
12    7  0.1701638E-007  0.1782835E+04  0.7818608E-02  0.8715481E-01
         -1   -1    0    0    0  501 -0.00000000000E+00  0.00000000000E+00  0.30441578484E+03  0.30441578484E+03  0.00000000000E+00 0.  1.
          2   -1    0    0  501    0  0.00000000000E+00 -0.00000000000E+00 -0.26103277887E+04  0.26103277887E+04  0.00000000000E+00 0. -1.
         24    2    1    2    0    0 -0.48752870465E+02  0.42516890082E+02  0.22402036304E+03  0.24566910910E+03  0.77354119383E+02 0.  0.
        254    2    1    2    0    0  0.48752870465E+02 -0.42516890082E+02 -0.25299323669E+04  0.26690744644E+04  0.84806614560E+03 0.  0.
         23    2    4    4    0    0  0.27715186587E+03 -0.33014387374E+03 -0.17175043251E+04  0.17731420623E+04  0.91670781538E+02 0.  0.
         23    2    4    4    0    0 -0.22839899541E+03  0.28762698366E+03 -0.81242804176E+03  0.89593240211E+03  0.88091788981E+02 0.  0.
          4    1    3    3  502    0 -0.20585234415E+02 -0.19477993654E+02  0.10277567674E+03  0.10661136826E+03  0.00000000000E+00 0. -1.
         -3    1    3    3    0  502 -0.28167636051E+02  0.61994883735E+02  0.12124468630E+03  0.13905774083E+03  0.00000000000E+00 0.  1.
         13    1    5    5    0    0  0.22535814592E+03 -0.24659083451E+03 -0.11644697325E+04  0.12114384390E+04  0.00000000000E+00 0. -1.
        -13    1    5    5    0    0  0.51793719953E+02 -0.83553039230E+02 -0.55303459266E+03  0.56170362334E+03  0.00000000000E+00 0.  1.
          3    1    6    6  503    0 -0.20723643070E+03  0.22084430718E+03 -0.59740570420E+03  0.66978557885E+03  0.00000000000E+00 0. -1.
         -3    1    6    6    0  503 -0.21162564707E+02  0.66782676485E+02 -0.21502233756E+03  0.22614682327E+03  0.00000000000E+00 0.  1.
<mgrwt>
<rscale>  0 0.17828348E+04</rscale>
<asrwt>0</asrwt>
<pdfrwt beam="1">  1        2 0.40158887E+00 0.17828348E+04</pdfrwt>
<pdfrwt beam="2">  1       -1 0.46833200E-01 0.17828348E+04</pdfrwt>
<totfact> 0.14702592E+01</totfact>
</mgrwt>
</event>
<event>
12    7  0.1701638E-007  0.1930309E+04  0.7818608E-02  0.8639915E-01
          2   -1    0    0  501    0  0.00000000000E+00  0.00000000000E+00  0.25410807234E+04  0.25410807234E+04  0.00000000000E+00 0. -1.
         -1   -1    0    0    0  501 -0.00000000000E+00 -0.00000000000E+00 -0.36658558193E+03  0.36658558193E+03  0.00000000000E+00 0.  1.
         24    2    1    2    0    0  0.95155213017E+02 -0.53666058908E+03  0.55215085070E+02  0.55373117480E+03  0.80687086256E+02 0.  0.
        254    2    1    2    0    0 -0.95155213017E+02  0.53666058908E+03  0.21192800564E+04  0.23539351305E+04  0.86752725538E+03 0.  0.
         23    2    4    4    0    0  0.33589013993E+03  0.45380926445E+03  0.12911100647E+04  0.14115657145E+04  0.82386483038E+02 0.  0.
         23    2    4    4    0    0 -0.43104535294E+03  0.82851324635E+02  0.82816999168E+03  0.94236941600E+03  0.97622450390E+02 0.  0.
          2    1    3    3  502    0  0.20614910168E+02 -0.15025530469E+03 -0.20320516026E+02  0.15301815082E+03  0.00000000000E+00 0. -1.
         -1    1    3    3    0  502  0.74540302848E+02 -0.38640528439E+03  0.75535601096E+02  0.40071302398E+03  0.00000000000E+00 0.  1.
         13    1    5    5    0    0  0.12919692026E+03  0.23588413467E+03  0.65706142701E+03  0.70997386435E+03  0.00000000000E+00 0. -1.
        -13    1    5    5    0    0  0.20669321966E+03  0.21792512977E+03  0.63404863770E+03  0.70159185016E+03  0.00000000000E+00 0.  1.
          4    1    6    6  503    0 -0.13942830376E+03  0.18932195698E+01  0.18608305594E+03  0.23253115894E+03  0.00000000000E+00 0. -1.
         -4    1    6    6    0  503 -0.29161704918E+03  0.80958105066E+02  0.64208693573E+03  0.70983825706E+03  0.00000000000E+00 0.  1.
<mgrwt>
<rscale>  0 0.19303094E+04</rscale>
<asrwt>0</asrwt>
<pdfrwt beam="1">  1        2 0.39093548E+00 0.19303094E+04</pdfrwt>
<pdfrwt beam="2">  1       -1 0.56397784E-01 0.19303094E+04</pdfrwt>
<totfact> 0.11159187E+01</totfact>
</mgrwt>
</event>
<event>
12    7  0.1701638E-007  0.2360548E+04  0.7818608E-02  0.8454423E-01
         -1   -1    0    0    0  501 -0.00000000000E+00  0.00000000000E+00  0.10358034806E+04  0.10358034806E+04  0.00000000000E+00 0.  1.
          2   -1    0    0  501    0  0.00000000000E+00 -0.00000000000E+00 -0.13448951666E+04  0.13448951666E+04  0.00000000000E+00 0. -1.
         24    2    1    2    0    0  0.82803170338E+03  0.41167600244E+03  0.27515783386E+03  0.96800860212E+03  0.78836460150E+02 0.  0.
        254    2    1    2    0    0 -0.82803170338E+03 -0.41167600244E+03 -0.58424951987E+03  0.14126900450E+04  0.89399777910E+03 0.  0.
         23    2    4    4    0    0 -0.60319596761E+03 -0.89858405655E+02 -0.75478812053E+03  0.97476386839E+03  0.92409868559E+02 0.  0.
         23    2    4    4    0    0 -0.22483573577E+03 -0.32181759678E+03  0.17053860066E+03  0.43792617664E+03  0.92618832813E+02 0.  0.
          4    1    3    3  502    0  0.25068553183E+03  0.16490563919E+03  0.81031336052E+02  0.31081052609E+03  0.00000000000E+00 0. -1.
         -3    1    3    3    0  502  0.57734617155E+03  0.24677036325E+03  0.19412649781E+03  0.65719807603E+03  0.00000000000E+00 0.  1.
         13    1    5    5    0    0 -0.50141935302E+03 -0.56783818595E+02 -0.66678673860E+03  0.83621188967E+03  0.00000000000E+00 0.  1.
        -13    1    5    5    0    0 -0.10177661459E+03 -0.33074587060E+02 -0.88001381926E+02  0.13855197872E+03  0.00000000000E+00 0. -1.
          3    1    6    6  503    0 -0.19668909459E+02 -0.64349085234E+02  0.27763823004E+00  0.67288541764E+02  0.00000000000E+00 0. -1.
         -3    1    6    6    0  503 -0.20516682631E+03 -0.25746851155E+03  0.17026096243E+03  0.37063763487E+03  0.00000000000E+00 0.  1.
<mgrwt>
<rscale>  0 0.23605483E+04</rscale>
<asrwt>0</asrwt>
<pdfrwt beam="1">  1        2 0.20690695E+00 0.23605483E+04</pdfrwt>
<pdfrwt beam="2">  1       -1 0.15935438E+00 0.23605483E+04</pdfrwt>
<totfact> 0.47300054E+00</totfact>
</mgrwt>
</event>
<event>
12    7  0.1701638E-007  0.2074124E+04  0.7818608E-02  0.8572728E-01
         -1   -1    0    0    0  501 -0.00000000000E+00  0.00000000000E+00  0.89814496052E+03  0.89814496052E+03  0.00000000000E+00 0.  1.
          2   -1    0    0  501    0  0.00000000000E+00 -0.00000000000E+00 -0.11974658549E+04  0.11974658549E+04  0.00000000000E+00 0. -1.
         24    2    1    2    0    0  0.27674626080E+03  0.62691908400E+02 -0.91780442735E+03  0.96410378048E+03  0.81316446241E+02 0.  0.
        254    2    1    2    0    0 -0.27674626080E+03 -0.62691908400E+02  0.61848353299E+03  0.11315070349E+04  0.90402849581E+03 0.  0.
         23    2    4    4    0    0 -0.25596304489E+03 -0.23935440735E+03  0.78914984531E+03  0.86836879884E+03  0.92191538498E+02 0.  0.
         23    2    4    4    0    0 -0.20783215909E+02  0.17666249895E+03 -0.17066631233E+03  0.26313823607E+03  0.92049771971E+02 0.  0.
          4    1    3    3  502    0  0.26722833585E+03  0.46092412179E+02 -0.88966541453E+03  0.93007528929E+03  0.00000000000E+00 0. -1.
         -3    1    3    3    0  502  0.95179249552E+01  0.16599496221E+02 -0.28139012824E+02  0.34028491194E+02  0.00000000000E+00 0.  1.
         13    1    5    5    0    0 -0.24282440454E+03 -0.20308649832E+03  0.74659503512E+03  0.81093277385E+03  0.00000000000E+00 0. -1.
        -13    1    5    5    0    0 -0.13138640357E+02 -0.36267909033E+02  0.42554810193E+02  0.57436024989E+02  0.00000000000E+00 0.  1.
          3    1    6    6  503    0  0.24595893879E+02  0.96917649517E+02 -0.12667977509E+03  0.16138697036E+03  0.00000000000E+00 0. -1.
         -3    1    6    6    0  503 -0.45379109788E+02  0.79744849434E+02 -0.43986537235E+02  0.10175126571E+03  0.00000000000E+00 0.  1.
<mgrwt>
<rscale>  0 0.20741243E+04</rscale>
<asrwt>0</asrwt>
<pdfrwt beam="1">  1        2 0.18422552E+00 0.20741243E+04</pdfrwt>
<pdfrwt beam="2">  1       -1 0.13817615E+00 0.20741243E+04</pdfrwt>
<totfact> 0.86812811E+00</totfact>
</mgrwt>
</event>
<event>
12    7  0.1701638E-007  0.2039412E+04  0.7818608E-02  0.8588413E-01
          2   -1    0    0  501    0  0.00000000000E+00  0.00000000000E+00  0.67125141944E+03  0.67125141944E+03  0.00000000000E+00 0. -1.
         -1   -1    0    0    0  501 -0.00000000000E+00 -0.00000000000E+00 -0.15490472077E+04  0.15490472077E+04  0.00000000000E+00 0.  1.
         24    2    1    2    0    0 -0.46113124776E+03 -0.39315631642E+03  0.24490184631E+03  0.65864372508E+03  0.81367840406E+02 0.  0.
        254    2    1    2    0    0  0.46113124776E+03  0.39315631642E+03 -0.11226976346E+04  0.15616549021E+04  0.90061209059E+03 0.  0.
         23    2    4    4    0    0  0.34254662534E+03  0.35397315544E+02 -0.11206972704E+04  0.11760364458E+04  0.92239848567E+02 0.  0.
         23    2    4    4    0    0  0.11858462243E+03  0.35775900088E+03 -0.20003642487E+01  0.38561845627E+03  0.81509367408E+02 0.  0.
          4    1    3    3  502    0 -0.39149225341E+03 -0.30909046006E+03  0.17310174016E+03  0.52798419430E+03  0.00000000000E+00 0. -1.
         -3    1    3    3    0  502 -0.69638994346E+02 -0.84065856364E+02  0.71800106153E+02  0.13065953078E+03  0.00000000000E+00 0.  1.
         13    1    5    5    0    0  0.30420420257E+03  0.52832504927E+02 -0.10419228730E+04  0.10867082146E+04  0.00000000000E+00 0. -1.
        -13    1    5    5    0    0  0.38342422769E+02 -0.17435189384E+02 -0.78774397328E+02  0.89328231188E+02  0.00000000000E+00 0.  1.
          2    1    6    6  503    0  0.64865736445E+02  0.13070419205E+03  0.33229537389E+02  0.14965076592E+03  0.00000000000E+00 0. -1.
         -2    1    6    6    0  503  0.53718885981E+02  0.22705480882E+03 -0.35229901638E+02  0.23596769035E+03  0.00000000000E+00 0.  1.
<mgrwt>
<rscale>  0 0.20394118E+04</rscale>
<asrwt>0</asrwt>
<pdfrwt beam="1">  1        2 0.10326945E+00 0.20394118E+04</pdfrwt>
<pdfrwt beam="2">  1       -1 0.23831495E+00 0.20394118E+04</pdfrwt>
<totfact> 0.37980564E+00</totfact>
</mgrwt>
</event>
<event>
12    7  0.1701638E-007  0.1152882E+04  0.7818608E-02  0.9155129E-01
         -1   -1    0    0    0  501 -0.00000000000E+00  0.00000000000E+00  0.72936970993E+02  0.72936970993E+02  0.00000000000E+00 0.  1.
          2   -1    0    0  501    0  0.00000000000E+00 -0.00000000000E+00 -0.45557741243E+04  0.45557741243E+04  0.00000000000E+00 0. -1.
         24    2    1    2    0    0 -0.91562662234E+01  0.10417028738E+03 -0.14036202707E+03  0.19224971643E+03  0.79518355372E+02 0.  0.
        254    2    1    2    0    0  0.91562662234E+01 -0.10417028738E+03 -0.43424751262E+04  0.44364613788E+04  0.90231040012E+03 0.  0.
         23    2    4    4    0    0  0.34183182037E+03  0.65616650609E+02 -0.85230362560E+03  0.92518819929E+03  0.91636213565E+02 0.  0.
         23    2    4    4    0    0 -0.33267555415E+03 -0.16978693799E+03 -0.34901715006E+04  0.35112731795E+04  0.90783308445E+02 0.  0.
          2    1    3    3  502    0  0.22913218906E+02  0.38252309052E+01 -0.11849411112E+02  0.26077893623E+02  0.00000000000E+00 0. -1.
         -1    1    3    3    0  502 -0.32069485129E+02  0.10034505647E+03 -0.12851261596E+03  0.16617182281E+03  0.00000000000E+00 0.  1.
         13    1    5    5    0    0  0.12781201152E+03  0.42812371875E+02 -0.22845945402E+03  0.26525936667E+03  0.00000000000E+00 0.  1.
        -13    1    5    5    0    0  0.21401980886E+03  0.22804278734E+02 -0.62384417158E+03  0.65992883263E+03  0.00000000000E+00 0. -1.
          1    1    6    6  503    0 -0.18997971466E+03 -0.10498965494E+03 -0.16072294723E+04  0.16218204883E+04  0.00000000000E+00 0. -1.
         -1    1    6    6    0  503 -0.14269583949E+03 -0.64797283043E+02 -0.18829420283E+04  0.18894526912E+04  0.00000000000E+00 0.  1.
<mgrwt>
<rscale>  0 0.11528822E+04</rscale>
<asrwt>0</asrwt>
<pdfrwt beam="1">  1        2 0.70088859E+00 0.11528822E+04</pdfrwt>
<pdfrwt beam="2">  1       -1 0.11221068E-01 0.11528822E+04</pdfrwt>
<totfact> 0.68431861E+00</totfact>
</mgrwt>
</event>
<event>
12    7  0.1701638E-007  0.1212873E+04  0.7818608E-02  0.9101663E-01
         -1   -1    0    0    0  501 -0.00000000000E+00  0.00000000000E+00  0.36756939994E+03  0.36756939994E+03  0.00000000000E+00 0.  1.
          2   -1    0    0  501    0  0.00000000000E+00 -0.00000000000E+00 -0.10005319730E+04  0.10005319730E+04  0.00000000000E+00 0. -1.
         24    2    1    2    0    0  0.12833000090E+03 -0.21227260127E+03 -0.57478613930E+02  0.26677147605E+03  0.79592606385E+02 0.  0.
        254    2    1    2    0    0 -0.12833000090E+03  0.21227260127E+03 -0.57548395912E+03  0.11013298969E+04  0.90565860465E+03 0.  0.
         23    2    4    4    0    0 -0.49512835945E+03  0.17298508848E+03 -0.46143856630E+03  0.70456264001E+03  0.91689858000E+02 0.  0.
         23    2    4    4    0    0  0.36679835854E+03  0.39287512792E+02 -0.11404539281E+03  0.39676725687E+03  0.91287239023E+02 0.  0.
          4    1    3    3  502    0  0.52556666598E+02 -0.27475705755E+02 -0.14091808172E+01  0.59322031331E+02  0.00000000000E+00 0. -1.
         -3    1    3    3    0  502  0.75773334307E+02 -0.18479689551E+03 -0.56069433112E+02  0.20744944471E+03  0.00000000000E+00 0.  1.
         13    1    5    5    0    0 -0.44477733067E+03  0.12851722019E+03 -0.37969943506E+03  0.59876139717E+03  0.00000000000E+00 0. -1.
        -13    1    5    5    0    0 -0.50351028783E+02  0.44467868289E+02 -0.81739131239E+02  0.10580124283E+03  0.00000000000E+00 0.  1.
          2    1    6    6  503    0  0.18027073551E+03  0.57045635887E+02 -0.30144017453E+02  0.19146906916E+03  0.00000000000E+00 0. -1.
         -2    1    6    6    0  503  0.18652762303E+03 -0.17758123094E+02 -0.83901375361E+02  0.20529818771E+03  0.00000000000E+00 0.  1.
<mgrwt>
<rscale>  0 0.12128725E+04</rscale>
<asrwt>0</asrwt>
<pdfrwt beam="1">  1        2 0.15392800E+00 0.12128725E+04</pdfrwt>
<pdfrwt beam="2">  1       -1 0.56549138E-01 0.12128725E+04</pdfrwt>
<totfact> 0.89579897E+01</totfact>
</mgrwt>
</event>
<event>
12    7  0.1701638E-007  0.1701662E+04  0.7818608E-02  0.8760417E-01
         -1   -1    0    0    0  501 -0.00000000000E+00  0.00000000000E+00  0.21516560327E+04  0.21516560327E+04  0.00000000000E+00 0.  1.
          2   -1    0    0  501    0  0.00000000000E+00 -0.00000000000E+00 -0.33644494738E+03  0.33644494738E+03  0.00000000000E+00 0. -1.
         24    2    1    2    0    0  0.29272202646E+03 -0.13549841608E+03  0.13947030508E+04  0.14343921649E+04  0.90764957396E+02 0.  0.
        254    2    1    2    0    0 -0.29272202646E+03  0.13549841608E+03  0.42050803456E+03  0.10537088151E+04  0.91073006673E+03 0.  0.
         23    2    4    4    0    0 -0.26287352272E+03 -0.21019088778E+03 -0.14974197567E+03  0.38001118135E+03  0.93290623442E+02 0.  0.
         23    2    4    4    0    0 -0.29848503746E+02  0.34568930387E+03  0.57025001023E+03  0.67369763379E+03  0.91057122902E+02 0.  0.
          4    1    3    3  502    0  0.20294969361E+03 -0.74353964597E+02  0.10815811007E+04  0.11029663492E+04  0.00000000000E+00 0. -1.
         -3    1    3    3    0  502  0.89772332851E+02 -0.61144451486E+02  0.31312195007E+03  0.33142581570E+03  0.00000000000E+00 0.  1.
         13    1    5    5    0    0 -0.21508165035E+03 -0.17142013594E+03 -0.15913788678E+03  0.31775752758E+03  0.00000000000E+00 0.  1.
        -13    1    5    5    0    0 -0.47791872363E+02 -0.38770751846E+02  0.93959111097E+01  0.62253653774E+02  0.00000000000E+00 0. -1.
          4    1    6    6  503    0 -0.28121825225E+02  0.60000170294E+02  0.16551961943E+03  0.17829077909E+03  0.00000000000E+00 0. -1.
         -4    1    6    6    0  503 -0.17266785205E+01  0.28568913357E+03  0.40473039079E+03  0.49540685471E+03  0.00000000000E+00 0.  1.
<mgrwt>
<rscale>  0 0.17016625E+04</rscale>
<asrwt>0</asrwt>
<pdfrwt beam="1">  1        2 0.51760762E-01 0.17016625E+04</pdfrwt>
<pdfrwt beam="2">  1       -1 0.33102400E+00 0.17016625E+04</pdfrwt>
<totfact> 0.21850445E+00</totfact>
</mgrwt>
</event>
<event>
12    7  0.1701638E-007  0.1485521E+04  0.7818608E-02  0.8894138E-01
         -1   -1    0    0    0  501 -0.00000000000E+00  0.00000000000E+00  0.95413345013E+03  0.95413345013E+03  0.00000000000E+00 0.  1.
          2   -1    0    0  501    0  0.00000000000E+00 -0.00000000000E+00 -0.57821420108E+03  0.57821420108E+03  0.00000000000E+00 0. -1.
         24    2    1    2    0    0  0.42016176543E+03  0.20305782645E+03 -0.81489235354E+02  0.48037898525E+03  0.79718780584E+02 0.  0.
        254    2    1    2    0    0 -0.42016176543E+03 -0.20305782645E+03  0.45740848441E+03  0.10519686660E+04  0.82440715823E+03 0.  0.
         23    2    4    4    0    0  0.38204609814E+02  0.24048659863E+03 -0.21539039338E+01  0.26020906714E+03  0.91709993930E+02 0.  0.
         23    2    4    4    0    0 -0.45836637525E+03 -0.44354442508E+03  0.45956238834E+03  0.79175959883E+03  0.94097197484E+02 0.  0.
          2    1    3    3  502    0  0.42369489080E+03  0.20311940109E+03 -0.80534684930E+02  0.47671866658E+03  0.00000000000E+00 0. -1.
         -3    1    3    3    0  502 -0.35331253659E+01 -0.61574633962E-01 -0.95455042408E+00  0.36603186744E+01  0.00000000000E+00 0.  1.
         13    1    5    5    0    0  0.36607582690E+02  0.16302035069E+03  0.40281059580E+02  0.17186713941E+03  0.00000000000E+00 0. -1.
        -13    1    5    5    0    0  0.15970271239E+01  0.77466247943E+02 -0.42434963513E+02  0.88341927726E+02  0.00000000000E+00 0.  1.
          4    1    6    6  503    0 -0.40591784135E+03 -0.37003344081E+03  0.42717081670E+03  0.69582249740E+03  0.00000000000E+00 0. -1.
         -4    1    6    6    0  503 -0.52448533898E+02 -0.73510984277E+02  0.32391571640E+02  0.95937101430E+02  0.00000000000E+00 0.  1.
<mgrwt>
<rscale>  0 0.14855215E+04</rscale>
<asrwt>0</asrwt>
<pdfrwt beam="1">  1        2 0.88956031E-01 0.14855215E+04</pdfrwt>
<pdfrwt beam="2">  1       -1 0.14678976E+00 0.14855215E+04</pdfrwt>
<totfact> 0.21199659E+01</totfact>
</mgrwt>
</event>
<event>
12    7  0.1701638E-007  0.1634355E+04  0.7818608E-02  0.8799716E-01
         -1   -1    0    0    0  501 -0.00000000000E+00  0.00000000000E+00  0.51779615057E+03  0.51779615057E+03  0.00000000000E+00 0.  1.
          2   -1    0    0  501    0  0.00000000000E+00 -0.00000000000E+00 -0.12896563580E+04  0.12896563580E+04  0.00000000000E+00 0. -1.
         24    2    1    2    0    0  0.49737288627E+03  0.21517523295E+03 -0.43899388092E+03  0.70055268462E+03  0.66168478727E+02 0.  0.
        254    2    1    2    0    0 -0.49737288627E+03 -0.21517523295E+03 -0.33286632653E+03  0.11068998240E+04  0.90595091484E+03 0.  0.
         23    2    4    4    0    0  0.18950898026E+03  0.81157406900E+02  0.90162615317E+02  0.24261994044E+03  0.90746680385E+02 0.  0.
         23    2    4    4    0    0 -0.68688186653E+03 -0.29633263985E+03 -0.42302894185E+03  0.86427988354E+03  0.91686964357E+02 0.  0.
          2    1    3    3  502    0  0.26851997297E+03  0.10445288552E+03 -0.27309465535E+03  0.39698119849E+03  0.00000000000E+00 0. -1.
         -3    1    3    3    0  502  0.22885291330E+03  0.11072234743E+03 -0.16589922557E+03  0.30357148613E+03  0.00000000000E+00 0.  1.
         13    1    5    5    0    0  0.46240699115E+02  0.46111656423E+02  0.66569870562E+02  0.93252532295E+02  0.00000000000E+00 0.  1.
        -13    1    5    5    0    0  0.14326828115E+03  0.35045750477E+02  0.23592744755E+02  0.14936740814E+03  0.00000000000E+00 0. -1.
          1    1    6    6  503    0 -0.31431078525E+03 -0.86147050596E+02 -0.18184439960E+03  0.37320231741E+03  0.00000000000E+00 0. -1.
         -1    1    6    6    0  503 -0.37257108128E+03 -0.21018558925E+03 -0.24118454225E+03  0.49107756613E+03  0.00000000000E+00 0.  1.
<mgrwt>
<rscale>  0 0.16343550E+04</rscale>
<asrwt>0</asrwt>
<pdfrwt beam="1">  1        2 0.19840867E+00 0.16343550E+04</pdfrwt>
<pdfrwt beam="2">  1       -1 0.79660947E-01 0.16343550E+04</pdfrwt>
<totfact> 0.28772096E+01</totfact>
</mgrwt>
</event>
<event>
12    7  0.1701638E-007  0.2230223E+04  0.7818608E-02  0.8505953E-01
         -3   -1    0    0    0  501 -0.00000000000E+00  0.00000000000E+00  0.39744754331E+03  0.39744754331E+03  0.00000000000E+00 0.  1.
          2   -1    0    0  501    0  0.00000000000E+00 -0.00000000000E+00 -0.31286494260E+04  0.31286494260E+04  0.00000000000E+00 0. -1.
         24    2    1    2    0    0 -0.33012823764E+03 -0.86851994076E+03 -0.13066082296E+04  0.16053309221E+04  0.80936782994E+02 0.  0.
        254    2    1    2    0    0  0.33012823764E+03  0.86851994076E+03 -0.14245936531E+04  0.19207660473E+04  0.89250411265E+03 0.  0.
         23    2    4    4    0    0  0.33479939122E+03  0.47345640541E+01 -0.73094397755E+03  0.80917722648E+03  0.91518506725E+02 0.  0.
         23    2    4    4    0    0 -0.46711535847E+01  0.86378537671E+03 -0.69364967553E+03  0.11115888208E+04  0.91284376665E+02 0.  0.
          4    1    3    3  502    0 -0.33287620870E+03 -0.83504304712E+03 -0.12544008458E+04  0.15432514192E+04  0.00000000000E+00 0. -1.
         -3    1    3    3    0  502  0.27479710600E+01 -0.33476893641E+02 -0.52207383870E+02  0.62079502924E+02  0.00000000000E+00 0.  1.
         13    1    5    5    0    0  0.22015802303E+03  0.16351022105E+02 -0.37624239254E+03  0.43622843669E+03  0.00000000000E+00 0. -1.
        -13    1    5    5    0    0  0.11464136819E+03 -0.11616458051E+02 -0.35470158501E+03  0.37294878979E+03  0.00000000000E+00 0.  1.
          4    1    6    6  503    0  0.31326615914E+02  0.37804231771E+03 -0.34309656887E+03  0.51148079770E+03  0.00000000000E+00 0.  1.
         -4    1    6    6    0  503 -0.35997769499E+02  0.48574305899E+03 -0.35055310665E+03  0.60010802307E+03  0.00000000000E+00 0. -1.
<mgrwt>
<rscale>  0 0.22302233E+04</rscale>
<asrwt>0</asrwt>
<pdfrwt beam="1">  1        2 0.48133069E+00 0.22302233E+04</pdfrwt>
<pdfrwt beam="2">  1       -3 0.61145775E-01 0.22302233E+04</pdfrwt>
<totfact> 0.22131869E+00</totfact>
</mgrwt>
</event>
<event>
12    7  0.1701638E-007  0.2042347E+04  0.7818608E-02  0.8587074E-01
          2   -1    0    0  501    0  0.00000000000E+00  0.00000000000E+00  0.19785979504E+04  0.19785979504E+04  0.00000000000E+00 0. -1.
         -1   -1    0    0    0  501 -0.00000000000E+00 -0.00000000000E+00 -0.52703766398E+03  0.52703766398E+03  0.00000000000E+00 0.  1.
         24    2    1    2    0    0 -0.68003441766E+03  0.41956544800E+03  0.79534024085E+03  0.11301807241E+04  0.79122664512E+02 0.  0.
        254    2    1    2    0    0  0.68003441766E+03 -0.41956544800E+03  0.65622004557E+03  0.13754548903E+04  0.90706638824E+03 0.  0.
         23    2    4    4    0    0  0.28514095677E+03 -0.63723703097E+03  0.57373224142E+03  0.90809717683E+03  0.89974434420E+02 0.  0.
         23    2    4    4    0    0  0.39489346089E+03  0.21767158297E+03  0.82487804152E+02  0.46735771347E+03  0.91089137809E+02 0.  0.
          2    1    3    3  502    0 -0.48466543045E+03  0.30597195534E+03  0.51928232095E+03  0.77341679952E+03  0.00000000000E+00 0. -1.
         -1    1    3    3    0  502 -0.19536898721E+03  0.11359349266E+03  0.27605791990E+03  0.35676392457E+03  0.00000000000E+00 0.  1.
         13    1    5    5    0    0  0.44266326943E+02 -0.39426998641E+02  0.52759101546E+02  0.79356907191E+02  0.00000000000E+00 0.  1.
        -13    1    5    5    0    0  0.24087462983E+03 -0.59781003233E+03  0.52097313988E+03  0.82874026964E+03  0.00000000000E+00 0. -1.
          1    1    6    6  503    0  0.24211049667E+03  0.14904591369E+03  0.89869015178E+01  0.28445200189E+03  0.00000000000E+00 0. -1.
         -1    1    6    6    0  503  0.15278296422E+03  0.68625669279E+02  0.73500902635E+02  0.18290571158E+03  0.00000000000E+00 0.  1.
<mgrwt>
<rscale>  0 0.20423473E+04</rscale>
<asrwt>0</asrwt>
<pdfrwt beam="1">  1        2 0.30439968E+00 0.20423473E+04</pdfrwt>
<pdfrwt beam="2">  1       -1 0.81082718E-01 0.20423473E+04</pdfrwt>
<totfact> 0.10971137E+01</totfact>
</mgrwt>
</event>
<event>
12    7  0.1701638E-007  0.1513832E+04  0.7818608E-02  0.8875307E-01
          4   -1    0    0  501    0  0.00000000000E+00  0.00000000000E+00  0.16237875669E+03  0.16237875669E+03  0.00000000000E+00 0. -1.
         -3   -1    0    0    0  501 -0.00000000000E+00 -0.00000000000E+00 -0.35283046529E+04  0.35283046529E+04  0.00000000000E+00 0.  1.
         24    2    1    2    0    0  0.43471099022E+03  0.11254038185E+03 -0.15521864931E+04  0.16179052729E+04  0.81826524658E+02 0.  0.
        254    2    1    2    0    0 -0.43471099022E+03 -0.11254038185E+03 -0.18137394031E+04  0.20727781366E+04  0.89728456967E+03 0.  0.
         23    2    4    4    0    0 -0.26536719291E+03 -0.18923318754E+03 -0.10928814873E+03  0.35581909300E+03  0.91838886932E+02 0.  0.
         23    2    4    4    0    0 -0.16934379732E+03  0.76692805693E+02 -0.17044512543E+04  0.17169590436E+04  0.90747843073E+02 0.  0.
          2    1    3    3  502    0  0.32289561435E+03  0.71321676422E+02 -0.10091850758E+04  0.10619806385E+04  0.00000000000E+00 0. -1.
         -1    1    3    3    0  502  0.11181537587E+03  0.41218705426E+02 -0.54300141731E+03  0.55592463443E+03  0.00000000000E+00 0.  1.
         13    1    5    5    0    0 -0.67114761890E+02 -0.42364828281E+02 -0.70310926503E+02  0.10603205329E+03  0.00000000000E+00 0. -1.
        -13    1    5    5    0    0 -0.19825243102E+03 -0.14686835926E+03 -0.38977222229E+02  0.24978703971E+03  0.00000000000E+00 0.  1.
          3    1    6    6  503    0 -0.14348126371E+03  0.92784328495E+02 -0.15600958964E+04  0.15694250573E+04  0.00000000000E+00 0. -1.
         -3    1    6    6    0  503 -0.25862533604E+02 -0.16091522802E+02 -0.14435535798E+03  0.14753398635E+03  0.00000000000E+00 0.  1.
<mgrwt>
<rscale>  0 0.15138319E+04</rscale>
<asrwt>0</asrwt>
<pdfrwt beam="1">  1        4 0.24981348E-01 0.15138319E+04</pdfrwt>
<pdfrwt beam="2">  1       -3 0.54281608E+00 0.15138319E+04</pdfrwt>
<totfact> 0.62279617E-02</totfact>
</mgrwt>
</event>
<event>
12    7  0.1701638E-007  0.1490287E+04  0.7818608E-02  0.8890938E-01
         -1   -1    0    0    0  501 -0.00000000000E+00  0.00000000000E+00  0.62793759627E+03  0.62793759627E+03  0.00000000000E+00 0.  1.
          2   -1    0    0  501    0  0.00000000000E+00 -0.00000000000E+00 -0.88422579505E+03  0.88422579505E+03  0.00000000000E+00 0. -1.
         24    2    1    2    0    0 -0.41008020938E+03  0.20186559030E+03 -0.16161029601E+03  0.49123140785E+03  0.79214352269E+02 0.  0.
        254    2    1    2    0    0  0.41008020938E+03 -0.20186559030E+03 -0.94677902774E+02  0.10209319835E+04  0.90797726564E+03 0.  0.
         23    2    4    4    0    0  0.19431788260E+03 -0.14089667489E+03 -0.49231336968E+03  0.55534184469E+03  0.91764906164E+02 0.  0.
         23    2    4    4    0    0  0.21576232678E+03 -0.60968915404E+02  0.39763546691E+03  0.46559013878E+03  0.91594882397E+02 0.  0.
          2    1    3    3  502    0 -0.93556881845E+02  0.65497712807E+02 -0.97881359589E+01  0.11462394222E+03  0.00000000000E+00 0. -1.
         -1    1    3    3    0  502 -0.31652332754E+03  0.13636787749E+03 -0.15182216005E+03  0.37660746563E+03  0.00000000000E+00 0.  1.
         13    1    5    5    0    0  0.37624756885E+01  0.55184219369E+00  0.38084582400E+01  0.53819241243E+01  0.00000000000E+00 0. -1.
        -13    1    5    5    0    0  0.19055540691E+03 -0.14144851709E+03 -0.49612182792E+03  0.54995992057E+03  0.00000000000E+00 0.  1.
          2    1    6    6  503    0  0.61398181102E+02 -0.93830021714E+01  0.43452270163E+02  0.75801564329E+02  0.00000000000E+00 0. -1.
         -2    1    6    6    0  503  0.15436414568E+03 -0.51585913233E+02  0.35418319674E+03  0.38978857445E+03  0.00000000000E+00 0.  1.
<mgrwt>
<rscale>  0 0.14902867E+04</rscale>
<asrwt>0</asrwt>
<pdfrwt beam="1">  1        2 0.13603474E+00 0.14902867E+04</pdfrwt>
<pdfrwt beam="2">  1       -1 0.96605785E-01 0.14902867E+04</pdfrwt>
<totfact> 0.34209187E+01</totfact>
</mgrwt>
</event>
<event>
12    7  0.1701638E-007  0.2104998E+04  0.7818608E-02  0.8559045E-01
          2   -1    0    0  501    0  0.00000000000E+00  0.00000000000E+00  0.35269458709E+04  0.35269458709E+04  0.00000000000E+00 0. -1.
         -1   -1    0    0    0  501 -0.00000000000E+00 -0.00000000000E+00 -0.31408319280E+03  0.31408319280E+03  0.00000000000E+00 0.  1.
         24    2    1    2    0    0 -0.44457852897E+03 -0.74407810389E+03  0.13972193605E+04  0.16461083971E+04  0.78413139355E+02 0.  0.
        254    2    1    2    0    0  0.44457852897E+03  0.74407810389E+03  0.18156433176E+04  0.21949206666E+04  0.87739032532E+03 0.  0.
         23    2    4    4    0    0  0.29402084760E+02 -0.18659145990E+03  0.26219314023E+03  0.33451658318E+03  0.86459505812E+02 0.  0.
         23    2    4    4    0    0  0.41517644421E+03  0.93066956379E+03  0.15534501774E+04  0.18604040834E+04  0.96843086342E+02 0.  0.
          4    1    3    3  502    0 -0.52513456627E+02 -0.71098954781E+02  0.18838052305E+03  0.20808639062E+03  0.00000000000E+00 0. -1.
         -3    1    3    3    0  502 -0.39206507234E+03 -0.67297914911E+03  0.12088388375E+04  0.14380220065E+04  0.00000000000E+00 0.  1.
         13    1    5    5    0    0 -0.10836398703E+02 -0.15798246741E+03  0.20155545560E+03  0.25632106669E+03  0.00000000000E+00 0.  1.
        -13    1    5    5    0    0  0.40238483463E+02 -0.28608992487E+02  0.60637684631E+02  0.78195516495E+02  0.00000000000E+00 0. -1.
          2    1    6    6  503    0  0.55801089858E+02  0.22368898006E+03  0.35729821200E+03  0.42522057068E+03  0.00000000000E+00 0. -1.
         -2    1    6    6    0  503  0.35937535435E+03  0.70698058373E+03  0.11961519654E+04  0.14351835128E+04  0.00000000000E+00 0.  1.
<mgrwt>
<rscale>  0 0.21049983E+04</rscale>
<asrwt>0</asrwt>
<pdfrwt beam="1">  1        2 0.54260703E+00 0.21049983E+04</pdfrwt>
<pdfrwt beam="2">  1       -1 0.48320494E-01 0.21049983E+04</pdfrwt>
<totfact> 0.35109348E+00</totfact>
</mgrwt>
</event>
<event>
12    7  0.1701638E-007  0.3086746E+04  0.7818608E-02  0.8219385E-01
          2   -1    0    0  501    0  0.00000000000E+00  0.00000000000E+00  0.21765414452E+04  0.21765414452E+04  0.00000000000E+00 0. -1.
         -1   -1    0    0    0  501 -0.00000000000E+00 -0.00000000000E+00 -0.10943972291E+04  0.10943972291E+04  0.00000000000E+00 0.  1.
         24    2    1    2    0    0 -0.97687097427E+03 -0.26764974784E+03  0.15358031478E+04  0.18406575336E+04  0.58442785874E+02 0.  0.
        254    2    1    2    0    0  0.97687097427E+03  0.26764974784E+03 -0.45365893172E+03  0.14302811407E+04  0.90221085517E+03 0.  0.
         23    2    4    4    0    0  0.72293057184E+03  0.49801047393E+03 -0.57696432685E+03  0.10545278343E+04  0.92185003942E+02 0.  0.
         23    2    4    4    0    0  0.25394040243E+03 -0.23036072609E+03  0.12330539512E+03  0.37575330642E+03  0.91839722953E+02 0.  0.
          4    1    3    3  502    0 -0.90772963428E+03 -0.25311650591E+03  0.14006827443E+04  0.16881804419E+04  0.00000000000E+00 0. -1.
         -3    1    3    3    0  502 -0.69141339988E+02 -0.14533241928E+02  0.13512040358E+03  0.15247709166E+03  0.00000000000E+00 0.  1.
         13    1    5    5    0    0  0.87230556066E+02  0.28376767823E+02 -0.72176823585E+02  0.11672148357E+03  0.00000000000E+00 0.  1.
        -13    1    5    5    0    0  0.63570001577E+03  0.46963370610E+03 -0.50478750326E+03  0.93780635070E+03  0.00000000000E+00 0. -1.
          4    1    6    6  503    0  0.20056970859E+02 -0.61696081098E+02  0.37353663563E+02  0.74859766794E+02  0.00000000000E+00 0. -1.
         -4    1    6    6    0  503  0.23388343157E+03 -0.16866464499E+03  0.85951731559E+02  0.30089353963E+03  0.00000000000E+00 0.  1.
<mgrwt>
<rscale>  0 0.30867465E+04</rscale>
<asrwt>0</asrwt>
<pdfrwt beam="1">  1        2 0.33485253E+00 0.30867465E+04</pdfrwt>
<pdfrwt beam="2">  1       -1 0.16836880E+00 0.30867465E+04</pdfrwt>
<totfact> 0.13014247E+00</totfact>
</mgrwt>
</event>
<event>
12    7  0.1701638E-007  0.2598714E+04  0.7818608E-02  0.8368638E-01
         -1   -1    0    0    0  501 -0.00000000000E+00  0.00000000000E+00  0.18797042299E+04  0.18797042299E+04  0.00000000000E+00 0.  1.
          2   -1    0    0  501    0  0.00000000000E+00 -0.00000000000E+00 -0.89818816600E+03  0.89818816600E+03  0.00000000000E+00 0. -1.
         24    2    1    2    0    0  0.47945121696E+03  0.45261813466E+03  0.14258366279E+04  0.15729688132E+04  0.80524234785E+02 0.  0.
        254    2    1    2    0    0 -0.47945121696E+03 -0.45261813466E+03 -0.44432056402E+03  0.12049235827E+04  0.90536370115E+03 0.  0.
         23    2    4    4    0    0 -0.62139986640E+03 -0.66091637553E+02 -0.59881144933E+02  0.63465183900E+03  0.93227178021E+02 0.  0.
         23    2    4    4    0    0  0.14194864944E+03 -0.38652649711E+03 -0.38443941909E+03  0.57027174374E+03  0.88679437928E+02 0.  0.
          2    1    3    3  502    0  0.32217365085E+02  0.58374386521E+02  0.17633104168E+03  0.18851568602E+03  0.00000000000E+00 0. -1.
         -1    1    3    3    0  502  0.44723385187E+03  0.39424374814E+03  0.12495055863E+04  0.13844531272E+04  0.00000000000E+00 0.  1.
         13    1    5    5    0    0 -0.41399855129E+03 -0.24144315162E+02 -0.79106235274E+02  0.42217951736E+03  0.00000000000E+00 0.  1.
        -13    1    5    5    0    0 -0.20740131511E+03 -0.41947322391E+02  0.19225090341E+02  0.21247232164E+03  0.00000000000E+00 0. -1.
          1    1    6    6  503    0  0.92176366111E+01 -0.14737198448E+03 -0.13800754735E+03  0.20211271548E+03  0.00000000000E+00 0. -1.
         -1    1    6    6    0  503  0.13273101283E+03 -0.23915451263E+03 -0.24643187174E+03  0.36815902826E+03  0.00000000000E+00 0.  1.
<mgrwt>
<rscale>  0 0.25987136E+04</rscale>
<asrwt>0</asrwt>
<pdfrwt beam="1">  1        2 0.13818280E+00 0.25987136E+04</pdfrwt>
<pdfrwt beam="2">  1       -1 0.28918526E+00 0.25987136E+04</pdfrwt>
<totfact> 0.11510997E+00</totfact>
</mgrwt>
</event>
<event>
12    7  0.1701638E-007  0.1855802E+04  0.7818608E-02  0.8677175E-01
          2   -1    0    0  501    0  0.00000000000E+00  0.00000000000E+00  0.90341393365E+03  0.90341393365E+03  0.00000000000E+00 0. -1.
         -1   -1    0    0    0  501 -0.00000000000E+00 -0.00000000000E+00 -0.95305168022E+03  0.95305168022E+03  0.00000000000E+00 0.  1.
         24    2    1    2    0    0  0.12480823654E+03 -0.64355574952E+03  0.24461767077E+03  0.70418188448E+03  0.79329836270E+02 0.  0.
        254    2    1    2    0    0 -0.12480823654E+03  0.64355574952E+03 -0.29425541735E+03  0.11522837294E+04  0.90079434042E+03 0.  0.
         23    2    4    4    0    0  0.18329899065E+03  0.74186709384E+03 -0.13944620023E+03  0.78218963933E+03  0.91706511352E+02 0.  0.
         23    2    4    4    0    0 -0.30810722719E+03 -0.98311344322E+02 -0.15480921711E+03  0.37009409005E+03  0.91698189301E+02 0.  0.
          4    1    3    3  502    0  0.70299833218E+02 -0.48301902033E+03  0.15330414120E+03  0.51161665362E+03  0.00000000000E+00 0. -1.
         -3    1    3    3    0  502  0.54508403325E+02 -0.16053672919E+03  0.91313529579E+02  0.19256523086E+03  0.00000000000E+00 0.  1.
         13    1    5    5    0    0  0.17181041207E+03  0.52378195836E+03 -0.10303948523E+03  0.56078827834E+03  0.00000000000E+00 0.  1.
        -13    1    5    5    0    0  0.11488578576E+02  0.21808513548E+03 -0.36406715005E+02  0.22140136100E+03  0.00000000000E+00 0. -1.
          1    1    6    6  503    0 -0.13057608318E+03 -0.52175225029E+02 -0.11673745926E+03  0.18275667430E+03  0.00000000000E+00 0. -1.
         -1    1    6    6    0  503 -0.17753114401E+03 -0.46136119292E+02 -0.38071757851E+02  0.18733741575E+03  0.00000000000E+00 0.  1.
<mgrwt>
<rscale>  0 0.18558019E+04</rscale>
<asrwt>0</asrwt>
<pdfrwt beam="1">  1        2 0.13898676E+00 0.18558019E+04</pdfrwt>
<pdfrwt beam="2">  1       -1 0.14662334E+00 0.18558019E+04</pdfrwt>
<totfact> 0.11602918E+01</totfact>
</mgrwt>
</event>
<event>
12    7  0.1701638E-007  0.2140728E+04  0.7818608E-02  0.8543511E-01
         -1   -1    0    0    0  501 -0.00000000000E+00  0.00000000000E+00  0.92991313185E+03  0.92991313185E+03  0.00000000000E+00 0.  1.
          2   -1    0    0  501    0  0.00000000000E+00 -0.00000000000E+00 -0.12320282938E+04  0.12320282938E+04  0.00000000000E+00 0. -1.
         24    2    1    2    0    0 -0.56411859950E+03 -0.56269264031E+03 -0.50946322812E+03  0.94908681918E+03  0.79750910790E+02 0.  0.
        254    2    1    2    0    0  0.56411859950E+03  0.56269264031E+03  0.20734806622E+03  0.12128546064E+04  0.89060107456E+03 0.  0.
         23    2    4    4    0    0  0.66069632232E+03  0.26902706793E+03 -0.14600946893E+03  0.73417362467E+03  0.93792070764E+02 0.  0.
         23    2    4    4    0    0 -0.96577722821E+02  0.29366557238E+03  0.35335753515E+03  0.47868098175E+03  0.93312430572E+02 0.  0.
          4    1    3    3  502    0 -0.35189335189E+03 -0.38407151676E+03 -0.36740272554E+03  0.63743597626E+03  0.00000000000E+00 0. -1.
         -3    1    3    3    0  502 -0.21222524761E+03 -0.17862112355E+03 -0.14206050258E+03  0.31165084292E+03  0.00000000000E+00 0.  1.
         13    1    5    5    0    0  0.59515586393E+03  0.27039300724E+03 -0.13827990713E+03  0.66816481009E+03  0.00000000000E+00 0. -1.
        -13    1    5    5    0    0  0.65540458394E+02 -0.13659393062E+01 -0.77295618075E+01  0.66008814581E+02  0.00000000000E+00 0.  1.
          2    1    6    6  503    0 -0.94246119567E+02  0.16689276699E+03  0.25049562346E+03  0.31541018389E+03  0.00000000000E+00 0. -1.
         -2    1    6    6    0  503 -0.23316032542E+01  0.12677280538E+03  0.10286191169E+03  0.16327079787E+03  0.00000000000E+00 0.  1.
<mgrwt>
<rscale>  0 0.21407282E+04</rscale>
<asrwt>0</asrwt>
<pdfrwt beam="1">  1        2 0.18954281E+00 0.21407282E+04</pdfrwt>
<pdfrwt beam="2">  1       -1 0.14306356E+00 0.21407282E+04</pdfrwt>
<totfact> 0.75152748E+00</totfact>
</mgrwt>
</event>
<event>
12    7  0.1701638E-007  0.1714013E+04  0.7818608E-02  0.8753412E-01
         -1   -1    0    0    0  501 -0.00000000000E+00  0.00000000000E+00  0.12721130478E+04  0.12721130478E+04  0.00000000000E+00 0.  1.
          2   -1    0    0  501    0  0.00000000000E+00 -0.00000000000E+00 -0.57735439865E+03  0.57735439865E+03  0.00000000000E+00 0. -1.
         24    2    1    2    0    0  0.47022326378E+03  0.39968518545E+03  0.20468343008E+03  0.65476688131E+03  0.77241161534E+02 0.  0.
        254    2    1    2    0    0 -0.47022326378E+03 -0.39968518545E+03  0.49007521905E+03  0.11947005651E+04  0.89792959340E+03 0.  0.
         23    2    4    4    0    0 -0.64060645973E+03 -0.45767493293E+02  0.44926461872E+03  0.78910522673E+03  0.91526288729E+02 0.  0.
         23    2    4    4    0    0  0.17038319595E+03 -0.35391769216E+03  0.40810600327E+02  0.40559533839E+03  0.92487335030E+02 0.  0.
          4    1    3    3  502    0  0.45355093944E+03  0.40076432418E+03  0.19934162084E+03  0.63722647465E+03  0.00000000000E+00 0. -1.
         -1    1    3    3    0  502  0.16672324348E+02 -0.10791387336E+01  0.53418092393E+01  0.17540406652E+02  0.00000000000E+00 0.  1.
         13    1    5    5    0    0 -0.86616437542E+01  0.35174764510E+01  0.24118842682E+02  0.25867262813E+02  0.00000000000E+00 0. -1.
        -13    1    5    5    0    0 -0.63194481598E+03 -0.49284969744E+02  0.42514577604E+03  0.76323796392E+03  0.00000000000E+00 0.  1.
          3    1    6    6  503    0  0.39049627998E+02 -0.79851121072E+02 -0.29505881686E+02  0.93657204941E+02  0.00000000000E+00 0. -1.
         -3    1    6    6    0  503  0.13133356795E+03 -0.27406657109E+03  0.70316482013E+02  0.31193813345E+03  0.00000000000E+00 0.  1.
<mgrwt>
<rscale>  0 0.17140129E+04</rscale>
<asrwt>0</asrwt>
<pdfrwt beam="1">  1        2 0.88823754E-01 0.17140129E+04</pdfrwt>
<pdfrwt beam="2">  1       -1 0.19570970E+00 0.17140129E+04</pdfrwt>
<totfact> 0.90915037E+00</totfact>
</mgrwt>
</event>
<event>
12    7  0.1701638E-007  0.1705438E+04  0.7818608E-02  0.8758269E-01
         -1   -1    0    0    0  501 -0.00000000000E+00  0.00000000000E+00  0.36350602032E+03  0.36350602032E+03  0.00000000000E+00 0.  1.
          2   -1    0    0  501    0  0.00000000000E+00 -0.00000000000E+00 -0.20003242984E+04  0.20003242984E+04  0.00000000000E+00 0. -1.
         24    2    1    2    0    0 -0.41682158331E+03  0.41185586885E+03 -0.83354015001E+03  0.10212335661E+04  0.69016851132E+02 0.  0.
        254    2    1    2    0    0  0.41682158331E+03 -0.41185586885E+03 -0.80327812811E+03  0.13425967527E+04  0.90218889390E+03 0.  0.
         23    2    4    4    0    0  0.55379082189E+03 -0.44009483594E+03 -0.23847028565E+03  0.75338615219E+03  0.10175892167E+03 0.  0.
         23    2    4    4    0    0 -0.13696923858E+03  0.28238967099E+02 -0.56480784246E+03  0.58921060052E+03  0.92753551344E+02 0.  0.
          2    1    3    3  502    0 -0.40857845196E+03  0.40067291925E+03 -0.82747044198E+03  0.10060727966E+04  0.00000000000E+00 0. -1.
         -1    1    3    3    0  502 -0.82431313461E+01  0.11182949597E+02 -0.60697080321E+01  0.15160769495E+02  0.00000000000E+00 0.  1.
         13    1    5    5    0    0  0.19809494194E+03 -0.18388825190E+03 -0.44097276278E+02  0.27386322313E+03  0.00000000000E+00 0. -1.
        -13    1    5    5    0    0  0.35569587995E+03 -0.25620658405E+03 -0.19437300937E+03  0.47952292906E+03  0.00000000000E+00 0.  1.
          1    1    6    6  503    0 -0.77718688476E+02  0.37704253250E+02 -0.46339013652E+03  0.47137270166E+03  0.00000000000E+00 0. -1.
         -1    1    6    6    0  503 -0.59250550103E+02 -0.94652861518E+01 -0.10141770594E+03  0.11783789886E+03  0.00000000000E+00 0.  1.
<mgrwt>
<rscale>  0 0.17054383E+04</rscale>
<asrwt>0</asrwt>
<pdfrwt beam="1">  1        2 0.30774220E+00 0.17054383E+04</pdfrwt>
<pdfrwt beam="2">  1       -1 0.55924003E-01 0.17054383E+04</pdfrwt>
<totfact> 0.23402953E+01</totfact>
</mgrwt>
</event>
<event>
12    7  0.1701638E-007  0.1968474E+04  0.7818608E-02  0.8621504E-01
         -1   -1    0    0    0  501 -0.00000000000E+00  0.00000000000E+00  0.29009392666E+03  0.29009392666E+03  0.00000000000E+00 0.  1.
          2   -1    0    0  501    0  0.00000000000E+00 -0.00000000000E+00 -0.33393405806E+04  0.33393405806E+04  0.00000000000E+00 0. -1.
         24    2    1    2    0    0 -0.69267105959E+02  0.12868934391E+03  0.19354953851E+03  0.25601376895E+03  0.81992358368E+02 0.  0.
        254    2    1    2    0    0  0.69267105959E+02 -0.12868934391E+03 -0.32427961925E+04  0.33734207383E+04  0.91808575455E+03 0.  0.
         23    2    4    4    0    0 -0.16632404099E+03  0.15315449078E+03 -0.22672998798E+03  0.33376826629E+03  0.94206069226E+02 0.  0.
         23    2    4    4    0    0  0.23559114694E+03 -0.28184383469E+03 -0.30160662045E+04  0.30396524720E+04  0.88840673242E+02 0.  0.
          4    1    3    3  502    0 -0.80070004815E+01 -0.26950947157E+01 -0.52698317138E+01  0.99572445249E+01  0.00000000000E+00 0. -1.
         -3    1    3    3    0  502 -0.61260105477E+02  0.13138443863E+03  0.19881937022E+03  0.24605652442E+03  0.00000000000E+00 0.  1.
         13    1    5    5    0    0 -0.15544919790E+03  0.88606382953E+02 -0.17568496604E+03  0.25076034679E+03  0.00000000000E+00 0.  1.
        -13    1    5    5    0    0 -0.10874843089E+02  0.64548107829E+02 -0.51045021937E+02  0.83007919508E+02  0.00000000000E+00 0. -1.
          1    1    6    6  503    0  0.38552308401E+02 -0.10679044949E+03 -0.81845702666E+03  0.82629436951E+03  0.00000000000E+00 0. -1.
         -1    1    6    6    0  503  0.19703883854E+03 -0.17505338520E+03 -0.21976091778E+04  0.22133581025E+04  0.00000000000E+00 0.  1.
<mgrwt>
<rscale>  0 0.19684739E+04</rscale>
<asrwt>0</asrwt>
<pdfrwt beam="1">  1        2 0.51374469E+00 0.19684739E+04</pdfrwt>
<pdfrwt beam="2">  1       -1 0.44629836E-01 0.19684739E+04</pdfrwt>
<totfact> 0.55533473E+00</totfact>
</mgrwt>
</event>
<event>
12    7  0.1701638E-007  0.1506374E+04  0.7818608E-02  0.8880226E-01
          2   -1    0    0  501    0  0.00000000000E+00  0.00000000000E+00  0.16791601115E+04  0.16791601115E+04  0.00000000000E+00 0. -1.
         -1   -1    0    0    0  501 -0.00000000000E+00 -0.00000000000E+00 -0.33784173334E+03  0.33784173334E+03  0.00000000000E+00 0.  1.
         24    2    1    2    0    0 -0.29123883786E+03  0.30799384550E+03  0.13367931507E+03  0.45183731268E+03  0.81280553105E+02 0.  0.
        254    2    1    2    0    0  0.29123883786E+03 -0.30799384550E+03  0.12076390631E+04  0.15651645322E+04  0.90092598838E+03 0.  0.
         23    2    4    4    0    0  0.30909331699E+03 -0.26576735453E+02  0.12271559622E+04  0.12687244746E+04  0.86631608544E+02 0.  0.
         23    2    4    4    0    0 -0.17854479129E+02 -0.28141711004E+03 -0.19516899053E+02  0.29644005755E+03  0.89338827635E+02 0.  0.
          4    1    3    3  502    0 -0.61972241267E+02  0.24859707872E+02  0.12798223584E+02  0.67987927532E+02  0.00000000000E+00 0. -1.
         -3    1    3    3    0  502 -0.22926659659E+03  0.28313413762E+03  0.12088109149E+03  0.38384938515E+03  0.00000000000E+00 0.  1.
         13    1    5    5    0    0 -0.34022223034E+01 -0.83778065299E+01  0.37682371270E+02  0.38752082052E+02  0.00000000000E+00 0.  1.
        -13    1    5    5    0    0  0.31249553929E+03 -0.18198928923E+02  0.11894735909E+04  0.12299723926E+04  0.00000000000E+00 0. -1.
          4    1    6    6  503    0 -0.17263602603E+02 -0.28833367083E+03 -0.18794803288E+02  0.28946084768E+03  0.00000000000E+00 0. -1.
         -4    1    6    6    0  503 -0.59087652569E+00  0.69165607856E+01 -0.72209576451E+00  0.69792098738E+01  0.00000000000E+00 0.  1.
<mgrwt>
<rscale>  0 0.15063736E+04</rscale>
<asrwt>0</asrwt>
<pdfrwt beam="1">  1        2 0.25833232E+00 0.15063736E+04</pdfrwt>
<pdfrwt beam="2">  1       -1 0.51975652E-01 0.15063736E+04</pdfrwt>
<totfact> 0.41299856E+01</totfact>
</mgrwt>
</event>
<event>
12    7  0.1701638E-007  0.2022695E+04  0.7818608E-02  0.8596083E-01
         -1   -1    0    0    0  501 -0.00000000000E+00  0.00000000000E+00  0.52640754752E+03  0.52640754752E+03  0.00000000000E+00 0.  1.
          2   -1    0    0  501    0  0.00000000000E+00 -0.00000000000E+00 -0.19430258378E+04  0.19430258378E+04  0.00000000000E+00 0. -1.
         24    2    1    2    0    0 -0.59985058175E+03 -0.22945177833E+03 -0.88521803478E+02  0.65364932656E+03  0.83381613190E+02 0.  0.
        254    2    1    2    0    0  0.59985058175E+03  0.22945177833E+03 -0.13280964868E+04  0.18157840587E+04  0.10586607723E+04 0.  0.
         23    2    4    4    0    0  0.54205646305E+03  0.48243179476E+03 -0.37142036157E+03  0.82015297913E+03  0.90178591986E+02 0.  0.
         23    2    4    4    0    0  0.57794118705E+02 -0.25298001644E+03 -0.95667612520E+03  0.99563107959E+03  0.93343394222E+02 0.  0.
          4    1    3    3  502    0 -0.38906934072E+03 -0.10928947246E+03 -0.71712906018E+02  0.41044108172E+03  0.00000000000E+00 0. -1.
         -3    1    3    3    0  502 -0.21078124104E+03 -0.12016230587E+03 -0.16808897459E+02  0.24320824484E+03  0.00000000000E+00 0.  1.
         13    1    5    5    0    0  0.31131667278E+03  0.21675785473E+03 -0.19220318790E+03  0.42525769103E+03  0.00000000000E+00 0. -1.
        -13    1    5    5    0    0  0.23073979027E+03  0.26567394004E+03 -0.17921717367E+03  0.39489528810E+03  0.00000000000E+00 0.  1.
          1    1    6    6  503    0 -0.61644343419E+01 -0.13380586033E+03 -0.58418663566E+03  0.59934633877E+03  0.00000000000E+00 0. -1.
         -1    1    6    6    0  503  0.63958553047E+02 -0.11917415611E+03 -0.37248948954E+03  0.39628474082E+03  0.00000000000E+00 0.  1.
<mgrwt>
<rscale>  0 0.20226947E+04</rscale>
<asrwt>0</asrwt>
<pdfrwt beam="1">  1        2 0.29892705E+00 0.20226947E+04</pdfrwt>
<pdfrwt beam="2">  1       -1 0.80985777E-01 0.20226947E+04</pdfrwt>
<totfact> 0.11530725E+01</totfact>
</mgrwt>
</event>
<event>
12    7  0.1701638E-007  0.1936334E+04  0.7818608E-02  0.8636979E-01
          4   -1    0    0  501    0  0.00000000000E+00  0.00000000000E+00  0.69491181399E+03  0.69491181399E+03  0.00000000000E+00 0. -1.
         -3   -1    0    0    0  501 -0.00000000000E+00 -0.00000000000E+00 -0.13488725389E+04  0.13488725389E+04  0.00000000000E+00 0.  1.
         24    2    1    2    0    0  0.64286341709E+02 -0.67822310899E+03  0.90659685457E+02  0.69178582498E+03  0.78924836273E+02 0.  0.
        254    2    1    2    0    0 -0.64286341709E+02  0.67822310899E+03 -0.74462041039E+03  0.13519985279E+04  0.89962277909E+03 0.  0.
         23    2    4    4    0    0  0.36106570824E+03  0.54718875615E+03 -0.53677367937E+03  0.85208805235E+03  0.90244587516E+02 0.  0.
         23    2    4    4    0    0 -0.42535204995E+03  0.13103435284E+03 -0.20784673102E+03  0.49991047558E+03  0.92821613740E+02 0.  0.
          4    1    3    3  502    0  0.57836317466E+02 -0.65882301288E+03  0.10075050539E+03  0.66898689543E+03  0.00000000000E+00 0. -1.
         -3    1    3    3    0  502  0.64500242424E+01 -0.19400096107E+02 -0.10090819935E+02  0.22798929551E+02  0.00000000000E+00 0.  1.
         13    1    5    5    0    0  0.15670870012E+03  0.16750944554E+03 -0.16231899271E+03  0.28100620355E+03  0.00000000000E+00 0. -1.
        -13    1    5    5    0    0  0.20435700812E+03  0.37967931061E+03 -0.37445468666E+03  0.57108184881E+03  0.00000000000E+00 0.  1.
          1    1    6    6  503    0 -0.11956452866E+03  0.66000012435E+02 -0.99759404317E+02  0.16912603852E+03  0.00000000000E+00 0. -1.
         -1    1    6    6    0  503 -0.30578752129E+03  0.65034340406E+02 -0.10808732671E+03  0.33078443706E+03  0.00000000000E+00 0.  1.
<mgrwt>
<rscale>  0 0.19363341E+04</rscale>
<asrwt>0</asrwt>
<pdfrwt beam="1">  1        4 0.10690951E+00 0.19363341E+04</pdfrwt>
<pdfrwt beam="2">  1       -3 0.20751885E+00 0.19363341E+04</pdfrwt>
<totfact> 0.19726168E-01</totfact>
</mgrwt>
</event>
<event>
12    7  0.1701638E-007  0.2331092E+04  0.7818608E-02  0.8465762E-01
         -1   -1    0    0    0  501 -0.00000000000E+00  0.00000000000E+00  0.16307999636E+04  0.16307999636E+04  0.00000000000E+00 0.  1.
          2   -1    0    0  501    0  0.00000000000E+00 -0.00000000000E+00 -0.83302496611E+03  0.83302496611E+03  0.00000000000E+00 0. -1.
         24    2    1    2    0    0 -0.40811353311E+03 -0.43662496978E+03 -0.49760547614E+03  0.78209203808E+03  0.82817425690E+02 0.  0.
        254    2    1    2    0    0  0.40811353311E+03  0.43662496978E+03  0.12953804736E+04  0.16817328916E+04  0.89051497864E+03 0.  0.
         23    2    4    4    0    0  0.51689321300E+03 -0.66305327146E+02  0.48634209458E+03  0.71860584206E+03  0.91053463601E+02 0.  0.
         23    2    4    4    0    0 -0.10877967989E+03  0.50293029693E+03  0.80903837904E+03  0.96312704956E+03  0.91097269492E+02 0.  0.
          2    1    3    3  502    0 -0.19759947659E+03 -0.21689938582E+03 -0.29780190234E+03  0.41806323655E+03  0.00000000000E+00 0. -1.
         -1    1    3    3    0  502 -0.21051405652E+03 -0.21972558396E+03 -0.19980357381E+03  0.36402880153E+03  0.00000000000E+00 0.  1.
         13    1    5    5    0    0  0.31702747562E+03 -0.82910455119E+02  0.28260018346E+03  0.43271633614E+03  0.00000000000E+00 0.  1.
        -13    1    5    5    0    0  0.19986573737E+03  0.16605127972E+02  0.20374191112E+03  0.28588950592E+03  0.00000000000E+00 0. -1.
          1    1    6    6  503    0 -0.12283303487E+03  0.46805743072E+03  0.73338943226E+03  0.87864997141E+03  0.00000000000E+00 0. -1.
         -1    1    6    6    0  503  0.14053354981E+02  0.34872866204E+02  0.75648946775E+02  0.84477078144E+02  0.00000000000E+00 0.  1.
<mgrwt>
<rscale>  0 0.23310917E+04</rscale>
<asrwt>0</asrwt>
<pdfrwt beam="1">  1        2 0.12815769E+00 0.23310917E+04</pdfrwt>
<pdfrwt beam="2">  1       -1 0.25089230E+00 0.23310917E+04</pdfrwt>
<totfact> 0.23148019E+00</totfact>
</mgrwt>
</event>
<event>
12    7  0.1701638E-007  0.1286193E+04  0.7818608E-02  0.9040586E-01
         -1   -1    0    0    0  501 -0.00000000000E+00  0.00000000000E+00  0.37752080728E+03  0.37752080728E+03  0.00000000000E+00 0.  1.
          2   -1    0    0  501    0  0.00000000000E+00 -0.00000000000E+00 -0.10954976582E+04  0.10954976582E+04  0.00000000000E+00 0. -1.
         24    2    1    2    0    0 -0.26109527985E+03 -0.20550601062E+03 -0.35229566563E+02  0.34338842389E+03  0.79189783038E+02 0.  0.
        254    2    1    2    0    0  0.26109527985E+03  0.20550601062E+03 -0.68274728435E+03  0.11296300416E+04  0.83637115625E+03 0.  0.
         23    2    4    4    0    0 -0.21764734856E+03  0.41720097719E+02  0.38864222372E+02  0.24364873807E+03  0.93505854857E+02 0.  0.
         23    2    4    4    0    0  0.47874262842E+03  0.16378591291E+03 -0.72161150672E+03  0.88598130352E+03  0.90660763398E+02 0.  0.
          2    1    3    3  502    0 -0.72213090373E+02 -0.33002513221E+02 -0.36968876364E+02  0.87581928043E+02  0.00000000000E+00 0. -1.
         -1    1    3    3    0  502 -0.18888218948E+03 -0.17250349740E+03  0.17393098010E+01  0.25580649585E+03  0.00000000000E+00 0.  1.
         13    1    5    5    0    0 -0.15134334109E+03  0.69855583487E+02  0.13288050546E+02  0.16721597329E+03  0.00000000000E+00 0. -1.
        -13    1    5    5    0    0 -0.66304007470E+02 -0.28135485769E+02  0.25576171826E+02  0.76432764776E+02  0.00000000000E+00 0.  1.
          2    1    6    6  503    0  0.47977658889E+03  0.15359755061E+03 -0.70567247112E+03  0.86703599654E+03  0.00000000000E+00 0. -1.
         -2    1    6    6    0  503 -0.10339604736E+01  0.10188362296E+02 -0.15939035605E+02  0.18945306980E+02  0.00000000000E+00 0.  1.
<mgrwt>
<rscale>  0 0.12861931E+04</rscale>
<asrwt>0</asrwt>
<pdfrwt beam="1">  1        2 0.16853810E+00 0.12861931E+04</pdfrwt>
<pdfrwt beam="2">  1       -1 0.58080125E-01 0.12861931E+04</pdfrwt>
<totfact> 0.73678772E+01</totfact>
</mgrwt>
</event>
<event>
12    7  0.1701638E-007  0.2747413E+04  0.7818608E-02  0.8319783E-01
         -1   -1    0    0    0  501 -0.00000000000E+00  0.00000000000E+00  0.55877714693E+03  0.55877714693E+03  0.00000000000E+00 0.  1.
          2   -1    0    0  501    0  0.00000000000E+00 -0.00000000000E+00 -0.33771425255E+04  0.33771425255E+04  0.00000000000E+00 0. -1.
         24    2    1    2    0    0  0.39164412966E+03 -0.11395807905E+04 -0.10780819142E+04  0.16187689120E+04  0.78247519158E+02 0.  0.
        254    2    1    2    0    0 -0.39164412966E+03  0.11395807905E+04 -0.17402834643E+04  0.23171507604E+04  0.94264076296E+03 0.  0.
         23    2    4    4    0    0 -0.25685271899E+03  0.40555653860E+03 -0.81156102924E+02  0.49554336420E+03  0.92344396237E+02 0.  0.
         23    2    4    4    0    0 -0.13479141067E+03  0.73402425190E+03 -0.16591273614E+04  0.18216073962E+04  0.92679975553E+02 0.  0.
          4    1    3    3  502    0  0.17209085439E+03 -0.53823401514E+03 -0.55531288472E+03  0.79226480242E+03  0.00000000000E+00 0. -1.
         -3    1    3    3    0  502  0.21955327527E+03 -0.60134677535E+03 -0.52276902952E+03  0.82650410957E+03  0.00000000000E+00 0.  1.
         13    1    5    5    0    0 -0.15965328911E+03  0.31810169706E+03 -0.38427469908E+02  0.35798677747E+03  0.00000000000E+00 0.  1.
        -13    1    5    5    0    0 -0.97199429871E+02  0.87454841537E+02 -0.42728633016E+02  0.13755658674E+03  0.00000000000E+00 0. -1.
          2    1    6    6  503    0 -0.83337719994E+02  0.49447724618E+03 -0.12143545022E+04  0.13138149716E+04  0.00000000000E+00 0.  1.
         -2    1    6    6    0  503 -0.51453690677E+02  0.23954700572E+03 -0.44477285917E+03  0.50779242461E+03  0.00000000000E+00 0. -1.
<mgrwt>
<rscale>  0 0.27474134E+04</rscale>
<asrwt>0</asrwt>
<pdfrwt beam="1">  1        2 0.51956038E+00 0.27474134E+04</pdfrwt>
<pdfrwt beam="2">  1       -1 0.85965716E-01 0.27474134E+04</pdfrwt>
<totfact> 0.13111281E+00</totfact>
</mgrwt>
</event>
<event>
12    7  0.1701638E-007  0.1301165E+04  0.7818608E-02  0.9028642E-01
         -1   -1    0    0    0  501 -0.00000000000E+00  0.00000000000E+00  0.13768672803E+03  0.13768672803E+03  0.00000000000E+00 0.  1.
          2   -1    0    0  501    0  0.00000000000E+00 -0.00000000000E+00 -0.30740604510E+04  0.30740604510E+04  0.00000000000E+00 0. -1.
         24    2    1    2    0    0 -0.56927072474E+02  0.28640450049E+03 -0.40435698140E+03  0.50517801071E+03  0.80199904066E+02 0.  0.
        254    2    1    2    0    0  0.56927072474E+02 -0.28640450049E+03 -0.25320167416E+04  0.27065691683E+04  0.91057105918E+03 0.  0.
         23    2    4    4    0    0  0.30336790623E+03 -0.16496701132E+03 -0.33177427496E+03  0.48773215409E+03  0.92532606408E+02 0.  0.
         23    2    4    4    0    0 -0.24644083376E+03 -0.12143748917E+03 -0.22002424666E+04  0.22188370142E+04  0.81796305080E+02 0.  0.
          4    1    3    3  502    0  0.14430322006E+02  0.15815921596E+02 -0.43928424125E+02  0.48868026513E+02  0.00000000000E+00 0. -1.
         -3    1    3    3    0  502 -0.71357394480E+02  0.27058857890E+03 -0.36042855728E+03  0.45630998420E+03  0.00000000000E+00 0.  1.
         13    1    5    5    0    0  0.25269243003E+03 -0.14695956960E+03 -0.31855481244E+03  0.43235141705E+03  0.00000000000E+00 0.  1.
        -13    1    5    5    0    0  0.50675476200E+02 -0.18007441719E+02 -0.13219462511E+02  0.55380737034E+02  0.00000000000E+00 0. -1.
          3    1    6    6  503    0 -0.20364784813E+03 -0.13099221612E+03 -0.19140370882E+04  0.19292924563E+04  0.00000000000E+00 0. -1.
         -3    1    6    6    0  503 -0.42792985631E+02  0.95547269479E+01 -0.28620537837E+03  0.28954455794E+03  0.00000000000E+00 0.  1.
<mgrwt>
<rscale>  0 0.13011646E+04</rscale>
<asrwt>0</asrwt>
<pdfrwt beam="1">  1        2 0.47293237E+00 0.13011646E+04</pdfrwt>
<pdfrwt beam="2">  1       -1 0.21182574E-01 0.13011646E+04</pdfrwt>
<totfact> 0.32818215E+01</totfact>
</mgrwt>
</event>
<event>
12    7  0.1701638E-007  0.1258792E+04  0.7818608E-02  0.9062897E-01
          2   -1    0    0  501    0  0.00000000000E+00  0.00000000000E+00  0.10733958364E+04  0.10733958364E+04  0.00000000000E+00 0. -1.
         -1   -1    0    0    0  501 -0.00000000000E+00 -0.00000000000E+00 -0.36905232101E+03  0.36905232101E+03  0.00000000000E+00 0.  1.
         24    2    1    2    0    0 -0.10618302751E+03 -0.27473302910E+03  0.15626652271E+03  0.34230369279E+03  0.77456564420E+02 0.  0.
        254    2    1    2    0    0  0.10618302751E+03  0.27473302910E+03  0.54807699265E+03  0.11001444646E+04  0.90729068136E+03 0.  0.
         23    2    4    4    0    0  0.71632253242E+02  0.67227409907E+02  0.76941543273E+03  0.78146955138E+03  0.95099144430E+02 0.  0.
         23    2    4    4    0    0  0.34550774269E+02  0.20750561919E+03 -0.22133844008E+03  0.31867491320E+03  0.91162806277E+02 0.  0.
          2    1    3    3  502    0 -0.40949849662E+02 -0.10115692316E+03  0.17105514991E+02  0.11046362267E+03  0.00000000000E+00 0. -1.
         -1    1    3    3    0  502 -0.65233177848E+02 -0.17357610593E+03  0.13916100772E+03  0.23184007012E+03  0.00000000000E+00 0.  1.
         13    1    5    5    0    0  0.11857459211E+02  0.22475709274E+02  0.34916171916E+02  0.43184440572E+02  0.00000000000E+00 0.  1.
        -13    1    5    5    0    0  0.59774794031E+02  0.44751700634E+02  0.73449926081E+03  0.73828511081E+03  0.00000000000E+00 0. -1.
          4    1    6    6  503    0  0.70697157551E+01  0.16742331030E+03 -0.11944559884E+03  0.20578580319E+03  0.00000000000E+00 0. -1.
         -4    1    6    6    0  503  0.27481058514E+02  0.40082308891E+02 -0.10189284124E+03  0.11288911001E+03  0.00000000000E+00 0.  1.
<mgrwt>
<rscale>  0 0.12587918E+04</rscale>
<asrwt>0</asrwt>
<pdfrwt beam="1">  1        2 0.16513782E+00 0.12587918E+04</pdfrwt>
<pdfrwt beam="2">  1       -1 0.56777280E-01 0.12587918E+04</pdfrwt>
<totfact> 0.79657524E+01</totfact>
</mgrwt>
</event>
<event>
12    7  0.1701638E-007  0.1775125E+04  0.7818608E-02  0.8719641E-01
          2   -1    0    0  501    0  0.00000000000E+00  0.00000000000E+00  0.15563712286E+04  0.15563712286E+04  0.00000000000E+00 0. -1.
         -1   -1    0    0    0  501 -0.00000000000E+00 -0.00000000000E+00 -0.50615637249E+03  0.50615637249E+03  0.00000000000E+00 0.  1.
         24    2    1    2    0    0 -0.17601605057E+03 -0.13111244739E+03 -0.32632058790E+03  0.40145610772E+03  0.80683061563E+02 0.  0.
        254    2    1    2    0    0  0.17601605057E+03  0.13111244739E+03  0.13765354440E+04  0.16610714934E+04  0.90340276374E+03 0.  0.
         23    2    4    4    0    0 -0.18805520822E+03 -0.24529170958E+03  0.22596962220E+03  0.39367990568E+03  0.91590468113E+02 0.  0.
         23    2    4    4    0    0  0.36407125879E+03  0.37640415697E+03  0.11505658218E+04  0.12673915877E+04  0.90839173057E+02 0.  0.
          2    1    3    3  502    0 -0.66239418831E+02 -0.73509213030E+02 -0.20678983614E+03  0.22924506830E+03  0.00000000000E+00 0. -1.
         -1    1    3    3    0  502 -0.10977663174E+03 -0.57603234357E+02 -0.11953075176E+03  0.17221103942E+03  0.00000000000E+00 0.  1.
         13    1    5    5    0    0 -0.32844116431E+02 -0.59604206928E+02  0.99684376338E+02  0.12069951265E+03  0.00000000000E+00 0. -1.
        -13    1    5    5    0    0 -0.15521109179E+03 -0.18568750266E+03  0.12628524587E+03  0.27298039303E+03  0.00000000000E+00 0.  1.
          4    1    6    6  503    0  0.56288397711E+02  0.21366603285E+02  0.10368072457E+03  0.11989415374E+03  0.00000000000E+00 0. -1.
         -4    1    6    6    0  503  0.30778286108E+03  0.35503755368E+03  0.10468850972E+04  0.11474974339E+04  0.00000000000E+00 0.  1.
<mgrwt>
<rscale>  0 0.17751250E+04</rscale>
<asrwt>0</asrwt>
<pdfrwt beam="1">  1        2 0.23944173E+00 0.17751250E+04</pdfrwt>
<pdfrwt beam="2">  1       -1 0.77870211E-01 0.17751250E+04</pdfrwt>
<totfact> 0.21005620E+01</totfact>
</mgrwt>
</event>
<event>
12    7  0.1701638E-007  0.1368375E+04  0.7818608E-02  0.8977034E-01
          2   -1    0    0  501    0  0.00000000000E+00  0.00000000000E+00  0.17072368386E+04  0.17072368386E+04  0.00000000000E+00 0. -1.
         -1   -1    0    0    0  501 -0.00000000000E+00 -0.00000000000E+00 -0.27419302287E+03  0.27419302287E+03  0.00000000000E+00 0.  1.
         24    2    1    2    0    0  0.11734837171E+03 -0.30793915099E+03  0.13067328430E+03  0.36286609146E+03  0.77454064111E+02 0.  0.
        254    2    1    2    0    0 -0.11734837171E+03  0.30793915099E+03  0.13023705315E+04  0.16185637700E+04  0.90276382038E+03 0.  0.
         23    2    4    4    0    0 -0.34544819725E+03 -0.18478463647E+03  0.65261669990E+03  0.76665160169E+03  0.91467494305E+02 0.  0.
         23    2    4    4    0    0  0.22809982554E+03  0.49272378746E+03  0.64975383156E+03  0.85191216835E+03  0.93637811866E+02 0.  0.
          2    1    3    3  502    0  0.31759987960E+01 -0.10958014169E+03  0.40290701058E+02  0.11679569775E+03  0.00000000000E+00 0. -1.
         -1    1    3    3    0  502  0.11417237292E+03 -0.19835900929E+03  0.90382583239E+02  0.24607039371E+03  0.00000000000E+00 0.  1.
         13    1    5    5    0    0 -0.31963904959E+03 -0.15224827950E+03  0.53160224149E+03  0.63870932653E+03  0.00000000000E+00 0.  1.
        -13    1    5    5    0    0 -0.25809147660E+02 -0.32536356976E+02  0.12101445841E+03  0.12794227516E+03  0.00000000000E+00 0. -1.
          1    1    6    6  503    0  0.56615882539E+02  0.64348838124E+02  0.68154549303E+02  0.10950421779E+03  0.00000000000E+00 0. -1.
         -1    1    6    6    0  503  0.17148394300E+03  0.42837494933E+03  0.58159928226E+03  0.74240795055E+03  0.00000000000E+00 0.  1.
<mgrwt>
<rscale>  0 0.13683748E+04</rscale>
<asrwt>0</asrwt>
<pdfrwt beam="1">  1        2 0.26265181E+00 0.13683748E+04</pdfrwt>
<pdfrwt beam="2">  1       -1 0.42183543E-01 0.13683748E+04</pdfrwt>
<totfact> 0.59636595E+01</totfact>
</mgrwt>
</event>
<event>
12    7  0.1701638E-007  0.1876196E+04  0.7818608E-02  0.8666797E-01
          2   -1    0    0  501    0  0.00000000000E+00  0.00000000000E+00  0.22064534723E+04  0.22064534723E+04  0.00000000000E+00 0. -1.
         -1   -1    0    0    0  501 -0.00000000000E+00 -0.00000000000E+00 -0.39884259865E+03  0.39884259865E+03  0.00000000000E+00 0.  1.
         24    2    1    2    0    0  0.30066354362E+03  0.60379008830E+03  0.34579728321E+03  0.76195914378E+03  0.77749202699E+02 0.  0.
        254    2    1    2    0    0 -0.30066354362E+03 -0.60379008830E+03  0.14618135905E+04  0.18433369272E+04  0.89779230157E+03 0.  0.
         23    2    4    4    0    0 -0.50554091873E+02  0.14455931734E+03 -0.28076770453E+01  0.17741744748E+03  0.89531866866E+02 0.  0.
         23    2    4    4    0    0 -0.25010945174E+03 -0.74834940564E+03  0.14646212675E+04  0.16659194797E+04  0.87124536820E+02 0.  0.
          4    1    3    3  502    0  0.14777935560E+02  0.59516926301E+02  0.52797695190E+02  0.80921248835E+02  0.00000000000E+00 0. -1.
         -3    1    3    3    0  502  0.28588560806E+03  0.54427316200E+03  0.29299958802E+03  0.68103789494E+03  0.00000000000E+00 0.  1.
         13    1    5    5    0    0 -0.65530748805E+02  0.92734512293E+02 -0.29368032695E+02  0.11728789432E+03  0.00000000000E+00 0.  1.
        -13    1    5    5    0    0  0.14976656933E+02  0.51824805049E+02  0.26560355650E+02  0.60129553162E+02  0.00000000000E+00 0. -1.
          1    1    6    6  503    0 -0.16396974203E+03 -0.38873404616E+03  0.71919413429E+03  0.83381079253E+03  0.00000000000E+00 0. -1.
         -1    1    6    6    0  503 -0.86139709712E+02 -0.35961535948E+03  0.74542713324E+03  0.83210868721E+03  0.00000000000E+00 0.  1.
<mgrwt>
<rscale>  0 0.18761958E+04</rscale>
<asrwt>0</asrwt>
<pdfrwt beam="1">  1        2 0.33945437E+00 0.18761958E+04</pdfrwt>
<pdfrwt beam="2">  1       -1 0.61360401E-01 0.18761958E+04</pdfrwt>
<totfact> 0.14740754E+01</totfact>
</mgrwt>
</event>
<event>
12    7  0.1701638E-007  0.1576550E+04  0.7818608E-02  0.8835085E-01
          2   -1    0    0  501    0  0.00000000000E+00  0.00000000000E+00  0.93170581813E+03  0.93170581813E+03  0.00000000000E+00 0. -1.
         -1   -1    0    0    0  501 -0.00000000000E+00 -0.00000000000E+00 -0.66692441588E+03  0.66692441588E+03  0.00000000000E+00 0.  1.
         24    2    1    2    0    0  0.75500236574E+02 -0.26979007396E+03 -0.36310130556E+03  0.46569465763E+03  0.80882546452E+02 0.  0.
        254    2    1    2    0    0 -0.75500236574E+02  0.26979007396E+03  0.62788270780E+03  0.11329355764E+04  0.90045508257E+03 0.  0.
         23    2    4    4    0    0  0.59964299762E+02 -0.31603247394E+03  0.24709413467E+03  0.41546419663E+03  0.89904090326E+02 0.  0.
         23    2    4    4    0    0 -0.13546453634E+03  0.58582254791E+03  0.38078857313E+03  0.71747137975E+03  0.90700303668E+02 0.  0.
          4    1    3    3  502    0 -0.61076227275E+01 -0.30688536759E+02 -0.12836580334E+02  0.33821104927E+02  0.00000000000E+00 0. -1.
         -3    1    3    3    0  502  0.81607859301E+02 -0.23910153720E+03 -0.35026472522E+03  0.43187355271E+03  0.00000000000E+00 0.  1.
         13    1    5    5    0    0  0.14498045243E+02 -0.64670143414E+02  0.10214715680E+03  0.12176396186E+03  0.00000000000E+00 0. -1.
        -13    1    5    5    0    0  0.45466254518E+02 -0.25136233053E+03  0.14494697787E+03  0.29370023477E+03  0.00000000000E+00 0.  1.
          3    1    6    6  503    0 -0.57572721544E+02  0.12371653105E+03  0.11672499848E+03  0.17956927240E+03  0.00000000000E+00 0. -1.
         -3    1    6    6    0  503 -0.77891814792E+02  0.46210601686E+03  0.26406357466E+03  0.53790210735E+03  0.00000000000E+00 0.  1.
<mgrwt>
<rscale>  0 0.15765499E+04</rscale>
<asrwt>0</asrwt>
<pdfrwt beam="1">  1        2 0.14333936E+00 0.15765499E+04</pdfrwt>
<pdfrwt beam="2">  1       -1 0.10260376E+00 0.15765499E+04</pdfrwt>
<totfact> 0.27500058E+01</totfact>
</mgrwt>
</event>
<event>
12    7  0.1701638E-007  0.1782978E+04  0.7818608E-02  0.8715404E-01
          2   -1    0    0  501    0  0.00000000000E+00  0.00000000000E+00  0.78972940401E+03  0.78972940401E+03  0.00000000000E+00 0. -1.
         -1   -1    0    0    0  501 -0.00000000000E+00 -0.00000000000E+00 -0.10063603527E+04  0.10063603527E+04  0.00000000000E+00 0.  1.
         24    2    1    2    0    0  0.30863872531E+03  0.13487472852E+03  0.48941375765E+03  0.59946993240E+03  0.79933212914E+02 0.  0.
        254    2    1    2    0    0 -0.30863872531E+03 -0.13487472852E+03 -0.70604470631E+03  0.11966198243E+04  0.90551135906E+03 0.  0.
         23    2    4    4    0    0  0.61572615748E+02  0.33901730264E+03 -0.23039926966E+03  0.42442029542E+03  0.91240589675E+02 0.  0.
         23    2    4    4    0    0 -0.37021134106E+03 -0.47389203116E+03 -0.47564543666E+03  0.77219952886E+03  0.91779282576E+02 0.  0.
          4    1    3    3  502    0  0.24668980764E+03  0.14037805560E+03  0.40808431923E+03  0.49708618095E+03  0.00000000000E+00 0. -1.
         -3    1    3    3    0  502  0.61948917670E+02 -0.55033270712E+01  0.81329438417E+02  0.10238375146E+03  0.00000000000E+00 0.  1.
         13    1    5    5    0    0  0.62675099832E+02  0.30196181324E+03 -0.23407093609E+03  0.38716702844E+03  0.00000000000E+00 0. -1.
        -13    1    5    5    0    0 -0.11024840841E+01  0.37055489403E+02  0.36716664271E+01  0.37253266977E+02  0.00000000000E+00 0.  1.
          4    1    6    6  503    0 -0.35617358922E+03 -0.43696986907E+03 -0.41580309489E+03  0.70049589995E+03  0.00000000000E+00 0. -1.
         -4    1    6    6    0  503 -0.14037751841E+02 -0.36922162098E+02 -0.59842341763E+02  0.71703628907E+02  0.00000000000E+00 0.  1.
<mgrwt>
<rscale>  0 0.17829777E+04</rscale>
<asrwt>0</asrwt>
<pdfrwt beam="1">  1        2 0.12149683E+00 0.17829777E+04</pdfrwt>
<pdfrwt beam="2">  1       -1 0.15482467E+00 0.17829777E+04</pdfrwt>
<totfact> 0.12106391E+01</totfact>
</mgrwt>
</event>
<event>
12    7  0.1701638E-007  0.1545726E+04  0.7818608E-02  0.8854602E-01
          2   -1    0    0  501    0  0.00000000000E+00  0.00000000000E+00  0.17948749627E+04  0.17948749627E+04  0.00000000000E+00 0. -1.
         -1   -1    0    0    0  501 -0.00000000000E+00 -0.00000000000E+00 -0.33279049919E+03  0.33279049919E+03  0.00000000000E+00 0.  1.
         24    2    1    2    0    0 -0.62658896066E+02  0.27760021473E+03 -0.93825376456E+02  0.31006321967E+03  0.79674227021E+02 0.  0.
        254    2    1    2    0    0  0.62658896066E+02 -0.27760021473E+03  0.15559098400E+04  0.18176022422E+04  0.89545210054E+03 0.  0.
         23    2    4    4    0    0 -0.85163477327E+02 -0.14854367741E+03  0.15861705458E+04  0.15984036345E+04  0.98179104244E+02 0.  0.
         23    2    4    4    0    0  0.14782237339E+03 -0.12905653732E+03 -0.30260705837E+02  0.21919860770E+03  0.92872360803E+02 0.  0.
          4    1    3    3  502    0 -0.20227567707E+02  0.18271673009E+02  0.77487289519E+01  0.28338160319E+02  0.00000000000E+00 0. -1.
         -3    1    3    3    0  502 -0.42431328359E+02  0.25932854172E+03 -0.10157410541E+03  0.28172505935E+03  0.00000000000E+00 0.  1.
         13    1    5    5    0    0 -0.10151382500E+03 -0.10510062949E+03  0.13356525527E+04  0.13436215764E+04  0.00000000000E+00 0. -1.
        -13    1    5    5    0    0  0.16350347669E+02 -0.43443047924E+02  0.25051799310E+03  0.25478205814E+03  0.00000000000E+00 0.  1.
          2    1    6    6  503    0  0.15710403161E+03 -0.11112992660E+03 -0.40365616103E+02  0.19662380399E+03  0.00000000000E+00 0. -1.
         -2    1    6    6    0  503 -0.92816582147E+01 -0.17926610716E+02  0.10104910266E+02  0.22574803709E+02  0.00000000000E+00 0.  1.
<mgrwt>
<rscale>  0 0.15457262E+04</rscale>
<asrwt>0</asrwt>
<pdfrwt beam="1">  1        2 0.27613460E+00 0.15457262E+04</pdfrwt>
<pdfrwt beam="2">  1       -1 0.51198539E-01 0.15457262E+04</pdfrwt>
<totfact> 0.36547704E+01</totfact>
</mgrwt>
</event>
<event>
12    7  0.1701638E-007  0.1860478E+04  0.7818608E-02  0.8674783E-01
         -1   -1    0    0    0  501 -0.00000000000E+00  0.00000000000E+00  0.92502014655E+03  0.92502014655E+03  0.00000000000E+00 0.  1.
          2   -1    0    0  501    0  0.00000000000E+00 -0.00000000000E+00 -0.93548682968E+03  0.93548682968E+03  0.00000000000E+00 0. -1.
         24    2    1    2    0    0 -0.35694479755E+03 -0.51740761597E+03  0.33262919266E+03  0.71580152265E+03  0.81298280830E+02 0.  0.
        254    2    1    2    0    0  0.35694479755E+03  0.51740761597E+03 -0.34309587579E+03  0.11447054536E+04  0.89303727016E+03 0.  0.
         23    2    4    4    0    0  0.39198713836E+03  0.73984691293E+03 -0.32571477839E+03  0.90281569783E+03  0.89211524835E+02 0.  0.
         23    2    4    4    0    0 -0.35042340811E+02 -0.22243929696E+03 -0.17381097398E+02  0.24188975575E+03  0.86610304846E+02 0.  0.
          2    1    3    3  502    0 -0.78619172775E+02 -0.17245509637E+03  0.80928690595E+02  0.20608538899E+03  0.00000000000E+00 0. -1.
         -1    1    3    3    0  502 -0.27832562477E+03 -0.34495251960E+03  0.25170050206E+03  0.50971613367E+03  0.00000000000E+00 0.  1.
         13    1    5    5    0    0  0.17547506063E+03  0.27066490040E+03 -0.16066592058E+03  0.36036720612E+03  0.00000000000E+00 0. -1.
        -13    1    5    5    0    0  0.21651207772E+03  0.46918201254E+03 -0.16504885781E+03  0.54244849170E+03  0.00000000000E+00 0.  1.
          1    1    6    6  503    0  0.42409340516E+01  0.64723289349E+01 -0.51797736125E+01  0.93116388541E+01  0.00000000000E+00 0. -1.
         -1    1    6    6    0  503 -0.39283274863E+02 -0.22891162590E+03 -0.12201323785E+02  0.23257811689E+03  0.00000000000E+00 0.  1.
<mgrwt>
<rscale>  0 0.18604775E+04</rscale>
<asrwt>0</asrwt>
<pdfrwt beam="1">  1        2 0.14392105E+00 0.18604775E+04</pdfrwt>
<pdfrwt beam="2">  1       -1 0.14231079E+00 0.18604775E+04</pdfrwt>
<totfact> 0.11948122E+01</totfact>
</mgrwt>
</event>
<event>
12    7  0.1701638E-007  0.3032266E+04  0.7818608E-02  0.8234577E-01
          2   -1    0    0  501    0  0.00000000000E+00  0.00000000000E+00  0.78780861981E+03  0.78780861981E+03  0.00000000000E+00 0. -1.
         -1   -1    0    0    0  501 -0.00000000000E+00 -0.00000000000E+00 -0.29177887321E+04  0.29177887321E+04  0.00000000000E+00 0.  1.
         24    2    1    2    0    0  0.17289458311E+03 -0.77963798535E+03 -0.23471934474E+04  0.24806413682E+04  0.80849201634E+02 0.  0.
        254    2    1    2    0    0 -0.17289458311E+03  0.77963798535E+03  0.21721333503E+03  0.12249559837E+04  0.90310996234E+03 0.  0.
         23    2    4    4    0    0 -0.74948489917E+02  0.78315795098E+02 -0.30851816578E+03  0.33890791681E+03  0.89019534677E+02 0.  0.
         23    2    4    4    0    0 -0.97946093189E+02  0.70132219025E+03  0.52573150081E+03  0.88604806691E+03  0.85095911944E+02 0.  0.
          4    1    3    3  502    0  0.68086192585E+02 -0.39471401323E+03 -0.10656376785E+04  0.11384281021E+04  0.00000000000E+00 0. -1.
         -3    1    3    3    0  502  0.10480839052E+03 -0.38492397212E+03 -0.12815557688E+04  0.13422132661E+04  0.00000000000E+00 0.  1.
         13    1    5    5    0    0 -0.39553629504E+02  0.60992341284E+02 -0.84572633646E+02  0.11152168248E+03  0.00000000000E+00 0.  1.
        -13    1    5    5    0    0 -0.35394860414E+02  0.17323453814E+02 -0.22394553214E+03  0.22738623432E+03  0.00000000000E+00 0. -1.
          4    1    6    6  503    0 -0.92826058842E+02  0.56908739042E+03  0.38770829088E+03  0.69483440758E+03  0.00000000000E+00 0. -1.
         -4    1    6    6    0  503 -0.51200343468E+01  0.13223479983E+03  0.13802320993E+03  0.19121365933E+03  0.00000000000E+00 0.  1.
<mgrwt>
<rscale>  0 0.30322659E+04</rscale>
<asrwt>0</asrwt>
<pdfrwt beam="1">  1        2 0.12120133E+00 0.30322659E+04</pdfrwt>
<pdfrwt beam="2">  1       -1 0.44889058E+00 0.30322659E+04</pdfrwt>
<totfact> 0.11255928E-01</totfact>
</mgrwt>
</event>
<event>
12    7  0.1701638E-007  0.3695747E+04  0.7818608E-02  0.8068905E-01
         -1   -1    0    0    0  501 -0.00000000000E+00  0.00000000000E+00  0.12779556948E+04  0.12779556948E+04  0.00000000000E+00 0.  1.
          2   -1    0    0  501    0  0.00000000000E+00 -0.00000000000E+00 -0.26719525707E+04  0.26719525707E+04  0.00000000000E+00 0. -1.
         24    2    1    2    0    0  0.69260609376E+03  0.78082437369E+03 -0.21320702471E+04  0.23752525415E+04  0.81921877224E+02 0.  0.
        254    2    1    2    0    0 -0.69260609376E+03 -0.78082437369E+03  0.73807337110E+03  0.15746557240E+04  0.91945551508E+03 0.  0.
         23    2    4    4    0    0  0.12335804535E+03 -0.72158793073E+02  0.40716136740E+03  0.44077089788E+03  0.89858258045E+02 0.  0.
         23    2    4    4    0    0 -0.81596413911E+03 -0.70866558062E+03  0.33091200370E+03  0.11338848261E+04  0.90485706939E+02 0.  0.
          4    1    3    3  502    0  0.38341116723E+03  0.48043083204E+03 -0.13084915787E+04  0.14456722032E+04  0.00000000000E+00 0. -1.
         -3    1    3    3    0  502  0.30919492652E+03  0.30039354166E+03 -0.82357866841E+03  0.92958033839E+03  0.00000000000E+00 0.  1.
         13    1    5    5    0    0  0.82559341546E+02 -0.73097002519E+02  0.36817024988E+03  0.38432869987E+03  0.00000000000E+00 0. -1.
        -13    1    5    5    0    0  0.40798703807E+02  0.93820944613E+00  0.38991117527E+02  0.56442198002E+02  0.00000000000E+00 0.  1.
          2    1    6    6  503    0 -0.65600706340E+03 -0.58759602903E+03  0.23486985616E+03  0.91147035602E+03  0.00000000000E+00 0. -1.
         -2    1    6    6    0  503 -0.15995707571E+03 -0.12106955160E+03  0.96042147537E+02  0.22241447007E+03  0.00000000000E+00 0.  1.
<mgrwt>
<rscale>  0 0.36957473E+04</rscale>
<asrwt>0</asrwt>
<pdfrwt beam="1">  1        2 0.41106963E+00 0.36957473E+04</pdfrwt>
<pdfrwt beam="2">  1       -1 0.19660857E+00 0.36957473E+04</pdfrwt>
<totfact> 0.40270111E-01</totfact>
</mgrwt>
</event>
<event>
12    7  0.1701638E-007  0.1714331E+04  0.7818608E-02  0.8753233E-01
          2   -1    0    0  501    0  0.00000000000E+00  0.00000000000E+00  0.82610012565E+03  0.82610012565E+03  0.00000000000E+00 0. -1.
         -1   -1    0    0    0  501 -0.00000000000E+00 -0.00000000000E+00 -0.88939937322E+03  0.88939937322E+03  0.00000000000E+00 0.  1.
         24    2    1    2    0    0  0.24481361773E+03 -0.15833689447E+02 -0.58989806319E+03  0.64422516787E+03  0.82836760070E+02 0.  0.
        254    2    1    2    0    0 -0.24481361773E+03  0.15833689447E+02  0.52659881562E+03  0.10712743310E+04  0.90007664480E+03 0.  0.
         23    2    4    4    0    0 -0.31692341944E+03 -0.18166688777E+03  0.69272442504E+03  0.78835064514E+03  0.90478167205E+02 0.  0.
         23    2    4    4    0    0  0.72109801712E+02  0.19750057721E+03 -0.16612560943E+03  0.28292368586E+03  0.90784318095E+02 0.  0.
          4    1    3    3  502    0  0.46549382470E+01  0.10904451147E+02 -0.68952334763E+02  0.69964276414E+02  0.00000000000E+00 0. -1.
         -3    1    3    3    0  502  0.24015867948E+03 -0.26738140594E+02 -0.52094572842E+03  0.57426089146E+03  0.00000000000E+00 0.  1.
         13    1    5    5    0    0 -0.24739172129E+03 -0.13020211480E+03  0.59769490916E+03  0.65984426867E+03  0.00000000000E+00 0. -1.
        -13    1    5    5    0    0 -0.69531698156E+02 -0.51464772965E+02  0.95029515881E+02  0.12850637647E+03  0.00000000000E+00 0.  1.
          2    1    6    6  503    0  0.25420105530E+02  0.47268750845E+01 -0.40791772071E+02  0.48295898190E+02  0.00000000000E+00 0. -1.
         -2    1    6    6    0  503  0.46689696182E+02  0.19277370213E+03 -0.12533383736E+03  0.23462778767E+03  0.00000000000E+00 0.  1.
<mgrwt>
<rscale>  0 0.17143313E+04</rscale>
<asrwt>0</asrwt>
<pdfrwt beam="1">  1        2 0.12709233E+00 0.17143313E+04</pdfrwt>
<pdfrwt beam="2">  1       -1 0.13683067E+00 0.17143313E+04</pdfrwt>
<totfact> 0.15929444E+01</totfact>
</mgrwt>
</event>
<event>
12    7  0.1701638E-007  0.1302972E+04  0.7818608E-02  0.9027211E-01
         -1   -1    0    0    0  501 -0.00000000000E+00  0.00000000000E+00  0.23933752478E+03  0.23933752478E+03  0.00000000000E+00 0.  1.
          2   -1    0    0  501    0  0.00000000000E+00 -0.00000000000E+00 -0.17733708867E+04  0.17733708867E+04  0.00000000000E+00 0. -1.
         24    2    1    2    0    0  0.95505851493E+02 -0.32313625810E+03 -0.33292637842E+03  0.48023720633E+03  0.79053095602E+02 0.  0.
        254    2    1    2    0    0 -0.95505851493E+02  0.32313625810E+03 -0.12011069835E+04  0.15324712052E+04  0.89009639918E+03 0.  0.
         23    2    4    4    0    0  0.33974231090E+03  0.22468484633E+02 -0.22419105122E+03  0.41781466574E+03  0.91530305616E+02 0.  0.
         23    2    4    4    0    0 -0.43524816239E+03  0.30066777347E+03 -0.97691593228E+03  0.11146565394E+04  0.90842662034E+02 0.  0.
          4    1    3    3  502    0 -0.65404776457E+01 -0.58293594542E+02 -0.32987986171E+02  0.67298798236E+02  0.00000000000E+00 0. -1.
         -3    1    3    3    0  502  0.10204632914E+03 -0.26484266356E+03 -0.29993839225E+03  0.41293840809E+03  0.00000000000E+00 0.  1.
         13    1    5    5    0    0  0.12816699443E+03  0.90408895587E+01 -0.13913922731E+03  0.18938912514E+03  0.00000000000E+00 0. -1.
        -13    1    5    5    0    0  0.21157531647E+03  0.13427595074E+02 -0.85051823909E+02  0.22842554060E+03  0.00000000000E+00 0.  1.
          4    1    6    6  503    0 -0.23757656683E+02  0.71510782890E+01 -0.94799977692E+02  0.97992856587E+02  0.00000000000E+00 0. -1.
         -4    1    6    6    0  503 -0.41149050571E+03  0.29351669518E+03 -0.88211595459E+03  0.10166636828E+04  0.00000000000E+00 0.  1.
<mgrwt>
<rscale>  0 0.13029723E+04</rscale>
<asrwt>0</asrwt>
<pdfrwt beam="1">  1        2 0.27282628E+00 0.13029723E+04</pdfrwt>
<pdfrwt beam="2">  1       -1 0.36821159E-01 0.13029723E+04</pdfrwt>
<totfact> 0.70590234E+01</totfact>
</mgrwt>
</event>
<event>
12    7  0.1701638E-007  0.1657635E+04  0.7818608E-02  0.8785903E-01
          2   -1    0    0  501    0  0.00000000000E+00  0.00000000000E+00  0.19512627052E+04  0.19512627052E+04  0.00000000000E+00 0. -1.
         -1   -1    0    0    0  501 -0.00000000000E+00 -0.00000000000E+00 -0.35204808261E+03  0.35204808261E+03  0.00000000000E+00 0.  1.
         24    2    1    2    0    0 -0.39064525760E+03 -0.34676259859E+03  0.91982830128E+03  0.10606686305E+04  0.78011683976E+02 0.  0.
        254    2    1    2    0    0  0.39064525760E+03  0.34676259859E+03  0.67938632127E+03  0.12426421573E+04  0.89985873360E+03 0.  0.
         23    2    4    4    0    0 -0.66979581923E+02  0.51019203442E+02  0.67814261293E+03  0.69009929265E+03  0.96282951421E+02 0.  0.
         23    2    4    4    0    0  0.45762483952E+03  0.29574339515E+03  0.12437083466E+01  0.55254286462E+03  0.91746503533E+02 0.  0.
          4    1    3    3  502    0 -0.39300599239E+03 -0.33602460027E+03  0.89803870693E+03  0.10362623998E+04  0.00000000000E+00 0. -1.
         -3    1    3    3    0  502  0.23607347878E+01 -0.10737998314E+02  0.21789594347E+02  0.24406230728E+02  0.00000000000E+00 0.  1.
         13    1    5    5    0    0 -0.38712299454E+02  0.56218439395E+02  0.63242369500E+03  0.63609660041E+03  0.00000000000E+00 0. -1.
        -13    1    5    5    0    0 -0.28267282470E+02 -0.51992359533E+01  0.45718917931E+02  0.54002692243E+02  0.00000000000E+00 0.  1.
          1    1    6    6  503    0  0.35927687938E+03  0.18468782613E+03  0.79948797395E+01  0.40404626874E+03  0.00000000000E+00 0. -1.
         -1    1    6    6    0  503  0.98347960141E+02  0.11105556901E+03 -0.67511713929E+01  0.14849659588E+03  0.00000000000E+00 0.  1.
<mgrwt>
<rscale>  0 0.16576348E+04</rscale>
<asrwt>0</asrwt>
<pdfrwt beam="1">  1        2 0.30019426E+00 0.16576348E+04</pdfrwt>
<pdfrwt beam="2">  1       -1 0.54161245E-01 0.16576348E+04</pdfrwt>
<totfact> 0.26621513E+01</totfact>
</mgrwt>
</event>
<event>
12    7  0.1701638E-007  0.2717180E+04  0.7818608E-02  0.8329452E-01
         -1   -1    0    0    0  501 -0.00000000000E+00  0.00000000000E+00  0.55252092290E+03  0.55252092290E+03  0.00000000000E+00 0.  1.
          2   -1    0    0  501    0  0.00000000000E+00 -0.00000000000E+00 -0.33406288790E+04  0.33406288790E+04  0.00000000000E+00 0. -1.
         24    2    1    2    0    0 -0.10061448946E+04  0.62812904006E+03 -0.15048579977E+04  0.19177947297E+04  0.80407663350E+02 0.  0.
        254    2    1    2    0    0  0.10061448946E+04 -0.62812904006E+03 -0.12832499585E+04  0.19753550722E+04  0.92109910734E+03 0.  0.
         23    2    4    4    0    0  0.75710307962E+03  0.50029688978E+02 -0.76282043578E+03  0.10802573467E+04  0.96710262494E+02 0.  0.
         23    2    4    4    0    0  0.24904181496E+03 -0.67815872904E+03 -0.52042952269E+03  0.89509772552E+03  0.91825719630E+02 0.  0.
          2    1    3    3  502    0 -0.94809267522E+02  0.44659989980E+02 -0.10382211613E+03  0.14752065520E+03  0.00000000000E+00 0. -1.
         -1    1    3    3    0  502 -0.91133562706E+03  0.58346905008E+03 -0.14010358815E+04  0.17702740745E+04  0.00000000000E+00 0.  1.
         13    1    5    5    0    0  0.64917781426E+02  0.12498428283E+02 -0.33703965262E+02  0.74205702808E+02  0.00000000000E+00 0. -1.
        -13    1    5    5    0    0  0.69218529820E+03  0.37531260694E+02 -0.72911647051E+03  0.10060516439E+04  0.00000000000E+00 0.  1.
          1    1    6    6  503    0  0.91471804942E+02 -0.30294871805E+03 -0.17696350726E+03  0.36257564696E+03  0.00000000000E+00 0. -1.
         -1    1    6    6    0  503  0.15757001001E+03 -0.37521001098E+03 -0.34346601543E+03  0.53252207856E+03  0.00000000000E+00 0.  1.
<mgrwt>
<rscale>  0 0.27171804E+04</rscale>
<asrwt>0</asrwt>
<pdfrwt beam="1">  1        2 0.51394289E+00 0.27171804E+04</pdfrwt>
<pdfrwt beam="2">  1       -1 0.85003221E-01 0.27171804E+04</pdfrwt>
<totfact> 0.14260060E+00</totfact>
</mgrwt>
</event>
<event>
12    7  0.1701638E-007  0.2991174E+04  0.7818608E-02  0.8246256E-01
          2   -1    0    0  501    0  0.00000000000E+00  0.00000000000E+00  0.14260745615E+04  0.14260745615E+04  0.00000000000E+00 0. -1.
         -1   -1    0    0    0  501 -0.00000000000E+00 -0.00000000000E+00 -0.15684874189E+04  0.15684874189E+04  0.00000000000E+00 0.  1.
         24    2    1    2    0    0  0.16711393622E+03 -0.66947270199E+03  0.11078894967E+04  0.13076379012E+04  0.79855978455E+02 0.  0.
        254    2    1    2    0    0 -0.16711393622E+03  0.66947270199E+03 -0.12503023542E+04  0.16869240793E+04  0.89796219629E+03 0.  0.
         23    2    4    4    0    0 -0.36562177755E+03  0.63112693537E+03 -0.46167202633E+03  0.86859451321E+03  0.96513603764E+02 0.  0.
         23    2    4    4    0    0  0.19850784133E+03  0.38345766617E+02 -0.78863032784E+03  0.81832956605E+03  0.82763058163E+02 0.  0.
          2    1    3    3  502    0  0.12474223588E+03 -0.38420414643E+03  0.69792780750E+03  0.80639734376E+03  0.00000000000E+00 0. -1.
         -1    1    3    3    0  502  0.42371700338E+02 -0.28526855556E+03  0.40996168922E+03  0.50124055743E+03  0.00000000000E+00 0.  1.
         13    1    5    5    0    0 -0.15832187416E+03  0.35442624085E+03 -0.21363432179E+03  0.44308396438E+03  0.00000000000E+00 0. -1.
        -13    1    5    5    0    0 -0.20729990339E+03  0.27670069452E+03 -0.24803770454E+03  0.42551054883E+03  0.00000000000E+00 0.  1.
          4    1    6    6  503    0  0.19548826230E+03  0.41708620332E+02 -0.65965261350E+03  0.68927268929E+03  0.00000000000E+00 0.  1.
         -4    1    6    6    0  503  0.30195790374E+01 -0.33628537145E+01 -0.12897771434E+03  0.12905687676E+03  0.00000000000E+00 0. -1.
<mgrwt>
<rscale>  0 0.29911737E+04</rscale>
<asrwt>0</asrwt>
<pdfrwt beam="1">  1        2 0.21939609E+00 0.29911737E+04</pdfrwt>
<pdfrwt beam="2">  1       -1 0.24130576E+00 0.29911737E+04</pdfrwt>
<totfact> 0.10842252E+00</totfact>
</mgrwt>
</event>
<event>
12    7  0.1701638E-007  0.2317534E+04  0.7818608E-02  0.8471040E-01
          2   -1    0    0  501    0  0.00000000000E+00  0.00000000000E+00  0.24563825723E+04  0.24563825723E+04  0.00000000000E+00 0. -1.
         -1   -1    0    0    0  501 -0.00000000000E+00 -0.00000000000E+00 -0.54663328913E+03  0.54663328913E+03  0.00000000000E+00 0.  1.
         24    2    1    2    0    0  0.26824801571E+03 -0.94722849474E+03  0.86706069650E+03  0.13143180025E+04  0.80241766270E+02 0.  0.
        254    2    1    2    0    0 -0.26824801571E+03  0.94722849474E+03  0.10426885866E+04  0.16886978589E+04  0.89179714670E+03 0.  0.
         23    2    4    4    0    0 -0.49050212784E+03  0.50708260043E+03  0.93639782117E+03  0.11760006959E+04  0.91715082098E+02 0.  0.
         23    2    4    4    0    0  0.22225411213E+03  0.44014589431E+03  0.10629076547E+03  0.51269716298E+03  0.91844191282E+02 0.  0.
          4    1    3    3  502    0  0.56483689680E+02 -0.20053459386E+03  0.22882094735E+03  0.30945687337E+03  0.00000000000E+00 0. -1.
         -3    1    3    3    0  502  0.21176432603E+03 -0.74669390088E+03  0.63823974915E+03  0.10048611291E+04  0.00000000000E+00 0.  1.
         13    1    5    5    0    0 -0.19494083577E+03  0.15108123468E+03  0.36941674578E+03  0.44418036988E+03  0.00000000000E+00 0.  1.
        -13    1    5    5    0    0 -0.29556129207E+03  0.35600136574E+03  0.56698107539E+03  0.73182032606E+03  0.00000000000E+00 0. -1.
          3    1    6    6  503    0  0.19775295137E+03  0.36424725508E+03  0.55557739598E+02  0.41817335524E+03  0.00000000000E+00 0. -1.
         -3    1    6    6    0  503  0.24501160762E+02  0.75898639232E+02  0.50733025870E+02  0.94523807741E+02  0.00000000000E+00 0.  1.
<mgrwt>
<rscale>  0 0.23175336E+04</rscale>
<asrwt>0</asrwt>
<pdfrwt beam="1">  1        2 0.37790500E+00 0.23175336E+04</pdfrwt>
<pdfrwt beam="2">  1       -1 0.84097430E-01 0.23175336E+04</pdfrwt>
<totfact> 0.53242535E+00</totfact>
</mgrwt>
</event>
<event>
12    7  0.1955692E-007  0.2072714E+04  0.7818608E-02  0.8573359E-01
         -1   -1    0    0    0  501 -0.00000000000E+00  0.00000000000E+00  0.48936924857E+03  0.48936924857E+03  0.00000000000E+00 0.  1.
          2   -1    0    0  501    0  0.00000000000E+00 -0.00000000000E+00 -0.21947343105E+04  0.21947343105E+04  0.00000000000E+00 0. -1.
         24    2    1    2    0    0  0.13266246675E+03  0.47019681419E+03  0.17658267959E+03  0.52816593364E+03  0.95359512170E+02 0.  0.
        254    2    1    2    0    0 -0.13266246675E+03 -0.47019681419E+03 -0.18819477415E+04  0.21559376254E+04  0.93148020310E+03 0.  0.
         23    2    4    4    0    0 -0.28518732322E+03 -0.66443772540E+03 -0.16543628069E+04  0.18078572242E+04  0.92855511682E+02 0.  0.
         23    2    4    4    0    0  0.15252485646E+03  0.19424091121E+03 -0.22758493461E+03  0.34808040120E+03  0.91496993458E+02 0.  0.
          4    1    3    3  502    0 -0.72947083154E+01  0.13242005302E+00  0.20334544583E+01  0.75739845201E+01  0.00000000000E+00 0. -1.
         -3    1    3    3    0  502  0.13995717507E+03  0.47006439414E+03  0.17454922513E+03  0.52059194912E+03  0.00000000000E+00 0.  1.
         13    1    5    5    0    0 -0.16986326270E+03 -0.49957938004E+03 -0.11820306893E+04  0.12944611371E+04  0.00000000000E+00 0.  1.
        -13    1    5    5    0    0 -0.11532406052E+03 -0.16485834537E+03 -0.47233211757E+03  0.51339608711E+03  0.00000000000E+00 0. -1.
          1    1    6    6  503    0  0.31391150563E+02  0.81977659124E+02 -0.35324318145E+02  0.94623191562E+02  0.00000000000E+00 0. -1.
         -1    1    6    6    0  503  0.12113370590E+03  0.11226325209E+03 -0.19226061647E+03  0.25345720964E+03  0.00000000000E+00 0.  1.
<mgrwt>
<rscale>  0 0.20727137E+04</rscale>
<asrwt>0</asrwt>
<pdfrwt beam="1">  1        2 0.33765143E+00 0.20727137E+04</pdfrwt>
<pdfrwt beam="2">  1       -1 0.75287577E-01 0.20727137E+04</pdfrwt>
<totfact> 0.96947175E+00</totfact>
</mgrwt>
</event>
<event>
12    7  0.1701638E-007  0.1211600E+04  0.7818608E-02  0.9102764E-01
          2   -1    0    0  501    0  0.00000000000E+00  0.00000000000E+00  0.21317136409E+04  0.21317136409E+04  0.00000000000E+00 0. -1.
         -1   -1    0    0    0  501 -0.00000000000E+00 -0.00000000000E+00 -0.17215883725E+03  0.17215883725E+03  0.00000000000E+00 0.  1.
         24    2    1    2    0    0 -0.13764575128E+03 -0.79155832734E+02  0.91475510195E+03  0.93191686427E+03  0.80499358138E+02 0.  0.
        254    2    1    2    0    0  0.13764575128E+03  0.79155832734E+02  0.10447997017E+04  0.13719556139E+04  0.87489644593E+03 0.  0.
         23    2    4    4    0    0  0.68264075985E+02  0.46591183522E+03  0.48865297161E+03  0.68474796369E+03  0.91456136167E+02 0.  0.
         23    2    4    4    0    0  0.69381675299E+02 -0.38675600248E+03  0.55614673012E+03  0.68720765023E+03  0.92526465313E+02 0.  0.
          2    1    3    3  502    0 -0.94062754043E+02 -0.80273046335E+02  0.79316913776E+03  0.80275079866E+03  0.00000000000E+00 0. -1.
         -1    1    3    3    0  502 -0.43582997241E+02  0.11172136010E+01  0.12158596419E+03  0.12916606560E+03  0.00000000000E+00 0.  1.
         13    1    5    5    0    0  0.68700376638E+02  0.16888919583E+03  0.19836864132E+03  0.26943166124E+03  0.00000000000E+00 0.  1.
        -13    1    5    5    0    0 -0.43630065377E+00  0.29702263938E+03  0.29028433029E+03  0.41531630245E+03  0.00000000000E+00 0. -1.
          4    1    6    6  503    0  0.73129720493E+02 -0.37968946068E+03  0.55811218322E+03  0.67897072958E+03  0.00000000000E+00 0. -1.
         -4    1    6    6    0  503 -0.37480451939E+01 -0.70665418053E+01 -0.19654530987E+01  0.82369206470E+01  0.00000000000E+00 0.  1.
<mgrwt>
<rscale>  0 0.12115995E+04</rscale>
<asrwt>0</asrwt>
<pdfrwt beam="1">  1        2 0.32795593E+00 0.12115995E+04</pdfrwt>
<pdfrwt beam="2">  1       -1 0.26485976E-01 0.12115995E+04</pdfrwt>
<totfact> 0.80513007E+01</totfact>
</mgrwt>
</event>
<event>
12    7  0.1701638E-007  0.1849065E+04  0.7818608E-02  0.8680634E-01
         -1   -1    0    0    0  501 -0.00000000000E+00  0.00000000000E+00  0.13642131859E+04  0.13642131859E+04  0.00000000000E+00 0.  1.
          2   -1    0    0  501    0  0.00000000000E+00 -0.00000000000E+00 -0.62655900650E+03  0.62655900650E+03  0.00000000000E+00 0. -1.
         24    2    1    2    0    0  0.20105038238E+03 -0.49345697103E+03  0.75269372860E+03  0.92454755607E+03  0.65721349960E+02 0.  0.
        254    2    1    2    0    0 -0.20105038238E+03  0.49345697103E+03 -0.15039549250E+02  0.10662246363E+04  0.92341093153E+03 0.  0.
         23    2    4    4    0    0  0.11885954011E+03  0.22372953998E+03 -0.40511627528E+03  0.48643446783E+03  0.91196478336E+02 0.  0.
         23    2    4    4    0    0 -0.31990992249E+03  0.26972743105E+03  0.39007672603E+03  0.57979016845E+03  0.94347981864E+02 0.  0.
          4    1    3    3  502    0  0.25721190659E+02 -0.31804872702E+02  0.82325784187E+02  0.91927494899E+02  0.00000000000E+00 0. -1.
         -3    1    3    3    0  502  0.17532919172E+03 -0.46165209833E+03  0.67036794442E+03  0.83262006117E+03  0.00000000000E+00 0.  1.
         13    1    5    5    0    0  0.42827265726E+01  0.24274444751E+01 -0.62925731783E+02  0.63118000238E+02  0.00000000000E+00 0.  1.
        -13    1    5    5    0    0  0.11457681354E+03  0.22130209551E+03 -0.34219054350E+03  0.42331646759E+03  0.00000000000E+00 0. -1.
          3    1    6    6  503    0 -0.17941538445E+03  0.89830966238E+02  0.17837150053E+03  0.26846950455E+03  0.00000000000E+00 0. -1.
         -3    1    6    6    0  503 -0.14049453803E+03  0.17989646481E+03  0.21170522550E+03  0.31132066390E+03  0.00000000000E+00 0.  1.
<mgrwt>
<rscale>  0 0.18490647E+04</rscale>
<asrwt>0</asrwt>
<pdfrwt beam="1">  1        2 0.96393694E-01 0.18490647E+04</pdfrwt>
<pdfrwt beam="2">  1       -1 0.20987895E+00 0.18490647E+04</pdfrwt>
<totfact> 0.65067360E+00</totfact>
</mgrwt>
</event>
<event>
12    7  0.1701638E-007  0.2315318E+04  0.7818608E-02  0.8471906E-01
         -1   -1    0    0    0  501 -0.00000000000E+00  0.00000000000E+00  0.13713567829E+04  0.13713567829E+04  0.00000000000E+00 0.  1.
          2   -1    0    0  501    0  0.00000000000E+00 -0.00000000000E+00 -0.97726189803E+03  0.97726189803E+03  0.00000000000E+00 0. -1.
         24    2    1    2    0    0 -0.95087516615E+03  0.19655321363E+03  0.31992845791E+03  0.10249638331E+04  0.73483968479E+02 0.  0.
        254    2    1    2    0    0  0.95087516615E+03 -0.19655321363E+03  0.74166426967E+02  0.13236548478E+04  0.89652928002E+03 0.  0.
         23    2    4    4    0    0  0.45285601899E+03  0.63433784553E+02 -0.37482027434E+03  0.59808241555E+03  0.90055087476E+02 0.  0.
         23    2    4    4    0    0  0.49801914716E+03 -0.25998699818E+03  0.44898670131E+03  0.72557243228E+03  0.96176849518E+02 0.  0.
          2    1    3    3  502    0 -0.72858684330E+02 -0.23064088752E+01  0.14614376687E+02  0.74345728930E+02  0.00000000000E+00 0. -1.
         -1    1    3    3    0  502 -0.87801648182E+03  0.19885962250E+03  0.30531408122E+03  0.95061810418E+03  0.00000000000E+00 0.  1.
         13    1    5    5    0    0  0.19312872903E+03  0.12563452541E+02 -0.10523932117E+03  0.22029948033E+03  0.00000000000E+00 0. -1.
        -13    1    5    5    0    0  0.25972728996E+03  0.50870332012E+02 -0.26958095317E+03  0.37778293522E+03  0.00000000000E+00 0.  1.
          1    1    6    6  503    0  0.21776764324E+03 -0.96823360590E+02  0.24851621450E+03  0.34432225962E+03  0.00000000000E+00 0. -1.
         -1    1    6    6    0  503  0.28025150391E+03 -0.16316363759E+03  0.20047048681E+03  0.38125017267E+03  0.00000000000E+00 0.  1.
<mgrwt>
<rscale>  0 0.23153183E+04</rscale>
<asrwt>0</asrwt>
<pdfrwt beam="1">  1        2 0.15034799E+00 0.23153183E+04</pdfrwt>
<pdfrwt beam="2">  1       -1 0.21097797E+00 0.23153183E+04</pdfrwt>
<totfact> 0.34062948E+00</totfact>
</mgrwt>
</event>
<event>
12    7  0.1701638E-007  0.2024419E+04  0.7818608E-02  0.8595288E-01
          2   -1    0    0  501    0  0.00000000000E+00  0.00000000000E+00  0.31081900737E+04  0.31081900737E+04  0.00000000000E+00 0. -1.
         -1   -1    0    0    0  501 -0.00000000000E+00 -0.00000000000E+00 -0.32963502675E+03  0.32963502675E+03  0.00000000000E+00 0.  1.
         24    2    1    2    0    0  0.11245782838E+03 -0.14306282349E+03  0.24704193473E+04  0.24784147127E+04  0.80336803910E+02 0.  0.
        254    2    1    2    0    0 -0.11245782838E+03  0.14306282349E+03  0.30813569971E+03  0.95941038779E+03  0.89017242607E+03 0.  0.
         23    2    4    4    0    0 -0.40840117659E+03  0.30883323164E+02  0.43768670144E+03  0.60630626582E+03  0.91062279087E+02 0.  0.
         23    2    4    4    0    0  0.29594334821E+03  0.11217950032E+03 -0.12955100173E+03  0.35310412197E+03  0.87933800428E+02 0.  0.
          4    1    3    3  502    0  0.41075616455E+02 -0.76765056541E+02  0.16383392547E+04  0.16406509664E+04  0.00000000000E+00 0. -1.
         -1    1    3    3    0  502  0.71382211920E+02 -0.66297766945E+02  0.83208009260E+03  0.83776374628E+03  0.00000000000E+00 0.  1.
         13    1    5    5    0    0 -0.29966717290E+03  0.24331008261E+02  0.37493903664E+03  0.48059514529E+03  0.00000000000E+00 0. -1.
        -13    1    5    5    0    0 -0.10873400369E+03  0.65523149028E+01  0.62747664796E+02  0.12571112054E+03  0.00000000000E+00 0.  1.
          3    1    6    6  503    0  0.26166421429E+03  0.84357727438E+02 -0.13883046992E+03  0.30799072486E+03  0.00000000000E+00 0. -1.
         -3    1    6    6    0  503  0.34279133923E+02  0.27821772884E+02  0.92794681949E+01  0.45113397111E+02  0.00000000000E+00 0.  1.
<mgrwt>
<rscale>  0 0.20244192E+04</rscale>
<asrwt>0</asrwt>
<pdfrwt beam="1">  1        2 0.47818307E+00 0.20244192E+04</pdfrwt>
<pdfrwt beam="2">  1       -1 0.50713083E-01 0.20244192E+04</pdfrwt>
<totfact> 0.61471991E+00</totfact>
</mgrwt>
</event>
<event>
12    7  0.1701638E-007  0.3424512E+04  0.7818608E-02  0.8131916E-01
          2   -1    0    0  501    0  0.00000000000E+00  0.00000000000E+00  0.28195148870E+04  0.28195148870E+04  0.00000000000E+00 0. -1.
         -1   -1    0    0    0  501 -0.00000000000E+00 -0.00000000000E+00 -0.10398313775E+04  0.10398313775E+04  0.00000000000E+00 0.  1.
         24    2    1    2    0    0 -0.59365539393E+03 -0.61389055148E+03  0.23438352034E+04  0.24958617153E+04  0.80460581978E+02 0.  0.
        254    2    1    2    0    0  0.59365539393E+03  0.61389055148E+03 -0.56415169392E+03  0.13634845491E+04  0.90085217768E+03 0.  0.
         23    2    4    4    0    0  0.25452454031E+03 -0.18459743119E+03 -0.78075109700E+01  0.32781541439E+03  0.92428542450E+02 0.  0.
         23    2    4    4    0    0  0.33913085362E+03  0.79848798268E+03 -0.55634418295E+03  0.10356691347E+04  0.10246420062E+03 0.  0.
          4    1    3    3  502    0 -0.52720524921E+03 -0.56760065725E+03  0.20658711211E+04  0.22063407194E+04  0.00000000000E+00 0. -1.
         -3    1    3    3    0  502 -0.66450144723E+02 -0.46289894232E+02  0.27796408227E+03  0.28952099591E+03  0.00000000000E+00 0.  1.
         13    1    5    5    0    0  0.53253308081E+02 -0.31129196384E+01  0.16183387925E+02  0.55745018926E+02  0.00000000000E+00 0. -1.
        -13    1    5    5    0    0  0.20127123223E+03 -0.18148451155E+03 -0.23990898895E+02  0.27207039546E+03  0.00000000000E+00 0.  1.
          4    1    6    6  503    0  0.13577399583E+03  0.20787195564E+03 -0.14078546983E+03  0.28542227734E+03  0.00000000000E+00 0. -1.
         -4    1    6    6    0  503  0.20335685779E+03  0.59061602703E+03 -0.41555871313E+03  0.75024685741E+03  0.00000000000E+00 0.  1.
<mgrwt>
<rscale>  0 0.34245117E+04</rscale>
<asrwt>0</asrwt>
<pdfrwt beam="1">  1        2 0.43377152E+00 0.34245117E+04</pdfrwt>
<pdfrwt beam="2">  1       -1 0.15997406E+00 0.34245117E+04</pdfrwt>
<totfact> 0.61757655E-01</totfact>
</mgrwt>
</event>
<event>
12    7  0.1701638E-007  0.1972817E+04  0.7818608E-02  0.8619436E-01
          2   -1    0    0  501    0  0.00000000000E+00  0.00000000000E+00  0.95730109785E+03  0.95730109785E+03  0.00000000000E+00 0. -1.
         -1   -1    0    0    0  501 -0.00000000000E+00 -0.00000000000E+00 -0.10164012365E+04  0.10164012365E+04  0.00000000000E+00 0.  1.
         24    2    1    2    0    0  0.61844403204E+03 -0.42359543685E+03  0.14522400219E+03  0.76788601671E+03  0.81564753183E+02 0.  0.
        254    2    1    2    0    0 -0.61844403204E+03  0.42359543685E+03 -0.20432414084E+03  0.12058163176E+04  0.92213801704E+03 0.  0.
         23    2    4    4    0    0 -0.21893609119E+03 -0.49600654637E+01  0.33142854460E+03  0.40659500276E+03  0.86700644843E+02 0.  0.
         23    2    4    4    0    0 -0.39950794085E+03  0.42855550231E+03 -0.53575268544E+03  0.79922131488E+03  0.91963888802E+02 0.  0.
          2    1    3    3  502    0  0.60115715472E+03 -0.42207599461E+03  0.13254837150E+03  0.74639610173E+03  0.00000000000E+00 0. -1.
         -1    1    3    3    0  502  0.17286877325E+02 -0.15194422376E+01  0.12675630693E+02  0.21489914979E+02  0.00000000000E+00 0.  1.
         13    1    5    5    0    0 -0.16590224832E+03  0.19723866885E+02  0.29078929008E+03  0.33536696043E+03  0.00000000000E+00 0. -1.
        -13    1    5    5    0    0 -0.53033842876E+02 -0.24683932349E+02  0.40639254523E+02  0.71228042333E+02  0.00000000000E+00 0.  1.
          3    1    6    6  503    0 -0.20915279133E+03  0.17019237338E+03 -0.28132842025E+03  0.38968707205E+03  0.00000000000E+00 0. -1.
         -3    1    6    6    0  503 -0.19035514952E+03  0.25836312893E+03 -0.25442426519E+03  0.40953424284E+03  0.00000000000E+00 0.  1.
<mgrwt>
<rscale>  0 0.19728173E+04</rscale>
<asrwt>0</asrwt>
<pdfrwt beam="1">  1        2 0.14727709E+00 0.19728173E+04</pdfrwt>
<pdfrwt beam="2">  1       -1 0.15636942E+00 0.19728173E+04</pdfrwt>
<totfact> 0.88846097E+00</totfact>
</mgrwt>
</event>
<event>
12    7  0.1701638E-007  0.1447435E+04  0.7818608E-02  0.8920181E-01
         -1   -1    0    0    0  501 -0.00000000000E+00  0.00000000000E+00  0.28834949731E+03  0.28834949731E+03  0.00000000000E+00 0.  1.
          2   -1    0    0  501    0  0.00000000000E+00 -0.00000000000E+00 -0.18164306325E+04  0.18164306325E+04  0.00000000000E+00 0. -1.
         24    2    1    2    0    0  0.97203591069E+02  0.29163543092E+03 -0.92751616555E+03  0.98029245238E+03  0.78659342356E+02 0.  0.
        254    2    1    2    0    0 -0.97203591069E+02 -0.29163543092E+03 -0.60056496961E+03  0.11244876774E+04  0.89960796530E+03 0.  0.
         23    2    4    4    0    0  0.11019279517E+02  0.31305908470E+03 -0.16554656729E+03  0.36582568038E+03  0.91078798029E+02 0.  0.
         23    2    4    4    0    0 -0.10822287059E+03 -0.60469451562E+03 -0.43501840232E+03  0.75866199702E+03  0.94653940390E+02 0.  0.
          2    1    3    3  502    0  0.60129191976E+02  0.23079445273E+03 -0.79279080022E+03  0.82788818814E+03  0.00000000000E+00 0. -1.
         -1    1    3    3    0  502  0.37074399093E+02  0.60840978186E+02 -0.13472536533E+03  0.15240426424E+03  0.00000000000E+00 0.  1.
         13    1    5    5    0    0  0.35285811359E+02  0.26077455987E+03 -0.10823244630E+03  0.28453949109E+03  0.00000000000E+00 0.  1.
        -13    1    5    5    0    0 -0.24266531842E+02  0.52284524827E+02 -0.57314120986E+02  0.81286189284E+02  0.00000000000E+00 0. -1.
          1    1    6    6  503    0 -0.38413702829E+02 -0.76450952385E+02 -0.35269181540E+02  0.92543372816E+02  0.00000000000E+00 0. -1.
         -1    1    6    6    0  503 -0.69809167758E+02 -0.52824356323E+03 -0.39974922078E+03  0.66611862421E+03  0.00000000000E+00 0.  1.
<mgrwt>
<rscale>  0 0.14474348E+04</rscale>
<asrwt>0</asrwt>
<pdfrwt beam="1">  1        2 0.27945087E+00 0.14474348E+04</pdfrwt>
<pdfrwt beam="2">  1       -1 0.44361461E-01 0.14474348E+04</pdfrwt>
<totfact> 0.46965186E+01</totfact>
</mgrwt>
</event>
<event>
12    7  0.1701638E-007  0.2548597E+04  0.7818608E-02  0.8385874E-01
         -1   -1    0    0    0  501 -0.00000000000E+00  0.00000000000E+00  0.15533705256E+04  0.15533705256E+04  0.00000000000E+00 0.  1.
          2   -1    0    0  501    0  0.00000000000E+00 -0.00000000000E+00 -0.10453636120E+04  0.10453636120E+04  0.00000000000E+00 0. -1.
         24    2    1    2    0    0 -0.69696640513E+03 -0.40124130505E+03  0.10106916550E+04  0.12945523205E+04  0.87242960255E+02 0.  0.
        254    2    1    2    0    0  0.69696640513E+03  0.40124130505E+03 -0.50268474148E+03  0.13041818172E+04  0.89523265589E+03 0.  0.
         23    2    4    4    0    0  0.18529491911E+03 -0.16596508439E+03 -0.46371800199E+03  0.53425697604E+03  0.92290382977E+02 0.  0.
         23    2    4    4    0    0  0.51167148602E+03  0.56720638944E+03 -0.38966739488E+02  0.76992484113E+03  0.87949169266E+02 0.  0.
          2    1    3    3  502    0 -0.17541532280E+03 -0.11305594933E+03  0.20581992135E+03  0.29311094005E+03  0.00000000000E+00 0. -1.
         -1    1    3    3    0  502 -0.52155108233E+03 -0.28818535572E+03  0.80487173368E+03  0.10014413804E+04  0.00000000000E+00 0.  1.
         13    1    5    5    0    0 -0.96028239174E+01 -0.69117210023E+01 -0.37669291193E+02  0.39483687940E+02  0.00000000000E+00 0. -1.
        -13    1    5    5    0    0  0.19489774303E+03 -0.15905336339E+03 -0.42604871080E+03  0.49477328810E+03  0.00000000000E+00 0.  1.
          2    1    6    6  503    0  0.43599670058E+01  0.15310633548E+02  0.98177398096E+01  0.18703283853E+02  0.00000000000E+00 0. -1.
         -2    1    6    6    0  503  0.50731151901E+03  0.55189575589E+03 -0.48784479298E+02  0.75122155727E+03  0.00000000000E+00 0.  1.
<mgrwt>
<rscale>  0 0.25485973E+04</rscale>
<asrwt>0</asrwt>
<pdfrwt beam="1">  1        2 0.16082517E+00 0.25485973E+04</pdfrwt>
<pdfrwt beam="2">  1       -1 0.23898008E+00 0.25485973E+04</pdfrwt>
<totfact> 0.19648280E+00</totfact>
</mgrwt>
</event>
<event>
12    7  0.1701638E-007  0.2462176E+04  0.7818608E-02  0.8416586E-01
          2   -1    0    0  501    0  0.00000000000E+00  0.00000000000E+00  0.27184650106E+04  0.27184650106E+04  0.00000000000E+00 0. -1.
         -1   -1    0    0    0  501 -0.00000000000E+00 -0.00000000000E+00 -0.55751233136E+03  0.55751233136E+03  0.00000000000E+00 0.  1.
         24    2    1    2    0    0  0.97279139125E+03 -0.40860927497E+03  0.74203917384E+03  0.12934264239E+04  0.95105983713E+02 0.  0.
        254    2    1    2    0    0 -0.97279139125E+03  0.40860927497E+03  0.14189135054E+04  0.19825509181E+04  0.89660915474E+03 0.  0.
         23    2    4    4    0    0 -0.35195584721E+03 -0.26900637809E+03  0.36366315225E+03  0.58023153125E+03  0.90445517947E+02 0.  0.
         23    2    4    4    0    0 -0.62083554403E+03  0.67761565306E+03  0.10552503532E+04  0.14023193868E+04  0.91359776356E+02 0.  0.
          4    1    3    3  502    0  0.97284189234E+03 -0.41014096071E+03  0.73547526054E+03  0.12866859811E+04  0.00000000000E+00 0. -1.
         -3    1    3    3    0  502 -0.50501090365E-01  0.15316857327E+01  0.65639133031E+01  0.67404428189E+01  0.00000000000E+00 0.  1.
         13    1    5    5    0    0 -0.15696579242E+03 -0.81340977897E+02  0.10363585106E+03  0.20492682670E+03  0.00000000000E+00 0. -1.
        -13    1    5    5    0    0 -0.19499005479E+03 -0.18766540019E+03  0.26002730119E+03  0.37530470456E+03  0.00000000000E+00 0.  1.
          4    1    6    6  503    0 -0.36972815550E+03  0.37651396163E+03  0.66754690278E+03  0.85092922132E+03  0.00000000000E+00 0. -1.
         -4    1    6    6    0  503 -0.25110738853E+03  0.30110169143E+03  0.38770345040E+03  0.55139016550E+03  0.00000000000E+00 0.  1.
<mgrwt>
<rscale>  0 0.24621761E+04</rscale>
<asrwt>0</asrwt>
<pdfrwt beam="1">  1        2 0.41822538E+00 0.24621761E+04</pdfrwt>
<pdfrwt beam="2">  1       -1 0.85771129E-01 0.24621761E+04</pdfrwt>
<totfact> 0.35363911E+00</totfact>
</mgrwt>
</event>
<event>
12    7  0.1701638E-007  0.1842851E+04  0.7818608E-02  0.8683838E-01
          2   -1    0    0  501    0  0.00000000000E+00  0.00000000000E+00  0.94717587518E+03  0.94717587518E+03  0.00000000000E+00 0. -1.
         -1   -1    0    0    0  501 -0.00000000000E+00 -0.00000000000E+00 -0.89637531411E+03  0.89637531411E+03  0.00000000000E+00 0.  1.
         24    2    1    2    0    0  0.76819989686E+02  0.61402256147E+03 -0.30566496909E+03  0.69455007056E+03  0.77741304147E+02 0.  0.
        254    2    1    2    0    0 -0.76819989686E+02 -0.61402256147E+03  0.35646553016E+03  0.11490011187E+04  0.90011714784E+03 0.  0.
         23    2    4    4    0    0  0.11528586353E+03 -0.59589881315E+03 -0.12176925857E+03  0.62534408146E+03  0.88550787864E+02 0.  0.
         23    2    4    4    0    0 -0.19210585322E+03 -0.18123748323E+02  0.47823478873E+03  0.52365703727E+03  0.90967304231E+02 0.  0.
          2    1    3    3  502    0 -0.45957013771E+01  0.42311581080E+00 -0.13365880902E+01  0.48047857246E+01  0.00000000000E+00 0. -1.
         -1    1    3    3    0  502  0.81415691063E+02  0.61359944566E+03 -0.30432838100E+03  0.68974528484E+03  0.00000000000E+00 0.  1.
         13    1    5    5    0    0  0.11889264781E+03 -0.39697737003E+03 -0.79861599519E+02  0.42202413331E+03  0.00000000000E+00 0.  1.
        -13    1    5    5    0    0 -0.36067842729E+01 -0.19892144312E+03 -0.41907659055E+02  0.20331994814E+03  0.00000000000E+00 0. -1.
          2    1    6    6  503    0 -0.18855752995E+03 -0.15433006582E+02  0.37214081722E+03  0.41746964876E+03  0.00000000000E+00 0.  1.
         -2    1    6    6    0  503 -0.35483232740E+01 -0.26907417408E+01  0.10609397151E+03  0.10618738852E+03  0.00000000000E+00 0. -1.
<mgrwt>
<rscale>  0 0.18428511E+04</rscale>
<asrwt>0</asrwt>
<pdfrwt beam="1">  1        2 0.14571937E+00 0.18428511E+04</pdfrwt>
<pdfrwt beam="2">  1       -1 0.13790389E+00 0.18428511E+04</pdfrwt>
<totfact> 0.12763112E+01</totfact>
</mgrwt>
</event>
<event>
12    7  0.1701638E-007  0.1225916E+04  0.7818608E-02  0.9090470E-01
          2   -1    0    0  501    0  0.00000000000E+00  0.00000000000E+00  0.10398080036E+04  0.10398080036E+04  0.00000000000E+00 0. -1.
         -1   -1    0    0    0  501 -0.00000000000E+00 -0.00000000000E+00 -0.36133348356E+03  0.36133348356E+03  0.00000000000E+00 0.  1.
         24    2    1    2    0    0  0.15514310108E+03  0.11129409204E+03  0.37894516126E+03  0.43164159460E+03  0.79115575053E+02 0.  0.
        254    2    1    2    0    0 -0.15514310108E+03 -0.11129409204E+03  0.29952935877E+03  0.96949989255E+03  0.90208450167E+03 0.  0.
         23    2    4    4    0    0 -0.95984886629E+02 -0.46587438873E+03 -0.13165168757E+02  0.48430642343E+03  0.90151791836E+02 0.  0.
         23    2    4    4    0    0 -0.59158214455E+02  0.35458029669E+03  0.31269452753E+03  0.48519346912E+03  0.91694895104E+02 0.  0.
          4    1    3    3  502    0  0.96732228341E+02  0.74596111685E+02  0.31389276659E+03  0.33682394926E+03  0.00000000000E+00 0. -1.
         -3    1    3    3    0  502  0.58410872743E+02  0.36697980357E+02  0.65052394670E+02  0.94817645347E+02  0.00000000000E+00 0.  1.
         13    1    5    5    0    0 -0.16003685639E+02 -0.15696689310E+03 -0.43795077390E+02  0.16374593823E+03  0.00000000000E+00 0.  1.
        -13    1    5    5    0    0 -0.79981200990E+02 -0.30890749563E+03  0.30629908633E+02  0.32056048520E+03  0.00000000000E+00 0. -1.
          4    1    6    6  503    0 -0.49173734694E+02  0.35720206860E+03  0.30207682422E+03  0.47038471672E+03  0.00000000000E+00 0. -1.
         -4    1    6    6    0  503 -0.99844797614E+01 -0.26217719036E+01  0.10617703310E+02  0.14808752398E+02  0.00000000000E+00 0.  1.
<mgrwt>
<rscale>  0 0.12259159E+04</rscale>
<asrwt>0</asrwt>
<pdfrwt beam="1">  1        2 0.15997046E+00 0.12259159E+04</pdfrwt>
<pdfrwt beam="2">  1       -1 0.55589767E-01 0.12259159E+04</pdfrwt>
<totfact> 0.87341385E+01</totfact>
</mgrwt>
</event>
<event>
12    7  0.1701638E-007  0.1857145E+04  0.7818608E-02  0.8676487E-01
          2   -1    0    0  501    0  0.00000000000E+00  0.00000000000E+00  0.31149195027E+04  0.31149195027E+04  0.00000000000E+00 0. -1.
         -1   -1    0    0    0  501 -0.00000000000E+00 -0.00000000000E+00 -0.27681178731E+03  0.27681178731E+03  0.00000000000E+00 0.  1.
         24    2    1    2    0    0 -0.34036085345E+03  0.60022376210E+03  0.12682365907E+04  0.14460371535E+04  0.80531509963E+02 0.  0.
        254    2    1    2    0    0  0.34036085345E+03 -0.60022376210E+03  0.15698711247E+04  0.19456941365E+04  0.91930204486E+03 0.  0.
         23    2    4    4    0    0 -0.14068636838E+03 -0.28800037961E+03  0.12274123084E+04  0.12718397967E+04  0.91096766366E+02 0.  0.
         23    2    4    4    0    0  0.48104722183E+03 -0.31222338248E+03  0.34245881631E+03  0.67385433982E+03  0.88948076046E+02 0.  0.
          4    1    3    3  502    0 -0.29691691994E+03  0.53867089203E+03  0.10733668226E+04  0.12371104733E+04  0.00000000000E+00 0. -1.
         -3    1    3    3    0  502 -0.43443933518E+02  0.61552870068E+02  0.19486976818E+03  0.20892668026E+03  0.00000000000E+00 0.  1.
         13    1    5    5    0    0 -0.81260204636E+02 -0.73148327916E+02  0.45063113686E+03  0.46370499269E+03  0.00000000000E+00 0.  1.
        -13    1    5    5    0    0 -0.59426163740E+02 -0.21485205170E+03  0.77678117152E+03  0.80813480403E+03  0.00000000000E+00 0. -1.
          3    1    6    6  503    0  0.36261302966E+03 -0.20098854879E+03  0.21299311974E+03  0.46610157164E+03  0.00000000000E+00 0. -1.
         -3    1    6    6    0  503  0.11843419216E+03 -0.11123483370E+03  0.12946569657E+03  0.20775276818E+03  0.00000000000E+00 0.  1.
<mgrwt>
<rscale>  0 0.18571445E+04</rscale>
<asrwt>0</asrwt>
<pdfrwt beam="1">  1        2 0.47921836E+00 0.18571445E+04</pdfrwt>
<pdfrwt beam="2">  1       -1 0.42586431E-01 0.18571445E+04</pdfrwt>
<totfact> 0.85819483E+00</totfact>
</mgrwt>
</event>
<event>
12    7  0.1701638E-007  0.1169030E+04  0.7818608E-02  0.9140405E-01
         -1   -1    0    0    0  501 -0.00000000000E+00  0.00000000000E+00  0.95261823669E+03  0.95261823669E+03  0.00000000000E+00 0.  1.
          2   -1    0    0  501    0  0.00000000000E+00 -0.00000000000E+00 -0.35865143800E+03  0.35865143800E+03  0.00000000000E+00 0. -1.
         24    2    1    2    0    0  0.60424992401E+02  0.32934857074E+02  0.36981131676E+03  0.38435034383E+03  0.78923331645E+02 0.  0.
        254    2    1    2    0    0 -0.60424992401E+02 -0.32934857074E+02  0.22415548193E+03  0.92691933086E+03  0.89677080757E+03 0.  0.
         23    2    4    4    0    0  0.93020519433E+02 -0.43367087073E+03  0.16867472117E+03  0.48311956739E+03  0.90719973981E+02 0.  0.
         23    2    4    4    0    0 -0.15344551183E+03  0.40073601366E+03  0.55480760762E+02  0.44379976346E+03  0.98717969437E+02 0.  0.
          2    1    3    3  502    0 -0.61953369056E+01  0.24161855478E+02  0.35711326533E+02  0.43560031017E+02  0.00000000000E+00 0. -1.
         -1    1    3    3    0  502  0.66620329307E+02  0.87730015960E+01  0.33409999023E+03  0.34079031281E+03  0.00000000000E+00 0.  1.
         13    1    5    5    0    0  0.48991539887E+02 -0.30197327074E+03  0.73066701574E+02  0.31452626298E+03  0.00000000000E+00 0. -1.
        -13    1    5    5    0    0  0.44028979546E+02 -0.13169759999E+03  0.95608019595E+02  0.16859330442E+03  0.00000000000E+00 0.  1.
          3    1    6    6  503    0 -0.11075953274E+03  0.20375215702E+03  0.68523494887E+02  0.24182242438E+03  0.00000000000E+00 0. -1.
         -3    1    6    6    0  503 -0.42685979089E+02  0.19698385664E+03 -0.13042734126E+02  0.20197733908E+03  0.00000000000E+00 0.  1.
<mgrwt>
<rscale>  0 0.11690302E+04</rscale>
<asrwt>0</asrwt>
<pdfrwt beam="1">  1        2 0.55177145E-01 0.11690302E+04</pdfrwt>
<pdfrwt beam="2">  1       -1 0.14655665E+00 0.11690302E+04</pdfrwt>
<totfact> 0.37805308E+01</totfact>
</mgrwt>
</event>
<event>
12    7  0.1701638E-007  0.1381902E+04  0.7818608E-02  0.8967024E-01
          2   -1    0    0  501    0  0.00000000000E+00  0.00000000000E+00  0.26904605188E+04  0.26904605188E+04  0.00000000000E+00 0. -1.
         -1   -1    0    0    0  501 -0.00000000000E+00 -0.00000000000E+00 -0.17744679039E+03  0.17744679039E+03  0.00000000000E+00 0.  1.
         24    2    1    2    0    0 -0.54772619634E+01  0.20585297544E+03  0.31028344354E+02  0.22211167600E+03  0.77235940898E+02 0.  0.
        254    2    1    2    0    0  0.54772619634E+01 -0.20585297544E+03  0.24819853841E+04  0.26457956332E+04  0.89307202285E+03 0.  0.
         23    2    4    4    0    0 -0.40802905289E+03 -0.21383104794E+01  0.14997963135E+04  0.15572177933E+04  0.95110427692E+02 0.  0.
         23    2    4    4    0    0  0.41350631485E+03 -0.20371466496E+03  0.98218907056E+03  0.10885778399E+04  0.88426274298E+02 0.  0.
          4    1    3    3  502    0 -0.98460775300E+01  0.10347297508E+03  0.53947824509E+02  0.11710665901E+03  0.00000000000E+00 0. -1.
         -3    1    3    3    0  502  0.43688155666E+01  0.10238000036E+03 -0.22919480155E+02  0.10500501699E+03  0.00000000000E+00 0.  1.
         13    1    5    5    0    0 -0.25684696889E+03 -0.27964287150E+02  0.10740573126E+04  0.11046951966E+04  0.00000000000E+00 0.  1.
        -13    1    5    5    0    0 -0.15118208400E+03  0.25825976671E+02  0.42573900095E+03  0.45252259670E+03  0.00000000000E+00 0. -1.
          4    1    6    6  503    0  0.97907596424E+02 -0.92644212279E+02  0.28382851359E+03  0.31420928158E+03  0.00000000000E+00 0. -1.
         -4    1    6    6    0  503  0.31559871843E+03 -0.11107045269E+03  0.69836055697E+03  0.77436855828E+03  0.00000000000E+00 0.  1.
<mgrwt>
<rscale>  0 0.13819024E+04</rscale>
<asrwt>0</asrwt>
<pdfrwt beam="1">  1        2 0.41391697E+00 0.13819024E+04</pdfrwt>
<pdfrwt beam="2">  1       -1 0.27299508E-01 0.13819024E+04</pdfrwt>
<totfact> 0.36137564E+01</totfact>
</mgrwt>
</event>
<event>
12    7  0.1701638E-007  0.1319165E+04  0.7818608E-02  0.9014504E-01
         -1   -1    0    0    0  501 -0.00000000000E+00  0.00000000000E+00  0.20526288895E+03  0.20526288895E+03  0.00000000000E+00 0.  1.
          2   -1    0    0  501    0  0.00000000000E+00 -0.00000000000E+00 -0.21194716597E+04  0.21194716597E+04  0.00000000000E+00 0. -1.
         24    2    1    2    0    0  0.12953131492E+02  0.20840643336E+02  0.91626800627E+02  0.12529321568E+03  0.81858434344E+02 0.  0.
        254    2    1    2    0    0 -0.12953131492E+02 -0.20840643336E+02 -0.20058355714E+04  0.21994413329E+04  0.90197767251E+03 0.  0.
         23    2    4    4    0    0  0.29291846499E+03 -0.29364031349E+03 -0.13959146071E+04  0.14590419391E+04  0.90553459375E+02 0.  0.
         23    2    4    4    0    0 -0.30587159649E+03  0.27279967016E+03 -0.60992096427E+03  0.74039939382E+03  0.90612284675E+02 0.  0.
          4    1    3    3  502    0  0.26844892274E+02  0.33258123047E+02  0.13272385273E+02  0.44753851238E+02  0.00000000000E+00 0. -1.
         -3    1    3    3    0  502 -0.13891760782E+02 -0.12417479710E+02  0.78354415354E+02  0.80539364446E+02  0.00000000000E+00 0.  1.
         13    1    5    5    0    0  0.11468315623E+03 -0.14121077332E+03 -0.75375296306E+03  0.77539424691E+03  0.00000000000E+00 0.  1.
        -13    1    5    5    0    0  0.17823530876E+03 -0.15242954018E+03 -0.64216164402E+03  0.68364769220E+03  0.00000000000E+00 0. -1.
          1    1    6    6  503    0 -0.19723547699E+03  0.13458911392E+03 -0.40743459052E+03  0.47224888408E+03  0.00000000000E+00 0. -1.
         -1    1    6    6    0  503 -0.10863611950E+03  0.13821055624E+03 -0.20248637376E+03  0.26815050974E+03  0.00000000000E+00 0.  1.
<mgrwt>
<rscale>  0 0.13191647E+04</rscale>
<asrwt>0</asrwt>
<pdfrwt beam="1">  1        2 0.32607256E+00 0.13191647E+04</pdfrwt>
<pdfrwt beam="2">  1       -1 0.31578907E-01 0.13191647E+04</pdfrwt>
<totfact> 0.59644506E+01</totfact>
</mgrwt>
</event>
<event>
12    7  0.1701638E-007  0.2837253E+04  0.7818608E-02  0.8291795E-01
         -1   -1    0    0    0  501 -0.00000000000E+00  0.00000000000E+00  0.80342501426E+03  0.80342501426E+03  0.00000000000E+00 0.  1.
          2   -1    0    0  501    0  0.00000000000E+00 -0.00000000000E+00 -0.25049021953E+04  0.25049021953E+04  0.00000000000E+00 0. -1.
         24    2    1    2    0    0  0.93141311937E+03  0.37467692315E+03  0.15030822706E+03  0.10177539184E+04  0.72919679223E+02 0.  0.
        254    2    1    2    0    0 -0.93141311937E+03 -0.37467692315E+03 -0.18517854081E+04  0.22905732912E+04  0.89983532318E+03 0.  0.
         23    2    4    4    0    0 -0.30701859200E+03  0.20983452734E+03 -0.20880307452E+03  0.43600556415E+03  0.90615580002E+02 0.  0.
         23    2    4    4    0    0 -0.62439452736E+03 -0.58451145049E+03 -0.16429823336E+04  0.18545677270E+04  0.92240685517E+02 0.  0.
          2    1    3    3  502    0  0.13626995560E+02  0.11034109848E+02 -0.54022103156E+01  0.18347492047E+02  0.00000000000E+00 0. -1.
         -1    1    3    3    0  502  0.91778612381E+03  0.36364281331E+03  0.15571043738E+03  0.99940642635E+03  0.00000000000E+00 0.  1.
         13    1    5    5    0    0 -0.14685231450E+03  0.14682782971E+03 -0.14105205148E+03  0.25103723843E+03  0.00000000000E+00 0. -1.
        -13    1    5    5    0    0 -0.16016627751E+03  0.63006697626E+02 -0.67751023038E+02  0.18496832572E+03  0.00000000000E+00 0.  1.
          3    1    6    6  503    0 -0.22930110029E+03 -0.24598729341E+03 -0.56286376350E+03  0.65567092308E+03  0.00000000000E+00 0. -1.
         -3    1    6    6    0  503 -0.39509342707E+03 -0.33852415708E+03 -0.10801185701E+04  0.11988968039E+04  0.00000000000E+00 0.  1.
<mgrwt>
<rscale>  0 0.28372530E+04</rscale>
<asrwt>0</asrwt>
<pdfrwt beam="1">  1        2 0.38536956E+00 0.28372530E+04</pdfrwt>
<pdfrwt beam="2">  1       -1 0.12360385E+00 0.28372530E+04</pdfrwt>
<totfact> 0.19622717E+00</totfact>
</mgrwt>
</event>
<event>
12    7  0.1701638E-007  0.1918456E+04  0.7818608E-02  0.8645724E-01
         -1   -1    0    0    0  501 -0.00000000000E+00  0.00000000000E+00  0.29403831572E+03  0.29403831572E+03  0.00000000000E+00 0.  1.
          2   -1    0    0  501    0  0.00000000000E+00 -0.00000000000E+00 -0.31292454672E+04  0.31292454672E+04  0.00000000000E+00 0. -1.
         24    2    1    2    0    0 -0.31125355280E+03 -0.27346503006E+03 -0.21833817154E+04  0.22238747761E+04  0.82470647853E+02 0.  0.
        254    2    1    2    0    0  0.31125355280E+03  0.27346503006E+03 -0.65182543603E+03  0.11994090068E+04  0.91762937492E+03 0.  0.
         23    2    4    4    0    0  0.50450959874E+03  0.39482914772E+03 -0.18651468351E+03  0.67317330490E+03  0.89188453067E+02 0.  0.
         23    2    4    4    0    0 -0.19325604594E+03 -0.12136411766E+03 -0.46531075252E+03  0.52623570188E+03  0.91284002830E+02 0.  0.
          2    1    3    3  502    0 -0.18518047914E+03 -0.13013010593E+03 -0.13559103901E+04  0.13746703751E+04  0.00000000000E+00 0. -1.
         -1    1    3    3    0  502 -0.12607307366E+03 -0.14333492412E+03 -0.82747132533E+03  0.84920440097E+03  0.00000000000E+00 0.  1.
         13    1    5    5    0    0  0.60062720770E+02  0.63142743789E+02 -0.55558052130E+02  0.10335005407E+03  0.00000000000E+00 0.  1.
        -13    1    5    5    0    0  0.44444687797E+03  0.33168640393E+03 -0.13095663138E+03  0.56982325084E+03  0.00000000000E+00 0. -1.
          3    1    6    6  503    0 -0.62701346630E+02  0.30958656125E+01 -0.15625792025E+03  0.16839709289E+03  0.00000000000E+00 0. -1.
         -3    1    6    6    0  503 -0.13055469931E+03 -0.12445998327E+03 -0.30905283228E+03  0.35783860899E+03  0.00000000000E+00 0.  1.
<mgrwt>
<rscale>  0 0.19184557E+04</rscale>
<asrwt>0</asrwt>
<pdfrwt beam="1">  1        2 0.48142239E+00 0.19184557E+04</pdfrwt>
<pdfrwt beam="2">  1       -1 0.45236663E-01 0.19184557E+04</pdfrwt>
<totfact> 0.74682072E+00</totfact>
</mgrwt>
</event>
<event>
12    7  0.1701638E-007  0.2338190E+04  0.7818608E-02  0.8463014E-01
         -1   -1    0    0    0  501 -0.00000000000E+00  0.00000000000E+00  0.17157541146E+04  0.17157541146E+04  0.00000000000E+00 0.  1.
          2   -1    0    0  501    0  0.00000000000E+00 -0.00000000000E+00 -0.79660806618E+03  0.79660806618E+03  0.00000000000E+00 0. -1.
         24    2    1    2    0    0  0.91084896104E+03  0.36766267472E+03  0.53036148187E+03  0.11191699633E+04  0.80227383841E+02 0.  0.
        254    2    1    2    0    0 -0.91084896104E+03 -0.36766267472E+03  0.38878456653E+03  0.13931922174E+04  0.90830030462E+03 0.  0.
         23    2    4    4    0    0 -0.32460998386E+03 -0.60983547697E+03  0.21499024739E+03  0.72918490714E+03  0.90657993213E+02 0.  0.
         23    2    4    4    0    0 -0.58623897718E+03  0.24217280225E+03  0.17379431914E+03  0.66400731031E+03  0.91528346747E+02 0.  0.
          2    1    3    3  502    0  0.33309075893E+03  0.12854527906E+03  0.14984580238E+03  0.38720421865E+03  0.00000000000E+00 0. -1.
         -1    1    3    3    0  502  0.57775820211E+03  0.23911739566E+03  0.38051567950E+03  0.73196574466E+03  0.00000000000E+00 0.  1.
         13    1    5    5    0    0  0.28233478738E+01 -0.34980286645E+02  0.13693867573E+02  0.37671126292E+02  0.00000000000E+00 0.  1.
        -13    1    5    5    0    0 -0.32743333174E+03 -0.57485519033E+03  0.20129637982E+03  0.69151378085E+03  0.00000000000E+00 0. -1.
          4    1    6    6  503    0 -0.23864598351E+02  0.29736733831E+02 -0.35512185121E+00  0.38130283305E+02  0.00000000000E+00 0.  1.
         -4    1    6    6    0  503 -0.56237437883E+03  0.21243606842E+03  0.17414944099E+03  0.62587702700E+03  0.00000000000E+00 0. -1.
<mgrwt>
<rscale>  0 0.23381904E+04</rscale>
<asrwt>0</asrwt>
<pdfrwt beam="1">  1        2 0.12255509E+00 0.23381904E+04</pdfrwt>
<pdfrwt beam="2">  1       -1 0.26396217E+00 0.23381904E+04</pdfrwt>
<totfact> 0.20197248E+00</totfact>
</mgrwt>
</event>
<event>
12    7  0.1701638E-007  0.1371678E+04  0.7818608E-02  0.8974578E-01
          2   -1    0    0  501    0  0.00000000000E+00  0.00000000000E+00  0.12887741140E+04  0.12887741140E+04  0.00000000000E+00 0. -1.
         -1   -1    0    0    0  501 -0.00000000000E+00 -0.00000000000E+00 -0.36497871625E+03  0.36497871625E+03  0.00000000000E+00 0.  1.
         24    2    1    2    0    0  0.14966220013E+03  0.19963482522E+02 -0.15939836931E+03  0.23371987869E+03  0.80123821524E+02 0.  0.
        254    2    1    2    0    0 -0.14966220013E+03 -0.19963482522E+02  0.10831937671E+04  0.14200329516E+04  0.90575246715E+03 0.  0.
         23    2    4    4    0    0 -0.11949908680E+03  0.42680625231E+03  0.43427988892E+03  0.62713229703E+03  0.90842100920E+02 0.  0.
         23    2    4    4    0    0 -0.30163113330E+02 -0.44676973483E+03  0.64891387815E+03  0.79290065454E+03  0.84197490138E+02 0.  0.
          4    1    3    3  502    0  0.94513903615E+02 -0.26204602729E+02 -0.79808439058E+02  0.12644740458E+03  0.00000000000E+00 0. -1.
         -3    1    3    3    0  502  0.55148296513E+02  0.46168085251E+02 -0.79589930253E+02  0.10727247411E+03  0.00000000000E+00 0.  1.
         13    1    5    5    0    0 -0.11568694734E+03  0.43092286586E+03  0.42449088610E+03  0.61584941218E+03  0.00000000000E+00 0.  1.
        -13    1    5    5    0    0 -0.38121394553E+01 -0.41166135435E+01  0.97890028191E+01  0.11282884848E+02  0.00000000000E+00 0. -1.
          2    1    6    6  503    0 -0.45175525339E+02 -0.11688532033E+03  0.17128462720E+03  0.21222966266E+03  0.00000000000E+00 0. -1.
         -2    1    6    6    0  503  0.15012412009E+02 -0.32988441450E+03  0.47762925095E+03  0.58067099187E+03  0.00000000000E+00 0.  1.
<mgrwt>
<rscale>  0 0.13716780E+04</rscale>
<asrwt>0</asrwt>
<pdfrwt beam="1">  1        2 0.19827294E+00 0.13716780E+04</pdfrwt>
<pdfrwt beam="2">  1       -1 0.56150572E-01 0.13716780E+04</pdfrwt>
<totfact> 0.59870511E+01</totfact>
</mgrwt>
</event>
<event>
12    7  0.1701638E-007  0.1286706E+04  0.7818608E-02  0.9040174E-01
          2   -1    0    0  501    0  0.00000000000E+00  0.00000000000E+00  0.44865028736E+03  0.44865028736E+03  0.00000000000E+00 0. -1.
         -1   -1    0    0    0  501 -0.00000000000E+00 -0.00000000000E+00 -0.92255210627E+03  0.92255210627E+03  0.00000000000E+00 0.  1.
         24    2    1    2    0    0 -0.17730589402E+03  0.25319656203E+03 -0.24495263456E+02  0.32017712484E+03  0.79796580494E+02 0.  0.
        254    2    1    2    0    0  0.17730589402E+03 -0.25319656203E+03 -0.44940655545E+03  0.10510252688E+04  0.89841081054E+03 0.  0.
         23    2    4    4    0    0  0.34158937425E+03 -0.13164694138E+03  0.15391149259E+03  0.40753423263E+03  0.91548814529E+02 0.  0.
         23    2    4    4    0    0 -0.16428348022E+03 -0.12154962065E+03 -0.60331804804E+03  0.64349103617E+03  0.91239653552E+02 0.  0.
          2    1    3    3  502    0 -0.15735189938E+03  0.22035658900E+03 -0.48199804319E+02  0.27502703084E+03  0.00000000000E+00 0. -1.
         -1    1    3    3    0  502 -0.19953994645E+02  0.32839973027E+02  0.23704540863E+02  0.45150094001E+02  0.00000000000E+00 0.  1.
         13    1    5    5    0    0  0.26807046478E+03 -0.83278641893E+02  0.15263420062E+03  0.31952199531E+03  0.00000000000E+00 0.  1.
        -13    1    5    5    0    0  0.73518909464E+02 -0.48368299490E+02  0.12772919670E+01  0.88012237326E+02  0.00000000000E+00 0. -1.
          3    1    6    6  503    0 -0.77609568978E+02 -0.42734272174E+01 -0.19555682516E+03  0.21043758990E+03  0.00000000000E+00 0. -1.
         -3    1    6    6    0  503 -0.86673911247E+02 -0.11727619343E+03 -0.40776122288E+03  0.43305344626E+03  0.00000000000E+00 0.  1.
<mgrwt>
<rscale>  0 0.12867063E+04</rscale>
<asrwt>0</asrwt>
<pdfrwt beam="1">  1        2 0.69023121E-01 0.12867063E+04</pdfrwt>
<pdfrwt beam="2">  1       -1 0.14193109E+00 0.12867063E+04</pdfrwt>
<totfact> 0.31674487E+01</totfact>
</mgrwt>
</event>
<event>
12    7  0.1701638E-007  0.3128738E+04  0.7818608E-02  0.8207895E-01
         -1   -1    0    0    0  501 -0.00000000000E+00  0.00000000000E+00  0.85051932513E+03  0.85051932513E+03  0.00000000000E+00 0.  1.
          2   -1    0    0  501    0  0.00000000000E+00 -0.00000000000E+00 -0.28773593392E+04  0.28773593392E+04  0.00000000000E+00 0. -1.
         24    2    1    2    0    0 -0.87172333878E+03 -0.61788930904E+03  0.20813508438E+03  0.10914135047E+04  0.78577651670E+02 0.  0.
        254    2    1    2    0    0  0.87172333878E+03  0.61788930904E+03 -0.22349750985E+04  0.26364651596E+04  0.90230043196E+03 0.  0.
         23    2    4    4    0    0  0.24494081987E+03  0.50334340781E+03 -0.17231376715E+04  0.18140878394E+04  0.91436658683E+02 0.  0.
         23    2    4    4    0    0  0.62678251891E+03  0.11454590122E+03 -0.51183742692E+03  0.82237732021E+03  0.91377325975E+02 0.  0.
          4    1    3    3  502    0 -0.25409121002E+03 -0.21720973131E+03  0.44453990527E+02  0.33722183745E+03  0.00000000000E+00 0. -1.
         -3    1    3    3    0  502 -0.61763212876E+03 -0.40067957773E+03  0.16368109385E+03  0.75419166727E+03  0.00000000000E+00 0.  1.
         13    1    5    5    0    0 -0.38033117068E+00  0.55583683642E+02 -0.20470499497E+03  0.21211748043E+03  0.00000000000E+00 0. -1.
        -13    1    5    5    0    0  0.24532115104E+03  0.44775972417E+03 -0.15184326766E+04  0.16019703590E+04  0.00000000000E+00 0.  1.
          4    1    6    6  503    0  0.45415355115E+03  0.50809759495E+02 -0.39791703758E+03  0.60594970787E+03  0.00000000000E+00 0.  1.
         -4    1    6    6    0  503  0.17262896777E+03  0.63736141728E+02 -0.11392038934E+03  0.21642761234E+03  0.00000000000E+00 0. -1.
<mgrwt>
<rscale>  0 0.31287376E+04</rscale>
<asrwt>0</asrwt>
<pdfrwt beam="1">  1        2 0.44267066E+00 0.31287376E+04</pdfrwt>
<pdfrwt beam="2">  1       -1 0.13084913E+00 0.31287376E+04</pdfrwt>
<totfact> 0.99525770E-01</totfact>
</mgrwt>
</event>
<event>
12    7  0.1701638E-007  0.1306411E+04  0.7818608E-02  0.9024497E-01
          2   -1    0    0  501    0  0.00000000000E+00  0.00000000000E+00  0.14330240621E+04  0.14330240621E+04  0.00000000000E+00 0. -1.
         -1   -1    0    0    0  501 -0.00000000000E+00 -0.00000000000E+00 -0.29774610573E+03  0.29774610573E+03  0.00000000000E+00 0.  1.
         24    2    1    2    0    0 -0.25383023872E+03 -0.61386682512E+02 -0.13904785448E+02  0.27205088594E+03  0.74968170595E+02 0.  0.
        254    2    1    2    0    0  0.25383023872E+03  0.61386682512E+02  0.11491827418E+04  0.14587192819E+04  0.85967601711E+03 0.  0.
         23    2    4    4    0    0 -0.39422814784E+01 -0.45869701429E+02  0.11588558093E+04  0.11637313642E+04  0.95939199715E+02 0.  0.
         23    2    4    4    0    0  0.25777252020E+03  0.10725638394E+03 -0.96730674931E+01  0.29498791774E+03  0.94729611595E+02 0.  0.
          4    1    3    3  502    0 -0.13707286324E+02 -0.11119640558E+02  0.17338018811E+02  0.24741523817E+02  0.00000000000E+00 0. -1.
         -3    1    3    3    0  502 -0.24012295240E+03 -0.50267041954E+02 -0.31242804259E+02  0.24730936212E+03  0.00000000000E+00 0.  1.
         13    1    5    5    0    0 -0.39558467033E+02 -0.52674652923E+02  0.89107798805E+03  0.89350963742E+03  0.00000000000E+00 0. -1.
        -13    1    5    5    0    0  0.35616185555E+02  0.68049514932E+01  0.26777782127E+03  0.27022172674E+03  0.00000000000E+00 0.  1.
          1    1    6    6  503    0  0.22157395196E+03  0.91218045280E+02 -0.42746654039E+02  0.24339889976E+03  0.00000000000E+00 0. -1.
         -1    1    6    6    0  503  0.36198568241E+02  0.16038338662E+02  0.33073586546E+02  0.51589017986E+02  0.00000000000E+00 0.  1.
<mgrwt>
<rscale>  0 0.13064109E+04</rscale>
<asrwt>0</asrwt>
<pdfrwt beam="1">  1        2 0.22046524E+00 0.13064109E+04</pdfrwt>
<pdfrwt beam="2">  1       -1 0.45807094E-01 0.13064109E+04</pdfrwt>
<totfact> 0.73257143E+01</totfact>
</mgrwt>
</event>
<event>
12    7  0.1701638E-007  0.1930429E+04  0.7818608E-02  0.8639856E-01
          2   -1    0    0  501    0  0.00000000000E+00  0.00000000000E+00  0.90681593977E+03  0.90681593977E+03  0.00000000000E+00 0. -1.
         -1   -1    0    0    0  501 -0.00000000000E+00 -0.00000000000E+00 -0.10273741919E+04  0.10273741919E+04  0.00000000000E+00 0.  1.
         24    2    1    2    0    0  0.35837484443E+03 -0.34448432949E+03 -0.61268380916E+03  0.79318993391E+03  0.81650712539E+02 0.  0.
        254    2    1    2    0    0 -0.35837484443E+03  0.34448432949E+03  0.49212555703E+03  0.11410001978E+04  0.90143879717E+03 0.  0.
         23    2    4    4    0    0  0.25857375813E+03  0.28316570251E+03  0.26393708662E+03  0.47430034975E+03  0.90856109365E+02 0.  0.
         23    2    4    4    0    0 -0.61694860256E+03  0.61318626978E+02  0.22818847041E+03  0.66669984802E+03  0.89627881284E+02 0.  0.
          4    1    3    3  502    0  0.12779401939E+03 -0.11808072165E+03 -0.27798884059E+03  0.32795146548E+03  0.00000000000E+00 0. -1.
         -3    1    3    3    0  502  0.23058082503E+03 -0.22640360784E+03 -0.33469496857E+03  0.46523846842E+03  0.00000000000E+00 0.  1.
         13    1    5    5    0    0  0.23541702880E+02  0.41728039390E+02  0.27712702919E+01  0.47990842719E+02  0.00000000000E+00 0. -1.
        -13    1    5    5    0    0  0.23503205525E+03  0.24143766312E+03  0.26116581632E+03  0.42630950703E+03  0.00000000000E+00 0.  1.
          3    1    6    6  503    0 -0.25949480187E+03  0.68958683351E+02  0.10963045268E+03  0.29002015165E+03  0.00000000000E+00 0. -1.
         -3    1    6    6    0  503 -0.35745380069E+03 -0.76400563730E+01  0.11855801773E+03  0.37667969637E+03  0.00000000000E+00 0.  1.
<mgrwt>
<rscale>  0 0.19304293E+04</rscale>
<asrwt>0</asrwt>
<pdfrwt beam="1">  1        2 0.13951014E+00 0.19304293E+04</pdfrwt>
<pdfrwt beam="2">  1       -1 0.15805757E+00 0.19304293E+04</pdfrwt>
<totfact> 0.93515265E+00</totfact>
</mgrwt>
</event>
<event>
12    7  0.1701638E-007  0.1660617E+04  0.7818608E-02  0.8784150E-01
          2   -1    0    0  501    0  0.00000000000E+00  0.00000000000E+00  0.27259455764E+04  0.27259455764E+04  0.00000000000E+00 0. -1.
         -1   -1    0    0    0  501 -0.00000000000E+00 -0.00000000000E+00 -0.25290749412E+03  0.25290749412E+03  0.00000000000E+00 0.  1.
         24    2    1    2    0    0 -0.44388071160E+03 -0.31884910462E+03  0.51002696061E+03  0.75182838824E+03  0.80147284290E+02 0.  0.
        254    2    1    2    0    0  0.44388071160E+03  0.31884910462E+03  0.19630111217E+04  0.22270246823E+04  0.89862752794E+03 0.  0.
         23    2    4    4    0    0 -0.20213584793E+02 -0.14979889659E+03  0.12069605074E+04  0.12196572178E+04  0.89228717943E+02 0.  0.
         23    2    4    4    0    0  0.46409429639E+03  0.46864800121E+03  0.75605061425E+03  0.10073674644E+04  0.90344961753E+02 0.  0.
          4    1    3    3  502    0 -0.15187396054E+03 -0.15157768135E+03  0.22378427236E+03  0.31003369806E+03  0.00000000000E+00 0. -1.
         -3    1    3    3    0  502 -0.29200675105E+03 -0.16727142327E+03  0.28624268825E+03  0.44179469019E+03  0.00000000000E+00 0.  1.
         13    1    5    5    0    0 -0.44872186346E+01 -0.11239970230E+02  0.43720414401E+03  0.43737162185E+03  0.00000000000E+00 0. -1.
        -13    1    5    5    0    0 -0.15726366159E+02 -0.13855892636E+03  0.76975636343E+03  0.78228559600E+03  0.00000000000E+00 0.  1.
          3    1    6    6  503    0  0.21950657597E+03  0.27779835610E+03  0.43570308868E+03  0.56141984737E+03  0.00000000000E+00 0.  1.
         -3    1    6    6    0  503  0.24458772042E+03  0.19084964511E+03  0.32034752557E+03  0.44594761706E+03  0.00000000000E+00 0. -1.
<mgrwt>
<rscale>  0 0.16606168E+04</rscale>
<asrwt>0</asrwt>
<pdfrwt beam="1">  1        2 0.41937622E+00 0.16606168E+04</pdfrwt>
<pdfrwt beam="2">  1       -1 0.38908847E-01 0.16606168E+04</pdfrwt>
<totfact> 0.17899348E+01</totfact>
</mgrwt>
</event>
<event>
12    7  0.1701638E-007  0.1881230E+04  0.7818608E-02  0.8664256E-01
         -1   -1    0    0    0  501 -0.00000000000E+00  0.00000000000E+00  0.27746165306E+03  0.27746165306E+03  0.00000000000E+00 0.  1.
          2   -1    0    0  501    0  0.00000000000E+00 -0.00000000000E+00 -0.31887529389E+04  0.31887529389E+04  0.00000000000E+00 0. -1.
         24    2    1    2    0    0  0.11504720825E+03  0.33554972410E+03  0.33834242699E+02  0.36598501939E+03  0.83491322737E+02 0.  0.
        254    2    1    2    0    0 -0.11504720825E+03 -0.33554972410E+03 -0.29451255285E+04  0.31002295725E+04  0.90101584131E+03 0.  0.
         23    2    4    4    0    0  0.20528903766E+03  0.13263740939E+03 -0.18042015687E+04  0.18227872500E+04  0.87600152637E+02 0.  0.
         23    2    4    4    0    0 -0.32033624591E+03 -0.46818713349E+03 -0.11409239598E+04  0.12774423226E+04  0.91306642965E+02 0.  0.
          4    1    3    3  502    0  0.11499741519E+02  0.73436798878E+02 -0.24346325050E+02  0.78217332017E+02  0.00000000000E+00 0. -1.
         -3    1    3    3    0  502  0.10354746673E+03  0.26211292522E+03  0.58180567749E+02  0.28776768738E+03  0.00000000000E+00 0.  1.
         13    1    5    5    0    0  0.99580885111E+02  0.15223216865E+02 -0.62958253553E+03  0.63759098806E+03  0.00000000000E+00 0. -1.
        -13    1    5    5    0    0  0.10570815255E+03  0.11741419252E+03 -0.11746190332E+04  0.11851962619E+04  0.00000000000E+00 0.  1.
          2    1    6    6  503    0 -0.72699327172E+02 -0.16700491864E+03 -0.42090182895E+03  0.45862204988E+03  0.00000000000E+00 0. -1.
         -2    1    6    6    0  503 -0.24763691874E+03 -0.30118221485E+03 -0.72002213083E+03  0.81882027267E+03  0.00000000000E+00 0.  1.
<mgrwt>
<rscale>  0 0.18812301E+04</rscale>
<asrwt>0</asrwt>
<pdfrwt beam="1">  1        2 0.49057740E+00 0.18812301E+04</pdfrwt>
<pdfrwt beam="2">  1       -1 0.42686406E-01 0.18812301E+04</pdfrwt>
<totfact> 0.76428105E+00</totfact>
</mgrwt>
</event>
<event>
12    7  0.1701638E-007  0.1593467E+04  0.7818608E-02  0.8824571E-01
         -1   -1    0    0    0  501 -0.00000000000E+00  0.00000000000E+00  0.28579711784E+03  0.28579711784E+03  0.00000000000E+00 0.  1.
          2   -1    0    0  501    0  0.00000000000E+00 -0.00000000000E+00 -0.22211018625E+04  0.22211018625E+04  0.00000000000E+00 0. -1.
         24    2    1    2    0    0 -0.18973753538E+03  0.34237143934E+03 -0.76313237163E+02  0.40672983393E+03  0.79918163351E+02 0.  0.
        254    2    1    2    0    0  0.18973753538E+03 -0.34237143934E+03 -0.18589915075E+04  0.21001691464E+04  0.89534489658E+03 0.  0.
         23    2    4    4    0    0  0.18642711251E+03  0.27955715434E+03 -0.67599298371E+03  0.76038873646E+03  0.91198934646E+02 0.  0.
         23    2    4    4    0    0  0.33104228629E+01 -0.62192859368E+03 -0.11829985238E+04  0.13397804100E+04  0.93380432240E+02 0.  0.
          4    1    3    3  502    0 -0.58357741461E+02  0.18164045524E+03 -0.21297919871E+02  0.19197000380E+03  0.00000000000E+00 0. -1.
         -3    1    3    3    0  502 -0.13137979392E+03  0.16073098410E+03 -0.55015317292E+02  0.21475983012E+03  0.00000000000E+00 0.  1.
         13    1    5    5    0    0  0.41918668544E+02  0.11662579037E+02 -0.74900774396E+02  0.86621686242E+02  0.00000000000E+00 0.  1.
        -13    1    5    5    0    0  0.14450844397E+03  0.26789457530E+03 -0.60109220932E+03  0.67376705021E+03  0.00000000000E+00 0. -1.
          1    1    6    6  503    0  0.14799593049E+02 -0.44643612147E+03 -0.75786771300E+03  0.87970887736E+03  0.00000000000E+00 0. -1.
         -1    1    6    6    0  503 -0.11489170187E+02 -0.17549247221E+03 -0.42513081079E+03  0.46007153261E+03  0.00000000000E+00 0.  1.
<mgrwt>
<rscale>  0 0.15934673E+04</rscale>
<asrwt>0</asrwt>
<pdfrwt beam="1">  1        2 0.34170797E+00 0.15934673E+04</pdfrwt>
<pdfrwt beam="2">  1       -1 0.43968789E-01 0.15934673E+04</pdfrwt>
<totfact> 0.28100292E+01</totfact>
</mgrwt>
</event>
<event>
12    7  0.1701638E-007  0.1150735E+04  0.7818608E-02  0.9157106E-01
          2   -1    0    0  501    0  0.00000000000E+00  0.00000000000E+00  0.15252876827E+04  0.15252876827E+04  0.00000000000E+00 0. -1.
         -1   -1    0    0    0  501 -0.00000000000E+00 -0.00000000000E+00 -0.21703953624E+03  0.21703953624E+03  0.00000000000E+00 0.  1.
         24    2    1    2    0    0  0.10462412781E+03 -0.15892309539E+03  0.43247964242E+03  0.47932928415E+03  0.80716560661E+02 0.  0.
        254    2    1    2    0    0 -0.10462412781E+03  0.15892309539E+03  0.87576850407E+03  0.12629979348E+04  0.88993851040E+03 0.  0.
         23    2    4    4    0    0 -0.20945657530E+02  0.19909972646E+03  0.10343402886E+04  0.10577080277E+04  0.93845711406E+02 0.  0.
         23    2    4    4    0    0 -0.83678470281E+02 -0.40176631071E+02 -0.15857178455E+03  0.20528990713E+03  0.91557015237E+02 0.  0.
          4    1    3    3  502    0  0.53693498568E+02 -0.81856897929E+02  0.31511982647E+03  0.32997583026E+03  0.00000000000E+00 0. -1.
         -3    1    3    3    0  502  0.50930629243E+02 -0.77066197456E+02  0.11735981595E+03  0.14935345388E+03  0.00000000000E+00 0.  1.
         13    1    5    5    0    0  0.28929330833E+02  0.10521411587E+03  0.64258961150E+03  0.65178855864E+03  0.00000000000E+00 0. -1.
        -13    1    5    5    0    0 -0.49874988363E+02  0.93885610590E+02  0.39175067712E+03  0.40591946906E+03  0.00000000000E+00 0.  1.
          2    1    6    6  503    0 -0.34827531116E+02  0.23654188019E+02 -0.91055318786E+02  0.10031723986E+03  0.00000000000E+00 0. -1.
         -2    1    6    6    0  503 -0.48850939164E+02 -0.63830819090E+02 -0.67516465768E+02  0.10497266726E+03  0.00000000000E+00 0.  1.
<mgrwt>
<rscale>  0 0.11507350E+04</rscale>
<asrwt>0</asrwt>
<pdfrwt beam="1">  1        2 0.23465964E+00 0.11507350E+04</pdfrwt>
<pdfrwt beam="2">  1       -1 0.33390699E-01 0.11507350E+04</pdfrwt>
<totfact> 0.11687754E+02</totfact>
</mgrwt>
</event>
<event>
12    7  0.1701638E-007  0.1238503E+04  0.7818608E-02  0.9079807E-01
          2   -1    0    0  501    0  0.00000000000E+00  0.00000000000E+00  0.84958098677E+03  0.84958098677E+03  0.00000000000E+00 0. -1.
         -1   -1    0    0    0  501 -0.00000000000E+00 -0.00000000000E+00 -0.45136652322E+03  0.45136652322E+03  0.00000000000E+00 0.  1.
         24    2    1    2    0    0 -0.24571728236E+03  0.12063909122E+03  0.31673905067E+02  0.28695193721E+03  0.80046266770E+02 0.  0.
        254    2    1    2    0    0  0.24571728236E+03 -0.12063909122E+03  0.36654055848E+03  0.10139955728E+04  0.90493329447E+03 0.  0.
         23    2    4    4    0    0 -0.10529427566E+03  0.69253496910E+02 -0.23773407793E+03  0.28390147985E+03  0.90551792513E+02 0.  0.
         23    2    4    4    0    0  0.35101155802E+03 -0.18989258813E+03  0.60427463641E+03  0.73009409294E+03  0.92850629738E+02 0.  0.
          4    1    3    3  502    0 -0.77485844158E+02  0.34073132622E+02  0.47553977425E+02  0.97089727472E+02  0.00000000000E+00 0. -1.
         -1    1    3    3    0  502 -0.16823143820E+03  0.86565958598E+02 -0.15880072358E+02  0.18986220974E+03  0.00000000000E+00 0.  1.
         13    1    5    5    0    0 -0.90677313724E+02  0.75023421853E+02 -0.24067950861E+03  0.26791326006E+03  0.00000000000E+00 0.  1.
        -13    1    5    5    0    0 -0.14616961934E+02 -0.57699249433E+01  0.29454306779E+01  0.15988219785E+02  0.00000000000E+00 0. -1.
          3    1    6    6  503    0  0.15419222372E+03 -0.95729534207E+02  0.19564874792E+03  0.26686666734E+03  0.00000000000E+00 0. -1.
         -3    1    6    6    0  503  0.19681933429E+03 -0.94163053924E+02  0.40862588850E+03  0.46322742560E+03  0.00000000000E+00 0.  1.
<mgrwt>
<rscale>  0 0.12385030E+04</rscale>
<asrwt>0</asrwt>
<pdfrwt beam="1">  1        2 0.13070477E+00 0.12385030E+04</pdfrwt>
<pdfrwt beam="2">  1       -1 0.69441003E-01 0.12385030E+04</pdfrwt>
<totfact> 0.74860655E+01</totfact>
</mgrwt>
</event>
<event>
12    7  0.1701638E-007  0.2044258E+04  0.7818608E-02  0.8586203E-01
          2   -1    0    0  501    0  0.00000000000E+00  0.00000000000E+00  0.18594233396E+04  0.18594233396E+04  0.00000000000E+00 0. -1.
         -1   -1    0    0    0  501 -0.00000000000E+00 -0.00000000000E+00 -0.56186673174E+03  0.56186673174E+03  0.00000000000E+00 0.  1.
         24    2    1    2    0    0 -0.60656658877E+03  0.15008643352E+03  0.11599208439E+04  0.13200499758E+04  0.81649313216E+02 0.  0.
        254    2    1    2    0    0  0.60656658877E+03 -0.15008643352E+03  0.13763576392E+03  0.11012400955E+04  0.89629079006E+03 0.  0.
         23    2    4    4    0    0  0.81146569947E+03 -0.13309604920E+03 -0.18430770217E+02  0.82725213272E+03  0.88403948300E+02 0.  0.
         23    2    4    4    0    0 -0.20489911071E+03 -0.16990384319E+02  0.15606653414E+03  0.27398796280E+03  0.91871224827E+02 0.  0.
          4    1    3    3  502    0 -0.55994205545E+03  0.13960948746E+03  0.11093454131E+04  0.12504691760E+04  0.00000000000E+00 0. -1.
         -3    1    3    3    0  502 -0.46624533317E+02  0.10476946056E+02  0.50575430805E+02  0.69580799843E+02  0.00000000000E+00 0.  1.
         13    1    5    5    0    0  0.67880674469E+03 -0.14409396412E+03 -0.15068334638E+02  0.69409561434E+03  0.00000000000E+00 0. -1.
        -13    1    5    5    0    0  0.13265895478E+03  0.10997914919E+02 -0.33624355789E+01  0.13315651839E+03  0.00000000000E+00 0.  1.
          3    1    6    6  503    0 -0.17659817780E+03 -0.32349972902E+02  0.90758009687E+02  0.20117269564E+03  0.00000000000E+00 0. -1.
         -3    1    6    6    0  503 -0.28300932908E+02  0.15359588583E+02  0.65308524454E+02  0.72815267158E+02  0.00000000000E+00 0.  1.
<mgrwt>
<rscale>  0 0.20442584E+04</rscale>
<asrwt>0</asrwt>
<pdfrwt beam="1">  1        2 0.28606513E+00 0.20442584E+04</pdfrwt>
<pdfrwt beam="2">  1       -1 0.86441036E-01 0.20442584E+04</pdfrwt>
<totfact> 0.11126384E+01</totfact>
</mgrwt>
</event>
<event>
12    7  0.1701638E-007  0.1951430E+04  0.7818608E-02  0.8629672E-01
          2   -1    0    0  501    0  0.00000000000E+00  0.00000000000E+00  0.20558671498E+04  0.20558671498E+04  0.00000000000E+00 0. -1.
         -1   -1    0    0    0  501 -0.00000000000E+00 -0.00000000000E+00 -0.46307443237E+03  0.46307443237E+03  0.00000000000E+00 0.  1.
         24    2    1    2    0    0 -0.71661990511E+02 -0.17522759735E+03 -0.33226114485E+03  0.39080421455E+03  0.80562484926E+02 0.  0.
        254    2    1    2    0    0  0.71661990511E+02  0.17522759735E+03  0.19250538623E+04  0.21281373676E+04  0.88729709286E+03 0.  0.
         23    2    4    4    0    0  0.33446454929E+03  0.14686839999E+03  0.17677349591E+04  0.18073194340E+04  0.89887648697E+02 0.  0.
         23    2    4    4    0    0 -0.26280255878E+03  0.28359197359E+02  0.15731890320E+03  0.32081793359E+03  0.91134407527E+02 0.  0.
          2    1    3    3  502    0 -0.92579692402E+00  0.84305403406E+01 -0.19616214913E+02  0.21371172122E+02  0.00000000000E+00 0. -1.
         -1    1    3    3    0  502 -0.70736193587E+02 -0.18365813769E+03 -0.31264492994E+03  0.36943304243E+03  0.00000000000E+00 0.  1.
         13    1    5    5    0    0  0.18457952680E+03  0.78144745218E+02  0.75040784005E+03  0.77671624762E+03  0.00000000000E+00 0. -1.
        -13    1    5    5    0    0  0.14988502249E+03  0.68723654776E+02  0.10173271190E+04  0.10306031864E+04  0.00000000000E+00 0.  1.
          3    1    6    6  503    0 -0.21186067036E+03  0.14888160432E+02  0.16313470229E+03  0.26780502620E+03  0.00000000000E+00 0. -1.
         -3    1    6    6    0  503 -0.50941888416E+02  0.13471036927E+02 -0.58157990864E+01  0.53012907393E+02  0.00000000000E+00 0.  1.
<mgrwt>
<rscale>  0 0.19514297E+04</rscale>
<asrwt>0</asrwt>
<pdfrwt beam="1">  1        2 0.31628725E+00 0.19514297E+04</pdfrwt>
<pdfrwt beam="2">  1       -1 0.71242221E-01 0.19514297E+04</pdfrwt>
<totfact> 0.13140857E+01</totfact>
</mgrwt>
</event>
<event>
12    7  0.1701638E-007  0.1312070E+04  0.7818608E-02  0.9020048E-01
         -1   -1    0    0    0  501 -0.00000000000E+00  0.00000000000E+00  0.34350444862E+03  0.34350444862E+03  0.00000000000E+00 0.  1.
          2   -1    0    0  501    0  0.00000000000E+00 -0.00000000000E+00 -0.12529144240E+04  0.12529144240E+04  0.00000000000E+00 0. -1.
         24    2    1    2    0    0  0.13349885782E+03  0.25348752368E+03 -0.16477060681E+02  0.29780665249E+03  0.79620594289E+02 0.  0.
        254    2    1    2    0    0 -0.13349885782E+03 -0.25348752368E+03 -0.89293291468E+03  0.12986122201E+04  0.89832435033E+03 0.  0.
         23    2    4    4    0    0 -0.38510856062E+03  0.15377870246E+03 -0.25145940585E+03  0.49353053531E+03  0.91564532936E+02 0.  0.
         23    2    4    4    0    0  0.25160970280E+03 -0.40726622615E+03 -0.64147350883E+03  0.80508168480E+03  0.86573871210E+02 0.  0.
          4    1    3    3  502    0  0.37274100041E+02  0.15449034995E+02  0.19367077919E+01  0.40395322170E+02  0.00000000000E+00 0. -1.
         -3    1    3    3    0  502  0.96224757783E+02  0.23803848869E+03 -0.18413768473E+02  0.25741133032E+03  0.00000000000E+00 0.  1.
         13    1    5    5    0    0 -0.14790279144E+03  0.75598515822E+02 -0.52467750248E+02  0.17419310011E+03  0.00000000000E+00 0.  1.
        -13    1    5    5    0    0 -0.23720576918E+03  0.78180186642E+02 -0.19899165560E+03  0.31933743519E+03  0.00000000000E+00 0. -1.
          2    1    6    6  503    0  0.81293826037E+02 -0.69263269708E+02 -0.11863635688E+03  0.15962666399E+03  0.00000000000E+00 0. -1.
         -2    1    6    6    0  503  0.17031587676E+03 -0.33800295644E+03 -0.52283715195E+03  0.64545502081E+03  0.00000000000E+00 0.  1.
<mgrwt>
<rscale>  0 0.13120696E+04</rscale>
<asrwt>0</asrwt>
<pdfrwt beam="1">  1        2 0.19275606E+00 0.13120696E+04</pdfrwt>
<pdfrwt beam="2">  1       -1 0.52846839E-01 0.13120696E+04</pdfrwt>
<totfact> 0.70985999E+01</totfact>
</mgrwt>
</event>
<event>
12    7  0.1701638E-007  0.2389178E+04  0.7818608E-02  0.8443566E-01
         -1   -1    0    0    0  501 -0.00000000000E+00  0.00000000000E+00  0.73587916472E+03  0.73587916472E+03  0.00000000000E+00 0.  1.
          2   -1    0    0  501    0  0.00000000000E+00 -0.00000000000E+00 -0.19392359596E+04  0.19392359596E+04  0.00000000000E+00 0. -1.
         24    2    1    2    0    0  0.24811070008E+03 -0.21911373027E+03  0.56567028935E+03  0.66031848501E+03  0.80423125384E+02 0.  0.
        254    2    1    2    0    0 -0.24811070008E+03  0.21911373027E+03 -0.17690270842E+04  0.20147966393E+04  0.90574771691E+03 0.  0.
         23    2    4    4    0    0 -0.28951630065E+03  0.19834910668E+03 -0.14995293906E+03  0.39243664343E+03  0.91425262993E+02 0.  0.
         23    2    4    4    0    0  0.41405600572E+02  0.20764623596E+02 -0.16190741452E+04  0.16223599959E+04  0.92224049326E+02 0.  0.
          2    1    3    3  502    0  0.35806271885E+01  0.59635196771E+01  0.22381241632E+02  0.23437244612E+02  0.00000000000E+00 0. -1.
         -1    1    3    3    0  502  0.24453007289E+03 -0.22507724995E+03  0.54328904772E+03  0.63688124040E+03  0.00000000000E+00 0.  1.
         13    1    5    5    0    0 -0.40416911318E+02 -0.16866550122E+01 -0.23748699098E+01  0.40521741481E+02  0.00000000000E+00 0.  1.
        -13    1    5    5    0    0 -0.24909938933E+03  0.20003576169E+03 -0.14757806915E+03  0.35191490195E+03  0.00000000000E+00 0. -1.
          4    1    6    6  503    0  0.46027426135E+02 -0.12316991733E+01 -0.15228375098E+04  0.15235334333E+04  0.00000000000E+00 0. -1.
         -4    1    6    6    0  503 -0.46218255634E+01  0.21996322769E+02 -0.96236635364E+02  0.98826562589E+02  0.00000000000E+00 0.  1.
<mgrwt>
<rscale>  0 0.23891784E+04</rscale>
<asrwt>0</asrwt>
<pdfrwt beam="1">  1        2 0.29834399E+00 0.23891784E+04</pdfrwt>
<pdfrwt beam="2">  1       -1 0.11321218E+00 0.23891784E+04</pdfrwt>
<totfact> 0.52717057E+00</totfact>
</mgrwt>
</event>
<event>
12    7  0.1701638E-007  0.1628734E+04  0.7818608E-02  0.8803087E-01
         -1   -1    0    0    0  501 -0.00000000000E+00  0.00000000000E+00  0.83332314732E+03  0.83332314732E+03  0.00000000000E+00 0.  1.
          2   -1    0    0  501    0  0.00000000000E+00 -0.00000000000E+00 -0.79584244041E+03  0.79584244041E+03  0.00000000000E+00 0. -1.
         24    2    1    2    0    0 -0.33948969169E+03  0.28828023851E+01 -0.44544853490E+03  0.56572685630E+03  0.79755359574E+02 0.  0.
        254    2    1    2    0    0  0.33948969169E+03 -0.28828023851E+01  0.48292924182E+03  0.10634387314E+04  0.88454492344E+03 0.  0.
         23    2    4    4    0    0  0.38130368204E+03  0.36988268218E+03  0.16644253079E+03  0.56394352828E+03  0.90130408420E+02 0.  0.
         23    2    4    4    0    0 -0.41813990348E+02 -0.37276548456E+03  0.31648671103E+03  0.49949520315E+03  0.92892967662E+02 0.  0.
          4    1    3    3  502    0 -0.28716232106E+03 -0.26834207376E+02 -0.36206896144E+03  0.46289977983E+03  0.00000000000E+00 0. -1.
         -3    1    3    3    0  502 -0.52327370624E+02  0.29717009761E+02 -0.83379573462E+02  0.10282707647E+03  0.00000000000E+00 0.  1.
         13    1    5    5    0    0  0.18958850167E+03  0.18987397678E+03  0.37084127268E+02  0.27087111237E+03  0.00000000000E+00 0.  1.
        -13    1    5    5    0    0  0.19171518037E+03  0.18000870539E+03  0.12935840352E+03  0.29307241590E+03  0.00000000000E+00 0. -1.
          3    1    6    6  503    0 -0.26972314820E+02 -0.28636084215E+03  0.18682983728E+03  0.34298021193E+03  0.00000000000E+00 0. -1.
         -3    1    6    6    0  503 -0.14841675528E+02 -0.86404642414E+02  0.12965687375E+03  0.15651499121E+03  0.00000000000E+00 0.  1.
<mgrwt>
<rscale>  0 0.16287344E+04</rscale>
<asrwt>0</asrwt>
<pdfrwt beam="1">  1        2 0.12243730E+00 0.16287344E+04</pdfrwt>
<pdfrwt beam="2">  1       -1 0.12820356E+00 0.16287344E+04</pdfrwt>
<totfact> 0.19906312E+01</totfact>
</mgrwt>
</event>
<event>
12    7  0.1701638E-007  0.1200694E+04  0.7818608E-02  0.9112249E-01
          4   -1    0    0  501    0  0.00000000000E+00  0.00000000000E+00  0.47780758594E+03  0.47780758594E+03  0.00000000000E+00 0. -1.
         -3   -1    0    0    0  501 -0.00000000000E+00 -0.00000000000E+00 -0.75431336410E+03  0.75431336410E+03  0.00000000000E+00 0.  1.
         24    2    1    2    0    0  0.22002716075E+03  0.73587332991E+02  0.76690148552E+02  0.25717798658E+03  0.80200317028E+02 0.  0.
        254    2    1    2    0    0 -0.22002716075E+03 -0.73587332991E+02 -0.35319592672E+03  0.97494296347E+03  0.87860080373E+03 0.  0.
         23    2    4    4    0    0  0.22357984024E+03 -0.30772888779E+03 -0.21684966571E+03  0.44717353895E+03  0.90859138675E+02 0.  0.
         23    2    4    4    0    0 -0.44360700099E+03  0.23414155480E+03 -0.13634626101E+03  0.52776942451E+03  0.91328109293E+02 0.  0.
          4    1    3    3  502    0 -0.34267736433E+01  0.16317483459E+01  0.13564053221E+02  0.14085060172E+02  0.00000000000E+00 0. -1.
         -3    1    3    3    0  502  0.22345393439E+03  0.71955584645E+02  0.63126095331E+02  0.24309292641E+03  0.00000000000E+00 0.  1.
         13    1    5    5    0    0 -0.27229287339E+01 -0.38108657237E+02 -0.12749945492E+02  0.40277105250E+02  0.00000000000E+00 0. -1.
        -13    1    5    5    0    0  0.22630276897E+03 -0.26962023055E+03 -0.20409972021E+03  0.40689643370E+03  0.00000000000E+00 0.  1.
          1    1    6    6  503    0 -0.76231630627E+02  0.88905505823E+01 -0.35120598280E+01  0.76828627230E+02  0.00000000000E+00 0. -1.
         -1    1    6    6    0  503 -0.36737537036E+03  0.22525100422E+03 -0.13283420118E+03  0.45094079728E+03  0.00000000000E+00 0.  1.
<mgrwt>
<rscale>  0 0.12006942E+04</rscale>
<asrwt>0</asrwt>
<pdfrwt beam="1">  1        4 0.73508860E-01 0.12006942E+04</pdfrwt>
<pdfrwt beam="2">  1       -3 0.11604821E+00 0.12006942E+04</pdfrwt>
<totfact> 0.23228954E+00</totfact>
</mgrwt>
</event>
<event>
12    7  0.1701638E-007  0.1787572E+04  0.7818608E-02  0.8712936E-01
          2   -1    0    0  501    0  0.00000000000E+00  0.00000000000E+00  0.23608726416E+04  0.23608726416E+04  0.00000000000E+00 0. -1.
         -1   -1    0    0    0  501 -0.00000000000E+00 -0.00000000000E+00 -0.33837220432E+03  0.33837220432E+03  0.00000000000E+00 0.  1.
         24    2    1    2    0    0  0.37566513457E+01  0.14362961377E+03 -0.21974946623E+03  0.27544838426E+03  0.83297095408E+02 0.  0.
        254    2    1    2    0    0 -0.37566513457E+01 -0.14362961377E+03  0.22422499035E+04  0.24237964617E+04  0.90909904816E+03 0.  0.
         23    2    4    4    0    0  0.26436395913E+03  0.28973548112E+03  0.10009546654E+04  0.10788455111E+04  0.90346238055E+02 0.  0.
         23    2    4    4    0    0 -0.26812061047E+03 -0.43336509489E+03  0.12412952381E+04  0.13449509505E+04  0.91570868830E+02 0.  0.
          2    1    3    3  502    0  0.24050151245E+02  0.14560729552E+02 -0.13234802477E+02  0.31073857446E+02  0.00000000000E+00 0. -1.
         -1    1    3    3    0  502 -0.20293499899E+02  0.12906888421E+03 -0.20651466376E+03  0.24437452682E+03  0.00000000000E+00 0.  1.
         13    1    5    5    0    0  0.61248535926E+02  0.36862013855E+02  0.26726690981E+03  0.27666187359E+03  0.00000000000E+00 0.  1.
        -13    1    5    5    0    0  0.20311542320E+03  0.25287346727E+03  0.73368775562E+03  0.80218363754E+03  0.00000000000E+00 0. -1.
          3    1    6    6  503    0 -0.23206553213E+03 -0.29993574355E+03  0.93023805911E+03  0.10045689165E+04  0.00000000000E+00 0. -1.
         -3    1    6    6    0  503 -0.36055078338E+02 -0.13342935134E+03  0.31105717899E+03  0.34038203400E+03  0.00000000000E+00 0.  1.
<mgrwt>
<rscale>  0 0.17875723E+04</rscale>
<asrwt>0</asrwt>
<pdfrwt beam="1">  1        2 0.36321116E+00 0.17875723E+04</pdfrwt>
<pdfrwt beam="2">  1       -1 0.52057264E-01 0.17875723E+04</pdfrwt>
<totfact> 0.16748516E+01</totfact>
</mgrwt>
</event>
<event>
12    7  0.1701638E-007  0.1399964E+04  0.7818608E-02  0.8953845E-01
         -1   -1    0    0    0  501 -0.00000000000E+00  0.00000000000E+00  0.16463401253E+03  0.16463401253E+03  0.00000000000E+00 0.  1.
          2   -1    0    0  501    0  0.00000000000E+00 -0.00000000000E+00 -0.29761443442E+04  0.29761443442E+04  0.00000000000E+00 0. -1.
         24    2    1    2    0    0  0.33977623909E+03  0.21350542111E+03 -0.75894145411E+03  0.86215918652E+03  0.79333943771E+02 0.  0.
        254    2    1    2    0    0 -0.33977623909E+03 -0.21350542111E+03 -0.20525688775E+04  0.22786191702E+04  0.90445224766E+03 0.  0.
         23    2    4    4    0    0 -0.31999159102E+02 -0.52787779111E+03 -0.12187314008E+04  0.13315089904E+04  0.89056474208E+02 0.  0.
         23    2    4    4    0    0 -0.30777707998E+03  0.31437237000E+03 -0.83383747675E+03  0.94711017985E+03  0.90421441910E+02 0.  0.
          2    1    3    3  502    0  0.33106382340E+03  0.18975452510E+03 -0.73001626881E+03  0.82373162358E+03  0.00000000000E+00 0. -1.
         -1    1    3    3    0  502  0.87124156876E+01  0.23750896011E+02 -0.28925185300E+02  0.38427562935E+02  0.00000000000E+00 0.  1.
         13    1    5    5    0    0  0.30697893369E+02 -0.19561213031E+03 -0.43463241628E+03  0.47761051440E+03  0.00000000000E+00 0. -1.
        -13    1    5    5    0    0 -0.62697052471E+02 -0.33226566080E+03 -0.78409898452E+03  0.85389847597E+03  0.00000000000E+00 0.  1.
          1    1    6    6  503    0 -0.67024499219E+02  0.64504276035E+02 -0.26439239509E+03  0.28027918885E+03  0.00000000000E+00 0. -1.
         -1    1    6    6    0  503 -0.24075258076E+03  0.24986809396E+03 -0.56944508166E+03  0.66683099100E+03  0.00000000000E+00 0.  1.
<mgrwt>
<rscale>  0 0.13999637E+04</rscale>
<asrwt>0</asrwt>
<pdfrwt beam="1">  1        2 0.45786833E+00 0.13999637E+04</pdfrwt>
<pdfrwt beam="2">  1       -1 0.25328312E-01 0.13999637E+04</pdfrwt>
<totfact> 0.27601196E+01</totfact>
</mgrwt>
</event>
<event>
12    7  0.1701638E-007  0.1962633E+04  0.7818608E-02  0.8624293E-01
         -1   -1    0    0    0  501 -0.00000000000E+00  0.00000000000E+00  0.45926200159E+03  0.45926200159E+03  0.00000000000E+00 0.  1.
          2   -1    0    0  501    0  0.00000000000E+00 -0.00000000000E+00 -0.20968039386E+04  0.20968039386E+04  0.00000000000E+00 0. -1.
         24    2    1    2    0    0 -0.68091126542E+03 -0.22283677426E+03 -0.28815837390E+03  0.77493598906E+03  0.64762329701E+02 0.  0.
        254    2    1    2    0    0  0.68091126542E+03  0.22283677426E+03 -0.13493835632E+04  0.17811299512E+04  0.91558261403E+03 0.  0.
         23    2    4    4    0    0  0.89354243872E+03  0.11562988696E+03 -0.10074633497E+04  0.13547062810E+04  0.91969268263E+02 0.  0.
         23    2    4    4    0    0 -0.21263117330E+03  0.10720688731E+03 -0.34192021345E+03  0.42642367015E+03  0.90677348622E+02 0.  0.
          4    1    3    3  502    0 -0.69971694823E+02 -0.44530446161E+02 -0.33557176337E+02  0.89471128278E+02  0.00000000000E+00 0. -1.
         -3    1    3    3    0  502 -0.61093957060E+03 -0.17830632810E+03 -0.25460119756E+03  0.68546486078E+03  0.00000000000E+00 0.  1.
         13    1    5    5    0    0  0.39770164023E+03  0.69214195870E+02 -0.51463644127E+03  0.65407023035E+03  0.00000000000E+00 0. -1.
        -13    1    5    5    0    0  0.49584079849E+03  0.46415691085E+02 -0.49282690844E+03  0.70063605067E+03  0.00000000000E+00 0.  1.
          3    1    6    6  503    0 -0.58158715586E+02  0.66188980204E+02 -0.76942629006E+02  0.11697685864E+03  0.00000000000E+00 0. -1.
         -3    1    6    6    0  503 -0.15447245771E+03  0.41017907104E+02 -0.26497758445E+03  0.30944681151E+03  0.00000000000E+00 0.  1.
<mgrwt>
<rscale>  0 0.19626333E+04</rscale>
<asrwt>0</asrwt>
<pdfrwt beam="1">  1        2 0.32258521E+00 0.19626333E+04</pdfrwt>
<pdfrwt beam="2">  1       -1 0.70655695E-01 0.19626333E+04</pdfrwt>
<totfact> 0.12669847E+01</totfact>
</mgrwt>
</event>
<event>
12    7  0.1701638E-007  0.1852234E+04  0.7818608E-02  0.8679005E-01
         -1   -1    0    0    0  501 -0.00000000000E+00  0.00000000000E+00  0.32425969336E+03  0.32425969336E+03  0.00000000000E+00 0.  1.
          2   -1    0    0  501    0  0.00000000000E+00 -0.00000000000E+00 -0.26450796835E+04  0.26450796835E+04  0.00000000000E+00 0. -1.
         24    2    1    2    0    0  0.61885061737E+03 -0.30152154373E+03 -0.64030487644E+03  0.94356133394E+03  0.80164382183E+02 0.  0.
        254    2    1    2    0    0 -0.61885061737E+03  0.30152154373E+03 -0.16805151137E+04  0.20257780430E+04  0.89763818092E+03 0.  0.
         23    2    4    4    0    0 -0.24583133150E+03 -0.31187633046E+03 -0.59711475385E+03  0.72289483728E+03  0.91274462172E+02 0.  0.
         23    2    4    4    0    0 -0.37301928588E+03  0.61339787419E+03 -0.10834003599E+04  0.13028832057E+04  0.91367215845E+02 0.  0.
          4    1    3    3  502    0  0.22346261425E+03 -0.92445423713E+02 -0.27387053535E+03  0.36535840823E+03  0.00000000000E+00 0. -1.
         -3    1    3    3    0  502  0.39538800313E+03 -0.20907612001E+03 -0.36643434109E+03  0.57820292571E+03  0.00000000000E+00 0.  1.
         13    1    5    5    0    0 -0.23668408609E+03 -0.31306084082E+03 -0.55476199455E+03  0.67954934865E+03  0.00000000000E+00 0. -1.
        -13    1    5    5    0    0 -0.91472454076E+01  0.11845103527E+01 -0.42352759305E+02  0.43345488624E+02  0.00000000000E+00 0.  1.
          4    1    6    6  503    0 -0.37759871508E+03  0.61017669918E+03 -0.10696867546E+04  0.12880707073E+04  0.00000000000E+00 0. -1.
         -4    1    6    6    0  503  0.45794292075E+01  0.32211750065E+01 -0.13713605257E+02  0.14812498420E+02  0.00000000000E+00 0.  1.
<mgrwt>
<rscale>  0 0.18522340E+04</rscale>
<asrwt>0</asrwt>
<pdfrwt beam="1">  1        2 0.40693533E+00 0.18522340E+04</pdfrwt>
<pdfrwt beam="2">  1       -1 0.49886108E-01 0.18522340E+04</pdfrwt>
<totfact> 0.12370791E+01</totfact>
</mgrwt>
</event>
<event>
12    7  0.1701638E-007  0.1100166E+04  0.7818608E-02  0.9205030E-01
          2   -1    0    0  501    0  0.00000000000E+00  0.00000000000E+00  0.37409626277E+03  0.37409626277E+03  0.00000000000E+00 0. -1.
         -1   -1    0    0    0  501 -0.00000000000E+00 -0.00000000000E+00 -0.80885935263E+03  0.80885935263E+03  0.00000000000E+00 0.  1.
         24    2    1    2    0    0  0.25801638660E+02 -0.17369325912E+03 -0.59069292762E+02  0.19907416266E+03  0.72844135438E+02 0.  0.
        254    2    1    2    0    0 -0.25801638660E+02  0.17369325912E+03 -0.37569379710E+03  0.98388145275E+03  0.89221175236E+03 0.  0.
         23    2    4    4    0    0  0.29944031316E+03 -0.22506346657E+03 -0.12834915015E+03  0.40646940157E+03  0.91792183404E+02 0.  0.
         23    2    4    4    0    0 -0.32524195182E+03  0.39875672570E+03 -0.24734464695E+03  0.57741205118E+03  0.86232528451E+02 0.  0.
          2    1    3    3  502    0  0.48646594088E+02 -0.13304063195E+03 -0.32250741861E+02  0.14528045710E+03  0.00000000000E+00 0. -1.
         -1    1    3    3    0  502 -0.22844955428E+02 -0.40652627172E+02 -0.26818550901E+02  0.53793705551E+02  0.00000000000E+00 0.  1.
         13    1    5    5    0    0 -0.39645752833E+01 -0.99632971796E+01  0.43720350746E+01  0.11580148469E+02  0.00000000000E+00 0.  1.
        -13    1    5    5    0    0  0.30340488844E+03 -0.21510016940E+03 -0.13272118523E+03  0.39488925310E+03  0.00000000000E+00 0. -1.
          1    1    6    6  503    0 -0.32466442578E+03  0.36805455624E+03 -0.22838807029E+03  0.54132453887E+03  0.00000000000E+00 0. -1.
         -1    1    6    6    0  503 -0.57752603476E+00  0.30702169460E+02 -0.18956576658E+02  0.36087512306E+02  0.00000000000E+00 0.  1.
<mgrwt>
<rscale>  0 0.11001659E+04</rscale>
<asrwt>0</asrwt>
<pdfrwt beam="1">  1        2 0.57553271E-01 0.11001659E+04</pdfrwt>
<pdfrwt beam="2">  1       -1 0.12443990E+00 0.11001659E+04</pdfrwt>
<totfact> 0.55184441E+01</totfact>
</mgrwt>
</event>
<event>
12    7  0.1701638E-007  0.1338689E+04  0.7818608E-02  0.8999435E-01
          2   -1    0    0  501    0  0.00000000000E+00  0.00000000000E+00  0.15368947951E+04  0.15368947951E+04  0.00000000000E+00 0. -1.
         -1   -1    0    0    0  501 -0.00000000000E+00 -0.00000000000E+00 -0.29151104541E+03  0.29151104541E+03  0.00000000000E+00 0.  1.
         24    2    1    2    0    0 -0.56144326129E+02  0.35560956373E+03  0.49036305428E+03  0.61710546989E+03  0.10369613682E+03 0.  0.
        254    2    1    2    0    0  0.56144326129E+02 -0.35560956373E+03  0.75502069546E+03  0.12113003707E+04  0.87611756643E+03 0.  0.
         23    2    4    4    0    0 -0.20608747979E+03  0.14662632872E+03  0.92266557932E+01  0.26953003171E+03  0.92682129972E+02 0.  0.
         23    2    4    4    0    0  0.26223180592E+03 -0.50223589246E+03  0.74579403966E+03  0.94177033894E+03  0.98570837523E+02 0.  0.
          4    1    3    3  502    0 -0.80938501199E+02  0.30561399108E+03  0.38776843706E+03  0.50031521394E+03  0.00000000000E+00 0. -1.
         -3    1    3    3    0  502  0.24794175071E+02  0.49995572650E+02  0.10259461722E+03  0.11679025595E+03  0.00000000000E+00 0.  1.
         13    1    5    5    0    0 -0.96633496981E+02  0.11851427121E+03 -0.15969335360E+02  0.15374877200E+03  0.00000000000E+00 0.  1.
        -13    1    5    5    0    0 -0.10945398281E+03  0.28112057513E+02  0.25195991153E+02  0.11578125971E+03  0.00000000000E+00 0. -1.
          2    1    6    6  503    0  0.12728574449E+03 -0.20544609832E+03  0.24454703049E+03  0.34382118926E+03  0.00000000000E+00 0. -1.
         -2    1    6    6    0  503  0.13494606143E+03 -0.29678979414E+03  0.50124700917E+03  0.59794914968E+03  0.00000000000E+00 0.  1.
<mgrwt>
<rscale>  0 0.13386886E+04</rscale>
<asrwt>0</asrwt>
<pdfrwt beam="1">  1        2 0.23644535E+00 0.13386886E+04</pdfrwt>
<pdfrwt beam="2">  1       -1 0.44847854E-01 0.13386886E+04</pdfrwt>
<totfact> 0.66409832E+01</totfact>
</mgrwt>
</event>
<event>
12    7  0.1701638E-007  0.1450107E+04  0.7818608E-02  0.8918326E-01
         -1   -1    0    0    0  501 -0.00000000000E+00  0.00000000000E+00  0.20613002419E+03  0.20613002419E+03  0.00000000000E+00 0.  1.
          2   -1    0    0  501    0  0.00000000000E+00 -0.00000000000E+00 -0.25503443527E+04  0.25503443527E+04  0.00000000000E+00 0. -1.
         24    2    1    2    0    0 -0.31141584044E+03 -0.19131838237E+03 -0.11775090239E+04  0.12355254806E+04  0.80082225288E+02 0.  0.
        254    2    1    2    0    0  0.31141584044E+03  0.19131838237E+03 -0.11667053046E+04  0.15209488962E+04  0.90471085329E+03 0.  0.
         23    2    4    4    0    0  0.61827559644E+03  0.16018080505E+03 -0.87406604700E+03  0.10862308872E+04  0.89350334337E+02 0.  0.
         23    2    4    4    0    0 -0.30685975599E+03  0.31137577317E+02 -0.29263925757E+03  0.43471800905E+03  0.90606587795E+02 0.  0.
          4    1    3    3  502    0 -0.20717333093E+03 -0.97179358227E+02 -0.82252306179E+03  0.85376156149E+03  0.00000000000E+00 0. -1.
         -3    1    3    3    0  502 -0.10424250951E+03 -0.94139024140E+02 -0.35498596211E+03  0.38176391913E+03  0.00000000000E+00 0.  1.
         13    1    5    5    0    0  0.12426010129E+03  0.67933546810E+02 -0.17122165385E+03  0.22219899707E+03  0.00000000000E+00 0. -1.
        -13    1    5    5    0    0  0.49401549515E+03  0.92247258240E+02 -0.70284439315E+03  0.86403189008E+03  0.00000000000E+00 0.  1.
          4    1    6    6  503    0 -0.86376831583E+02 -0.30635537524E+02 -0.98234802282E+02  0.13434868653E+03  0.00000000000E+00 0. -1.
         -4    1    6    6    0  503 -0.22048292441E+03  0.61773114841E+02 -0.19440445529E+03  0.30036932252E+03  0.00000000000E+00 0.  1.
<mgrwt>
<rscale>  0 0.14501070E+04</rscale>
<asrwt>0</asrwt>
<pdfrwt beam="1">  1        2 0.39236068E+00 0.14501070E+04</pdfrwt>
<pdfrwt beam="2">  1       -1 0.31712311E-01 0.14501070E+04</pdfrwt>
<totfact> 0.33370591E+01</totfact>
</mgrwt>
</event>
<event>
12    7  0.1701638E-007  0.1443344E+04  0.7818608E-02  0.8923028E-01
         -1   -1    0    0    0  501 -0.00000000000E+00  0.00000000000E+00  0.18479142581E+03  0.18479142581E+03  0.00000000000E+00 0.  1.
          2   -1    0    0  501    0  0.00000000000E+00 -0.00000000000E+00 -0.28183684342E+04  0.28183684342E+04  0.00000000000E+00 0. -1.
         24    2    1    2    0    0  0.39207945837E+03 -0.16122676617E+03 -0.10338422859E+04  0.11200662704E+04  0.77448086387E+02 0.  0.
        254    2    1    2    0    0 -0.39207945837E+03  0.16122676617E+03 -0.15997347225E+04  0.18830935896E+04  0.89842635380E+03 0.  0.
         23    2    4    4    0    0 -0.64303439512E+03 -0.21310757615E+02 -0.87973711658E+03  0.10937729600E+04  0.91948420862E+02 0.  0.
         23    2    4    4    0    0  0.25095493675E+03  0.18253752379E+03 -0.71999760589E+03  0.78932062960E+03  0.91280753445E+02 0.  0.
          2    1    3    3  502    0  0.36790268059E+03 -0.16880096222E+03 -0.98770843908E+03  0.10674334208E+04  0.00000000000E+00 0. -1.
         -1    1    3    3    0  502  0.24176777784E+02  0.75741960518E+01 -0.46133846825E+02  0.52632849559E+02  0.00000000000E+00 0.  1.
         13    1    5    5    0    0 -0.29956290881E+02  0.18525494611E+02 -0.56029856730E+02  0.66180950123E+02  0.00000000000E+00 0.  1.
        -13    1    5    5    0    0 -0.61307810424E+03 -0.39836252225E+02 -0.82370725985E+03  0.10275920099E+04  0.00000000000E+00 0. -1.
          1    1    6    6  503    0  0.91636333341E+02  0.64200335026E+02 -0.37475618945E+03  0.39110241899E+03  0.00000000000E+00 0. -1.
         -1    1    6    6    0  503  0.15931860341E+03  0.11833718876E+03 -0.34524141644E+03  0.39821821061E+03  0.00000000000E+00 0.  1.
<mgrwt>
<rscale>  0 0.14433438E+04</rscale>
<asrwt>0</asrwt>
<pdfrwt beam="1">  1        2 0.43359510E+00 0.14433438E+04</pdfrwt>
<pdfrwt beam="2">  1       -1 0.28429453E-01 0.14433438E+04</pdfrwt>
<totfact> 0.28095838E+01</totfact>
</mgrwt>
</event>
<event>
12    7  0.1701638E-007  0.3574480E+04  0.7818608E-02  0.8096363E-01
          2   -1    0    0  501    0  0.00000000000E+00  0.00000000000E+00  0.25093748158E+04  0.25093748158E+04  0.00000000000E+00 0. -1.
         -1   -1    0    0    0  501 -0.00000000000E+00 -0.00000000000E+00 -0.12729171900E+04  0.12729171900E+04  0.00000000000E+00 0.  1.
         24    2    1    2    0    0  0.92942830420E+03 -0.59725360513E+03 -0.74932744264E+03  0.13373839769E+04  0.80965696418E+02 0.  0.
        254    2    1    2    0    0 -0.92942830420E+03  0.59725360513E+03  0.19857850685E+04  0.24449080289E+04  0.90204439460E+03 0.  0.
         23    2    4    4    0    0 -0.27305827722E+03  0.68701518105E+03  0.12046790588E+04  0.14164305928E+04  0.92050571452E+02 0.  0.
         23    2    4    4    0    0 -0.65637002699E+03 -0.89761575926E+02  0.78110600967E+03  0.10284774361E+04  0.93597464126E+02 0.  0.
          4    1    3    3  502    0  0.35295417388E+01 -0.10154861503E+02 -0.31467265836E+01  0.11201819728E+02  0.00000000000E+00 0. -1.
         -3    1    3    3    0  502  0.92589876247E+03 -0.58709874362E+03 -0.74618071605E+03  0.13261821572E+04  0.00000000000E+00 0.  1.
         13    1    5    5    0    0 -0.27638667513E+03  0.63159045167E+03  0.11101845478E+04  0.13068304492E+04  0.00000000000E+00 0.  1.
        -13    1    5    5    0    0  0.33283979155E+01  0.55424729385E+02  0.94494511061E+02  0.10960014362E+03  0.00000000000E+00 0. -1.
          3    1    6    6  503    0 -0.44207389743E+03 -0.17837822874E+02  0.53703053976E+03  0.69580839270E+03  0.00000000000E+00 0. -1.
         -3    1    6    6    0  503 -0.21429612956E+03 -0.71923753051E+02  0.24407546992E+03  0.33266904336E+03  0.00000000000E+00 0.  1.
<mgrwt>
<rscale>  0 0.35744797E+04</rscale>
<asrwt>0</asrwt>
<pdfrwt beam="1">  1        2 0.38605766E+00 0.35744797E+04</pdfrwt>
<pdfrwt beam="2">  1       -1 0.19583341E+00 0.35744797E+04</pdfrwt>
<totfact> 0.51318274E-01</totfact>
</mgrwt>
</event>
<event>
12    7  0.1701638E-007  0.2694537E+04  0.7818608E-02  0.8336780E-01
         -1   -1    0    0    0  501 -0.00000000000E+00  0.00000000000E+00  0.12145265352E+04  0.12145265352E+04  0.00000000000E+00 0.  1.
          2   -1    0    0  501    0  0.00000000000E+00 -0.00000000000E+00 -0.14945187293E+04  0.14945187293E+04  0.00000000000E+00 0. -1.
         24    2    1    2    0    0 -0.43452307185E+03 -0.18308454722E+03  0.98524911851E+03  0.10952568210E+04  0.80879088962E+02 0.  0.
        254    2    1    2    0    0  0.43452307185E+03  0.18308454722E+03 -0.12652413125E+04  0.16137884435E+04  0.88382538437E+03 0.  0.
         23    2    4    4    0    0  0.67119708887E+03  0.26492381729E+03 -0.10166966471E+04  0.12499051728E+04  0.88885924175E+02 0.  0.
         23    2    4    4    0    0 -0.23667401703E+03 -0.81839270071E+02 -0.24854466539E+03  0.36388327074E+03  0.89018692245E+02 0.  0.
          2    1    3    3  502    0 -0.33741606444E+02  0.71869018013E+01  0.80752892577E+02  0.87813308915E+02  0.00000000000E+00 0. -1.
         -3    1    3    3    0  502 -0.40078146540E+03 -0.19027144902E+03  0.90449622593E+03  0.10074435121E+04  0.00000000000E+00 0.  1.
         13    1    5    5    0    0  0.17163996293E+03  0.98755207939E+02 -0.32617315712E+03  0.38157803448E+03  0.00000000000E+00 0.  1.
        -13    1    5    5    0    0  0.49955712595E+03  0.16616860935E+03 -0.69052349001E+03  0.86832713828E+03  0.00000000000E+00 0. -1.
          2    1    6    6  503    0 -0.19882115330E+03 -0.54298181371E+02 -0.23990772732E+03  0.31628130063E+03  0.00000000000E+00 0. -1.
         -2    1    6    6    0  503 -0.37852863723E+02 -0.27541088700E+02 -0.86369380670E+01  0.47601970106E+02  0.00000000000E+00 0.  1.
<mgrwt>
<rscale>  0 0.26945372E+04</rscale>
<asrwt>0</asrwt>
<pdfrwt beam="1">  1        2 0.22992596E+00 0.26945372E+04</pdfrwt>
<pdfrwt beam="2">  1       -1 0.18685024E+00 0.26945372E+04</pdfrwt>
<totfact> 0.23766178E+00</totfact>
</mgrwt>
</event>
<event>
12    7  0.1701638E-007  0.1608777E+04  0.7818608E-02  0.8815174E-01
          2   -1    0    0  501    0  0.00000000000E+00  0.00000000000E+00  0.85886991112E+03  0.85886991112E+03  0.00000000000E+00 0. -1.
         -1   -1    0    0    0  501 -0.00000000000E+00 -0.00000000000E+00 -0.75336276211E+03  0.75336276211E+03  0.00000000000E+00 0.  1.
         24    2    1    2    0    0 -0.13723613685E+03 -0.50693457845E+03  0.19811435838E+03  0.56690400337E+03  0.79463362329E+02 0.  0.
        254    2    1    2    0    0  0.13723613685E+03  0.50693457845E+03 -0.92607209370E+02  0.10453286699E+04  0.89906590899E+03 0.  0.
         23    2    4    4    0    0 -0.11780190988E+03  0.55673344480E+03 -0.34527383540E+03  0.67176345154E+03  0.90679076349E+02 0.  0.
         23    2    4    4    0    0  0.25503804672E+03 -0.49798866346E+02  0.25266662603E+03  0.37356521832E+03  0.90477710306E+02 0.  0.
          4    1    3    3  502    0 -0.91768238994E+02 -0.41575120411E+03  0.18484363168E+03  0.46415260592E+03  0.00000000000E+00 0. -1.
         -3    1    3    3    0  502 -0.45467897852E+02 -0.91183374340E+02  0.13270726707E+02  0.10275139745E+03  0.00000000000E+00 0.  1.
         13    1    5    5    0    0  0.10045973331E+02  0.13923237166E+03 -0.82139246619E+02  0.16196737552E+03  0.00000000000E+00 0.  1.
        -13    1    5    5    0    0 -0.12784788321E+03  0.41750107314E+03 -0.26313458878E+03  0.50979607602E+03  0.00000000000E+00 0. -1.
          3    1    6    6  503    0  0.14167826753E+03  0.10865317867E+02  0.16600507106E+03  0.21851423350E+03  0.00000000000E+00 0. -1.
         -3    1    6    6    0  503  0.11335977919E+03 -0.60664184214E+02  0.86661554974E+02  0.15505098482E+03  0.00000000000E+00 0.  1.
<mgrwt>
<rscale>  0 0.16087767E+04</rscale>
<asrwt>0</asrwt>
<pdfrwt beam="1">  1        2 0.13213383E+00 0.16087767E+04</pdfrwt>
<pdfrwt beam="2">  1       -1 0.11590196E+00 0.16087767E+04</pdfrwt>
<totfact> 0.23061022E+01</totfact>
</mgrwt>
</event>
<event>
12    7  0.1701638E-007  0.1520026E+04  0.7818608E-02  0.8871244E-01
         -1   -1    0    0    0  501 -0.00000000000E+00  0.00000000000E+00  0.54882298510E+03  0.54882298510E+03  0.00000000000E+00 0.  1.
          2   -1    0    0  501    0  0.00000000000E+00 -0.00000000000E+00 -0.10524699179E+04  0.10524699179E+04  0.00000000000E+00 0. -1.
         24    2    1    2    0    0  0.42284879573E+03  0.41207352786E+02  0.93849927928E+02  0.44222204211E+03  0.79078287687E+02 0.  0.
        254    2    1    2    0    0 -0.42284879573E+03 -0.41207352786E+02 -0.59749686072E+03  0.11590708609E+04  0.89774362266E+03 0.  0.
         23    2    4    4    0    0 -0.29087023773E+03  0.40601331344E+03 -0.23007840573E+03  0.55700157932E+03  0.88670066521E+02 0.  0.
         23    2    4    4    0    0 -0.13197855799E+03 -0.44722066622E+03 -0.36741845499E+03  0.60206928157E+03  0.10033162350E+03 0.  0.
          4    1    3    3  502    0  0.13010600164E+03  0.66583210205E+01  0.66262191539E+02  0.14615944351E+03  0.00000000000E+00 0. -1.
         -3    1    3    3    0  502  0.29274279409E+03  0.34549031765E+02  0.27587736388E+02  0.29606259859E+03  0.00000000000E+00 0.  1.
         13    1    5    5    0    0 -0.11014971685E+03  0.21892422857E+03 -0.86521795308E+02  0.25989767033E+03  0.00000000000E+00 0.  1.
        -13    1    5    5    0    0 -0.18072052088E+03  0.18708908486E+03 -0.14355661042E+03  0.29710390899E+03  0.00000000000E+00 0. -1.
          3    1    6    6  503    0  0.23154849314E+01 -0.38793150347E+02 -0.67393514089E+02  0.77795602225E+02  0.00000000000E+00 0. -1.
         -3    1    6    6    0  503 -0.13429404292E+03 -0.40842751588E+03 -0.30002494090E+03  0.52427367935E+03  0.00000000000E+00 0.  1.
<mgrwt>
<rscale>  0 0.15200259E+04</rscale>
<asrwt>0</asrwt>
<pdfrwt beam="1">  1        2 0.16191845E+00 0.15200259E+04</pdfrwt>
<pdfrwt beam="2">  1       -1 0.84434307E-01 0.15200259E+04</pdfrwt>
<totfact> 0.35663729E+01</totfact>
</mgrwt>
</event>
<event>
12    7  0.1701638E-007  0.1192881E+04  0.7818608E-02  0.9119111E-01
          2   -1    0    0  501    0  0.00000000000E+00  0.00000000000E+00  0.91474946841E+03  0.91474946841E+03  0.00000000000E+00 0. -1.
         -3   -1    0    0    0  501 -0.00000000000E+00 -0.00000000000E+00 -0.38889488282E+03  0.38889488282E+03  0.00000000000E+00 0.  1.
         24    2    1    2    0    0 -0.46695225731E+02  0.16840335896E+03  0.30998504639E+03  0.36469239688E+03  0.79810274694E+02 0.  0.
        254    2    1    2    0    0  0.46695225731E+02 -0.16840335896E+03  0.21586953920E+03  0.93895195435E+03  0.89693421119E+03 0.  0.
         23    2    4    4    0    0 -0.31144209015E+02 -0.35579015574E+03  0.47220511958E+03  0.59959128962E+03  0.94738814429E+02 0.  0.
         23    2    4    4    0    0  0.77839434746E+02  0.18738679678E+03 -0.25633558037E+03  0.33936066473E+03  0.91021655620E+02 0.  0.
          2    1    3    3  502    0 -0.38756141732E+02  0.15141780304E+03  0.30856091247E+03  0.34588903756E+03  0.00000000000E+00 0. -1.
         -1    1    3    3    0  502 -0.79390839982E+01  0.16985555918E+02  0.14241339209E+01  0.18803359328E+02  0.00000000000E+00 0.  1.
         13    1    5    5    0    0 -0.25753642095E+02 -0.30690195265E+03  0.34111278946E+03  0.45957588466E+03  0.00000000000E+00 0.  1.
        -13    1    5    5    0    0 -0.53905669205E+01 -0.48888203087E+02  0.13109233011E+03  0.14001540496E+03  0.00000000000E+00 0. -1.
          3    1    6    6  503    0  0.57811766322E+02  0.32818148017E+02 -0.73278441882E+02  0.98939179344E+02  0.00000000000E+00 0. -1.
         -3    1    6    6    0  503  0.20027668424E+02  0.15456864877E+03 -0.18305713849E+03  0.24042148539E+03  0.00000000000E+00 0.  1.
<mgrwt>
<rscale>  0 0.11928812E+04</rscale>
<asrwt>0</asrwt>
<pdfrwt beam="1">  1        2 0.14073069E+00 0.11928812E+04</pdfrwt>
<pdfrwt beam="2">  1       -3 0.59829982E-01 0.11928812E+04</pdfrwt>
<totfact> 0.49144421E+01</totfact>
</mgrwt>
</event>
<event>
12    7  0.1701638E-007  0.2318274E+04  0.7818608E-02  0.8470751E-01
         -1   -1    0    0    0  501 -0.00000000000E+00  0.00000000000E+00  0.10883264996E+04  0.10883264996E+04  0.00000000000E+00 0.  1.
          2   -1    0    0  501    0  0.00000000000E+00 -0.00000000000E+00 -0.12345542442E+04  0.12345542442E+04  0.00000000000E+00 0. -1.
         24    2    1    2    0    0 -0.27051663046E+03 -0.31590735866E+03 -0.95993704298E+03  0.10492538744E+04  0.80485153512E+02 0.  0.
        254    2    1    2    0    0  0.27051663046E+03  0.31590735866E+03  0.81370929840E+03  0.12736268693E+04  0.88714478714E+03 0.  0.
         23    2    4    4    0    0  0.22545114635E+03 -0.15936670513E+03  0.72217358623E+03  0.77865924873E+03  0.92463889680E+02 0.  0.
         23    2    4    4    0    0  0.45065484114E+02  0.47527406379E+03  0.91535712174E+02  0.49496762060E+03  0.93262132007E+02 0.  0.
          2    1    3    3  502    0 -0.17745179119E+03 -0.19769643118E+03 -0.51350543011E+03  0.57815295887E+03  0.00000000000E+00 0. -1.
         -3    1    3    3    0  502 -0.93064839275E+02 -0.11821092749E+03 -0.44643161287E+03  0.47110091557E+03  0.00000000000E+00 0.  1.
         13    1    5    5    0    0  0.67314408590E+02 -0.84610824665E+02  0.19166620842E+03  0.22005943902E+03  0.00000000000E+00 0.  1.
        -13    1    5    5    0    0  0.15813673776E+03 -0.74755880460E+02  0.53050737781E+03  0.55859980970E+03  0.00000000000E+00 0. -1.
          2    1    6    6  503    0 -0.68130554838E+01  0.19553433541E+03  0.76448661361E+02  0.21005830589E+03  0.00000000000E+00 0.  1.
         -2    1    6    6    0  503  0.51878539597E+02  0.27973972838E+03  0.15087050813E+02  0.28490931471E+03  0.00000000000E+00 0. -1.
<mgrwt>
<rscale>  0 0.23182736E+04</rscale>
<asrwt>0</asrwt>
<pdfrwt beam="1">  1        2 0.18993142E+00 0.23182736E+04</pdfrwt>
<pdfrwt beam="2">  1       -1 0.16743485E+00 0.23182736E+04</pdfrwt>
<totfact> 0.47910010E+00</totfact>
</mgrwt>
</event>
<event>
12    7  0.1701638E-007  0.1956020E+04  0.7818608E-02  0.8627463E-01
          2   -1    0    0  501    0  0.00000000000E+00  0.00000000000E+00  0.32004958312E+04  0.32004958312E+04  0.00000000000E+00 0. -1.
         -1   -1    0    0    0  501 -0.00000000000E+00 -0.00000000000E+00 -0.29886109890E+03  0.29886109890E+03  0.00000000000E+00 0.  1.
         24    2    1    2    0    0 -0.43837056698E+03  0.11308842108E+03  0.22405304229E+04  0.22871103971E+04  0.77069107574E+02 0.  0.
        254    2    1    2    0    0  0.43837056698E+03 -0.11308842108E+03  0.66110430942E+03  0.12122465331E+04  0.90968401330E+03 0.  0.
         23    2    4    4    0    0  0.15598846778E+03 -0.49740256385E+03  0.32032626531E+03  0.61919235878E+03  0.95123857818E+02 0.  0.
         23    2    4    4    0    0  0.28238209920E+03  0.38431414277E+03  0.34077804411E+03  0.59305417430E+03  0.90258340452E+02 0.  0.
          4    1    3    3  502    0 -0.35678336916E+03  0.11837333921E+03  0.19079126124E+04  0.19445917712E+04  0.00000000000E+00 0. -1.
         -3    1    3    3    0  502 -0.81587197816E+02 -0.52849181357E+01  0.33261781048E+03  0.34251862585E+03  0.00000000000E+00 0.  1.
         13    1    5    5    0    0  0.85248308409E+02 -0.30377690518E+03  0.13948705161E+03  0.34497002735E+03  0.00000000000E+00 0.  1.
        -13    1    5    5    0    0  0.70740159367E+02 -0.19362565867E+03  0.18083921370E+03  0.27422233143E+03  0.00000000000E+00 0. -1.
          3    1    6    6  503    0  0.19358152294E+03  0.21663712750E+03  0.16344423784E+03  0.33334587131E+03  0.00000000000E+00 0. -1.
         -3    1    6    6    0  503  0.88800576257E+02  0.16767701527E+03  0.17733380627E+03  0.25970830299E+03  0.00000000000E+00 0.  1.
<mgrwt>
<rscale>  0 0.19560201E+04</rscale>
<asrwt>0</asrwt>
<pdfrwt beam="1">  1        2 0.49238395E+00 0.19560201E+04</pdfrwt>
<pdfrwt beam="2">  1       -1 0.45978633E-01 0.19560201E+04</pdfrwt>
<totfact> 0.64940019E+00</totfact>
</mgrwt>
</event>
<event>
12    7  0.1701638E-007  0.1545014E+04  0.7818608E-02  0.8855059E-01
          2   -1    0    0  501    0  0.00000000000E+00  0.00000000000E+00  0.96299995850E+03  0.96299995850E+03  0.00000000000E+00 0. -1.
         -1   -1    0    0    0  501 -0.00000000000E+00 -0.00000000000E+00 -0.61969585737E+03  0.61969585737E+03  0.00000000000E+00 0.  1.
         24    2    1    2    0    0 -0.33528222400E+02 -0.17705152174E+03 -0.31422134610E+03  0.37239145660E+03  0.86423142475E+02 0.  0.
        254    2    1    2    0    0  0.33528222400E+02  0.17705152174E+03  0.65752544723E+03  0.12103043593E+04  0.10000127725E+04 0.  0.
         23    2    4    4    0    0  0.26806747967E+03 -0.23817952637E+03 -0.27243697271E+02  0.37091593981E+03  0.90811645328E+02 0.  0.
         23    2    4    4    0    0 -0.23453925727E+03  0.41523104810E+03  0.68476914451E+03  0.83938841946E+03  0.90767014607E+02 0.  0.
          4    1    3    3  502    0 -0.90497199278E+00 -0.33278665143E+02 -0.10714230842E+02  0.34972607431E+02  0.00000000000E+00 0. -1.
         -3    1    3    3    0  502 -0.32623250407E+02 -0.14377285659E+03 -0.30350711526E+03  0.33741884917E+03  0.00000000000E+00 0.  1.
         13    1    5    5    0    0  0.13276762917E+03 -0.84718760957E+02  0.25726514989E+02  0.15958184542E+03  0.00000000000E+00 0.  1.
        -13    1    5    5    0    0  0.13529985050E+03 -0.15346076541E+03 -0.52970212259E+02  0.21133409439E+03  0.00000000000E+00 0. -1.
          3    1    6    6  503    0 -0.12540361732E+03  0.26923746794E+03  0.35748580314E+03  0.46476981488E+03  0.00000000000E+00 0. -1.
         -3    1    6    6    0  503 -0.10913563996E+03  0.14599358016E+03  0.32728334137E+03  0.37461860457E+03  0.00000000000E+00 0.  1.
<mgrwt>
<rscale>  0 0.15450140E+04</rscale>
<asrwt>0</asrwt>
<pdfrwt beam="1">  1        2 0.14815384E+00 0.15450140E+04</pdfrwt>
<pdfrwt beam="2">  1       -1 0.95337823E-01 0.15450140E+04</pdfrwt>
<totfact> 0.31078856E+01</totfact>
</mgrwt>
</event>
<event>
12    7  0.1701638E-007  0.2025878E+04  0.7818608E-02  0.8594617E-01
          2   -1    0    0  501    0  0.00000000000E+00  0.00000000000E+00  0.14208547497E+04  0.14208547497E+04  0.00000000000E+00 0. -1.
         -1   -1    0    0    0  501 -0.00000000000E+00 -0.00000000000E+00 -0.72213218154E+03  0.72213218154E+03  0.00000000000E+00 0.  1.
         24    2    1    2    0    0 -0.15400497043E+03 -0.47529752687E+03  0.95949348918E+03  0.10848522003E+04  0.81555323038E+02 0.  0.
        254    2    1    2    0    0  0.15400497043E+03  0.47529752687E+03 -0.26077092107E+03  0.10581347309E+04  0.89555701411E+03 0.  0.
         23    2    4    4    0    0 -0.79589100030E+02 -0.22176662706E+03  0.44557334841E+02  0.25628632975E+03  0.90456978761E+02 0.  0.
         23    2    4    4    0    0  0.23359407046E+03  0.69706415393E+03 -0.30532825591E+03  0.80184840116E+03  0.96285461722E+02 0.  0.
          2    1    3    3  502    0 -0.14597777516E+03 -0.44465751063E+03  0.93201549075E+03  0.10429202691E+04  0.00000000000E+00 0. -1.
         -1    1    3    3    0  502 -0.80271952671E+01 -0.30640016243E+02  0.27477998431E+02  0.41931931234E+02  0.00000000000E+00 0.  1.
         13    1    5    5    0    0 -0.55412379153E+01 -0.34056484182E+02  0.42166727043E+02  0.54484697870E+02  0.00000000000E+00 0. -1.
        -13    1    5    5    0    0 -0.74047862115E+02 -0.18771014288E+03  0.23906077983E+01  0.20180163188E+03  0.00000000000E+00 0.  1.
          2    1    6    6  503    0  0.48923946047E+02  0.26696440313E+03 -0.14038191440E+03  0.30556607620E+03  0.00000000000E+00 0. -1.
         -2    1    6    6    0  503  0.18467012441E+03  0.43009975080E+03 -0.16494634152E+03  0.49628232496E+03  0.00000000000E+00 0.  1.
<mgrwt>
<rscale>  0 0.20258775E+04</rscale>
<asrwt>0</asrwt>
<pdfrwt beam="1">  1        2 0.21859304E+00 0.20258775E+04</pdfrwt>
<pdfrwt beam="2">  1       -1 0.11109726E+00 0.20258775E+04</pdfrwt>
<totfact> 0.11087811E+01</totfact>
</mgrwt>
</event>
<event>
12    7  0.1701638E-007  0.1741554E+04  0.7818608E-02  0.8738013E-01
         -1   -1    0    0    0  501 -0.00000000000E+00  0.00000000000E+00  0.11369565946E+04  0.11369565946E+04  0.00000000000E+00 0.  1.
          2   -1    0    0  501    0  0.00000000000E+00 -0.00000000000E+00 -0.66691425863E+03  0.66691425863E+03  0.00000000000E+00 0. -1.
         24    2    1    2    0    0  0.38695938711E+03  0.23579210077E+03 -0.28258622572E+03  0.53982594230E+03  0.78877062272E+02 0.  0.
        254    2    1    2    0    0 -0.38695938711E+03 -0.23579210077E+03  0.75262856167E+03  0.12640449109E+04  0.90885879151E+03 0.  0.
         23    2    4    4    0    0  0.21588025657E+03  0.12686618828E+03  0.37726460025E+03  0.46152515010E+03  0.89317247334E+02 0.  0.
         23    2    4    4    0    0 -0.60283964368E+03 -0.36265828904E+03  0.37536396142E+03  0.80251976081E+03  0.90571476471E+02 0.  0.
          4    1    3    3  502    0  0.15982537749E+03  0.13369638735E+03 -0.15718152849E+03  0.26100748682E+03  0.00000000000E+00 0. -1.
         -3    1    3    3    0  502  0.22713400962E+03  0.10209571342E+03 -0.12540469723E+03  0.27881845548E+03  0.00000000000E+00 0.  1.
         13    1    5    5    0    0  0.38463404580E+02 -0.12274345840E+02  0.56135379629E+02  0.69146756278E+02  0.00000000000E+00 0.  1.
        -13    1    5    5    0    0  0.17741685199E+03  0.13914053411E+03  0.32112922062E+03  0.39237839382E+03  0.00000000000E+00 0. -1.
          1    1    6    6  503    0 -0.20348120003E+02 -0.12212981141E+00  0.24706171731E+02  0.32007121472E+02  0.00000000000E+00 0.  1.
         -1    1    6    6    0  503 -0.58249152368E+03 -0.36253615923E+03  0.35065778969E+03  0.77051263934E+03  0.00000000000E+00 0. -1.
<mgrwt>
<rscale>  0 0.17415540E+04</rscale>
<asrwt>0</asrwt>
<pdfrwt beam="1">  1        2 0.10260219E+00 0.17415540E+04</pdfrwt>
<pdfrwt beam="2">  1       -1 0.17491640E+00 0.17415540E+04</pdfrwt>
<totfact> 0.10683488E+01</totfact>
</mgrwt>
</event>
<event>
12    7  0.1701638E-007  0.1439730E+04  0.7818608E-02  0.8925552E-01
         -1   -1    0    0    0  501 -0.00000000000E+00  0.00000000000E+00  0.44626621750E+03  0.44626621750E+03  0.00000000000E+00 0.  1.
          2   -1    0    0  501    0  0.00000000000E+00 -0.00000000000E+00 -0.11612024685E+04  0.11612024685E+04  0.00000000000E+00 0. -1.
         24    2    1    2    0    0  0.11306953962E+03  0.42208576580E+03 -0.30856490645E+03  0.54100470124E+03  0.80824939160E+02 0.  0.
        254    2    1    2    0    0 -0.11306953962E+03 -0.42208576580E+03 -0.40637134456E+03  0.10664639848E+04  0.88389289321E+03 0.  0.
         23    2    4    4    0    0 -0.41849193786E+03 -0.41537028633E+02 -0.37201572418E+03  0.56888680213E+03  0.91518674559E+02 0.  0.
         23    2    4    4    0    0  0.30542239825E+03 -0.38054873717E+03 -0.34355620379E+02  0.49757718265E+03  0.91118391838E+02 0.  0.
          2    1    3    3  502    0  0.48738293670E+02  0.13297843877E+03 -0.57958404730E+02  0.15302896172E+03  0.00000000000E+00 0. -1.
         -1    1    3    3    0  502  0.64331245946E+02  0.28910732703E+03 -0.25060650172E+03  0.38797573952E+03  0.00000000000E+00 0.  1.
         13    1    5    5    0    0 -0.29081978475E+03 -0.38791701197E+02 -0.31033243646E+03  0.42706810277E+03  0.00000000000E+00 0.  1.
        -13    1    5    5    0    0 -0.12767215311E+03 -0.27453274363E+01 -0.61683287715E+02  0.14181869935E+03  0.00000000000E+00 0. -1.
          4    1    6    6  503    0  0.73974524279E+02 -0.87372825179E+02 -0.47203557701E+02  0.12383221181E+03  0.00000000000E+00 0. -1.
         -4    1    6    6    0  503  0.23144787397E+03 -0.29317591199E+03  0.12847937322E+02  0.37374497084E+03  0.00000000000E+00 0.  1.
<mgrwt>
<rscale>  0 0.14397297E+04</rscale>
<asrwt>0</asrwt>
<pdfrwt beam="1">  1        2 0.17864653E+00 0.14397297E+04</pdfrwt>
<pdfrwt beam="2">  1       -1 0.68656341E-01 0.14397297E+04</pdfrwt>
<totfact> 0.47495044E+01</totfact>
</mgrwt>
</event>
<event>
12    7  0.1701638E-007  0.1554972E+04  0.7818608E-02  0.8848698E-01
          2   -1    0    0  501    0  0.00000000000E+00  0.00000000000E+00  0.11702480266E+04  0.11702480266E+04  0.00000000000E+00 0. -1.
         -1   -1    0    0    0  501 -0.00000000000E+00 -0.00000000000E+00 -0.51654398618E+03  0.51654398618E+03  0.00000000000E+00 0.  1.
         24    2    1    2    0    0  0.38801019998E+03 -0.30287326344E+03  0.59509413384E+02  0.50282294831E+03  0.83698375575E+02 0.  0.
        254    2    1    2    0    0 -0.38801019998E+03  0.30287326344E+03  0.59419462705E+03  0.11839690645E+04  0.89801523475E+03 0.  0.
         23    2    4    4    0    0  0.30721340239E+02  0.33245463256E+03  0.66560076063E+03  0.74986093329E+03  0.88301547422E+02 0.  0.
         23    2    4    4    0    0 -0.41873154022E+03 -0.29581369122E+02 -0.71406133573E+02  0.43410813119E+03  0.84497772060E+02 0.  0.
          4    1    3    3  502    0  0.15661171690E+01  0.47279062826E+01  0.26464101173E+01  0.56399740525E+01  0.00000000000E+00 0. -1.
         -3    1    3    3    0  502  0.38644408281E+03 -0.30760116972E+03  0.56863003266E+02  0.49718297426E+03  0.00000000000E+00 0.  1.
         13    1    5    5    0    0  0.17898888944E+02  0.59444738041E+02  0.20583570934E+03  0.21499392164E+03  0.00000000000E+00 0. -1.
        -13    1    5    5    0    0  0.12822451295E+02  0.27300989452E+03  0.45976505129E+03  0.53486701165E+03  0.00000000000E+00 0.  1.
          1    1    6    6  503    0 -0.28719665181E+03  0.19164261851E+02 -0.43992353792E+02  0.29117780295E+03  0.00000000000E+00 0. -1.
         -1    1    6    6    0  503 -0.13153488841E+03 -0.48745630973E+02 -0.27413779780E+02  0.14293032824E+03  0.00000000000E+00 0.  1.
<mgrwt>
<rscale>  0 0.15549721E+04</rscale>
<asrwt>0</asrwt>
<pdfrwt beam="1">  1        2 0.18003816E+00 0.15549721E+04</pdfrwt>
<pdfrwt beam="2">  1       -1 0.79468306E-01 0.15549721E+04</pdfrwt>
<totfact> 0.34270422E+01</totfact>
</mgrwt>
</event>
<event>
12    7  0.1701638E-007  0.1701038E+04  0.7818608E-02  0.8760773E-01
          2   -1    0    0  501    0  0.00000000000E+00  0.00000000000E+00  0.10562952963E+04  0.10562952963E+04  0.00000000000E+00 0. -1.
         -1   -1    0    0    0  501 -0.00000000000E+00 -0.00000000000E+00 -0.68482981782E+03  0.68482981782E+03  0.00000000000E+00 0.  1.
         24    2    1    2    0    0 -0.39640622874E+03  0.13596352570E+03  0.58617926651E+03  0.72512153079E+03  0.81062466215E+02 0.  0.
        254    2    1    2    0    0  0.39640622874E+03 -0.13596352570E+03 -0.21471378806E+03  0.10160035833E+04  0.90029844606E+03 0.  0.
         23    2    4    4    0    0  0.31688549649E+02 -0.21392361197E+02  0.33015633769E+03  0.34435990739E+03  0.90104057644E+02 0.  0.
         23    2    4    4    0    0  0.36471767909E+03 -0.11457116451E+03 -0.54487012575E+03  0.67164367591E+03  0.89867882382E+02 0.  0.
          4    1    3    3  502    0 -0.23599645199E+03  0.47917164895E+02  0.28967217613E+03  0.37669662816E+03  0.00000000000E+00 0. -1.
         -3    1    3    3    0  502 -0.16040977674E+03  0.88046360810E+02  0.29650709038E+03  0.34842490263E+03  0.00000000000E+00 0.  1.
         13    1    5    5    0    0  0.24939826083E+02 -0.19942644051E+02  0.29034852956E+02  0.43159317221E+02  0.00000000000E+00 0.  1.
        -13    1    5    5    0    0  0.67487235668E+01 -0.14497171455E+01  0.30112148473E+03  0.30120059016E+03  0.00000000000E+00 0. -1.
          2    1    6    6  503    0  0.34568463013E+03 -0.10781522324E+03 -0.46556583860E+03  0.58980805009E+03  0.00000000000E+00 0. -1.
         -2    1    6    6    0  503  0.19033048958E+02 -0.67559412703E+01 -0.79304287144E+02  0.81835625827E+02  0.00000000000E+00 0.  1.
<mgrwt>
<rscale>  0 0.17010379E+04</rscale>
<asrwt>0</asrwt>
<pdfrwt beam="1">  1        2 0.16250697E+00 0.17010379E+04</pdfrwt>
<pdfrwt beam="2">  1       -1 0.10535843E+00 0.17010379E+04</pdfrwt>
<totfact> 0.21267727E+01</totfact>
</mgrwt>
</event>
<event>
12    7  0.1701638E-007  0.1191062E+04  0.7818608E-02  0.9120716E-01
         -1   -1    0    0    0  501 -0.00000000000E+00  0.00000000000E+00  0.10639942846E+04  0.10639942846E+04  0.00000000000E+00 0.  1.
          2   -1    0    0  501    0  0.00000000000E+00 -0.00000000000E+00 -0.33332644980E+03  0.33332644980E+03  0.00000000000E+00 0. -1.
         24    2    1    2    0    0 -0.24765611326E+02 -0.17512426650E+03 -0.45031820825E+02  0.19890052122E+03  0.79067744593E+02 0.  0.
        254    2    1    2    0    0  0.24765611326E+02  0.17512426650E+03  0.77569965565E+03  0.11984202132E+04  0.89622497591E+03 0.  0.
         23    2    4    4    0    0 -0.29589402644E+03  0.35900066295E+03  0.21496524925E+03  0.52070080280E+03  0.92111436652E+02 0.  0.
         23    2    4    4    0    0  0.32065963777E+03 -0.18387639646E+03  0.56073440640E+03  0.67771941042E+03  0.90815154398E+02 0.  0.
          2    1    3    3  502    0  0.13955894862E+02 -0.43485180515E+02 -0.41392179006E+02  0.61636356226E+02  0.00000000000E+00 0. -1.
         -1    1    3    3    0  502 -0.38721506189E+02 -0.13163908598E+03 -0.36396418187E+01  0.13726416499E+03  0.00000000000E+00 0.  1.
         13    1    5    5    0    0 -0.21369107699E+03  0.25363710374E+03  0.10573478136E+03  0.34810271583E+03  0.00000000000E+00 0. -1.
        -13    1    5    5    0    0 -0.82202949445E+02  0.10536355921E+03  0.10923046789E+03  0.17259808696E+03  0.00000000000E+00 0.  1.
          4    1    6    6  503    0  0.24530659421E+01 -0.20978803096E+02  0.17569251484E+02  0.27473738543E+02  0.00000000000E+00 0.  1.
         -4    1    6    6    0  503  0.31820657182E+03 -0.16289759336E+03  0.54316515492E+03  0.65024567187E+03  0.00000000000E+00 0. -1.
<mgrwt>
<rscale>  0 0.11910624E+04</rscale>
<asrwt>0</asrwt>
<pdfrwt beam="1">  1        2 0.51280993E-01 0.11910624E+04</pdfrwt>
<pdfrwt beam="2">  1       -1 0.16369143E+00 0.11910624E+04</pdfrwt>
<totfact> 0.30252449E+01</totfact>
</mgrwt>
</event>
<event>
12    7  0.1701638E-007  0.1732452E+04  0.7818608E-02  0.8743069E-01
          2   -1    0    0  501    0  0.00000000000E+00  0.00000000000E+00  0.21324318344E+04  0.21324318344E+04  0.00000000000E+00 0. -1.
         -1   -1    0    0    0  501 -0.00000000000E+00 -0.00000000000E+00 -0.35187402144E+03  0.35187402144E+03  0.00000000000E+00 0.  1.
         24    2    1    2    0    0 -0.16080010415E+03 -0.16357296419E+03 -0.18868607319E+03  0.30322546828E+03  0.61077510484E+02 0.  0.
        254    2    1    2    0    0  0.16080010415E+03  0.16357296419E+03  0.19692438861E+04  0.21810803875E+04  0.90916301382E+03 0.  0.
         23    2    4    4    0    0 -0.10759366673E+03  0.48525362944E+03  0.95590643438E+03  0.10809446126E+04  0.87387998584E+02 0.  0.
         23    2    4    4    0    0  0.26839377088E+03 -0.32168066524E+03  0.10133374518E+04  0.11001357749E+04  0.89063266530E+02 0.  0.
          4    1    3    3  502    0 -0.91296128206E+01 -0.33935851188E+01  0.38038618982E+01  0.10456367225E+02  0.00000000000E+00 0. -1.
         -3    1    3    3    0  502 -0.15167049133E+03 -0.16017937907E+03 -0.19248993509E+03  0.29276910105E+03  0.00000000000E+00 0.  1.
         13    1    5    5    0    0 -0.24443548958E+02  0.80988328140E+02  0.24147596391E+03  0.25586566305E+03  0.00000000000E+00 0.  1.
        -13    1    5    5    0    0 -0.83150117769E+02  0.40426530130E+03  0.71443047047E+03  0.82507894959E+03  0.00000000000E+00 0. -1.
          3    1    6    6  503    0  0.17527473762E+03 -0.20181634487E+03  0.74968120028E+03  0.79591015369E+03  0.00000000000E+00 0. -1.
         -3    1    6    6    0  503  0.93119033261E+02 -0.11986432038E+03  0.26365625148E+03  0.30422562121E+03  0.00000000000E+00 0.  1.
<mgrwt>
<rscale>  0 0.17324519E+04</rscale>
<asrwt>0</asrwt>
<pdfrwt beam="1">  1        2 0.32806643E+00 0.17324519E+04</pdfrwt>
<pdfrwt beam="2">  1       -1 0.54134466E-01 0.17324519E+04</pdfrwt>
<totfact> 0.20993580E+01</totfact>
</mgrwt>
</event>
<event>
12    7  0.1701638E-007  0.3904798E+04  0.7818608E-02  0.8024032E-01
         -1   -1    0    0    0  501 -0.00000000000E+00  0.00000000000E+00  0.30229362616E+04  0.30229362616E+04  0.00000000000E+00 0.  1.
          2   -1    0    0  501    0  0.00000000000E+00 -0.00000000000E+00 -0.12609798532E+04  0.12609798532E+04  0.00000000000E+00 0. -1.
         24    2    1    2    0    0  0.10168886354E+03  0.41768327645E+03  0.28108992936E+04  0.28447147478E+04  0.80294537524E+02 0.  0.
        254    2    1    2    0    0 -0.10168886354E+03 -0.41768327645E+03 -0.10489428853E+04  0.14392013671E+04  0.88669016801E+03 0.  0.
         23    2    4    4    0    0 -0.16380051557E+03  0.23698433605E+03 -0.19981184335E+03  0.36136372225E+03  0.87560165531E+02 0.  0.
         23    2    4    4    0    0  0.62111652025E+02 -0.65466761250E+03 -0.84913104191E+03  0.10778376448E+04  0.90900616473E+02 0.  0.
          2    1    3    3  502    0  0.56323568347E+02  0.12821280526E+03  0.73278264682E+03  0.74604374890E+03  0.00000000000E+00 0. -1.
         -1    1    3    3    0  502  0.45365295193E+02  0.28947047119E+03  0.20781166468E+04  0.20986709989E+04  0.00000000000E+00 0.  1.
         13    1    5    5    0    0 -0.21146850653E+02  0.55018666507E+02 -0.84394532573E+02  0.10294017721E+03  0.00000000000E+00 0.  1.
        -13    1    5    5    0    0 -0.14265366491E+03  0.18196566954E+03 -0.11541731078E+03  0.25842354504E+03  0.00000000000E+00 0. -1.
          4    1    6    6  503    0 -0.19603336995E+02 -0.14843334440E+03 -0.16407308177E+03  0.22211871761E+03  0.00000000000E+00 0. -1.
         -4    1    6    6    0  503  0.81714989020E+02 -0.50623426810E+03 -0.68505796014E+03  0.85571892720E+03  0.00000000000E+00 0.  1.
<mgrwt>
<rscale>  0 0.39047979E+04</rscale>
<asrwt>0</asrwt>
<pdfrwt beam="1">  1        2 0.19399690E+00 0.39047979E+04</pdfrwt>
<pdfrwt beam="2">  1       -1 0.46506712E+00 0.39047979E+04</pdfrwt>
<totfact> 0.40245233E-02</totfact>
</mgrwt>
</event>
<event>
12    7  0.1701638E-007  0.3168464E+04  0.7818608E-02  0.8197196E-01
          2   -1    0    0  501    0  0.00000000000E+00  0.00000000000E+00  0.32818061174E+04  0.32818061174E+04  0.00000000000E+00 0. -1.
         -1   -1    0    0    0  501 -0.00000000000E+00 -0.00000000000E+00 -0.76475915559E+03  0.76475915559E+03  0.00000000000E+00 0.  1.
         24    2    1    2    0    0  0.53981050623E+03  0.92707080466E+03 -0.10126770680E+03  0.10804658405E+04  0.79344972012E+02 0.  0.
        254    2    1    2    0    0 -0.53981050623E+03 -0.92707080466E+03  0.26183146686E+04  0.29660994325E+04  0.88956083544E+03 0.  0.
         23    2    4    4    0    0 -0.38387286766E+03  0.51435732042E+02  0.79161854088E+03  0.88594733813E+03  0.90767607783E+02 0.  0.
         23    2    4    4    0    0 -0.15593763857E+03 -0.97850653671E+03  0.18266961277E+04  0.20801520943E+04  0.91773651001E+02 0.  0.
          4    1    3    3  502    0  0.44510690633E+03  0.76384655798E+03 -0.52873819700E+02  0.88565081325E+03  0.00000000000E+00 0. -1.
         -3    1    3    3    0  502  0.94703599895E+02  0.16322424669E+03 -0.48393887104E+02  0.19481502727E+03  0.00000000000E+00 0.  1.
         13    1    5    5    0    0 -0.31724835164E+03  0.43112166538E+02  0.71890970033E+03  0.78697924544E+03  0.00000000000E+00 0.  1.
        -13    1    5    5    0    0 -0.66624516019E+02  0.83235655036E+01  0.72708840555E+02  0.98968092698E+02  0.00000000000E+00 0. -1.
          3    1    6    6  503    0 -0.88290050273E+02 -0.36938339502E+03  0.77068516502E+03  0.85918266339E+03  0.00000000000E+00 0. -1.
         -3    1    6    6    0  503 -0.67647588295E+02 -0.60912314168E+03  0.10560109627E+04  0.12209694309E+04  0.00000000000E+00 0.  1.
<mgrwt>
<rscale>  0 0.31684642E+04</rscale>
<asrwt>0</asrwt>
<pdfrwt beam="1">  1        2 0.50489324E+00 0.31684642E+04</pdfrwt>
<pdfrwt beam="2">  1       -1 0.11765526E+00 0.31684642E+04</pdfrwt>
<totfact> 0.71275234E-01</totfact>
</mgrwt>
</event>
<event>
12    7  0.1701638E-007  0.1226756E+04  0.7818608E-02  0.9089754E-01
         -1   -1    0    0    0  501 -0.00000000000E+00  0.00000000000E+00  0.44708750167E+03  0.44708750167E+03  0.00000000000E+00 0.  1.
          2   -1    0    0  501    0  0.00000000000E+00 -0.00000000000E+00 -0.84151948190E+03  0.84151948190E+03  0.00000000000E+00 0. -1.
         24    2    1    2    0    0  0.26280945433E+03  0.72262439682E+02 -0.14567147647E+03  0.31598011924E+03  0.65822391539E+02 0.  0.
        254    2    1    2    0    0 -0.26280945433E+03 -0.72262439682E+02 -0.24876050377E+03  0.97262686433E+03  0.89990586147E+03 0.  0.
         23    2    4    4    0    0 -0.37564084672E+03  0.33094003046E+03 -0.10043190624E+03  0.51887324556E+03  0.92279616848E+02 0.  0.
         23    2    4    4    0    0  0.11283139239E+03 -0.40320247014E+03 -0.14832859753E+03  0.45375361876E+03  0.92670484288E+02 0.  0.
          2    1    3    3  502    0  0.23519242414E+03  0.71302851733E+02 -0.15012772101E+03  0.28798941934E+03  0.00000000000E+00 0. -1.
         -1    1    3    3    0  502  0.27617030192E+02  0.95958794941E+00  0.44562445426E+01  0.27990699904E+02  0.00000000000E+00 0.  1.
         13    1    5    5    0    0 -0.17405223114E+03  0.98076493856E+02 -0.57526386635E+02  0.20790012739E+03  0.00000000000E+00 0. -1.
        -13    1    5    5    0    0 -0.20158861559E+03  0.23286353660E+03 -0.42905519602E+02  0.31097311817E+03  0.00000000000E+00 0.  1.
          3    1    6    6  503    0 -0.12283141005E+01 -0.23125809486E+02  0.11617995461E+02  0.25909257774E+02  0.00000000000E+00 0. -1.
         -3    1    6    6    0  503  0.11405970649E+03 -0.38007666065E+03 -0.15994659299E+03  0.42784436099E+03  0.00000000000E+00 0.  1.
<mgrwt>
<rscale>  0 0.12267564E+04</rscale>
<asrwt>0</asrwt>
<pdfrwt beam="1">  1        2 0.12946454E+00 0.12267564E+04</pdfrwt>
<pdfrwt beam="2">  1       -1 0.68782693E-01 0.12267564E+04</pdfrwt>
<totfact> 0.77398861E+01</totfact>
</mgrwt>
</event>
<event>
12    7  0.1701638E-007  0.1251285E+04  0.7818608E-02  0.9069114E-01
         -1   -1    0    0    0  501 -0.00000000000E+00  0.00000000000E+00  0.23074426096E+03  0.23074426096E+03  0.00000000000E+00 0.  1.
          2   -1    0    0  501    0  0.00000000000E+00 -0.00000000000E+00 -0.16963745644E+04  0.16963745644E+04  0.00000000000E+00 0. -1.
         24    2    1    2    0    0  0.17471580760E+02 -0.28055811242E+03 -0.21032124560E+03  0.36013215081E+03  0.80262252137E+02 0.  0.
        254    2    1    2    0    0 -0.17471580760E+02  0.28055811242E+03 -0.12553090578E+04  0.15669866745E+04  0.89477835072E+03 0.  0.
         23    2    4    4    0    0 -0.86919576211E+02  0.25029665775E+03  0.25056490638E+02  0.28137999454E+03  0.91342454508E+02 0.  0.
         23    2    4    4    0    0  0.69447995450E+02  0.30261454670E+02 -0.12803655485E+04  0.12856066800E+04  0.87805570489E+02 0.  0.
          4    1    3    3  502    0 -0.31520756440E+02 -0.83030183842E+02 -0.62484418089E+02  0.10859038640E+03  0.00000000000E+00 0. -1.
         -3    1    3    3    0  502  0.48992337200E+02 -0.19752792858E+03 -0.14783682751E+03  0.25154176441E+03  0.00000000000E+00 0.  1.
         13    1    5    5    0    0 -0.33245526196E+02  0.71588098425E+02 -0.33596790794E+02  0.85783828311E+02  0.00000000000E+00 0.  1.
        -13    1    5    5    0    0 -0.53674050015E+02  0.17870855933E+03  0.58653281432E+02  0.19559616623E+03  0.00000000000E+00 0. -1.
          1    1    6    6  503    0  0.37719233631E+02  0.59132249649E+02 -0.64714679978E+03  0.65093651304E+03  0.00000000000E+00 0. -1.
         -1    1    6    6    0  503  0.31728761819E+02 -0.28870794980E+02 -0.63321874870E+03  0.63467016697E+03  0.00000000000E+00 0.  1.
<mgrwt>
<rscale>  0 0.12512853E+04</rscale>
<asrwt>0</asrwt>
<pdfrwt beam="1">  1        2 0.26098070E+00 0.12512853E+04</pdfrwt>
<pdfrwt beam="2">  1       -1 0.35499118E-01 0.12512853E+04</pdfrwt>
<totfact> 0.83495008E+01</totfact>
</mgrwt>
</event>
<event>
12    7  0.1701638E-007  0.1452256E+04  0.7818608E-02  0.8916838E-01
          2   -1    0    0  501    0  0.00000000000E+00  0.00000000000E+00  0.98559893888E+03  0.98559893888E+03  0.00000000000E+00 0. -1.
         -1   -1    0    0    0  501 -0.00000000000E+00 -0.00000000000E+00 -0.53496594651E+03  0.53496594651E+03  0.00000000000E+00 0.  1.
         24    2    1    2    0    0  0.18566691420E+02  0.12912416314E+03 -0.29974834017E+03  0.33651549445E+03  0.79848851188E+02 0.  0.
        254    2    1    2    0    0 -0.18566691420E+02 -0.12912416314E+03  0.75038133254E+03  0.11840493909E+04  0.90657765493E+03 0.  0.
         23    2    4    4    0    0 -0.44063192010E+03 -0.10355669668E+03  0.51779733964E+03  0.69365392601E+03  0.90339391641E+02 0.  0.
         23    2    4    4    0    0  0.42206522868E+03 -0.25567466465E+02  0.23258399290E+03  0.49039546493E+03  0.87175946642E+02 0.  0.
          4    1    3    3  502    0 -0.86333854506E+01  0.82640048517E+01  0.24072884564E+00  0.11953538008E+02  0.00000000000E+00 0. -1.
         -3    1    3    3    0  502  0.27200076871E+02  0.12086015829E+03 -0.29998906901E+03  0.32456195645E+03  0.00000000000E+00 0.  1.
         13    1    5    5    0    0 -0.17582319681E+03 -0.23928576399E+01  0.16555504292E+03  0.24151189316E+03  0.00000000000E+00 0. -1.
        -13    1    5    5    0    0 -0.26480872329E+03 -0.10116383904E+03  0.35224229672E+03  0.45214203284E+03  0.00000000000E+00 0.  1.
          4    1    6    6  503    0  0.16295772330E+03 -0.24616865156E+02  0.13667423943E+03  0.21410524832E+03  0.00000000000E+00 0. -1.
         -4    1    6    6    0  503  0.25910750538E+03 -0.95060130924E+00  0.95909753466E+02  0.27629021662E+03  0.00000000000E+00 0.  1.
<mgrwt>
<rscale>  0 0.14522560E+04</rscale>
<asrwt>0</asrwt>
<pdfrwt beam="1">  1        2 0.15163061E+00 0.14522560E+04</pdfrwt>
<pdfrwt beam="2">  1       -1 0.82302453E-01 0.14522560E+04</pdfrwt>
<totfact> 0.41801038E+01</totfact>
</mgrwt>
</event>
<event>
12    7  0.1701638E-007  0.1633008E+04  0.7818608E-02  0.8800523E-01
         -1   -1    0    0    0  501 -0.00000000000E+00  0.00000000000E+00  0.57993595631E+03  0.57993595631E+03  0.00000000000E+00 0.  1.
          2   -1    0    0  501    0  0.00000000000E+00 -0.00000000000E+00 -0.11495731920E+04  0.11495731920E+04  0.00000000000E+00 0. -1.
         24    2    1    2    0    0  0.31850699634E+03 -0.42063608620E+03  0.27213987680E+02  0.53461352470E+03  0.81789950116E+02 0.  0.
        254    2    1    2    0    0 -0.31850699634E+03  0.42063608620E+03 -0.59685122335E+03  0.11948956236E+04  0.89059684748E+03 0.  0.
         23    2    4    4    0    0 -0.23936521680E+02  0.25829898891E+03  0.18997967842E+03  0.33424830877E+03  0.91314450985E+02 0.  0.
         23    2    4    4    0    0 -0.29457047466E+03  0.16233709728E+03 -0.78683090177E+03  0.86064731483E+03  0.92118591218E+02 0.  0.
          4    1    3    3  502    0  0.23368162480E+03 -0.24649503330E+03  0.55344057374E+01  0.33970212372E+03  0.00000000000E+00 0. -1.
         -3    1    3    3    0  502  0.84825371537E+02 -0.17414105289E+03  0.21679581942E+02  0.19491140098E+03  0.00000000000E+00 0.  1.
         13    1    5    5    0    0 -0.21678365584E+02  0.86239356289E+02  0.17531839806E+02  0.90634118931E+02  0.00000000000E+00 0. -1.
        -13    1    5    5    0    0 -0.22581560959E+01  0.17205963262E+03  0.17244783861E+03  0.24361418984E+03  0.00000000000E+00 0.  1.
          1    1    6    6  503    0 -0.18927632728E+03  0.58960240806E+02 -0.39512245864E+03  0.44206741045E+03  0.00000000000E+00 0. -1.
         -1    1    6    6    0  503 -0.10529414738E+03  0.10337685648E+03 -0.39170844313E+03  0.41857990438E+03  0.00000000000E+00 0.  1.
<mgrwt>
<rscale>  0 0.16330081E+04</rscale>
<asrwt>0</asrwt>
<pdfrwt beam="1">  1        2 0.17685741E+00 0.16330081E+04</pdfrwt>
<pdfrwt beam="2">  1       -1 0.89220917E-01 0.16330081E+04</pdfrwt>
<totfact> 0.27290404E+01</totfact>
</mgrwt>
</event>
<event>
12    7  0.1701638E-007  0.2143273E+04  0.7818608E-02  0.8542417E-01
          2   -1    0    0  501    0  0.00000000000E+00  0.00000000000E+00  0.71855554661E+03  0.71855554661E+03  0.00000000000E+00 0. -1.
         -1   -1    0    0    0  501 -0.00000000000E+00 -0.00000000000E+00 -0.15982130023E+04  0.15982130023E+04  0.00000000000E+00 0.  1.
         24    2    1    2    0    0  0.18477706538E+03  0.20366583253E+03 -0.12671883342E+04  0.12991315914E+04  0.79713752732E+02 0.  0.
        254    2    1    2    0    0 -0.18477706538E+03 -0.20366583253E+03  0.38753087845E+03  0.10176369575E+04  0.89987913650E+03 0.  0.
         23    2    4    4    0    0 -0.83694184264E+02  0.25332714432E+03  0.45607854519E+03  0.53615514711E+03  0.90968917000E+02 0.  0.
         23    2    4    4    0    0 -0.10108288111E+03 -0.45699297685E+03 -0.68547666745E+02  0.48148181040E+03  0.89808804619E+02 0.  0.
          4    1    3    3  502    0  0.19642428095E+02  0.26117320840E+02 -0.65208536987E+02  0.72938965754E+02  0.00000000000E+00 0. -1.
         -3    1    3    3    0  502  0.16513463728E+03  0.17754851169E+03 -0.12019797972E+04  0.12261926257E+04  0.00000000000E+00 0.  1.
         13    1    5    5    0    0 -0.50074072081E+02  0.36135015511E+02  0.11137195160E+03  0.12734545003E+03  0.00000000000E+00 0. -1.
        -13    1    5    5    0    0 -0.33620112182E+02  0.21719212881E+03  0.34470659359E+03  0.40880969708E+03  0.00000000000E+00 0.  1.
          1    1    6    6  503    0  0.76249994562E+01 -0.65000745856E+02 -0.32582267179E+02  0.73108424364E+02  0.00000000000E+00 0. -1.
         -1    1    6    6    0  503 -0.10870788057E+03 -0.39199223099E+03 -0.35965399567E+02  0.40837338604E+03  0.00000000000E+00 0.  1.
<mgrwt>
<rscale>  0 0.21432730E+04</rscale>
<asrwt>0</asrwt>
<pdfrwt beam="1">  1        2 0.11054701E+00 0.21432730E+04</pdfrwt>
<pdfrwt beam="2">  1       -1 0.24587892E+00 0.21432730E+04</pdfrwt>
<totfact> 0.30810240E+00</totfact>
</mgrwt>
</event>
<event>
12    7  0.1701638E-007  0.2070658E+04  0.7818608E-02  0.8574280E-01
          2   -1    0    0  501    0  0.00000000000E+00  0.00000000000E+00  0.14784207697E+04  0.14784207697E+04  0.00000000000E+00 0. -1.
         -1   -1    0    0    0  501 -0.00000000000E+00 -0.00000000000E+00 -0.72503450378E+03  0.72503450378E+03  0.00000000000E+00 0.  1.
         24    2    1    2    0    0  0.63066658902E+02 -0.52266753880E+03 -0.38556907534E+03  0.65962128516E+03  0.96322211352E+02 0.  0.
        254    2    1    2    0    0 -0.63066658902E+02  0.52266753880E+03  0.11389553413E+04  0.15438339883E+04  0.89946948505E+03 0.  0.
         23    2    4    4    0    0  0.66437743831E+01  0.57685554570E+03  0.23303742064E+03  0.62912940920E+03  0.93225070449E+02 0.  0.
         23    2    4    4    0    0 -0.69710433286E+02 -0.54188006897E+02  0.90591792065E+03  0.91470457915E+03  0.90561048768E+02 0.  0.
          2    1    3    3  502    0  0.59188026823E+02 -0.14320495352E+03 -0.96062425921E+02  0.18231530629E+03  0.00000000000E+00 0. -1.
         -1    1    3    3    0  502  0.38786320797E+01 -0.37946258528E+03 -0.28950664942E+03  0.47730597888E+03  0.00000000000E+00 0.  1.
         13    1    5    5    0    0  0.24034938866E+02  0.27306045681E+03  0.15534917815E+03  0.31507627412E+03  0.00000000000E+00 0. -1.
        -13    1    5    5    0    0 -0.17391164483E+02  0.30379508889E+03  0.77688242494E+02  0.31405313508E+03  0.00000000000E+00 0.  1.
          4    1    6    6  503    0 -0.47457149703E+02 -0.67576127625E+02  0.41699393913E+03  0.42509135412E+03  0.00000000000E+00 0. -1.
         -4    1    6    6    0  503 -0.22253283583E+02  0.13388120728E+02  0.48892398153E+03  0.48961322503E+03  0.00000000000E+00 0.  1.
<mgrwt>
<rscale>  0 0.20706579E+04</rscale>
<asrwt>0</asrwt>
<pdfrwt beam="1">  1        2 0.22744935E+00 0.20706579E+04</pdfrwt>
<pdfrwt beam="2">  1       -1 0.11154377E+00 0.20706579E+04</pdfrwt>
<totfact> 0.10146212E+01</totfact>
</mgrwt>
</event>
<event>
12    7  0.1701638E-007  0.1230475E+04  0.7818608E-02  0.9086592E-01
         -1   -1    0    0    0  501 -0.00000000000E+00  0.00000000000E+00  0.25458616805E+03  0.25458616805E+03  0.00000000000E+00 0.  1.
          2   -1    0    0  501    0  0.00000000000E+00 -0.00000000000E+00 -0.14867942826E+04  0.14867942826E+04  0.00000000000E+00 0. -1.
         24    2    1    2    0    0 -0.15580029756E+02  0.23391065284E+03 -0.79051454195E+02  0.26198805614E+03  0.86207182479E+02 0.  0.
        254    2    1    2    0    0  0.15580029756E+02 -0.23391065284E+03 -0.11531566603E+04  0.14793923945E+04  0.89659056584E+03 0.  0.
         23    2    4    4    0    0 -0.34144191780E+03 -0.34370889295E+03 -0.40211851418E+03  0.63613328049E+03  0.90817755848E+02 0.  0.
         23    2    4    4    0    0  0.35702194756E+03  0.10979824011E+03 -0.75103814616E+03  0.84325911400E+03  0.86644744739E+02 0.  0.
          4    1    3    3  502    0  0.62487447642E+01 -0.80063485402E+00  0.84565143411E+01  0.10545162972E+02  0.00000000000E+00 0. -1.
         -3    1    3    3    0  502 -0.21828774521E+02  0.23471128769E+03 -0.87507968536E+02  0.25144289317E+03  0.00000000000E+00 0.  1.
         13    1    5    5    0    0 -0.13434268847E+03 -0.17677500701E+03 -0.22778707991E+03  0.31809482049E+03  0.00000000000E+00 0. -1.
        -13    1    5    5    0    0 -0.20709922933E+03 -0.16693388594E+03 -0.17433143427E+03  0.31803846000E+03  0.00000000000E+00 0.  1.
          1    1    6    6  503    0  0.48797631287E+02  0.47854782547E+02 -0.15464934750E+03  0.16907900435E+03  0.00000000000E+00 0. -1.
         -1    1    6    6    0  503  0.30822431627E+03  0.61943457562E+02 -0.59638879867E+03  0.67418010965E+03  0.00000000000E+00 0.  1.
<mgrwt>
<rscale>  0 0.12304751E+04</rscale>
<asrwt>0</asrwt>
<pdfrwt beam="1">  1        2 0.22873758E+00 0.12304751E+04</pdfrwt>
<pdfrwt beam="2">  1       -1 0.39167103E-01 0.12304751E+04</pdfrwt>
<totfact> 0.91688662E+01</totfact>
</mgrwt>
</event>
<event>
12    7  0.1701638E-007  0.4174123E+04  0.7818608E-02  0.7970313E-01
         -1   -1    0    0    0  501 -0.00000000000E+00  0.00000000000E+00  0.14741444215E+04  0.14741444215E+04  0.00000000000E+00 0.  1.
          2   -1    0    0  501    0  0.00000000000E+00 -0.00000000000E+00 -0.29548165604E+04  0.29548165604E+04  0.00000000000E+00 0. -1.
         24    2    1    2    0    0  0.11339740987E+04  0.10633436933E+04  0.62524207521E+03  0.16774294016E+04  0.79023276871E+02 0.  0.
        254    2    1    2    0    0 -0.11339740987E+04 -0.10633436933E+04 -0.21059142142E+04  0.27515315803E+04  0.84820651576E+03 0.  0.
         23    2    4    4    0    0 -0.54469042060E+03 -0.52381507943E+03 -0.38735416298E+03  0.85411711634E+03  0.91667382980E+02 0.  0.
         23    2    4    4    0    0 -0.58928367805E+03 -0.53952861384E+03 -0.17185600512E+04  0.18974144639E+04  0.91578491324E+02 0.  0.
          2    1    3    3  502    0  0.61752120086E+03  0.54296118816E+03  0.36215974195E+03  0.89849817142E+03  0.00000000000E+00 0. -1.
         -1    1    3    3    0  502  0.51645289779E+03  0.52038250511E+03  0.26308233325E+03  0.77893123017E+03  0.00000000000E+00 0.  1.
         13    1    5    5    0    0 -0.43717262564E+03 -0.36827850176E+03 -0.30471638184E+03  0.64776618685E+03  0.00000000000E+00 0.  1.
        -13    1    5    5    0    0 -0.10751779497E+03 -0.15553657767E+03 -0.82637781146E+02  0.20635092949E+03  0.00000000000E+00 0. -1.
          1    1    6    6  503    0 -0.12440721123E+03 -0.67137589610E+02 -0.29333358271E+03  0.32562125375E+03  0.00000000000E+00 0. -1.
         -1    1    6    6    0  503 -0.46487646682E+03 -0.47239102423E+03 -0.14252264685E+04  0.15717932102E+04  0.00000000000E+00 0.  1.
<mgrwt>
<rscale>  0 0.41741233E+04</rscale>
<asrwt>0</asrwt>
<pdfrwt beam="1">  1        2 0.45458716E+00 0.41741233E+04</pdfrwt>
<pdfrwt beam="2">  1       -1 0.22679145E+00 0.41741233E+04</pdfrwt>
<totfact> 0.16268105E-01</totfact>
</mgrwt>
</event>
<event>
12    7  0.1701638E-007  0.1979147E+04  0.7818608E-02  0.8616433E-01
          2   -1    0    0  501    0  0.00000000000E+00  0.00000000000E+00  0.17934647013E+04  0.17934647013E+04  0.00000000000E+00 0. -1.
         -1   -1    0    0    0  501 -0.00000000000E+00 -0.00000000000E+00 -0.54601346458E+03  0.54601346458E+03  0.00000000000E+00 0.  1.
         24    2    1    2    0    0  0.66315936671E+03 -0.20509693366E+03  0.92076089927E+03  0.11557740071E+04  0.78535495372E+02 0.  0.
        254    2    1    2    0    0 -0.66315936671E+03  0.20509693366E+03  0.32669033743E+03  0.11837041588E+04  0.90143433541E+03 0.  0.
         23    2    4    4    0    0 -0.55571576707E+03  0.52505140829E+03  0.32159141091E+03  0.83416984492E+03  0.88990446075E+02 0.  0.
         23    2    4    4    0    0 -0.10744359964E+03 -0.31995447463E+03  0.50989265207E+01  0.34953431384E+03  0.90737228098E+02 0.  0.
          2    1    3    3  502    0  0.61564414386E+03 -0.21075954539E+03  0.85635932859E+03  0.10755410720E+04  0.00000000000E+00 0. -1.
         -1    1    3    3    0  502  0.47515222850E+02  0.56626117332E+01  0.64401570679E+02  0.80232935132E+02  0.00000000000E+00 0.  1.
         13    1    5    5    0    0 -0.57400781032E+02  0.81992382063E+02  0.18776982106E+02  0.10183405833E+03  0.00000000000E+00 0.  1.
        -13    1    5    5    0    0 -0.49831498603E+03  0.44305902623E+03  0.30281442881E+03  0.73233578659E+03  0.00000000000E+00 0. -1.
          1    1    6    6  503    0 -0.89339912543E+02 -0.23904073075E+03  0.42273103144E+02  0.25866794579E+03  0.00000000000E+00 0. -1.
         -1    1    6    6    0  503 -0.18103687095E+02 -0.80913743881E+02 -0.37174176624E+02  0.90866368052E+02  0.00000000000E+00 0.  1.
<mgrwt>
<rscale>  0 0.19791472E+04</rscale>
<asrwt>0</asrwt>
<pdfrwt beam="1">  1        2 0.27591764E+00 0.19791472E+04</pdfrwt>
<pdfrwt beam="2">  1       -1 0.84002072E-01 0.19791472E+04</pdfrwt>
<totfact> 0.12952046E+01</totfact>
</mgrwt>
</event>
<event>
12    7  0.1701638E-007  0.1875657E+04  0.7818608E-02  0.8667069E-01
          2   -1    0    0  501    0  0.00000000000E+00  0.00000000000E+00  0.17204885811E+04  0.17204885811E+04  0.00000000000E+00 0. -1.
         -1   -1    0    0    0  501 -0.00000000000E+00 -0.00000000000E+00 -0.51120492899E+03  0.51120492899E+03  0.00000000000E+00 0.  1.
         24    2    1    2    0    0 -0.38605459352E+03 -0.11309811173E+03  0.11803404297E+04  0.12495056701E+04  0.78940214499E+02 0.  0.
        254    2    1    2    0    0  0.38605459352E+03  0.11309811173E+03  0.28943222343E+02  0.98218783997E+03  0.89555899349E+03 0.  0.
         23    2    4    4    0    0  0.57771042468E+03  0.67445072431E+02  0.27724560428E+03  0.65091799066E+03  0.92363049389E+02 0.  0.
         23    2    4    4    0    0 -0.19165583116E+03  0.45653039295E+02 -0.24830238194E+03  0.33126984931E+03  0.96278152093E+02 0.  0.
          2    1    3    3  502    0 -0.30773496301E+03 -0.11374551363E+03  0.10116416686E+04  0.10635119722E+04  0.00000000000E+00 0. -1.
         -3    1    3    3    0  502 -0.78319630511E+02  0.64740190174E+00  0.16869876114E+03  0.18599369791E+03  0.00000000000E+00 0.  1.
         13    1    5    5    0    0  0.12549373990E+03  0.44313771998E+02  0.36079951437E+02  0.13789181280E+03  0.00000000000E+00 0.  1.
        -13    1    5    5    0    0  0.45221668479E+03  0.23131300433E+02  0.24116565285E+03  0.51302617786E+03  0.00000000000E+00 0. -1.
          4    1    6    6  503    0 -0.18678652851E+03  0.58452107192E+02 -0.24996879297E+03  0.31747480770E+03  0.00000000000E+00 0. -1.
         -4    1    6    6    0  503 -0.48693026525E+01 -0.12799067898E+02  0.16664110239E+01  0.13795041612E+02  0.00000000000E+00 0.  1.
<mgrwt>
<rscale>  0 0.18756569E+04</rscale>
<asrwt>0</asrwt>
<pdfrwt beam="1">  1        2 0.26469055E+00 0.18756569E+04</pdfrwt>
<pdfrwt beam="2">  1       -1 0.78646913E-01 0.18756569E+04</pdfrwt>
<totfact> 0.16515079E+01</totfact>
</mgrwt>
</event>
<event>
12    7  0.1701638E-007  0.1252585E+04  0.7818608E-02  0.9068034E-01
          2   -1    0    0  501    0  0.00000000000E+00  0.00000000000E+00  0.19794110573E+04  0.19794110573E+04  0.00000000000E+00 0. -1.
         -1   -1    0    0    0  501 -0.00000000000E+00 -0.00000000000E+00 -0.19816116607E+03  0.19816116607E+03  0.00000000000E+00 0.  1.
         24    2    1    2    0    0 -0.72938772770E+01 -0.15553476742E+03  0.89071258471E+03  0.90777623828E+03  0.80277803209E+02 0.  0.
        254    2    1    2    0    0  0.72938772770E+01  0.15553476742E+03  0.89053730648E+03  0.12697959850E+04  0.89167308185E+03 0.  0.
         23    2    4    4    0    0 -0.31444394884E+03 -0.85902598998E+02  0.76848088119E+03  0.83989931495E+03  0.92810242014E+02 0.  0.
         23    2    4    4    0    0  0.32173782611E+03  0.24143736642E+03  0.12205642528E+03  0.42989667009E+03  0.90034134369E+02 0.  0.
          2    1    3    3  502    0 -0.17050413743E+02 -0.16101417995E+03  0.78846847779E+03  0.80492162551E+03  0.00000000000E+00 0. -1.
         -1    1    3    3    0  502  0.97565364663E+01  0.54794125285E+01  0.10224410693E+03  0.10285461277E+03  0.00000000000E+00 0.  1.
         13    1    5    5    0    0 -0.11710642113E+03  0.13348732478E+02  0.28000909240E+03  0.30380453314E+03  0.00000000000E+00 0. -1.
        -13    1    5    5    0    0 -0.19733752770E+03 -0.99251331476E+02  0.48847178879E+03  0.53609478181E+03  0.00000000000E+00 0.  1.
          4    1    6    6  503    0  0.21207869865E+02 -0.67809401322E+01  0.39488868072E+01  0.22613018381E+02  0.00000000000E+00 0. -1.
         -4    1    6    6    0  503  0.30052995625E+03  0.24821830655E+03  0.11810753848E+03  0.40728365171E+03  0.00000000000E+00 0.  1.
<mgrwt>
<rscale>  0 0.12525852E+04</rscale>
<asrwt>0</asrwt>
<pdfrwt beam="1">  1        2 0.30452476E+00 0.12525852E+04</pdfrwt>
<pdfrwt beam="2">  1       -1 0.30486335E-01 0.12525852E+04</pdfrwt>
<totfact> 0.76292146E+01</totfact>
</mgrwt>
</event>
<event>
12    7  0.1701638E-007  0.3177094E+04  0.7818608E-02  0.8194893E-01
         -1   -1    0    0    0  501 -0.00000000000E+00  0.00000000000E+00  0.66234755346E+03  0.66234755346E+03  0.00000000000E+00 0.  1.
          2   -1    0    0  501    0  0.00000000000E+00 -0.00000000000E+00 -0.38099058067E+04  0.38099058067E+04  0.00000000000E+00 0. -1.
         24    2    1    2    0    0 -0.33946156225E+03 -0.62215308789E+03  0.34943191127E+03  0.79427436533E+03  0.80377172037E+02 0.  0.
        254    2    1    2    0    0  0.33946156225E+03  0.62215308789E+03 -0.34969901645E+04  0.36779789948E+04  0.89234559377E+03 0.  0.
         23    2    4    4    0    0  0.22937965874E+03 -0.13829042224E+03 -0.16714315402E+04  0.16952368568E+04  0.91680632849E+02 0.  0.
         23    2    4    4    0    0  0.11008190351E+03  0.76044351014E+03 -0.18255586244E+04  0.19827421380E+04  0.90607601489E+02 0.  0.
          2    1    3    3  502    0 -0.13347117789E+03 -0.31761389985E+03  0.19107824869E+03  0.39395944185E+03  0.00000000000E+00 0. -1.
         -1    1    3    3    0  502 -0.20599038436E+03 -0.30453918804E+03  0.15835366259E+03  0.40031492347E+03  0.00000000000E+00 0.  1.
         13    1    5    5    0    0  0.22944711837E+03 -0.13694162698E+03 -0.16723765380E+04  0.16935885788E+04  0.00000000000E+00 0. -1.
        -13    1    5    5    0    0 -0.67459627774E-01 -0.13487952615E+01  0.94499784108E+00  0.16482780040E+01  0.00000000000E+00 0.  1.
          2    1    6    6  503    0  0.73898438555E+02  0.63132030995E+03 -0.15777744783E+04  0.17009992996E+04  0.00000000000E+00 0. -1.
         -2    1    6    6    0  503  0.36183464954E+02  0.12912320018E+03 -0.24778414605E+03  0.28174283841E+03  0.00000000000E+00 0.  1.
<mgrwt>
<rscale>  0 0.31770941E+04</rscale>
<asrwt>0</asrwt>
<pdfrwt beam="1">  1        2 0.58613935E+00 0.31770941E+04</pdfrwt>
<pdfrwt beam="2">  1       -1 0.10189962E+00 0.31770941E+04</pdfrwt>
<totfact> 0.42143710E-01</totfact>
</mgrwt>
</event>
<event>
12    7  0.1701638E-007  0.3328345E+04  0.7818608E-02  0.8155720E-01
          2   -1    0    0  501    0  0.00000000000E+00  0.00000000000E+00  0.17398885139E+04  0.17398885139E+04  0.00000000000E+00 0. -1.
         -1   -1    0    0    0  501 -0.00000000000E+00 -0.00000000000E+00 -0.15917514982E+04  0.15917514982E+04  0.00000000000E+00 0.  1.
         24    2    1    2    0    0  0.80926885219E+03  0.57164766937E+03 -0.11154042955E+04  0.14940139404E+04  0.79080836723E+02 0.  0.
        254    2    1    2    0    0 -0.80926885219E+03 -0.57164766937E+03  0.12635413112E+04  0.18376260717E+04  0.89366425529E+03 0.  0.
         23    2    4    4    0    0 -0.87256311310E+03 -0.72963231252E+03  0.10734619701E+04  0.15663604650E+04  0.86225328113E+02 0.  0.
         23    2    4    4    0    0  0.63294260912E+02  0.15798464315E+03  0.19007934114E+03  0.27126560672E+03  0.92138822007E+02 0.  0.
          4    1    3    3  502    0  0.23174269054E+03  0.20859797818E+03 -0.34967659877E+03  0.46849921542E+03  0.00000000000E+00 0. -1.
         -1    1    3    3    0  502  0.57752616165E+03  0.36304969119E+03 -0.76572769668E+03  0.10255147250E+04  0.00000000000E+00 0.  1.
         13    1    5    5    0    0 -0.14013165651E+03 -0.14796523133E+03  0.22474822396E+03  0.30338482990E+03  0.00000000000E+00 0.  1.
        -13    1    5    5    0    0 -0.73243145660E+03 -0.58166708119E+03  0.84871374614E+03  0.12629756351E+04  0.00000000000E+00 0. -1.
          2    1    6    6  503    0  0.13260392325E+02  0.40637656177E+02  0.11628033095E+03  0.12388854858E+03  0.00000000000E+00 0. -1.
         -2    1    6    6    0  503  0.50033868587E+02  0.11734698698E+03  0.73799010193E+02  0.14737705813E+03  0.00000000000E+00 0.  1.
<mgrwt>
<rscale>  0 0.33283450E+04</rscale>
<asrwt>0</asrwt>
<pdfrwt beam="1">  1        2 0.26767515E+00 0.33283450E+04</pdfrwt>
<pdfrwt beam="2">  1       -1 0.24488485E+00 0.33283450E+04</pdfrwt>
<totfact> 0.66545053E-01</totfact>
</mgrwt>
</event>
<event>
12    7  0.1701638E-007  0.1416977E+04  0.7818608E-02  0.8941620E-01
         -1   -1    0    0    0  501 -0.00000000000E+00  0.00000000000E+00  0.35783324862E+03  0.35783324862E+03  0.00000000000E+00 0.  1.
          2   -1    0    0  501    0  0.00000000000E+00 -0.00000000000E+00 -0.14027657434E+04  0.14027657434E+04  0.00000000000E+00 0. -1.
         24    2    1    2    0    0 -0.38871594440E+03  0.60399126440E+02 -0.17944673529E+03  0.43945628402E+03  0.78565608609E+02 0.  0.
        254    2    1    2    0    0  0.38871594440E+03 -0.60399126440E+02 -0.86548575950E+03  0.13211427080E+04  0.91738994715E+03 0.  0.
         23    2    4    4    0    0 -0.10951198185E+02 -0.22436424307E+03  0.97722773186E+02  0.26131130290E+03  0.90964907059E+02 0.  0.
         23    2    4    4    0    0  0.39966714258E+03  0.16396511663E+03 -0.96320853268E+03  0.10598314051E+04  0.94093280760E+02 0.  0.
          2    1    3    3  502    0 -0.24260332327E+03  0.36792532507E+02 -0.15281579408E+03  0.28907218792E+03  0.00000000000E+00 0. -1.
         -1    1    3    3    0  502 -0.14611262113E+03  0.23606593933E+02 -0.26630941210E+02  0.15038409610E+03  0.00000000000E+00 0.  1.
         13    1    5    5    0    0  0.22871669345E+02 -0.13988793965E+03  0.23068100309E+02  0.14361018826E+03  0.00000000000E+00 0. -1.
        -13    1    5    5    0    0 -0.33822867530E+02 -0.84476303414E+02  0.74654672877E+02  0.11770111465E+03  0.00000000000E+00 0.  1.
          3    1    6    6  503    0  0.92091104705E+02 -0.56028145060E+00 -0.17076680778E+03  0.19401646353E+03  0.00000000000E+00 0. -1.
         -3    1    6    6    0  503  0.30757603788E+03  0.16452539808E+03 -0.79244172491E+03  0.86581494158E+03  0.00000000000E+00 0.  1.
<mgrwt>
<rscale>  0 0.14169774E+04</rscale>
<asrwt>0</asrwt>
<pdfrwt beam="1">  1        2 0.21581011E+00 0.14169774E+04</pdfrwt>
<pdfrwt beam="2">  1       -1 0.55051270E-01 0.14169774E+04</pdfrwt>
<totfact> 0.53267449E+01</totfact>
</mgrwt>
</event>
<event>
12    7  0.1701638E-007  0.1823990E+04  0.7818608E-02  0.8693645E-01
          2   -1    0    0  501    0  0.00000000000E+00  0.00000000000E+00  0.71563708938E+03  0.71563708938E+03  0.00000000000E+00 0. -1.
         -1   -1    0    0    0  501 -0.00000000000E+00 -0.00000000000E+00 -0.11622296576E+04  0.11622296576E+04  0.00000000000E+00 0.  1.
         24    2    1    2    0    0 -0.58496841247E+03 -0.13351942468E+03 -0.50776018523E+03  0.79008172021E+03  0.79957729826E+02 0.  0.
        254    2    1    2    0    0  0.58496841247E+03  0.13351942468E+03  0.61167616969E+02  0.10877850268E+04  0.90527305649E+03 0.  0.
         23    2    4    4    0    0  0.34158450731E+03 -0.24538256641E+03 -0.28165454363E+03  0.51424810020E+03  0.90715197605E+02 0.  0.
         23    2    4    4    0    0  0.24338390516E+03  0.37890199109E+03  0.34282216060E+03  0.57353692660E+03  0.92817715095E+02 0.  0.
          2    1    3    3  502    0 -0.27511252570E+03 -0.10376190013E+03 -0.24490415042E+03  0.38266365990E+03  0.00000000000E+00 0. -1.
         -1    1    3    3    0  502 -0.30985588678E+03 -0.29757524541E+02 -0.26285603481E+03  0.40741806032E+03  0.00000000000E+00 0.  1.
         13    1    5    5    0    0  0.14737146058E+03 -0.15800365891E+03 -0.16126611203E+03  0.26961131748E+03  0.00000000000E+00 0. -1.
        -13    1    5    5    0    0  0.19421304673E+03 -0.87378907498E+02 -0.12038843159E+03  0.24463678271E+03  0.00000000000E+00 0.  1.
          4    1    6    6  503    0  0.16446302294E+03  0.32303373817E+03  0.25824031590E+03  0.44506959306E+03  0.00000000000E+00 0. -1.
         -4    1    6    6    0  503  0.78920882222E+02  0.55868252921E+02  0.84581844695E+02  0.12846733354E+03  0.00000000000E+00 0.  1.
<mgrwt>
<rscale>  0 0.18239897E+04</rscale>
<asrwt>0</asrwt>
<pdfrwt beam="1">  1        2 0.11009801E+00 0.18239897E+04</pdfrwt>
<pdfrwt beam="2">  1       -1 0.17880456E+00 0.18239897E+04</pdfrwt>
<totfact> 0.90968547E+00</totfact>
</mgrwt>
</event>
<event>
12    7  0.1701638E-007  0.1495979E+04  0.7818608E-02  0.8887131E-01
         -1   -1    0    0    0  501 -0.00000000000E+00  0.00000000000E+00  0.29755862532E+03  0.29755862532E+03  0.00000000000E+00 0.  1.
          2   -1    0    0  501    0  0.00000000000E+00 -0.00000000000E+00 -0.18802633015E+04  0.18802633015E+04  0.00000000000E+00 0. -1.
         24    2    1    2    0    0  0.14748748762E+03 -0.13573789339E+03  0.11063250637E+03  0.24350447740E+03  0.82930961284E+02 0.  0.
        254    2    1    2    0    0 -0.14748748762E+03  0.13573789339E+03 -0.16933371825E+04  0.19343174494E+04  0.91324468056E+03 0.  0.
         23    2    4    4    0    0 -0.11498110717E+03  0.49078029824E+03 -0.12919790587E+04  0.13898679245E+04  0.91853161501E+02 0.  0.
         23    2    4    4    0    0 -0.32506380451E+02 -0.35504240485E+03 -0.40135812382E+03  0.54444952489E+03  0.90692709638E+02 0.  0.
          4    1    3    3  502    0  0.22853743690E+02 -0.57993739237E+02  0.49223989544E+01  0.62528372782E+02  0.00000000000E+00 0. -1.
         -3    1    3    3    0  502  0.12463374393E+03 -0.77744154156E+02  0.10571010742E+03  0.18097610462E+03  0.00000000000E+00 0.  1.
         13    1    5    5    0    0 -0.92069687199E+02  0.42239584714E+03 -0.10064338275E+04  0.10953557085E+04  0.00000000000E+00 0.  1.
        -13    1    5    5    0    0 -0.22911419972E+02  0.68384451100E+02 -0.28554523118E+03  0.29451221599E+03  0.00000000000E+00 0. -1.
          3    1    6    6  503    0  0.33557657167E+01 -0.17739968865E+03 -0.13808747977E+03  0.22483341115E+03  0.00000000000E+00 0.  1.
         -3    1    6    6    0  503 -0.35862146168E+02 -0.17764271620E+03 -0.26327064405E+03  0.31961611374E+03  0.00000000000E+00 0. -1.
<mgrwt>
<rscale>  0 0.14959794E+04</rscale>
<asrwt>0</asrwt>
<pdfrwt beam="1">  1        2 0.28927127E+00 0.14959794E+04</pdfrwt>
<pdfrwt beam="2">  1       -1 0.45778251E-01 0.14959794E+04</pdfrwt>
<totfact> 0.40667429E+01</totfact>
</mgrwt>
</event>
<event>
12    7  0.1701638E-007  0.2085135E+04  0.7818608E-02  0.8567820E-01
          2   -1    0    0  501    0  0.00000000000E+00  0.00000000000E+00  0.21313886031E+04  0.21313886031E+04  0.00000000000E+00 0. -1.
         -1   -1    0    0    0  501 -0.00000000000E+00 -0.00000000000E+00 -0.50997114089E+03  0.50997114089E+03  0.00000000000E+00 0.  1.
         24    2    1    2    0    0  0.63561099993E+03 -0.49589058095E+03  0.36349417429E+03  0.88785464950E+03  0.79050948104E+02 0.  0.
        254    2    1    2    0    0 -0.63561099993E+03  0.49589058095E+03  0.12579232879E+04  0.17535050945E+04  0.91787815458E+03 0.  0.
         23    2    4    4    0    0 -0.19416539547E+03 -0.22138586535E+02 -0.95213012288E+02  0.23616919107E+03  0.92304123926E+02 0.  0.
         23    2    4    4    0    0 -0.44144560446E+03  0.51802916748E+03  0.13531363002E+04  0.15173359034E+04  0.90010870580E+02 0.  0.
          2    1    3    3  502    0  0.30395399915E+03 -0.27433218824E+03  0.15507669063E+03  0.43782983347E+03  0.00000000000E+00 0. -1.
         -1    1    3    3    0  502  0.33165700078E+03 -0.22155839271E+03  0.20841748366E+03  0.45002481603E+03  0.00000000000E+00 0.  1.
         13    1    5    5    0    0 -0.30012298591E+02  0.18619700276E+02  0.10335604087E+02  0.36800217621E+02  0.00000000000E+00 0. -1.
        -13    1    5    5    0    0 -0.16415309687E+03 -0.40758286811E+02 -0.10554861637E+03  0.19936897345E+03  0.00000000000E+00 0.  1.
          2    1    6    6  503    0 -0.15909524565E+03  0.25305315262E+03  0.61565788937E+03  0.68438427216E+03  0.00000000000E+00 0. -1.
         -2    1    6    6    0  503 -0.28235035881E+03  0.26497601486E+03  0.73747841087E+03  0.83295163129E+03  0.00000000000E+00 0.  1.
<mgrwt>
<rscale>  0 0.20851347E+04</rscale>
<asrwt>0</asrwt>
<pdfrwt beam="1">  1        2 0.32790593E+00 0.20851347E+04</pdfrwt>
<pdfrwt beam="2">  1       -1 0.78457100E-01 0.20851347E+04</pdfrwt>
<totfact> 0.96356587E+00</totfact>
</mgrwt>
</event>
<event>
12    7  0.1701638E-007  0.3493311E+04  0.7818608E-02  0.8115377E-01
         -1   -1    0    0    0  501 -0.00000000000E+00  0.00000000000E+00  0.77480788275E+03  0.77480788275E+03  0.00000000000E+00 0.  1.
          2   -1    0    0  501    0  0.00000000000E+00 -0.00000000000E+00 -0.39375003014E+04  0.39375003014E+04  0.00000000000E+00 0. -1.
         24    2    1    2    0    0  0.50889134151E+03  0.11053483564E+04 -0.14500268365E+02  0.12195499338E+04  0.79538650266E+02 0.  0.
        254    2    1    2    0    0 -0.50889134151E+03 -0.11053483564E+04 -0.31481921503E+04  0.34927582503E+04  0.89859946243E+03 0.  0.
         23    2    4    4    0    0 -0.52602838762E+03 -0.89070701746E+03 -0.30797480609E+04  0.32501332630E+04  0.91941574688E+02 0.  0.
         23    2    4    4    0    0  0.17137046108E+02 -0.21464133889E+03 -0.68444089419E+02  0.24262498737E+03  0.88417805953E+02 0.  0.
          4    1    3    3  502    0  0.12222020282E+03  0.28322017281E+03  0.30127924087E+02  0.30993408344E+03  0.00000000000E+00 0. -1.
         -3    1    3    3    0  502  0.38667113869E+03  0.82212818354E+03 -0.44628192453E+02  0.90961585036E+03  0.00000000000E+00 0.  1.
         13    1    5    5    0    0 -0.52987468617E+03 -0.88544854951E+03 -0.30639574571E+04  0.32330514403E+04  0.00000000000E+00 0. -1.
        -13    1    5    5    0    0  0.38462985502E+01 -0.52584679535E+01 -0.15790603747E+02  0.17081822632E+02  0.00000000000E+00 0.  1.
          1    1    6    6  503    0 -0.85171546631E+01 -0.13011810843E+03  0.78290558935E+00  0.13039891490E+03  0.00000000000E+00 0. -1.
         -1    1    6    6    0  503  0.25654200771E+02 -0.84523230457E+02 -0.69226995008E+02  0.11222607247E+03  0.00000000000E+00 0.  1.
<mgrwt>
<rscale>  0 0.34933115E+04</rscale>
<asrwt>0</asrwt>
<pdfrwt beam="1">  1        2 0.60576927E+00 0.34933115E+04</pdfrwt>
<pdfrwt beam="2">  1       -1 0.11920122E+00 0.34933115E+04</pdfrwt>
<totfact> 0.22491895E-01</totfact>
</mgrwt>
</event>
<event>
12    7  0.1701638E-007  0.2147194E+04  0.7818608E-02  0.8540734E-01
          2   -1    0    0  501    0  0.00000000000E+00  0.00000000000E+00  0.11933742530E+04  0.11933742530E+04  0.00000000000E+00 0. -1.
         -1   -1    0    0    0  501 -0.00000000000E+00 -0.00000000000E+00 -0.96584164039E+03  0.96584164039E+03  0.00000000000E+00 0.  1.
         24    2    1    2    0    0  0.13971465290E+03  0.10851205061E+03  0.95993873459E+03  0.97944798849E+03  0.80876069585E+02 0.  0.
        254    2    1    2    0    0 -0.13971465290E+03 -0.10851205061E+03 -0.73240612195E+03  0.11797679049E+04  0.90782076021E+03 0.  0.
         23    2    4    4    0    0 -0.10570977470E+03  0.37760017440E+03 -0.46852174850E+03  0.61789591321E+03  0.92337871792E+02 0.  0.
         23    2    4    4    0    0 -0.34004878198E+02 -0.48611222501E+03 -0.26388437345E+03  0.56187199172E+03  0.92756377037E+02 0.  0.
          2    1    3    3  502    0  0.46156022477E+02  0.60184153914E+02  0.58862008289E+03  0.59348640487E+03  0.00000000000E+00 0. -1.
         -1    1    3    3    0  502  0.93558630421E+02  0.48327896696E+02  0.37131865170E+03  0.38596158361E+03  0.00000000000E+00 0.  1.
         13    1    5    5    0    0 -0.12079831799E+03  0.31590934710E+03 -0.41038028513E+03  0.53179218463E+03  0.00000000000E+00 0. -1.
        -13    1    5    5    0    0  0.15088543286E+02  0.61690827305E+02 -0.58141463367E+02  0.86103728575E+02  0.00000000000E+00 0.  1.
          4    1    6    6  503    0 -0.39188117627E+02 -0.98540521444E+02 -0.34705802752E+02  0.11158152031E+03  0.00000000000E+00 0.  1.
         -4    1    6    6    0  503  0.51832394282E+01 -0.38757170357E+03 -0.22917857069E+03  0.45029047141E+03  0.00000000000E+00 0. -1.
<mgrwt>
<rscale>  0 0.21471940E+04</rscale>
<asrwt>0</asrwt>
<pdfrwt beam="1">  1        2 0.18359604E+00 0.21471940E+04</pdfrwt>
<pdfrwt beam="2">  1       -1 0.14859102E+00 0.21471940E+04</pdfrwt>
<totfact> 0.71599744E+00</totfact>
</mgrwt>
</event>
<event>
12    7  0.1701638E-007  0.1211549E+04  0.7818608E-02  0.9102807E-01
         -1   -1    0    0    0  501 -0.00000000000E+00  0.00000000000E+00  0.32307577764E+03  0.32307577764E+03  0.00000000000E+00 0.  1.
          2   -1    0    0  501    0  0.00000000000E+00 -0.00000000000E+00 -0.11358414706E+04  0.11358414706E+04  0.00000000000E+00 0. -1.
         24    2    1    2    0    0  0.22240298754E+03 -0.13574805515E+02 -0.99767585061E+01  0.23769703173E+03  0.82176511079E+02 0.  0.
        254    2    1    2    0    0 -0.22240298754E+03  0.13574805515E+02 -0.80278893447E+03  0.12212202165E+04  0.89289494327E+03 0.  0.
         23    2    4    4    0    0  0.38496152235E+02 -0.10339307452E+03  0.15969387522E+03  0.21303850655E+03  0.87813381067E+02 0.  0.
         23    2    4    4    0    0 -0.26089913977E+03  0.11696788003E+03 -0.96248280969E+03  0.10081817100E+04  0.91144694206E+02 0.  0.
          2    1    3    3  502    0  0.18011440824E+03  0.33867642689E+01 -0.38130187350E+02  0.18413739820E+03  0.00000000000E+00 0. -1.
         -1    1    3    3    0  502  0.42288579300E+02 -0.16961569784E+02  0.28153428844E+02  0.53559633535E+02  0.00000000000E+00 0.  1.
         13    1    5    5    0    0 -0.92319512492E+01 -0.71628384903E+02  0.12941271216E+03  0.14820089243E+03  0.00000000000E+00 0.  1.
        -13    1    5    5    0    0  0.47728103484E+02 -0.31764689616E+02  0.30281163058E+02  0.64837614119E+02  0.00000000000E+00 0. -1.
          2    1    6    6  503    0 -0.71621644322E+02  0.78119649152E+02 -0.30464630058E+03  0.32255496892E+03  0.00000000000E+00 0. -1.
         -2    1    6    6    0  503 -0.18927749545E+03  0.38848230881E+02 -0.65783650911E+03  0.68562674105E+03  0.00000000000E+00 0.  1.
<mgrwt>
<rscale>  0 0.12115492E+04</rscale>
<asrwt>0</asrwt>
<pdfrwt beam="1">  1        2 0.17474484E+00 0.12115492E+04</pdfrwt>
<pdfrwt beam="2">  1       -1 0.49703967E-01 0.12115492E+04</pdfrwt>
<totfact> 0.94488588E+01</totfact>
</mgrwt>
</event>
<event>
12    7  0.1701638E-007  0.1407579E+04  0.7818608E-02  0.8948350E-01
         -3   -1    0    0    0  501 -0.00000000000E+00  0.00000000000E+00  0.36259476080E+03  0.36259476080E+03  0.00000000000E+00 0.  1.
          2   -1    0    0  501    0  0.00000000000E+00 -0.00000000000E+00 -0.13660427222E+04  0.13660427222E+04  0.00000000000E+00 0. -1.
         24    2    1    2    0    0 -0.23094697452E+03 -0.21485479336E+03  0.27131663358E+02  0.32673889130E+03  0.80765640320E+02 0.  0.
        254    2    1    2    0    0  0.23094697452E+03  0.21485479336E+03 -0.10305796248E+04  0.14018985917E+04  0.89650778646E+03 0.  0.
         23    2    4    4    0    0  0.37864224815E+03 -0.17382862606E+03 -0.82532554786E+03  0.92909486528E+03  0.92025351993E+02 0.  0.
         23    2    4    4    0    0 -0.14769527362E+03  0.38868341942E+03 -0.20525407691E+03  0.47280372644E+03  0.92333272765E+02 0.  0.
          2    1    3    3  502    0 -0.16882267700E+03 -0.18107636951E+03  0.49708311034E+02  0.25250874054E+03  0.00000000000E+00 0. -1.
         -1    1    3    3    0  502 -0.62124297523E+02 -0.33778423853E+02 -0.22576647675E+02  0.74230150754E+02  0.00000000000E+00 0.  1.
         13    1    5    5    0    0  0.30088563585E+03 -0.16936856774E+03 -0.71551593526E+03  0.79446896177E+03  0.00000000000E+00 0. -1.
        -13    1    5    5    0    0  0.77756612301E+02 -0.44600583265E+01 -0.10980961260E+03  0.13462590351E+03  0.00000000000E+00 0.  1.
          2    1    6    6  503    0 -0.10709895484E+03  0.33847384807E+03 -0.20130288527E+03  0.40811466964E+03  0.00000000000E+00 0. -1.
         -2    1    6    6    0  503 -0.40596318779E+02  0.50209571351E+02 -0.39511916354E+01  0.64689056795E+02  0.00000000000E+00 0.  1.
<mgrwt>
<rscale>  0 0.14075794E+04</rscale>
<asrwt>0</asrwt>
<pdfrwt beam="1">  1        2 0.21016042E+00 0.14075794E+04</pdfrwt>
<pdfrwt beam="2">  1       -3 0.55783809E-01 0.14075794E+04</pdfrwt>
<totfact> 0.29770717E+01</totfact>
</mgrwt>
</event>
<event>
12    7  0.1701638E-007  0.2974762E+04  0.7818608E-02  0.8250975E-01
          2   -1    0    0  501    0  0.00000000000E+00  0.00000000000E+00  0.97603593375E+03  0.97603593375E+03  0.00000000000E+00 0. -1.
         -1   -1    0    0    0  501 -0.00000000000E+00 -0.00000000000E+00 -0.22666199031E+04  0.22666199031E+04  0.00000000000E+00 0.  1.
         24    2    1    2    0    0 -0.39452353630E+01  0.10499487501E+04 -0.15167038392E+04  0.18464524288E+04  0.81167070537E+02 0.  0.
        254    2    1    2    0    0  0.39452353630E+01 -0.10499487501E+04  0.22611986985E+03  0.13962034080E+04  0.89210191026E+03 0.  0.
         23    2    4    4    0    0 -0.18024043898E+03 -0.14414731206E+03 -0.25010062396E+03  0.35226680146E+03  0.90975347685E+02 0.  0.
         23    2    4    4    0    0  0.18418567435E+03 -0.90580143804E+03  0.47622049381E+03  0.10439366066E+04  0.92828185327E+02 0.  0.
          4    1    3    3  502    0  0.16217590533E+02  0.44994414340E+02 -0.63612790693E+02  0.79587025980E+02  0.00000000000E+00 0. -1.
         -3    1    3    3    0  502 -0.20162825896E+02  0.10049543358E+04 -0.14530910485E+04  0.17668654028E+04  0.00000000000E+00 0.  1.
         13    1    5    5    0    0 -0.73695878859E+02 -0.11263961578E+03 -0.11263436603E+03  0.17551429006E+03  0.00000000000E+00 0. -1.
        -13    1    5    5    0    0 -0.10654456013E+03 -0.31507696280E+02 -0.13746625793E+03  0.17675251140E+03  0.00000000000E+00 0.  1.
          1    1    6    6  503    0  0.86622922233E+02 -0.22705295319E+03  0.13525953881E+03  0.27812176658E+03  0.00000000000E+00 0. -1.
         -1    1    6    6    0  503  0.97562752114E+02 -0.67874848485E+03  0.34096095500E+03  0.76581483997E+03  0.00000000000E+00 0.  1.
<mgrwt>
<rscale>  0 0.29747622E+04</rscale>
<asrwt>0</asrwt>
<pdfrwt beam="1">  1        2 0.15015938E+00 0.29747622E+04</pdfrwt>
<pdfrwt beam="2">  1       -1 0.34871075E+00 0.29747622E+04</pdfrwt>
<totfact> 0.40430503E-01</totfact>
</mgrwt>
</event>
<event>
12    7  0.1701638E-007  0.1668233E+04  0.7818608E-02  0.8779693E-01
          2   -1    0    0  501    0  0.00000000000E+00  0.00000000000E+00  0.27597564971E+04  0.27597564971E+04  0.00000000000E+00 0. -1.
         -1   -1    0    0    0  501 -0.00000000000E+00 -0.00000000000E+00 -0.25210564231E+03  0.25210564231E+03  0.00000000000E+00 0.  1.
         24    2    1    2    0    0 -0.43969399703E+03  0.25873785664E+03  0.13169620715E+04  0.14145633235E+04  0.79524894570E+02 0.  0.
        254    2    1    2    0    0  0.43969399703E+03 -0.25873785664E+03  0.11906887832E+04  0.15972988159E+04  0.93453070533E+03 0.  0.
         23    2    4    4    0    0  0.56216979928E+03  0.12124469042E+03  0.97089164403E+03  0.11321081670E+04  0.91121672689E+02 0.  0.
         23    2    4    4    0    0 -0.12247580224E+03 -0.37998254707E+03  0.21979713922E+03  0.46519064886E+03  0.93297905461E+02 0.  0.
          4    1    3    3  502    0 -0.39605066641E+03  0.24645489283E+03  0.11368040224E+04  0.12287878295E+04  0.00000000000E+00 0. -1.
         -3    1    3    3    0  502 -0.43643330624E+02  0.12282963818E+02  0.18015804912E+03  0.18577549400E+03  0.00000000000E+00 0.  1.
         13    1    5    5    0    0  0.43023145596E+03  0.11430663892E+03  0.68182649221E+03  0.81428034416E+03  0.00000000000E+00 0.  1.
        -13    1    5    5    0    0  0.13193834331E+03  0.69380515044E+01  0.28906515182E+03  0.31782782287E+03  0.00000000000E+00 0. -1.
          1    1    6    6  503    0  0.50836079076E+01 -0.34461035662E+02 -0.26127054779E+01  0.34931823287E+02  0.00000000000E+00 0. -1.
         -1    1    6    6    0  503 -0.12755941015E+03 -0.34552151141E+03  0.22240984470E+03  0.43025882557E+03  0.00000000000E+00 0.  1.
<mgrwt>
<rscale>  0 0.16682328E+04</rscale>
<asrwt>0</asrwt>
<pdfrwt beam="1">  1        2 0.42457790E+00 0.16682328E+04</pdfrwt>
<pdfrwt beam="2">  1       -1 0.38785485E-01 0.16682328E+04</pdfrwt>
<totfact> 0.17174080E+01</totfact>
</mgrwt>
</event>
<event>
12    7  0.1701638E-007  0.1922653E+04  0.7818608E-02  0.8643662E-01
         -3   -1    0    0    0  501 -0.00000000000E+00  0.00000000000E+00  0.53451501716E+03  0.53451501716E+03  0.00000000000E+00 0.  1.
          2   -1    0    0  501    0  0.00000000000E+00 -0.00000000000E+00 -0.17289470721E+04  0.17289470721E+04  0.00000000000E+00 0. -1.
         24    2    1    2    0    0  0.63554280396E+03 -0.29525556947E+03 -0.17356635589E+03  0.72624609539E+03  0.78851786258E+02 0.  0.
        254    2    1    2    0    0 -0.63554280396E+03  0.29525556947E+03 -0.10208656990E+04  0.15372159938E+04  0.91092026506E+03 0.  0.
         23    2    4    4    0    0  0.17953728960E+03 -0.51495070027E+02 -0.40815947566E+02  0.21291419458E+03  0.93707694888E+02 0.  0.
         23    2    4    4    0    0 -0.81508009357E+03  0.34675063950E+03 -0.98004975144E+03  0.13243017992E+04  0.93199652746E+02 0.  0.
          4    1    3    3  502    0  0.72272828215E+02 -0.16062678082E+02  0.87995855099E-01  0.74036336137E+02  0.00000000000E+00 0. -1.
         -3    1    3    3    0  502  0.56326997575E+03 -0.27919289139E+03 -0.17365435175E+03  0.65220975925E+03  0.00000000000E+00 0.  1.
         13    1    5    5    0    0  0.36908827641E+01  0.17009499045E+02  0.61134052646E+01  0.18447747756E+02  0.00000000000E+00 0.  1.
        -13    1    5    5    0    0  0.17584640684E+03 -0.68504569072E+02 -0.46929352830E+02  0.19446644682E+03  0.00000000000E+00 0. -1.
          2    1    6    6  503    0 -0.64047371964E+03  0.28906232598E+03 -0.82565856198E+03  0.10841935597E+04  0.00000000000E+00 0. -1.
         -2    1    6    6    0  503 -0.17460637393E+03  0.57688313514E+02 -0.15439118946E+03  0.24010823958E+03  0.00000000000E+00 0.  1.
<mgrwt>
<rscale>  0 0.19226525E+04</rscale>
<asrwt>0</asrwt>
<pdfrwt beam="1">  1        2 0.26599186E+00 0.19226525E+04</pdfrwt>
<pdfrwt beam="2">  1       -3 0.82233078E-01 0.19226525E+04</pdfrwt>
<totfact> 0.77097374E+00</totfact>
</mgrwt>
</event>
<event>
12    7  0.1701638E-007  0.1682220E+04  0.7818608E-02  0.8771570E-01
          2   -1    0    0  501    0  0.00000000000E+00  0.00000000000E+00  0.18896849586E+04  0.18896849586E+04  0.00000000000E+00 0. -1.
         -1   -1    0    0    0  501 -0.00000000000E+00 -0.00000000000E+00 -0.37438324021E+03  0.37438324021E+03  0.00000000000E+00 0.  1.
         24    2    1    2    0    0  0.33939119202E+03  0.38001576577E+03  0.12942128064E+03  0.53237862615E+03  0.84135428006E+02 0.  0.
        254    2    1    2    0    0 -0.33939119202E+03 -0.38001576577E+03  0.13858804377E+04  0.17316895726E+04  0.90470206415E+03 0.  0.
         23    2    4    4    0    0  0.15050596101E+03 -0.34028599240E+03  0.10780834084E+04  0.11440896372E+04  0.90722993480E+02 0.  0.
         23    2    4    4    0    0 -0.48989715303E+03 -0.39729773377E+02  0.30779702936E+03  0.58759993548E+03  0.94641415144E+02 0.  0.
          2    1    3    3  502    0  0.74086860113E+02  0.11622210352E+03  0.66360141808E+02  0.15297094041E+03  0.00000000000E+00 0. -1.
         -1    1    3    3    0  502  0.26530433190E+03  0.26379366225E+03  0.63061138836E+02  0.37940768575E+03  0.00000000000E+00 0.  1.
         13    1    5    5    0    0  0.29529372318E+02 -0.74512120004E+02  0.13679047392E+03  0.15854234012E+03  0.00000000000E+00 0. -1.
        -13    1    5    5    0    0  0.12097658869E+03 -0.26577387239E+03  0.94129293445E+03  0.98554729704E+03  0.00000000000E+00 0.  1.
          2    1    6    6  503    0 -0.28669783215E+03 -0.52612752159E+02  0.13809079642E+03  0.32254118607E+03  0.00000000000E+00 0.  1.
         -2    1    6    6    0  503 -0.20319932087E+03  0.12882978782E+02  0.16970623294E+03  0.26505874942E+03  0.00000000000E+00 0. -1.
<mgrwt>
<rscale>  0 0.16822204E+04</rscale>
<asrwt>0</asrwt>
<pdfrwt beam="1">  1        2 0.29072076E+00 0.16822204E+04</pdfrwt>
<pdfrwt beam="2">  1       -1 0.57597423E-01 0.16822204E+04</pdfrwt>
<totfact> 0.25496614E+01</totfact>
</mgrwt>
</event>
<event>
12    7  0.1701638E-007  0.1903535E+04  0.7818608E-02  0.8653099E-01
         -1   -1    0    0    0  501 -0.00000000000E+00  0.00000000000E+00  0.15762879852E+04  0.15762879852E+04  0.00000000000E+00 0.  1.
          2   -1    0    0  501    0  0.00000000000E+00 -0.00000000000E+00 -0.57468021785E+03  0.57468021785E+03  0.00000000000E+00 0. -1.
         24    2    1    2    0    0  0.71641487407E+03  0.18309291928E+03  0.40540659173E+03  0.84668212819E+03  0.75781479922E+02 0.  0.
        254    2    1    2    0    0 -0.71641487407E+03 -0.18309291928E+03  0.59620117564E+03  0.13042860749E+04  0.89383054011E+03 0.  0.
         23    2    4    4    0    0 -0.37879054547E+03  0.25942554755E+03  0.57244989540E+03  0.73909602963E+03  0.88205250492E+02 0.  0.
         23    2    4    4    0    0 -0.33762432860E+03 -0.44251846683E+03  0.23751280236E+02  0.56519004526E+03  0.95199176430E+02 0.  0.
          4    1    3    3  502    0  0.58136378430E+03  0.13638298917E+03  0.35741492058E+03  0.69593792459E+03  0.00000000000E+00 0. -1.
         -3    1    3    3    0  502  0.13505108977E+03  0.46709930107E+02  0.47991671148E+02  0.15074420360E+03  0.00000000000E+00 0.  1.
         13    1    5    5    0    0 -0.15878322396E+03  0.15874053897E+03  0.25103876169E+03  0.33679538416E+03  0.00000000000E+00 0. -1.
        -13    1    5    5    0    0 -0.22000732151E+03  0.10068500858E+03  0.32141113371E+03  0.40230064547E+03  0.00000000000E+00 0.  1.
          1    1    6    6  503    0 -0.29516139827E+03 -0.35021232666E+03  0.48641376107E+02  0.46058105502E+03  0.00000000000E+00 0. -1.
         -1    1    6    6    0  503 -0.42462930329E+02 -0.92306140169E+02 -0.24890095871E+02  0.10460899023E+03  0.00000000000E+00 0.  1.
<mgrwt>
<rscale>  0 0.19035352E+04</rscale>
<asrwt>0</asrwt>
<pdfrwt beam="1">  1        2 0.88412342E-01 0.19035352E+04</pdfrwt>
<pdfrwt beam="2">  1       -1 0.24250584E+00 0.19035352E+04</pdfrwt>
<totfact> 0.43611033E+00</totfact>
</mgrwt>
</event>
<event>
12    7  0.1701638E-007  0.1307519E+04  0.7818608E-02  0.9023624E-01
          2   -1    0    0  501    0  0.00000000000E+00  0.00000000000E+00  0.17042205767E+04  0.17042205767E+04  0.00000000000E+00 0. -1.
         -1   -1    0    0    0  501 -0.00000000000E+00 -0.00000000000E+00 -0.25079008884E+03  0.25079008884E+03  0.00000000000E+00 0.  1.
         24    2    1    2    0    0 -0.20064921877E+03  0.49901266552E+02  0.79580095175E+03  0.82614523696E+03  0.80414876414E+02 0.  0.
        254    2    1    2    0    0  0.20064921877E+03 -0.49901266552E+02  0.65762953611E+03  0.11288654286E+04  0.89392969728E+03 0.  0.
         23    2    4    4    0    0  0.16003536413E+03  0.32531225616E+03  0.63855551449E+03  0.74007138972E+03  0.92266651729E+02 0.  0.
         23    2    4    4    0    0  0.40613854643E+02 -0.37521352271E+03  0.19074021622E+02  0.38879403886E+03  0.91445686257E+02 0.  0.
          4    1    3    3  502    0 -0.87159958445E+02  0.11573578096E+02  0.48798963295E+03  0.49584744421E+03  0.00000000000E+00 0. -1.
         -3    1    3    3    0  502 -0.11348926033E+03  0.38327688455E+02  0.30781131880E+03  0.33029779274E+03  0.00000000000E+00 0.  1.
         13    1    5    5    0    0  0.13922871998E+03  0.32337869508E+03  0.58771321386E+03  0.68510235633E+03  0.00000000000E+00 0.  1.
        -13    1    5    5    0    0  0.20806644148E+02  0.19335610800E+01  0.50842300630E+02  0.54969033396E+02  0.00000000000E+00 0. -1.
          3    1    6    6  503    0 -0.12437455799E+02 -0.67011829140E+02 -0.25761008747E+02  0.72862233861E+02  0.00000000000E+00 0. -1.
         -3    1    6    6    0  503  0.53051310442E+02 -0.30820169357E+03  0.44835030370E+02  0.31593180500E+03  0.00000000000E+00 0.  1.
<mgrwt>
<rscale>  0 0.13075192E+04</rscale>
<asrwt>0</asrwt>
<pdfrwt beam="1">  1        2 0.26218777E+00 0.13075192E+04</pdfrwt>
<pdfrwt beam="2">  1       -1 0.38583092E-01 0.13075192E+04</pdfrwt>
<totfact> 0.70820509E+01</totfact>
</mgrwt>
</event>
<event>
12    7  0.1701638E-007  0.4450069E+04  0.7818608E-02  0.7919437E-01
          2   -1    0    0  501    0  0.00000000000E+00  0.00000000000E+00  0.19322484316E+04  0.19322484316E+04  0.00000000000E+00 0. -1.
         -1   -1    0    0    0  501 -0.00000000000E+00 -0.00000000000E+00 -0.25621857359E+04  0.25621857359E+04  0.00000000000E+00 0.  1.
         24    2    1    2    0    0 -0.70391259723E+03  0.18118042696E+04  0.55851076680E+03  0.20240066863E+04  0.80877275254E+02 0.  0.
        254    2    1    2    0    0  0.70391259723E+03 -0.18118042696E+04 -0.11884480711E+04  0.24704274812E+04  0.95523581708E+03 0.  0.
         23    2    4    4    0    0  0.85626110373E+03 -0.17849284257E+04 -0.10464259923E+04  0.22411167530E+04  0.91893310960E+02 0.  0.
         23    2    4    4    0    0 -0.15234850650E+03 -0.26875843892E+02 -0.14202207877E+03  0.22931072817E+03  0.92091046129E+02 0.  0.
          2    1    3    3  502    0 -0.26728868164E+03  0.70064785402E+03  0.17489847420E+03  0.77002605862E+03  0.00000000000E+00 0. -1.
         -1    1    3    3    0  502 -0.43662391559E+03  0.11111564156E+04  0.38361229260E+03  0.12539806277E+04  0.00000000000E+00 0.  1.
         13    1    5    5    0    0  0.38976138586E+03 -0.84165586745E+03 -0.54015058854E+03  0.10733411366E+04  0.00000000000E+00 0.  1.
        -13    1    5    5    0    0  0.46649971788E+03 -0.94327255826E+03 -0.50627540377E+03  0.11677756165E+04  0.00000000000E+00 0. -1.
          1    1    6    6  503    0 -0.81109277217E+02  0.21450051791E+01 -0.17591678791E+02  0.83022786394E+02  0.00000000000E+00 0. -1.
         -1    1    6    6    0  503 -0.71239229281E+02 -0.29020849071E+02 -0.12443039998E+03  0.14628794177E+03  0.00000000000E+00 0.  1.
<mgrwt>
<rscale>  0 0.44500694E+04</rscale>
<asrwt>0</asrwt>
<pdfrwt beam="1">  1        2 0.29726899E+00 0.44500694E+04</pdfrwt>
<pdfrwt beam="2">  1       -1 0.39418242E+00 0.44500694E+04</pdfrwt>
<totfact> 0.49459487E-02</totfact>
</mgrwt>
</event>
<event>
12    7  0.2110770E-007  0.2086697E+04  0.7818608E-02  0.8567126E-01
         -1   -1    0    0    0  501 -0.00000000000E+00  0.00000000000E+00  0.44069484449E+03  0.44069484449E+03  0.00000000000E+00 0.  1.
          2   -1    0    0  501    0  0.00000000000E+00 -0.00000000000E+00 -0.24701368617E+04  0.24701368617E+04  0.00000000000E+00 0. -1.
         24    2    1    2    0    0  0.50221516574E+03  0.57739924807E+03 -0.32574079559E+03  0.83549305323E+03  0.79571425156E+02 0.  0.
        254    2    1    2    0    0 -0.50221516574E+03 -0.57739924807E+03 -0.17037012216E+04  0.20753386530E+04  0.90488822930E+03 0.  0.
         23    2    4    4    0    0 -0.80935844599E+02 -0.56982807435E+03 -0.14768090700E+04  0.15876590050E+04  0.91877318539E+02 0.  0.
         23    2    4    4    0    0 -0.42127932114E+03 -0.75711737235E+01 -0.22689215162E+03  0.48767964795E+03  0.93903149393E+02 0.  0.
          2    1    3    3  502    0  0.65902137295E+02  0.70057122524E+02 -0.13673797716E+02  0.97149703346E+02  0.00000000000E+00 0. -1.
         -1    1    3    3    0  502  0.43631302845E+03  0.50734212555E+03 -0.31206699787E+03  0.73834334988E+03  0.00000000000E+00 0.  1.
         13    1    5    5    0    0 -0.88399204119E+02 -0.56822208646E+03 -0.14530882906E+04  0.15627400101E+04  0.00000000000E+00 0.  1.
        -13    1    5    5    0    0  0.74633595200E+01 -0.16059878926E+01 -0.23720779384E+02  0.24918994903E+02  0.00000000000E+00 0. -1.
          1    1    6    6  503    0 -0.24676554862E+01 -0.24758804205E+00  0.73495557754E+01  0.77567128046E+01  0.00000000000E+00 0. -1.
         -1    1    6    6    0  503 -0.41881166566E+03 -0.73235856814E+01 -0.23424170739E+03  0.47992293515E+03  0.00000000000E+00 0.  1.
<mgrwt>
<rscale>  0 0.20866975E+04</rscale>
<asrwt>0</asrwt>
<pdfrwt beam="1">  1        2 0.38002106E+00 0.20866975E+04</pdfrwt>
<pdfrwt beam="2">  1       -1 0.67799207E-01 0.20866975E+04</pdfrwt>
<totfact> 0.83813710E+00</totfact>
</mgrwt>
</event>
<event>
12    7  0.1701638E-007  0.1909140E+04  0.7818608E-02  0.8650320E-01
          2   -1    0    0  501    0  0.00000000000E+00  0.00000000000E+00  0.21891524891E+04  0.21891524891E+04  0.00000000000E+00 0. -1.
         -1   -1    0    0    0  501 -0.00000000000E+00 -0.00000000000E+00 -0.41623607827E+03  0.41623607827E+03  0.00000000000E+00 0.  1.
         24    2    1    2    0    0 -0.65556596531E+03 -0.27073651257E+03  0.98491899158E+03  0.12162231914E+04  0.77900175024E+02 0.  0.
        254    2    1    2    0    0  0.65556596531E+03  0.27073651257E+03  0.78799741928E+03  0.13891653760E+04  0.89764999576E+03 0.  0.
         23    2    4    4    0    0  0.31075088225E+03 -0.62999671869E+02  0.83552450662E+03  0.89820113041E+03  0.90160967349E+02 0.  0.
         23    2    4    4    0    0  0.34481508306E+03  0.33373618444E+03 -0.47527087347E+02  0.49096424555E+03  0.92248490881E+02 0.  0.
          4    1    3    3  502    0 -0.61624669388E+03 -0.23514058767E+03  0.89434087220E+03  0.11112590514E+04  0.00000000000E+00 0. -1.
         -3    1    3    3    0  502 -0.39319271439E+02 -0.35595924897E+02  0.90578119389E+02  0.10496414001E+03  0.00000000000E+00 0.  1.
         13    1    5    5    0    0  0.31128669708E+03 -0.53901545240E+02  0.82851700460E+03  0.88670469226E+03  0.00000000000E+00 0. -1.
        -13    1    5    5    0    0 -0.53581482895E+00 -0.90981266288E+01  0.70075020212E+01  0.11496438155E+02  0.00000000000E+00 0.  1.
          4    1    6    6  503    0  0.25503081669E+03  0.29679220648E+03 -0.44418550540E+02  0.39382653405E+03  0.00000000000E+00 0. -1.
         -4    1    6    6    0  503  0.89784266371E+02  0.36943977958E+02 -0.31085368067E+01  0.97137711504E+02  0.00000000000E+00 0.  1.
<mgrwt>
<rscale>  0 0.19091404E+04</rscale>
<asrwt>0</asrwt>
<pdfrwt beam="1">  1        2 0.33679268E+00 0.19091404E+04</pdfrwt>
<pdfrwt beam="2">  1       -1 0.64036321E-01 0.19091404E+04</pdfrwt>
<totfact> 0.13802173E+01</totfact>
</mgrwt>
</event>
<event>
12    7  0.1701638E-007  0.2147486E+04  0.7818608E-02  0.8540609E-01
         -1   -1    0    0    0  501 -0.00000000000E+00  0.00000000000E+00  0.33769884721E+03  0.33769884721E+03  0.00000000000E+00 0.  1.
          2   -1    0    0  501    0  0.00000000000E+00 -0.00000000000E+00 -0.34140602152E+04  0.34140602152E+04  0.00000000000E+00 0. -1.
         24    2    1    2    0    0  0.73657805702E+03  0.74917051008E+02 -0.21077246149E+04  0.22353614834E+04  0.78600959733E+02 0.  0.
        254    2    1    2    0    0 -0.73657805702E+03 -0.74917051008E+02 -0.96863675311E+03  0.15163975790E+04  0.90168989095E+03 0.  0.
         23    2    4    4    0    0  0.17961203524E+02  0.68875435445E+02 -0.68194895914E+03  0.69172525954E+03  0.91449556459E+02 0.  0.
         23    2    4    4    0    0 -0.75453926054E+03 -0.14379248645E+03 -0.28668779397E+03  0.82467231943E+03  0.88818738840E+02 0.  0.
          4    1    3    3  502    0  0.63209996696E+03  0.37880900415E+02 -0.17649427123E+04  0.18751021595E+04  0.00000000000E+00 0. -1.
         -3    1    3    3    0  502  0.10447809006E+03  0.37036150594E+02 -0.34278190261E+03  0.36025932397E+03  0.00000000000E+00 0.  1.
         13    1    5    5    0    0  0.77346679266E+01  0.57510955315E+02 -0.17157516179E+03  0.18112253093E+03  0.00000000000E+00 0.  1.
        -13    1    5    5    0    0  0.10226535598E+02  0.11364480130E+02 -0.51037379735E+03  0.51060272861E+03  0.00000000000E+00 0. -1.
          2    1    6    6  503    0 -0.59372279497E+03 -0.14933317257E+03 -0.22135913608E+03  0.65100462427E+03  0.00000000000E+00 0. -1.
         -2    1    6    6    0  503 -0.16081646557E+03  0.55406861124E+01 -0.65328657885E+02  0.17366769516E+03  0.00000000000E+00 0.  1.
<mgrwt>
<rscale>  0 0.21474862E+04</rscale>
<asrwt>0</asrwt>
<pdfrwt beam="1">  1        2 0.52524002E+00 0.21474862E+04</pdfrwt>
<pdfrwt beam="2">  1       -1 0.51953670E-01 0.21474862E+04</pdfrwt>
<totfact> 0.36461539E+00</totfact>
</mgrwt>
</event>
<event>
12    7  0.1701638E-007  0.2424913E+04  0.7818608E-02  0.8430235E-01
          2   -1    0    0  501    0  0.00000000000E+00  0.00000000000E+00  0.23096208929E+04  0.23096208929E+04  0.00000000000E+00 0. -1.
         -1   -1    0    0    0  501 -0.00000000000E+00 -0.00000000000E+00 -0.63648991283E+03  0.63648991283E+03  0.00000000000E+00 0.  1.
         24    2    1    2    0    0 -0.81497528987E+03 -0.73161281658E+02 -0.53791543558E+02  0.82375161716E+03  0.78331988291E+02 0.  0.
        254    2    1    2    0    0  0.81497528987E+03  0.73161281658E+02  0.17269225237E+04  0.21223591886E+04  0.92336873808E+03 0.  0.
         23    2    4    4    0    0  0.59457785300E+03  0.38931111529E+03  0.15075638196E+04  0.16691867276E+04  0.91376658264E+02 0.  0.
         23    2    4    4    0    0  0.22039743687E+03 -0.31614983363E+03  0.21935870403E+03  0.45317246096E+03  0.93387851770E+02 0.  0.
          2    1    3    3  502    0 -0.40426150805E+03 -0.19457715655E+02 -0.62055584061E+02  0.40945923497E+03  0.00000000000E+00 0. -1.
         -1    1    3    3    0  502 -0.41071378182E+03 -0.53703566003E+02  0.82640405028E+01  0.41429238219E+03  0.00000000000E+00 0.  1.
         13    1    5    5    0    0  0.52445001671E+03  0.31953482000E+03  0.13503021805E+04  0.14833968787E+04  0.00000000000E+00 0. -1.
        -13    1    5    5    0    0  0.70127836289E+02  0.69776295290E+02  0.15726163919E+03  0.18578984894E+03  0.00000000000E+00 0.  1.
          4    1    6    6  503    0  0.15748826801E+03 -0.19006760412E+03  0.18407888302E+03  0.30791765762E+03  0.00000000000E+00 0.  1.
         -4    1    6    6    0  503  0.62909168858E+02 -0.12608222951E+03  0.35279821003E+02  0.14525480334E+03  0.00000000000E+00 0. -1.
<mgrwt>
<rscale>  0 0.24249127E+04</rscale>
<asrwt>0</asrwt>
<pdfrwt beam="1">  1        2 0.35532629E+00 0.24249127E+04</pdfrwt>
<pdfrwt beam="2">  1       -1 0.97921527E-01 0.24249127E+04</pdfrwt>
<totfact> 0.45693085E+00</totfact>
</mgrwt>
</event>
<event>
12    7  0.1701638E-007  0.1505672E+04  0.7818608E-02  0.8880690E-01
          2   -1    0    0  501    0  0.00000000000E+00  0.00000000000E+00  0.13826297759E+04  0.13826297759E+04  0.00000000000E+00 0. -1.
         -1   -1    0    0    0  501 -0.00000000000E+00 -0.00000000000E+00 -0.40991571385E+03  0.40991571385E+03  0.00000000000E+00 0.  1.
         24    2    1    2    0    0 -0.10568406045E+03  0.80629185125E+02  0.86249336740E+03  0.87563276177E+03  0.71886984527E+02 0.  0.
        254    2    1    2    0    0  0.10568406045E+03 -0.80629185125E+02  0.11022069462E+03  0.91691272796E+03  0.90050550417E+03 0.  0.
         23    2    4    4    0    0  0.47163882387E+03 -0.38004400123E+02  0.20805479363E+03  0.52524411009E+03  0.93311646748E+02 0.  0.
         23    2    4    4    0    0 -0.36595476342E+03 -0.42624785002E+02 -0.97834099007E+02  0.39166861788E+03  0.89961292434E+02 0.  0.
          2    1    3    3  502    0 -0.46652941209E+02  0.60037734143E+02  0.64071788392E+03  0.64521347880E+03  0.00000000000E+00 0. -1.
         -1    1    3    3    0  502 -0.59031119242E+02  0.20591450982E+02  0.22177548348E+03  0.23041928297E+03  0.00000000000E+00 0.  1.
         13    1    5    5    0    0  0.15329641567E+03 -0.37117182424E+02  0.30214734450E+02  0.16059391790E+03  0.00000000000E+00 0.  1.
        -13    1    5    5    0    0  0.31834240820E+03 -0.88721769895E+00  0.17784005918E+03  0.36465019219E+03  0.00000000000E+00 0. -1.
          3    1    6    6  503    0 -0.36837072244E+03 -0.33588055914E+02 -0.95413400859E+02  0.38200636606E+03  0.00000000000E+00 0. -1.
         -3    1    6    6    0  503  0.24159590193E+01 -0.90367290881E+01 -0.24206981479E+01  0.96622518141E+01  0.00000000000E+00 0.  1.
<mgrwt>
<rscale>  0 0.15056715E+04</rscale>
<asrwt>0</asrwt>
<pdfrwt beam="1">  1        2 0.21271227E+00 0.15056715E+04</pdfrwt>
<pdfrwt beam="2">  1       -1 0.63063956E-01 0.15056715E+04</pdfrwt>
<totfact> 0.41564303E+01</totfact>
</mgrwt>
</event>
<event>
12    7  0.1701638E-007  0.1218110E+04  0.7818608E-02  0.9097151E-01
          2   -1    0    0  501    0  0.00000000000E+00  0.00000000000E+00  0.11062907879E+04  0.11062907879E+04  0.00000000000E+00 0. -1.
         -1   -1    0    0    0  501 -0.00000000000E+00 -0.00000000000E+00 -0.33530770414E+03  0.33530770414E+03  0.00000000000E+00 0.  1.
         24    2    1    2    0    0  0.26313172819E+03  0.36145825462E+02  0.21324756841E+03  0.35026297234E+03  0.81638209669E+02 0.  0.
        254    2    1    2    0    0 -0.26313172819E+03 -0.36145825462E+02  0.55773551537E+03  0.10913355197E+04  0.89966631839E+03 0.  0.
         23    2    4    4    0    0  0.43692133662E+02 -0.40879049992E+03  0.13267634524E+03  0.44183248283E+03  0.92705204439E+02 0.  0.
         23    2    4    4    0    0 -0.30682386185E+03  0.37264467445E+03  0.42505917013E+03  0.64950303690E+03  0.90409962009E+02 0.  0.
          2    1    3    3  502    0  0.18915087571E+03  0.35013728397E+02  0.10503021359E+03  0.21916970758E+03  0.00000000000E+00 0. -1.
         -1    1    3    3    0  502  0.73980852484E+02  0.11320970652E+01  0.10821735483E+03  0.13109326475E+03  0.00000000000E+00 0.  1.
         13    1    5    5    0    0 -0.24672121730E+02 -0.11299697695E+03  0.16771570893E+02  0.11686879815E+03  0.00000000000E+00 0.  1.
        -13    1    5    5    0    0  0.68364255392E+02 -0.29579352297E+03  0.11590477434E+03  0.32496368468E+03  0.00000000000E+00 0. -1.
          4    1    6    6  503    0 -0.21702505364E+03  0.30081913098E+03  0.28199298923E+03  0.46595286183E+03  0.00000000000E+00 0. -1.
         -4    1    6    6    0  503 -0.89798808209E+02  0.71825543471E+02  0.14306618090E+03  0.18355017507E+03  0.00000000000E+00 0.  1.
<mgrwt>
<rscale>  0 0.12181097E+04</rscale>
<asrwt>0</asrwt>
<pdfrwt beam="1">  1        2 0.17019858E+00 0.12181097E+04</pdfrwt>
<pdfrwt beam="2">  1       -1 0.51585801E-01 0.12181097E+04</pdfrwt>
<totfact> 0.91735735E+01</totfact>
</mgrwt>
</event>
<event>
12    7  0.1701638E-007  0.2870260E+04  0.7818608E-02  0.8281781E-01
         -1   -1    0    0    0  501 -0.00000000000E+00  0.00000000000E+00  0.11750044669E+04  0.11750044669E+04  0.00000000000E+00 0.  1.
          2   -1    0    0  501    0  0.00000000000E+00 -0.00000000000E+00 -0.17528432630E+04  0.17528432630E+04  0.00000000000E+00 0. -1.
         24    2    1    2    0    0  0.12127128929E+04  0.58254057280E+02 -0.71513645328E+03  0.14112703059E+04  0.78725052238E+02 0.  0.
        254    2    1    2    0    0 -0.12127128929E+04 -0.58254057280E+02  0.13729765709E+03  0.15165774240E+04  0.89838206822E+03 0.  0.
         23    2    4    4    0    0 -0.33126384987E+03 -0.14167456472E+03  0.44060387309E+03  0.57618644993E+03  0.89730884193E+02 0.  0.
         23    2    4    4    0    0 -0.88144904300E+03  0.83420507444E+02 -0.30330621600E+03  0.94039097403E+03  0.91810276757E+02 0.  0.
          2    1    3    3  502    0  0.10116158747E+04  0.31319043560E+02 -0.56748456459E+03  0.11603388692E+04  0.00000000000E+00 0. -1.
         -1    1    3    3    0  502  0.20109701820E+03  0.26935013720E+02 -0.14765188869E+03  0.25093143671E+03  0.00000000000E+00 0.  1.
         13    1    5    5    0    0 -0.21203205132E+03 -0.47439496728E+02  0.28855218712E+03  0.36120695083E+03  0.00000000000E+00 0. -1.
        -13    1    5    5    0    0 -0.11923179855E+03 -0.94235067996E+02  0.15205168597E+03  0.21497949910E+03  0.00000000000E+00 0.  1.
          3    1    6    6  503    0 -0.29097204114E+03 -0.12177753214E+02 -0.81377207655E+02  0.30238266539E+03  0.00000000000E+00 0. -1.
         -3    1    6    6    0  503 -0.59047700185E+03  0.95598260658E+02 -0.22192900834E+03  0.63800830865E+03  0.00000000000E+00 0.  1.
<mgrwt>
<rscale>  0 0.28702604E+04</rscale>
<asrwt>0</asrwt>
<pdfrwt beam="1">  1        2 0.26966819E+00 0.28702604E+04</pdfrwt>
<pdfrwt beam="2">  1       -1 0.18076992E+00 0.28702604E+04</pdfrwt>
<totfact> 0.18544798E+00</totfact>
</mgrwt>
</event>
<event>
12    7  0.1701638E-007  0.4858116E+04  0.7818608E-02  0.7850775E-01
         -1   -1    0    0    0  501 -0.00000000000E+00  0.00000000000E+00  0.14035963368E+04  0.14035963368E+04  0.00000000000E+00 0.  1.
          2   -1    0    0  501    0  0.00000000000E+00 -0.00000000000E+00 -0.42037173218E+04  0.42037173218E+04  0.00000000000E+00 0. -1.
         24    2    1    2    0    0  0.14375940893E+04  0.14138141187E+04  0.29377798363E+02  0.20179143901E+04  0.74621062275E+02 0.  0.
        254    2    1    2    0    0 -0.14375940893E+04 -0.14138141187E+04 -0.28294987834E+04  0.35893992686E+04  0.90120841997E+03 0.  0.
         23    2    4    4    0    0 -0.73553205598E+03 -0.12592229649E+04 -0.21243038403E+04  0.25783437679E+04  0.92411573989E+02 0.  0.
         23    2    4    4    0    0 -0.70206203329E+03 -0.15459115382E+03 -0.70519494308E+03  0.10110555006E+04  0.90242973042E+02 0.  0.
          4    1    3    3  502    0  0.45657776429E+02  0.33265523338E+02  0.99389012518E+01  0.57358603099E+02  0.00000000000E+00 0. -1.
         -3    1    3    3    0  502  0.13919363128E+04  0.13805485954E+04  0.19438897111E+02  0.19605557870E+04  0.00000000000E+00 0.  1.
         13    1    5    5    0    0 -0.28905783209E+03 -0.51659644632E+03 -0.78526194532E+03  0.98339343165E+03  0.00000000000E+00 0. -1.
        -13    1    5    5    0    0 -0.44647422389E+03 -0.74262651861E+03 -0.13390418950E+04  0.15949503363E+04  0.00000000000E+00 0.  1.
          1    1    6    6  503    0 -0.19016889069E+01  0.21806633788E-01 -0.17322911063E+02  0.17426994690E+02  0.00000000000E+00 0. -1.
         -1    1    6    6    0  503 -0.70016034438E+03 -0.15461296045E+03 -0.68787203201E+03  0.99362850594E+03  0.00000000000E+00 0.  1.
<mgrwt>
<rscale>  0 0.48581158E+04</rscale>
<asrwt>0</asrwt>
<pdfrwt beam="1">  1        2 0.64672572E+00 0.48581158E+04</pdfrwt>
<pdfrwt beam="2">  1       -1 0.21593790E+00 0.48581158E+04</pdfrwt>
<totfact> 0.22451370E-02</totfact>
</mgrwt>
</event>
<event>
12    7  0.1701638E-007  0.1415433E+04  0.7818608E-02  0.8942723E-01
          2   -1    0    0  501    0  0.00000000000E+00  0.00000000000E+00  0.14865888950E+04  0.14865888950E+04  0.00000000000E+00 0. -1.
         -1   -1    0    0    0  501 -0.00000000000E+00 -0.00000000000E+00 -0.33692061353E+03  0.33692061353E+03  0.00000000000E+00 0.  1.
         24    2    1    2    0    0 -0.36847650511E+03 -0.32463690443E+02  0.61122517557E+03  0.71875384566E+03  0.78626009536E+02 0.  0.
        254    2    1    2    0    0  0.36847650511E+03  0.32463690443E+02  0.53844310590E+03  0.11047556629E+04  0.89091821754E+03 0.  0.
         23    2    4    4    0    0 -0.93817693332E+02 -0.21805432597E+03  0.51034643944E+03  0.57018734291E+03  0.91162871348E+02 0.  0.
         23    2    4    4    0    0  0.46229419844E+03  0.25051801641E+03  0.28096666461E+02  0.53456831996E+03  0.92188196551E+02 0.  0.
          4    1    3    3  502    0 -0.31822742729E+03 -0.90623466425E+00  0.49972064204E+03  0.59244429006E+03  0.00000000000E+00 0. -1.
         -3    1    3    3    0  502 -0.50249077820E+02 -0.31557455779E+02  0.11150453353E+03  0.12630955560E+03  0.00000000000E+00 0.  1.
         13    1    5    5    0    0 -0.11084155288E+03 -0.19032422710E+03  0.46326726600E+03  0.51295781601E+03  0.00000000000E+00 0.  1.
        -13    1    5    5    0    0  0.17023859544E+02 -0.27730098865E+02  0.47079173446E+02  0.57229526899E+02  0.00000000000E+00 0. -1.
          4    1    6    6  503    0  0.11804366242E+01  0.10424689058E+01  0.98511532528E+01  0.99762413991E+01  0.00000000000E+00 0. -1.
         -4    1    6    6    0  503  0.46111376182E+03  0.24947554750E+03  0.18245513209E+02  0.52459207857E+03  0.00000000000E+00 0.  1.
<mgrwt>
<rscale>  0 0.14154327E+04</rscale>
<asrwt>0</asrwt>
<pdfrwt beam="1">  1        2 0.22870598E+00 0.14154327E+04</pdfrwt>
<pdfrwt beam="2">  1       -1 0.51833941E-01 0.14154327E+04</pdfrwt>
<totfact> 0.53609685E+01</totfact>
</mgrwt>
</event>
<event>
12    7  0.1701638E-007  0.1077594E+04  0.7818608E-02  0.9227310E-01
         -1   -1    0    0    0  501 -0.00000000000E+00  0.00000000000E+00  0.17952176880E+03  0.17952176880E+03  0.00000000000E+00 0.  1.
          2   -1    0    0  501    0  0.00000000000E+00 -0.00000000000E+00 -0.16170852398E+04  0.16170852398E+04  0.00000000000E+00 0. -1.
         24    2    1    2    0    0 -0.66216494565E+01 -0.14215620631E+03 -0.27089128089E+03  0.31620764010E+03  0.79705409865E+02 0.  0.
        254    2    1    2    0    0  0.66216494565E+01  0.14215620631E+03 -0.11666721901E+04  0.14803993685E+04  0.90011446927E+03 0.  0.
         23    2    4    4    0    0  0.86472903205E+02  0.10074807896E+03  0.11083466691E+03  0.19644839381E+03  0.93166032657E+02 0.  0.
         23    2    4    4    0    0 -0.79851253748E+02  0.41408127354E+02 -0.12775068570E+04  0.12839509746E+04  0.91735924906E+02 0.  0.
          2    1    3    3  502    0  0.18593795428E+02 -0.13286756734E+03 -0.24234693857E+03  0.27700461786E+03  0.00000000000E+00 0. -1.
         -1    1    3    3    0  502 -0.25215444884E+02 -0.92886389680E+01 -0.28544342324E+02  0.39203022247E+02  0.00000000000E+00 0.  1.
         13    1    5    5    0    0 -0.71455757027E+01 -0.58305496232E+01  0.33776617449E+02  0.35013061096E+02  0.00000000000E+00 0.  1.
        -13    1    5    5    0    0  0.93618478907E+02  0.10657862858E+03  0.77058049458E+02  0.16143533272E+03  0.00000000000E+00 0. -1.
          3    1    6    6  503    0 -0.78262524827E+02 -0.13928838888E+01 -0.59885183429E+03  0.60394576110E+03  0.00000000000E+00 0. -1.
         -3    1    6    6    0  503 -0.15887289210E+01  0.42801011243E+02 -0.67865502268E+03  0.68000521353E+03  0.00000000000E+00 0.  1.
<mgrwt>
<rscale>  0 0.10775936E+04</rscale>
<asrwt>0</asrwt>
<pdfrwt beam="1">  1        2 0.24878234E+00 0.10775936E+04</pdfrwt>
<pdfrwt beam="2">  1       -1 0.27618735E-01 0.10775936E+04</pdfrwt>
<totfact> 0.14564753E+02</totfact>
</mgrwt>
</event>
<event>
12    7  0.1701638E-007  0.2193601E+04  0.7818608E-02  0.8521096E-01
          2   -1    0    0  501    0  0.00000000000E+00  0.00000000000E+00  0.45036941724E+04  0.45036941724E+04  0.00000000000E+00 0. -1.
         -1   -1    0    0    0  501 -0.00000000000E+00 -0.00000000000E+00 -0.26710780021E+03  0.26710780021E+03  0.00000000000E+00 0.  1.
         24    2    1    2    0    0 -0.71508989179E+03  0.13383320454E+03  0.29084801645E+04  0.29991114458E+04  0.78407380614E+02 0.  0.
        254    2    1    2    0    0  0.71508989179E+03 -0.13383320454E+03  0.13281062077E+04  0.17716905268E+04  0.91965012029E+03 0.  0.
         23    2    4    4    0    0  0.66434368021E+03 -0.46428677379E+03  0.10343042883E+04  0.13172224099E+04  0.91513838534E+02 0.  0.
         23    2    4    4    0    0  0.50746211579E+02  0.33045356925E+03  0.29380191946E+03  0.45446811690E+03  0.91907355409E+02 0.  0.
          2    1    3    3  502    0 -0.48958338772E+03  0.60573266381E+02  0.18790176410E+04  0.19426961443E+04  0.00000000000E+00 0. -1.
         -1    1    3    3    0  502 -0.22550650407E+03  0.73259938155E+02  0.10294625235E+04  0.10564153015E+04  0.00000000000E+00 0.  1.
         13    1    5    5    0    0  0.28616519675E+03 -0.14811776506E+03  0.38654408342E+03  0.50323525372E+03  0.00000000000E+00 0.  1.
        -13    1    5    5    0    0  0.37817848346E+03 -0.31616900873E+03  0.64776020483E+03  0.81398715616E+03  0.00000000000E+00 0. -1.
          2    1    6    6  503    0  0.33337107618E+02  0.32689820889E+03  0.27381262865E+03  0.42772322514E+03  0.00000000000E+00 0. -1.
         -2    1    6    6    0  503  0.17409103960E+02  0.35553603657E+01  0.19989290807E+02  0.26744891755E+02  0.00000000000E+00 0.  1.
<mgrwt>
<rscale>  0 0.21936015E+04</rscale>
<asrwt>0</asrwt>
<pdfrwt beam="1">  1        2 0.69287597E+00 0.21936015E+04</pdfrwt>
<pdfrwt beam="2">  1       -1 0.41093511E-01 0.21936015E+04</pdfrwt>
<totfact> 0.74498494E-01</totfact>
</mgrwt>
</event>
<event>
12    7  0.1701638E-007  0.2267236E+04  0.7818608E-02  0.8490953E-01
         -1   -1    0    0    0  501 -0.00000000000E+00  0.00000000000E+00  0.69384168518E+03  0.69384168518E+03  0.00000000000E+00 0.  1.
          2   -1    0    0  501    0  0.00000000000E+00 -0.00000000000E+00 -0.18521369632E+04  0.18521369632E+04  0.00000000000E+00 0. -1.
         24    2    1    2    0    0  0.21384106370E+03 -0.10489005302E+03  0.54865924023E+03  0.60338867620E+03  0.79504773044E+02 0.  0.
        254    2    1    2    0    0 -0.21384106370E+03  0.10489005302E+03 -0.17069545183E+04  0.19425899722E+04  0.89623219586E+03 0.  0.
         23    2    4    4    0    0 -0.34804890719E+03 -0.24727242817E+03 -0.13402139913E+04  0.14095200529E+04  0.91057901443E+02 0.  0.
         23    2    4    4    0    0  0.13420784349E+03  0.35216248119E+03 -0.36674052698E+03  0.53306991935E+03  0.87377150132E+02 0.  0.
          2    1    3    3  502    0  0.52965369366E+02 -0.52251106013E+02  0.24120040951E+03  0.25241463107E+03  0.00000000000E+00 0. -1.
         -1    1    3    3    0  502  0.16087569434E+03 -0.52638947006E+02  0.30745883072E+03  0.35097404513E+03  0.00000000000E+00 0.  1.
         13    1    5    5    0    0 -0.19658039742E+03 -0.14865049387E+03 -0.62542759953E+03  0.67223545297E+03  0.00000000000E+00 0.  1.
        -13    1    5    5    0    0 -0.15146850977E+03 -0.98621934306E+02 -0.71478639179E+03  0.73728459991E+03  0.00000000000E+00 0. -1.
          4    1    6    6  503    0  0.13982938578E+03  0.35426616335E+03 -0.36101624936E+03  0.52477567010E+03  0.00000000000E+00 0.  1.
         -4    1    6    6    0  503 -0.56215422873E+01 -0.21036821585E+01 -0.57242776203E+01  0.82942492480E+01  0.00000000000E+00 0. -1.
<mgrwt>
<rscale>  0 0.22672361E+04</rscale>
<asrwt>0</asrwt>
<pdfrwt beam="1">  1        2 0.28494414E+00 0.22672361E+04</pdfrwt>
<pdfrwt beam="2">  1       -1 0.10674488E+00 0.22672361E+04</pdfrwt>
<totfact> 0.68427937E+00</totfact>
</mgrwt>
</event>
<event>
12    7  0.1701638E-007  0.2115851E+04  0.7818608E-02  0.8554293E-01
          2   -1    0    0  501    0  0.00000000000E+00  0.00000000000E+00  0.11132335576E+04  0.11132335576E+04  0.00000000000E+00 0. -1.
         -1   -1    0    0    0  501 -0.00000000000E+00 -0.00000000000E+00 -0.10053655249E+04  0.10053655249E+04  0.00000000000E+00 0.  1.
         24    2    1    2    0    0 -0.60156043510E+03 -0.28169825399E+03  0.59858352033E+03  0.89752113914E+03  0.77544187437E+02 0.  0.
        254    2    1    2    0    0  0.60156043510E+03  0.28169825399E+03 -0.49071548760E+03  0.12210779434E+04  0.89944471247E+03 0.  0.
         23    2    4    4    0    0  0.75469524405E+03  0.18971758642E+03 -0.10903220662E+03  0.79097760699E+03  0.90553181554E+02 0.  0.
         23    2    4    4    0    0 -0.15313480895E+03  0.91980667577E+02 -0.38168328098E+03  0.43010033644E+03  0.85985228428E+02 0.  0.
          2    1    3    3  502    0 -0.59010688316E+03 -0.27196419609E+03  0.59704162116E+03  0.88241110312E+03  0.00000000000E+00 0. -1.
         -1    1    3    3    0  502 -0.11453551941E+02 -0.97340579064E+01  0.15418991644E+01  0.15110036017E+02  0.00000000000E+00 0.  1.
         13    1    5    5    0    0  0.64395912365E+03  0.19283221945E+03 -0.10276261819E+03  0.68002042137E+03  0.00000000000E+00 0. -1.
        -13    1    5    5    0    0  0.11073612040E+03 -0.31146330339E+01 -0.62695884338E+01  0.11095718562E+03  0.00000000000E+00 0.  1.
          3    1    6    6  503    0 -0.11391394996E+03  0.35154632072E+02 -0.30191368337E+03  0.32459838009E+03  0.00000000000E+00 0. -1.
         -3    1    6    6    0  503 -0.39220858987E+02  0.56826035504E+02 -0.79769597609E+02  0.10550195635E+03  0.00000000000E+00 0.  1.
<mgrwt>
<rscale>  0 0.21158513E+04</rscale>
<asrwt>0</asrwt>
<pdfrwt beam="1">  1        2 0.17126670E+00 0.21158513E+04</pdfrwt>
<pdfrwt beam="2">  1       -1 0.15467162E+00 0.21158513E+04</pdfrwt>
<totfact> 0.72028319E+00</totfact>
</mgrwt>
</event>
<event>
12    7  0.1701638E-007  0.2101571E+04  0.7818608E-02  0.8560552E-01
          2   -1    0    0  501    0  0.00000000000E+00  0.00000000000E+00  0.17790035331E+04  0.17790035331E+04  0.00000000000E+00 0. -1.
         -1   -1    0    0    0  501 -0.00000000000E+00 -0.00000000000E+00 -0.62065641459E+03  0.62065641459E+03  0.00000000000E+00 0.  1.
         24    2    1    2    0    0  0.15255211418E+03  0.86245935027E+03  0.40598948692E+03  0.96868394476E+03  0.80080228153E+02 0.  0.
        254    2    1    2    0    0 -0.15255211418E+03 -0.86245935027E+03  0.75235763158E+03  0.14309760029E+04  0.84530588350E+03 0.  0.
         23    2    4    4    0    0 -0.27199254730E+03 -0.23746250204E+03  0.69103405169E+03  0.78495794336E+03  0.90898441074E+02 0.  0.
         23    2    4    4    0    0  0.11944043312E+03 -0.62499684823E+03  0.61323579892E+02  0.64601805954E+03  0.93229150174E+02 0.  0.
          4    1    3    3  502    0  0.13997980978E+03  0.84390827992E+03  0.38538549816E+03  0.93824171419E+03  0.00000000000E+00 0. -1.
         -3    1    3    3    0  502  0.12572304405E+02  0.18551070353E+02  0.20603988759E+02  0.30442230570E+02  0.00000000000E+00 0.  1.
         13    1    5    5    0    0 -0.35135501667E+02 -0.42516596776E+02  0.50623915188E+02  0.74866182404E+02  0.00000000000E+00 0.  1.
        -13    1    5    5    0    0 -0.23685704564E+03 -0.19494590526E+03  0.64041013650E+03  0.71009176096E+03  0.00000000000E+00 0. -1.
          2    1    6    6  503    0  0.49260905784E+02 -0.37641563053E+03  0.76571000701E+02  0.38727055387E+03  0.00000000000E+00 0. -1.
         -2    1    6    6    0  503  0.70179527336E+02 -0.24858121770E+03 -0.15247420809E+02  0.25874750567E+03  0.00000000000E+00 0.  1.
<mgrwt>
<rscale>  0 0.21015708E+04</rscale>
<asrwt>0</asrwt>
<pdfrwt beam="1">  1        2 0.27369285E+00 0.21015708E+04</pdfrwt>
<pdfrwt beam="2">  1       -1 0.95485603E-01 0.21015708E+04</pdfrwt>
<totfact> 0.98440808E+00</totfact>
</mgrwt>
</event>
<event>
12    7  0.1701638E-007  0.2020645E+04  0.7818608E-02  0.8597029E-01
          2   -1    0    0  501    0  0.00000000000E+00  0.00000000000E+00  0.18515593486E+04  0.18515593486E+04  0.00000000000E+00 0. -1.
         -1   -1    0    0    0  501 -0.00000000000E+00 -0.00000000000E+00 -0.55129300552E+03  0.55129300552E+03  0.00000000000E+00 0.  1.
         24    2    1    2    0    0 -0.65963181560E+03  0.41692361163E+03  0.28430394612E+03  0.83435797508E+03  0.79906612476E+02 0.  0.
        254    2    1    2    0    0  0.65963181560E+03 -0.41692361163E+03  0.10159623969E+04  0.15684943790E+04  0.90501690315E+03 0.  0.
         23    2    4    4    0    0 -0.85555868814E+02 -0.31291274536E+03  0.50245862275E+02  0.34071553455E+03  0.91259168914E+02 0.  0.
         23    2    4    4    0    0  0.74518768441E+03 -0.10401086627E+03  0.96571653467E+03  0.12277788445E+04  0.93324810917E+02 0.  0.
          2    1    3    3  502    0 -0.29675499437E+03  0.22645675245E+03  0.11147430402E+03  0.38958016874E+03  0.00000000000E+00 0. -1.
         -1    1    3    3    0  502 -0.36287682123E+03  0.19046685918E+03  0.17282964210E+03  0.44477780634E+03  0.00000000000E+00 0.  1.
         13    1    5    5    0    0 -0.22017655256E+02 -0.87571109316E+02 -0.26877793005E+02  0.94211952993E+02  0.00000000000E+00 0. -1.
        -13    1    5    5    0    0 -0.63538213558E+02 -0.22534163604E+03  0.77123655280E+02  0.24650358155E+03  0.00000000000E+00 0.  1.
          3    1    6    6  503    0  0.14675651555E+03  0.16642361522E+02  0.19024070930E+03  0.24084428690E+03  0.00000000000E+00 0. -1.
         -3    1    6    6    0  503  0.59843116886E+03 -0.12065322779E+03  0.77547582537E+03  0.98693455759E+03  0.00000000000E+00 0.  1.
<mgrwt>
<rscale>  0 0.20206452E+04</rscale>
<asrwt>0</asrwt>
<pdfrwt beam="1">  1        2 0.28485528E+00 0.20206452E+04</pdfrwt>
<pdfrwt beam="2">  1       -1 0.84814310E-01 0.20206452E+04</pdfrwt>
<totfact> 0.11736111E+01</totfact>
</mgrwt>
</event>
<event>
12    7  0.1701638E-007  0.2915525E+04  0.7818608E-02  0.8268273E-01
          2   -1    0    0  501    0  0.00000000000E+00  0.00000000000E+00  0.19376040774E+04  0.19376040774E+04  0.00000000000E+00 0. -1.
         -1   -1    0    0    0  501 -0.00000000000E+00 -0.00000000000E+00 -0.10967518855E+04  0.10967518855E+04  0.00000000000E+00 0.  1.
         24    2    1    2    0    0 -0.80957860263E+03 -0.33418475258E+03  0.13979779392E+04  0.16516632045E+04  0.80944795149E+02 0.  0.
        254    2    1    2    0    0  0.80957860263E+03  0.33418475258E+03 -0.55712574722E+03  0.13826927585E+04  0.91342936421E+03 0.  0.
         23    2    4    4    0    0  0.68383712496E+03  0.11915319571E+03  0.68287478233E+02  0.70337838717E+03  0.90814527125E+02 0.  0.
         23    2    4    4    0    0  0.12574147768E+03  0.21503155687E+03 -0.62541322545E+03  0.67931437130E+03  0.90977045592E+02 0.  0.
          4    1    3    3  502    0 -0.73432627192E+03 -0.30792652070E+03  0.13093770962E+04  0.15324888893E+04  0.00000000000E+00 0. -1.
         -3    1    3    3    0  502 -0.75252330713E+02 -0.26258231876E+02  0.88600843008E+02  0.11917431519E+03  0.00000000000E+00 0.  1.
         13    1    5    5    0    0  0.39414811378E+02 -0.14337700516E+02  0.31642257418E+01  0.42060781455E+02  0.00000000000E+00 0. -1.
        -13    1    5    5    0    0  0.64442231358E+03  0.13349089622E+03  0.65123252491E+02  0.66131760571E+03  0.00000000000E+00 0.  1.
          4    1    6    6  503    0  0.10022325306E+03  0.20250982877E+03 -0.47207598340E+03  0.52336475359E+03  0.00000000000E+00 0. -1.
         -4    1    6    6    0  503  0.25518224613E+02  0.12521728105E+02 -0.15333724206E+03  0.15594961771E+03  0.00000000000E+00 0.  1.
<mgrwt>
<rscale>  0 0.29155246E+04</rscale>
<asrwt>0</asrwt>
<pdfrwt beam="1">  1        2 0.29809293E+00 0.29155246E+04</pdfrwt>
<pdfrwt beam="2">  1       -1 0.16873106E+00 0.29155246E+04</pdfrwt>
<totfact> 0.17843573E+00</totfact>
</mgrwt>
</event>
<event>
12    7  0.1701638E-007  0.1204681E+04  0.7818608E-02  0.9108769E-01
          2   -1    0    0  501    0  0.00000000000E+00  0.00000000000E+00  0.95254374347E+03  0.95254374347E+03  0.00000000000E+00 0. -1.
         -1   -1    0    0    0  501 -0.00000000000E+00 -0.00000000000E+00 -0.38088996601E+03  0.38088996601E+03  0.00000000000E+00 0.  1.
         24    2    1    2    0    0 -0.20711110544E+02  0.15096396380E+03 -0.10071707478E+03  0.19899685949E+03  0.78973112304E+02 0.  0.
        254    2    1    2    0    0  0.20711110544E+02 -0.15096396380E+03  0.67237085225E+03  0.11344368500E+04  0.90091361141E+03 0.  0.
         23    2    4    4    0    0  0.57219784099E+01  0.22346662243E+03  0.70612709700E+03  0.74683259645E+03  0.95777751232E+02 0.  0.
         23    2    4    4    0    0  0.14989132134E+02 -0.37443058623E+03 -0.33756244751E+02  0.38760425355E+03  0.93137722325E+02 0.  0.
          2    1    3    3  502    0  0.99708713047E+01  0.86490253614E+02 -0.16548130764E+02  0.88621796848E+02  0.00000000000E+00 0. -1.
         -1    1    3    3    0  502 -0.30681981849E+02  0.64473710185E+02 -0.84168944020E+02  0.11037506264E+03  0.00000000000E+00 0.  1.
         13    1    5    5    0    0 -0.11831915689E+02  0.19048497668E+03  0.46208524023E+03  0.49994728703E+03  0.00000000000E+00 0. -1.
        -13    1    5    5    0    0  0.17553894099E+02  0.32981645755E+02  0.24404185677E+03  0.24688530942E+03  0.00000000000E+00 0.  1.
          2    1    6    6  503    0  0.28066791602E+02 -0.17058694215E+03 -0.56973128993E+02  0.18202633615E+03  0.00000000000E+00 0. -1.
         -2    1    6    6    0  503 -0.13077659468E+02 -0.20384364408E+03  0.23216884242E+02  0.20557791740E+03  0.00000000000E+00 0.  1.
<mgrwt>
<rscale>  0 0.12046815E+04</rscale>
<asrwt>0</asrwt>
<pdfrwt beam="1">  1        2 0.14654519E+00 0.12046815E+04</pdfrwt>
<pdfrwt beam="2">  1       -1 0.58598456E-01 0.12046815E+04</pdfrwt>
<totfact> 0.89829090E+01</totfact>
</mgrwt>
</event>
<event>
12    7  0.1701638E-007  0.2630851E+04  0.7818608E-02  0.8357797E-01
          2   -1    0    0  501    0  0.00000000000E+00  0.00000000000E+00  0.19164870205E+04  0.19164870205E+04  0.00000000000E+00 0. -1.
         -1   -1    0    0    0  501 -0.00000000000E+00 -0.00000000000E+00 -0.90287305592E+03  0.90287305592E+03  0.00000000000E+00 0.  1.
         24    2    1    2    0    0  0.32395957779E+03 -0.86798092120E+03  0.11914891774E+04  0.15121005611E+04  0.91983473389E+02 0.  0.
        254    2    1    2    0    0 -0.32395957779E+03  0.86798092120E+03 -0.17787521282E+03  0.13072595153E+04  0.90495699425E+03 0.  0.
         23    2    4    4    0    0  0.60515201203E+02  0.40064411946E+03 -0.47137348651E+03  0.62714707368E+03  0.83322795260E+02 0.  0.
         23    2    4    4    0    0 -0.38447477899E+03  0.46733680174E+03  0.29349827369E+03  0.68011244164E+03  0.10093143549E+03 0.  0.
          4    1    3    3  502    0  0.10569770552E+03 -0.22591515376E+03  0.26467200589E+03  0.36367696154E+03  0.00000000000E+00 0. -1.
         -3    1    3    3    0  502  0.21826187227E+03 -0.64206576744E+03  0.92681717149E+03  0.11484235995E+04  0.00000000000E+00 0.  1.
         13    1    5    5    0    0  0.62902735252E+02  0.40275538568E+03 -0.47224187276E+03  0.62384376344E+03  0.00000000000E+00 0.  1.
        -13    1    5    5    0    0 -0.23875340485E+01 -0.21112662169E+01  0.86838625253E+00  0.33033102420E+01  0.00000000000E+00 0. -1.
          3    1    6    6  503    0 -0.65115691797E+02  0.90587091901E+02  0.13511168757E+02  0.11237716057E+03  0.00000000000E+00 0. -1.
         -3    1    6    6    0  503 -0.31935908720E+03  0.37674970984E+03  0.27998710493E+03  0.56773528107E+03  0.00000000000E+00 0.  1.
<mgrwt>
<rscale>  0 0.26308512E+04</rscale>
<asrwt>0</asrwt>
<pdfrwt beam="1">  1        2 0.29484416E+00 0.26308512E+04</pdfrwt>
<pdfrwt beam="2">  1       -1 0.13890355E+00 0.26308512E+04</pdfrwt>
<totfact> 0.31939194E+00</totfact>
</mgrwt>
</event>
<event>
12    7  0.1701638E-007  0.1623387E+04  0.7818608E-02  0.8806308E-01
         -1   -1    0    0    0  501 -0.00000000000E+00  0.00000000000E+00  0.48367559535E+03  0.48367559535E+03  0.00000000000E+00 0.  1.
          2   -1    0    0  501    0  0.00000000000E+00 -0.00000000000E+00 -0.13621649580E+04  0.13621649580E+04  0.00000000000E+00 0. -1.
         24    2    1    2    0    0  0.46845423750E+02  0.17518547768E+03  0.30111020658E+03  0.36088119084E+03  0.81752260393E+02 0.  0.
        254    2    1    2    0    0 -0.46845423750E+02 -0.17518547768E+03 -0.11795995692E+04  0.14849593625E+04  0.88360891759E+03 0.  0.
         23    2    4    4    0    0 -0.26020829244E+03 -0.27922644685E+03 -0.14133188471E+03  0.41589379201E+03  0.85540519757E+02 0.  0.
         23    2    4    4    0    0  0.21336286869E+03  0.10404096918E+03 -0.10382676845E+04  0.10690655705E+04  0.92483362364E+02 0.  0.
          2    1    3    3  502    0  0.24923170347E+02  0.41187215553E+02  0.27522477842E+02  0.55453024550E+02  0.00000000000E+00 0. -1.
         -1    1    3    3    0  502  0.21922253403E+02  0.13399826212E+03  0.27358772874E+03  0.30542816629E+03  0.00000000000E+00 0.  1.
         13    1    5    5    0    0 -0.17069383197E+03 -0.18400310816E+03 -0.48604443231E+02  0.25564803927E+03  0.00000000000E+00 0.  1.
        -13    1    5    5    0    0 -0.89514460472E+02 -0.95223338694E+02 -0.92727441484E+02  0.16024575274E+03  0.00000000000E+00 0. -1.
          3    1    6    6  503    0  0.22033109377E+03  0.93994890971E+02 -0.94006144050E+03  0.97010120210E+03  0.00000000000E+00 0. -1.
         -3    1    6    6    0  503 -0.69682250797E+01  0.10046078204E+02 -0.98206243995E+02  0.98964368374E+02  0.00000000000E+00 0.  1.
<mgrwt>
<rscale>  0 0.16233865E+04</rscale>
<asrwt>0</asrwt>
<pdfrwt beam="1">  1        2 0.20956384E+00 0.16233865E+04</pdfrwt>
<pdfrwt beam="2">  1       -1 0.74411630E-01 0.16233865E+04</pdfrwt>
<totfact> 0.30171908E+01</totfact>
</mgrwt>
</event>
<event>
12    7  0.1701638E-007  0.3049827E+04  0.7818608E-02  0.8229644E-01
         -1   -1    0    0    0  501 -0.00000000000E+00  0.00000000000E+00  0.11418225595E+04  0.11418225595E+04  0.00000000000E+00 0.  1.
          2   -1    0    0  501    0  0.00000000000E+00 -0.00000000000E+00 -0.20365345425E+04  0.20365345425E+04  0.00000000000E+00 0. -1.
         24    2    1    2    0    0 -0.12417893490E+04 -0.58854656383E+03 -0.63076095736E+03  0.15140777336E+04  0.78384648443E+02 0.  0.
        254    2    1    2    0    0  0.12417893490E+04  0.58854656383E+03 -0.26395102567E+03  0.16642793683E+04  0.90095939241E+03 0.  0.
         23    2    4    4    0    0  0.44557212156E+03  0.42473622174E+03  0.27909219705E+03  0.68249325701E+03  0.94705954639E+02 0.  0.
         23    2    4    4    0    0  0.79621722742E+03  0.16381034210E+03 -0.54304322272E+03  0.98178611129E+03  0.90621880157E+02 0.  0.
          2    1    3    3  502    0 -0.59553991227E+03 -0.24988403366E+03 -0.32477045937E+03  0.72290087057E+03  0.00000000000E+00 0. -1.
         -1    1    3    3    0  502 -0.64624943670E+03 -0.33866253018E+03 -0.30599049798E+03  0.79117686306E+03  0.00000000000E+00 0.  1.
         13    1    5    5    0    0  0.34600603303E+03  0.36235664828E+03  0.19332419242E+03  0.53702584558E+03  0.00000000000E+00 0.  1.
        -13    1    5    5    0    0  0.99566088528E+02  0.62379573455E+02  0.85768004635E+02  0.14546741143E+03  0.00000000000E+00 0. -1.
          3    1    6    6  503    0  0.40561784990E+03  0.11168894934E+03 -0.32337733049E+03  0.53063467606E+03  0.00000000000E+00 0. -1.
         -3    1    6    6    0  503  0.39059937751E+03  0.52121392755E+02 -0.21966589223E+03  0.45115143523E+03  0.00000000000E+00 0.  1.
<mgrwt>
<rscale>  0 0.30498269E+04</rscale>
<asrwt>0</asrwt>
<pdfrwt beam="1">  1        2 0.31331300E+00 0.30498269E+04</pdfrwt>
<pdfrwt beam="2">  1       -1 0.17566501E+00 0.30498269E+04</pdfrwt>
<totfact> 0.13828240E+00</totfact>
</mgrwt>
</event>
<event>
12    7  0.1701638E-007  0.2017395E+04  0.7818608E-02  0.8598531E-01
          2   -1    0    0  501    0  0.00000000000E+00  0.00000000000E+00  0.23725323400E+04  0.23725323400E+04  0.00000000000E+00 0. -1.
         -1   -1    0    0    0  501 -0.00000000000E+00 -0.00000000000E+00 -0.42885435280E+03  0.42885435280E+03  0.00000000000E+00 0.  1.
         24    2    1    2    0    0 -0.40987360935E+03 -0.51408082827E+03  0.14159728432E+04  0.15631660701E+04  0.78953127681E+02 0.  0.
        254    2    1    2    0    0  0.40987360935E+03  0.51408082827E+03  0.52770514398E+03  0.12382206227E+04  0.90688594534E+03 0.  0.
         23    2    4    4    0    0  0.92707330569E+01 -0.67912799144E+02 -0.19313228439E+03  0.22474804224E+03  0.92268675272E+02 0.  0.
         23    2    4    4    0    0  0.40060287630E+03  0.58199362741E+03  0.72083742838E+03  0.10134725805E+04  0.91218563661E+02 0.  0.
          2    1    3    3  502    0 -0.37370699613E+03 -0.49414007412E+03  0.13493332556E+04  0.14847665023E+04  0.00000000000E+00 0. -1.
         -1    1    3    3    0  502 -0.36166613223E+02 -0.19940754147E+02  0.66639587605E+02  0.78399567754E+02  0.00000000000E+00 0.  1.
         13    1    5    5    0    0  0.26664664176E+02 -0.29764503947E+02 -0.16544111683E+02  0.43250868687E+02  0.00000000000E+00 0. -1.
        -13    1    5    5    0    0 -0.17393931119E+02 -0.38148295197E+02 -0.17658817271E+03  0.18149717355E+03  0.00000000000E+00 0.  1.
          1    1    6    6  503    0  0.20527907027E+03  0.24929542955E+03  0.37995730752E+03  0.49865345023E+03  0.00000000000E+00 0. -1.
         -1    1    6    6    0  503  0.19532380603E+03  0.33269819786E+03  0.34088012085E+03  0.51481913024E+03  0.00000000000E+00 0.  1.
<mgrwt>
<rscale>  0 0.20173952E+04</rscale>
<asrwt>0</asrwt>
<pdfrwt beam="1">  1        2 0.36500497E+00 0.20173952E+04</pdfrwt>
<pdfrwt beam="2">  1       -1 0.65977594E-01 0.20173952E+04</pdfrwt>
<totfact> 0.10138390E+01</totfact>
</mgrwt>
</event>
<event>
12    7  0.1701638E-007  0.1717115E+04  0.7818608E-02  0.8751663E-01
          2   -1    0    0  501    0  0.00000000000E+00  0.00000000000E+00  0.17598275015E+04  0.17598275015E+04  0.00000000000E+00 0. -1.
         -1   -1    0    0    0  501 -0.00000000000E+00 -0.00000000000E+00 -0.41885974385E+03  0.41885974385E+03  0.00000000000E+00 0.  1.
         24    2    1    2    0    0 -0.16453514453E+03 -0.51525827588E+03  0.87732829826E+03  0.10337878378E+04  0.80308443026E+02 0.  0.
        254    2    1    2    0    0  0.16453514453E+03  0.51525827588E+03  0.46363945938E+03  0.11448994075E+04  0.89625342421E+03 0.  0.
         23    2    4    4    0    0  0.41010800135E+03  0.60365914938E+03  0.46108155564E+03  0.86821544683E+03  0.92784264594E+02 0.  0.
         23    2    4    4    0    0 -0.24557285682E+03 -0.88400873503E+02  0.25579037327E+01  0.27668396069E+03  0.91797215599E+02 0.  0.
          2    1    3    3  502    0 -0.25261794181E+02 -0.42946727217E+02  0.12577735668E+03  0.13528681783E+03  0.00000000000E+00 0. -1.
         -1    1    3    3    0  502 -0.13927335035E+03 -0.47231154866E+03  0.75155094158E+03  0.89850101998E+03  0.00000000000E+00 0.  1.
         13    1    5    5    0    0  0.16795224137E+03  0.21866585353E+03  0.12519778480E+03  0.30281544908E+03  0.00000000000E+00 0.  1.
        -13    1    5    5    0    0  0.24215575998E+03  0.38499329585E+03  0.33588377084E+03  0.56539999775E+03  0.00000000000E+00 0. -1.
          4    1    6    6  503    0 -0.15662888767E+03 -0.64312576627E+02 -0.41820031011E+02  0.17440651066E+03  0.00000000000E+00 0. -1.
         -4    1    6    6    0  503 -0.88943969145E+02 -0.24088296876E+02  0.44377934744E+02  0.10227745004E+03  0.00000000000E+00 0.  1.
<mgrwt>
<rscale>  0 0.17171149E+04</rscale>
<asrwt>0</asrwt>
<pdfrwt beam="1">  1        2 0.27074269E+00 0.17171149E+04</pdfrwt>
<pdfrwt beam="2">  1       -1 0.64439962E-01 0.17171149E+04</pdfrwt>
<totfact> 0.24009905E+01</totfact>
</mgrwt>
</event>
<event>
12    7  0.1701638E-007  0.1544463E+04  0.7818608E-02  0.8855412E-01
         -1   -1    0    0    0  501 -0.00000000000E+00  0.00000000000E+00  0.12017736505E+04  0.12017736505E+04  0.00000000000E+00 0.  1.
          2   -1    0    0  501    0  0.00000000000E+00 -0.00000000000E+00 -0.49621800416E+03  0.49621800416E+03  0.00000000000E+00 0. -1.
         24    2    1    2    0    0  0.64608310410E+01  0.27747920699E+03 -0.22907664871E+03  0.36835309423E+03  0.78558503004E+02 0.  0.
        254    2    1    2    0    0 -0.64608310410E+01 -0.27747920699E+03  0.93463229506E+03  0.13296385604E+04  0.90408225388E+03 0.  0.
         23    2    4    4    0    0 -0.30608843576E+03  0.11618044852E+03  0.99643429214E+02  0.35495182444E+03  0.94201685554E+02 0.  0.
         23    2    4    4    0    0  0.29962760472E+03 -0.39365965551E+03  0.83498886585E+03  0.97468673600E+03  0.89795330372E+02 0.  0.
          2    1    3    3  502    0  0.50097885389E+01  0.13825696810E+03 -0.16430751235E+03  0.21479535801E+03  0.00000000000E+00 0. -1.
         -1    1    3    3    0  502  0.14510425021E+01  0.13922223890E+03 -0.64769136355E+02  0.15355773621E+03  0.00000000000E+00 0.  1.
         13    1    5    5    0    0 -0.11536477780E+03  0.13223083686E+02  0.71565082174E+02  0.13640177010E+03  0.00000000000E+00 0. -1.
        -13    1    5    5    0    0 -0.19072365796E+03  0.10295736484E+03  0.28078347040E+02  0.21855005434E+03  0.00000000000E+00 0.  1.
          2    1    6    6  503    0  0.18540509609E+03 -0.18083572929E+03  0.38569169603E+03  0.46458012768E+03  0.00000000000E+00 0. -1.
         -2    1    6    6    0  503  0.11422250863E+03 -0.21282392622E+03  0.44929716982E+03  0.51010660833E+03  0.00000000000E+00 0.  1.
<mgrwt>
<rscale>  0 0.15444633E+04</rscale>
<asrwt>0</asrwt>
<pdfrwt beam="1">  1        2 0.76341232E-01 0.15444633E+04</pdfrwt>
<pdfrwt beam="2">  1       -1 0.18488825E+00 0.15444633E+04</pdfrwt>
<totfact> 0.13131409E+01</totfact>
</mgrwt>
</event>
<event>
12    7  0.1701638E-007  0.1360832E+04  0.7818608E-02  0.8982668E-01
         -3   -1    0    0    0  501 -0.00000000000E+00  0.00000000000E+00  0.63776389221E+03  0.63776389221E+03  0.00000000000E+00 0.  1.
          2   -1    0    0  501    0  0.00000000000E+00 -0.00000000000E+00 -0.72592101043E+03  0.72592101043E+03  0.00000000000E+00 0. -1.
         24    2    1    2    0    0 -0.25703171531E+03 -0.44358171126E+02 -0.29397028961E+03  0.40204873759E+03  0.84803928014E+02 0.  0.
        254    2    1    2    0    0  0.25703171531E+03  0.44358171126E+02  0.20581317139E+03  0.96163616505E+03  0.90241459562E+03 0.  0.
         23    2    4    4    0    0 -0.30442268966E+03  0.13587703128E+03 -0.11257324351E+02  0.34595913691E+03  0.91789190283E+02 0.  0.
         23    2    4    4    0    0  0.56145440497E+03 -0.91518860152E+02  0.21707049574E+03  0.61567702814E+03  0.91278980281E+02 0.  0.
          4    1    3    3  502    0 -0.24239827365E+03 -0.41869556979E+02 -0.23132988745E+03  0.33767365858E+03  0.00000000000E+00 0. -1.
         -3    1    3    3    0  502 -0.14633441656E+02 -0.24886141471E+01 -0.62640402160E+02  0.64375079012E+02  0.00000000000E+00 0.  1.
         13    1    5    5    0    0 -0.71129123782E+02 -0.80568968881E+01  0.48796763054E+00  0.71585640668E+02  0.00000000000E+00 0.  1.
        -13    1    5    5    0    0 -0.23329356587E+03  0.14393392817E+03 -0.11745291981E+02  0.27437349624E+03  0.00000000000E+00 0. -1.
          1    1    6    6  503    0  0.45952091589E+03 -0.10755315216E+03  0.19190965233E+03  0.50946684616E+03  0.00000000000E+00 0. -1.
         -1    1    6    6    0  503  0.10193348907E+03  0.16034292006E+02  0.25160843411E+02  0.10621018198E+03  0.00000000000E+00 0.  1.
<mgrwt>
<rscale>  0 0.13608324E+04</rscale>
<asrwt>0</asrwt>
<pdfrwt beam="1">  1        2 0.11168015E+00 0.13608324E+04</pdfrwt>
<pdfrwt beam="2">  1       -3 0.98117523E-01 0.13608324E+04</pdfrwt>
<totfact> 0.22043340E+01</totfact>
</mgrwt>
</event>
<event>
12    7  0.1701638E-007  0.1113048E+04  0.7818608E-02  0.9192567E-01
          2   -1    0    0  501    0  0.00000000000E+00  0.00000000000E+00  0.18323477312E+04  0.18323477312E+04  0.00000000000E+00 0. -1.
         -1   -1    0    0    0  501 -0.00000000000E+00 -0.00000000000E+00 -0.16902843994E+03  0.16902843994E+03  0.00000000000E+00 0.  1.
         24    2    1    2    0    0  0.55895304113E+02 -0.15944498645E+03  0.36759380310E+03  0.41248272940E+03  0.80435124462E+02 0.  0.
        254    2    1    2    0    0 -0.55895304113E+02  0.15944498645E+03  0.12957254882E+04  0.15888934418E+04  0.90395289691E+03 0.  0.
         23    2    4    4    0    0 -0.28619707247E+01 -0.36278439620E+03  0.66770433059E+03  0.76545382271E+03  0.92031367583E+02 0.  0.
         23    2    4    4    0    0 -0.53033333388E+02  0.52222938264E+03  0.62802115759E+03  0.82343961905E+03  0.90034267326E+02 0.  0.
          2    1    3    3  502    0  0.16572214008E+02  0.38467384772E+01  0.55690766223E+02  0.58231410051E+02  0.00000000000E+00 0. -1.
         -1    1    3    3    0  502  0.39323090104E+02 -0.16329172492E+03  0.31190303688E+03  0.35425131935E+03  0.00000000000E+00 0.  1.
         13    1    5    5    0    0 -0.47281650967E+02 -0.19884441069E+03  0.35861840443E+03  0.41277332057E+03  0.00000000000E+00 0. -1.
        -13    1    5    5    0    0  0.44419680242E+02 -0.16393998551E+03  0.30908592615E+03  0.35268050214E+03  0.00000000000E+00 0.  1.
          1    1    6    6  503    0 -0.68614615734E+00  0.29605773151E+03  0.29911695082E+03  0.42085817261E+03  0.00000000000E+00 0. -1.
         -1    1    6    6    0  503 -0.52347187231E+02  0.22617165113E+03  0.32890420677E+03  0.40258144644E+03  0.00000000000E+00 0.  1.
<mgrwt>
<rscale>  0 0.11130478E+04</rscale>
<asrwt>0</asrwt>
<pdfrwt beam="1">  1        2 0.28189964E+00 0.11130478E+04</pdfrwt>
<pdfrwt beam="2">  1       -1 0.26004377E-01 0.11130478E+04</pdfrwt>
<totfact> 0.12256305E+02</totfact>
</mgrwt>
</event>
<event>
12    7  0.1701638E-007  0.1040877E+04  0.7818608E-02  0.9264814E-01
         -1   -1    0    0    0  501 -0.00000000000E+00  0.00000000000E+00  0.12875457973E+03  0.12875457973E+03  0.00000000000E+00 0.  1.
          2   -1    0    0  501    0  0.00000000000E+00 -0.00000000000E+00 -0.21036621604E+04  0.21036621604E+04  0.00000000000E+00 0. -1.
         24    2    1    2    0    0 -0.27850555806E+02  0.24795996887E+02 -0.52480504965E+03  0.53226470964E+03  0.80590856015E+02 0.  0.
        254    2    1    2    0    0  0.27850555806E+02 -0.24795996887E+02 -0.14501025310E+04  0.17001520305E+04  0.88675198413E+03 0.  0.
         23    2    4    4    0    0  0.30772819725E+03  0.19642631072E+03 -0.11952109161E+04  0.12529939859E+04  0.90470193685E+02 0.  0.
         23    2    4    4    0    0 -0.27987764145E+03 -0.22122230761E+03 -0.25489161494E+03  0.44715804455E+03  0.87805340794E+02 0.  0.
          4    1    3    3  502    0 -0.59395247448E+01  0.17558780703E+02 -0.49091391882E+03  0.49126374222E+03  0.00000000000E+00 0. -1.
         -3    1    3    3    0  502 -0.21911031061E+02  0.72372161837E+01 -0.33891130827E+02  0.41000967415E+02  0.00000000000E+00 0.  1.
         13    1    5    5    0    0  0.28449079162E+03  0.17837518680E+03 -0.11571489000E+04  0.12048843490E+04  0.00000000000E+00 0. -1.
        -13    1    5    5    0    0  0.23237405634E+02  0.18051123917E+02 -0.38062016133E+02  0.48109636949E+02  0.00000000000E+00 0.  1.
          4    1    6    6  503    0 -0.22234674541E+03 -0.13650195161E+03 -0.21181120551E+03  0.33605779974E+03  0.00000000000E+00 0. -1.
         -4    1    6    6    0  503 -0.57530896040E+02 -0.84720356001E+02 -0.43080409431E+02  0.11110024481E+03  0.00000000000E+00 0.  1.
<mgrwt>
<rscale>  0 0.10408768E+04</rscale>
<asrwt>0</asrwt>
<pdfrwt beam="1">  1        2 0.32364030E+00 0.10408768E+04</pdfrwt>
<pdfrwt beam="2">  1       -1 0.19808399E-01 0.10408768E+04</pdfrwt>
<totfact> 0.13854786E+02</totfact>
</mgrwt>
</event>
<event>
12    7  0.1701638E-007  0.1274233E+04  0.7818608E-02  0.9050252E-01
          2   -1    0    0  501    0  0.00000000000E+00  0.00000000000E+00  0.47955137552E+03  0.47955137552E+03  0.00000000000E+00 0. -1.
         -1   -1    0    0    0  501 -0.00000000000E+00 -0.00000000000E+00 -0.84645292250E+03  0.84645292250E+03  0.00000000000E+00 0.  1.
         24    2    1    2    0    0 -0.33067329700E+02  0.31078506491E+03 -0.55556366381E+02  0.32680330840E+03  0.77672953282E+02 0.  0.
        254    2    1    2    0    0  0.33067329700E+02 -0.31078506491E+03 -0.31134518061E+03  0.99920098962E+03  0.89654112639E+03 0.  0.
         23    2    4    4    0    0  0.23128828665E+03  0.52166105237E+02 -0.48124292659E+03  0.54434217770E+03  0.92185020202E+02 0.  0.
         23    2    4    4    0    0 -0.19822095695E+03 -0.36295117015E+03  0.16989774598E+03  0.45485881192E+03  0.83703016711E+02 0.  0.
          4    1    3    3  502    0 -0.95085555774E+01  0.24801220763E+02  0.16072645476E+02  0.31045822796E+02  0.00000000000E+00 0. -1.
         -3    1    3    3    0  502 -0.23558774123E+02  0.28598384415E+03 -0.71629011857E+02  0.29575748561E+03  0.00000000000E+00 0.  1.
         13    1    5    5    0    0  0.23327185514E+03  0.39913972445E+02 -0.47443442877E+03  0.53018573236E+03  0.00000000000E+00 0.  1.
        -13    1    5    5    0    0 -0.19835684944E+01  0.12252132791E+02 -0.68084978188E+01  0.14156445333E+02  0.00000000000E+00 0. -1.
          3    1    6    6  503    0 -0.11536062480E+03 -0.21540180117E+03  0.55430202608E+02  0.25055641493E+03  0.00000000000E+00 0. -1.
         -3    1    6    6    0  503 -0.82860332149E+02 -0.14754936898E+03  0.11446754338E+03  0.20430239699E+03  0.00000000000E+00 0.  1.
<mgrwt>
<rscale>  0 0.12742334E+04</rscale>
<asrwt>0</asrwt>
<pdfrwt beam="1">  1        2 0.73777134E-01 0.12742334E+04</pdfrwt>
<pdfrwt beam="2">  1       -1 0.13022353E+00 0.12742334E+04</pdfrwt>
<totfact> 0.36664109E+01</totfact>
</mgrwt>
</event>
<event>
12    7  0.1701638E-007  0.1333550E+04  0.7818608E-02  0.9003375E-01
          2   -1    0    0  501    0  0.00000000000E+00  0.00000000000E+00  0.21231194293E+04  0.21231194293E+04  0.00000000000E+00 0. -1.
         -1   -1    0    0    0  501 -0.00000000000E+00 -0.00000000000E+00 -0.20940373229E+03  0.20940373229E+03  0.00000000000E+00 0.  1.
         24    2    1    2    0    0 -0.93312534689E+02 -0.33868022544E+03  0.53333897788E+03  0.64355486614E+03  0.79378058481E+02 0.  0.
        254    2    1    2    0    0  0.93312534689E+02  0.33868022544E+03  0.13803767191E+04  0.16889682954E+04  0.90761362489E+03 0.  0.
         23    2    4    4    0    0  0.40364530041E+03  0.63439280865E+02  0.26419224063E+03  0.49464159063E+03  0.88987034269E+02 0.  0.
         23    2    4    4    0    0 -0.31033276572E+03  0.27524094458E+03  0.11161844785E+04  0.11943267048E+04  0.92111262961E+02 0.  0.
          4    1    3    3  502    0 -0.70582332090E+02 -0.11388416878E+03  0.20975694584E+03  0.24889645604E+03  0.00000000000E+00 0. -1.
         -3    1    3    3    0  502 -0.22730202599E+02 -0.22479605666E+03  0.32358203204E+03  0.39465841010E+03  0.00000000000E+00 0.  1.
         13    1    5    5    0    0  0.45203836985E+02 -0.20925765519E+02  0.27552155908E+02  0.56924474841E+02  0.00000000000E+00 0.  1.
        -13    1    5    5    0    0  0.35844146343E+03  0.84365046384E+02  0.23664008472E+03  0.43771711579E+03  0.00000000000E+00 0. -1.
          3    1    6    6  503    0 -0.30193978109E+03  0.23473674343E+03  0.97939532276E+03  0.10514200723E+04  0.00000000000E+00 0. -1.
         -3    1    6    6    0  503 -0.83929846321E+01  0.40504201147E+02  0.13678915572E+03  0.14290663254E+03  0.00000000000E+00 0.  1.
<mgrwt>
<rscale>  0 0.13335503E+04</rscale>
<asrwt>0</asrwt>
<pdfrwt beam="1">  1        2 0.32663374E+00 0.13335503E+04</pdfrwt>
<pdfrwt beam="2">  1       -1 0.32215960E-01 0.13335503E+04</pdfrwt>
<totfact> 0.57239908E+01</totfact>
</mgrwt>
</event>
<event>
12    7  0.1701638E-007  0.2158102E+04  0.7818608E-02  0.8536072E-01
         -1   -1    0    0    0  501 -0.00000000000E+00  0.00000000000E+00  0.13837833472E+04  0.13837833472E+04  0.00000000000E+00 0.  1.
          2   -1    0    0  501    0  0.00000000000E+00 -0.00000000000E+00 -0.84142587123E+03  0.84142587123E+03  0.00000000000E+00 0. -1.
         24    2    1    2    0    0 -0.60682336603E+03  0.52640575583E+03  0.61487579105E+03  0.10148979701E+04  0.81289814842E+02 0.  0.
        254    2    1    2    0    0  0.60682336603E+03 -0.52640575583E+03 -0.72518315100E+02  0.12103112483E+04  0.90236178687E+03 0.  0.
         23    2    4    4    0    0  0.10851137927E+03 -0.35093010909E+03  0.35911430655E+03  0.52222193748E+03  0.93946824955E+02 0.  0.
         23    2    4    4    0    0  0.49831198675E+03 -0.17547564674E+03 -0.43163262165E+03  0.68808931081E+03  0.89742079569E+02 0.  0.
          2    1    3    3  502    0 -0.11493485206E+03  0.11687282111E+03  0.89035757945E+02  0.18653858241E+03  0.00000000000E+00 0. -1.
         -3    1    3    3    0  502 -0.49188851396E+03  0.40953293471E+03  0.52584003310E+03  0.82835938771E+03  0.00000000000E+00 0.  1.
         13    1    5    5    0    0  0.15637128438E+02 -0.96998748604E+02  0.15470683186E+03  0.18326887581E+03  0.00000000000E+00 0.  1.
        -13    1    5    5    0    0  0.92874250835E+02 -0.25393136049E+03  0.20440747469E+03  0.33895306167E+03  0.00000000000E+00 0. -1.
          4    1    6    6  503    0  0.25037349209E+03 -0.95334437150E+02 -0.27568540905E+03  0.38441902295E+03  0.00000000000E+00 0. -1.
         -4    1    6    6    0  503  0.24793849467E+03 -0.80141209585E+02 -0.15594721260E+03  0.30367028786E+03  0.00000000000E+00 0.  1.
<mgrwt>
<rscale>  0 0.21581020E+04</rscale>
<asrwt>0</asrwt>
<pdfrwt beam="1">  1        2 0.12945013E+00 0.21581020E+04</pdfrwt>
<pdfrwt beam="2">  1       -1 0.21288975E+00 0.21581020E+04</pdfrwt>
<totfact> 0.41378127E+00</totfact>
</mgrwt>
</event>
<event>
12    7  0.1701638E-007  0.2160978E+04  0.7818608E-02  0.8534848E-01
          2   -1    0    0  501    0  0.00000000000E+00  0.00000000000E+00  0.86369020892E+03  0.86369020892E+03  0.00000000000E+00 0. -1.
         -1   -1    0    0    0  501 -0.00000000000E+00 -0.00000000000E+00 -0.13517079007E+04  0.13517079007E+04  0.00000000000E+00 0.  1.
         24    2    1    2    0    0 -0.40621966701E+03 -0.54922916272E+03  0.36795862771E+03  0.78015131438E+03  0.81089028732E+02 0.  0.
        254    2    1    2    0    0  0.40621966701E+03  0.54922916272E+03 -0.85597631950E+03  0.14352467952E+04  0.92766956006E+03 0.  0.
         23    2    4    4    0    0  0.68888402271E+03  0.33817003880E+03 -0.46827622368E+03  0.90370021827E+03  0.92039616229E+02 0.  0.
         23    2    4    4    0    0 -0.28266435569E+03  0.21105912392E+03 -0.38770009582E+03  0.53154657698E+03  0.88234389139E+02 0.  0.
          4    1    3    3  502    0 -0.37728916290E+03 -0.53748969973E+03  0.35020698140E+03  0.74423599723E+03  0.00000000000E+00 0. -1.
         -3    1    3    3    0  502 -0.28930504113E+02 -0.11739462996E+02  0.17751646301E+02  0.35915317151E+02  0.00000000000E+00 0.  1.
         13    1    5    5    0    0 -0.20413418584E+01  0.18675290013E+00 -0.59282964401E+01  0.62726909625E+01  0.00000000000E+00 0.  1.
        -13    1    5    5    0    0  0.69092536457E+03  0.33798328590E+03 -0.46234792724E+03  0.89742752731E+03  0.00000000000E+00 0. -1.
          4    1    6    6  503    0 -0.15037398985E+03  0.15047226153E+03 -0.18430879638E+03  0.28146753052E+03  0.00000000000E+00 0.  1.
         -4    1    6    6    0  503 -0.13229036584E+03  0.60586862390E+02 -0.20339129943E+03  0.25007904645E+03  0.00000000000E+00 0. -1.
<mgrwt>
<rscale>  0 0.21609784E+04</rscale>
<asrwt>0</asrwt>
<pdfrwt beam="1">  1        2 0.13287542E+00 0.21609784E+04</pdfrwt>
<pdfrwt beam="2">  1       -1 0.20795506E+00 0.21609784E+04</pdfrwt>
<totfact> 0.43114331E+00</totfact>
</mgrwt>
</event>
<event>
12    7  0.1701638E-007  0.1730025E+04  0.7818608E-02  0.8744423E-01
         -1   -1    0    0    0  501 -0.00000000000E+00  0.00000000000E+00  0.58970418415E+03  0.58970418415E+03  0.00000000000E+00 0.  1.
          2   -1    0    0  501    0  0.00000000000E+00 -0.00000000000E+00 -0.12688502121E+04  0.12688502121E+04  0.00000000000E+00 0. -1.
         24    2    1    2    0    0  0.14963398634E+03  0.55363467657E+03  0.29197237508E+02  0.57954172563E+03  0.78194936559E+02 0.  0.
        254    2    1    2    0    0 -0.14963398634E+03 -0.55363467657E+03 -0.70834326545E+03  0.12790126706E+04  0.89734137591E+03 0.  0.
         23    2    4    4    0    0 -0.28038448354E+03 -0.71877170509E+03 -0.70470936430E+03  0.10493500028E+04  0.96290797608E+02 0.  0.
         23    2    4    4    0    0  0.13075049719E+03  0.16513702852E+03 -0.36339011521E+01  0.22966266777E+03  0.91464774777E+02 0.  0.
          2    1    3    3  502    0  0.81065760005E+02  0.16729097277E+03  0.20943402748E+02  0.18707365698E+03  0.00000000000E+00 0. -1.
         -1    1    3    3    0  502  0.68568226340E+02  0.38634370379E+03  0.82538347608E+01  0.39246806865E+03  0.00000000000E+00 0.  1.
         13    1    5    5    0    0 -0.43884897643E+01 -0.83220010234E+02 -0.95257257653E+02  0.12656529572E+03  0.00000000000E+00 0. -1.
        -13    1    5    5    0    0 -0.27599599377E+03 -0.63555169485E+03 -0.60945210665E+03  0.92278470713E+03  0.00000000000E+00 0.  1.
          4    1    6    6  503    0  0.31731702388E+02  0.12837425339E+02 -0.30722499116E+02  0.45995351697E+02  0.00000000000E+00 0. -1.
         -4    1    6    6    0  503  0.99018794803E+02  0.15229960318E+03  0.27088597964E+02  0.18366731607E+03  0.00000000000E+00 0.  1.
<mgrwt>
<rscale>  0 0.17300246E+04</rscale>
<asrwt>0</asrwt>
<pdfrwt beam="1">  1        2 0.19520772E+00 0.17300246E+04</pdfrwt>
<pdfrwt beam="2">  1       -1 0.90723722E-01 0.17300246E+04</pdfrwt>
<totfact> 0.22145734E+01</totfact>
</mgrwt>
</event>
<event>
12    7  0.1701638E-007  0.1942063E+04  0.7818608E-02  0.8634198E-01
         -1   -1    0    0    0  501 -0.00000000000E+00  0.00000000000E+00  0.61320783171E+03  0.61320783171E+03  0.00000000000E+00 0.  1.
          2   -1    0    0  501    0  0.00000000000E+00 -0.00000000000E+00 -0.15376544413E+04  0.15376544413E+04  0.00000000000E+00 0. -1.
         24    2    1    2    0    0  0.62779304527E+03 -0.22970446846E+03  0.38205127317E+02  0.67389357846E+03  0.76057036610E+02 0.  0.
        254    2    1    2    0    0 -0.62779304527E+03  0.22970446846E+03 -0.96265173686E+03  0.14769686945E+04  0.89880471048E+03 0.  0.
         23    2    4    4    0    0 -0.44748235818E+03  0.45643605957E+03 -0.97911706491E+03  0.11728629210E+04  0.91448714595E+02 0.  0.
         23    2    4    4    0    0 -0.18031068709E+03 -0.22673159111E+03  0.16465328048E+02  0.30410577347E+03  0.91049745452E+02 0.  0.
          2    1    3    3  502    0  0.13658358278E+03 -0.43501031133E+02  0.39079732851E+02  0.14857536914E+03  0.00000000000E+00 0. -1.
         -1    1    3    3    0  502  0.49120946249E+03 -0.18620343733E+03 -0.87460553410E+00  0.52531820932E+03  0.00000000000E+00 0.  1.
         13    1    5    5    0    0 -0.40235586507E+02  0.32560340422E+02 -0.42033607728E+02  0.66677600201E+02  0.00000000000E+00 0. -1.
        -13    1    5    5    0    0 -0.40724677167E+03  0.42387571915E+03 -0.93708345718E+03  0.11061853208E+04  0.00000000000E+00 0.  1.
          3    1    6    6  503    0 -0.51498506028E+02 -0.50791063819E+02 -0.34555976018E+02  0.80161984541E+02  0.00000000000E+00 0. -1.
         -3    1    6    6    0  503 -0.12881218106E+03 -0.17594052729E+03  0.51021304066E+02  0.22394378893E+03  0.00000000000E+00 0.  1.
<mgrwt>
<rscale>  0 0.19420626E+04</rscale>
<asrwt>0</asrwt>
<pdfrwt beam="1">  1        2 0.23656222E+00 0.19420626E+04</pdfrwt>
<pdfrwt beam="2">  1       -1 0.94339668E-01 0.19420626E+04</pdfrwt>
<totfact> 0.13981962E+01</totfact>
</mgrwt>
</event>
<event>
12    7  0.1701638E-007  0.1819787E+04  0.7818608E-02  0.8695847E-01
         -1   -1    0    0    0  501 -0.00000000000E+00  0.00000000000E+00  0.32164335209E+03  0.32164335209E+03  0.00000000000E+00 0.  1.
          2   -1    0    0  501    0  0.00000000000E+00 -0.00000000000E+00 -0.25739876524E+04  0.25739876524E+04  0.00000000000E+00 0. -1.
         24    2    1    2    0    0 -0.10042082532E+02 -0.39313761910E+03  0.36679171885E+02  0.40294113868E+03  0.79738125238E+02 0.  0.
        254    2    1    2    0    0  0.10042082532E+02  0.39313761910E+03 -0.22890234722E+04  0.24926898658E+04  0.90510567328E+03 0.  0.
         23    2    4    4    0    0 -0.21245573879E+03  0.61288472228E+03 -0.14024727278E+04  0.15480779747E+04  0.94077307698E+02 0.  0.
         23    2    4    4    0    0  0.22249782133E+03 -0.21974710318E+03 -0.88655074440E+03  0.94461189109E+03  0.92332727291E+02 0.  0.
          2    1    3    3  502    0  0.25265595584E+02 -0.74803645495E+02 -0.87925247082E+01  0.79443339496E+02  0.00000000000E+00 0. -1.
         -1    1    3    3    0  502 -0.35307678116E+02 -0.31833397361E+03  0.45471696594E+02  0.32349779919E+03  0.00000000000E+00 0.  1.
         13    1    5    5    0    0 -0.13077656196E+03  0.28394944405E+03 -0.75759531733E+03  0.81956113914E+03  0.00000000000E+00 0.  1.
        -13    1    5    5    0    0 -0.81679176829E+02  0.32893527823E+03 -0.64487741043E+03  0.72851683555E+03  0.00000000000E+00 0. -1.
          4    1    6    6  503    0  0.46190026962E+02 -0.78367376607E+02 -0.36573540457E+03  0.37687842929E+03  0.00000000000E+00 0. -1.
         -4    1    6    6    0  503  0.17630779436E+03 -0.14137972657E+03 -0.52081533983E+03  0.56773346180E+03  0.00000000000E+00 0.  1.
<mgrwt>
<rscale>  0 0.18197868E+04</rscale>
<asrwt>0</asrwt>
<pdfrwt beam="1">  1        2 0.39599811E+00 0.18197868E+04</pdfrwt>
<pdfrwt beam="2">  1       -1 0.49483591E-01 0.18197868E+04</pdfrwt>
<totfact> 0.13868236E+01</totfact>
</mgrwt>
</event>
