<event>
12    7  0.1922021E-007  0.3767929E+04  0.7818608E-02  0.8053072E-01
         -1   -1    0    0    0  501 -0.00000000000E+00  0.00000000000E+00  0.16463116189E+04  0.16463116189E+04  0.00000000000E+00 0.  1.
          2   -1    0    0  501    0  0.00000000000E+00 -0.00000000000E+00 -0.21559236184E+04  0.21559236184E+04  0.00000000000E+00 0. -1.
         24    2    1    2    0    0  0.30884747213E+03 -0.11286504746E+04 -0.15202902637E+04  0.19200476302E+04  0.77857313605E+02 0.  0.
        254    2    1    2    0    0 -0.30884747213E+03  0.11286504746E+04  0.10106782643E+04  0.18821876072E+04  0.10732758172E+04 0.  0.
         23    2    4    4    0    0 -0.64277885885E+03  0.37648486246E+03  0.58028849427E+03  0.94873609187E+03  0.91977836377E+02 0.  0.
         23    2    4    4    0    0  0.33393138672E+03  0.75216561210E+03  0.43038977002E+03  0.93345151529E+03  0.93984563596E+02 0.  0.
          2    1    3    3  502    0  0.29662331462E+03 -0.10769209080E+04 -0.14748663773E+04  0.18501283371E+04  0.00000000000E+00 0. -1.
         -1    1    3    3    0  502  0.12224157513E+02 -0.51729566513E+02 -0.45423886467E+02  0.69919293048E+02  0.00000000000E+00 0.  1.
         13    1    5    5    0    0 -0.63824810866E+03  0.37843428118E+03  0.58249655630E+03  0.94333206851E+03  0.00000000000E+00 0.  1.
        -13    1    5    5    0    0 -0.45307501878E+01 -0.19494187167E+01 -0.22080620221E+01  0.54040233614E+01  0.00000000000E+00 0. -1.
          4    1    6    6  503    0  0.32888833373E+03  0.74049733118E+03  0.40675780499E+03  0.90661775047E+03  0.00000000000E+00 0.  1.
         -4    1    6    6    0  503  0.50430529939E+01  0.11668280914E+02  0.23631965028E+02  0.26833764814E+02  0.00000000000E+00 0. -1.
<mgrwt>
<rscale>  0 0.37679289E+04</rscale>
<asrwt>0</asrwt>
<pdfrwt beam="1">  1        2 0.33168056E+00 0.37679289E+04</pdfrwt>
<pdfrwt beam="2">  1       -1 0.25327871E+00 0.37679289E+04</pdfrwt>
<totfact> 0.33170958E-01</totfact>
</mgrwt>
</event>
<event>
12    7  0.1546317E-007  0.1529214E+04  0.7818608E-02  0.8865255E-01
          2   -1    0    0  501    0  0.00000000000E+00  0.00000000000E+00  0.10147968873E+04  0.10147968873E+04  0.00000000000E+00 0. -1.
         -1   -1    0    0    0  501 -0.00000000000E+00 -0.00000000000E+00 -0.57609915017E+03  0.57609915017E+03  0.00000000000E+00 0.  1.
         24    2    1    2    0    0 -0.18433751395E+03 -0.40084398644E+03 -0.12868614301E+03  0.46610427132E+03  0.77697154601E+02 0.  0.
        254    2    1    2    0    0  0.18433751395E+03  0.40084398644E+03  0.56738388012E+03  0.11247917661E+04  0.86520276770E+03 0.  0.
         23    2    4    4    0    0 -0.11035119317E+03 -0.18690004062E+03 -0.23895140624E+02  0.23593935996E+03  0.89372215004E+02 0.  0.
         23    2    4    4    0    0  0.29468870712E+03  0.58774402706E+03  0.59127902075E+03  0.88885240617E+03  0.90350673169E+02 0.  0.
          2    1    3    3  502    0 -0.34833492796E+02 -0.66317098144E+02  0.73128058785E+01  0.75264911190E+02  0.00000000000E+00 0. -1.
         -1    1    3    3    0  502 -0.14950402115E+03 -0.33452688829E+03 -0.13599894889E+03  0.39083936013E+03  0.00000000000E+00 0.  1.
         13    1    5    5    0    0 -0.10686210495E+03 -0.19695796810E+03 -0.22851305941E+02  0.22524238690E+03  0.00000000000E+00 0. -1.
        -13    1    5    5    0    0 -0.34890882244E+01  0.10057927481E+02 -0.10438346829E+01  0.10696973062E+02  0.00000000000E+00 0.  1.
          2    1    6    6  503    0  0.18868243357E+03  0.31733149842E+03  0.37903152084E+03  0.52911741081E+03  0.00000000000E+00 0. -1.
         -2    1    6    6    0  503  0.10600627355E+03  0.27041252864E+03  0.21224749990E+03  0.35973499537E+03  0.00000000000E+00 0.  1.
<mgrwt>
<rscale>  0 0.15292137E+04</rscale>
<asrwt>0</asrwt>
<pdfrwt beam="1">  1        2 0.15612260E+00 0.15292137E+04</pdfrwt>
<pdfrwt beam="2">  1       -1 0.88630638E-01 0.15292137E+04</pdfrwt>
<totfact> 0.33875653E+01</totfact>
</mgrwt>
</event>
<event>
12    7  0.1546317E-007  0.1100652E+04  0.7818608E-02  0.9204557E-01
         -1   -1    0    0    0  501 -0.00000000000E+00  0.00000000000E+00  0.14258191377E+03  0.14258191377E+03  0.00000000000E+00 0.  1.
          2   -1    0    0  501    0  0.00000000000E+00 -0.00000000000E+00 -0.21241027286E+04  0.21241027286E+04  0.00000000000E+00 0. -1.
         24    2    1    2    0    0 -0.51166315280E+01 -0.16549841302E+03 -0.40909483373E+03  0.44858435218E+03  0.80333264640E+02 0.  0.
        254    2    1    2    0    0  0.51166315280E+01  0.16549841302E+03 -0.15724259811E+04  0.18181002902E+04  0.89752397991E+03 0.  0.
         23    2    4    4    0    0 -0.52930394041E+02  0.52250387356E+03 -0.10260872849E+04  0.11562870750E+04  0.91283947155E+02 0.  0.
         23    2    4    4    0    0  0.58047025569E+02 -0.35700546054E+03 -0.54633869616E+03  0.66181321519E+03  0.93211613240E+02 0.  0.
          4    1    3    3  502    0  0.15567768347E+02 -0.13879597772E+03 -0.37680455206E+03  0.40185613009E+03  0.00000000000E+00 0. -1.
         -1    1    3    3    0  502 -0.20684399875E+02 -0.26702435296E+02 -0.32290281674E+02  0.46728222088E+02  0.00000000000E+00 0.  1.
         13    1    5    5    0    0  0.10422377581E+02  0.29696336690E+03 -0.61832992621E+03  0.68602315185E+03  0.00000000000E+00 0. -1.
        -13    1    5    5    0    0 -0.63352771622E+02  0.22554050666E+03 -0.40775735872E+03  0.47026392314E+03  0.00000000000E+00 0.  1.
          2    1    6    6  503    0 -0.16181920503E+02 -0.16387984167E+03 -0.20902612451E+03  0.26610219425E+03  0.00000000000E+00 0. -1.
         -2    1    6    6    0  503  0.74228946073E+02 -0.19312561887E+03 -0.33731257165E+03  0.39571102093E+03  0.00000000000E+00 0.  1.
<mgrwt>
<rscale>  0 0.11006519E+04</rscale>
<asrwt>0</asrwt>
<pdfrwt beam="1">  1        2 0.32678501E+00 0.11006519E+04</pdfrwt>
<pdfrwt beam="2">  1       -1 0.21935681E-01 0.11006519E+04</pdfrwt>
<totfact> 0.11317242E+02</totfact>
</mgrwt>
</event>
<event>
12    7  0.2194468E-007  0.1536478E+04  0.7818608E-02  0.8860551E-01
         -1   -1    0    0    0  501 -0.00000000000E+00  0.00000000000E+00  0.60810143162E+03  0.60810143162E+03  0.00000000000E+00 0.  1.
          2   -1    0    0  501    0  0.00000000000E+00 -0.00000000000E+00 -0.97054737922E+03  0.97054737922E+03  0.00000000000E+00 0. -1.
         24    2    1    2    0    0 -0.27189883650E+03  0.93671860188E+02  0.30299800687E+03  0.42527930180E+03  0.79695029281E+02 0.  0.
        254    2    1    2    0    0  0.27189883650E+03 -0.93671860188E+02 -0.66544395448E+03  0.11533695090E+04  0.89707422945E+03 0.  0.
         23    2    4    4    0    0 -0.12904680787E+03 -0.96304824276E+01 -0.71305516466E+03  0.73043091849E+03  0.91300788690E+02 0.  0.
         23    2    4    4    0    0  0.40094564438E+03 -0.84041377760E+02  0.47611210186E+02  0.42293859055E+03  0.93754259185E+02 0.  0.
          4    1    3    3  502    0 -0.50554514302E+02  0.10185130148E+02  0.17393550245E+02  0.54424547610E+02  0.00000000000E+00 0. -1.
         -3    1    3    3    0  502 -0.22134432220E+03  0.83486730040E+02  0.28560445663E+03  0.37085475419E+03  0.00000000000E+00 0.  1.
         13    1    5    5    0    0 -0.13840382313E+03 -0.70775786876E+01 -0.70273011506E+03  0.71626484277E+03  0.00000000000E+00 0. -1.
        -13    1    5    5    0    0  0.93570152516E+01 -0.25529037400E+01 -0.10325049602E+02  0.14166075717E+02  0.00000000000E+00 0.  1.
          2    1    6    6  503    0  0.32149936648E+03 -0.64112763650E+02  0.75503516851E+02  0.33641205413E+03  0.00000000000E+00 0. -1.
         -2    1    6    6    0  503  0.79446277900E+02 -0.19928614110E+02 -0.27892306665E+02  0.86526536413E+02  0.00000000000E+00 0.  1.
<mgrwt>
<rscale>  0 0.15364781E+04</rscale>
<asrwt>0</asrwt>
<pdfrwt beam="1">  1        2 0.14931498E+00 0.15364781E+04</pdfrwt>
<pdfrwt beam="2">  1       -1 0.93554068E-01 0.15364781E+04</pdfrwt>
<totfact> 0.32078292E+01</totfact>
</mgrwt>
</event>
<event>
12    7  0.1546317E-007  0.2879729E+04  0.7818608E-02  0.8278934E-01
          2   -1    0    0  501    0  0.00000000000E+00  0.00000000000E+00  0.12631019946E+04  0.12631019946E+04  0.00000000000E+00 0. -1.
         -1   -1    0    0    0  501 -0.00000000000E+00 -0.00000000000E+00 -0.16413634213E+04  0.16413634213E+04  0.00000000000E+00 0.  1.
         24    2    1    2    0    0 -0.54736905468E+03  0.11406219147E+04 -0.46639500815E+03  0.13507321089E+04  0.79509068565E+02 0.  0.
        254    2    1    2    0    0  0.54736905468E+03 -0.11406219147E+04  0.88133581429E+02  0.15537333070E+04  0.89760148548E+03 0.  0.
         23    2    4    4    0    0  0.35924726689E+03 -0.46474142628E+03 -0.38004161843E+03  0.70551624890E+03  0.90985458515E+02 0.  0.
         23    2    4    4    0    0  0.18812178779E+03 -0.67588048845E+03  0.46817519986E+03  0.84821705810E+03  0.89888365103E+02 0.  0.
          4    1    3    3  502    0 -0.18661319336E+03  0.33679785537E+03 -0.11135274734E+03  0.40082005146E+03  0.00000000000E+00 0. -1.
         -3    1    3    3    0  502 -0.36075586132E+03  0.80382405936E+03 -0.35504226081E+03  0.94991205742E+03  0.00000000000E+00 0.  1.
         13    1    5    5    0    0  0.26849265550E+03 -0.40166881798E+03 -0.32276704432E+03  0.58103761521E+03  0.00000000000E+00 0. -1.
        -13    1    5    5    0    0  0.90754611384E+02 -0.63072608297E+02 -0.57274574114E+02  0.12447863369E+03  0.00000000000E+00 0.  1.
          2    1    6    6  503    0  0.18458852715E+03 -0.60412406646E+03  0.44510838749E+03  0.77276146944E+03  0.00000000000E+00 0. -1.
         -2    1    6    6    0  503  0.35332606359E+01 -0.71756421986E+02  0.23066812364E+02  0.75455588657E+02  0.00000000000E+00 0.  1.
<mgrwt>
<rscale>  0 0.28797287E+04</rscale>
<asrwt>0</asrwt>
<pdfrwt beam="1">  1        2 0.19432338E+00 0.28797287E+04</pdfrwt>
<pdfrwt beam="2">  1       -1 0.25251745E+00 0.28797287E+04</pdfrwt>
<totfact> 0.11487040E+00</totfact>
</mgrwt>
</event>
<event>
12    7  0.1546317E-007  0.1290346E+04  0.7818608E-02  0.9037256E-01
         -1   -1    0    0    0  501 -0.00000000000E+00  0.00000000000E+00  0.22722543494E+03  0.22722543494E+03  0.00000000000E+00 0.  1.
          2   -1    0    0  501    0  0.00000000000E+00 -0.00000000000E+00 -0.18318739333E+04  0.18318739333E+04  0.00000000000E+00 0. -1.
         24    2    1    2    0    0 -0.21279648959E+03  0.17728964222E+03 -0.12680832593E+03  0.31489458810E+03  0.79776480715E+02 0.  0.
        254    2    1    2    0    0  0.21279648959E+03 -0.17728964222E+03 -0.14778401724E+04  0.17442047801E+04  0.88403889992E+03 0.  0.
         23    2    4    4    0    0  0.40306135732E+03 -0.20812236103E+03 -0.14582010097E+04  0.15297760464E+04  0.89951056404E+02 0.  0.
         23    2    4    4    0    0 -0.19026486773E+03  0.30832718817E+02 -0.19639162720E+02  0.21442873372E+03  0.91883669325E+02 0.  0.
          4    1    3    3  502    0 -0.12778658921E+03  0.10949193184E+03 -0.11855447283E+03  0.20584717280E+03  0.00000000000E+00 0. -1.
         -3    1    3    3    0  502 -0.85009900379E+02  0.67797710375E+02 -0.82538530964E+01  0.10904741531E+03  0.00000000000E+00 0.  1.
         13    1    5    5    0    0  0.33374588044E+03 -0.13781977505E+03 -0.12076332673E+04  0.12604597222E+04  0.00000000000E+00 0. -1.
        -13    1    5    5    0    0  0.69315476872E+02 -0.70302585983E+02 -0.25056774241E+03  0.26931632417E+03  0.00000000000E+00 0.  1.
          1    1    6    6  503    0 -0.12302785280E+03  0.25142312695E+02  0.31854058008E+02  0.12954794273E+03  0.00000000000E+00 0. -1.
         -1    1    6    6    0  503 -0.67237014926E+02  0.56904061217E+01 -0.51493220728E+02  0.84880790989E+02  0.00000000000E+00 0.  1.
<mgrwt>
<rscale>  0 0.12903462E+04</rscale>
<asrwt>0</asrwt>
<pdfrwt beam="1">  1        2 0.28182675E+00 0.12903462E+04</pdfrwt>
<pdfrwt beam="2">  1       -1 0.34957760E-01 0.12903462E+04</pdfrwt>
<totfact> 0.72001144E+01</totfact>
</mgrwt>
</event>
<event>
12    7  0.1546317E-007  0.4971865E+04  0.7818608E-02  0.7832862E-01
          2   -1    0    0  501    0  0.00000000000E+00  0.00000000000E+00  0.28751643591E+04  0.28751643591E+04  0.00000000000E+00 0. -1.
         -1   -1    0    0    0  501 -0.00000000000E+00 -0.00000000000E+00 -0.21493934205E+04  0.21493934205E+04  0.00000000000E+00 0.  1.
         24    2    1    2    0    0  0.32323630284E+03  0.17322365476E+03 -0.20495097588E+04  0.20835645106E+04  0.79137074895E+02 0.  0.
        254    2    1    2    0    0 -0.32323630284E+03 -0.17322365476E+03  0.27752806974E+04  0.29409932690E+04  0.90153775138E+03 0.  0.
         23    2    4    4    0    0  0.26712185427E+03 -0.23719680382E+03  0.11856476542E+04  0.12415788452E+04  0.90228931937E+02 0.  0.
         23    2    4    4    0    0 -0.59035815711E+03  0.63973149061E+02  0.15896330431E+04  0.16994144238E+04  0.91982903189E+02 0.  0.
          2    1    3    3  502    0 -0.36803703095E+01 -0.13749960881E+00 -0.47616617034E+02  0.47758834257E+02  0.00000000000E+00 0. -1.
         -3    1    3    3    0  502  0.32691667315E+03  0.17336115437E+03 -0.20018931417E+04  0.20358056764E+04  0.00000000000E+00 0.  1.
         13    1    5    5    0    0  0.89403758384E+02 -0.31265778232E+02  0.36151219586E+03  0.37371332416E+03  0.00000000000E+00 0.  1.
        -13    1    5    5    0    0  0.17771809589E+03 -0.20593102559E+03  0.82413545838E+03  0.86786552107E+03  0.00000000000E+00 0. -1.
          1    1    6    6  503    0 -0.44444289609E+03  0.47969955646E+02  0.12999306550E+04  0.13746455224E+04  0.00000000000E+00 0. -1.
         -1    1    6    6    0  503 -0.14591526102E+03  0.16003193415E+02  0.28970238818E+03  0.32476890140E+03  0.00000000000E+00 0.  1.
<mgrwt>
<rscale>  0 0.49718646E+04</rscale>
<asrwt>0</asrwt>
<pdfrwt beam="1">  1        2 0.44233298E+00 0.49718646E+04</pdfrwt>
<pdfrwt beam="2">  1       -1 0.33067591E+00 0.49718646E+04</pdfrwt>
<totfact> 0.35960746E-02</totfact>
</mgrwt>
</event>
<event>
12    7  0.1546317E-007  0.1948508E+04  0.7818608E-02  0.8631081E-01
         -1   -1    0    0    0  501 -0.00000000000E+00  0.00000000000E+00  0.10067371380E+04  0.10067371380E+04  0.00000000000E+00 0.  1.
          2   -1    0    0  501    0  0.00000000000E+00 -0.00000000000E+00 -0.94281857657E+03  0.94281857657E+03  0.00000000000E+00 0. -1.
         24    2    1    2    0    0 -0.10560862108E+02  0.72819367350E+03 -0.13705794651E+03  0.74582135452E+03  0.84184643676E+02 0.  0.
        254    2    1    2    0    0  0.10560862108E+02 -0.72819367350E+03  0.20097650790E+03  0.12037343600E+04  0.93712714976E+03 0.  0.
         23    2    4    4    0    0 -0.30138585690E+03 -0.78071703665E+03  0.54632821190E+02  0.84354822682E+03  0.90754282391E+02 0.  0.
         23    2    4    4    0    0  0.31194671901E+03  0.52523363150E+02  0.14634368671E+03  0.36018613319E+03  0.90819142928E+02 0.  0.
          2    1    3    3  502    0 -0.12079232070E+02  0.65688580495E+03 -0.97294319659E+02  0.66416191793E+03  0.00000000000E+00 0. -1.
         -1    1    3    3    0  502  0.15183699621E+01  0.71307868544E+02 -0.39763626850E+02  0.81659436589E+02  0.00000000000E+00 0.  1.
         13    1    5    5    0    0 -0.19369299914E+03 -0.60280386650E+03  0.55411265935E+02  0.63557838838E+03  0.00000000000E+00 0. -1.
        -13    1    5    5    0    0 -0.10769285777E+03 -0.17791317014E+03 -0.77844474564E+00  0.20796983844E+03  0.00000000000E+00 0.  1.
          3    1    6    6  503    0  0.50098896998E+02  0.28331073802E+02 -0.32573430540E+01  0.57646851666E+02  0.00000000000E+00 0. -1.
         -3    1    6    6    0  503  0.26184782201E+03  0.24192289348E+02  0.14960102977E+03  0.30253928152E+03  0.00000000000E+00 0.  1.
<mgrwt>
<rscale>  0 0.19485076E+04</rscale>
<asrwt>0</asrwt>
<pdfrwt beam="1">  1        2 0.14504901E+00 0.19485076E+04</pdfrwt>
<pdfrwt beam="2">  1       -1 0.15488264E+00 0.19485076E+04</pdfrwt>
<totfact> 0.93431717E+00</totfact>
</mgrwt>
</event>
<event>
12    7  0.1546317E-007  0.2341788E+04  0.7818608E-02  0.8461625E-01
          2   -1    0    0  501    0  0.00000000000E+00  0.00000000000E+00  0.11373808475E+04  0.11373808475E+04  0.00000000000E+00 0. -1.
         -1   -1    0    0    0  501 -0.00000000000E+00 -0.00000000000E+00 -0.12053947458E+04  0.12053947458E+04  0.00000000000E+00 0.  1.
         24    2    1    2    0    0  0.85904204277E+02  0.63068375401E+03  0.77830006797E+03  0.10085505462E+04  0.79257040887E+02 0.  0.
        254    2    1    2    0    0 -0.85904204277E+02 -0.63068375401E+03 -0.84631396624E+03  0.13342250471E+04  0.81164500674E+03 0.  0.
         23    2    4    4    0    0  0.84120806473E+02 -0.77372758602E+03 -0.70866126065E+03  0.10576376347E+04  0.10327582783E+03 0.  0.
         23    2    4    4    0    0 -0.17002501075E+03  0.14304383201E+03 -0.13765270559E+03  0.27658741237E+03  0.90455995751E+02 0.  0.
          2    1    3    3  502    0  0.68449192128E+02  0.54398462744E+03  0.70860922871E+03  0.89595290379E+03  0.00000000000E+00 0. -1.
         -1    1    3    3    0  502  0.17455012149E+02  0.86699126568E+02  0.69690839254E+02  0.11259764239E+03  0.00000000000E+00 0.  1.
         13    1    5    5    0    0  0.15721309748E+02 -0.20349636920E+03 -0.24940795505E+03  0.32227668221E+03  0.00000000000E+00 0. -1.
        -13    1    5    5    0    0  0.68399496725E+02 -0.57023121682E+03 -0.45925330560E+03  0.73536095252E+03  0.00000000000E+00 0.  1.
          4    1    6    6  503    0 -0.42346727052E+02  0.92969761324E+02 -0.49188636488E+02  0.11338493627E+03  0.00000000000E+00 0. -1.
         -4    1    6    6    0  503 -0.12767828370E+03  0.50074070683E+02 -0.88464069106E+02  0.16320247610E+03  0.00000000000E+00 0.  1.
<mgrwt>
<rscale>  0 0.23417881E+04</rscale>
<asrwt>0</asrwt>
<pdfrwt beam="1">  1        2 0.17498167E+00 0.23417881E+04</pdfrwt>
<pdfrwt beam="2">  1       -1 0.18544535E+00 0.23417881E+04</pdfrwt>
<totfact> 0.40501655E+00</totfact>
</mgrwt>
</event>
<event>
12    7  0.1546317E-007  0.1364129E+04  0.7818608E-02  0.8980201E-01
         -1   -1    0    0    0  501 -0.00000000000E+00  0.00000000000E+00  0.15841527032E+03  0.15841527032E+03  0.00000000000E+00 0.  1.
          2   -1    0    0  501    0  0.00000000000E+00 -0.00000000000E+00 -0.29366620416E+04  0.29366620416E+04  0.00000000000E+00 0. -1.
         24    2    1    2    0    0 -0.87027701883E+02  0.28402422521E+03 -0.24653931520E+03  0.39418625224E+03  0.79734472550E+02 0.  0.
        254    2    1    2    0    0  0.87027701883E+02 -0.28402422521E+03 -0.25317074560E+04  0.27008910596E+04  0.89276328984E+03 0.  0.
         23    2    4    4    0    0  0.92055414092E+01 -0.43445163964E+03 -0.24529640329E+04  0.24928868334E+04  0.92839906513E+02 0.  0.
         23    2    4    4    0    0  0.77822160474E+02  0.15042741443E+03 -0.78743423092E+02  0.20800422620E+03  0.91545266204E+02 0.  0.
          4    1    3    3  502    0 -0.59680891089E+02  0.11348328801E+03 -0.14610481878E+03  0.19438848600E+03  0.00000000000E+00 0. -1.
         -3    1    3    3    0  502 -0.27346810794E+02  0.17054093721E+03 -0.10043449642E+03  0.19979776624E+03  0.00000000000E+00 0.  1.
         13    1    5    5    0    0  0.36410275902E+02 -0.28700162916E+03 -0.17857841320E+04  0.18090662258E+04  0.00000000000E+00 0. -1.
        -13    1    5    5    0    0 -0.27204734492E+02 -0.14745001049E+03 -0.66717990096E+03  0.68382060763E+03  0.00000000000E+00 0.  1.
          1    1    6    6  503    0  0.61955940165E+02  0.70989680163E+02  0.11463138006E+01  0.94230500617E+02  0.00000000000E+00 0. -1.
         -1    1    6    6    0  503  0.15866220310E+02  0.79437734265E+02 -0.79889736893E+02  0.11377372558E+03  0.00000000000E+00 0.  1.
<mgrwt>
<rscale>  0 0.13641292E+04</rscale>
<asrwt>0</asrwt>
<pdfrwt beam="1">  1        2 0.45179411E+00 0.13641292E+04</pdfrwt>
<pdfrwt beam="2">  1       -1 0.24371583E-01 0.13641292E+04</pdfrwt>
<totfact> 0.31290111E+01</totfact>
</mgrwt>
</event>
<event>
12    7  0.1546317E-007  0.1634166E+04  0.7818608E-02  0.8799829E-01
          2   -1    0    0  501    0  0.00000000000E+00  0.00000000000E+00  0.50423982385E+03  0.50423982385E+03  0.00000000000E+00 0. -1.
         -1   -1    0    0    0  501 -0.00000000000E+00 -0.00000000000E+00 -0.13240220539E+04  0.13240220539E+04  0.00000000000E+00 0.  1.
         24    2    1    2    0    0  0.90485467438E+02 -0.47930516075E+03  0.37612459614E+02  0.49596495668E+03  0.81519839291E+02 0.  0.
        254    2    1    2    0    0 -0.90485467438E+02  0.47930516075E+03 -0.85739468964E+03  0.13322969210E+04  0.89552687010E+03 0.  0.
         23    2    4    4    0    0  0.23267366818E+03  0.49515546265E+03 -0.82702200020E+03  0.99483198622E+03  0.80058253424E+02 0.  0.
         23    2    4    4    0    0 -0.32315913561E+03 -0.15850301903E+02 -0.30372689440E+02  0.33746493482E+03  0.90978145564E+02 0.  0.
          4    1    3    3  502    0  0.42308031283E+02 -0.38545653164E+03  0.14913288547E+02  0.38805813156E+03  0.00000000000E+00 0. -1.
         -3    1    3    3    0  502  0.48177436154E+02 -0.93848629105E+02  0.22699171067E+02  0.10790682511E+03  0.00000000000E+00 0.  1.
         13    1    5    5    0    0  0.12862116889E+02  0.93171468293E+02 -0.12257484559E+03  0.15450226317E+03  0.00000000000E+00 0. -1.
        -13    1    5    5    0    0  0.21981155129E+03  0.40198399436E+03 -0.70444715461E+03  0.84032972305E+03  0.00000000000E+00 0.  1.
          3    1    6    6  503    0 -0.15136980440E+03 -0.32710188426E+02  0.23504878063E+02  0.15663733081E+03  0.00000000000E+00 0. -1.
         -3    1    6    6    0  503 -0.17178933122E+03  0.16859886523E+02 -0.53877567504E+02  0.18082760401E+03  0.00000000000E+00 0.  1.
<mgrwt>
<rscale>  0 0.16341660E+04</rscale>
<asrwt>0</asrwt>
<pdfrwt beam="1">  1        2 0.77575359E-01 0.16341660E+04</pdfrwt>
<pdfrwt beam="2">  1       -1 0.20369570E+00 0.16341660E+04</pdfrwt>
<totfact> 0.94605126E+00</totfact>
</mgrwt>
</event>
<event>
12    7  0.1546317E-007  0.1860318E+04  0.7818608E-02  0.8674865E-01
         -1   -1    0    0    0  501 -0.00000000000E+00  0.00000000000E+00  0.61485365872E+03  0.61485365872E+03  0.00000000000E+00 0.  1.
          2   -1    0    0  501    0  0.00000000000E+00 -0.00000000000E+00 -0.14071571352E+04  0.14071571352E+04  0.00000000000E+00 0. -1.
         24    2    1    2    0    0  0.60278895570E+02  0.67413319567E+03 -0.63454833318E+02  0.68448320824E+03  0.80010222682E+02 0.  0.
        254    2    1    2    0    0 -0.60278895570E+02 -0.67413319567E+03 -0.72884864320E+03  0.13375275857E+04  0.89424302463E+03 0.  0.
         23    2    4    4    0    0  0.12893022832E+03 -0.68923577978E+03 -0.84196010251E+03  0.10994661059E+04  0.90884210900E+02 0.  0.
         23    2    4    4    0    0 -0.18920912389E+03  0.15102584105E+02  0.11311145931E+03  0.23806147986E+03  0.88605221952E+02 0.  0.
          2    1    3    3  502    0  0.19467724115E+02  0.46906536108E+03 -0.73325579228E+02  0.47516096832E+03  0.00000000000E+00 0. -1.
         -1    1    3    3    0  502  0.40811171455E+02  0.20506783459E+03  0.98707459095E+01  0.20932223992E+03  0.00000000000E+00 0.  1.
         13    1    5    5    0    0  0.12800125236E+03 -0.62432932381E+03 -0.79710764004E+03  0.10205645570E+04  0.00000000000E+00 0. -1.
        -13    1    5    5    0    0  0.92897596261E+00 -0.64906455974E+02 -0.44852462475E+02  0.78901548867E+02  0.00000000000E+00 0.  1.
          1    1    6    6  503    0 -0.13516265596E+03  0.46723580654E+02  0.98827247050E+02  0.17383573083E+03  0.00000000000E+00 0. -1.
         -1    1    6    6    0  503 -0.54046467931E+02 -0.31620996548E+02  0.14284212264E+02  0.64225749031E+02  0.00000000000E+00 0.  1.
<mgrwt>
<rscale>  0 0.18603179E+04</rscale>
<asrwt>0</asrwt>
<pdfrwt beam="1">  1        2 0.21648571E+00 0.18603179E+04</pdfrwt>
<pdfrwt beam="2">  1       -1 0.94592872E-01 0.18603179E+04</pdfrwt>
<totfact> 0.16595044E+01</totfact>
</mgrwt>
</event>
<event>
12    7  0.1546317E-007  0.2617433E+04  0.7818608E-02  0.8362303E-01
          2   -1    0    0  501    0  0.00000000000E+00  0.00000000000E+00  0.19999368933E+04  0.19999368933E+04  0.00000000000E+00 0. -1.
         -1   -1    0    0    0  501 -0.00000000000E+00 -0.00000000000E+00 -0.85639672659E+03  0.85639672659E+03  0.00000000000E+00 0.  1.
         24    2    1    2    0    0  0.61230886147E+03 -0.12617688099E+03 -0.55469273323E+03  0.83961729448E+03  0.80189935551E+02 0.  0.
        254    2    1    2    0    0 -0.61230886147E+03  0.12617688099E+03  0.16982329000E+04  0.20167163255E+04  0.89011628884E+03 0.  0.
         23    2    4    4    0    0 -0.58664182861E+03 -0.15219643150E+03  0.52387663309E+03  0.80637006154E+03  0.92051945190E+02 0.  0.
         23    2    4    4    0    0 -0.25667032859E+02  0.27837331250E+03  0.11743562669E+04  0.12103462639E+04  0.87606730933E+02 0.  0.
          2    1    3    3  502    0  0.37520933085E+02  0.80664472215E+01 -0.49861794396E+02  0.62921272482E+02  0.00000000000E+00 0. -1.
         -1    1    3    3    0  502  0.57478792839E+03 -0.13424332822E+03 -0.50483093883E+03  0.77669602200E+03  0.00000000000E+00 0.  1.
         13    1    5    5    0    0 -0.76187118909E+01 -0.96706152773E+01  0.28843147069E+02  0.31360687230E+02  0.00000000000E+00 0.  1.
        -13    1    5    5    0    0 -0.57902311672E+03 -0.14252581622E+03  0.49503348602E+03  0.77500937431E+03  0.00000000000E+00 0. -1.
          2    1    6    6  503    0  0.12429585953E+02  0.16520273780E+03  0.81506268706E+03  0.83172929672E+03  0.00000000000E+00 0. -1.
         -2    1    6    6    0  503 -0.38096618811E+02  0.11317057470E+03  0.35929357983E+03  0.37861696719E+03  0.00000000000E+00 0.  1.
<mgrwt>
<rscale>  0 0.26174334E+04</rscale>
<asrwt>0</asrwt>
<pdfrwt beam="1">  1        2 0.30768260E+00 0.26174334E+04</pdfrwt>
<pdfrwt beam="2">  1       -1 0.13175334E+00 0.26174334E+04</pdfrwt>
<totfact> 0.32915847E+00</totfact>
</mgrwt>
</event>
<event>
12    7  0.1546317E-007  0.1384746E+04  0.7818608E-02  0.8964935E-01
          2   -1    0    0  501    0  0.00000000000E+00  0.00000000000E+00  0.96352359092E+03  0.96352359092E+03  0.00000000000E+00 0. -1.
         -1   -1    0    0    0  501 -0.00000000000E+00 -0.00000000000E+00 -0.49752842061E+03  0.49752842061E+03  0.00000000000E+00 0.  1.
         24    2    1    2    0    0  0.25973896716E+03 -0.29356537598E+03  0.15615158476E+03  0.42938339324E+03  0.79635544377E+02 0.  0.
        254    2    1    2    0    0 -0.25973896716E+03  0.29356537598E+03  0.30984358555E+03  0.10316686183E+04  0.90260297441E+03 0.  0.
         23    2    4    4    0    0 -0.53511884797E+03 -0.21457973263E+02  0.91813802980E+02  0.55108082408E+03  0.91911229854E+02 0.  0.
         23    2    4    4    0    0  0.27537988082E+03  0.31502334924E+03  0.21802978257E+03  0.48058779421E+03  0.91399412111E+02 0.  0.
          4    1    3    3  502    0  0.25627938965E+03 -0.29038344998E+03  0.13882294861E+03  0.41142858997E+03  0.00000000000E+00 0. -1.
         -3    1    3    3    0  502  0.34595775125E+01 -0.31819259991E+01  0.17328636150E+02  0.17954803270E+02  0.00000000000E+00 0.  1.
         13    1    5    5    0    0 -0.32807250725E+03 -0.57761338899E+02  0.60113483020E+02  0.33849900018E+03  0.00000000000E+00 0. -1.
        -13    1    5    5    0    0 -0.20704634073E+03  0.36303365637E+02  0.31700319960E+02  0.21258182390E+03  0.00000000000E+00 0.  1.
          1    1    6    6  503    0  0.42377055823E+02  0.46400695931E+02 -0.11860835653E+01  0.62850984378E+02  0.00000000000E+00 0. -1.
         -1    1    6    6    0  503  0.23300282499E+03  0.26862265331E+03  0.21921586613E+03  0.41773680983E+03  0.00000000000E+00 0.  1.
<mgrwt>
<rscale>  0 0.13847460E+04</rscale>
<asrwt>0</asrwt>
<pdfrwt beam="1">  1        2 0.14823440E+00 0.13847460E+04</pdfrwt>
<pdfrwt beam="2">  1       -1 0.76542834E-01 0.13847460E+04</pdfrwt>
<totfact> 0.50672880E+01</totfact>
</mgrwt>
</event>
<event>
12    7  0.1546317E-007  0.1536375E+04  0.7818608E-02  0.8860618E-01
         -1   -1    0    0    0  501 -0.00000000000E+00  0.00000000000E+00  0.46791654706E+03  0.46791654706E+03  0.00000000000E+00 0.  1.
          2   -1    0    0  501    0  0.00000000000E+00 -0.00000000000E+00 -0.12611476214E+04  0.12611476214E+04  0.00000000000E+00 0. -1.
         24    2    1    2    0    0 -0.40936317530E+03 -0.23846957371E+03 -0.44816540945E+03  0.65693750489E+03  0.79175148974E+02 0.  0.
        254    2    1    2    0    0  0.40936317530E+03  0.23846957371E+03 -0.34506566490E+03  0.10721266636E+04  0.89774123376E+03 0.  0.
         23    2    4    4    0    0  0.24572478028E+01 -0.54214144003E+02 -0.52022784358E+03  0.53161341995E+03  0.95029508929E+02 0.  0.
         23    2    4    4    0    0  0.40690592750E+03  0.29268371772E+03  0.17516217868E+03  0.54051324363E+03  0.10117601123E+03 0.  0.
          2    1    3    3  502    0 -0.23370864687E+03 -0.13415853376E+03 -0.30766900236E+03  0.40899689341E+03  0.00000000000E+00 0. -1.
         -1    1    3    3    0  502 -0.17565452843E+03 -0.10431103996E+03 -0.14049640709E+03  0.24794061148E+03  0.00000000000E+00 0.  1.
         13    1    5    5    0    0  0.30158118928E+02 -0.37746654101E+02 -0.46625652853E+03  0.46875310392E+03  0.00000000000E+00 0. -1.
        -13    1    5    5    0    0 -0.27700871125E+02 -0.16467489902E+02 -0.53971315042E+02  0.62860316036E+02  0.00000000000E+00 0.  1.
          3    1    6    6  503    0  0.33083998087E+03  0.25197789207E+03  0.18203837335E+03  0.45396687149E+03  0.00000000000E+00 0. -1.
         -3    1    6    6    0  503  0.76065946629E+02  0.40705825645E+02 -0.68761946684E+01  0.86546372143E+02  0.00000000000E+00 0.  1.
<mgrwt>
<rscale>  0 0.15363747E+04</rscale>
<asrwt>0</asrwt>
<pdfrwt beam="1">  1        2 0.19402271E+00 0.15363747E+04</pdfrwt>
<pdfrwt beam="2">  1       -1 0.71987161E-01 0.15363747E+04</pdfrwt>
<totfact> 0.37271821E+01</totfact>
</mgrwt>
</event>
<event>
12    7  0.1546317E-007  0.1751692E+04  0.7818608E-02  0.8732420E-01
          2   -1    0    0  501    0  0.00000000000E+00  0.00000000000E+00  0.39595943224E+04  0.39595943224E+04  0.00000000000E+00 0. -1.
         -1   -1    0    0    0  501 -0.00000000000E+00 -0.00000000000E+00 -0.19373343971E+03  0.19373343971E+03  0.00000000000E+00 0.  1.
         24    2    1    2    0    0  0.59424233984E+03  0.24669832255E+03  0.15011265325E+04  0.16352633973E+04  0.81984701551E+02 0.  0.
        254    2    1    2    0    0 -0.59424233984E+03 -0.24669832255E+03  0.22647343502E+04  0.25180643647E+04  0.89310830661E+03 0.  0.
         23    2    4    4    0    0 -0.38295139818E+03 -0.29065572722E+03  0.37890075743E+03  0.61757468180E+03  0.81854617992E+02 0.  0.
         23    2    4    4    0    0 -0.21129094166E+03  0.43957404670E+02  0.18858335927E+04  0.19004896829E+04  0.94427644293E+02 0.  0.
          2    1    3    3  502    0  0.57438415675E+03  0.23976381091E+03  0.14795081370E+04  0.16051006734E+04  0.00000000000E+00 0. -1.
         -1    1    3    3    0  502  0.19858183081E+02  0.69345116436E+01  0.21618395541E+02  0.30162723895E+02  0.00000000000E+00 0.  1.
         13    1    5    5    0    0 -0.15835708157E+03 -0.79442586596E+02  0.11047682869E+03  0.20878989326E+03  0.00000000000E+00 0. -1.
        -13    1    5    5    0    0 -0.22459431661E+03 -0.21121314063E+03  0.26842392873E+03  0.40878478854E+03  0.00000000000E+00 0.  1.
          3    1    6    6  503    0 -0.14367806900E+02 -0.12690699226E+02  0.55409599273E+02  0.58631999911E+02  0.00000000000E+00 0. -1.
         -3    1    6    6    0  503 -0.19692313476E+03  0.56648103895E+02  0.18304239935E+04  0.18418576830E+04  0.00000000000E+00 0.  1.
<mgrwt>
<rscale>  0 0.17516916E+04</rscale>
<asrwt>0</asrwt>
<pdfrwt beam="1">  1        2 0.60916830E+00 0.17516916E+04</pdfrwt>
<pdfrwt beam="2">  1       -1 0.29805148E-01 0.17516916E+04</pdfrwt>
<totfact> 0.41692691E+00</totfact>
</mgrwt>
</event>
<event>
12    7  0.1546317E-007  0.3017840E+04  0.7818608E-02  0.8238655E-01
          2   -1    0    0  501    0  0.00000000000E+00  0.00000000000E+00  0.14572252972E+04  0.14572252972E+04  0.00000000000E+00 0. -1.
         -1   -1    0    0    0  501 -0.00000000000E+00 -0.00000000000E+00 -0.15624489205E+04  0.15624489205E+04  0.00000000000E+00 0.  1.
         24    2    1    2    0    0  0.95192349830E+03  0.94259178039E+03  0.25923518526E+03  0.13668748930E+04  0.80662758987E+02 0.  0.
        254    2    1    2    0    0 -0.95192349830E+03 -0.94259178039E+03 -0.36445880859E+03  0.16527993247E+04  0.89681535087E+03 0.  0.
         23    2    4    4    0    0 -0.11162211434E+04 -0.80378654723E+03 -0.30423885052E+03  0.14118418539E+04  0.93347136746E+02 0.  0.
         23    2    4    4    0    0  0.16429764509E+03 -0.13880523316E+03 -0.60219958074E+02  0.24095747078E+03  0.90407137105E+02 0.  0.
          2    1    3    3  502    0  0.38936450089E+03  0.40312938382E+03  0.70028227314E+02  0.56482029644E+03  0.00000000000E+00 0. -1.
         -1    1    3    3    0  502  0.56255899741E+03  0.53946239657E+03  0.18920695795E+03  0.80205459653E+03  0.00000000000E+00 0.  1.
         13    1    5    5    0    0 -0.10039364367E+04 -0.74424733545E+03 -0.25453392508E+03  0.12753744487E+04  0.00000000000E+00 0.  1.
        -13    1    5    5    0    0 -0.11228470664E+03 -0.59539211778E+02 -0.49704925442E+02  0.13646740526E+03  0.00000000000E+00 0. -1.
          1    1    6    6  503    0  0.15071877874E+02  0.11754984632E+02 -0.14773639776E+02  0.24157847557E+02  0.00000000000E+00 0. -1.
         -1    1    6    6    0  503  0.14922576721E+03 -0.15056021779E+03 -0.45446318298E+02  0.21679962322E+03  0.00000000000E+00 0.  1.
<mgrwt>
<rscale>  0 0.30178403E+04</rscale>
<asrwt>0</asrwt>
<pdfrwt beam="1">  1        2 0.22418851E+00 0.30178403E+04</pdfrwt>
<pdfrwt beam="2">  1       -1 0.24037676E+00 0.30178403E+04</pdfrwt>
<totfact> 0.10531808E+00</totfact>
</mgrwt>
</event>
<event>
12    7  0.1546317E-007  0.2915272E+04  0.7818608E-02  0.8268348E-01
          2   -1    0    0  501    0  0.00000000000E+00  0.00000000000E+00  0.17606236581E+04  0.17606236581E+04  0.00000000000E+00 0. -1.
         -1   -1    0    0    0  501 -0.00000000000E+00 -0.00000000000E+00 -0.12067894582E+04  0.12067894582E+04  0.00000000000E+00 0.  1.
         24    2    1    2    0    0  0.10571811487E+04 -0.72059304820E+03  0.60798626902E+03  0.14186908764E+04  0.78423066178E+02 0.  0.
        254    2    1    2    0    0 -0.10571811487E+04  0.72059304820E+03 -0.54152069114E+02  0.15487222399E+04  0.87104638653E+03 0.  0.
         23    2    4    4    0    0 -0.39986732494E+02  0.48084422012E+03 -0.96136778113E+02  0.49883015986E+03  0.82335566311E+02 0.  0.
         23    2    4    4    0    0 -0.10171944162E+04  0.23974882808E+03  0.41984708999E+02  0.10498920800E+04  0.91360183023E+02 0.  0.
          2    1    3    3  502    0  0.92049905921E+03 -0.59720278379E+03  0.53314978683E+03  0.12199255626E+04  0.00000000000E+00 0. -1.
         -1    1    3    3    0  502  0.13668208945E+03 -0.12339026442E+03  0.74836482189E+02  0.19876531386E+03  0.00000000000E+00 0.  1.
         13    1    5    5    0    0 -0.60945941305E+02  0.38042195295E+03 -0.92286525475E+02  0.39617177188E+03  0.00000000000E+00 0. -1.
        -13    1    5    5    0    0  0.20959208811E+02  0.10042226717E+03 -0.38502526376E+01  0.10265838798E+03  0.00000000000E+00 0.  1.
          3    1    6    6  503    0 -0.92826403994E+03  0.21534547508E+03  0.64068610161E+02  0.95506679782E+03  0.00000000000E+00 0. -1.
         -3    1    6    6    0  503 -0.88930376227E+02  0.24403353004E+02 -0.22083901163E+02  0.94825282200E+02  0.00000000000E+00 0.  1.
<mgrwt>
<rscale>  0 0.29152716E+04</rscale>
<asrwt>0</asrwt>
<pdfrwt beam="1">  1        2 0.27086518E+00 0.29152716E+04</pdfrwt>
<pdfrwt beam="2">  1       -1 0.18565992E+00 0.29152716E+04</pdfrwt>
<totfact> 0.16880775E+00</totfact>
</mgrwt>
</event>
<event>
12    7  0.1546317E-007  0.2180351E+04  0.7818608E-02  0.8526651E-01
          2   -1    0    0  501    0  0.00000000000E+00  0.00000000000E+00  0.23684250235E+04  0.23684250235E+04  0.00000000000E+00 0. -1.
         -1   -1    0    0    0  501 -0.00000000000E+00 -0.00000000000E+00 -0.50180280037E+03  0.50180280037E+03  0.00000000000E+00 0.  1.
         24    2    1    2    0    0 -0.57502311253E+03  0.62393811189E+03  0.36872943600E+03  0.92860378242E+03  0.79957740907E+02 0.  0.
        254    2    1    2    0    0  0.57502311253E+03 -0.62393811189E+03  0.14978927871E+04  0.19416240415E+04  0.89792581498E+03 0.  0.
         23    2    4    4    0    0 -0.20198174941E+03 -0.30296932168E+03  0.60874676655E+03  0.71465168763E+03  0.86990642404E+02 0.  0.
         23    2    4    4    0    0  0.77700486194E+03 -0.32096879021E+03  0.88914602059E+03  0.12269723538E+04  0.90127639404E+02 0.  0.
          2    1    3    3  502    0 -0.10299086768E+02  0.46975819794E+00  0.90907977824E+01  0.13745343406E+02  0.00000000000E+00 0. -1.
         -1    1    3    3    0  502 -0.56472402576E+03  0.62346835369E+03  0.35963863822E+03  0.91485843901E+03  0.00000000000E+00 0.  1.
         13    1    5    5    0    0 -0.17295525798E+03 -0.21209731852E+03  0.49995311411E+03  0.56995781431E+03  0.00000000000E+00 0. -1.
        -13    1    5    5    0    0 -0.29026491429E+02 -0.90872003166E+02  0.10879365245E+03  0.14469387332E+03  0.00000000000E+00 0.  1.
          4    1    6    6  503    0  0.68490905439E+03 -0.31201819722E+03  0.78058768670E+03  0.10843306252E+04  0.00000000000E+00 0. -1.
         -4    1    6    6    0  503  0.92095807547E+02 -0.89505929839E+01  0.10855833390E+03  0.14264172861E+03  0.00000000000E+00 0.  1.
<mgrwt>
<rscale>  0 0.21803507E+04</rscale>
<asrwt>0</asrwt>
<pdfrwt beam="1">  1        2 0.36437307E+00 0.21803507E+04</pdfrwt>
<pdfrwt beam="2">  1       -1 0.77200432E-01 0.21803507E+04</pdfrwt>
<totfact> 0.72647872E+00</totfact>
</mgrwt>
</event>
<event>
12    7  0.1546317E-007  0.1586545E+04  0.7818608E-02  0.8828857E-01
         -1   -1    0    0    0  501 -0.00000000000E+00  0.00000000000E+00  0.42531481826E+03  0.42531481826E+03  0.00000000000E+00 0.  1.
          2   -1    0    0  501    0  0.00000000000E+00 -0.00000000000E+00 -0.14795666131E+04  0.14795666131E+04  0.00000000000E+00 0. -1.
         24    2    1    2    0    0 -0.23133807419E+03 -0.39546222541E+03 -0.19440327717E+02  0.46538507558E+03  0.79357834720E+02 0.  0.
        254    2    1    2    0    0  0.23133807419E+03  0.39546222541E+03 -0.10348114672E+04  0.14394963558E+04  0.88961076293E+03 0.  0.
         23    2    4    4    0    0  0.20919753183E+03 -0.25486131568E+03 -0.34125093807E+03  0.48401363881E+03  0.95389214619E+02 0.  0.
         23    2    4    4    0    0  0.22140542364E+02  0.65032354110E+03 -0.69356052908E+03  0.95548271699E+03  0.92250220911E+02 0.  0.
          2    1    3    3  502    0 -0.63983690577E+02 -0.61764929725E+02 -0.23752144308E+02  0.92048810764E+02  0.00000000000E+00 0. -1.
         -1    1    3    3    0  502 -0.16735438361E+03 -0.33369729569E+03  0.43118165907E+01  0.37333626482E+03  0.00000000000E+00 0.  1.
         13    1    5    5    0    0  0.20862307915E+03 -0.26103159264E+03 -0.34152855993E+03  0.47781046321E+03  0.00000000000E+00 0.  1.
        -13    1    5    5    0    0  0.57445267431E+00  0.61702769563E+01  0.27762185474E+00  0.62031755970E+01  0.00000000000E+00 0. -1.
          1    1    6    6  503    0  0.13252133696E+01  0.53938619077E+03 -0.52563265622E+03  0.75314600728E+03  0.00000000000E+00 0.  1.
         -1    1    6    6    0  503  0.20815328994E+02  0.11093735032E+03 -0.16792787285E+03  0.20233670972E+03  0.00000000000E+00 0. -1.
<mgrwt>
<rscale>  0 0.15865454E+04</rscale>
<asrwt>0</asrwt>
<pdfrwt beam="1">  1        2 0.22762564E+00 0.15865454E+04</pdfrwt>
<pdfrwt beam="2">  1       -1 0.65433048E-01 0.15865454E+04</pdfrwt>
<totfact> 0.33762704E+01</totfact>
</mgrwt>
</event>
<event>
12    7  0.1546317E-007  0.1514082E+04  0.7818608E-02  0.8875142E-01
          2   -1    0    0  501    0  0.00000000000E+00  0.00000000000E+00  0.15466840098E+04  0.15466840098E+04  0.00000000000E+00 0. -1.
         -1   -1    0    0    0  501 -0.00000000000E+00 -0.00000000000E+00 -0.37054189608E+03  0.37054189608E+03  0.00000000000E+00 0.  1.
         24    2    1    2    0    0  0.14424050705E+03  0.13581366461E+03 -0.17273943182E+03  0.27514188342E+03  0.81323239834E+02 0.  0.
        254    2    1    2    0    0 -0.14424050705E+03 -0.13581366461E+03  0.13488815456E+04  0.16420840225E+04  0.91526380764E+03 0.  0.
         23    2    4    4    0    0 -0.37540365172E+03 -0.14936926366E+03  0.13325208722E+04  0.13954225629E+04  0.91395708068E+02 0.  0.
         23    2    4    4    0    0  0.23116314467E+03  0.13555599043E+02  0.16360673316E+02  0.24666145958E+03  0.83390948490E+02 0.  0.
          4    1    3    3  502    0  0.79404751102E+02  0.55903355719E+02 -0.35037157169E+02  0.10323711571E+03  0.00000000000E+00 0. -1.
         -3    1    3    3    0  502  0.64835755951E+02  0.79910308896E+02 -0.13770227465E+03  0.17190476771E+03  0.00000000000E+00 0.  1.
         13    1    5    5    0    0 -0.33277269465E+03 -0.10249535528E+03  0.11789335012E+04  0.12292791238E+04  0.00000000000E+00 0.  1.
        -13    1    5    5    0    0 -0.42630957072E+02 -0.46873908382E+02  0.15358737109E+03  0.16614343907E+03  0.00000000000E+00 0. -1.
          3    1    6    6  503    0  0.11057889434E+02 -0.14031982631E+02  0.17247282776E+02  0.24832281781E+02  0.00000000000E+00 0. -1.
         -3    1    6    6    0  503  0.22010525524E+03  0.27587581673E+02 -0.88660946038E+00  0.22182917780E+03  0.00000000000E+00 0.  1.
<mgrwt>
<rscale>  0 0.15140822E+04</rscale>
<asrwt>0</asrwt>
<pdfrwt beam="1">  1        2 0.23795138E+00 0.15140822E+04</pdfrwt>
<pdfrwt beam="2">  1       -1 0.57006447E-01 0.15140822E+04</pdfrwt>
<totfact> 0.40931843E+01</totfact>
</mgrwt>
</event>
<event>
12    7  0.1546317E-007  0.1143625E+04  0.7818608E-02  0.9163685E-01
         -1   -1    0    0    0  501 -0.00000000000E+00  0.00000000000E+00  0.10096687821E+04  0.10096687821E+04  0.00000000000E+00 0.  1.
          2   -1    0    0  501    0  0.00000000000E+00 -0.00000000000E+00 -0.32383847164E+03  0.32383847164E+03  0.00000000000E+00 0. -1.
         24    2    1    2    0    0  0.14043634169E+03 -0.14049965484E+03  0.49760770693E+02  0.21933307209E+03  0.78538800183E+02 0.  0.
        254    2    1    2    0    0 -0.14043634169E+03  0.14049965484E+03  0.63606953972E+03  0.11141741816E+04  0.89293735980E+03 0.  0.
         23    2    4    4    0    0 -0.35156237598E+03 -0.24427400313E+03  0.17444497820E+03  0.47075609385E+03  0.88962670097E+02 0.  0.
         23    2    4    4    0    0  0.21112603429E+03  0.38477365797E+03  0.46162456152E+03  0.64341808775E+03  0.90910008398E+02 0.  0.
          4    1    3    3  502    0  0.11208899269E+03 -0.14387782757E+03  0.30560162161E+02  0.18492889190E+03  0.00000000000E+00 0. -1.
         -1    1    3    3    0  502  0.28347349006E+02  0.33781727285E+01  0.19200608532E+02  0.34404180192E+02  0.00000000000E+00 0.  1.
         13    1    5    5    0    0 -0.19445505468E+03 -0.91865918986E+02  0.57633660383E+02  0.22265164309E+03  0.00000000000E+00 0.  1.
        -13    1    5    5    0    0 -0.15710732130E+03 -0.15240808414E+03  0.11681131782E+03  0.24810445077E+03  0.00000000000E+00 0. -1.
          2    1    6    6  503    0  0.44622723062E+02  0.39129109329E+02  0.32012685668E+02  0.67432089201E+02  0.00000000000E+00 0.  1.
         -2    1    6    6    0  503  0.16650331123E+03  0.34564454864E+03  0.42961187585E+03  0.57598599855E+03  0.00000000000E+00 0. -1.
<mgrwt>
<rscale>  0 0.11436251E+04</rscale>
<asrwt>0</asrwt>
<pdfrwt beam="1">  1        2 0.49821304E-01 0.11436251E+04</pdfrwt>
<pdfrwt beam="2">  1       -1 0.15533366E+00 0.11436251E+04</pdfrwt>
<totfact> 0.36280301E+01</totfact>
</mgrwt>
</event>
<event>
12    7  0.1546317E-007  0.1109794E+04  0.7818608E-02  0.9195698E-01
         -1   -1    0    0    0  501 -0.00000000000E+00  0.00000000000E+00  0.33345930738E+03  0.33345930738E+03  0.00000000000E+00 0.  1.
          2   -1    0    0  501    0  0.00000000000E+00 -0.00000000000E+00 -0.92338371543E+03  0.92338371543E+03  0.00000000000E+00 0. -1.
         24    2    1    2    0    0 -0.69460132952E+02 -0.15320073161E+03 -0.14336670156E+03  0.23472102640E+03  0.79023888066E+02 0.  0.
        254    2    1    2    0    0  0.69460132952E+02  0.15320073161E+03 -0.44655770649E+03  0.10221219964E+04  0.90389402922E+03 0.  0.
         23    2    4    4    0    0 -0.23949458007E+03 -0.10414402125E+03 -0.53293548991E+03  0.60058151229E+03  0.92055882245E+02 0.  0.
         23    2    4    4    0    0  0.30895471303E+03  0.25734475286E+03  0.86377783424E+02  0.42154048410E+03  0.92498225637E+02 0.  0.
          4    1    3    3  502    0 -0.84973901048E+02 -0.12816649552E+03 -0.13355963184E+03  0.20367962512E+03  0.00000000000E+00 0. -1.
         -3    1    3    3    0  502  0.15513768096E+02 -0.25034236088E+02 -0.98070697240E+01  0.31041401283E+02  0.00000000000E+00 0.  1.
         13    1    5    5    0    0 -0.99442329082E+02 -0.82872164638E+02 -0.19387266413E+03  0.23311624221E+03  0.00000000000E+00 0.  1.
        -13    1    5    5    0    0 -0.14005225099E+03 -0.21271856612E+02 -0.33906282578E+03  0.36746527009E+03  0.00000000000E+00 0. -1.
          3    1    6    6  503    0  0.16321760663E+03  0.83715295935E+02  0.61614484932E+02  0.19350602740E+03  0.00000000000E+00 0. -1.
         -3    1    6    6    0  503  0.14573710640E+03  0.17362945692E+03  0.24763298492E+02  0.22803445670E+03  0.00000000000E+00 0.  1.
<mgrwt>
<rscale>  0 0.11097944E+04</rscale>
<asrwt>0</asrwt>
<pdfrwt beam="1">  1        2 0.14205903E+00 0.11097944E+04</pdfrwt>
<pdfrwt beam="2">  1       -1 0.51301433E-01 0.11097944E+04</pdfrwt>
<totfact> 0.12230012E+02</totfact>
</mgrwt>
</event>
<event>
12    7  0.1546317E-007  0.1862083E+04  0.7818608E-02  0.8673964E-01
          2   -1    0    0  501    0  0.00000000000E+00  0.00000000000E+00  0.22216990300E+04  0.22216990300E+04  0.00000000000E+00 0. -1.
         -1   -1    0    0    0  501 -0.00000000000E+00 -0.00000000000E+00 -0.39016888878E+03  0.39016888878E+03  0.00000000000E+00 0.  1.
         24    2    1    2    0    0  0.49400085049E+02 -0.44574771851E+03  0.14731232795E+04  0.15419397681E+04  0.79716088791E+02 0.  0.
        254    2    1    2    0    0 -0.49400085049E+02  0.44574771851E+03  0.35840686168E+03  0.10699281507E+04  0.90286176801E+03 0.  0.
         23    2    4    4    0    0 -0.16560943820E+03 -0.17229361400E+03 -0.10869050775E+03  0.28117412039E+03  0.10066620114E+03 0.  0.
         23    2    4    4    0    0  0.11620935315E+03  0.61804133251E+03  0.46709736943E+03  0.78875403028E+03  0.92050341136E+02 0.  0.
          2    1    3    3  502    0  0.23867627532E+02 -0.36426198239E+03  0.12742834090E+04  0.13255393853E+04  0.00000000000E+00 0. -1.
         -1    1    3    3    0  502  0.25532457517E+02 -0.81485736113E+02  0.19883987054E+03  0.21640038284E+03  0.00000000000E+00 0.  1.
         13    1    5    5    0    0 -0.17853949523E+03 -0.14878289237E+03 -0.99528043273E+02  0.25282114591E+03  0.00000000000E+00 0.  1.
        -13    1    5    5    0    0  0.12930057030E+02 -0.23510721632E+02 -0.91624644759E+01  0.28352974478E+02  0.00000000000E+00 0. -1.
          2    1    6    6  503    0  0.11257184037E+03  0.35427715496E+03  0.26825660849E+03  0.45841720056E+03  0.00000000000E+00 0. -1.
         -2    1    6    6    0  503  0.36375127825E+01  0.26376417755E+03  0.19884076094E+03  0.33033682972E+03  0.00000000000E+00 0.  1.
<mgrwt>
<rscale>  0 0.18620825E+04</rscale>
<asrwt>0</asrwt>
<pdfrwt beam="1">  1        2 0.34179984E+00 0.18620825E+04</pdfrwt>
<pdfrwt beam="2">  1       -1 0.60025984E-01 0.18620825E+04</pdfrwt>
<totfact> 0.15115428E+01</totfact>
</mgrwt>
</event>
<event>
12    7  0.1546317E-007  0.2022320E+04  0.7818608E-02  0.8596256E-01
         -1   -1    0    0    0  501 -0.00000000000E+00  0.00000000000E+00  0.10330366961E+04  0.10330366961E+04  0.00000000000E+00 0.  1.
          2   -1    0    0  501    0  0.00000000000E+00 -0.00000000000E+00 -0.98974685226E+03  0.98974685226E+03  0.00000000000E+00 0. -1.
         24    2    1    2    0    0  0.74767702081E+03  0.13245408698E+03  0.29036272974E+03  0.81681230641E+03  0.79415467516E+02 0.  0.
        254    2    1    2    0    0 -0.74767702081E+03 -0.13245408698E+03 -0.24707288589E+03  0.12059712420E+04  0.90374587849E+03 0.  0.
         23    2    4    4    0    0  0.10781132306E+03 -0.64677591525E+02  0.18374016315E+03  0.24137930288E+03  0.93257965226E+02 0.  0.
         23    2    4    4    0    0 -0.85548834386E+03 -0.67776495455E+02 -0.43081304904E+03  0.96459193908E+03  0.91562906740E+02 0.  0.
          4    1    3    3  502    0  0.74092159836E+03  0.13818399879E+03  0.28229007525E+03  0.80482750886E+03  0.00000000000E+00 0. -1.
         -3    1    3    3    0  502  0.67554224469E+01 -0.57299118053E+01  0.80726544928E+01  0.11984797549E+02  0.00000000000E+00 0.  1.
         13    1    5    5    0    0 -0.35435383964E+01 -0.42877919945E+02  0.48003892398E+02  0.64462751792E+02  0.00000000000E+00 0. -1.
        -13    1    5    5    0    0  0.11135486145E+03 -0.21799671580E+02  0.13573627075E+03  0.17691655108E+03  0.00000000000E+00 0.  1.
          2    1    6    6  503    0 -0.10932259153E+03 -0.39818800779E+02 -0.57368004509E+02  0.12972298893E+03  0.00000000000E+00 0. -1.
         -2    1    6    6    0  503 -0.74616575233E+03 -0.27957694676E+02 -0.37344504453E+03  0.83486895015E+03  0.00000000000E+00 0.  1.
<mgrwt>
<rscale>  0 0.20223203E+04</rscale>
<asrwt>0</asrwt>
<pdfrwt beam="1">  1        2 0.15226875E+00 0.20223203E+04</pdfrwt>
<pdfrwt beam="2">  1       -1 0.15892872E+00 0.20223203E+04</pdfrwt>
<totfact> 0.80564440E+00</totfact>
</mgrwt>
</event>
<event>
12    7  0.1546317E-007  0.2396693E+04  0.7818608E-02  0.8440743E-01
         -1   -1    0    0    0  501 -0.00000000000E+00  0.00000000000E+00  0.16681660576E+04  0.16681660576E+04  0.00000000000E+00 0.  1.
          2   -1    0    0  501    0  0.00000000000E+00 -0.00000000000E+00 -0.86084599534E+03  0.86084599534E+03  0.00000000000E+00 0. -1.
         24    2    1    2    0    0  0.68840414600E+03  0.54234665878E+03  0.91801380910E+03  0.12716347843E+04  0.79154939262E+02 0.  0.
        254    2    1    2    0    0 -0.68840414600E+03 -0.54234665878E+03 -0.11069374684E+03  0.12573772686E+04  0.89482083324E+03 0.  0.
         23    2    4    4    0    0 -0.26088641033E+02  0.11846745060E+03  0.21173666363E+03  0.26340894298E+03  0.99180151632E+02 0.  0.
         23    2    4    4    0    0 -0.66231550497E+03 -0.66081410937E+03 -0.32243041046E+03  0.99396832567E+03  0.93137251234E+02 0.  0.
          4    1    3    3  502    0  0.52812894928E+03  0.45201389505E+03  0.70312870219E+03  0.98875007977E+03  0.00000000000E+00 0. -1.
         -3    1    3    3    0  502  0.16027519672E+03  0.90332763728E+02  0.21488510691E+03  0.28288470453E+03  0.00000000000E+00 0.  1.
         13    1    5    5    0    0  0.87585243662E+01 -0.13370160983E+02  0.70774990433E+01  0.17480387481E+02  0.00000000000E+00 0. -1.
        -13    1    5    5    0    0 -0.34847165399E+02  0.13183761158E+03  0.20465916458E+03  0.24592855550E+03  0.00000000000E+00 0.  1.
          1    1    6    6  503    0 -0.17519247277E+03 -0.23564428038E+03 -0.98448211514E+02  0.30969772318E+03  0.00000000000E+00 0. -1.
         -1    1    6    6    0  503 -0.48712303219E+03 -0.42516982899E+03 -0.22398219895E+03  0.68427060248E+03  0.00000000000E+00 0.  1.
<mgrwt>
<rscale>  0 0.23966928E+04</rscale>
<asrwt>0</asrwt>
<pdfrwt beam="1">  1        2 0.13243785E+00 0.23966928E+04</pdfrwt>
<pdfrwt beam="2">  1       -1 0.25664093E+00 0.23966928E+04</pdfrwt>
<totfact> 0.20190405E+00</totfact>
</mgrwt>
</event>
<event>
12    7  0.1546317E-007  0.1045655E+04  0.7818608E-02  0.9259842E-01
         -1   -1    0    0    0  501 -0.00000000000E+00  0.00000000000E+00  0.13104418993E+03  0.13104418993E+03  0.00000000000E+00 0.  1.
          2   -1    0    0  501    0  0.00000000000E+00 -0.00000000000E+00 -0.20859257421E+04  0.20859257421E+04  0.00000000000E+00 0. -1.
         24    2    1    2    0    0  0.43737742036E+02  0.87906957997E+02 -0.39205011455E+03  0.41207363358E+03  0.80378876776E+02 0.  0.
        254    2    1    2    0    0 -0.43737742036E+02 -0.87906957997E+02 -0.15628314376E+04  0.18048962984E+04  0.89753435722E+03 0.  0.
         23    2    4    4    0    0  0.64858085043E+02  0.13700212445E+03 -0.15256337428E+04  0.15359987645E+04  0.93582767138E+02 0.  0.
         23    2    4    4    0    0 -0.10859582708E+03 -0.22490908244E+03 -0.37197694868E+02  0.26889753392E+03  0.92439527370E+02 0.  0.
          4    1    3    3  502    0  0.51107845377E+02  0.34559966156E+02 -0.29203802419E+03  0.29848385332E+03  0.00000000000E+00 0. -1.
         -3    1    3    3    0  502 -0.73701033407E+01  0.53346991841E+02 -0.10001209036E+03  0.11358978026E+03  0.00000000000E+00 0.  1.
         13    1    5    5    0    0  0.16419235546E+02  0.79637798437E+02 -0.11537477369E+04  0.11566095325E+04  0.00000000000E+00 0.  1.
        -13    1    5    5    0    0  0.48438849498E+02  0.57364326009E+02 -0.37188600581E+03  0.37938923200E+03  0.00000000000E+00 0. -1.
          3    1    6    6  503    0 -0.11324082323E+03 -0.14945436076E+03 -0.74515784949E+01  0.18765824261E+03  0.00000000000E+00 0. -1.
         -3    1    6    6    0  503  0.46449961545E+01 -0.75454721682E+02 -0.29746116373E+02  0.81239291310E+02  0.00000000000E+00 0.  1.
<mgrwt>
<rscale>  0 0.10456547E+04</rscale>
<asrwt>0</asrwt>
<pdfrwt beam="1">  1        2 0.32091162E+00 0.10456547E+04</pdfrwt>
<pdfrwt beam="2">  1       -1 0.20160647E-01 0.10456547E+04</pdfrwt>
<totfact> 0.13753922E+02</totfact>
</mgrwt>
</event>
<event>
12    7  0.1546317E-007  0.2335850E+04  0.7818608E-02  0.8463919E-01
         -1   -1    0    0    0  501 -0.00000000000E+00  0.00000000000E+00  0.24801702155E+04  0.24801702155E+04  0.00000000000E+00 0.  1.
          2   -1    0    0  501    0  0.00000000000E+00 -0.00000000000E+00 -0.54998170265E+03  0.54998170265E+03  0.00000000000E+00 0. -1.
         24    2    1    2    0    0  0.59945478145E+03  0.79584630223E+03  0.76939933679E+03  0.12614965129E+04  0.81735799247E+02 0.  0.
        254    2    1    2    0    0 -0.59945478145E+03 -0.79584630223E+03  0.11607891761E+04  0.17686554052E+04  0.88768973150E+03 0.  0.
         23    2    4    4    0    0 -0.12325660794E+03 -0.67086975089E+03  0.25412875859E+03  0.73308098332E+03  0.86993609568E+02 0.  0.
         23    2    4    4    0    0 -0.47619817351E+03 -0.12497655134E+03  0.90666041747E+03  0.10355744219E+04  0.89428361632E+02 0.  0.
          2    1    3    3  502    0  0.92529719554E+02  0.14100485676E+03  0.16787535064E+03  0.23796271133E+03  0.00000000000E+00 0. -1.
         -1    1    3    3    0  502  0.50692506189E+03  0.65484144547E+03  0.60152398615E+03  0.10235338016E+04  0.00000000000E+00 0.  1.
         13    1    5    5    0    0  0.11566702587E+02 -0.28025922694E+02  0.16985470138E+02  0.34752656696E+02  0.00000000000E+00 0. -1.
        -13    1    5    5    0    0 -0.13482331052E+03 -0.64284382819E+03  0.23714328846E+03  0.69832832662E+03  0.00000000000E+00 0.  1.
          1    1    6    6  503    0 -0.13677958234E+03 -0.59018662005E+02  0.34834752922E+03  0.37886390396E+03  0.00000000000E+00 0. -1.
         -1    1    6    6    0  503 -0.33941859117E+03 -0.65957889338E+02  0.55831288825E+03  0.65671051795E+03  0.00000000000E+00 0.  1.
<mgrwt>
<rscale>  0 0.23358495E+04</rscale>
<asrwt>0</asrwt>
<pdfrwt beam="1">  1        2 0.84612571E-01 0.23358495E+04</pdfrwt>
<pdfrwt beam="2">  1       -1 0.38156464E+00 0.23358495E+04</pdfrwt>
<totfact> 0.54276470E-01</totfact>
</mgrwt>
</event>
<event>
12    7  0.1546317E-007  0.1977416E+04  0.7818608E-02  0.8617253E-01
          2   -1    0    0  501    0  0.00000000000E+00  0.00000000000E+00  0.83772929251E+03  0.83772929251E+03  0.00000000000E+00 0. -1.
         -1   -1    0    0    0  501 -0.00000000000E+00 -0.00000000000E+00 -0.11668967217E+04  0.11668967217E+04  0.00000000000E+00 0.  1.
         24    2    1    2    0    0 -0.63779749674E+03 -0.42782673847E+03 -0.27663443382E+03  0.82047123050E+03  0.82613952261E+02 0.  0.
        254    2    1    2    0    0  0.63779749674E+03  0.42782673847E+03 -0.52532995352E+02  0.11841547837E+04  0.89980079526E+03 0.  0.
         23    2    4    4    0    0  0.41168005332E+03  0.97960347677E+02 -0.44188572296E+03  0.61853524432E+03  0.90808371259E+02 0.  0.
         23    2    4    4    0    0  0.22611744342E+03  0.32986639080E+03  0.38935272761E+03  0.56561953937E+03  0.91591390556E+02 0.  0.
          2    1    3    3  502    0 -0.85013482162E+02 -0.71814749519E+02 -0.12855365720E+02  0.11202638451E+03  0.00000000000E+00 0. -1.
         -1    1    3    3    0  502 -0.55278401457E+03 -0.35601198896E+03 -0.26377906810E+03  0.70844484599E+03  0.00000000000E+00 0.  1.
         13    1    5    5    0    0  0.39826064579E+03  0.10100610565E+03 -0.39603491808E+03  0.57066402699E+03  0.00000000000E+00 0. -1.
        -13    1    5    5    0    0  0.13419407530E+02 -0.30457579771E+01 -0.45850804885E+02  0.47871217331E+02  0.00000000000E+00 0.  1.
          1    1    6    6  503    0  0.18928903368E+03  0.30825165992E+03  0.37380962057E+03  0.52017598613E+03  0.00000000000E+00 0. -1.
         -1    1    6    6    0  503  0.36828409735E+02  0.21614730881E+02  0.15543107038E+02  0.45443553239E+02  0.00000000000E+00 0.  1.
<mgrwt>
<rscale>  0 0.19774161E+04</rscale>
<asrwt>0</asrwt>
<pdfrwt beam="1">  1        2 0.12888143E+00 0.19774161E+04</pdfrwt>
<pdfrwt beam="2">  1       -1 0.17952257E+00 0.19774161E+04</pdfrwt>
<totfact> 0.72127026E+00</totfact>
</mgrwt>
</event>
<event>
12    7  0.1546317E-007  0.1416385E+04  0.7818608E-02  0.8942043E-01
          2   -1    0    0  501    0  0.00000000000E+00  0.00000000000E+00  0.75001306689E+03  0.75001306689E+03  0.00000000000E+00 0. -1.
         -1   -1    0    0    0  501 -0.00000000000E+00 -0.00000000000E+00 -0.66870406328E+03  0.66870406328E+03  0.00000000000E+00 0.  1.
         24    2    1    2    0    0 -0.28753723626E+03 -0.20588180525E+03 -0.15471229305E+03  0.39735356483E+03  0.94281397407E+02 0.  0.
        254    2    1    2    0    0  0.28753723626E+03  0.20588180525E+03  0.23602129666E+03  0.10213635653E+04  0.92866167152E+03 0.  0.
         23    2    4    4    0    0  0.43580169180E+03 -0.23854755915E+03  0.19797849816E+03  0.54267483408E+03  0.92045843248E+02 0.  0.
         23    2    4    4    0    0 -0.14826445554E+03  0.44442936439E+03  0.38042798496E+02  0.47868873126E+03  0.90530868809E+02 0.  0.
          4    1    3    3  502    0  0.15481505566E+00  0.67818777365E+01 -0.84839787408E+01  0.10862583883E+02  0.00000000000E+00 0. -1.
         -1    1    3    3    0  502 -0.28769205132E+03 -0.21266368298E+03 -0.14622831431E+03  0.38649098095E+03  0.00000000000E+00 0.  1.
         13    1    5    5    0    0  0.20996131954E+03 -0.14797839716E+03  0.63249766263E+02  0.26454091302E+03  0.00000000000E+00 0.  1.
        -13    1    5    5    0    0  0.22584037225E+03 -0.90569161986E+02  0.13472873190E+03  0.27813392106E+03  0.00000000000E+00 0. -1.
          3    1    6    6  503    0 -0.59913912262E+02  0.71800255890E+02 -0.28050927823E+01  0.93556518608E+02  0.00000000000E+00 0. -1.
         -3    1    6    6    0  503 -0.88350543273E+02  0.37262910850E+03  0.40847891278E+02  0.38513221265E+03  0.00000000000E+00 0.  1.
<mgrwt>
<rscale>  0 0.14163852E+04</rscale>
<asrwt>0</asrwt>
<pdfrwt beam="1">  1        2 0.11538663E+00 0.14163852E+04</pdfrwt>
<pdfrwt beam="2">  1       -1 0.10287755E+00 0.14163852E+04</pdfrwt>
<totfact> 0.37181212E+01</totfact>
</mgrwt>
</event>
<event>
12    7  0.1546317E-007  0.1537783E+04  0.7818608E-02  0.8859710E-01
         -1   -1    0    0    0  501 -0.00000000000E+00  0.00000000000E+00  0.31383809745E+03  0.31383809745E+03  0.00000000000E+00 0.  1.
          2   -1    0    0  501    0  0.00000000000E+00 -0.00000000000E+00 -0.18837540170E+04  0.18837540170E+04  0.00000000000E+00 0. -1.
         24    2    1    2    0    0  0.53277754201E+02 -0.28166220175E+03 -0.10204006798E+04  0.10628110589E+04  0.78598248654E+02 0.  0.
        254    2    1    2    0    0 -0.53277754201E+02  0.28166220175E+03 -0.54951523981E+03  0.11347810556E+04  0.95057294843E+03 0.  0.
         23    2    4    4    0    0 -0.13476513388E+03 -0.17364040133E+03 -0.61540690322E+03  0.65932611727E+03  0.87593619060E+02 0.  0.
         23    2    4    4    0    0  0.81487379676E+02  0.45530260308E+03  0.65891663410E+02  0.47545493829E+03  0.88176151068E+02 0.  0.
          2    1    3    3  502    0  0.61142781324E+02 -0.27828041184E+03 -0.94755300538E+03  0.98946203835E+03  0.00000000000E+00 0. -1.
         -1    1    3    3    0  502 -0.78650271236E+01 -0.33817899121E+01 -0.72847674401E+02  0.73349020582E+02  0.00000000000E+00 0.  1.
         13    1    5    5    0    0 -0.65813307284E+01 -0.73896792184E+02 -0.19473697156E+03  0.20839034983E+03  0.00000000000E+00 0.  1.
        -13    1    5    5    0    0 -0.12818380315E+03 -0.99743609150E+02 -0.42066993167E+03  0.45093576745E+03  0.00000000000E+00 0. -1.
          1    1    6    6  503    0  0.65605636988E+02  0.13447036331E+03  0.18844476015E+02  0.15080282653E+03  0.00000000000E+00 0. -1.
         -1    1    6    6    0  503  0.15881742688E+02  0.32083223977E+03  0.47047187395E+02  0.32465211175E+03  0.00000000000E+00 0.  1.
<mgrwt>
<rscale>  0 0.15377825E+04</rscale>
<asrwt>0</asrwt>
<pdfrwt beam="1">  1        2 0.28980831E+00 0.15377825E+04</pdfrwt>
<pdfrwt beam="2">  1       -1 0.48282784E-01 0.15377825E+04</pdfrwt>
<totfact> 0.36501890E+01</totfact>
</mgrwt>
</event>
<event>
12    7  0.1546317E-007  0.1547826E+04  0.7818608E-02  0.8853258E-01
          2   -1    0    0  501    0  0.00000000000E+00  0.00000000000E+00  0.53715025062E+03  0.53715025062E+03  0.00000000000E+00 0. -1.
         -1   -1    0    0    0  501 -0.00000000000E+00 -0.00000000000E+00 -0.11150344116E+04  0.11150344116E+04  0.00000000000E+00 0.  1.
         24    2    1    2    0    0  0.10133500928E+03 -0.18708412484E+03  0.29849193818E+03  0.37518465402E+03  0.79980207429E+02 0.  0.
        254    2    1    2    0    0 -0.10133500928E+03  0.18708412484E+03 -0.87637609915E+03  0.12770000082E+04  0.90411542398E+03 0.  0.
         23    2    4    4    0    0 -0.47745155895E+03 -0.25402255279E+02 -0.47905339064E+03  0.68275115688E+03  0.89731407113E+02 0.  0.
         23    2    4    4    0    0  0.37611654967E+03  0.21248638012E+03 -0.39732270851E+03  0.59424885131E+03  0.93017428013E+02 0.  0.
          2    1    3    3  502    0  0.99827278743E+02 -0.10452026485E+03  0.18250428776E+03  0.23280418036E+03  0.00000000000E+00 0. -1.
         -1    1    3    3    0  502  0.15077305417E+01 -0.82563859994E+02  0.11598765042E+03  0.14238047366E+03  0.00000000000E+00 0.  1.
         13    1    5    5    0    0 -0.35660760235E+03 -0.28347001907E+02 -0.30087151773E+03  0.46743577608E+03  0.00000000000E+00 0. -1.
        -13    1    5    5    0    0 -0.12084395660E+03  0.29447466286E+01 -0.17818187291E+03  0.21531538081E+03  0.00000000000E+00 0.  1.
          1    1    6    6  503    0  0.25870601397E+03  0.13257115501E+03 -0.32080905068E+03  0.43292304143E+03  0.00000000000E+00 0. -1.
         -1    1    6    6    0  503  0.11741053569E+03  0.79915225118E+02 -0.76513657825E+02  0.16132580987E+03  0.00000000000E+00 0.  1.
<mgrwt>
<rscale>  0 0.15478256E+04</rscale>
<asrwt>0</asrwt>
<pdfrwt beam="1">  1        2 0.82638501E-01 0.15478256E+04</pdfrwt>
<pdfrwt beam="2">  1       -1 0.17154375E+00 0.15478256E+04</pdfrwt>
<totfact> 0.14932711E+01</totfact>
</mgrwt>
</event>
<event>
12    7  0.1546317E-007  0.2522964E+04  0.7818608E-02  0.8394850E-01
         -1   -1    0    0    0  501 -0.00000000000E+00  0.00000000000E+00  0.84434249511E+03  0.84434249511E+03  0.00000000000E+00 0.  1.
          2   -1    0    0  501    0  0.00000000000E+00 -0.00000000000E+00 -0.18847054850E+04  0.18847054850E+04  0.00000000000E+00 0. -1.
         24    2    1    2    0    0 -0.47585210272E+03  0.99062524108E+03 -0.42466503618E+03  0.11806732355E+04  0.76650532383E+02 0.  0.
        254    2    1    2    0    0  0.47585210272E+03 -0.99062524108E+03 -0.61569795368E+03  0.15483747446E+04  0.90033704112E+03 0.  0.
         23    2    4    4    0    0  0.43181402454E+03 -0.11890197439E+03 -0.47626749470E+03  0.66000501741E+03  0.90414961163E+02 0.  0.
         23    2    4    4    0    0  0.44038078181E+02 -0.87172326670E+03 -0.13943045898E+03  0.88836972719E+03  0.88989399706E+02 0.  0.
          4    1    3    3  502    0 -0.19007474536E+03  0.42498244162E+03 -0.14173689011E+03  0.48664959727E+03  0.00000000000E+00 0. -1.
         -3    1    3    3    0  502 -0.28577735736E+03  0.56564279947E+03 -0.28292814607E+03  0.69402363822E+03  0.00000000000E+00 0.  1.
         13    1    5    5    0    0  0.15720418468E+03 -0.36369076698E+02 -0.23609430812E+03  0.28596571079E+03  0.00000000000E+00 0. -1.
        -13    1    5    5    0    0  0.27460983985E+03 -0.82532897689E+02 -0.24017318658E+03  0.37403930662E+03  0.00000000000E+00 0.  1.
          3    1    6    6  503    0 -0.11499224151E+01  0.19794330499E+01 -0.13837814978E+01  0.26749444842E+01  0.00000000000E+00 0. -1.
         -3    1    6    6    0  503  0.45188000596E+02 -0.87370269975E+03 -0.13804667749E+03  0.88569478270E+03  0.00000000000E+00 0.  1.
<mgrwt>
<rscale>  0 0.25229641E+04</rscale>
<asrwt>0</asrwt>
<pdfrwt beam="1">  1        2 0.28995469E+00 0.25229641E+04</pdfrwt>
<pdfrwt beam="2">  1       -1 0.12989885E+00 0.25229641E+04</pdfrwt>
<totfact> 0.39862874E+00</totfact>
</mgrwt>
</event>
<event>
12    7  0.1546317E-007  0.1558593E+04  0.7818608E-02  0.8846398E-01
          2   -1    0    0  501    0  0.00000000000E+00  0.00000000000E+00  0.11884459191E+04  0.11884459191E+04  0.00000000000E+00 0. -1.
         -1   -1    0    0    0  501 -0.00000000000E+00 -0.00000000000E+00 -0.51100602835E+03  0.51100602835E+03  0.00000000000E+00 0.  1.
         24    2    1    2    0    0 -0.73617428715E+02 -0.25305046082E+03  0.70702080616E+03  0.75874472905E+03  0.79756391474E+02 0.  0.
        254    2    1    2    0    0  0.73617428715E+02  0.25305046082E+03 -0.29580915396E+02  0.94070721841E+03  0.90255247974E+03 0.  0.
         23    2    4    4    0    0 -0.40669882468E+03  0.13165508276E+03 -0.17303919929E+00  0.43742701319E+03  0.92765117940E+02 0.  0.
         23    2    4    4    0    0  0.48031625340E+03  0.12139537806E+03 -0.29407876197E+02  0.50328020523E+03  0.83579906070E+02 0.  0.
          2    1    3    3  502    0 -0.21790425556E+02 -0.85756399413E+02  0.35095798358E+03  0.36193989684E+03  0.00000000000E+00 0. -1.
         -1    1    3    3    0  502 -0.51827003159E+02 -0.16729406141E+03  0.35606282258E+03  0.39680483221E+03  0.00000000000E+00 0.  1.
         13    1    5    5    0    0 -0.31179769446E+03  0.67901550206E+02  0.25930649295E+02  0.32015749462E+03  0.00000000000E+00 0.  1.
        -13    1    5    5    0    0 -0.94901130227E+02  0.63753532556E+02 -0.26103688494E+02  0.11726951857E+03  0.00000000000E+00 0. -1.
          1    1    6    6  503    0  0.26779759500E+02 -0.12361640114E+02  0.32811649972E+00  0.29497005367E+02  0.00000000000E+00 0. -1.
         -1    1    6    6    0  503  0.45353649390E+03  0.13375701817E+03 -0.29735992697E+02  0.47378319986E+03  0.00000000000E+00 0.  1.
<mgrwt>
<rscale>  0 0.15585930E+04</rscale>
<asrwt>0</asrwt>
<pdfrwt beam="1">  1        2 0.18283783E+00 0.15585930E+04</pdfrwt>
<pdfrwt beam="2">  1       -1 0.78616313E-01 0.15585930E+04</pdfrwt>
<totfact> 0.34179698E+01</totfact>
</mgrwt>
</event>
<event>
12    7  0.1589982E-007  0.2503561E+04  0.7818608E-02  0.8401718E-01
         -1   -1    0    0    0  501 -0.00000000000E+00  0.00000000000E+00  0.13495457721E+04  0.13495457721E+04  0.00000000000E+00 0.  1.
          2   -1    0    0  501    0  0.00000000000E+00 -0.00000000000E+00 -0.11610974358E+04  0.11610974358E+04  0.00000000000E+00 0. -1.
         24    2    1    2    0    0  0.46520023018E+03 -0.37664412769E+03  0.99648221621E+03  0.11646877988E+04  0.72448659915E+02 0.  0.
        254    2    1    2    0    0 -0.46520023018E+03  0.37664412769E+03 -0.80803387995E+03  0.13459554091E+04  0.89465365308E+03 0.  0.
         23    2    4    4    0    0 -0.11439216154E+03  0.37210887022E+03 -0.89019309372E+03  0.97641717754E+03  0.96933908313E+02 0.  0.
         23    2    4    4    0    0 -0.35080806864E+03  0.45352574727E+01  0.82159213771E+02  0.36953823152E+03  0.81984745930E+02 0.  0.
          2    1    3    3  502    0  0.36987741971E+02 -0.57237164286E+02  0.12941224320E+03  0.14625906714E+03  0.00000000000E+00 0. -1.
         -1    1    3    3    0  502  0.42821248821E+03 -0.31940696340E+03  0.86706997301E+03  0.10184287316E+04  0.00000000000E+00 0.  1.
         13    1    5    5    0    0 -0.12634938287E+03  0.36706481291E+03 -0.86082179930E+03  0.94430657817E+03  0.00000000000E+00 0.  1.
        -13    1    5    5    0    0  0.11957221333E+02  0.50440573055E+01 -0.29371294416E+02  0.32110599368E+02  0.00000000000E+00 0. -1.
          1    1    6    6  503    0 -0.11483918339E+02 -0.17183787588E+01  0.21985056518E+02  0.24863143729E+02  0.00000000000E+00 0. -1.
         -1    1    6    6    0  503 -0.33932415030E+03  0.62536362315E+01  0.60174157253E+02  0.34467508779E+03  0.00000000000E+00 0.  1.
<mgrwt>
<rscale>  0 0.25035608E+04</rscale>
<asrwt>0</asrwt>
<pdfrwt beam="1">  1        2 0.17863037E+00 0.25035608E+04</pdfrwt>
<pdfrwt beam="2">  1       -1 0.20762243E+00 0.25035608E+04</pdfrwt>
<totfact> 0.27107088E+00</totfact>
</mgrwt>
</event>
<event>
12    7  0.1546317E-007  0.1264454E+04  0.7818608E-02  0.9058238E-01
          2   -1    0    0  501    0  0.00000000000E+00  0.00000000000E+00  0.20812171204E+04  0.20812171204E+04  0.00000000000E+00 0. -1.
         -1   -1    0    0    0  501 -0.00000000000E+00 -0.00000000000E+00 -0.19205637669E+03  0.19205637669E+03  0.00000000000E+00 0.  1.
         24    2    1    2    0    0  0.32358639593E+02 -0.22008425676E+03  0.11472653443E+03  0.26301131011E+03  0.80799813835E+02 0.  0.
        254    2    1    2    0    0 -0.32358639593E+02  0.22008425676E+03  0.17744342093E+04  0.20102621869E+04  0.91817925029E+03 0.  0.
         23    2    4    4    0    0 -0.30226332911E+03  0.36533243973E+03  0.15352570440E+04  0.16093092330E+04  0.89616430893E+02 0.  0.
         23    2    4    4    0    0  0.26990468952E+03 -0.14524818298E+03  0.23917716524E+03  0.40095295391E+03  0.98040699673E+02 0.  0.
          2    1    3    3  502    0  0.20462532793E+02 -0.50611107287E+02  0.67237379070E+02  0.86608686478E+02  0.00000000000E+00 0. -1.
         -1    1    3    3    0  502  0.11896106800E+02 -0.16947314947E+03  0.47489155359E+02  0.17640262363E+03  0.00000000000E+00 0.  1.
         13    1    5    5    0    0 -0.92587983415E+02  0.15233490704E+03  0.46158280343E+03  0.49481020906E+03  0.00000000000E+00 0. -1.
        -13    1    5    5    0    0 -0.20967534570E+03  0.21299753269E+03  0.10736742406E+04  0.11144990240E+04  0.00000000000E+00 0.  1.
          4    1    6    6  503    0  0.53265518626E+02 -0.61505141355E+02  0.10460260314E+03  0.13252095106E+03  0.00000000000E+00 0. -1.
         -4    1    6    6    0  503  0.21663917090E+03 -0.83743041623E+02  0.13457456210E+03  0.26843200284E+03  0.00000000000E+00 0.  1.
<mgrwt>
<rscale>  0 0.12644541E+04</rscale>
<asrwt>0</asrwt>
<pdfrwt beam="1">  1        2 0.32018723E+00 0.12644541E+04</pdfrwt>
<pdfrwt beam="2">  1       -1 0.29547136E-01 0.12644541E+04</pdfrwt>
<totfact> 0.70713653E+01</totfact>
</mgrwt>
</event>
<event>
12    7  0.1546317E-007  0.1432304E+04  0.7818608E-02  0.8930762E-01
          2   -1    0    0  501    0  0.00000000000E+00  0.00000000000E+00  0.15768614775E+04  0.15768614775E+04  0.00000000000E+00 0. -1.
         -1   -1    0    0    0  501 -0.00000000000E+00 -0.00000000000E+00 -0.32524950972E+03  0.32524950972E+03  0.00000000000E+00 0.  1.
         24    2    1    2    0    0 -0.28695313118E+03  0.26041659775E+03  0.15514406813E+03  0.42502224739E+03  0.80095724135E+02 0.  0.
        254    2    1    2    0    0  0.28695313118E+03 -0.26041659775E+03  0.10964678997E+04  0.14770887399E+04  0.91070872758E+03 0.  0.
         23    2    4    4    0    0  0.59382598492E+03 -0.28066076918E+03  0.82005113920E+03  0.10544662432E+04  0.89528875158E+02 0.  0.
         23    2    4    4    0    0 -0.30687285374E+03  0.20244171429E+02  0.27641676049E+03  0.42262249663E+03  0.87308500947E+02 0.  0.
          4    1    3    3  502    0 -0.25244353765E+03  0.20227026188E+03  0.15178508292E+03  0.35732297707E+03  0.00000000000E+00 0. -1.
         -3    1    3    3    0  502 -0.34509593529E+02  0.58146335876E+02  0.33589852077E+01  0.67699270328E+02  0.00000000000E+00 0.  1.
         13    1    5    5    0    0  0.31543707631E+03 -0.14321634346E+03  0.36146563338E+03  0.50066842746E+03  0.00000000000E+00 0. -1.
        -13    1    5    5    0    0  0.27838890861E+03 -0.13744442573E+03  0.45858550582E+03  0.55379781577E+03  0.00000000000E+00 0.  1.
          1    1    6    6  503    0 -0.29527014452E+03  0.36075386718E+02  0.24404298613E+03  0.38476339594E+03  0.00000000000E+00 0. -1.
         -1    1    6    6    0  503 -0.11602709213E+02 -0.15831215289E+02  0.32373774365E+02  0.37859100692E+02  0.00000000000E+00 0.  1.
<mgrwt>
<rscale>  0 0.14323036E+04</rscale>
<asrwt>0</asrwt>
<pdfrwt beam="1">  1        2 0.24259407E+00 0.14323036E+04</pdfrwt>
<pdfrwt beam="2">  1       -1 0.50038387E-01 0.14323036E+04</pdfrwt>
<totfact> 0.50945752E+01</totfact>
</mgrwt>
</event>
<event>
12    7  0.1546317E-007  0.2407705E+04  0.7818608E-02  0.8436624E-01
          2   -1    0    0  501    0  0.00000000000E+00  0.00000000000E+00  0.93546447490E+03  0.93546447490E+03  0.00000000000E+00 0. -1.
         -1   -1    0    0    0  501 -0.00000000000E+00 -0.00000000000E+00 -0.15492423579E+04  0.15492423579E+04  0.00000000000E+00 0.  1.
         24    2    1    2    0    0 -0.65307748316E+03 -0.49389027970E+03 -0.92607178272E+03  0.12387567977E+04  0.80446563819E+02 0.  0.
        254    2    1    2    0    0  0.65307748316E+03  0.49389027970E+03  0.31229389969E+03  0.12459500352E+04  0.88567838572E+03 0.  0.
         23    2    4    4    0    0 -0.13363867386E+03  0.24882465644E+03  0.29313065618E+03  0.41667243744E+03  0.88979400573E+02 0.  0.
         23    2    4    4    0    0  0.78671615702E+03  0.24506562327E+03  0.19163243512E+02  0.82927759772E+03  0.91403680233E+02 0.  0.
          2    1    3    3  502    0 -0.13818920499E+03 -0.10723937270E+03 -0.25000493138E+03  0.30512129579E+03  0.00000000000E+00 0. -1.
         -1    1    3    3    0  502 -0.51488827817E+03 -0.38665090701E+03 -0.67606685134E+03  0.93363550188E+03  0.00000000000E+00 0.  1.
         13    1    5    5    0    0 -0.65020512275E+02  0.70880582372E+02  0.52342357551E+02  0.10950546273E+03  0.00000000000E+00 0.  1.
        -13    1    5    5    0    0 -0.68618161583E+02  0.17794407407E+03  0.24078829863E+03  0.30716697471E+03  0.00000000000E+00 0. -1.
          2    1    6    6  503    0  0.24189207615E+03  0.45010286409E+02 -0.24408784285E+02  0.24725187792E+03  0.00000000000E+00 0. -1.
         -2    1    6    6    0  503  0.54482408087E+03  0.20005533686E+03  0.43572027797E+02  0.58202571980E+03  0.00000000000E+00 0.  1.
<mgrwt>
<rscale>  0 0.24077053E+04</rscale>
<asrwt>0</asrwt>
<pdfrwt beam="1">  1        2 0.14391761E+00 0.24077053E+04</pdfrwt>
<pdfrwt beam="2">  1       -1 0.23834498E+00 0.24077053E+04</pdfrwt>
<totfact> 0.23647031E+00</totfact>
</mgrwt>
</event>
<event>
12    7  0.1546317E-007  0.1372117E+04  0.7818608E-02  0.8974252E-01
          2   -1    0    0  501    0  0.00000000000E+00  0.00000000000E+00  0.22526554711E+04  0.22526554711E+04  0.00000000000E+00 0. -1.
         -1   -1    0    0    0  501 -0.00000000000E+00 -0.00000000000E+00 -0.20894300725E+03  0.20894300725E+03  0.00000000000E+00 0.  1.
         24    2    1    2    0    0  0.25668678638E+03  0.29620482432E+03  0.61479403423E+03  0.73343829565E+03  0.79590355873E+02 0.  0.
        254    2    1    2    0    0 -0.25668678638E+03 -0.29620482432E+03  0.14289184297E+04  0.17281601828E+04  0.88944046139E+03 0.  0.
         23    2    4    4    0    0  0.23848049622E+03 -0.92883019931E+02  0.96371038651E+02  0.28912357127E+03  0.93834215015E+02 0.  0.
         23    2    4    4    0    0 -0.49516728260E+03 -0.20332180438E+03  0.13325473910E+04  0.14390366115E+04  0.92808544774E+02 0.  0.
          2    1    3    3  502    0  0.10260918499E+02  0.19777334239E+01  0.46692681509E+02  0.47847720786E+02  0.00000000000E+00 0. -1.
         -1    1    3    3    0  502  0.24642586788E+03  0.29422709089E+03  0.56810135272E+03  0.68559057486E+03  0.00000000000E+00 0.  1.
         13    1    5    5    0    0  0.32500873968E+02 -0.53865361725E+02  0.20268114067E+02  0.66095237727E+02  0.00000000000E+00 0.  1.
        -13    1    5    5    0    0  0.20597962225E+03 -0.39017658206E+02  0.76102924584E+02  0.22302833355E+03  0.00000000000E+00 0. -1.
          3    1    6    6  503    0 -0.32521849882E+03 -0.15411503507E+03  0.99211985912E+03  0.10553768667E+04  0.00000000000E+00 0. -1.
         -3    1    6    6    0  503 -0.16994878378E+03 -0.49206769313E+02  0.34042753190E+03  0.38365974473E+03  0.00000000000E+00 0.  1.
<mgrwt>
<rscale>  0 0.13721175E+04</rscale>
<asrwt>0</asrwt>
<pdfrwt beam="1">  1        2 0.34656236E+00 0.13721175E+04</pdfrwt>
<pdfrwt beam="2">  1       -1 0.32145080E-01 0.13721175E+04</pdfrwt>
<totfact> 0.48482105E+01</totfact>
</mgrwt>
</event>
<event>
12    7  0.1546317E-007  0.1999325E+04  0.7818608E-02  0.8606936E-01
          2   -1    0    0  501    0  0.00000000000E+00  0.00000000000E+00  0.39749412236E+04  0.39749412236E+04  0.00000000000E+00 0. -1.
         -1   -1    0    0    0  501 -0.00000000000E+00 -0.00000000000E+00 -0.25140623273E+03  0.25140623273E+03  0.00000000000E+00 0.  1.
         24    2    1    2    0    0  0.87864919551E+02 -0.53809694831E+03  0.25841936339E+03  0.60876245433E+03  0.80886269286E+02 0.  0.
        254    2    1    2    0    0 -0.87864919551E+02  0.53809694831E+03  0.34651156275E+04  0.36175850020E+04  0.88466172354E+03 0.  0.
         23    2    4    4    0    0 -0.83754756364E+02  0.30518097941E+03  0.30901188149E+03  0.45161748386E+03  0.91212495929E+02 0.  0.
         23    2    4    4    0    0 -0.41101631872E+01  0.23291596889E+03  0.31561037460E+04  0.31659675181E+04  0.89959594071E+02 0.  0.
          2    1    3    3  502    0 -0.55620934471E+01 -0.20940291948E+03  0.98123295799E+02  0.23131947767E+03  0.00000000000E+00 0. -1.
         -1    1    3    3    0  502  0.93427012998E+02 -0.32869402882E+03  0.16029606759E+03  0.37744297666E+03  0.00000000000E+00 0.  1.
         13    1    5    5    0    0 -0.16969771283E+02  0.20310853126E+03  0.16044640388E+03  0.25939178307E+03  0.00000000000E+00 0.  1.
        -13    1    5    5    0    0 -0.66784985080E+02  0.10207244815E+03  0.14856547761E+03  0.19222570078E+03  0.00000000000E+00 0. -1.
          2    1    6    6  503    0 -0.25392292674E+02  0.42920839927E+02  0.10568759393E+04  0.10580518504E+04  0.00000000000E+00 0. -1.
         -2    1    6    6    0  503  0.21282129487E+02  0.18999512897E+03  0.20992278067E+04  0.21079156677E+04  0.00000000000E+00 0.  1.
<mgrwt>
<rscale>  0 0.19993249E+04</rscale>
<asrwt>0</asrwt>
<pdfrwt beam="1">  1        2 0.61152937E+00 0.19993249E+04</pdfrwt>
<pdfrwt beam="2">  1       -1 0.38677885E-01 0.19993249E+04</pdfrwt>
<totfact> 0.24803675E+00</totfact>
</mgrwt>
</event>
<event>
12    7  0.1546317E-007  0.2306006E+04  0.7818608E-02  0.8475557E-01
          2   -1    0    0  501    0  0.00000000000E+00  0.00000000000E+00  0.18293523539E+04  0.18293523539E+04  0.00000000000E+00 0. -1.
         -3   -1    0    0    0  501 -0.00000000000E+00 -0.00000000000E+00 -0.72671424093E+03  0.72671424093E+03  0.00000000000E+00 0.  1.
         24    2    1    2    0    0 -0.10860742994E+03  0.67888360952E+03 -0.29337004374E+03  0.75185486072E+03  0.80877808560E+02 0.  0.
        254    2    1    2    0    0  0.10860742994E+03 -0.67888360952E+03  0.13960081567E+04  0.18042117341E+04  0.91305130130E+03 0.  0.
         23    2    4    4    0    0 -0.20015626549E+02 -0.42422454656E+03  0.14374792954E+04  0.15019905044E+04  0.96237515270E+02 0.  0.
         23    2    4    4    0    0  0.12862305649E+03 -0.25465906296E+03 -0.41471138714E+02  0.30222122970E+03  0.90679034671E+02 0.  0.
          2    1    3    3  502    0 -0.56734661786E+02  0.26546069607E+03 -0.15622337837E+03  0.31319953218E+03  0.00000000000E+00 0. -1.
         -1    1    3    3    0  502 -0.51872768156E+02  0.41342291345E+03 -0.13714666537E+03  0.43865532854E+03  0.00000000000E+00 0.  1.
         13    1    5    5    0    0 -0.26528614776E+02 -0.72915690993E+02  0.17306285311E+03  0.18966079331E+03  0.00000000000E+00 0. -1.
        -13    1    5    5    0    0  0.65129882264E+01 -0.35130885557E+03  0.12644164423E+04  0.13123297111E+04  0.00000000000E+00 0.  1.
          4    1    6    6  503    0 -0.98037950192E+01 -0.36328908304E+02  0.93161262584E+01  0.38764599621E+02  0.00000000000E+00 0. -1.
         -4    1    6    6    0  503  0.13842685151E+03 -0.21833015466E+03 -0.50787264972E+02  0.26345663008E+03  0.00000000000E+00 0.  1.
<mgrwt>
<rscale>  0 0.23060064E+04</rscale>
<asrwt>0</asrwt>
<pdfrwt beam="1">  1        2 0.28143882E+00 0.23060064E+04</pdfrwt>
<pdfrwt beam="2">  1       -3 0.11180219E+00 0.23060064E+04</pdfrwt>
<totfact> 0.32156995E+00</totfact>
</mgrwt>
</event>
<event>
12    7  0.1546317E-007  0.3379124E+04  0.7818608E-02  0.8143049E-01
          2   -1    0    0  501    0  0.00000000000E+00  0.00000000000E+00  0.96899348762E+03  0.96899348762E+03  0.00000000000E+00 0. -1.
         -1   -1    0    0    0  501 -0.00000000000E+00 -0.00000000000E+00 -0.29459634688E+04  0.29459634688E+04  0.00000000000E+00 0.  1.
         24    2    1    2    0    0 -0.16569092171E+03 -0.16926339360E+03  0.87765735943E+03  0.91263738787E+03  0.80752605086E+02 0.  0.
        254    2    1    2    0    0  0.16569092171E+03  0.16926339360E+03 -0.28546273406E+04  0.30023195686E+04  0.89940088953E+03 0.  0.
         23    2    4    4    0    0  0.31250707888E+03  0.24429098072E+03 -0.52386631726E+03  0.66389114511E+03  0.94745852589E+02 0.  0.
         23    2    4    4    0    0 -0.14681615717E+03 -0.75027587118E+02 -0.23307610234E+04  0.23384284235E+04  0.92824677900E+02 0.  0.
          2    1    3    3  502    0 -0.11425154938E+03 -0.59398729213E+02  0.43515123565E+03  0.45380416862E+03  0.00000000000E+00 0. -1.
         -1    1    3    3    0  502 -0.51439372327E+02 -0.10986466439E+03  0.44250612378E+03  0.45883321925E+03  0.00000000000E+00 0.  1.
         13    1    5    5    0    0  0.26979774165E+03  0.24591949193E+03 -0.47094571184E+03  0.59586666412E+03  0.00000000000E+00 0.  1.
        -13    1    5    5    0    0  0.42709337228E+02 -0.16285112148E+01 -0.52920605419E+02  0.68024480984E+02  0.00000000000E+00 0. -1.
          2    1    6    6  503    0  0.58345547625E+01 -0.24996256329E+02 -0.48976160594E+03  0.49043377281E+03  0.00000000000E+00 0. -1.
         -2    1    6    6    0  503 -0.15265071194E+03 -0.50031330788E+02 -0.18409994174E+04  0.18479946506E+04  0.00000000000E+00 0.  1.
<mgrwt>
<rscale>  0 0.33791238E+04</rscale>
<asrwt>0</asrwt>
<pdfrwt beam="1">  1        2 0.14907592E+00 0.33791238E+04</pdfrwt>
<pdfrwt beam="2">  1       -1 0.45322515E+00 0.33791238E+04</pdfrwt>
<totfact> 0.76625154E-02</totfact>
</mgrwt>
</event>
<event>
12    7  0.1546317E-007  0.1432413E+04  0.7818608E-02  0.8930685E-01
          2   -1    0    0  501    0  0.00000000000E+00  0.00000000000E+00  0.27393114048E+03  0.27393114048E+03  0.00000000000E+00 0. -1.
         -1   -1    0    0    0  501 -0.00000000000E+00 -0.00000000000E+00 -0.18725562482E+04  0.18725562482E+04  0.00000000000E+00 0.  1.
         24    2    1    2    0    0 -0.37526259953E+03  0.61878145792E+02 -0.80433518634E+03  0.89337756380E+03  0.80730762371E+02 0.  0.
        254    2    1    2    0    0  0.37526259953E+03 -0.61878145792E+02 -0.79428992139E+03  0.12531098249E+04  0.89148013465E+03 0.  0.
         23    2    4    4    0    0  0.37319841248E+02  0.22756630576E+03  0.87144094194E+02  0.26163628940E+03  0.87637096640E+02 0.  0.
         23    2    4    4    0    0  0.33794275828E+03 -0.28944445155E+03 -0.88143401559E+03  0.99147353549E+03  0.90058033162E+02 0.  0.
          4    1    3    3  502    0 -0.33506055032E+03  0.62117124059E+02 -0.65022017016E+03  0.73410515539E+03  0.00000000000E+00 0. -1.
         -3    1    3    3    0  502 -0.40202049208E+02 -0.23897826732E+00 -0.15411501617E+03  0.15927240841E+03  0.00000000000E+00 0.  1.
         13    1    5    5    0    0 -0.80111586028E+01  0.13482162302E+02 -0.13572740877E+02  0.20740459431E+02  0.00000000000E+00 0.  1.
        -13    1    5    5    0    0  0.45330999851E+02  0.21408414346E+03  0.10071683507E+03  0.24089582996E+03  0.00000000000E+00 0. -1.
          1    1    6    6  503    0  0.28495676034E+03 -0.27391291778E+03 -0.72756145360E+03  0.82799414887E+03  0.00000000000E+00 0. -1.
         -1    1    6    6    0  503  0.52985997944E+02 -0.15531533770E+02 -0.15387256199E+03  0.16347938663E+03  0.00000000000E+00 0.  1.
<mgrwt>
<rscale>  0 0.14324126E+04</rscale>
<asrwt>0</asrwt>
<pdfrwt beam="1">  1        2 0.42143253E-01 0.14324126E+04</pdfrwt>
<pdfrwt beam="2">  1       -1 0.28808557E+00 0.14324126E+04</pdfrwt>
<totfact> 0.53462250E+00</totfact>
</mgrwt>
</event>
<event>
12    7  0.1546317E-007  0.2147116E+04  0.7818608E-02  0.8540768E-01
          2   -1    0    0  501    0  0.00000000000E+00  0.00000000000E+00  0.38385215620E+04  0.38385215620E+04  0.00000000000E+00 0. -1.
         -1   -1    0    0    0  501 -0.00000000000E+00 -0.00000000000E+00 -0.30025283229E+03  0.30025283229E+03  0.00000000000E+00 0.  1.
         24    2    1    2    0    0 -0.63010084358E+03  0.42965118337E+03  0.60330736109E+03  0.97583018821E+03  0.81471294594E+02 0.  0.
        254    2    1    2    0    0  0.63010084358E+03 -0.42965118337E+03  0.29349613686E+04  0.31629442061E+04  0.89921666074E+03 0.  0.
         23    2    4    4    0    0  0.27657453739E+02 -0.50494678392E+02  0.19012857121E+04  0.19044531817E+04  0.93487513601E+02 0.  0.
         23    2    4    4    0    0  0.60244338984E+03 -0.37915650498E+03  0.10336756565E+04  0.12584910243E+04  0.92825654616E+02 0.  0.
          2    1    3    3  502    0 -0.16427685566E+03  0.72528444701E+02  0.12746596565E+03  0.22021542406E+03  0.00000000000E+00 0. -1.
         -1    1    3    3    0  502 -0.46582398792E+03  0.35712273867E+03  0.47584139544E+03  0.75561476415E+03  0.00000000000E+00 0.  1.
         13    1    5    5    0    0 -0.25447233265E+02 -0.40178109391E+02  0.53911401039E+03  0.54120768504E+03  0.00000000000E+00 0. -1.
        -13    1    5    5    0    0  0.53104687004E+02 -0.10316569001E+02  0.13621717017E+04  0.13632454967E+04  0.00000000000E+00 0.  1.
          3    1    6    6  503    0  0.35545349004E+03 -0.17494181312E+03  0.53504415109E+03  0.66575075304E+03  0.00000000000E+00 0. -1.
         -3    1    6    6    0  503  0.24698989980E+03 -0.20421469186E+03  0.49863150546E+03  0.59274027129E+03  0.00000000000E+00 0.  1.
<mgrwt>
<rscale>  0 0.21471162E+04</rscale>
<asrwt>0</asrwt>
<pdfrwt beam="1">  1        2 0.59054174E+00 0.21471162E+04</pdfrwt>
<pdfrwt beam="2">  1       -1 0.46192746E-01 0.21471162E+04</pdfrwt>
<totfact> 0.22500928E+00</totfact>
</mgrwt>
</event>
<event>
12    7  0.1546317E-007  0.2381482E+04  0.7818608E-02  0.8446469E-01
          2   -1    0    0  501    0  0.00000000000E+00  0.00000000000E+00  0.21316558342E+04  0.21316558342E+04  0.00000000000E+00 0. -1.
         -1   -1    0    0    0  501 -0.00000000000E+00 -0.00000000000E+00 -0.66514663105E+03  0.66514663105E+03  0.00000000000E+00 0.  1.
         24    2    1    2    0    0  0.72051555113E+02  0.67970887404E+03  0.15044061749E+04  0.16546396363E+04  0.86016317011E+02 0.  0.
        254    2    1    2    0    0 -0.72051555113E+02 -0.67970887404E+03 -0.37896971764E+02  0.11421628290E+04  0.91427794864E+03 0.  0.
         23    2    4    4    0    0 -0.11614429714E+03 -0.62815858950E+03  0.35268223922E+03  0.73642287152E+03  0.99303436544E+02 0.  0.
         23    2    4    4    0    0  0.44092742028E+02 -0.51550284537E+02 -0.39057921099E+03  0.40573995745E+03  0.86436053128E+02 0.  0.
          4    1    3    3  502    0  0.76364384158E+02  0.42506068860E+03  0.87891551548E+03  0.97928575579E+03  0.00000000000E+00 0. -1.
         -3    1    3    3    0  502 -0.43128290444E+01  0.25464818544E+03  0.62549065946E+03  0.67535388051E+03  0.00000000000E+00 0.  1.
         13    1    5    5    0    0 -0.74389338349E+02 -0.55893404366E+03  0.32584650184E+03  0.65124264417E+03  0.00000000000E+00 0. -1.
        -13    1    5    5    0    0 -0.41754958793E+02 -0.69224545842E+02  0.26835737389E+02  0.85180227354E+02  0.00000000000E+00 0.  1.
          3    1    6    6  503    0 -0.12409684183E+02 -0.47188494357E+02 -0.23861974176E+03  0.24355725286E+03  0.00000000000E+00 0. -1.
         -3    1    6    6    0  503  0.56502426211E+02 -0.43617901793E+01 -0.15195946922E+03  0.16218270459E+03  0.00000000000E+00 0.  1.
<mgrwt>
<rscale>  0 0.23814816E+04</rscale>
<asrwt>0</asrwt>
<pdfrwt beam="1">  1        2 0.32794705E+00 0.23814816E+04</pdfrwt>
<pdfrwt beam="2">  1       -1 0.10233025E+00 0.23814816E+04</pdfrwt>
<totfact> 0.52241648E+00</totfact>
</mgrwt>
</event>
<event>
12    7  0.1546317E-007  0.2298309E+04  0.7818608E-02  0.8478588E-01
          2   -1    0    0  501    0  0.00000000000E+00  0.00000000000E+00  0.15657955258E+04  0.15657955258E+04  0.00000000000E+00 0. -1.
         -1   -1    0    0    0  501 -0.00000000000E+00 -0.00000000000E+00 -0.84337739494E+03  0.84337739494E+03  0.00000000000E+00 0.  1.
         24    2    1    2    0    0 -0.16967313623E+03 -0.63821676427E+03  0.10527320738E+04  0.12452500823E+04  0.79330555459E+02 0.  0.
        254    2    1    2    0    0  0.16967313623E+03  0.63821676427E+03 -0.33031394295E+03  0.11639228384E+04  0.89972188003E+03 0.  0.
         23    2    4    4    0    0 -0.27425790880E+03  0.46133959761E+02 -0.29857328102E+03  0.41714399306E+03  0.86702733680E+02 0.  0.
         23    2    4    4    0    0  0.44393104502E+03  0.59208280451E+03 -0.31740661936E+02  0.74677884531E+03  0.95049219040E+02 0.  0.
          2    1    3    3  502    0 -0.53646597695E+02 -0.25567211342E+03  0.34958608717E+03  0.43641335837E+03  0.00000000000E+00 0. -1.
         -1    1    3    3    0  502 -0.11602653853E+03 -0.38254465086E+03  0.70314598660E+03  0.80883672395E+03  0.00000000000E+00 0.  1.
         13    1    5    5    0    0 -0.72753438915E+02 -0.24655328652E+02 -0.94032152386E+02  0.12142073047E+03  0.00000000000E+00 0.  1.
        -13    1    5    5    0    0 -0.20150446988E+03  0.70789288413E+02 -0.20454112863E+03  0.29572326259E+03  0.00000000000E+00 0. -1.
          2    1    6    6  503    0  0.44528120814E+03  0.56704449051E+03 -0.32190792227E+02  0.72170011476E+03  0.00000000000E+00 0. -1.
         -2    1    6    6    0  503 -0.13501631151E+01  0.25038314002E+02  0.45013029110E+00  0.25078730546E+02  0.00000000000E+00 0.  1.
<mgrwt>
<rscale>  0 0.22983094E+04</rscale>
<asrwt>0</asrwt>
<pdfrwt beam="1">  1        2 0.24089162E+00 0.22983094E+04</pdfrwt>
<pdfrwt beam="2">  1       -1 0.12975037E+00 0.22983094E+04</pdfrwt>
<totfact> 0.61345570E+00</totfact>
</mgrwt>
</event>
<event>
12    7  0.1546317E-007  0.1600696E+04  0.7818608E-02  0.8820120E-01
          2   -1    0    0  501    0  0.00000000000E+00  0.00000000000E+00  0.22279641317E+04  0.22279641317E+04  0.00000000000E+00 0. -1.
         -1   -1    0    0    0  501 -0.00000000000E+00 -0.00000000000E+00 -0.28750783541E+03  0.28750783541E+03  0.00000000000E+00 0.  1.
         24    2    1    2    0    0  0.52579800656E+03 -0.10885062765E+01  0.87021548888E+03  0.10198205775E+04  0.79336528529E+02 0.  0.
        254    2    1    2    0    0 -0.52579800656E+03  0.10885062765E+01  0.10702408074E+04  0.14956513895E+04  0.90282499117E+03 0.  0.
         23    2    4    4    0    0 -0.76220065741E+03  0.88185087924E+02  0.85335599385E+03  0.11511941016E+04  0.91131528427E+02 0.  0.
         23    2    4    4    0    0  0.23640265085E+03 -0.87096581647E+02  0.21688481354E+03  0.34445728792E+03  0.90220690493E+02 0.  0.
          4    1    3    3  502    0  0.11527514829E+03 -0.91942292890E+01  0.13535207869E+03  0.17802550062E+03  0.00000000000E+00 0. -1.
         -3    1    3    3    0  502  0.41052285827E+03  0.81057230125E+01  0.73486341018E+03  0.84179507693E+03  0.00000000000E+00 0.  1.
         13    1    5    5    0    0 -0.69541349527E+03  0.53680892718E+02  0.77289778266E+03  0.10410823935E+04  0.00000000000E+00 0. -1.
        -13    1    5    5    0    0 -0.66787162136E+02  0.34504195206E+02  0.80458211188E+02  0.11011170810E+03  0.00000000000E+00 0.  1.
          4    1    6    6  503    0  0.35665794803E+02 -0.29299720444E+02  0.42043319434E+01  0.46348667124E+02  0.00000000000E+00 0. -1.
         -4    1    6    6    0  503  0.20073685605E+03 -0.57796861203E+02  0.21268048160E+03  0.29810862080E+03  0.00000000000E+00 0.  1.
<mgrwt>
<rscale>  0 0.16006963E+04</rscale>
<asrwt>0</asrwt>
<pdfrwt beam="1">  1        2 0.34276370E+00 0.16006963E+04</pdfrwt>
<pdfrwt beam="2">  1       -1 0.44231976E-01 0.16006963E+04</pdfrwt>
<totfact> 0.27527634E+01</totfact>
</mgrwt>
</event>
<event>
12    7  0.1546317E-007  0.1241058E+04  0.7818608E-02  0.9077658E-01
         -1   -1    0    0    0  501 -0.00000000000E+00  0.00000000000E+00  0.28010336855E+03  0.28010336855E+03  0.00000000000E+00 0.  1.
          2   -1    0    0  501    0  0.00000000000E+00 -0.00000000000E+00 -0.13746944389E+04  0.13746944389E+04  0.00000000000E+00 0. -1.
         24    2    1    2    0    0 -0.18342871945E+03 -0.45736181030E+02  0.20511674898E+02  0.21651260370E+03  0.10353301590E+03 0.  0.
        254    2    1    2    0    0  0.18342871945E+03  0.45736181030E+02 -0.11151027453E+04  0.14382852038E+04  0.88852253856E+03 0.  0.
         23    2    4    4    0    0  0.48842416321E+03 -0.16608058394E+03 -0.60137151539E+03  0.79795886126E+03  0.94602966003E+02 0.  0.
         23    2    4    4    0    0 -0.30499544376E+03  0.21181676497E+03 -0.51373122991E+03  0.64032634254E+03  0.90606212405E+02 0.  0.
          4    1    3    3  502    0  0.79174005140E+01  0.12520349393E+02 -0.30101175524E+01  0.15116388044E+02  0.00000000000E+00 0. -1.
         -3    1    3    3    0  502 -0.19134611996E+03 -0.58256530423E+02  0.23521792450E+02  0.20139621566E+03  0.00000000000E+00 0.  1.
         13    1    5    5    0    0  0.37679555628E+03 -0.12588316350E+03 -0.51868869746E+03  0.65334479944E+03  0.00000000000E+00 0. -1.
        -13    1    5    5    0    0  0.11162860693E+03 -0.40197420440E+02 -0.82682817925E+02  0.14461406182E+03  0.00000000000E+00 0.  1.
          1    1    6    6  503    0 -0.30103618994E+03  0.21828101868E+03 -0.51158772034E+03  0.63244872233E+03  0.00000000000E+00 0. -1.
         -1    1    6    6    0  503 -0.39592538183E+01 -0.64642537113E+01 -0.21435095630E+01  0.78776202047E+01  0.00000000000E+00 0.  1.
<mgrwt>
<rscale>  0 0.12410585E+04</rscale>
<asrwt>0</asrwt>
<pdfrwt beam="1">  1        2 0.21149146E+00 0.12410585E+04</pdfrwt>
<pdfrwt beam="2">  1       -1 0.43092824E-01 0.12410585E+04</pdfrwt>
<totfact> 0.89052776E+01</totfact>
</mgrwt>
</event>
<event>
12    7  0.1546317E-007  0.2178968E+04  0.7818608E-02  0.8527234E-01
          2   -1    0    0  501    0  0.00000000000E+00  0.00000000000E+00  0.15205662480E+04  0.15205662480E+04  0.00000000000E+00 0. -1.
         -1   -1    0    0    0  501 -0.00000000000E+00 -0.00000000000E+00 -0.78061385211E+03  0.78061385211E+03  0.00000000000E+00 0.  1.
         24    2    1    2    0    0  0.54684997166E+03 -0.67781773679E+03  0.54586282175E+03  0.10303768457E+04  0.72308009607E+02 0.  0.
        254    2    1    2    0    0 -0.54684997166E+03  0.67781773679E+03  0.19408957414E+03  0.12708032544E+04  0.90486925724E+03 0.  0.
         23    2    4    4    0    0  0.44025695781E+02 -0.61640959261E+02 -0.20628371737E+03  0.23917490020E+03  0.94412875627E+02 0.  0.
         23    2    4    4    0    0 -0.59087566744E+03  0.73945869605E+03  0.40037329151E+03  0.10316283542E+04  0.89582760762E+02 0.  0.
          4    1    3    3  502    0  0.28141365116E+03 -0.37765919119E+03  0.25809618209E+03  0.53706028242E+03  0.00000000000E+00 0. -1.
         -3    1    3    3    0  502  0.26543632050E+03 -0.30015854560E+03  0.28776663966E+03  0.49331656331E+03  0.00000000000E+00 0.  1.
         13    1    5    5    0    0  0.58088950666E+02 -0.40614781975E+02 -0.20127168457E+03  0.21338738884E+03  0.00000000000E+00 0.  1.
        -13    1    5    5    0    0 -0.14063254885E+02 -0.21026177286E+02 -0.50120327958E+01  0.25787511357E+02  0.00000000000E+00 0. -1.
          1    1    6    6  503    0 -0.46795414309E+03  0.59260722105E+03  0.35718463179E+03  0.83531147464E+03  0.00000000000E+00 0.  1.
         -1    1    6    6    0  503 -0.12292152435E+03  0.14685147500E+03  0.43188659716E+02  0.19631687953E+03  0.00000000000E+00 0. -1.
<mgrwt>
<rscale>  0 0.21789677E+04</rscale>
<asrwt>0</asrwt>
<pdfrwt beam="1">  1        2 0.23393327E+00 0.21789677E+04</pdfrwt>
<pdfrwt beam="2">  1       -1 0.12009444E+00 0.21789677E+04</pdfrwt>
<totfact> 0.79655145E+00</totfact>
</mgrwt>
</event>
<event>
12    7  0.1546317E-007  0.1378383E+04  0.7818608E-02  0.8969616E-01
         -1   -1    0    0    0  501 -0.00000000000E+00  0.00000000000E+00  0.16430912455E+03  0.16430912455E+03  0.00000000000E+00 0.  1.
          2   -1    0    0  501    0  0.00000000000E+00 -0.00000000000E+00 -0.28908015662E+04  0.28908015662E+04  0.00000000000E+00 0. -1.
         24    2    1    2    0    0  0.32485461845E+03  0.16897407781E+03 -0.50102415773E+03  0.62668912838E+03  0.87357283003E+02 0.  0.
        254    2    1    2    0    0 -0.32485461845E+03 -0.16897407781E+03 -0.22254682839E+04  0.24284215623E+04  0.90024410010E+03 0.  0.
         23    2    4    4    0    0 -0.63066987175E+03 -0.13148809263E+03 -0.14753303201E+04  0.16125061328E+04  0.92427643408E+02 0.  0.
         23    2    4    4    0    0  0.30581525329E+03 -0.37485985187E+02 -0.75013796381E+03  0.81591542957E+03  0.89904700791E+02 0.  0.
          4    1    3    3  502    0  0.27512143266E+02  0.47913031012E+02 -0.80110902549E+02  0.97315637361E+02  0.00000000000E+00 0. -1.
         -3    1    3    3    0  502  0.29734247518E+03  0.12106104680E+03 -0.42091325519E+03  0.52937349102E+03  0.00000000000E+00 0.  1.
         13    1    5    5    0    0 -0.57599013972E+03 -0.98272102460E+02 -0.13678421766E+04  0.14874186590E+04  0.00000000000E+00 0. -1.
        -13    1    5    5    0    0 -0.54679732023E+02 -0.33215990166E+02 -0.10748814348E+03  0.12508747374E+03  0.00000000000E+00 0.  1.
          2    1    6    6  503    0  0.28183389835E+03 -0.20732794620E+02 -0.60349545510E+03  0.66638349271E+03  0.00000000000E+00 0. -1.
         -2    1    6    6    0  503  0.23981354946E+02 -0.16753190567E+02 -0.14664250872E+03  0.14953193686E+03  0.00000000000E+00 0.  1.
<mgrwt>
<rscale>  0 0.13783832E+04</rscale>
<asrwt>0</asrwt>
<pdfrwt beam="1">  1        2 0.44473871E+00 0.13783832E+04</pdfrwt>
<pdfrwt beam="2">  1       -1 0.25278327E-01 0.13783832E+04</pdfrwt>
<totfact> 0.31308763E+01</totfact>
</mgrwt>
</event>
<event>
12    7  0.1546317E-007  0.2133639E+04  0.7818608E-02  0.8546568E-01
          2   -1    0    0  501    0  0.00000000000E+00  0.00000000000E+00  0.30285279014E+04  0.30285279014E+04  0.00000000000E+00 0. -1.
         -1   -1    0    0    0  501 -0.00000000000E+00 -0.00000000000E+00 -0.37579429008E+03  0.37579429008E+03  0.00000000000E+00 0.  1.
         24    2    1    2    0    0 -0.78229290803E+03 -0.19318983196E+03  0.16775084375E+04  0.18626667879E+04  0.78667018863E+02 0.  0.
        254    2    1    2    0    0  0.78229290803E+03  0.19318983196E+03  0.97522517386E+03  0.15416554036E+04  0.88109746259E+03 0.  0.
         23    2    4    4    0    0  0.54057780122E+03 -0.25888613312E+03  0.26632412675E+03  0.66206721626E+03  0.90322030919E+02 0.  0.
         23    2    4    4    0    0  0.24171510681E+03  0.45207596508E+03  0.70890104711E+03  0.87958818733E+03  0.91300677051E+02 0.  0.
          4    1    3    3  502    0 -0.89841226028E+02 -0.47656877005E+02  0.22942105724E+03  0.25095148003E+03  0.00000000000E+00 0. -1.
         -3    1    3    3    0  502 -0.69245168200E+03 -0.14553295496E+03  0.14480873803E+04  0.16117153079E+04  0.00000000000E+00 0.  1.
         13    1    5    5    0    0  0.16675630534E+02 -0.26536005871E+02  0.34130624871E+01  0.31525945772E+02  0.00000000000E+00 0. -1.
        -13    1    5    5    0    0  0.52390217069E+03 -0.23235012725E+03  0.26291106426E+03  0.63054127049E+03  0.00000000000E+00 0.  1.
          2    1    6    6  503    0  0.14148172056E+03  0.26869057076E+03  0.34214078924E+03  0.45746258834E+03  0.00000000000E+00 0. -1.
         -2    1    6    6    0  503  0.10023338625E+03  0.18338539432E+03  0.36676025787E+03  0.42212559899E+03  0.00000000000E+00 0.  1.
<mgrwt>
<rscale>  0 0.21336387E+04</rscale>
<asrwt>0</asrwt>
<pdfrwt beam="1">  1        2 0.46592735E+00 0.21336387E+04</pdfrwt>
<pdfrwt beam="2">  1       -1 0.57814508E-01 0.21336387E+04</pdfrwt>
<totfact> 0.53042905E+00</totfact>
</mgrwt>
</event>
<event>
12    7  0.1546317E-007  0.1306702E+04  0.7818608E-02  0.9024267E-01
          2   -1    0    0  501    0  0.00000000000E+00  0.00000000000E+00  0.73105072440E+03  0.73105072440E+03  0.00000000000E+00 0. -1.
         -1   -1    0    0    0  501 -0.00000000000E+00 -0.00000000000E+00 -0.58390972904E+03  0.58390972904E+03  0.00000000000E+00 0.  1.
         24    2    1    2    0    0  0.40810983438E+02 -0.17900853457E+03  0.32284739058E+03  0.37993718486E+03  0.80076432349E+02 0.  0.
        254    2    1    2    0    0 -0.40810983438E+02  0.17900853457E+03 -0.17570639522E+03  0.93502326858E+03  0.89982564069E+03 0.  0.
         23    2    4    4    0    0 -0.27099079038E+03  0.45447532441E+03 -0.31539997205E+02  0.53808506218E+03  0.92503695880E+02 0.  0.
         23    2    4    4    0    0  0.23017980694E+03 -0.27546678983E+03 -0.14416639802E+03  0.39693820640E+03  0.88945452721E+02 0.  0.
          2    1    3    3  502    0  0.74440223121E+01 -0.12350506561E+03  0.26757085989E+03  0.29479328310E+03  0.00000000000E+00 0. -1.
         -1    1    3    3    0  502  0.33366961126E+02 -0.55503468966E+02  0.55276530688E+02  0.85143901760E+02  0.00000000000E+00 0.  1.
         13    1    5    5    0    0 -0.33103690687E+02  0.12945443813E+03 -0.20288572507E+02  0.13515151521E+03  0.00000000000E+00 0. -1.
        -13    1    5    5    0    0 -0.23788709969E+03  0.32502088627E+03 -0.11251424697E+02  0.40293354697E+03  0.00000000000E+00 0.  1.
          1    1    6    6  503    0  0.42600499399E+02 -0.44886872942E+02  0.90308436815E+01  0.62539507906E+02  0.00000000000E+00 0. -1.
         -1    1    6    6    0  503  0.18757930754E+03 -0.23057991689E+03 -0.15319724170E+03  0.33439869850E+03  0.00000000000E+00 0.  1.
<mgrwt>
<rscale>  0 0.13067022E+04</rscale>
<asrwt>0</asrwt>
<pdfrwt beam="1">  1        2 0.11246934E+00 0.13067022E+04</pdfrwt>
<pdfrwt beam="2">  1       -1 0.89832265E-01 0.13067022E+04</pdfrwt>
<totfact> 0.52631360E+01</totfact>
</mgrwt>
</event>
<event>
12    7  0.1546317E-007  0.1415443E+04  0.7818608E-02  0.8942715E-01
          2   -1    0    0  501    0  0.00000000000E+00  0.00000000000E+00  0.14259634156E+04  0.14259634156E+04  0.00000000000E+00 0. -1.
         -1   -1    0    0    0  501 -0.00000000000E+00 -0.00000000000E+00 -0.35125021233E+03  0.35125021233E+03  0.00000000000E+00 0.  1.
         24    2    1    2    0    0 -0.22871925735E+02 -0.39994268017E+03  0.50822372563E+03  0.65270955058E+03  0.85212262778E+02 0.  0.
        254    2    1    2    0    0  0.22871925735E+02  0.39994268017E+03  0.56648947766E+03  0.11245040774E+04  0.88494170391E+03 0.  0.
         23    2    4    4    0    0 -0.71939402859E+01 -0.27365472718E+03  0.13682793205E+03  0.31948104464E+03  0.91692924538E+02 0.  0.
         23    2    4    4    0    0  0.30065866021E+02  0.67359740735E+03  0.42966154562E+03  0.80502303273E+03  0.93891511602E+02 0.  0.
          4    1    3    3  502    0 -0.27141529172E+02 -0.63111903739E+02  0.54965349120E+02  0.87982751737E+02  0.00000000000E+00 0. -1.
         -3    1    3    3    0  502  0.42696034366E+01 -0.33683077643E+03  0.45325837650E+03  0.56472679885E+03  0.00000000000E+00 0.  1.
         13    1    5    5    0    0 -0.11360187927E+02 -0.27484287389E+03  0.11655769576E+03  0.29875300105E+03  0.00000000000E+00 0.  1.
        -13    1    5    5    0    0  0.41662476414E+01  0.11881467049E+01  0.20270236283E+02  0.20728043587E+02  0.00000000000E+00 0. -1.
          3    1    6    6  503    0  0.26199481471E+01  0.72991350646E+02  0.14726645000E+02  0.74508224180E+02  0.00000000000E+00 0. -1.
         -3    1    6    6    0  503  0.27445917874E+02  0.60060605671E+03  0.41493490062E+03  0.73051480855E+03  0.00000000000E+00 0.  1.
<mgrwt>
<rscale>  0 0.14154433E+04</rscale>
<asrwt>0</asrwt>
<pdfrwt beam="1">  1        2 0.21937898E+00 0.14154433E+04</pdfrwt>
<pdfrwt beam="2">  1       -1 0.54038495E-01 0.14154433E+04</pdfrwt>
<totfact> 0.53563556E+01</totfact>
</mgrwt>
</event>
<event>
12    7  0.1546317E-007  0.2175318E+04  0.7818608E-02  0.8528772E-01
         -3   -1    0    0    0  501 -0.00000000000E+00  0.00000000000E+00  0.63302602135E+03  0.63302602135E+03  0.00000000000E+00 0.  1.
          2   -1    0    0  501    0  0.00000000000E+00 -0.00000000000E+00 -0.18688052243E+04  0.18688052243E+04  0.00000000000E+00 0. -1.
         24    2    1    2    0    0 -0.33975140097E+03  0.17517877184E+03  0.41999440613E+03  0.57337294689E+03  0.79010242888E+02 0.  0.
        254    2    1    2    0    0  0.33975140097E+03 -0.17517877184E+03 -0.16557736091E+04  0.19284582988E+04  0.91172723384E+03 0.  0.
         23    2    4    4    0    0 -0.95272940056E+02 -0.27779336909E+03 -0.13371628311E+04  0.13720719549E+04  0.91273891963E+02 0.  0.
         23    2    4    4    0    0  0.43502434102E+03  0.10261459724E+03 -0.31861077796E+03  0.55638634389E+03  0.90978035768E+02 0.  0.
          2    1    3    3  502    0 -0.10448014579E+02  0.16837454570E+02  0.49903802109E+01  0.20434401868E+02  0.00000000000E+00 0. -1.
         -1    1    3    3    0  502 -0.32930338639E+03  0.15834131727E+03  0.41500402592E+03  0.55293854502E+03  0.00000000000E+00 0.  1.
         13    1    5    5    0    0 -0.56136113527E+02 -0.91105976573E+02 -0.32721201200E+03  0.34426626760E+03  0.00000000000E+00 0. -1.
        -13    1    5    5    0    0 -0.39136826528E+02 -0.18668739251E+03 -0.10099508191E+04  0.10278056873E+04  0.00000000000E+00 0.  1.
          3    1    6    6  503    0 -0.42110069676E+01 -0.47706913231E+00 -0.33827279159E+00  0.42514236580E+01  0.00000000000E+00 0. -1.
         -3    1    6    6    0  503  0.43923534799E+03  0.10309166638E+03 -0.31827250517E+03  0.55213492024E+03  0.00000000000E+00 0.  1.
<mgrwt>
<rscale>  0 0.21753182E+04</rscale>
<asrwt>0</asrwt>
<pdfrwt beam="1">  1        2 0.28750849E+00 0.21753182E+04</pdfrwt>
<pdfrwt beam="2">  1       -3 0.97388619E-01 0.21753182E+04</pdfrwt>
<totfact> 0.42894621E+00</totfact>
</mgrwt>
</event>
<event>
12    7  0.1546317E-007  0.1581723E+04  0.7818608E-02  0.8831856E-01
          2   -1    0    0  501    0  0.00000000000E+00  0.00000000000E+00  0.74968425313E+03  0.74968425313E+03  0.00000000000E+00 0. -1.
         -1   -1    0    0    0  501 -0.00000000000E+00 -0.00000000000E+00 -0.83430022782E+03  0.83430022782E+03  0.00000000000E+00 0.  1.
         24    2    1    2    0    0  0.20426597950E+03  0.19566473764E+03 -0.47555406775E+03  0.55925571266E+03  0.81277308401E+02 0.  0.
        254    2    1    2    0    0 -0.20426597950E+03 -0.19566473764E+03  0.39093809305E+03  0.10247287683E+04  0.90400618140E+03 0.  0.
         23    2    4    4    0    0 -0.22976038049E+03 -0.49518908814E+03  0.44017325223E+03  0.70716861611E+03  0.91284687525E+02 0.  0.
         23    2    4    4    0    0  0.25494400985E+02  0.29952435050E+03 -0.49235159185E+02  0.31756015217E+03  0.89752706503E+02 0.  0.
          4    1    3    3  502    0  0.25758751080E+02  0.72952906414E+02 -0.13689075955E+03  0.15724096114E+03  0.00000000000E+00 0. -1.
         -3    1    3    3    0  502  0.17850722842E+03  0.12271183123E+03 -0.33866330820E+03  0.40201475152E+03  0.00000000000E+00 0.  1.
         13    1    5    5    0    0 -0.20669620006E+03 -0.48638624900E+03  0.41545018373E+03  0.67223043482E+03  0.00000000000E+00 0. -1.
        -13    1    5    5    0    0 -0.23064180427E+02 -0.88028391365E+01  0.24723068503E+02  0.34938181289E+02  0.00000000000E+00 0.  1.
          1    1    6    6  503    0 -0.14785381025E+02  0.22886467650E+03 -0.16663185267E+02  0.22994631849E+03  0.00000000000E+00 0. -1.
         -1    1    6    6    0  503  0.40279782010E+02  0.70659673996E+02 -0.32571973918E+02  0.87613833685E+02  0.00000000000E+00 0.  1.
<mgrwt>
<rscale>  0 0.15817228E+04</rscale>
<asrwt>0</asrwt>
<pdfrwt beam="1">  1        2 0.11533604E+00 0.15817228E+04</pdfrwt>
<pdfrwt beam="2">  1       -1 0.12835388E+00 0.15817228E+04</pdfrwt>
<totfact> 0.21551439E+01</totfact>
</mgrwt>
</event>
<event>
12    7  0.1546317E-007  0.2683648E+04  0.7818608E-02  0.8340330E-01
         -1   -1    0    0    0  501 -0.00000000000E+00  0.00000000000E+00  0.67711269504E+03  0.67711269504E+03  0.00000000000E+00 0.  1.
          2   -1    0    0  501    0  0.00000000000E+00 -0.00000000000E+00 -0.26590731096E+04  0.26590731096E+04  0.00000000000E+00 0. -1.
         24    2    1    2    0    0  0.67995756150E+03 -0.46847999874E+03 -0.19295953488E+04  0.21003065560E+04  0.78317460304E+02 0.  0.
        254    2    1    2    0    0 -0.67995756150E+03  0.46847999874E+03 -0.52365065827E+02  0.12358792487E+04  0.91806297305E+03 0.  0.
         23    2    4    4    0    0  0.19666653151E+03  0.23795027630E+03  0.19916428106E+02  0.32172628156E+03  0.88391614606E+02 0.  0.
         23    2    4    4    0    0 -0.87662409300E+03  0.23052972244E+03 -0.72281493933E+02  0.91415296709E+03  0.94006805711E+02 0.  0.
          2    1    3    3  502    0  0.24084966070E+03 -0.12141932656E+03 -0.62657050447E+03  0.68215966532E+03  0.00000000000E+00 0. -1.
         -1    1    3    3    0  502  0.43910790079E+03 -0.34706067218E+03 -0.13030248443E+04  0.14181468907E+04  0.00000000000E+00 0.  1.
         13    1    5    5    0    0  0.11624846576E+03  0.80254460108E+02  0.30043220180E+02  0.14441980209E+03  0.00000000000E+00 0.  1.
        -13    1    5    5    0    0  0.80418065751E+02  0.15769581619E+03 -0.10126792074E+02  0.17730647947E+03  0.00000000000E+00 0. -1.
          1    1    6    6  503    0 -0.14958256914E+03  0.94191970596E+01  0.74320447983E+01  0.15006299196E+03  0.00000000000E+00 0. -1.
         -1    1    6    6    0  503 -0.72704152386E+03  0.22111052538E+03 -0.79713538731E+02  0.76408997514E+03  0.00000000000E+00 0.  1.
<mgrwt>
<rscale>  0 0.26836484E+04</rscale>
<asrwt>0</asrwt>
<pdfrwt beam="1">  1        2 0.40908817E+00 0.26836484E+04</pdfrwt>
<pdfrwt beam="2">  1       -1 0.10417118E+00 0.26836484E+04</pdfrwt>
<totfact> 0.24318438E+00</totfact>
</mgrwt>
</event>
<event>
12    7  0.1546317E-007  0.1542699E+04  0.7818608E-02  0.8856545E-01
         -1   -1    0    0    0  501 -0.00000000000E+00  0.00000000000E+00  0.25507367427E+03  0.25507367427E+03  0.00000000000E+00 0.  1.
          2   -1    0    0  501    0  0.00000000000E+00 -0.00000000000E+00 -0.23325802731E+04  0.23325802731E+04  0.00000000000E+00 0. -1.
         24    2    1    2    0    0  0.83936813359E+01  0.50091842151E+03 -0.78984582593E+03  0.93867325709E+03  0.79128603845E+02 0.  0.
        254    2    1    2    0    0 -0.83936813359E+01 -0.50091842151E+03 -0.12876607729E+04  0.16489806902E+04  0.90004296115E+03 0.  0.
         23    2    4    4    0    0  0.36433467335E+02 -0.75093614419E+03 -0.97145067868E+03  0.12315844584E+04  0.88607938865E+02 0.  0.
         23    2    4    4    0    0 -0.44827148670E+02  0.25001772269E+03 -0.31621009418E+03  0.41739623185E+03  0.98551792396E+02 0.  0.
          4    1    3    3  502    0  0.10335942227E+02  0.36279862317E+03 -0.63301620542E+03  0.72968430777E+03  0.00000000000E+00 0. -1.
         -3    1    3    3    0  502 -0.19422608916E+01  0.13811979834E+03 -0.15682962051E+03  0.20898894932E+03  0.00000000000E+00 0.  1.
         13    1    5    5    0    0 -0.42241837567E+01 -0.10574268886E+03 -0.92924982245E+02  0.14083469850E+03  0.00000000000E+00 0. -1.
        -13    1    5    5    0    0  0.40657651091E+02 -0.64519345533E+03 -0.87852569643E+03  0.10907497599E+04  0.00000000000E+00 0.  1.
          1    1    6    6  503    0 -0.43475361270E+02  0.10911612079E+03 -0.21119308197E+03  0.24165875264E+03  0.00000000000E+00 0. -1.
         -1    1    6    6    0  503 -0.13517874005E+01  0.14090160190E+03 -0.10501701221E+03  0.17573747921E+03  0.00000000000E+00 0.  1.
<mgrwt>
<rscale>  0 0.15426987E+04</rscale>
<asrwt>0</asrwt>
<pdfrwt beam="1">  1        2 0.35885849E+00 0.15426987E+04</pdfrwt>
<pdfrwt beam="2">  1       -1 0.39242105E-01 0.15426987E+04</pdfrwt>
<totfact> 0.30104179E+01</totfact>
</mgrwt>
</event>
<event>
12    7  0.1546317E-007  0.2642398E+04  0.7818608E-02  0.8353940E-01
         -1   -1    0    0    0  501 -0.00000000000E+00  0.00000000000E+00  0.11895403259E+04  0.11895403259E+04  0.00000000000E+00 0.  1.
          2   -1    0    0  501    0  0.00000000000E+00 -0.00000000000E+00 -0.14674298840E+04  0.14674298840E+04  0.00000000000E+00 0. -1.
         24    2    1    2    0    0 -0.45559579458E+02 -0.74017297375E+02 -0.12952513875E+04  0.13005634193E+04  0.78960845596E+02 0.  0.
        254    2    1    2    0    0  0.45559579458E+02  0.74017297375E+02  0.10173618294E+04  0.13564067906E+04  0.89289420094E+03 0.  0.
         23    2    4    4    0    0  0.16906830237E+03 -0.14449901450E+03  0.10602898751E+04  0.10870908603E+04  0.89932548168E+02 0.  0.
         23    2    4    4    0    0 -0.12350872291E+03  0.21851631188E+03 -0.42928045690E+02  0.26931593032E+03  0.87661108993E+02 0.  0.
          4    1    3    3  502    0  0.12910803300E+02 -0.52919895576E+02 -0.68086993651E+03  0.68304544112E+03  0.00000000000E+00 0. -1.
         -3    1    3    3    0  502 -0.58470382758E+02 -0.21097401799E+02 -0.61438145099E+03  0.61751797816E+03  0.00000000000E+00 0.  1.
         13    1    5    5    0    0  0.16119706377E+03 -0.13543632075E+03  0.10510848595E+04  0.10719640256E+04  0.00000000000E+00 0. -1.
        -13    1    5    5    0    0  0.78712385921E+01 -0.90626937499E+01  0.92050156086E+01  0.15126834677E+02  0.00000000000E+00 0.  1.
          3    1    6    6  503    0 -0.10929427555E+03  0.11247762715E+03 -0.41862272694E+02  0.16232345842E+03  0.00000000000E+00 0. -1.
         -3    1    6    6    0  503 -0.14214447353E+02  0.10603868473E+03 -0.10657729961E+01  0.10699247191E+03  0.00000000000E+00 0.  1.
<mgrwt>
<rscale>  0 0.26423982E+04</rscale>
<asrwt>0</asrwt>
<pdfrwt beam="1">  1        2 0.22575844E+00 0.26423982E+04</pdfrwt>
<pdfrwt beam="2">  1       -1 0.18300620E+00 0.26423982E+04</pdfrwt>
<totfact> 0.26334784E+00</totfact>
</mgrwt>
</event>
<event>
12    7  0.1605366E-007  0.2188389E+04  0.7818608E-02  0.8523276E-01
          2   -1    0    0  501    0  0.00000000000E+00  0.00000000000E+00  0.23316406423E+04  0.23316406423E+04  0.00000000000E+00 0. -1.
         -1   -1    0    0    0  501 -0.00000000000E+00 -0.00000000000E+00 -0.51348458970E+03  0.51348458970E+03  0.00000000000E+00 0.  1.
         24    2    1    2    0    0  0.77588123925E+03 -0.27680441294E+03  0.12493983323E+04  0.14986793548E+04  0.80194983115E+02 0.  0.
        254    2    1    2    0    0 -0.77588123925E+03  0.27680441294E+03  0.56875772030E+03  0.13464458772E+04  0.90045476031E+03 0.  0.
         23    2    4    4    0    0 -0.66909465002E+03  0.56276016974E+03  0.52597492392E+03  0.10250818430E+04  0.98775021728E+02 0.  0.
         23    2    4    4    0    0 -0.10678658924E+03 -0.28595575680E+03  0.42782796376E+02  0.32136403420E+03  0.90941763335E+02 0.  0.
          4    1    3    3  502    0  0.31942089949E+03 -0.10136557991E+03  0.44101217870E+03  0.55389207756E+03  0.00000000000E+00 0. -1.
         -3    1    3    3    0  502  0.45646033976E+03 -0.17543883303E+03  0.80838615363E+03  0.94478727727E+03  0.00000000000E+00 0.  1.
         13    1    5    5    0    0 -0.63523095216E+03  0.51805953885E+03  0.46569210561E+03  0.94274767865E+03  0.00000000000E+00 0.  1.
        -13    1    5    5    0    0 -0.33863697855E+02  0.44700630893E+02  0.60282818312E+02  0.82334164344E+02  0.00000000000E+00 0. -1.
          1    1    6    6  503    0 -0.61614288470E+02 -0.94701716458E+02 -0.20672561268E+02  0.11485682580E+03  0.00000000000E+00 0. -1.
         -1    1    6    6    0  503 -0.45172300769E+02 -0.19125404035E+03  0.63455357644E+02  0.20650720840E+03  0.00000000000E+00 0.  1.
<mgrwt>
<rscale>  0 0.21883889E+04</rscale>
<asrwt>0</asrwt>
<pdfrwt beam="1">  1        2 0.35871394E+00 0.21883889E+04</pdfrwt>
<pdfrwt beam="2">  1       -1 0.78997631E-01 0.21883889E+04</pdfrwt>
<totfact> 0.72565753E+00</totfact>
</mgrwt>
</event>
<event>
12    7  0.1546317E-007  0.1957296E+04  0.7818608E-02  0.8626851E-01
          2   -1    0    0  501    0  0.00000000000E+00  0.00000000000E+00  0.74126287569E+03  0.74126287569E+03  0.00000000000E+00 0. -1.
         -1   -1    0    0    0  501 -0.00000000000E+00 -0.00000000000E+00 -0.12920539468E+04  0.12920539468E+04  0.00000000000E+00 0.  1.
         24    2    1    2    0    0 -0.61100112138E+02 -0.29959232582E+03 -0.95539708186E+03  0.10062449840E+04  0.79098662854E+02 0.  0.
        254    2    1    2    0    0  0.61100112138E+02  0.29959232582E+03  0.40460601077E+03  0.10270718384E+04  0.89313031076E+03 0.  0.
         23    2    4    4    0    0 -0.36455249478E+03  0.15610959552E+01  0.24031331172E+02  0.37675319995E+03  0.92002773442E+02 0.  0.
         23    2    4    4    0    0  0.42565260692E+03  0.29803122986E+03  0.38057467960E+03  0.65031863850E+03  0.89858160937E+02 0.  0.
          4    1    3    3  502    0 -0.71384185025E+01 -0.22684529971E+01 -0.51041468261E+01  0.90639512653E+01  0.00000000000E+00 0. -1.
         -3    1    3    3    0  502 -0.53961693635E+02 -0.29732387282E+03 -0.95029293503E+03  0.99718103276E+03  0.00000000000E+00 0.  1.
         13    1    5    5    0    0 -0.78496077830E+02  0.27073928288E+01  0.43947658664E+02  0.90002005048E+02  0.00000000000E+00 0.  1.
        -13    1    5    5    0    0 -0.28605641695E+03 -0.11462968737E+01 -0.19916327492E+02  0.28675119490E+03  0.00000000000E+00 0. -1.
          4    1    6    6  503    0  0.19812251417E+03  0.15615663950E+03  0.23714126436E+03  0.34622739052E+03  0.00000000000E+00 0. -1.
         -4    1    6    6    0  503  0.22753009275E+03  0.14187459037E+03  0.14343341523E+03  0.30409124799E+03  0.00000000000E+00 0.  1.
<mgrwt>
<rscale>  0 0.19572957E+04</rscale>
<asrwt>0</asrwt>
<pdfrwt beam="1">  1        2 0.11404044E+00 0.19572957E+04</pdfrwt>
<pdfrwt beam="2">  1       -1 0.19877753E+00 0.19572957E+04</pdfrwt>
<totfact> 0.62171608E+00</totfact>
</mgrwt>
</event>
<event>
12    7  0.1546317E-007  0.2045563E+04  0.7818608E-02  0.8585610E-01
         -3   -1    0    0    0  501 -0.00000000000E+00  0.00000000000E+00  0.92942383248E+03  0.92942383248E+03  0.00000000000E+00 0.  1.
          4   -1    0    0  501    0  0.00000000000E+00 -0.00000000000E+00 -0.11255161343E+04  0.11255161343E+04  0.00000000000E+00 0. -1.
         24    2    1    2    0    0  0.27297629170E+03  0.69322153114E+03 -0.43277104485E+03  0.86619693026E+03  0.89074113378E+02 0.  0.
        254    2    1    2    0    0 -0.27297629170E+03 -0.69322153114E+03  0.23667874306E+03  0.11887430365E+04  0.89555626975E+03 0.  0.
         23    2    4    4    0    0 -0.62386988279E+02 -0.72276746463E+03 -0.14066988168E+03  0.74485975859E+03  0.93504546003E+02 0.  0.
         23    2    4    4    0    0 -0.21058930342E+03  0.29545933495E+02  0.37734862475E+03  0.44388327788E+03  0.97054432592E+02 0.  0.
          4    1    3    3  502    0 -0.15522400956E+01  0.39228059522E+01 -0.13127991895E+02  0.13789199653E+02  0.00000000000E+00 0. -1.
         -1    1    3    3    0  502  0.27452853179E+03  0.68929872519E+03 -0.41964305296E+03  0.85240773061E+03  0.00000000000E+00 0.  1.
         13    1    5    5    0    0 -0.72381084245E+02 -0.71536136943E+03 -0.13799544461E+03  0.73213636227E+03  0.00000000000E+00 0.  1.
        -13    1    5    5    0    0  0.99940959660E+01 -0.74060952049E+01 -0.26744370730E+01  0.12723396324E+02  0.00000000000E+00 0. -1.
          1    1    6    6  503    0  0.26570250182E+01 -0.10778652534E+02  0.49365909698E+02  0.50598736868E+02  0.00000000000E+00 0. -1.
         -1    1    6    6    0  503 -0.21324632844E+03  0.40324586029E+02  0.32798271505E+03  0.39328454102E+03  0.00000000000E+00 0.  1.
<mgrwt>
<rscale>  0 0.20455625E+04</rscale>
<asrwt>0</asrwt>
<pdfrwt beam="1">  1        4 0.17315633E+00 0.20455625E+04</pdfrwt>
<pdfrwt beam="2">  1       -3 0.14298828E+00 0.20455625E+04</pdfrwt>
<totfact> 0.15491972E-01</totfact>
</mgrwt>
</event>
<event>
12    7  0.1546317E-007  0.1505576E+04  0.7818608E-02  0.8880753E-01
         -1   -1    0    0    0  501 -0.00000000000E+00  0.00000000000E+00  0.35805223550E+03  0.35805223550E+03  0.00000000000E+00 0.  1.
          2   -1    0    0  501    0  0.00000000000E+00 -0.00000000000E+00 -0.15827012413E+04  0.15827012413E+04  0.00000000000E+00 0. -1.
         24    2    1    2    0    0  0.88475752209E+02  0.40922186668E+03 -0.10556829228E+03  0.43901105722E+03  0.79344496523E+02 0.  0.
        254    2    1    2    0    0 -0.88475752209E+02 -0.40922186668E+03 -0.11190807136E+04  0.15017424196E+04  0.90972422003E+03 0.  0.
         23    2    4    4    0    0  0.10118686731E+03 -0.66454076060E+02  0.12120865033E+03  0.19792257617E+03  0.99130635529E+02 0.  0.
         23    2    4    4    0    0 -0.18966261952E+03 -0.34276779062E+03 -0.12402893639E+04  0.13038198434E+04  0.90370406961E+02 0.  0.
          2    1    3    3  502    0  0.18126722023E+02  0.13940969149E+03 -0.72639814427E+02  0.15824090107E+03  0.00000000000E+00 0. -1.
         -1    1    3    3    0  502  0.70349030186E+02  0.26981217520E+03 -0.32928477856E+02  0.28077015615E+03  0.00000000000E+00 0.  1.
         13    1    5    5    0    0  0.21555563097E+02 -0.73242530197E+02  0.54248375603E+02  0.93658938632E+02  0.00000000000E+00 0. -1.
        -13    1    5    5    0    0  0.79631304214E+02  0.67884541374E+01  0.66960274729E+02  0.10426363754E+03  0.00000000000E+00 0.  1.
          1    1    6    6  503    0  0.13461734396E+00 -0.19970081222E+02 -0.14317132164E+03  0.14455742667E+03  0.00000000000E+00 0. -1.
         -1    1    6    6    0  503 -0.18979723686E+03 -0.32279770940E+03 -0.10971180422E+04  0.11592624168E+04  0.00000000000E+00 0.  1.
<mgrwt>
<rscale>  0 0.15055759E+04</rscale>
<asrwt>0</asrwt>
<pdfrwt beam="1">  1        2 0.24349250E+00 0.15055759E+04</pdfrwt>
<pdfrwt beam="2">  1       -1 0.55084960E-01 0.15055759E+04</pdfrwt>
<totfact> 0.41797029E+01</totfact>
</mgrwt>
</event>
<event>
12    7  0.1546317E-007  0.1484797E+04  0.7818608E-02  0.8894626E-01
          2   -1    0    0  501    0  0.00000000000E+00  0.00000000000E+00  0.32146934342E+04  0.32146934342E+04  0.00000000000E+00 0. -1.
         -1   -1    0    0    0  501 -0.00000000000E+00 -0.00000000000E+00 -0.17144882881E+03  0.17144882881E+03  0.00000000000E+00 0.  1.
         24    2    1    2    0    0  0.85125636940E+01  0.42697817082E+03  0.13964467459E+04  0.14628944445E+04  0.87257203394E+02 0.  0.
        254    2    1    2    0    0 -0.85125636940E+01 -0.42697817082E+03  0.16467978595E+04  0.19232478185E+04  0.89697054537E+03 0.  0.
         23    2    4    4    0    0 -0.26132322187E+03 -0.14551551951E+03  0.99771682971E+02  0.32794339955E+03  0.90154821749E+02 0.  0.
         23    2    4    4    0    0  0.25281065817E+03 -0.28146265131E+03  0.15470261765E+04  0.15953044190E+04  0.92583720507E+02 0.  0.
          2    1    3    3  502    0  0.29157939079E+02  0.38523197064E+03  0.11852626354E+04  0.12466360220E+04  0.00000000000E+00 0. -1.
         -1    1    3    3    0  502 -0.20645375385E+02  0.41746200179E+02  0.21118411046E+03  0.21625842242E+03  0.00000000000E+00 0.  1.
         13    1    5    5    0    0 -0.36856522655E+01 -0.89981409800E+01  0.25164349500E+02  0.26977677059E+02  0.00000000000E+00 0. -1.
        -13    1    5    5    0    0 -0.25763756960E+03 -0.13651737853E+03  0.74607333470E+02  0.30096572250E+03  0.00000000000E+00 0.  1.
          3    1    6    6  503    0  0.15458074621E+03 -0.13061936760E+03  0.66566950240E+03  0.69575319814E+03  0.00000000000E+00 0. -1.
         -3    1    6    6    0  503  0.98229911962E+02 -0.15084328371E+03  0.88135667415E+03  0.89955122084E+03  0.00000000000E+00 0.  1.
<mgrwt>
<rscale>  0 0.14847969E+04</rscale>
<asrwt>0</asrwt>
<pdfrwt beam="1">  1        2 0.49456817E+00 0.14847969E+04</pdfrwt>
<pdfrwt beam="2">  1       -1 0.26376745E-01 0.14847969E+04</pdfrwt>
<totfact> 0.18027642E+01</totfact>
</mgrwt>
</event>
<event>
12    7  0.1546317E-007  0.1899250E+04  0.7818608E-02  0.8655230E-01
          2   -1    0    0  501    0  0.00000000000E+00  0.00000000000E+00  0.15241128729E+04  0.15241128729E+04  0.00000000000E+00 0. -1.
         -1   -1    0    0    0  501 -0.00000000000E+00 -0.00000000000E+00 -0.59168033948E+03  0.59168033948E+03  0.00000000000E+00 0.  1.
         24    2    1    2    0    0 -0.70146522127E+02 -0.63419504995E+03  0.76187548882E+03  0.99711642370E+03  0.81627238175E+02 0.  0.
        254    2    1    2    0    0  0.70146522127E+02  0.63419504995E+03  0.17055704460E+03  0.11186767887E+04  0.90289764430E+03 0.  0.
         23    2    4    4    0    0 -0.23543450590E+03  0.71749752365E+03  0.32294221137E+02  0.76146063016E+03  0.92451455193E+02 0.  0.
         23    2    4    4    0    0  0.30558102803E+03 -0.83302473698E+02  0.13826282346E+03  0.35721615850E+03  0.90375376779E+02 0.  0.
          4    1    3    3  502    0 -0.76148976436E+02 -0.63109144920E+03  0.75823106791E+03  0.98943895022E+03  0.00000000000E+00 0. -1.
         -3    1    3    3    0  502  0.60024543093E+01 -0.31036007417E+01  0.36444209095E+01  0.76774734819E+01  0.00000000000E+00 0.  1.
         13    1    5    5    0    0 -0.22582034220E+03  0.70187755035E+03  0.16882834849E+02  0.73750386627E+03  0.00000000000E+00 0. -1.
        -13    1    5    5    0    0 -0.96141636969E+01  0.15619973291E+02  0.15411386289E+02  0.23956763900E+02  0.00000000000E+00 0.  1.
          2    1    6    6  503    0  0.12686927077E+03 -0.54396099375E+02  0.16451933602E+02  0.13901587540E+03  0.00000000000E+00 0.  1.
         -2    1    6    6    0  503  0.17871175725E+03 -0.28906374323E+02  0.12181088986E+03  0.21820028310E+03  0.00000000000E+00 0. -1.
<mgrwt>
<rscale>  0 0.18992500E+04</rscale>
<asrwt>0</asrwt>
<pdfrwt beam="1">  1        2 0.23447890E+00 0.18992500E+04</pdfrwt>
<pdfrwt beam="2">  1       -1 0.91027745E-01 0.18992500E+04</pdfrwt>
<totfact> 0.15464519E+01</totfact>
</mgrwt>
</event>
<event>
12    7  0.1546317E-007  0.1814791E+04  0.7818608E-02  0.8698473E-01
         -1   -1    0    0    0  501 -0.00000000000E+00  0.00000000000E+00  0.38553395752E+03  0.38553395752E+03  0.00000000000E+00 0.  1.
          2   -1    0    0  501    0  0.00000000000E+00 -0.00000000000E+00 -0.21356530343E+04  0.21356530343E+04  0.00000000000E+00 0. -1.
         24    2    1    2    0    0  0.43085070476E+03  0.23590272611E+03 -0.27662553070E+02  0.49815323409E+03  0.78160103710E+02 0.  0.
        254    2    1    2    0    0 -0.43085070476E+03 -0.23590272611E+03 -0.17224565237E+04  0.20230337577E+04  0.94049278726E+03 0.  0.
         23    2    4    4    0    0  0.69586332937E+02  0.29732882293E+03 -0.43213050063E+03  0.53712710079E+03  0.92315037549E+02 0.  0.
         23    2    4    4    0    0 -0.50043703770E+03 -0.53323154904E+03 -0.12903260231E+04  0.14859066569E+04  0.90577225152E+02 0.  0.
          4    1    3    3  502    0  0.26845496246E+03  0.13475829393E+03 -0.53473243769E+02  0.30510203613E+03  0.00000000000E+00 0. -1.
         -3    1    3    3    0  502  0.16239574230E+03  0.10114443218E+03  0.25810690699E+02  0.19305119796E+03  0.00000000000E+00 0.  1.
         13    1    5    5    0    0  0.82419047958E+02  0.27522339051E+03 -0.41992949853E+03  0.50880408595E+03  0.00000000000E+00 0. -1.
        -13    1    5    5    0    0 -0.12832715021E+02  0.22105432423E+02 -0.12201002099E+02  0.28323014840E+02  0.00000000000E+00 0.  1.
          2    1    6    6  503    0 -0.46218251182E+03 -0.45490033459E+03 -0.11083594214E+04  0.12841369069E+04  0.00000000000E+00 0. -1.
         -2    1    6    6    0  503 -0.38254525879E+02 -0.78331214449E+02 -0.18196660168E+03  0.20176975005E+03  0.00000000000E+00 0.  1.
<mgrwt>
<rscale>  0 0.18147912E+04</rscale>
<asrwt>0</asrwt>
<pdfrwt beam="1">  1        2 0.32856200E+00 0.18147912E+04</pdfrwt>
<pdfrwt beam="2">  1       -1 0.59312917E-01 0.18147912E+04</pdfrwt>
<totfact> 0.17366596E+01</totfact>
</mgrwt>
</event>
<event>
12    7  0.1546317E-007  0.3676212E+04  0.7818608E-02  0.8073254E-01
          2   -1    0    0  501    0  0.00000000000E+00  0.00000000000E+00  0.19601548749E+04  0.19601548749E+04  0.00000000000E+00 0. -1.
         -1   -1    0    0    0  501 -0.00000000000E+00 -0.00000000000E+00 -0.17236562457E+04  0.17236562457E+04  0.00000000000E+00 0.  1.
         24    2    1    2    0    0 -0.54665613324E+03  0.90968094037E+03 -0.12532421365E+04  0.16441836058E+04  0.79821898424E+02 0.  0.
        254    2    1    2    0    0  0.54665613324E+03 -0.90968094037E+03  0.14897407657E+04  0.20396275149E+04  0.90244141603E+03 0.  0.
         23    2    4    4    0    0 -0.15742943339E+03 -0.55233179070E+03  0.78962130306E+03  0.98060818061E+03  0.90753336723E+02 0.  0.
         23    2    4    4    0    0  0.70408556663E+03 -0.35734914966E+03  0.70011946265E+03  0.10590193343E+04  0.88993193972E+02 0.  0.
          4    1    3    3  502    0 -0.29685149137E+03  0.48895997128E+03 -0.61384869055E+03  0.83905475169E+03  0.00000000000E+00 0. -1.
         -3    1    3    3    0  502 -0.24980464187E+03  0.42072096909E+03 -0.63939344596E+03  0.80512885408E+03  0.00000000000E+00 0.  1.
         13    1    5    5    0    0 -0.10731408436E+03 -0.21746015121E+03  0.31265868867E+03  0.39567750210E+03  0.00000000000E+00 0.  1.
        -13    1    5    5    0    0 -0.50115349029E+02 -0.33487163949E+03  0.47696261438E+03  0.58493067851E+03  0.00000000000E+00 0. -1.
          4    1    6    6  503    0  0.40588117970E+03 -0.17747603733E+03  0.34347768482E+03  0.56054812089E+03  0.00000000000E+00 0. -1.
         -4    1    6    6    0  503  0.29820438693E+03 -0.17987311233E+03  0.35664177782E+03  0.49847121343E+03  0.00000000000E+00 0.  1.
<mgrwt>
<rscale>  0 0.36762117E+04</rscale>
<asrwt>0</asrwt>
<pdfrwt beam="1">  1        2 0.30156229E+00 0.36762117E+04</pdfrwt>
<pdfrwt beam="2">  1       -1 0.26517788E+00 0.36762117E+04</pdfrwt>
<totfact> 0.35977075E-01</totfact>
</mgrwt>
</event>
<event>
12    7  0.1546317E-007  0.2729841E+04  0.7818608E-02  0.8325387E-01
          2   -1    0    0  501    0  0.00000000000E+00  0.00000000000E+00  0.24850768105E+04  0.24850768105E+04  0.00000000000E+00 0. -1.
         -1   -1    0    0    0  501 -0.00000000000E+00 -0.00000000000E+00 -0.74967824691E+03  0.74967824691E+03  0.00000000000E+00 0.  1.
         24    2    1    2    0    0 -0.43964446191E+03  0.67387090677E+03  0.18490459211E+04  0.20179359838E+04  0.75535186816E+02 0.  0.
        254    2    1    2    0    0  0.43964446191E+03 -0.67387090677E+03 -0.11364735754E+03  0.12168190736E+04  0.90572826175E+03 0.  0.
         23    2    4    4    0    0  0.24321814544E+03 -0.87123627350E+03 -0.21919966259E+02  0.90952851352E+03  0.92487412319E+02 0.  0.
         23    2    4    4    0    0  0.19642631648E+03  0.19736536674E+03 -0.91727391277E+02  0.30729056009E+03  0.92071647189E+02 0.  0.
          2    1    3    3  502    0 -0.42563855039E+03  0.65648908319E+03  0.18218880557E+04  0.19827814250E+04  0.00000000000E+00 0. -1.
         -1    1    3    3    0  502 -0.14005911527E+02  0.17381823580E+02  0.27157865396E+02  0.35154558759E+02  0.00000000000E+00 0.  1.
         13    1    5    5    0    0  0.11267798979E+03 -0.27475925799E+03 -0.33304228040E+02  0.29882796195E+03  0.00000000000E+00 0. -1.
        -13    1    5    5    0    0  0.13054015564E+03 -0.59647701551E+03  0.11384261781E+02  0.61070055157E+03  0.00000000000E+00 0.  1.
          3    1    6    6  503    0  0.29858568386E+02  0.58480218984E+02 -0.58393500663E+02  0.87870763273E+02  0.00000000000E+00 0. -1.
         -3    1    6    6    0  503  0.16656774809E+03  0.13888514775E+03 -0.33333890614E+02  0.21941979681E+03  0.00000000000E+00 0.  1.
<mgrwt>
<rscale>  0 0.27298410E+04</rscale>
<asrwt>0</asrwt>
<pdfrwt beam="1">  1        2 0.38231951E+00 0.27298410E+04</pdfrwt>
<pdfrwt beam="2">  1       -1 0.11533512E+00 0.27298410E+04</pdfrwt>
<totfact> 0.24079236E+00</totfact>
</mgrwt>
</event>
<event>
12    7  0.1546317E-007  0.2303678E+04  0.7818608E-02  0.8476472E-01
         -1   -1    0    0    0  501 -0.00000000000E+00  0.00000000000E+00  0.10550580799E+04  0.10550580799E+04  0.00000000000E+00 0.  1.
          2   -1    0    0  501    0  0.00000000000E+00 -0.00000000000E+00 -0.12574981738E+04  0.12574981738E+04  0.00000000000E+00 0. -1.
         24    2    1    2    0    0 -0.44080860313E+02  0.20290761943E+02  0.89193771642E+03  0.89680213964E+03  0.79663984404E+02 0.  0.
        254    2    1    2    0    0  0.44080860313E+02 -0.20290761943E+02 -0.10943778103E+04  0.14157541141E+04  0.89685120424E+03 0.  0.
         23    2    4    4    0    0 -0.31982857724E+03  0.26317320817E+03 -0.58379585246E+03  0.72160770451E+03  0.91376285380E+02 0.  0.
         23    2    4    4    0    0  0.36390943756E+03 -0.28346397012E+03 -0.51058195782E+03  0.69414640954E+03  0.91451632758E+02 0.  0.
          2    1    3    3  502    0 -0.50719047985E+02  0.65093429956E+01  0.27737510783E+03  0.28204918688E+03  0.00000000000E+00 0. -1.
         -1    1    3    3    0  502  0.66381876724E+01  0.13781418947E+02  0.61456260859E+03  0.61475295276E+03  0.00000000000E+00 0.  1.
         13    1    5    5    0    0 -0.24784089159E+03  0.24636771334E+03 -0.49762923424E+03  0.60807648572E+03  0.00000000000E+00 0. -1.
        -13    1    5    5    0    0 -0.71987685658E+02  0.16805494836E+02 -0.86166618221E+02  0.11353121878E+03  0.00000000000E+00 0.  1.
          4    1    6    6  503    0  0.25234485863E+03 -0.22620555595E+03 -0.41883749826E+03  0.53876871770E+03  0.00000000000E+00 0. -1.
         -4    1    6    6    0  503  0.11156457892E+03 -0.57258414163E+02 -0.91744459560E+02  0.15537769184E+03  0.00000000000E+00 0.  1.
<mgrwt>
<rscale>  0 0.23036785E+04</rscale>
<asrwt>0</asrwt>
<pdfrwt beam="1">  1        2 0.19346126E+00 0.23036785E+04</pdfrwt>
<pdfrwt beam="2">  1       -1 0.16231663E+00 0.23036785E+04</pdfrwt>
<totfact> 0.50769390E+00</totfact>
</mgrwt>
</event>
<event>
12    7  0.1546317E-007  0.2685070E+04  0.7818608E-02  0.8339866E-01
          2   -1    0    0  501    0  0.00000000000E+00  0.00000000000E+00  0.23741313467E+04  0.23741313467E+04  0.00000000000E+00 0. -1.
         -1   -1    0    0    0  501 -0.00000000000E+00 -0.00000000000E+00 -0.75918303998E+03  0.75918303998E+03  0.00000000000E+00 0.  1.
         24    2    1    2    0    0  0.48196494975E+03  0.27627940952E+03 -0.53968720645E+03  0.77864109870E+03  0.79994717743E+02 0.  0.
        254    2    1    2    0    0 -0.48196494975E+03 -0.27627940952E+03  0.21546355131E+04  0.23546732880E+04  0.77033211904E+03 0.  0.
         23    2    4    4    0    0  0.58338259428E+02 -0.34381364634E+03  0.11902685548E+04  0.12436537099E+04  0.91236735050E+02 0.  0.
         23    2    4    4    0    0 -0.54030320918E+03  0.67534236823E+02  0.96436695839E+03  0.11110195780E+04  0.88726779377E+02 0.  0.
          4    1    3    3  502    0  0.81094720723E+02  0.53637954405E+02 -0.13939509727E+03  0.16995404386E+03  0.00000000000E+00 0. -1.
         -3    1    3    3    0  502  0.40087022902E+03  0.22264145511E+03 -0.40029210917E+03  0.60868705483E+03  0.00000000000E+00 0.  1.
         13    1    5    5    0    0  0.62138051484E+02 -0.13097881430E+03  0.55742666969E+03  0.57596968611E+03  0.00000000000E+00 0. -1.
        -13    1    5    5    0    0 -0.37997920557E+01 -0.21283483204E+03  0.63284188507E+03  0.66768402381E+03  0.00000000000E+00 0.  1.
          1    1    6    6  503    0 -0.17701096695E+03 -0.18580012764E+02  0.32994540359E+03  0.37488940855E+03  0.00000000000E+00 0. -1.
         -1    1    6    6    0  503 -0.36329224223E+03  0.86114249587E+02  0.63442155480E+03  0.73613016949E+03  0.00000000000E+00 0.  1.
<mgrwt>
<rscale>  0 0.26850700E+04</rscale>
<asrwt>0</asrwt>
<pdfrwt beam="1">  1        2 0.36525097E+00 0.26850700E+04</pdfrwt>
<pdfrwt beam="2">  1       -1 0.11679739E+00 0.26850700E+04</pdfrwt>
<totfact> 0.27162147E+00</totfact>
</mgrwt>
</event>
<event>
12    7  0.1546317E-007  0.2258993E+04  0.7818608E-02  0.8494267E-01
         -1   -1    0    0    0  501 -0.00000000000E+00  0.00000000000E+00  0.27568963468E+03  0.27568963468E+03  0.00000000000E+00 0.  1.
          2   -1    0    0  501    0  0.00000000000E+00 -0.00000000000E+00 -0.46275309691E+04  0.46275309691E+04  0.00000000000E+00 0. -1.
         24    2    1    2    0    0  0.61164525496E+03  0.68218000398E+03 -0.13160274411E+04  0.16055136148E+04  0.79159749119E+02 0.  0.
        254    2    1    2    0    0 -0.61164525496E+03 -0.68218000398E+03 -0.30358138933E+04  0.32977069889E+04  0.90511099566E+03 0.  0.
         23    2    4    4    0    0 -0.81601988782E+03 -0.36475648176E+03 -0.21439333328E+04  0.23247322313E+04  0.94837036272E+02 0.  0.
         23    2    4    4    0    0  0.20437463286E+03 -0.31742352222E+03 -0.89188056048E+03  0.97297475763E+03  0.93285914333E+02 0.  0.
          2    1    3    3  502    0  0.32532333015E+03  0.40025952192E+03 -0.79228969161E+03  0.94539193431E+03  0.00000000000E+00 0. -1.
         -1    1    3    3    0  502  0.28632192481E+03  0.28192048206E+03 -0.52373774952E+03  0.66012168053E+03  0.00000000000E+00 0.  1.
         13    1    5    5    0    0 -0.38338863498E+01 -0.12945483026E+02 -0.39319470000E+02  0.41572887034E+02  0.00000000000E+00 0.  1.
        -13    1    5    5    0    0 -0.81218600147E+03 -0.35181099874E+03 -0.21046138628E+04  0.22831593443E+04  0.00000000000E+00 0. -1.
          2    1    6    6  503    0  0.20980875821E+03 -0.31557685205E+03 -0.88931121618E+03  0.96668655923E+03  0.00000000000E+00 0. -1.
         -2    1    6    6    0  503 -0.54341253488E+01 -0.18466701658E+01 -0.25693442993E+01  0.62881984015E+01  0.00000000000E+00 0.  1.
<mgrwt>
<rscale>  0 0.22589930E+04</rscale>
<asrwt>0</asrwt>
<pdfrwt beam="1">  1        2 0.71192785E+00 0.22589930E+04</pdfrwt>
<pdfrwt beam="2">  1       -1 0.42413790E-01 0.22589930E+04</pdfrwt>
<totfact> 0.52408790E-01</totfact>
</mgrwt>
</event>
<event>
12    7  0.1546317E-007  0.1684959E+04  0.7818608E-02  0.8769989E-01
          2   -1    0    0  501    0  0.00000000000E+00  0.00000000000E+00  0.69048755254E+03  0.69048755254E+03  0.00000000000E+00 0. -1.
         -1   -1    0    0    0  501 -0.00000000000E+00 -0.00000000000E+00 -0.10279286016E+04  0.10279286016E+04  0.00000000000E+00 0.  1.
         24    2    1    2    0    0 -0.87598836538E+02  0.59336399952E+03 -0.16691211674E+03  0.62665227709E+03  0.71267310682E+02 0.  0.
        254    2    1    2    0    0  0.87598836538E+02 -0.59336399952E+03 -0.17052893236E+03  0.10917638771E+04  0.89616619802E+03 0.  0.
         23    2    4    4    0    0  0.19216926062E+03 -0.11680114083E+03 -0.45719815469E+03  0.51773842355E+03  0.91931449160E+02 0.  0.
         23    2    4    4    0    0 -0.10457042408E+03 -0.47656285869E+03  0.28666922233E+03  0.57402545355E+03  0.96326768938E+02 0.  0.
          4    1    3    3  502    0  0.19193337854E+01  0.84129656126E+01  0.55650516828E+01  0.10267990690E+02  0.00000000000E+00 0. -1.
         -3    1    3    3    0  502 -0.89518170323E+02  0.58495103391E+03 -0.17247716842E+03  0.61638428640E+03  0.00000000000E+00 0.  1.
         13    1    5    5    0    0  0.19616546213E+02 -0.32191562805E+02 -0.26413446987E+02  0.46030161664E+02  0.00000000000E+00 0.  1.
        -13    1    5    5    0    0  0.17255271441E+03 -0.84609578023E+02 -0.43078470770E+03  0.47170826189E+03  0.00000000000E+00 0. -1.
          2    1    6    6  503    0 -0.66385339177E+02 -0.30957957351E+03  0.23756376135E+03  0.39583211883E+03  0.00000000000E+00 0. -1.
         -2    1    6    6    0  503 -0.38185084905E+02 -0.16698328519E+03  0.49105460980E+02  0.17819333472E+03  0.00000000000E+00 0.  1.
<mgrwt>
<rscale>  0 0.16849592E+04</rscale>
<asrwt>0</asrwt>
<pdfrwt beam="1">  1        2 0.10622885E+00 0.16849592E+04</pdfrwt>
<pdfrwt beam="2">  1       -1 0.15814286E+00 0.16849592E+04</pdfrwt>
<totfact> 0.13693416E+01</totfact>
</mgrwt>
</event>
<event>
12    7  0.1546317E-007  0.2000950E+04  0.7818608E-02  0.8606177E-01
         -1   -1    0    0    0  501 -0.00000000000E+00  0.00000000000E+00  0.22517954432E+03  0.22517954432E+03  0.00000000000E+00 0.  1.
          2   -1    0    0  501    0  0.00000000000E+00 -0.00000000000E+00 -0.44451207059E+04  0.44451207059E+04  0.00000000000E+00 0. -1.
         24    2    1    2    0    0  0.56329963141E+03 -0.25935246027E+03 -0.51591015173E+03  0.81060360069E+03  0.79653872499E+02 0.  0.
        254    2    1    2    0    0 -0.56329963141E+03  0.25935246027E+03 -0.37040310099E+04  0.38596966495E+04  0.89041694227E+03 0.  0.
         23    2    4    4    0    0 -0.72208576950E+03  0.19377286075E+03 -0.34881075444E+04  0.35687564540E+04  0.10085934105E+03 0.  0.
         23    2    4    4    0    0  0.15878613809E+03  0.65579599520E+02 -0.21592346544E+03  0.29094019551E+03  0.92247129562E+02 0.  0.
          4    1    3    3  502    0  0.18014956587E+03 -0.61535708589E+02 -0.19958724810E+03  0.27581801812E+03  0.00000000000E+00 0. -1.
         -3    1    3    3    0  502  0.38315006554E+03 -0.19781675168E+03 -0.31632290363E+03  0.53478558257E+03  0.00000000000E+00 0.  1.
         13    1    5    5    0    0 -0.10456440638E+03  0.36577714669E+02 -0.37106514233E+03  0.38724796209E+03  0.00000000000E+00 0. -1.
        -13    1    5    5    0    0 -0.61752136313E+03  0.15719514608E+03 -0.31170424021E+04  0.31815084919E+04  0.00000000000E+00 0.  1.
          1    1    6    6  503    0  0.93601926088E+02  0.65101990963E+02 -0.18833118550E+03  0.22015500273E+03  0.00000000000E+00 0. -1.
         -1    1    6    6    0  503  0.65184212003E+02  0.47760855761E+00 -0.27592279935E+02  0.70785192777E+02  0.00000000000E+00 0.  1.
<mgrwt>
<rscale>  0 0.20009500E+04</rscale>
<asrwt>0</asrwt>
<pdfrwt beam="1">  1        2 0.68386471E+00 0.20009500E+04</pdfrwt>
<pdfrwt beam="2">  1       -1 0.34643007E-01 0.20009500E+04</pdfrwt>
<totfact> 0.11809856E+00</totfact>
</mgrwt>
</event>
<event>
12    7  0.1546317E-007  0.1527613E+04  0.7818608E-02  0.8866295E-01
          2   -1    0    0  501    0  0.00000000000E+00  0.00000000000E+00  0.95256080107E+03  0.95256080107E+03  0.00000000000E+00 0. -1.
         -1   -1    0    0    0  501 -0.00000000000E+00 -0.00000000000E+00 -0.61245485906E+03  0.61245485906E+03  0.00000000000E+00 0.  1.
         24    2    1    2    0    0  0.48242799074E+03 -0.32907841652E+02  0.14926046066E+02  0.49061548260E+03  0.81615394531E+02 0.  0.
        254    2    1    2    0    0 -0.48242799074E+03  0.32907841652E+02  0.32517989595E+03  0.10744001775E+04  0.90264837255E+03 0.  0.
         23    2    4    4    0    0  0.26621209462E+01 -0.20755449146E+03 -0.20981445755E+03  0.30864895473E+03  0.90311222147E+02 0.  0.
         23    2    4    4    0    0 -0.48509011168E+03  0.24046233311E+03  0.53499435350E+03  0.76575122281E+03  0.83793954794E+02 0.  0.
          4    1    3    3  502    0  0.61969934663E+01 -0.73862018583E+01 -0.88794099413E+01  0.13107350107E+02  0.00000000000E+00 0. -1.
         -3    1    3    3    0  502  0.47623099727E+03 -0.25521639794E+02  0.23805456008E+02  0.47750813249E+03  0.00000000000E+00 0.  1.
         13    1    5    5    0    0 -0.34622041294E+02 -0.38456855479E+02 -0.34222701498E+02  0.62038768319E+02  0.00000000000E+00 0.  1.
        -13    1    5    5    0    0  0.37284162240E+02 -0.16909763598E+03 -0.17559175605E+03  0.24661018641E+03  0.00000000000E+00 0. -1.
          4    1    6    6  503    0 -0.24098964097E+03  0.72856497106E+02  0.24629214421E+03  0.35219866059E+03  0.00000000000E+00 0. -1.
         -4    1    6    6    0  503 -0.24410047071E+03  0.16760583600E+03  0.28870220929E+03  0.41355256221E+03  0.00000000000E+00 0.  1.
<mgrwt>
<rscale>  0 0.15276132E+04</rscale>
<asrwt>0</asrwt>
<pdfrwt beam="1">  1        2 0.14654782E+00 0.15276132E+04</pdfrwt>
<pdfrwt beam="2">  1       -1 0.94223824E-01 0.15276132E+04</pdfrwt>
<totfact> 0.32462398E+01</totfact>
</mgrwt>
</event>
<event>
12    7  0.1546317E-007  0.1278954E+04  0.7818608E-02  0.9046423E-01
          2   -1    0    0  501    0  0.00000000000E+00  0.00000000000E+00  0.22515618349E+04  0.22515618349E+04  0.00000000000E+00 0. -1.
         -1   -1    0    0    0  501 -0.00000000000E+00 -0.00000000000E+00 -0.18162093614E+03  0.18162093614E+03  0.00000000000E+00 0.  1.
         24    2    1    2    0    0  0.64379451758E+02  0.19978474878E+03  0.79735180157E+02  0.24036356455E+03  0.85780443894E+02 0.  0.
        254    2    1    2    0    0 -0.64379451758E+02 -0.19978474878E+03  0.19902057186E+04  0.21928192065E+04  0.89636968398E+03 0.  0.
         23    2    4    4    0    0  0.23556016698E+03  0.14761566949E+03  0.23420611188E+03  0.37532611890E+03  0.93478417488E+02 0.  0.
         23    2    4    4    0    0 -0.29993961874E+03 -0.34740041827E+03  0.17559996067E+04  0.18174930876E+04  0.95371270133E+02 0.  0.
          4    1    3    3  502    0 -0.17470489530E+02  0.20775868172E+02 -0.20334429743E+01  0.27221124022E+02  0.00000000000E+00 0. -1.
         -3    1    3    3    0  502  0.81849941288E+02  0.17900888061E+03  0.81768623131E+02  0.21314244053E+03  0.00000000000E+00 0.  1.
         13    1    5    5    0    0  0.21761478215E+03  0.14136644307E+03  0.24195949450E+03  0.35480284894E+03  0.00000000000E+00 0.  1.
        -13    1    5    5    0    0  0.17945384826E+02  0.62492264174E+01 -0.77533826226E+01  0.20523269951E+02  0.00000000000E+00 0. -1.
          1    1    6    6  503    0 -0.23603920794E+02 -0.37700696485E+02  0.87679561252E+02  0.98316799448E+02  0.00000000000E+00 0. -1.
         -1    1    6    6    0  503 -0.27633569794E+03 -0.30969972179E+03  0.16683200454E+04  0.17191762881E+04  0.00000000000E+00 0.  1.
<mgrwt>
<rscale>  0 0.12789539E+04</rscale>
<asrwt>0</asrwt>
<pdfrwt beam="1">  1        2 0.34639411E+00 0.12789539E+04</pdfrwt>
<pdfrwt beam="2">  1       -1 0.27941684E-01 0.12789539E+04</pdfrwt>
<totfact> 0.62558842E+01</totfact>
</mgrwt>
</event>
<event>
12    7  0.1546317E-007  0.1378866E+04  0.7818608E-02  0.8969260E-01
          2   -1    0    0  501    0  0.00000000000E+00  0.00000000000E+00  0.15015856871E+04  0.15015856871E+04  0.00000000000E+00 0. -1.
         -1   -1    0    0    0  501 -0.00000000000E+00 -0.00000000000E+00 -0.31654405055E+03  0.31654405055E+03  0.00000000000E+00 0.  1.
         24    2    1    2    0    0  0.19484682059E+03  0.19610590480E+02  0.79044624576E+03  0.81816740662E+03  0.79011259042E+02 0.  0.
        254    2    1    2    0    0 -0.19484682059E+03 -0.19610590480E+02  0.39459539079E+03  0.99996233103E+03  0.89770222362E+03 0.  0.
         23    2    4    4    0    0 -0.31464347363E+02 -0.65592569667E+02  0.66045731626E+03  0.67124842780E+03  0.95279561672E+02 0.  0.
         23    2    4    4    0    0 -0.16338247323E+03  0.45981979186E+02 -0.26586192547E+03  0.32871390323E+03  0.92531571879E+02 0.  0.
          4    1    3    3  502    0  0.90385849970E+02  0.61841778400E+01  0.52193425964E+03  0.52973881991E+03  0.00000000000E+00 0. -1.
         -3    1    3    3    0  502  0.10446097062E+03  0.13426412640E+02  0.26851198612E+03  0.28842858671E+03  0.00000000000E+00 0.  1.
         13    1    5    5    0    0 -0.45382110788E+02 -0.71045712418E+02  0.33488569536E+03  0.34533383586E+03  0.00000000000E+00 0. -1.
        -13    1    5    5    0    0  0.13917763425E+02  0.54531427512E+01  0.32557162089E+03  0.32591459193E+03  0.00000000000E+00 0.  1.
          4    1    6    6  503    0 -0.39194593749E+02  0.56364001968E+02 -0.91225413704E+02  0.11417176973E+03  0.00000000000E+00 0. -1.
         -4    1    6    6    0  503 -0.12418787948E+03 -0.10382022782E+02 -0.17463651176E+03  0.21454213350E+03  0.00000000000E+00 0.  1.
<mgrwt>
<rscale>  0 0.13788662E+04</rscale>
<asrwt>0</asrwt>
<pdfrwt beam="1">  1        2 0.23101318E+00 0.13788662E+04</pdfrwt>
<pdfrwt beam="2">  1       -1 0.48699085E-01 0.13788662E+04</pdfrwt>
<totfact> 0.59372436E+01</totfact>
</mgrwt>
</event>
<event>
12    7  0.1546317E-007  0.2317796E+04  0.7818608E-02  0.8470937E-01
          2   -1    0    0  501    0  0.00000000000E+00  0.00000000000E+00  0.66664987972E+03  0.66664987972E+03  0.00000000000E+00 0. -1.
         -1   -1    0    0    0  501 -0.00000000000E+00 -0.00000000000E+00 -0.20146178762E+04  0.20146178762E+04  0.00000000000E+00 0.  1.
         24    2    1    2    0    0  0.34526783235E+03  0.36808529883E+03 -0.15473699450E+04  0.16295629190E+04  0.80155455774E+02 0.  0.
        254    2    1    2    0    0 -0.34526783235E+03 -0.36808529883E+03  0.19940194855E+03  0.10517048369E+04  0.90090247172E+03 0.  0.
         23    2    4    4    0    0  0.11773888160E+02 -0.25857835184E+03 -0.31000839220E+03  0.41371119393E+03  0.89723799864E+02 0.  0.
         23    2    4    4    0    0 -0.35704172051E+03 -0.10950694699E+03  0.50941034075E+03  0.63799364295E+03  0.89813314993E+02 0.  0.
          4    1    3    3  502    0  0.93841091569E+02  0.99715689005E+02 -0.31451539636E+03  0.34302959588E+03  0.00000000000E+00 0. -1.
         -3    1    3    3    0  502  0.25142674078E+03  0.26836960983E+03 -0.12328545486E+04  0.12865333231E+04  0.00000000000E+00 0.  1.
         13    1    5    5    0    0  0.51489280515E+01 -0.26411111667E+03 -0.30583414219E+03  0.40412339197E+03  0.00000000000E+00 0. -1.
        -13    1    5    5    0    0  0.66249601083E+01  0.55327648332E+01 -0.41742500097E+01  0.95878019525E+01  0.00000000000E+00 0.  1.
          1    1    6    6  503    0 -0.32540916652E+03 -0.10715430638E+03  0.41357389205E+03  0.53704425816E+03  0.00000000000E+00 0. -1.
         -1    1    6    6    0  503 -0.31632553988E+02 -0.23526406084E+01  0.95836448702E+02  0.10094938479E+03  0.00000000000E+00 0.  1.
<mgrwt>
<rscale>  0 0.23177962E+04</rscale>
<asrwt>0</asrwt>
<pdfrwt beam="1">  1        2 0.10256152E+00 0.23177962E+04</pdfrwt>
<pdfrwt beam="2">  1       -1 0.30994120E+00 0.23177962E+04</pdfrwt>
<totfact> 0.12815160E+00</totfact>
</mgrwt>
</event>
<event>
12    7  0.1546317E-007  0.2598650E+04  0.7818608E-02  0.8368660E-01
         -1   -1    0    0    0  501 -0.00000000000E+00  0.00000000000E+00  0.11034623942E+04  0.11034623942E+04  0.00000000000E+00 0.  1.
          2   -1    0    0  501    0  0.00000000000E+00 -0.00000000000E+00 -0.15299525053E+04  0.15299525053E+04  0.00000000000E+00 0. -1.
         24    2    1    2    0    0 -0.19737857454E+03  0.66795906143E+03 -0.11091281462E+04  0.13121563397E+04  0.80382870025E+02 0.  0.
        254    2    1    2    0    0  0.19737857454E+03 -0.66795906143E+03  0.68263803505E+03  0.13212585598E+04  0.89140444551E+03 0.  0.
         23    2    4    4    0    0 -0.19200722718E+02 -0.81853511384E+03  0.37298592806E+03  0.90441721009E+03  0.92106389758E+02 0.  0.
         23    2    4    4    0    0  0.21657929725E+03  0.15057605241E+03  0.30965210699E+03  0.41684134969E+03  0.91063405897E+02 0.  0.
          2    1    3    3  502    0 -0.13451520181E+03  0.55856299980E+03 -0.89130685595E+03  0.10604314573E+04  0.00000000000E+00 0. -1.
         -1    1    3    3    0  502 -0.62863372724E+02  0.10939606163E+03 -0.21782129022E+03  0.25172488237E+03  0.00000000000E+00 0.  1.
         13    1    5    5    0    0 -0.46131522383E+02 -0.58873528055E+03  0.29601807640E+03  0.66057857177E+03  0.00000000000E+00 0.  1.
        -13    1    5    5    0    0  0.26930799665E+02 -0.22979983328E+03  0.76967851666E+02  0.24383863832E+03  0.00000000000E+00 0. -1.
          2    1    6    6  503    0  0.19771521087E+03  0.16315782660E+03  0.28633210768E+03  0.38431478879E+03  0.00000000000E+00 0. -1.
         -2    1    6    6    0  503  0.18864086387E+02 -0.12581774188E+02  0.23319999304E+02  0.32526560908E+02  0.00000000000E+00 0.  1.
<mgrwt>
<rscale>  0 0.25986497E+04</rscale>
<asrwt>0</asrwt>
<pdfrwt beam="1">  1        2 0.23537731E+00 0.25986497E+04</pdfrwt>
<pdfrwt beam="2">  1       -1 0.16976345E+00 0.25986497E+04</pdfrwt>
<totfact> 0.30390529E+00</totfact>
</mgrwt>
</event>
<event>
12    7  0.1546317E-007  0.1876004E+04  0.7818608E-02  0.8666894E-01
         -1   -1    0    0    0  501 -0.00000000000E+00  0.00000000000E+00  0.51071159898E+03  0.51071159898E+03  0.00000000000E+00 0.  1.
          2   -1    0    0  501    0  0.00000000000E+00 -0.00000000000E+00 -0.17227882054E+04  0.17227882054E+04  0.00000000000E+00 0. -1.
         24    2    1    2    0    0 -0.45166499544E+03  0.37385417645E+03 -0.95961542452E+03  0.11273012281E+04  0.78600779035E+02 0.  0.
        254    2    1    2    0    0  0.45166499544E+03 -0.37385417645E+03 -0.25246118186E+03  0.11061985763E+04  0.90342151206E+03 0.  0.
         23    2    4    4    0    0  0.63373043246E+03 -0.49723848926E+03 -0.29562466296E+03  0.86298823580E+03  0.92164947464E+02 0.  0.
         23    2    4    4    0    0 -0.18206543702E+03  0.12338431281E+03  0.43163481099E+02  0.24321034048E+03  0.94428129330E+02 0.  0.
          4    1    3    3  502    0 -0.43784562580E+03  0.37168100705E+03 -0.91290686167E+03  0.10785427674E+04  0.00000000000E+00 0. -1.
         -3    1    3    3    0  502 -0.13819369638E+02  0.21731694004E+01 -0.46708562856E+02  0.48758460666E+02  0.00000000000E+00 0.  1.
         13    1    5    5    0    0  0.43402982833E+03 -0.31714179780E+03 -0.15461097994E+03  0.55934369301E+03  0.00000000000E+00 0. -1.
        -13    1    5    5    0    0  0.19970060413E+03 -0.18009669146E+03 -0.14101368301E+03  0.30364454278E+03  0.00000000000E+00 0.  1.
          2    1    6    6  503    0 -0.16511113217E+03  0.13795594933E+03  0.47737409800E+02  0.22039144770E+03  0.00000000000E+00 0. -1.
         -2    1    6    6    0  503 -0.16954304851E+02 -0.14571636524E+02 -0.45739287008E+01  0.22818892780E+02  0.00000000000E+00 0.  1.
<mgrwt>
<rscale>  0 0.18760042E+04</rscale>
<asrwt>0</asrwt>
<pdfrwt beam="1">  1        2 0.26504434E+00 0.18760042E+04</pdfrwt>
<pdfrwt beam="2">  1       -1 0.78571015E-01 0.18760042E+04</pdfrwt>
<totfact> 0.16499768E+01</totfact>
</mgrwt>
</event>
<event>
12    7  0.1546317E-007  0.2123401E+04  0.7818608E-02  0.8551005E-01
          2   -1    0    0  501    0  0.00000000000E+00  0.00000000000E+00  0.12887154507E+04  0.12887154507E+04  0.00000000000E+00 0. -1.
         -1   -1    0    0    0  501 -0.00000000000E+00 -0.00000000000E+00 -0.87467558617E+03  0.87467558617E+03  0.00000000000E+00 0.  1.
         24    2    1    2    0    0  0.49749335832E+03 -0.69172360084E+03 -0.14739849068E+02  0.85588112401E+03  0.79586768693E+02 0.  0.
        254    2    1    2    0    0 -0.49749335832E+03  0.69172360084E+03  0.42877971365E+03  0.13075099129E+04  0.89428683766E+03 0.  0.
         23    2    4    4    0    0  0.61607485219E+02  0.26000490984E+02  0.41937872588E+03  0.43321855232E+03  0.85605435512E+02 0.  0.
         23    2    4    4    0    0 -0.55910084354E+03  0.66572310986E+03  0.94009877682E+01  0.87429136059E+03  0.92282134770E+02 0.  0.
          4    1    3    3  502    0  0.89684124604E+02 -0.16702686606E+03 -0.25256775114E+02  0.19125668846E+03  0.00000000000E+00 0. -1.
         -3    1    3    3    0  502  0.40780923371E+03 -0.52469673478E+03  0.10516926046E+02  0.66462443554E+03  0.00000000000E+00 0.  1.
         13    1    5    5    0    0 -0.29341450584E+01 -0.62360236703E+01 -0.75731922080E+00  0.69333059100E+01  0.00000000000E+00 0. -1.
        -13    1    5    5    0    0  0.64541630278E+02  0.32236514654E+02  0.42013604510E+03  0.42628524641E+03  0.00000000000E+00 0.  1.
          2    1    6    6  503    0 -0.32002722556E+03  0.41899393970E+03  0.43626602474E+02  0.52903367289E+03  0.00000000000E+00 0. -1.
         -2    1    6    6    0  503 -0.23907361798E+03  0.24672917015E+03 -0.34225614706E+02  0.34525768770E+03  0.00000000000E+00 0.  1.
<mgrwt>
<rscale>  0 0.21234010E+04</rscale>
<asrwt>0</asrwt>
<pdfrwt beam="1">  1        2 0.19826392E+00 0.21234010E+04</pdfrwt>
<pdfrwt beam="2">  1       -1 0.13456547E+00 0.21234010E+04</pdfrwt>
<totfact> 0.81737512E+00</totfact>
</mgrwt>
</event>
<event>
12    7  0.1546317E-007  0.2780004E+04  0.7818608E-02  0.8309503E-01
          2   -1    0    0  501    0  0.00000000000E+00  0.00000000000E+00  0.27100653583E+04  0.27100653583E+04  0.00000000000E+00 0. -1.
         -1   -1    0    0    0  501 -0.00000000000E+00 -0.00000000000E+00 -0.71293711432E+03  0.71293711432E+03  0.00000000000E+00 0.  1.
         24    2    1    2    0    0  0.11595682577E+04 -0.35293861613E+03  0.11944189991E+04  0.17036214447E+04  0.80777907171E+02 0.  0.
        254    2    1    2    0    0 -0.11595682577E+04  0.35293861613E+03  0.80270924481E+03  0.17193810279E+04  0.91802220898E+03 0.  0.
         23    2    4    4    0    0 -0.12262835130E+04  0.33174625641E+03  0.45247092622E+03  0.13520452444E+04  0.97311720283E+02 0.  0.
         23    2    4    4    0    0  0.66715255311E+02  0.21192359719E+02  0.35023831859E+03  0.36733578343E+03  0.85840879433E+02 0.  0.
          4    1    3    3  502    0  0.25435031021E+03 -0.78934833034E+02  0.21700185475E+03  0.34353252122E+03  0.00000000000E+00 0. -1.
         -3    1    3    3    0  502  0.90521794753E+03 -0.27400378309E+03  0.97741714438E+03  0.13600889235E+04  0.00000000000E+00 0.  1.
         13    1    5    5    0    0 -0.32147144597E+03  0.13164816662E+03  0.11927438712E+03  0.36728940873E+03  0.00000000000E+00 0.  1.
        -13    1    5    5    0    0 -0.90481206708E+03  0.20009808979E+03  0.33319653910E+03  0.98475583570E+03  0.00000000000E+00 0. -1.
          1    1    6    6  503    0  0.89415767520E+01  0.36043094062E+02  0.23145779289E+03  0.23441793087E+03  0.00000000000E+00 0. -1.
         -1    1    6    6    0  503  0.57773678559E+02 -0.14850734343E+02  0.11878052570E+03  0.13291785256E+03  0.00000000000E+00 0.  1.
<mgrwt>
<rscale>  0 0.27800044E+04</rscale>
<asrwt>0</asrwt>
<pdfrwt beam="1">  1        2 0.41693313E+00 0.27800044E+04</pdfrwt>
<pdfrwt beam="2">  1       -1 0.10968263E+00 0.27800044E+04</pdfrwt>
<totfact> 0.19932070E+00</totfact>
</mgrwt>
</event>
<event>
12    7  0.1546317E-007  0.1363233E+04  0.7818608E-02  0.8980871E-01
         -1   -1    0    0    0  501 -0.00000000000E+00  0.00000000000E+00  0.20779508237E+03  0.20779508237E+03  0.00000000000E+00 0.  1.
          2   -1    0    0  501    0  0.00000000000E+00 -0.00000000000E+00 -0.22358632209E+04  0.22358632209E+04  0.00000000000E+00 0. -1.
         24    2    1    2    0    0 -0.25933806226E+03 -0.62856940916E+02 -0.94296858199E+02  0.29458924106E+03  0.81753886304E+02 0.  0.
        254    2    1    2    0    0  0.25933806226E+03  0.62856940916E+02 -0.19337712804E+04  0.21490690622E+04  0.89878765230E+03 0.  0.
         23    2    4    4    0    0 -0.25669259032E+03 -0.19044406337E+03 -0.48934974630E+03  0.59146262289E+03  0.90580532533E+02 0.  0.
         23    2    4    4    0    0  0.51603065258E+03  0.25330100429E+03 -0.14444215340E+04  0.15576064393E+04  0.96618935161E+02 0.  0.
          2    1    3    3  502    0 -0.87144241070E+02 -0.34160877221E+02 -0.73050100928E+02  0.11873247883E+03  0.00000000000E+00 0. -1.
         -1    1    3    3    0  502 -0.17219382119E+03 -0.28696063695E+02 -0.21246757271E+02  0.17585676223E+03  0.00000000000E+00 0.  1.
         13    1    5    5    0    0 -0.26065691232E+03 -0.17984681210E+03 -0.44822712225E+03  0.54881185745E+03  0.00000000000E+00 0. -1.
        -13    1    5    5    0    0  0.39643220008E+01 -0.10597251277E+02 -0.41122624054E+02  0.42650765440E+02  0.00000000000E+00 0.  1.
          4    1    6    6  503    0  0.30261863089E+03  0.16130578534E+03 -0.98036170974E+03  0.10386080464E+04  0.00000000000E+00 0. -1.
         -4    1    6    6    0  503  0.21341202169E+03  0.91995218949E+02 -0.46405982431E+03  0.51899839292E+03  0.00000000000E+00 0.  1.
<mgrwt>
<rscale>  0 0.13632335E+04</rscale>
<asrwt>0</asrwt>
<pdfrwt beam="1">  1        2 0.34397894E+00 0.13632335E+04</pdfrwt>
<pdfrwt beam="2">  1       -1 0.31968476E-01 0.13632335E+04</pdfrwt>
<totfact> 0.50068462E+01</totfact>
</mgrwt>
</event>
<event>
12    7  0.1546317E-007  0.1773151E+04  0.7818608E-02  0.8720709E-01
          2   -1    0    0  501    0  0.00000000000E+00  0.00000000000E+00  0.76918714489E+03  0.76918714489E+03  0.00000000000E+00 0. -1.
         -1   -1    0    0    0  501 -0.00000000000E+00 -0.00000000000E+00 -0.10218794506E+04  0.10218794506E+04  0.00000000000E+00 0.  1.
         24    2    1    2    0    0 -0.58791345343E+03 -0.35849940288E+03 -0.81498890860E+02  0.69789155504E+03  0.79034820117E+02 0.  0.
        254    2    1    2    0    0  0.58791345343E+03  0.35849940288E+03 -0.17119341482E+03  0.10931750404E+04  0.83160112622E+03 0.  0.
         23    2    4    4    0    0  0.70558345463E+03  0.47434401931E+03 -0.24616549611E+03  0.88994753562E+03  0.92514347907E+02 0.  0.
         23    2    4    4    0    0 -0.11767000120E+03 -0.11584461643E+03  0.74972081291E+02  0.20322750481E+03  0.91730046332E+02 0.  0.
          2    1    3    3  502    0 -0.45333436099E+02 -0.23788194477E+02  0.14453065144E+02  0.53196707766E+02  0.00000000000E+00 0. -1.
         -1    1    3    3    0  502 -0.54258001734E+03 -0.33471120841E+03 -0.95951956004E+02  0.64469484728E+03  0.00000000000E+00 0.  1.
         13    1    5    5    0    0  0.19643678504E+03  0.11148567721E+03 -0.10455350073E+03  0.24889335318E+03  0.00000000000E+00 0. -1.
        -13    1    5    5    0    0  0.50914666959E+03  0.36285834211E+03 -0.14161199538E+03  0.64105418244E+03  0.00000000000E+00 0.  1.
          3    1    6    6  503    0 -0.26346957007E+01 -0.46921570404E+02  0.46547310272E+02  0.66145502373E+02  0.00000000000E+00 0. -1.
         -3    1    6    6    0  503 -0.11503530550E+03 -0.68923046025E+02  0.28424771018E+02  0.13708200243E+03  0.00000000000E+00 0.  1.
<mgrwt>
<rscale>  0 0.17731515E+04</rscale>
<asrwt>0</asrwt>
<pdfrwt beam="1">  1        2 0.11833648E+00 0.17731515E+04</pdfrwt>
<pdfrwt beam="2">  1       -1 0.15721222E+00 0.17731515E+04</pdfrwt>
<totfact> 0.12026757E+01</totfact>
</mgrwt>
</event>
<event>
12    7  0.1546317E-007  0.1729017E+04  0.7818608E-02  0.8744986E-01
          2   -1    0    0  501    0  0.00000000000E+00  0.00000000000E+00  0.20122997182E+04  0.20122997182E+04  0.00000000000E+00 0. -1.
         -1   -1    0    0    0  501 -0.00000000000E+00 -0.00000000000E+00 -0.37140335074E+03  0.37140335074E+03  0.00000000000E+00 0.  1.
         24    2    1    2    0    0  0.62431000887E+03 -0.15343518426E+02  0.50044695450E+03  0.80416172276E+03  0.78933588260E+02 0.  0.
        254    2    1    2    0    0 -0.62431000887E+03  0.15343518426E+02  0.11404494129E+04  0.15795413461E+04  0.89684312451E+03 0.  0.
         23    2    4    4    0    0 -0.31951443716E+03 -0.56909742832E+02  0.12019539271E+04  0.12483682598E+04  0.91661741256E+02 0.  0.
         23    2    4    4    0    0 -0.30479557171E+03  0.72253261258E+02 -0.61504514196E+02  0.33117308632E+03  0.88158570432E+02 0.  0.
          4    1    3    3  502    0  0.27128359071E+03 -0.21529807635E+02  0.26452141895E+03  0.37951271426E+03  0.00000000000E+00 0. -1.
         -3    1    3    3    0  502  0.35302641816E+03  0.61862892092E+01  0.23592553554E+03  0.42464900850E+03  0.00000000000E+00 0.  1.
         13    1    5    5    0    0 -0.70501709537E+02 -0.31308984800E+02  0.17329549246E+03  0.18968940741E+03  0.00000000000E+00 0.  1.
        -13    1    5    5    0    0 -0.24901272762E+03 -0.25600758033E+02  0.10286584347E+04  0.10586788524E+04  0.00000000000E+00 0. -1.
          3    1    6    6  503    0 -0.87791553955E+02  0.50066102267E+02 -0.49944582076E+02  0.11273168508E+03  0.00000000000E+00 0. -1.
         -3    1    6    6    0  503 -0.21700401776E+03  0.22187158991E+02 -0.11559932120E+02  0.21844140124E+03  0.00000000000E+00 0.  1.
<mgrwt>
<rscale>  0 0.17290169E+04</rscale>
<asrwt>0</asrwt>
<pdfrwt beam="1">  1        2 0.30958457E+00 0.17290169E+04</pdfrwt>
<pdfrwt beam="2">  1       -1 0.57138978E-01 0.17290169E+04</pdfrwt>
<totfact> 0.22056514E+01</totfact>
</mgrwt>
</event>
<event>
12    7  0.1546317E-007  0.2013601E+04  0.7818608E-02  0.8600288E-01
          2   -1    0    0  501    0  0.00000000000E+00  0.00000000000E+00  0.16311421227E+04  0.16311421227E+04  0.00000000000E+00 0. -1.
         -1   -1    0    0    0  501 -0.00000000000E+00 -0.00000000000E+00 -0.62143398378E+03  0.62143398378E+03  0.00000000000E+00 0.  1.
         24    2    1    2    0    0 -0.13429758945E+03 -0.30391630795E+03  0.12462663538E+04  0.12920357820E+04  0.75997846056E+02 0.  0.
        254    2    1    2    0    0  0.13429758945E+03  0.30391630795E+03 -0.23655821493E+03  0.96054032442E+03  0.86964185791E+03 0.  0.
         23    2    4    4    0    0  0.22806597627E+03  0.56839444206E+03 -0.72619787410E+02  0.62340505000E+03  0.90960934113E+02 0.  0.
         23    2    4    4    0    0 -0.93768386826E+02 -0.26447813412E+03 -0.16393842752E+03  0.33713527443E+03  0.89683841649E+02 0.  0.
          2    1    3    3  502    0 -0.66783646346E+02 -0.21235221889E+03  0.72060311165E+03  0.75420313232E+03  0.00000000000E+00 0. -1.
         -1    1    3    3    0  502 -0.67513943103E+02 -0.91564089061E+02  0.52566324219E+03  0.53783264972E+03  0.00000000000E+00 0.  1.
         13    1    5    5    0    0  0.10900639747E+03  0.37448772955E+03 -0.24275241321E+02  0.39078477659E+03  0.00000000000E+00 0.  1.
        -13    1    5    5    0    0  0.11905957881E+03  0.19390671251E+03 -0.48344546089E+02  0.23262027341E+03  0.00000000000E+00 0. -1.
          2    1    6    6  503    0 -0.55535418594E+02 -0.69322258374E+02 -0.18419012384E+02  0.90713936315E+02  0.00000000000E+00 0. -1.
         -2    1    6    6    0  503 -0.38232968232E+02 -0.19515587574E+03 -0.14551941514E+03  0.24642133811E+03  0.00000000000E+00 0.  1.
<mgrwt>
<rscale>  0 0.20136009E+04</rscale>
<asrwt>0</asrwt>
<pdfrwt beam="1">  1        2 0.25094494E+00 0.20136009E+04</pdfrwt>
<pdfrwt beam="2">  1       -1 0.95605229E-01 0.20136009E+04</pdfrwt>
<totfact> 0.11954279E+01</totfact>
</mgrwt>
</event>
<event>
12    7  0.1546317E-007  0.1663218E+04  0.7818608E-02  0.8782625E-01
          2   -1    0    0  501    0  0.00000000000E+00  0.00000000000E+00  0.43634950254E+04  0.43634950254E+04  0.00000000000E+00 0. -1.
         -1   -1    0    0    0  501 -0.00000000000E+00 -0.00000000000E+00 -0.15849068436E+03  0.15849068436E+03  0.00000000000E+00 0.  1.
         24    2    1    2    0    0 -0.23999409923E+03 -0.20986488964E+01  0.42131447234E+02  0.25660911660E+03  0.80446304372E+02 0.  0.
        254    2    1    2    0    0  0.23999409923E+03  0.20986488964E+01  0.41628728938E+04  0.42653765931E+04  0.89795611221E+03 0.  0.
         23    2    4    4    0    0  0.78353925411E+02 -0.42805157869E+03  0.24184292641E+04  0.24588805734E+04  0.89028520487E+02 0.  0.
         23    2    4    4    0    0  0.16164017381E+03  0.43015022758E+03  0.17444436297E+04  0.18064960197E+04  0.95851592872E+02 0.  0.
          4    1    3    3  502    0 -0.37026276387E+02  0.28395489842E+02 -0.18750366269E+01  0.46698658961E+02  0.00000000000E+00 0. -1.
         -3    1    3    3    0  502 -0.20296782284E+03 -0.30494138738E+02  0.44006483861E+02  0.20991045764E+03  0.00000000000E+00 0.  1.
         13    1    5    5    0    0  0.13670151003E+02 -0.10496971630E+03  0.82321891918E+03  0.82999692967E+03  0.00000000000E+00 0.  1.
        -13    1    5    5    0    0  0.64683774407E+02 -0.32308186238E+03  0.15952103449E+04  0.16288836438E+04  0.00000000000E+00 0. -1.
          1    1    6    6  503    0  0.11048896506E+02  0.56096424607E+02  0.36050611616E+03  0.36501170770E+03  0.00000000000E+00 0. -1.
         -1    1    6    6    0  503  0.15059127731E+03  0.37405380297E+03  0.13839375136E+04  0.14414843120E+04  0.00000000000E+00 0.  1.
<mgrwt>
<rscale>  0 0.16632177E+04</rscale>
<asrwt>0</asrwt>
<pdfrwt beam="1">  1        2 0.67130684E+00 0.16632177E+04</pdfrwt>
<pdfrwt beam="2">  1       -1 0.24383186E-01 0.16632177E+04</pdfrwt>
<totfact> 0.27035614E+00</totfact>
</mgrwt>
</event>
<event>
12    7  0.1546317E-007  0.1300719E+04  0.7818608E-02  0.9028995E-01
          2   -1    0    0  501    0  0.00000000000E+00  0.00000000000E+00  0.10847847806E+04  0.10847847806E+04  0.00000000000E+00 0. -1.
         -1   -1    0    0    0  501 -0.00000000000E+00 -0.00000000000E+00 -0.38990940082E+03  0.38990940082E+03  0.00000000000E+00 0.  1.
         24    2    1    2    0    0 -0.27233838288E+03 -0.17336189694E+03  0.27837571308E+03  0.43340529050E+03  0.78259607066E+02 0.  0.
        254    2    1    2    0    0  0.27233838288E+03  0.17336189694E+03  0.41649966667E+03  0.10412888909E+04  0.89810246622E+03 0.  0.
         23    2    4    4    0    0  0.22846360794E+03 -0.16123642476E+03  0.58271430028E+03  0.65263511964E+03  0.90464572131E+02 0.  0.
         23    2    4    4    0    0  0.43874774941E+02  0.33459832170E+03 -0.16621463362E+03  0.38865377123E+03  0.97690412555E+02 0.  0.
          2    1    3    3  502    0 -0.21761554836E+03 -0.11579552685E+03  0.17170604873E+03  0.30041321226E+03  0.00000000000E+00 0. -1.
         -1    1    3    3    0  502 -0.54722834521E+02 -0.57566370088E+02  0.10666966434E+03  0.13299207824E+03  0.00000000000E+00 0.  1.
         13    1    5    5    0    0  0.15333107008E+03 -0.12536035679E+03  0.48725303271E+03  0.52596687538E+03  0.00000000000E+00 0. -1.
        -13    1    5    5    0    0  0.75132537863E+02 -0.35876067965E+02  0.95461267570E+02  0.12666824426E+03  0.00000000000E+00 0.  1.
          3    1    6    6  503    0  0.59462444202E+02  0.31754131411E+03 -0.13576356866E+03  0.35042833078E+03  0.00000000000E+00 0. -1.
         -3    1    6    6    0  503 -0.15587669261E+02  0.17057007593E+02 -0.30451064961E+02  0.38225440459E+02  0.00000000000E+00 0.  1.
<mgrwt>
<rscale>  0 0.13007195E+04</rscale>
<asrwt>0</asrwt>
<pdfrwt beam="1">  1        2 0.16688996E+00 0.13007195E+04</pdfrwt>
<pdfrwt beam="2">  1       -1 0.59986062E-01 0.13007195E+04</pdfrwt>
<totfact> 0.70128638E+01</totfact>
</mgrwt>
</event>
<event>
12    7  0.1546317E-007  0.2250978E+04  0.7818608E-02  0.8497505E-01
         -1   -1    0    0    0  501 -0.00000000000E+00  0.00000000000E+00  0.50237871747E+03  0.50237871747E+03  0.00000000000E+00 0.  1.
          2   -1    0    0  501    0  0.00000000000E+00 -0.00000000000E+00 -0.25214543075E+04  0.25214543075E+04  0.00000000000E+00 0. -1.
         24    2    1    2    0    0 -0.85840569314E+03 -0.48327101651E+02 -0.33336716923E+03  0.92568608264E+03  0.81025991602E+02 0.  0.
        254    2    1    2    0    0  0.85840569314E+03  0.48327101651E+02 -0.16857084208E+04  0.20981469423E+04  0.90631775269E+03 0.  0.
         23    2    4    4    0    0  0.24276243956E+02 -0.24601153944E+03 -0.10310468599E+03  0.28276784336E+03  0.90642503324E+02 0.  0.
         23    2    4    4    0    0  0.83412944918E+03  0.29433864109E+03 -0.15826037348E+04  0.18153790989E+04  0.92517662455E+02 0.  0.
          4    1    3    3  502    0 -0.84196624092E+02 -0.29098765501E+02 -0.37233819599E+02  0.96551369665E+02  0.00000000000E+00 0. -1.
         -1    1    3    3    0  502 -0.77420906905E+03 -0.19228336150E+02 -0.29613334963E+03  0.82913471298E+03  0.00000000000E+00 0.  1.
         13    1    5    5    0    0  0.27301896596E+02 -0.25012153095E+03 -0.87561046119E+02  0.26640779005E+03  0.00000000000E+00 0. -1.
        -13    1    5    5    0    0 -0.30256526398E+01  0.41099915057E+01 -0.15543639870E+02  0.16360053315E+02  0.00000000000E+00 0.  1.
          3    1    6    6  503    0  0.79140427286E+03  0.26385668192E+03 -0.14514074881E+04  0.16740743019E+04  0.00000000000E+00 0. -1.
         -3    1    6    6    0  503  0.42725176322E+02  0.30481959176E+02 -0.13119624673E+03  0.14130479710E+03  0.00000000000E+00 0.  1.
<mgrwt>
<rscale>  0 0.22509775E+04</rscale>
<asrwt>0</asrwt>
<pdfrwt beam="1">  1        2 0.38791606E+00 0.22509775E+04</pdfrwt>
<pdfrwt beam="2">  1       -1 0.77289031E-01 0.22509775E+04</pdfrwt>
<totfact> 0.58803179E+00</totfact>
</mgrwt>
</event>
<event>
12    7  0.1546317E-007  0.2257942E+04  0.7818608E-02  0.8494691E-01
          2   -1    0    0  501    0  0.00000000000E+00  0.00000000000E+00  0.14316236916E+04  0.14316236916E+04  0.00000000000E+00 0. -1.
         -1   -1    0    0    0  501 -0.00000000000E+00 -0.00000000000E+00 -0.89030060969E+03  0.89030060969E+03  0.00000000000E+00 0.  1.
         24    2    1    2    0    0 -0.30493281945E+03  0.34717993241E+03  0.10746542864E+04  0.11724727198E+04  0.79325365187E+02 0.  0.
        254    2    1    2    0    0  0.30493281945E+03 -0.34717993241E+03 -0.53333120443E+03  0.11494515816E+04  0.90734714132E+03 0.  0.
         23    2    4    4    0    0 -0.21591435082E+03 -0.42244836053E+03 -0.28150571072E+03  0.55915515422E+03  0.91254573126E+02 0.  0.
         23    2    4    4    0    0  0.52084717027E+03  0.75268428112E+02 -0.25182549371E+03  0.59029642734E+03  0.89925979530E+02 0.  0.
          2    1    3    3  502    0 -0.30595719370E+03  0.33457864901E+03  0.10612941770E+04  0.11540788564E+04  0.00000000000E+00 0. -1.
         -1    1    3    3    0  502  0.10243742426E+01  0.12601283402E+02  0.13360109345E+02  0.18393863316E+02  0.00000000000E+00 0.  1.
         13    1    5    5    0    0 -0.13814423806E+03 -0.30196710906E+03 -0.14920637490E+03  0.36404739770E+03  0.00000000000E+00 0.  1.
        -13    1    5    5    0    0 -0.77770112755E+02 -0.12048125147E+03 -0.13229933582E+03  0.19510775651E+03  0.00000000000E+00 0. -1.
          4    1    6    6  503    0  0.14933234577E+03 -0.18656910349E+02 -0.63993436542E+02  0.16353406286E+03  0.00000000000E+00 0. -1.
         -4    1    6    6    0  503  0.37151482450E+03  0.93925338461E+02 -0.18783205716E+03  0.42676236447E+03  0.00000000000E+00 0.  1.
<mgrwt>
<rscale>  0 0.22579419E+04</rscale>
<asrwt>0</asrwt>
<pdfrwt beam="1">  1        2 0.22024980E+00 0.22579419E+04</pdfrwt>
<pdfrwt beam="2">  1       -1 0.13696932E+00 0.22579419E+04</pdfrwt>
<totfact> 0.63849375E+00</totfact>
</mgrwt>
</event>
<event>
12    7  0.1546317E-007  0.2111852E+04  0.7818608E-02  0.8556040E-01
         -1   -1    0    0    0  501 -0.00000000000E+00  0.00000000000E+00  0.69537745972E+03  0.69537745972E+03  0.00000000000E+00 0.  1.
          2   -1    0    0  501    0  0.00000000000E+00 -0.00000000000E+00 -0.16034162886E+04  0.16034162886E+04  0.00000000000E+00 0. -1.
         24    2    1    2    0    0 -0.59429911812E+02 -0.54575336661E+03  0.35081283698E+03  0.65648801936E+03  0.80797409572E+02 0.  0.
        254    2    1    2    0    0  0.59429911812E+02  0.54575336661E+03 -0.12588516658E+04  0.16423057289E+04  0.90060087669E+03 0.  0.
         23    2    4    4    0    0 -0.38503686726E+03  0.79604905237E+02 -0.47735180493E+03  0.62528883419E+03  0.92363685494E+02 0.  0.
         23    2    4    4    0    0  0.44446677907E+03  0.46614846137E+03 -0.78149986089E+03  0.10170168947E+04  0.93467779744E+02 0.  0.
          4    1    3    3  502    0 -0.23874819757E+02 -0.45175706905E+02  0.17356284721E+02  0.53963803907E+02  0.00000000000E+00 0. -1.
         -3    1    3    3    0  502 -0.35555092055E+02 -0.50057765970E+03  0.33345655226E+03  0.60252421546E+03  0.00000000000E+00 0.  1.
         13    1    5    5    0    0 -0.18027747270E+03  0.46983318279E+02 -0.15668970171E+03  0.24343184257E+03  0.00000000000E+00 0. -1.
        -13    1    5    5    0    0 -0.20475939457E+03  0.32621586958E+02 -0.32066210323E+03  0.38185699161E+03  0.00000000000E+00 0.  1.
          3    1    6    6  503    0  0.43634114249E+03  0.46855348452E+03 -0.77863501435E+03  0.10080716473E+04  0.00000000000E+00 0. -1.
         -3    1    6    6    0  503  0.81256365826E+01 -0.24050231443E+01 -0.28648465452E+01  0.89452474490E+01  0.00000000000E+00 0.  1.
<mgrwt>
<rscale>  0 0.21118518E+04</rscale>
<asrwt>0</asrwt>
<pdfrwt beam="1">  1        2 0.24667942E+00 0.21118518E+04</pdfrwt>
<pdfrwt beam="2">  1       -1 0.10698115E+00 0.21118518E+04</pdfrwt>
<totfact> 0.94884585E+00</totfact>
</mgrwt>
</event>
<event>
12    7  0.1546317E-007  0.1514833E+04  0.7818608E-02  0.8874649E-01
         -1   -1    0    0    0  501 -0.00000000000E+00  0.00000000000E+00  0.24325442056E+03  0.24325442056E+03  0.00000000000E+00 0.  1.
          2   -1    0    0  501    0  0.00000000000E+00 -0.00000000000E+00 -0.23583531143E+04  0.23583531143E+04  0.00000000000E+00 0. -1.
         24    2    1    2    0    0 -0.44674825007E+02  0.24937028296E+03  0.31024628252E+02  0.26763814630E+03  0.80537393706E+02 0.  0.
        254    2    1    2    0    0  0.44674825007E+02 -0.24937028296E+03 -0.21461233220E+04  0.23339693885E+04  0.88169519420E+03 0.  0.
         23    2    4    4    0    0  0.38266989395E+03 -0.63322004808E+02 -0.16576311944E+04  0.17048498299E+04  0.91246050504E+02 0.  0.
         23    2    4    4    0    0 -0.33799506894E+03 -0.18604827815E+03 -0.48849212751E+03  0.62911955861E+03  0.91171442592E+02 0.  0.
          4    1    3    3  502    0  0.53207394959E+01  0.78667383550E+02  0.42169825548E+02  0.89415668035E+02  0.00000000000E+00 0. -1.
         -3    1    3    3    0  502 -0.49995564503E+02  0.17070289941E+03 -0.11145197296E+02  0.17822247827E+03  0.00000000000E+00 0.  1.
         13    1    5    5    0    0  0.81132171925E+02 -0.52476899936E+02 -0.38553671780E+03  0.39746045731E+03  0.00000000000E+00 0.  1.
        -13    1    5    5    0    0  0.30153772203E+03 -0.10845104872E+02 -0.12720944766E+04  0.13073893726E+04  0.00000000000E+00 0. -1.
          2    1    6    6  503    0 -0.34279705556E+03 -0.17904641588E+03 -0.48393329926E+03  0.61948275074E+03  0.00000000000E+00 0. -1.
         -2    1    6    6    0  503  0.48019866118E+01 -0.70018622748E+01 -0.45588282538E+01  0.96368078628E+01  0.00000000000E+00 0.  1.
<mgrwt>
<rscale>  0 0.15148331E+04</rscale>
<asrwt>0</asrwt>
<pdfrwt beam="1">  1        2 0.36282354E+00 0.15148331E+04</pdfrwt>
<pdfrwt beam="2">  1       -1 0.37423758E-01 0.15148331E+04</pdfrwt>
<totfact> 0.31802270E+01</totfact>
</mgrwt>
</event>
<event>
12    7  0.1546317E-007  0.3149104E+04  0.7818608E-02  0.8202390E-01
          2   -1    0    0  501    0  0.00000000000E+00  0.00000000000E+00  0.33613008716E+04  0.33613008716E+04  0.00000000000E+00 0. -1.
         -1   -1    0    0    0  501 -0.00000000000E+00 -0.00000000000E+00 -0.73757556885E+03  0.73757556885E+03  0.00000000000E+00 0.  1.
         24    2    1    2    0    0  0.63488647653E+03 -0.70028495078E+03 -0.21923771243E+03  0.97356158680E+03  0.79228393786E+02 0.  0.
        254    2    1    2    0    0 -0.63488647653E+03  0.70028495078E+03  0.28429630152E+04  0.31253148536E+04  0.88976085463E+03 0.  0.
         23    2    4    4    0    0 -0.51384448497E+03  0.24916841474E+03  0.60301187070E+03  0.83533879921E+03  0.89702506333E+02 0.  0.
         23    2    4    4    0    0 -0.12104199156E+03  0.45111653604E+03  0.22399511445E+04  0.22899760544E+04  0.91934255983E+02 0.  0.
          2    1    3    3  502    0  0.14770646838E+03 -0.13913069298E+03 -0.18251037929E+02  0.20373426545E+03  0.00000000000E+00 0. -1.
         -1    1    3    3    0  502  0.48718000815E+03 -0.56115425780E+03 -0.20098667450E+03  0.76982732136E+03  0.00000000000E+00 0.  1.
         13    1    5    5    0    0 -0.24652903858E+03  0.93206487157E+02  0.33254315404E+03  0.42432177108E+03  0.00000000000E+00 0. -1.
        -13    1    5    5    0    0 -0.26731544638E+03  0.15596192758E+03  0.27046871666E+03  0.41101702814E+03  0.00000000000E+00 0.  1.
          1    1    6    6  503    0 -0.76357745181E+02  0.40367540002E+03  0.19244027915E+04  0.19677678820E+04  0.00000000000E+00 0. -1.
         -1    1    6    6    0  503 -0.44684246383E+02  0.47441136020E+02  0.31554835302E+03  0.32220817239E+03  0.00000000000E+00 0.  1.
<mgrwt>
<rscale>  0 0.31491036E+04</rscale>
<asrwt>0</asrwt>
<pdfrwt beam="1">  1        2 0.51712320E+00 0.31491036E+04</pdfrwt>
<pdfrwt beam="2">  1       -1 0.11347317E+00 0.31491036E+04</pdfrwt>
<totfact> 0.68879703E-01</totfact>
</mgrwt>
</event>
<event>
12    7  0.1562739E-007  0.2444819E+04  0.7818608E-02  0.8422912E-01
         -1   -1    0    0    0  501 -0.00000000000E+00  0.00000000000E+00  0.95806386634E+03  0.95806386634E+03  0.00000000000E+00 0.  1.
          2   -1    0    0  501    0  0.00000000000E+00 -0.00000000000E+00 -0.15596918391E+04  0.15596918391E+04  0.00000000000E+00 0. -1.
         24    2    1    2    0    0  0.34562453244E+03 -0.27563101598E+03  0.73232235910E+03  0.85898972794E+03  0.78348839539E+02 0.  0.
        254    2    1    2    0    0 -0.34562453244E+03  0.27563101598E+03 -0.13339503318E+04  0.16587659775E+04  0.88127879006E+03 0.  0.
         23    2    4    4    0    0 -0.71819224740E+02  0.27239823059E+03 -0.13375814217E+04  0.13699208689E+04  0.90555675427E+02 0.  0.
         23    2    4    4    0    0 -0.27380530771E+03  0.32327853872E+01  0.36310898251E+01  0.28884510859E+03  0.91861387499E+02 0.  0.
          4    1    3    3  502    0  0.48659992126E+02 -0.17164722585E+02  0.12494720490E+03  0.13518219760E+03  0.00000000000E+00 0. -1.
         -3    1    3    3    0  502  0.29696454032E+03 -0.25846629340E+03  0.60737515420E+03  0.72380753033E+03  0.00000000000E+00 0.  1.
         13    1    5    5    0    0  0.19343926599E+02  0.35985628524E+02 -0.24169477273E+03  0.24512347117E+03  0.00000000000E+00 0.  1.
        -13    1    5    5    0    0 -0.91163151339E+02  0.23641260207E+03 -0.10958866489E+04  0.11247973977E+04  0.00000000000E+00 0. -1.
          1    1    6    6  503    0 -0.13681172583E+03 -0.20280268096E+02  0.42191127739E+02  0.14459885497E+03  0.00000000000E+00 0. -1.
         -1    1    6    6    0  503 -0.13699358187E+03  0.23513053484E+02 -0.38560037914E+02  0.14424625361E+03  0.00000000000E+00 0.  1.
<mgrwt>
<rscale>  0 0.24448185E+04</rscale>
<asrwt>0</asrwt>
<pdfrwt beam="1">  1        2 0.23995259E+00 0.24448185E+04</pdfrwt>
<pdfrwt beam="2">  1       -1 0.14739444E+00 0.24448185E+04</pdfrwt>
<totfact> 0.43842869E+00</totfact>
</mgrwt>
</event>
<event>
12    7  0.1546317E-007  0.2192845E+04  0.7818608E-02  0.8521412E-01
          2   -1    0    0  501    0  0.00000000000E+00  0.00000000000E+00  0.66205547991E+03  0.66205547991E+03  0.00000000000E+00 0. -1.
         -1   -1    0    0    0  501 -0.00000000000E+00 -0.00000000000E+00 -0.18157734464E+04  0.18157734464E+04  0.00000000000E+00 0.  1.
         24    2    1    2    0    0 -0.11957082498E+03 -0.86521714019E+03 -0.76440911497E+03  0.11640677289E+04  0.88512713620E+02 0.  0.
        254    2    1    2    0    0  0.11957082498E+03  0.86521714019E+03 -0.38930885156E+03  0.13137611975E+04  0.90083806550E+03 0.  0.
         23    2    4    4    0    0 -0.37207562520E+03  0.25039839120E+03 -0.92154427539E+02  0.46733484958E+03  0.93647199289E+02 0.  0.
         23    2    4    4    0    0  0.49164645018E+03  0.61481874899E+03 -0.29715442402E+03  0.84642634790E+03  0.91752300423E+02 0.  0.
          4    1    3    3  502    0  0.13505308460E+02 -0.71346550716E+02 -0.54404640726E+02  0.90733613332E+02  0.00000000000E+00 0. -1.
         -3    1    3    3    0  502 -0.13307613344E+03 -0.79387058947E+03 -0.71000447424E+03  0.10733341155E+04  0.00000000000E+00 0.  1.
         13    1    5    5    0    0 -0.28409500198E+02  0.55969332254E+02 -0.49138638700E+01  0.62958811239E+02  0.00000000000E+00 0. -1.
        -13    1    5    5    0    0 -0.34366612500E+03  0.19442905895E+03 -0.87240563669E+02  0.40437603835E+03  0.00000000000E+00 0.  1.
          3    1    6    6  503    0  0.17784305383E+03  0.26758473903E+03 -0.15872505855E+03  0.35836209143E+03  0.00000000000E+00 0. -1.
         -3    1    6    6    0  503  0.31380339635E+03  0.34723400995E+03 -0.13842936547E+03  0.48806425648E+03  0.00000000000E+00 0.  1.
<mgrwt>
<rscale>  0 0.21928454E+04</rscale>
<asrwt>0</asrwt>
<pdfrwt beam="1">  1        2 0.10185469E+00 0.21928454E+04</pdfrwt>
<pdfrwt beam="2">  1       -1 0.27934976E+00 0.21928454E+04</pdfrwt>
<totfact> 0.20619973E+00</totfact>
</mgrwt>
</event>
<event>
12    7  0.1546317E-007  0.2193237E+04  0.7818608E-02  0.8521248E-01
         -1   -1    0    0    0  501 -0.00000000000E+00  0.00000000000E+00  0.11840702507E+04  0.11840702507E+04  0.00000000000E+00 0.  1.
          2   -1    0    0  501    0  0.00000000000E+00 -0.00000000000E+00 -0.10156257402E+04  0.10156257402E+04  0.00000000000E+00 0. -1.
         24    2    1    2    0    0 -0.18749184621E+03  0.22299162269E+03 -0.82945648289E+03  0.88262551120E+03  0.78430095127E+02 0.  0.
        254    2    1    2    0    0  0.18749184621E+03 -0.22299162269E+03  0.99790099340E+03  0.13170704796E+04  0.80869635801E+03 0.  0.
         23    2    4    4    0    0 -0.17275227387E+03  0.20008680372E+03  0.46012940502E+03  0.53843125868E+03  0.91165090993E+02 0.  0.
         23    2    4    4    0    0  0.36024412007E+03 -0.42307842640E+03  0.53777158838E+03  0.77863922093E+03  0.91156865708E+02 0.  0.
          2    1    3    3  502    0 -0.17900478553E+03  0.18620559423E+03 -0.77027763411E+03  0.81243022480E+03  0.00000000000E+00 0. -1.
         -1    1    3    3    0  502 -0.84870606823E+01  0.36786028460E+02 -0.59178848781E+02  0.70195286394E+02  0.00000000000E+00 0.  1.
         13    1    5    5    0    0 -0.60403217553E+02  0.11339521437E+03  0.15083999998E+03  0.19814067963E+03  0.00000000000E+00 0.  1.
        -13    1    5    5    0    0 -0.11234905631E+03  0.86691589346E+02  0.30928940504E+03  0.34029057905E+03  0.00000000000E+00 0. -1.
          3    1    6    6  503    0  0.33211259661E+03 -0.33957467779E+03  0.45334007251E+03  0.65660258906E+03  0.00000000000E+00 0. -1.
         -3    1    6    6    0  503  0.28131523466E+02 -0.83503748616E+02  0.84431515870E+02  0.12203663187E+03  0.00000000000E+00 0.  1.
<mgrwt>
<rscale>  0 0.21932371E+04</rscale>
<asrwt>0</asrwt>
<pdfrwt beam="1">  1        2 0.15625011E+00 0.21932371E+04</pdfrwt>
<pdfrwt beam="2">  1       -1 0.18216465E+00 0.21932371E+04</pdfrwt>
<totfact> 0.51549606E+00</totfact>
</mgrwt>
</event>
<event>
12    7  0.1546317E-007  0.3039400E+04  0.7818608E-02  0.8232569E-01
         -1   -1    0    0    0  501 -0.00000000000E+00  0.00000000000E+00  0.12611457215E+04  0.12611457215E+04  0.00000000000E+00 0.  1.
          2   -1    0    0  501    0  0.00000000000E+00 -0.00000000000E+00 -0.18312614373E+04  0.18312614373E+04  0.00000000000E+00 0. -1.
         24    2    1    2    0    0  0.25871404664E+03 -0.13486638946E+04 -0.44618866770E+03  0.14461238557E+04  0.79766035018E+02 0.  0.
        254    2    1    2    0    0 -0.25871404664E+03  0.13486638946E+04 -0.12392704807E+03  0.16462833031E+04  0.89947959537E+03 0.  0.
         23    2    4    4    0    0 -0.47012186993E+03  0.12990588287E+04 -0.19902859543E+03  0.13986990755E+04  0.90434003269E+02 0.  0.
         23    2    4    4    0    0  0.21140782329E+03  0.49605065840E+02  0.75101547364E+02  0.24758422762E+03  0.92215926194E+02 0.  0.
          2    1    3    3  502    0  0.30913480957E+02 -0.25281349320E+03 -0.11011413208E+03  0.27748049974E+03  0.00000000000E+00 0. -1.
         -1    1    3    3    0  502  0.22780056568E+03 -0.10958504014E+04 -0.33607453561E+03  0.11686433560E+04  0.00000000000E+00 0.  1.
         13    1    5    5    0    0 -0.44462436526E+03  0.12480561599E+04 -0.20753680029E+03  0.13410468031E+04  0.00000000000E+00 0.  1.
        -13    1    5    5    0    0 -0.25497504668E+02  0.51002668819E+02  0.85082048542E+01  0.57652272468E+02  0.00000000000E+00 0. -1.
          3    1    6    6  503    0  0.91624361936E+02  0.25964061063E+02 -0.14243535264E+02  0.96291403894E+02  0.00000000000E+00 0. -1.
         -3    1    6    6    0  503  0.11978346135E+03  0.23641004777E+02  0.89345082628E+02  0.15129282372E+03  0.00000000000E+00 0.  1.
<mgrwt>
<rscale>  0 0.30393996E+04</rscale>
<asrwt>0</asrwt>
<pdfrwt beam="1">  1        2 0.28173253E+00 0.30393996E+04</pdfrwt>
<pdfrwt beam="2">  1       -1 0.19402242E+00 0.30393996E+04</pdfrwt>
<totfact> 0.13330475E+00</totfact>
</mgrwt>
</event>
<event>
12    7  0.1546317E-007  0.1247707E+04  0.7818608E-02  0.9072093E-01
         -1   -1    0    0    0  501 -0.00000000000E+00  0.00000000000E+00  0.15930856519E+04  0.15930856519E+04  0.00000000000E+00 0.  1.
          2   -1    0    0  501    0  0.00000000000E+00 -0.00000000000E+00 -0.24430166591E+03  0.24430166591E+03  0.00000000000E+00 0. -1.
         24    2    1    2    0    0 -0.60920257583E+02  0.17624782381E+03  0.64447058884E+03  0.67566236906E+03  0.80017022550E+02 0.  0.
        254    2    1    2    0    0  0.60920257583E+02 -0.17624782381E+03  0.70431339716E+03  0.11617249488E+04  0.90486071967E+03 0.  0.
         23    2    4    4    0    0  0.27674677222E+02 -0.53916034383E+03  0.43031400078E+03  0.69711110645E+03  0.96612583849E+02 0.  0.
         23    2    4    4    0    0  0.33245580361E+02  0.36291252001E+03  0.27399939637E+03  0.46461384231E+03  0.89328536659E+02 0.  0.
          4    1    3    3  502    0  0.10875752648E+02  0.13919660910E+01  0.16112554465E+02  0.19489329815E+02  0.00000000000E+00 0. -1.
         -3    1    3    3    0  502 -0.71796010231E+02  0.17485585772E+03  0.62835803438E+03  0.65617303925E+03  0.00000000000E+00 0.  1.
         13    1    5    5    0    0  0.27932237878E+02 -0.39487637011E+02  0.30623566274E+02  0.57247586857E+02  0.00000000000E+00 0. -1.
        -13    1    5    5    0    0 -0.25756065676E+00 -0.49967270681E+03  0.39969043451E+03  0.63986351960E+03  0.00000000000E+00 0.  1.
          1    1    6    6  503    0 -0.18066510017E+01  0.55152326980E+02  0.69098734659E+01  0.55612853824E+02  0.00000000000E+00 0. -1.
         -1    1    6    6    0  503  0.35052231363E+02  0.30776019303E+03  0.26708952291E+03  0.40900098849E+03  0.00000000000E+00 0.  1.
<mgrwt>
<rscale>  0 0.12477075E+04</rscale>
<asrwt>0</asrwt>
<pdfrwt beam="1">  1        2 0.37584873E-01 0.12477075E+04</pdfrwt>
<pdfrwt beam="2">  1       -1 0.24509009E+00 0.12477075E+04</pdfrwt>
<totfact> 0.11713654E+01</totfact>
</mgrwt>
</event>
<event>
12    7  0.1546317E-007  0.1252332E+04  0.7818608E-02  0.9068244E-01
         -1   -1    0    0    0  501 -0.00000000000E+00  0.00000000000E+00  0.58598104422E+03  0.58598104422E+03  0.00000000000E+00 0.  1.
          2   -1    0    0  501    0  0.00000000000E+00 -0.00000000000E+00 -0.66910697364E+03  0.66910697364E+03  0.00000000000E+00 0. -1.
         24    2    1    2    0    0  0.13300105924E+03  0.23106677219E+03 -0.14917061321E+03  0.31598451534E+03  0.80704442971E+02 0.  0.
        254    2    1    2    0    0 -0.13300105924E+03 -0.23106677219E+03  0.66044683798E+02  0.93910350253E+03  0.89803805778E+03 0.  0.
         23    2    4    4    0    0 -0.30749514540E+03 -0.25659783998E+03 -0.31076241708E+03  0.51397650333E+03  0.84869606895E+02 0.  0.
         23    2    4    4    0    0  0.17449408616E+03  0.25531067784E+02  0.37680710088E+03  0.42512699920E+03  0.87460577662E+02 0.  0.
          4    1    3    3  502    0  0.12770568378E+03  0.14866095755E+03 -0.10509660424E+03  0.22238281901E+03  0.00000000000E+00 0. -1.
         -3    1    3    3    0  502  0.52953754666E+01  0.82405814641E+02 -0.44074008968E+02  0.93601696322E+02  0.00000000000E+00 0.  1.
         13    1    5    5    0    0 -0.72416964523E+02 -0.37947652235E+02 -0.28769422202E+02  0.86671337331E+02  0.00000000000E+00 0.  1.
        -13    1    5    5    0    0 -0.23507818088E+03 -0.21865018774E+03 -0.28199299488E+03  0.42730516600E+03  0.00000000000E+00 0. -1.
          4    1    6    6  503    0  0.17163434790E+03  0.35869483717E+02  0.37537097295E+03  0.41430464223E+03  0.00000000000E+00 0. -1.
         -4    1    6    6    0  503  0.28597382595E+01 -0.10338415934E+02  0.14361279360E+01  0.10822356970E+02  0.00000000000E+00 0.  1.
<mgrwt>
<rscale>  0 0.12523322E+04</rscale>
<asrwt>0</asrwt>
<pdfrwt beam="1">  1        2 0.10293953E+00 0.12523322E+04</pdfrwt>
<pdfrwt beam="2">  1       -1 0.90150930E-01 0.12523322E+04</pdfrwt>
<totfact> 0.58664570E+01</totfact>
</mgrwt>
</event>
<event>
12    7  0.1546317E-007  0.1167937E+04  0.7818608E-02  0.9141393E-01
          2   -1    0    0  501    0  0.00000000000E+00  0.00000000000E+00  0.57518214476E+03  0.57518214476E+03  0.00000000000E+00 0. -1.
         -1   -1    0    0    0  501 -0.00000000000E+00 -0.00000000000E+00 -0.59288942533E+03  0.59288942533E+03  0.00000000000E+00 0.  1.
         24    2    1    2    0    0 -0.58251589138E+02  0.39751212560E+01  0.21035466576E+03  0.23282538773E+03  0.80929145167E+02 0.  0.
        254    2    1    2    0    0  0.58251589138E+02 -0.39751212560E+01 -0.22806194634E+03  0.93524618236E+03  0.90513210143E+03 0.  0.
         23    2    4    4    0    0 -0.27548963215E+03 -0.30434444287E+03  0.49165043577E+01  0.42112935656E+03  0.93838614722E+02 0.  0.
         23    2    4    4    0    0  0.33374122129E+03  0.30036932161E+03 -0.23297845069E+03  0.51411682581E+03  0.91827119835E+02 0.  0.
          2    1    3    3  502    0 -0.30927537836E+02  0.13177096608E+02  0.19902993710E+03  0.20184911279E+03  0.00000000000E+00 0. -1.
         -1    1    3    3    0  502 -0.27324051302E+02 -0.92019753517E+01  0.11324728661E+02  0.30976274940E+02  0.00000000000E+00 0.  1.
         13    1    5    5    0    0 -0.57491459245E+01 -0.21064189528E+02 -0.19405887431E+02  0.29212004832E+02  0.00000000000E+00 0. -1.
        -13    1    5    5    0    0 -0.26974048622E+03 -0.28328025334E+03  0.24322391788E+02  0.39191735173E+03  0.00000000000E+00 0.  1.
          3    1    6    6  503    0  0.15407367577E+01  0.40155965547E+01 -0.20291446774E+02  0.20742268382E+02  0.00000000000E+00 0. -1.
         -3    1    6    6    0  503  0.33220048453E+03  0.29635372506E+03 -0.21268700392E+03  0.49337455742E+03  0.00000000000E+00 0.  1.
<mgrwt>
<rscale>  0 0.11679373E+04</rscale>
<asrwt>0</asrwt>
<pdfrwt beam="1">  1        2 0.88489561E-01 0.11679373E+04</pdfrwt>
<pdfrwt beam="2">  1       -1 0.91213758E-01 0.11679373E+04</pdfrwt>
<totfact> 0.69202827E+01</totfact>
</mgrwt>
</event>
<event>
12    7  0.1546317E-007  0.1694218E+04  0.7818608E-02  0.8764669E-01
          2   -1    0    0  501    0  0.00000000000E+00  0.00000000000E+00  0.39610919349E+04  0.39610919349E+04  0.00000000000E+00 0. -1.
         -1   -1    0    0    0  501 -0.00000000000E+00 -0.00000000000E+00 -0.18116056234E+03  0.18116056234E+03  0.00000000000E+00 0.  1.
         24    2    1    2    0    0 -0.23466798438E+03  0.50171447620E+03  0.75868225412E+03  0.94271587083E+03  0.79548550433E+02 0.  0.
        254    2    1    2    0    0  0.23466798438E+03 -0.50171447620E+03  0.30212491184E+04  0.31995366264E+04  0.89571307321E+03 0.  0.
         23    2    4    4    0    0  0.42192633095E+03 -0.62051683259E+03  0.17560476349E+04  0.19118525713E+04  0.91727804357E+02 0.  0.
         23    2    4    4    0    0 -0.18725834657E+03  0.11880235639E+03  0.12652014835E+04  0.12876840551E+04  0.90640739054E+02 0.  0.
          4    1    3    3  502    0 -0.12353517346E+02  0.29835665743E+01  0.26040781979E+02  0.28976428116E+02  0.00000000000E+00 0. -1.
         -1    1    3    3    0  502 -0.22231446703E+03  0.49873090962E+03  0.73264147214E+03  0.91373944271E+03  0.00000000000E+00 0.  1.
         13    1    5    5    0    0  0.30682124222E+03 -0.42636529501E+03  0.13241235005E+04  0.14245103313E+04  0.00000000000E+00 0.  1.
        -13    1    5    5    0    0  0.11510508872E+03 -0.19415153758E+03  0.43192413443E+03  0.48734224001E+03  0.00000000000E+00 0. -1.
          3    1    6    6  503    0 -0.19703858995E+03  0.11622383340E+03  0.11882129280E+04  0.12100339448E+04  0.00000000000E+00 0. -1.
         -3    1    6    6    0  503  0.97802433778E+01  0.25785229877E+01  0.76988555524E+02  0.77650110257E+02  0.00000000000E+00 0.  1.
<mgrwt>
<rscale>  0 0.16942180E+04</rscale>
<asrwt>0</asrwt>
<pdfrwt beam="1">  1        2 0.60939870E+00 0.16942180E+04</pdfrwt>
<pdfrwt beam="2">  1       -1 0.27870859E-01 0.16942180E+04</pdfrwt>
<totfact> 0.47040812E+00</totfact>
</mgrwt>
</event>
<event>
12    7  0.1546317E-007  0.1364414E+04  0.7818608E-02  0.8979988E-01
          2   -1    0    0  501    0  0.00000000000E+00  0.00000000000E+00  0.13284499395E+04  0.13284499395E+04  0.00000000000E+00 0. -1.
         -1   -1    0    0    0  501 -0.00000000000E+00 -0.00000000000E+00 -0.35033780020E+03  0.35033780020E+03  0.00000000000E+00 0.  1.
         24    2    1    2    0    0  0.20853012658E+03  0.25130833009E+03  0.33043219736E+02  0.33777086637E+03  0.79728372216E+02 0.  0.
        254    2    1    2    0    0 -0.20853012658E+03 -0.25130833009E+03  0.94506891953E+03  0.13410168733E+04  0.89360522677E+03 0.  0.
         23    2    4    4    0    0 -0.41287753702E+03  0.18390804021E+03  0.45945583503E+03  0.65104611385E+03  0.92039937956E+02 0.  0.
         23    2    4    4    0    0  0.20434741045E+03 -0.43521637030E+03  0.48561308450E+03  0.68997075944E+03  0.95228293631E+02 0.  0.
          4    1    3    3  502    0  0.83724017254E+02  0.14945665341E+03 -0.81260725277E+01  0.17150228969E+03  0.00000000000E+00 0. -1.
         -3    1    3    3    0  502  0.12480610932E+03  0.10185167668E+03  0.41169292264E+02  0.16626857668E+03  0.00000000000E+00 0.  1.
         13    1    5    5    0    0 -0.22454527134E+03  0.60374921433E+02  0.27339725277E+03  0.35890356343E+03  0.00000000000E+00 0. -1.
        -13    1    5    5    0    0 -0.18833226569E+03  0.12353311878E+03  0.18605858226E+03  0.29214255042E+03  0.00000000000E+00 0.  1.
          2    1    6    6  503    0  0.19565184233E+03 -0.36103241491E+03  0.37248028819E+03  0.55440563950E+03  0.00000000000E+00 0. -1.
         -2    1    6    6    0  503  0.86955681188E+01 -0.74183955396E+02  0.11313279631E+03  0.13556511994E+03  0.00000000000E+00 0.  1.
<mgrwt>
<rscale>  0 0.13644138E+04</rscale>
<asrwt>0</asrwt>
<pdfrwt beam="1">  1        2 0.20437691E+00 0.13644138E+04</pdfrwt>
<pdfrwt beam="2">  1       -1 0.53898124E-01 0.13644138E+04</pdfrwt>
<totfact> 0.61491421E+01</totfact>
</mgrwt>
</event>
<event>
12    7  0.1546317E-007  0.1697190E+04  0.7818608E-02  0.8762969E-01
          2   -1    0    0  501    0  0.00000000000E+00  0.00000000000E+00  0.14719548385E+04  0.14719548385E+04  0.00000000000E+00 0. -1.
         -1   -1    0    0    0  501 -0.00000000000E+00 -0.00000000000E+00 -0.48922232054E+03  0.48922232054E+03  0.00000000000E+00 0.  1.
         24    2    1    2    0    0 -0.58132496207E+03 -0.14188434343E+03  0.23349654092E+03  0.64725548198E+03  0.79681527939E+02 0.  0.
        254    2    1    2    0    0  0.58132496207E+03  0.14188434343E+03  0.74923597706E+03  0.13139216771E+04  0.89831272156E+03 0.  0.
         23    2    4    4    0    0  0.31534363512E+03 -0.17251506895E+03  0.80711806318E+03  0.88810880377E+03  0.89970118341E+02 0.  0.
         23    2    4    4    0    0  0.26598132695E+03  0.31439941238E+03 -0.57882086125E+02  0.42581287330E+03  0.91505247817E+02 0.  0.
          2    1    3    3  502    0 -0.91066115440E+02 -0.47953029706E+01  0.61194372336E+02  0.10982159859E+03  0.00000000000E+00 0. -1.
         -1    1    3    3    0  502 -0.49025884663E+03 -0.13708904046E+03  0.17230216858E+03  0.53743388338E+03  0.00000000000E+00 0.  1.
         13    1    5    5    0    0  0.19533516102E+03 -0.61998367853E+02  0.39807122936E+03  0.44772796026E+03  0.00000000000E+00 0.  1.
        -13    1    5    5    0    0  0.12000847409E+03 -0.11051670110E+03  0.40904683382E+03  0.44038084351E+03  0.00000000000E+00 0. -1.
          1    1    6    6  503    0  0.80309383324E+02  0.71095525773E+02  0.22027320977E+02  0.10949599858E+03  0.00000000000E+00 0. -1.
         -1    1    6    6    0  503  0.18567194363E+03  0.24330388661E+03 -0.79909407102E+02  0.31631687472E+03  0.00000000000E+00 0.  1.
<mgrwt>
<rscale>  0 0.16971896E+04</rscale>
<asrwt>0</asrwt>
<pdfrwt beam="1">  1        2 0.22645459E+00 0.16971896E+04</pdfrwt>
<pdfrwt beam="2">  1       -1 0.75264974E-01 0.16971896E+04</pdfrwt>
<totfact> 0.25343714E+01</totfact>
</mgrwt>
</event>
<event>
12    7  0.1546317E-007  0.2110559E+04  0.7818608E-02  0.8556606E-01
          2   -1    0    0  501    0  0.00000000000E+00  0.00000000000E+00  0.20993687086E+04  0.20993687086E+04  0.00000000000E+00 0. -1.
         -1   -1    0    0    0  501 -0.00000000000E+00 -0.00000000000E+00 -0.53045200858E+03  0.53045200858E+03  0.00000000000E+00 0.  1.
         24    2    1    2    0    0 -0.45174592312E+03 -0.14980922559E+03  0.15291434647E+04  0.16031567498E+04  0.72901614687E+02 0.  0.
        254    2    1    2    0    0  0.45174592312E+03  0.14980922559E+03  0.39773235295E+02  0.10266639674E+04  0.90881230660E+03 0.  0.
         23    2    4    4    0    0  0.46196882640E+03  0.38924507778E+03  0.28275129419E+03  0.67318552012E+03  0.91123668646E+02 0.  0.
         23    2    4    4    0    0 -0.10222903276E+02 -0.23943585219E+03 -0.24297805890E+03  0.35347844730E+03  0.92057810840E+02 0.  0.
          2    1    3    3  502    0 -0.23335355077E+03 -0.39062924476E+02  0.74388276220E+03  0.78060319986E+03  0.00000000000E+00 0. -1.
         -1    1    3    3    0  502 -0.21839237235E+03 -0.11074630112E+03  0.78526070253E+03  0.82255354990E+03  0.00000000000E+00 0.  1.
         13    1    5    5    0    0  0.81805403838E+01 -0.46334465105E+01  0.79256988882E+00  0.94349475126E+01  0.00000000000E+00 0.  1.
        -13    1    5    5    0    0  0.45378828602E+03  0.39387852429E+03  0.28195872431E+03  0.66375057261E+03  0.00000000000E+00 0. -1.
          1    1    6    6  503    0 -0.16149325239E+02 -0.18187852450E+03 -0.12265408191E+03  0.21996504765E+03  0.00000000000E+00 0.  1.
         -1    1    6    6    0  503  0.59264219630E+01 -0.57557327695E+02 -0.12032397699E+03  0.13351339966E+03  0.00000000000E+00 0. -1.
<mgrwt>
<rscale>  0 0.21105585E+04</rscale>
<asrwt>0</asrwt>
<pdfrwt beam="1">  1        2 0.32297980E+00 0.21105585E+04</pdfrwt>
<pdfrwt beam="2">  1       -1 0.81608002E-01 0.21105585E+04</pdfrwt>
<totfact> 0.92131696E+00</totfact>
</mgrwt>
</event>
<event>
12    7  0.1546317E-007  0.1290108E+04  0.7818608E-02  0.9037447E-01
          2   -1    0    0  501    0  0.00000000000E+00  0.00000000000E+00  0.60694875936E+03  0.60694875936E+03  0.00000000000E+00 0. -1.
         -1   -1    0    0    0  501 -0.00000000000E+00 -0.00000000000E+00 -0.68555157670E+03  0.68555157670E+03  0.00000000000E+00 0.  1.
         24    2    1    2    0    0 -0.16452646530E+03 -0.27131588822E+03  0.15846539078E+02  0.32762016272E+03  0.80016181056E+02 0.  0.
        254    2    1    2    0    0  0.16452646530E+03  0.27131588822E+03 -0.94449356418E+02  0.96488017335E+03  0.90630668044E+03 0.  0.
         23    2    4    4    0    0 -0.20425190661E+03  0.20626829626E+03  0.28998416121E+03  0.42103768635E+03  0.94427052167E+02 0.  0.
         23    2    4    4    0    0  0.36877837191E+03  0.65047591960E+02 -0.38443351763E+03  0.54384248700E+03  0.88016159743E+02 0.  0.
          4    1    3    3  502    0 -0.10673853944E+03 -0.18632536441E+03  0.47805789072E+02  0.21999011499E+03  0.00000000000E+00 0. -1.
         -3    1    3    3    0  502 -0.57787925866E+02 -0.84990523808E+02 -0.31959249995E+02  0.10763004773E+03  0.00000000000E+00 0.  1.
         13    1    5    5    0    0 -0.19765123050E+02  0.10420708917E+02  0.70053734962E+02  0.73530789780E+02  0.00000000000E+00 0.  1.
        -13    1    5    5    0    0 -0.18448678356E+03  0.19584758734E+03  0.21993042625E+03  0.34750689657E+03  0.00000000000E+00 0. -1.
          1    1    6    6  503    0  0.36036176306E+03  0.58789684036E+02 -0.34251900271E+03  0.50063569034E+03  0.00000000000E+00 0. -1.
         -1    1    6    6    0  503  0.84166088479E+01  0.62579079241E+01 -0.41914514922E+02  0.43206796655E+02  0.00000000000E+00 0.  1.
<mgrwt>
<rscale>  0 0.12901080E+04</rscale>
<asrwt>0</asrwt>
<pdfrwt beam="1">  1        2 0.93376732E-01 0.12901080E+04</pdfrwt>
<pdfrwt beam="2">  1       -1 0.10546947E+00 0.12901080E+04</pdfrwt>
<totfact> 0.46211263E+01</totfact>
</mgrwt>
</event>
<event>
12    7  0.1546317E-007  0.1391996E+04  0.7818608E-02  0.8959633E-01
          2   -1    0    0  501    0  0.00000000000E+00  0.00000000000E+00  0.43635039722E+03  0.43635039722E+03  0.00000000000E+00 0. -1.
         -1   -1    0    0    0  501 -0.00000000000E+00 -0.00000000000E+00 -0.11101465302E+04  0.11101465302E+04  0.00000000000E+00 0.  1.
         24    2    1    2    0    0 -0.38457154951E+03  0.76432731534E+02 -0.93049789667E+02  0.41024385709E+03  0.76840873126E+02 0.  0.
        254    2    1    2    0    0  0.38457154951E+03 -0.76432731534E+02 -0.58074634328E+03  0.11362530703E+04  0.89446491568E+03 0.  0.
         23    2    4    4    0    0  0.21968912136E+03  0.41445027299E+02 -0.79283333045E+03  0.82863359609E+03  0.89821747702E+02 0.  0.
         23    2    4    4    0    0  0.16488242815E+03 -0.11787775883E+03  0.21208698717E+03  0.30761947421E+03  0.92560626866E+02 0.  0.
          4    1    3    3  502    0 -0.68122573436E+02 -0.15744071400E+02 -0.18297744966E+02  0.72272873657E+02  0.00000000000E+00 0. -1.
         -3    1    3    3    0  502 -0.31644897607E+03  0.92176802934E+02 -0.74752044700E+02  0.33797098343E+03  0.00000000000E+00 0.  1.
         13    1    5    5    0    0  0.58043415337E+02  0.30471899375E+02 -0.12183619491E+03  0.13835329091E+03  0.00000000000E+00 0. -1.
        -13    1    5    5    0    0  0.16164570602E+03  0.10973127924E+02 -0.67099713555E+03  0.69028030518E+03  0.00000000000E+00 0.  1.
          1    1    6    6  503    0  0.44168758482E+02  0.11163273655E+02  0.34967517696E+02  0.57430176723E+02  0.00000000000E+00 0. -1.
         -1    1    6    6    0  503  0.12071366966E+03 -0.12904103249E+03  0.17711946947E+03  0.25018929748E+03  0.00000000000E+00 0.  1.
<mgrwt>
<rscale>  0 0.13919955E+04</rscale>
<asrwt>0</asrwt>
<pdfrwt beam="1">  1        2 0.67130831E-01 0.13919955E+04</pdfrwt>
<pdfrwt beam="2">  1       -1 0.17079177E+00 0.13919955E+04</pdfrwt>
<totfact> 0.19483765E+01</totfact>
</mgrwt>
</event>
<event>
12    7  0.1708284E-007  0.2100847E+04  0.7818608E-02  0.8560870E-01
         -1   -1    0    0    0  501 -0.00000000000E+00  0.00000000000E+00  0.70936674810E+03  0.70936674810E+03  0.00000000000E+00 0.  1.
          2   -1    0    0  501    0  0.00000000000E+00 -0.00000000000E+00 -0.15554573742E+04  0.15554573742E+04  0.00000000000E+00 0. -1.
         24    2    1    2    0    0 -0.14509016418E+03  0.40181106923E+03  0.46098459601E+03  0.63353255365E+03  0.79708266049E+02 0.  0.
        254    2    1    2    0    0  0.14509016418E+03 -0.40181106923E+03 -0.13070752221E+04  0.16312915687E+04  0.87758945674E+03 0.  0.
         23    2    4    4    0    0 -0.41767513278E+02 -0.37351162537E+03 -0.13596067136E+04  0.14135339248E+04  0.91061965627E+02 0.  0.
         23    2    4    4    0    0  0.18685767746E+03 -0.28299443862E+02  0.52531491406E+02  0.21775764387E+03  0.94563120334E+02 0.  0.
          2    1    3    3  502    0 -0.23982311248E+02  0.31363898160E+02  0.17668863870E+02  0.43255451807E+02  0.00000000000E+00 0. -1.
         -1    1    3    3    0  502 -0.12110785293E+03  0.37044717107E+03  0.44331573214E+03  0.59027710185E+03  0.00000000000E+00 0.  1.
         13    1    5    5    0    0 -0.23589241433E+00 -0.75337987778E+01 -0.35243129607E+01  0.83207302023E+01  0.00000000000E+00 0.  1.
        -13    1    5    5    0    0 -0.41531620864E+02 -0.36597782659E+03 -0.13560824006E+04  0.14052131946E+04  0.00000000000E+00 0. -1.
          4    1    6    6  503    0  0.12418244581E+03  0.20231329505E+02  0.57496022760E+02  0.13833430223E+03  0.00000000000E+00 0. -1.
         -4    1    6    6    0  503  0.62675231650E+02 -0.48530773366E+02 -0.49645313537E+01  0.79423341641E+02  0.00000000000E+00 0.  1.
<mgrwt>
<rscale>  0 0.21008472E+04</rscale>
<asrwt>0</asrwt>
<pdfrwt beam="1">  1        2 0.23930113E+00 0.21008472E+04</pdfrwt>
<pdfrwt beam="2">  1       -1 0.10913335E+00 0.21008472E+04</pdfrwt>
<totfact> 0.96420516E+00</totfact>
</mgrwt>
</event>
<event>
12    7  0.1546317E-007  0.1479084E+04  0.7818608E-02  0.8898482E-01
         -1   -1    0    0    0  501 -0.00000000000E+00  0.00000000000E+00  0.16031582070E+04  0.16031582070E+04  0.00000000000E+00 0.  1.
          2   -1    0    0  501    0  0.00000000000E+00 -0.00000000000E+00 -0.34115310786E+03  0.34115310786E+03  0.00000000000E+00 0. -1.
         24    2    1    2    0    0 -0.32968790661E+03  0.25725228574E+03  0.64903838115E+03  0.77523494478E+03  0.69753459546E+02 0.  0.
        254    2    1    2    0    0  0.32968790661E+03 -0.25725228574E+03  0.61296671800E+03  0.11690763701E+04  0.90340384516E+03 0.  0.
         23    2    4    4    0    0  0.32139880148E+03  0.28620087077E+03  0.32914462763E+03  0.54940830400E+03  0.91132708659E+02 0.  0.
         23    2    4    4    0    0  0.82891051358E+01 -0.54345315650E+03  0.28382209037E+03  0.61966806609E+03  0.89573939141E+02 0.  0.
          2    1    3    3  502    0 -0.58234174142E+02  0.82892952565E+02  0.15868165447E+03  0.18826132924E+03  0.00000000000E+00 0. -1.
         -1    1    3    3    0  502 -0.27145373247E+03  0.17435933317E+03  0.49035672668E+03  0.58697361554E+03  0.00000000000E+00 0.  1.
         13    1    5    5    0    0  0.13257166530E+03  0.11332545563E+03  0.78954310676E+02  0.19144630711E+03  0.00000000000E+00 0. -1.
        -13    1    5    5    0    0  0.18882713618E+03  0.17287541514E+03  0.25019031695E+03  0.35796199688E+03  0.00000000000E+00 0.  1.
          2    1    6    6  503    0 -0.36348094908E+02 -0.35932074898E+03  0.19459087883E+03  0.41024162975E+03  0.00000000000E+00 0. -1.
         -2    1    6    6    0  503  0.44637200044E+02 -0.18413240752E+03  0.89231211543E+02  0.20942643634E+03  0.00000000000E+00 0.  1.
<mgrwt>
<rscale>  0 0.14790840E+04</rscale>
<asrwt>0</asrwt>
<pdfrwt beam="1">  1        2 0.52485095E-01 0.14790840E+04</pdfrwt>
<pdfrwt beam="2">  1       -1 0.24663972E+00 0.14790840E+04</pdfrwt>
<totfact> 0.77302654E+00</totfact>
</mgrwt>
</event>
<event>
12    7  0.1546317E-007  0.2047224E+04  0.7818608E-02  0.8584855E-01
          2   -1    0    0  501    0  0.00000000000E+00  0.00000000000E+00  0.27924029315E+04  0.27924029315E+04  0.00000000000E+00 0. -1.
         -1   -1    0    0    0  501 -0.00000000000E+00 -0.00000000000E+00 -0.37522585467E+03  0.37522585467E+03  0.00000000000E+00 0.  1.
         24    2    1    2    0    0  0.46336535208E+03  0.35634785311E+02  0.20145047636E+04  0.20689496030E+04  0.79660088419E+02 0.  0.
        254    2    1    2    0    0 -0.46336535208E+03 -0.35634785311E+02  0.40267231320E+03  0.10986791832E+04  0.91047991095E+03 0.  0.
         23    2    4    4    0    0 -0.62497860445E+03  0.82153585739E+02  0.54299201960E+03  0.83709442531E+03  0.92408202345E+02 0.  0.
         23    2    4    4    0    0  0.16161325237E+03 -0.11778837105E+03 -0.14031970639E+03  0.26158475785E+03  0.93509474604E+02 0.  0.
          2    1    3    3  502    0  0.21174381031E+03  0.52081220814E+02  0.10111096410E+04  0.10343551619E+04  0.00000000000E+00 0. -1.
         -1    1    3    3    0  502  0.25162154177E+03 -0.16446435503E+02  0.10033951226E+04  0.10345944411E+04  0.00000000000E+00 0.  1.
         13    1    5    5    0    0 -0.50258568204E+03  0.96899045507E+02  0.41048597144E+03  0.65611014743E+03  0.00000000000E+00 0.  1.
        -13    1    5    5    0    0 -0.12239292241E+03 -0.14745459768E+02  0.13250604815E+03  0.18098427787E+03  0.00000000000E+00 0. -1.
          2    1    6    6  503    0  0.86050852681E+01  0.13253560592E+02 -0.24665423959E+02  0.29293130592E+02  0.00000000000E+00 0. -1.
         -2    1    6    6    0  503  0.15300816710E+03 -0.13104193164E+03 -0.11565428244E+03  0.23229162726E+03  0.00000000000E+00 0.  1.
<mgrwt>
<rscale>  0 0.20472242E+04</rscale>
<asrwt>0</asrwt>
<pdfrwt beam="1">  1        2 0.42960044E+00 0.20472242E+04</pdfrwt>
<pdfrwt beam="2">  1       -1 0.57727056E-01 0.20472242E+04</pdfrwt>
<totfact> 0.74924605E+00</totfact>
</mgrwt>
</event>
<event>
12    7  0.1546317E-007  0.1950857E+04  0.7818608E-02  0.8629947E-01
         -1   -1    0    0    0  501 -0.00000000000E+00  0.00000000000E+00  0.79738898180E+03  0.79738898180E+03  0.00000000000E+00 0.  1.
          2   -1    0    0  501    0  0.00000000000E+00 -0.00000000000E+00 -0.11932207102E+04  0.11932207102E+04  0.00000000000E+00 0. -1.
         24    2    1    2    0    0  0.55736328014E+03  0.80061701394E+02 -0.67800687672E+03  0.88491980257E+03  0.79536344003E+02 0.  0.
        254    2    1    2    0    0 -0.55736328014E+03 -0.80061701394E+02  0.28217514834E+03  0.11056898894E+04  0.90877038636E+03 0.  0.
         23    2    4    4    0    0 -0.21310044321E+03 -0.38748644281E+03  0.41903394255E+03  0.61590308107E+03  0.90496508293E+02 0.  0.
         23    2    4    4    0    0 -0.34426283693E+03  0.30742474141E+03 -0.13685879421E+03  0.48978680834E+03  0.90188222866E+02 0.  0.
          4    1    3    3  502    0  0.55444046354E+03  0.79977401093E+02 -0.65562786279E+03  0.86235057068E+03  0.00000000000E+00 0. -1.
         -3    1    3    3    0  502  0.29228166069E+01  0.84300300470E-01 -0.22379013926E+02  0.22569231882E+02  0.00000000000E+00 0.  1.
         13    1    5    5    0    0 -0.20531380081E+03 -0.34267677987E+03  0.40361663428E+03  0.56787984622E+03  0.00000000000E+00 0.  1.
        -13    1    5    5    0    0 -0.77866423973E+01 -0.44809662933E+02  0.15417308264E+02  0.48023234856E+02  0.00000000000E+00 0. -1.
          1    1    6    6  503    0 -0.61379725040E+02  0.36387855125E+02  0.86284553098E+01  0.71874869653E+02  0.00000000000E+00 0. -1.
         -1    1    6    6    0  503 -0.28288311189E+03  0.27103688629E+03 -0.14548724952E+03  0.41791193868E+03  0.00000000000E+00 0.  1.
<mgrwt>
<rscale>  0 0.19508573E+04</rscale>
<asrwt>0</asrwt>
<pdfrwt beam="1">  1        2 0.18357242E+00 0.19508573E+04</pdfrwt>
<pdfrwt beam="2">  1       -1 0.12267523E+00 0.19508573E+04</pdfrwt>
<totfact> 0.11923393E+01</totfact>
</mgrwt>
</event>
<event>
12    7  0.1546317E-007  0.1218896E+04  0.7818608E-02  0.9096476E-01
         -1   -1    0    0    0  501 -0.00000000000E+00  0.00000000000E+00  0.67403063079E+03  0.67403063079E+03  0.00000000000E+00 0.  1.
          2   -1    0    0  501    0  0.00000000000E+00 -0.00000000000E+00 -0.55105305082E+03  0.55105305082E+03  0.00000000000E+00 0. -1.
         24    2    1    2    0    0 -0.30395393986E+02 -0.98113900405E+02  0.28251560011E+03  0.31102691236E+03  0.79827679923E+02 0.  0.
        254    2    1    2    0    0  0.30395393986E+02  0.98113900405E+02 -0.15953802014E+03  0.91405676925E+03  0.89414606195E+03 0.  0.
         23    2    4    4    0    0  0.39090693588E+01 -0.24999860451E+03 -0.39934819355E+03  0.48027444130E+03  0.93112706946E+02 0.  0.
         23    2    4    4    0    0  0.26486324627E+02  0.34811250492E+03  0.23981017340E+03  0.43378232794E+03  0.93671486036E+02 0.  0.
          4    1    3    3  502    0 -0.16836037008E+02 -0.46945762302E+02  0.43370883586E+02  0.66093799129E+02  0.00000000000E+00 0. -1.
         -3    1    3    3    0  502 -0.13559356978E+02 -0.51168138103E+02  0.23914471652E+03  0.24493311323E+03  0.00000000000E+00 0.  1.
         13    1    5    5    0    0  0.41515268081E+02 -0.19020776933E+03 -0.31439352996E+03  0.36979156924E+03  0.00000000000E+00 0. -1.
        -13    1    5    5    0    0 -0.37606198722E+02 -0.59790835189E+02 -0.84954663584E+02  0.11048287206E+03  0.00000000000E+00 0.  1.
          4    1    6    6  503    0  0.46510127749E+02  0.33208002471E+03  0.22833530909E+03  0.40568133821E+03  0.00000000000E+00 0. -1.
         -4    1    6    6    0  503 -0.20023803122E+02  0.16032480213E+02  0.11474864314E+02  0.28100989739E+02  0.00000000000E+00 0.  1.
<mgrwt>
<rscale>  0 0.12188956E+04</rscale>
<asrwt>0</asrwt>
<pdfrwt beam="1">  1        2 0.84777392E-01 0.12188956E+04</pdfrwt>
<pdfrwt beam="2">  1       -1 0.10369702E+00 0.12188956E+04</pdfrwt>
<totfact> 0.54268033E+01</totfact>
</mgrwt>
</event>
<event>
12    7  0.1546317E-007  0.2368637E+04  0.7818608E-02  0.8451340E-01
          2   -1    0    0  501    0  0.00000000000E+00  0.00000000000E+00  0.98607389801E+03  0.98607389801E+03  0.00000000000E+00 0. -1.
         -1   -1    0    0    0  501 -0.00000000000E+00 -0.00000000000E+00 -0.14224189324E+04  0.14224189324E+04  0.00000000000E+00 0.  1.
         24    2    1    2    0    0 -0.44622925049E+03  0.33895347766E+03 -0.10419809514E+04  0.11856370016E+04  0.77464782118E+02 0.  0.
        254    2    1    2    0    0  0.44622925049E+03 -0.33895347766E+03  0.60563591698E+03  0.12228558288E+04  0.90253615451E+03 0.  0.
         23    2    4    4    0    0  0.21701253282E+03 -0.12777586076E+03  0.80124800668E+03  0.84444842208E+03  0.87599425522E+02 0.  0.
         23    2    4    4    0    0  0.22921671767E+03 -0.21117761690E+03 -0.19561208969E+03  0.37840740676E+03  0.88271095625E+02 0.  0.
          2    1    3    3  502    0 -0.17103816258E+03  0.17793536248E+03 -0.44697494993E+03  0.51058951433E+03  0.00000000000E+00 0. -1.
         -1    1    3    3    0  502 -0.27519108791E+03  0.16101811518E+03 -0.59500600148E+03  0.67504748728E+03  0.00000000000E+00 0.  1.
         13    1    5    5    0    0  0.20171206978E+03 -0.13278150476E+03  0.66953853427E+03  0.71175876248E+03  0.00000000000E+00 0. -1.
        -13    1    5    5    0    0  0.15300463040E+02  0.50056440008E+01  0.13170947241E+03  0.13268965960E+03  0.00000000000E+00 0.  1.
          1    1    6    6  503    0  0.15360956869E+03 -0.18412975474E+03 -0.17065976861E+03  0.29432027248E+03  0.00000000000E+00 0. -1.
         -1    1    6    6    0  503  0.75607148979E+02 -0.27047862161E+02 -0.24952321083E+02  0.84087134281E+02  0.00000000000E+00 0.  1.
<mgrwt>
<rscale>  0 0.23686369E+04</rscale>
<asrwt>0</asrwt>
<pdfrwt beam="1">  1        2 0.15170368E+00 0.23686369E+04</pdfrwt>
<pdfrwt beam="2">  1       -1 0.21883368E+00 0.23686369E+04</pdfrwt>
<totfact> 0.29620522E+00</totfact>
</mgrwt>
</event>
<event>
12    7  0.1546317E-007  0.1020719E+04  0.7818608E-02  0.9286108E-01
         -1   -1    0    0    0  501 -0.00000000000E+00  0.00000000000E+00  0.14848292293E+03  0.14848292293E+03  0.00000000000E+00 0.  1.
          2   -1    0    0  501    0  0.00000000000E+00 -0.00000000000E+00 -0.17541877196E+04  0.17541877196E+04  0.00000000000E+00 0. -1.
         24    2    1    2    0    0 -0.12532607672E+02  0.13075001005E+03 -0.20038283728E+02  0.15451683045E+03  0.78875133574E+02 0.  0.
        254    2    1    2    0    0  0.12532607672E+02 -0.13075001005E+03 -0.15856665129E+04  0.17481538121E+04  0.72418977419E+03 0.  0.
         23    2    4    4    0    0  0.16288402157E+03 -0.14834992819E+03 -0.15503181745E+04  0.15685388939E+04  0.91043471200E+02 0.  0.
         23    2    4    4    0    0 -0.15035141390E+03  0.17599918145E+02 -0.35348338442E+02  0.17961491823E+03  0.89981715038E+02 0.  0.
          4    1    3    3  502    0 -0.17181566495E+02  0.10626667915E+02 -0.27441382763E+02  0.34075824071E+02  0.00000000000E+00 0. -1.
         -3    1    3    3    0  502  0.46489588229E+01  0.12012334213E+03  0.74030990349E+01  0.12044100638E+03  0.00000000000E+00 0.  1.
         13    1    5    5    0    0  0.19643979667E+02 -0.74857345779E+02 -0.50171124349E+03  0.50764523045E+03  0.00000000000E+00 0. -1.
        -13    1    5    5    0    0  0.14324004190E+03 -0.73492582414E+02 -0.10486069310E+04  0.10608936634E+04  0.00000000000E+00 0.  1.
          2    1    6    6  503    0 -0.32610784296E+02 -0.31477298462E+02 -0.24685220736E+02  0.51610499840E+02  0.00000000000E+00 0.  1.
         -2    1    6    6    0  503 -0.11774062960E+03  0.49077216607E+02 -0.10663117706E+02  0.12800441839E+03  0.00000000000E+00 0. -1.
<mgrwt>
<rscale>  0 0.10207192E+04</rscale>
<asrwt>0</asrwt>
<pdfrwt beam="1">  1        2 0.26987504E+00 0.10207192E+04</pdfrwt>
<pdfrwt beam="2">  1       -1 0.22843526E-01 0.10207192E+04</pdfrwt>
<totfact> 0.17001039E+02</totfact>
</mgrwt>
</event>
<event>
12    7  0.1546317E-007  0.1163752E+04  0.7818608E-02  0.9145190E-01
         -1   -1    0    0    0  501 -0.00000000000E+00  0.00000000000E+00  0.26257097742E+03  0.26257097742E+03  0.00000000000E+00 0.  1.
          2   -1    0    0  501    0  0.00000000000E+00 -0.00000000000E+00 -0.12894783788E+04  0.12894783788E+04  0.00000000000E+00 0. -1.
         24    2    1    2    0    0 -0.10349104378E+03 -0.14015217529E+03 -0.43860390869E+03  0.47851886848E+03  0.79081542656E+02 0.  0.
        254    2    1    2    0    0  0.10349104378E+03  0.14015217529E+03 -0.58830349265E+03  0.10735304877E+04  0.88091638660E+03 0.  0.
         23    2    4    4    0    0  0.29837476418E+03  0.43316450939E+03 -0.32852726591E+03  0.62692720093E+03  0.91916041697E+02 0.  0.
         23    2    4    4    0    0 -0.19488372040E+03 -0.29301233410E+03 -0.25977622674E+03  0.44660328678E+03  0.90193765683E+02 0.  0.
          4    1    3    3  502    0 -0.10972929757E+03 -0.96232743460E+02 -0.31422013481E+03  0.34646147373E+03  0.00000000000E+00 0. -1.
         -3    1    3    3    0  502  0.62382537912E+01 -0.43919431830E+02 -0.12438377388E+03  0.13205739475E+03  0.00000000000E+00 0.  1.
         13    1    5    5    0    0  0.17790339789E+03  0.33003177619E+03 -0.21912342586E+03  0.43426451391E+03  0.00000000000E+00 0. -1.
        -13    1    5    5    0    0  0.12047136629E+03  0.10313273320E+03 -0.10940384005E+03  0.19266268702E+03  0.00000000000E+00 0.  1.
          2    1    6    6  503    0 -0.49857578170E+02 -0.10763330610E+03 -0.13672821772E+03  0.18101191177E+03  0.00000000000E+00 0. -1.
         -2    1    6    6    0  503 -0.14502614223E+03 -0.18537902800E+03 -0.12304800902E+03  0.26559137501E+03  0.00000000000E+00 0.  1.
<mgrwt>
<rscale>  0 0.11637519E+04</rscale>
<asrwt>0</asrwt>
<pdfrwt beam="1">  1        2 0.19838129E+00 0.11637519E+04</pdfrwt>
<pdfrwt beam="2">  1       -1 0.40395535E-01 0.11637519E+04</pdfrwt>
<totfact> 0.11298878E+02</totfact>
</mgrwt>
</event>
<event>
12    7  0.1546317E-007  0.2774973E+04  0.7818608E-02  0.8311081E-01
          2   -1    0    0  501    0  0.00000000000E+00  0.00000000000E+00  0.16022156161E+04  0.16022156161E+04  0.00000000000E+00 0. -1.
         -1   -1    0    0    0  501 -0.00000000000E+00 -0.00000000000E+00 -0.12015355654E+04  0.12015355654E+04  0.00000000000E+00 0.  1.
         24    2    1    2    0    0 -0.11593677621E+04 -0.42942709360E+03  0.27837940626E+03  0.12700712989E+04  0.83933152208E+02 0.  0.
        254    2    1    2    0    0  0.11593677621E+04  0.42942709360E+03  0.12230064449E+03  0.15336798826E+04  0.89926375334E+03 0.  0.
         23    2    4    4    0    0  0.67917793310E+02 -0.10331084241E+03 -0.21960435866E+03  0.26825973596E+03  0.91930706452E+02 0.  0.
         23    2    4    4    0    0  0.10914499688E+04  0.53273793601E+03  0.34190500315E+03  0.12654201466E+04  0.96521362613E+02 0.  0.
          4    1    3    3  502    0 -0.54321971319E+03 -0.16697417171E+03  0.15528874046E+03  0.58913718583E+03  0.00000000000E+00 0. -1.
         -3    1    3    3    0  502 -0.61614804890E+03 -0.26245292189E+03  0.12309066581E+03  0.68093411310E+03  0.00000000000E+00 0.  1.
         13    1    5    5    0    0 -0.56524983645E+01 -0.51712377799E+02 -0.13565071777E+03  0.14528330250E+03  0.00000000000E+00 0.  1.
        -13    1    5    5    0    0  0.73570291674E+02 -0.51598464616E+02 -0.83953640892E+02  0.12297643346E+03  0.00000000000E+00 0. -1.
          4    1    6    6  503    0  0.10877213261E+04  0.53442110293E+03  0.34525041618E+03  0.12601354881E+04  0.00000000000E+00 0. -1.
         -4    1    6    6    0  503  0.37286426756E+01 -0.16831669152E+01 -0.33454130333E+01  0.52846584971E+01  0.00000000000E+00 0.  1.
<mgrwt>
<rscale>  0 0.27749732E+04</rscale>
<asrwt>0</asrwt>
<pdfrwt beam="1">  1        2 0.24649471E+00 0.27749732E+04</pdfrwt>
<pdfrwt beam="2">  1       -1 0.18485163E+00 0.27749732E+04</pdfrwt>
<totfact> 0.21211897E+00</totfact>
</mgrwt>
</event>
<event>
12    7  0.1546317E-007  0.1998991E+04  0.7818608E-02  0.8607093E-01
         -1   -1    0    0    0  501 -0.00000000000E+00  0.00000000000E+00  0.78838866532E+03  0.78838866532E+03  0.00000000000E+00 0.  1.
          2   -1    0    0  501    0  0.00000000000E+00 -0.00000000000E+00 -0.12671300283E+04  0.12671300283E+04  0.00000000000E+00 0. -1.
         24    2    1    2    0    0  0.19293408495E+03  0.59736875290E+02 -0.97528818361E+03  0.99920265073E+03  0.80167579021E+02 0.  0.
        254    2    1    2    0    0 -0.19293408495E+03 -0.59736875290E+02  0.49654682061E+03  0.10563160429E+04  0.91019381565E+03 0.  0.
         23    2    4    4    0    0 -0.19859010969E+03  0.26809078272E+03 -0.10793143656E+03  0.36252641200E+03  0.92008178739E+02 0.  0.
         23    2    4    4    0    0  0.56560247446E+01 -0.32782765801E+03  0.60447825717E+03  0.69378963091E+03  0.91908240134E+02 0.  0.
          4    1    3    3  502    0  0.17310519319E+03  0.22032421954E+02 -0.76648248469E+03  0.78609556344E+03  0.00000000000E+00 0. -1.
         -3    1    3    3    0  502  0.19828891759E+02  0.37704453336E+02 -0.20880569892E+03  0.21310708729E+03  0.00000000000E+00 0.  1.
         13    1    5    5    0    0 -0.12293028707E+03  0.22402864731E+03 -0.10072703935E+03  0.27467549354E+03  0.00000000000E+00 0.  1.
        -13    1    5    5    0    0 -0.75659822620E+02  0.44062135409E+02 -0.72043972148E+01  0.87850918463E+02  0.00000000000E+00 0. -1.
          3    1    6    6  503    0 -0.27034715388E+02 -0.37636728887E+02  0.58608947049E+02  0.74715512925E+02  0.00000000000E+00 0. -1.
         -3    1    6    6    0  503  0.32690740133E+02 -0.29019092912E+03  0.54586931012E+03  0.61907411799E+03  0.00000000000E+00 0.  1.
<mgrwt>
<rscale>  0 0.19989907E+04</rscale>
<asrwt>0</asrwt>
<pdfrwt beam="1">  1        2 0.19494308E+00 0.19989907E+04</pdfrwt>
<pdfrwt beam="2">  1       -1 0.12129056E+00 0.19989907E+04</pdfrwt>
<totfact> 0.11038416E+01</totfact>
</mgrwt>
</event>
<event>
12    7  0.1546317E-007  0.1219390E+04  0.7818608E-02  0.9096052E-01
         -1   -1    0    0    0  501 -0.00000000000E+00  0.00000000000E+00  0.12017573720E+03  0.12017573720E+03  0.00000000000E+00 0.  1.
          2   -1    0    0  501    0  0.00000000000E+00 -0.00000000000E+00 -0.30932018941E+04  0.30932018941E+04  0.00000000000E+00 0. -1.
         24    2    1    2    0    0 -0.23132076664E+03  0.14741084735E+03 -0.49999856808E+03  0.57678682809E+03  0.86285699714E+02 0.  0.
        254    2    1    2    0    0  0.23132076664E+03 -0.14741084735E+03 -0.24730275888E+04  0.26365908032E+04  0.87207015402E+03 0.  0.
         23    2    4    4    0    0  0.14492069859E+00  0.12899924713E+03 -0.21133195684E+04  0.21190858396E+04  0.88115665660E+02 0.  0.
         23    2    4    4    0    0  0.23117584594E+03 -0.27641009447E+03 -0.35970802036E+03  0.51750496359E+03  0.92610557428E+02 0.  0.
          2    1    3    3  502    0 -0.26768749680E+02 -0.10419788860E+02 -0.60477900420E+02  0.66953076095E+02  0.00000000000E+00 0. -1.
         -1    1    3    3    0  502 -0.20455201696E+03  0.15783063621E+03 -0.43952066766E+03  0.50983375199E+03  0.00000000000E+00 0.  1.
         13    1    5    5    0    0  0.41921175754E+02  0.42438994868E+02 -0.88930737557E+03  0.89130581817E+03  0.00000000000E+00 0.  1.
        -13    1    5    5    0    0 -0.41776255055E+02  0.86560252258E+02 -0.12240121929E+04  0.12277800214E+04  0.00000000000E+00 0. -1.
          1    1    6    6  503    0  0.51194949683E+02 -0.41985577017E+02 -0.11965290031E+03  0.13674987423E+03  0.00000000000E+00 0. -1.
         -1    1    6    6    0  503  0.17998089626E+03 -0.23442451746E+03 -0.24005512006E+03  0.38075508935E+03  0.00000000000E+00 0.  1.
<mgrwt>
<rscale>  0 0.12193897E+04</rscale>
<asrwt>0</asrwt>
<pdfrwt beam="1">  1        2 0.47587715E+00 0.12193897E+04</pdfrwt>
<pdfrwt beam="2">  1       -1 0.18488578E-01 0.12193897E+04</pdfrwt>
<totfact> 0.40417464E+01</totfact>
</mgrwt>
</event>
<event>
12    7  0.1546317E-007  0.1675471E+04  0.7818608E-02  0.8775479E-01
          2   -1    0    0  501    0  0.00000000000E+00  0.00000000000E+00  0.19156340302E+04  0.19156340302E+04  0.00000000000E+00 0. -1.
         -1   -1    0    0    0  501 -0.00000000000E+00 -0.00000000000E+00 -0.36635409235E+03  0.36635409235E+03  0.00000000000E+00 0.  1.
         24    2    1    2    0    0  0.55540713372E+03 -0.18650805601E+03  0.67369651717E+03  0.89628493246E+03  0.78723209789E+02 0.  0.
        254    2    1    2    0    0 -0.55540713372E+03  0.18650805601E+03  0.87558342071E+03  0.13857031901E+04  0.90014702429E+03 0.  0.
         23    2    4    4    0    0  0.20800988078E+03 -0.35220102909E+02  0.37994101118E+03  0.44437751959E+03  0.92777377560E+02 0.  0.
         23    2    4    4    0    0 -0.76341701450E+03  0.22172815892E+03  0.49564240954E+03  0.94132567054E+03  0.91998398850E+02 0.  0.
          4    1    3    3  502    0  0.33608721074E+03 -0.74791804951E+02  0.41435913456E+03  0.53874105070E+03  0.00000000000E+00 0. -1.
         -3    1    3    3    0  502  0.21931992298E+03 -0.11171625106E+03  0.25933738261E+03  0.35754388176E+03  0.00000000000E+00 0.  1.
         13    1    5    5    0    0  0.12589354329E+03 -0.19144342375E+02  0.31065106755E+03  0.33573765928E+03  0.00000000000E+00 0. -1.
        -13    1    5    5    0    0  0.82116337492E+02 -0.16075760535E+02  0.69289943626E+02  0.10863986031E+03  0.00000000000E+00 0.  1.
          4    1    6    6  503    0 -0.19794784117E+03  0.40944737406E+02  0.83940775814E+02  0.21887410351E+03  0.00000000000E+00 0. -1.
         -4    1    6    6    0  503 -0.56546917333E+03  0.18078342151E+03  0.41170163372E+03  0.72245156702E+03  0.00000000000E+00 0.  1.
<mgrwt>
<rscale>  0 0.16754705E+04</rscale>
<asrwt>0</asrwt>
<pdfrwt beam="1">  1        2 0.29471292E+00 0.16754705E+04</pdfrwt>
<pdfrwt beam="2">  1       -1 0.56362169E-01 0.16754705E+04</pdfrwt>
<totfact> 0.25748476E+01</totfact>
</mgrwt>
</event>
<event>
12    7  0.1546317E-007  0.3183559E+04  0.7818608E-02  0.8193173E-01
          2   -1    0    0  501    0  0.00000000000E+00  0.00000000000E+00  0.13221431073E+04  0.13221431073E+04  0.00000000000E+00 0. -1.
         -1   -1    0    0    0  501 -0.00000000000E+00 -0.00000000000E+00 -0.19164047145E+04  0.19164047145E+04  0.00000000000E+00 0.  1.
         24    2    1    2    0    0  0.17689528901E+03 -0.11840545154E+04 -0.11291703170E+04  0.16476104552E+04  0.79483134657E+02 0.  0.
        254    2    1    2    0    0 -0.17689528901E+03  0.11840545154E+04  0.53490870975E+03  0.15909373666E+04  0.90093137251E+03 0.  0.
         23    2    4    4    0    0 -0.20852739123E+03  0.38876976257E+03 -0.21004738770E+03  0.49691748909E+03  0.90451559982E+02 0.  0.
         23    2    4    4    0    0  0.31632102221E+02  0.79528475279E+03  0.74495609745E+03  0.10940198775E+04  0.91877512441E+02 0.  0.
          2    1    3    3  502    0  0.26209430609E+02 -0.57363661222E+02 -0.62420744786E+02  0.88734848066E+02  0.00000000000E+00 0. -1.
         -1    1    3    3    0  502  0.15068585840E+03 -0.11266908541E+04 -0.10667495722E+04  0.15588756071E+04  0.00000000000E+00 0.  1.
         13    1    5    5    0    0 -0.10204311309E+03  0.15032573948E+03 -0.13128684126E+03  0.22415811288E+03  0.00000000000E+00 0.  1.
        -13    1    5    5    0    0 -0.10648427813E+03  0.23844402309E+03 -0.78760546438E+02  0.27275937621E+03  0.00000000000E+00 0. -1.
          4    1    6    6  503    0  0.24098359258E+02  0.14472938294E+03  0.18115324056E+03  0.23311761360E+03  0.00000000000E+00 0. -1.
         -4    1    6    6    0  503  0.75337429629E+01  0.65055536985E+03  0.56380285689E+03  0.86090226388E+03  0.00000000000E+00 0.  1.
<mgrwt>
<rscale>  0 0.31835586E+04</rscale>
<asrwt>0</asrwt>
<pdfrwt beam="1">  1        2 0.20340663E+00 0.31835586E+04</pdfrwt>
<pdfrwt beam="2">  1       -1 0.29483150E+00 0.31835586E+04</pdfrwt>
<totfact> 0.54971030E-01</totfact>
</mgrwt>
</event>
<event>
12    7  0.1546317E-007  0.1156426E+04  0.7818608E-02  0.9151876E-01
          2   -1    0    0  501    0  0.00000000000E+00  0.00000000000E+00  0.59334118739E+03  0.59334118739E+03  0.00000000000E+00 0. -1.
         -1   -1    0    0    0  501 -0.00000000000E+00 -0.00000000000E+00 -0.56347060248E+03  0.56347060248E+03  0.00000000000E+00 0.  1.
         24    2    1    2    0    0  0.11610533794E+03  0.32881228011E+02  0.20088344183E+03  0.24942750676E+03  0.85430084110E+02 0.  0.
        254    2    1    2    0    0 -0.11610533794E+03 -0.32881228011E+02 -0.17101285693E+03  0.90738428311E+03  0.88291518016E+03 0.  0.
         23    2    4    4    0    0  0.20154558074E+03 -0.34807836133E+03 -0.18232303691E+03  0.45064137370E+03  0.89759629928E+02 0.  0.
         23    2    4    4    0    0 -0.31765091868E+03  0.31519713331E+03  0.11310179986E+02  0.45674290941E+03  0.90745942837E+02 0.  0.
          4    1    3    3  502    0  0.27015220270E+02 -0.36114209875E+01  0.12187056849E+03  0.12488114330E+03  0.00000000000E+00 0. -1.
         -3    1    3    3    0  502  0.89090117666E+02  0.36492648999E+02  0.79012873348E+02  0.12454636346E+03  0.00000000000E+00 0.  1.
         13    1    5    5    0    0  0.20268802911E+03 -0.35288229879E+03 -0.17840778977E+03  0.44433961493E+03  0.00000000000E+00 0.  1.
        -13    1    5    5    0    0 -0.11424483712E+01  0.48039374653E+01 -0.39152471427E+01  0.63017587736E+01  0.00000000000E+00 0. -1.
          1    1    6    6  503    0 -0.90397609686E+02  0.39503246009E+02 -0.77177857283E+01  0.98953516859E+02  0.00000000000E+00 0. -1.
         -1    1    6    6    0  503 -0.22725330899E+03  0.27569388730E+03  0.19027965714E+02  0.35778939255E+03  0.00000000000E+00 0.  1.
<mgrwt>
<rscale>  0 0.11564261E+04</rscale>
<asrwt>0</asrwt>
<pdfrwt beam="1">  1        2 0.91283259E-01 0.11564261E+04</pdfrwt>
<pdfrwt beam="2">  1       -1 0.86687785E-01 0.11564261E+04</pdfrwt>
<totfact> 0.74610567E+01</totfact>
</mgrwt>
</event>
<event>
12    7  0.1546317E-007  0.1531944E+04  0.7818608E-02  0.8863484E-01
          2   -1    0    0  501    0  0.00000000000E+00  0.00000000000E+00  0.15961646465E+04  0.15961646465E+04  0.00000000000E+00 0. -1.
         -1   -1    0    0    0  501 -0.00000000000E+00 -0.00000000000E+00 -0.36757684049E+03  0.36757684049E+03  0.00000000000E+00 0.  1.
         24    2    1    2    0    0 -0.71316407340E+02 -0.36336816888E+03  0.14380674193E+02  0.37910495948E+03  0.79945671563E+02 0.  0.
        254    2    1    2    0    0  0.71316407340E+02  0.36336816888E+03  0.12142071318E+04  0.15846365275E+04  0.94849960950E+03 0.  0.
         23    2    4    4    0    0  0.33552376837E+03  0.37799250755E+03  0.23003622724E+03  0.56151845259E+03  0.83257263088E+02 0.  0.
         23    2    4    4    0    0 -0.26420736103E+03 -0.14624338666E+02  0.98417090454E+03  0.10231180749E+04  0.90326213754E+02 0.  0.
          2    1    3    3  502    0 -0.48066428462E+02 -0.13211388899E+03  0.37601438532E+02  0.14552776157E+03  0.00000000000E+00 0. -1.
         -1    1    3    3    0  502 -0.23249978878E+02 -0.23125427989E+03 -0.23220764339E+02  0.23357719791E+03  0.00000000000E+00 0.  1.
         13    1    5    5    0    0  0.25878735734E+03  0.26630559781E+03  0.13134020252E+03  0.39387792086E+03  0.00000000000E+00 0. -1.
        -13    1    5    5    0    0  0.76736411035E+02  0.11168690974E+03  0.98696024716E+02  0.16764053173E+03  0.00000000000E+00 0.  1.
          4    1    6    6  503    0 -0.19305454169E+03  0.30244324908E+02  0.67695954842E+03  0.70459847108E+03  0.00000000000E+00 0. -1.
         -4    1    6    6    0  503 -0.71152819341E+02 -0.44868663575E+02  0.30721135613E+03  0.31851960380E+03  0.00000000000E+00 0.  1.
<mgrwt>
<rscale>  0 0.15319441E+04</rscale>
<asrwt>0</asrwt>
<pdfrwt beam="1">  1        2 0.24556379E+00 0.15319441E+04</pdfrwt>
<pdfrwt beam="2">  1       -1 0.56550284E-01 0.15319441E+04</pdfrwt>
<totfact> 0.38949887E+01</totfact>
</mgrwt>
</event>
<event>
12    7  0.1546317E-007  0.2319745E+04  0.7818608E-02  0.8470176E-01
          2   -1    0    0  501    0  0.00000000000E+00  0.00000000000E+00  0.15203303177E+04  0.15203303177E+04  0.00000000000E+00 0. -1.
         -1   -1    0    0    0  501 -0.00000000000E+00 -0.00000000000E+00 -0.88487656589E+03  0.88487656589E+03  0.00000000000E+00 0.  1.
         24    2    1    2    0    0  0.61470221382E+03  0.72904406550E+03  0.20065014802E+02  0.95708868948E+03  0.79070181440E+02 0.  0.
        254    2    1    2    0    0 -0.61470221382E+03 -0.72904406550E+03  0.61538873703E+03  0.14481181941E+04  0.89943256854E+03 0.  0.
         23    2    4    4    0    0 -0.57749342477E+03 -0.13746411569E+03  0.17456452979E+02  0.60086606698E+03  0.91325045549E+02 0.  0.
         23    2    4    4    0    0 -0.37208789055E+02 -0.59157994982E+03  0.59793228405E+03  0.84725212714E+03  0.94666887694E+02 0.  0.
          4    1    3    3  502    0  0.27738393501E+03  0.35269313381E+03 -0.26953471478E+02  0.44951171694E+03  0.00000000000E+00 0. -1.
         -3    1    3    3    0  502  0.33731827881E+03  0.37635093170E+03  0.47018486280E+02  0.50757697255E+03  0.00000000000E+00 0.  1.
         13    1    5    5    0    0 -0.43141854965E+03 -0.76095673958E+02 -0.18219548077E+02  0.43845691751E+03  0.00000000000E+00 0.  1.
        -13    1    5    5    0    0 -0.14607487512E+03 -0.61368441730E+02  0.35676001056E+02  0.16240914947E+03  0.00000000000E+00 0. -1.
          4    1    6    6  503    0 -0.16491411907E+02 -0.34578428117E+02  0.16214187086E+02  0.41599690150E+02  0.00000000000E+00 0. -1.
         -4    1    6    6    0  503 -0.20717377148E+02 -0.55700152170E+03  0.58171809697E+03  0.80565243699E+03  0.00000000000E+00 0.  1.
<mgrwt>
<rscale>  0 0.23197454E+04</rscale>
<asrwt>0</asrwt>
<pdfrwt beam="1">  1        2 0.23389697E+00 0.23197454E+04</pdfrwt>
<pdfrwt beam="2">  1       -1 0.13613486E+00 0.23197454E+04</pdfrwt>
<totfact> 0.57467205E+00</totfact>
</mgrwt>
</event>
<event>
12    7  0.1546317E-007  0.2622319E+04  0.7818608E-02  0.8360659E-01
          2   -1    0    0  501    0  0.00000000000E+00  0.00000000000E+00  0.14243732403E+04  0.14243732403E+04  0.00000000000E+00 0. -1.
         -1   -1    0    0    0  501 -0.00000000000E+00 -0.00000000000E+00 -0.12069439474E+04  0.12069439474E+04  0.00000000000E+00 0.  1.
         24    2    1    2    0    0 -0.80795402752E+03  0.51761247591E+02 -0.73224449562E+03  0.10943469497E+04  0.77099336199E+02 0.  0.
        254    2    1    2    0    0  0.80795402752E+03 -0.51761247591E+02  0.94967378848E+03  0.15369702380E+04  0.89717794813E+03 0.  0.
         23    2    4    4    0    0  0.29108067157E+03 -0.10903437426E+03  0.95673997362E+03  0.10100746639E+04  0.91010974090E+02 0.  0.
         23    2    4    4    0    0  0.51687335596E+03  0.57273126672E+02 -0.70661851374E+01  0.52689557409E+03  0.84443696577E+02 0.  0.
          4    1    3    3  502    0 -0.12709166555E+03 -0.18821255902E+02 -0.10533489030E+03  0.16613840688E+03  0.00000000000E+00 0. -1.
         -3    1    3    3    0  502 -0.68086236197E+03  0.70582503493E+02 -0.62690960531E+03  0.92820854283E+03  0.00000000000E+00 0.  1.
         13    1    5    5    0    0  0.14478595046E+03 -0.16238054724E+02  0.52589441207E+03  0.54570282987E+03  0.00000000000E+00 0. -1.
        -13    1    5    5    0    0  0.14629472111E+03 -0.92796319539E+02  0.43084556154E+03  0.46437183404E+03  0.00000000000E+00 0.  1.
          2    1    6    6  503    0  0.17367160257E+03 -0.20276857258E+02 -0.81192322947E+01  0.17503970524E+03  0.00000000000E+00 0. -1.
         -2    1    6    6    0  503  0.34320175339E+03  0.77549983930E+02  0.10530471573E+01  0.35185586885E+03  0.00000000000E+00 0.  1.
<mgrwt>
<rscale>  0 0.26223186E+04</rscale>
<asrwt>0</asrwt>
<pdfrwt beam="1">  1        2 0.21913434E+00 0.26223186E+04</pdfrwt>
<pdfrwt beam="2">  1       -1 0.18568369E+00 0.26223186E+04</pdfrwt>
<totfact> 0.26714562E+00</totfact>
</mgrwt>
</event>
<event>
12    7  0.1546317E-007  0.1677569E+04  0.7818608E-02  0.8774262E-01
          2   -1    0    0  501    0  0.00000000000E+00  0.00000000000E+00  0.27236134185E+04  0.27236134185E+04  0.00000000000E+00 0. -1.
         -1   -1    0    0    0  501 -0.00000000000E+00 -0.00000000000E+00 -0.25831832254E+03  0.25831832254E+03  0.00000000000E+00 0.  1.
         24    2    1    2    0    0  0.12132324261E+03 -0.15577205635E+03 -0.11431414858E+03  0.24336901618E+03  0.84714170800E+02 0.  0.
        254    2    1    2    0    0 -0.12132324261E+03  0.15577205635E+03  0.25796092445E+04  0.27385627249E+04  0.89797420943E+03 0.  0.
         23    2    4    4    0    0  0.25967511879E+03  0.37929752860E+03  0.13212523596E+04  0.14018275924E+04  0.90083397384E+02 0.  0.
         23    2    4    4    0    0 -0.38099836139E+03 -0.22352547225E+03  0.12583568849E+04  0.13367351325E+04  0.90969096055E+02 0.  0.
          2    1    3    3  502    0 -0.69982452033E+01 -0.12398870954E+02 -0.30174634060E+02  0.33364891391E+02  0.00000000000E+00 0. -1.
         -1    1    3    3    0  502  0.12832148781E+03 -0.14337318540E+03 -0.84139514517E+02  0.21000412479E+03  0.00000000000E+00 0.  1.
         13    1    5    5    0    0  0.57506621547E+02  0.15936820443E+03  0.45606141211E+03  0.48651541365E+03  0.00000000000E+00 0.  1.
        -13    1    5    5    0    0  0.20216849724E+03  0.21992932417E+03  0.86519094751E+03  0.91531217874E+03  0.00000000000E+00 0. -1.
          1    1    6    6  503    0 -0.30426724119E+03 -0.14174264325E+03  0.86986121878E+03  0.93237764394E+03  0.00000000000E+00 0. -1.
         -1    1    6    6    0  503 -0.76731120207E+02 -0.81782828997E+02  0.38849566614E+03  0.40435748854E+03  0.00000000000E+00 0.  1.
<mgrwt>
<rscale>  0 0.16775688E+04</rscale>
<asrwt>0</asrwt>
<pdfrwt beam="1">  1        2 0.41901743E+00 0.16775688E+04</pdfrwt>
<pdfrwt beam="2">  1       -1 0.39741282E-01 0.16775688E+04</pdfrwt>
<totfact> 0.17250102E+01</totfact>
</mgrwt>
</event>
<event>
12    7  0.1546317E-007  0.1874933E+04  0.7818608E-02  0.8667435E-01
         -1   -1    0    0    0  501 -0.00000000000E+00  0.00000000000E+00  0.71273101860E+03  0.71273101860E+03  0.00000000000E+00 0.  1.
          2   -1    0    0  501    0  0.00000000000E+00 -0.00000000000E+00 -0.12330647530E+04  0.12330647530E+04  0.00000000000E+00 0. -1.
         24    2    1    2    0    0  0.68894772793E+03 -0.13882120146E+03 -0.25555473536E+03  0.75285749967E+03  0.86982149027E+02 0.  0.
        254    2    1    2    0    0 -0.68894772793E+03  0.13882120146E+03 -0.26477899908E+03  0.11929382720E+04  0.92686218208E+03 0.  0.
         23    2    4    4    0    0 -0.88790602836E+03  0.23190499517E+01 -0.27683245046E+03  0.93447229072E+03  0.90662910337E+02 0.  0.
         23    2    4    4    0    0  0.19895830043E+03  0.13650215151E+03  0.12053451382E+02  0.25846598124E+03  0.91881092148E+02 0.  0.
          2    1    3    3  502    0  0.63124449042E+03 -0.13437636303E+03 -0.20838884945E+03  0.67819799926E+03  0.00000000000E+00 0. -1.
         -1    1    3    3    0  502  0.57703237512E+02 -0.44448384227E+01 -0.47165885903E+02  0.74659500407E+02  0.00000000000E+00 0.  1.
         13    1    5    5    0    0 -0.74747386270E+03  0.32042666569E+02 -0.21734784835E+03  0.77909177578E+03  0.00000000000E+00 0. -1.
        -13    1    5    5    0    0 -0.14043216566E+03 -0.29723616617E+02 -0.59484602111E+02  0.15538051494E+03  0.00000000000E+00 0.  1.
          2    1    6    6  503    0  0.15824369025E+03  0.14657923889E+03  0.38865062782E+01  0.21573512396E+03  0.00000000000E+00 0.  1.
         -2    1    6    6    0  503  0.40714610179E+02 -0.10077087383E+02  0.81669451040E+01  0.42730857287E+02  0.00000000000E+00 0. -1.
<mgrwt>
<rscale>  0 0.18749331E+04</rscale>
<asrwt>0</asrwt>
<pdfrwt beam="1">  1        2 0.18970227E+00 0.18749331E+04</pdfrwt>
<pdfrwt beam="2">  1       -1 0.10965093E+00 0.18749331E+04</pdfrwt>
<totfact> 0.14893382E+01</totfact>
</mgrwt>
</event>
<event>
12    7  0.1644799E-007  0.2828390E+04  0.7818608E-02  0.8294508E-01
          2   -1    0    0  501    0  0.00000000000E+00  0.00000000000E+00  0.21581596715E+04  0.21581596715E+04  0.00000000000E+00 0. -1.
         -1   -1    0    0    0  501 -0.00000000000E+00 -0.00000000000E+00 -0.92669110121E+03  0.92669110121E+03  0.00000000000E+00 0.  1.
         24    2    1    2    0    0  0.36895467928E+03 -0.11383694770E+04  0.10152134055E+04  0.15713180358E+04  0.79809081607E+02 0.  0.
        254    2    1    2    0    0 -0.36895467928E+03  0.11383694770E+04  0.21625516482E+03  0.15135327369E+04  0.90111177333E+03 0.  0.
         23    2    4    4    0    0  0.34661055242E+02  0.94800494860E+03 -0.10057271429E+03  0.95828370368E+03  0.90983595034E+02 0.  0.
         23    2    4    4    0    0 -0.40361573452E+03  0.19036452836E+03  0.31682787911E+03  0.55524903325E+03  0.93687080959E+02 0.  0.
          4    1    3    3  502    0  0.24959845105E+03 -0.74954299870E+03  0.62063801573E+03  0.10046420458E+04  0.00000000000E+00 0. -1.
         -3    1    3    3    0  502  0.11935622823E+03 -0.38882647825E+03  0.39457538973E+03  0.56667598995E+03  0.00000000000E+00 0.  1.
         13    1    5    5    0    0  0.20309885358E+02  0.16739908331E+03  0.13899665715E+02  0.16919853795E+03  0.00000000000E+00 0. -1.
        -13    1    5    5    0    0  0.14351169884E+02  0.78060586528E+03 -0.11447238000E+03  0.78908516573E+03  0.00000000000E+00 0.  1.
          1    1    6    6  503    0 -0.12927979375E+03  0.39701247431E+02  0.50745850923E+02  0.14444582204E+03  0.00000000000E+00 0. -1.
         -1    1    6    6    0  503 -0.27433594077E+03  0.15066328092E+03  0.26608202819E+03  0.41080321121E+03  0.00000000000E+00 0.  1.
<mgrwt>
<rscale>  0 0.28283899E+04</rscale>
<asrwt>0</asrwt>
<pdfrwt beam="1">  1        2 0.33202456E+00 0.28283899E+04</pdfrwt>
<pdfrwt beam="2">  1       -1 0.14256786E+00 0.28283899E+04</pdfrwt>
<totfact> 0.21505264E+00</totfact>
</mgrwt>
</event>
<event>
12    7  0.1546317E-007  0.2341942E+04  0.7818608E-02  0.8461565E-01
          2   -1    0    0  501    0  0.00000000000E+00  0.00000000000E+00  0.96547659340E+03  0.96547659340E+03  0.00000000000E+00 0. -1.
         -1   -1    0    0    0  501 -0.00000000000E+00 -0.00000000000E+00 -0.14202035084E+04  0.14202035084E+04  0.00000000000E+00 0.  1.
         24    2    1    2    0    0  0.94953402072E+02 -0.90485113108E+03  0.22494970179E+03  0.94053374640E+03  0.78928079819E+02 0.  0.
        254    2    1    2    0    0 -0.94953402072E+02  0.90485113108E+03 -0.67967661680E+03  0.14451463554E+04  0.89370910657E+03 0.  0.
         23    2    4    4    0    0 -0.10019006602E+03  0.31585173023E+02  0.17268245988E+03  0.22154327861E+03  0.90700164616E+02 0.  0.
         23    2    4    4    0    0  0.52366639458E+01  0.87326595806E+03 -0.85235907668E+03  0.12236030768E+04  0.89820030252E+02 0.  0.
          2    1    3    3  502    0 -0.56378389904E+00 -0.39529488447E+02 -0.56450099078E+01  0.39934501950E+02  0.00000000000E+00 0. -1.
         -1    1    3    3    0  502  0.95517185971E+02 -0.86532164264E+03  0.23059471170E+03  0.90059924445E+03  0.00000000000E+00 0.  1.
         13    1    5    5    0    0 -0.80998190840E+01 -0.14301278098E+01 -0.10820328143E+02  0.13591609024E+02  0.00000000000E+00 0.  1.
        -13    1    5    5    0    0 -0.92090246934E+02  0.33015300833E+02  0.18350278802E+03  0.20795166958E+03  0.00000000000E+00 0. -1.
          3    1    6    6  503    0 -0.24306772781E+02  0.77223523484E+03 -0.74832123774E+03  0.10756034362E+04  0.00000000000E+00 0. -1.
         -3    1    6    6    0  503  0.29543436727E+02  0.10103072322E+03 -0.10403783894E+03  0.14799964061E+03  0.00000000000E+00 0.  1.
<mgrwt>
<rscale>  0 0.23419421E+04</rscale>
<asrwt>0</asrwt>
<pdfrwt beam="1">  1        2 0.14853486E+00 0.23419421E+04</pdfrwt>
<pdfrwt beam="2">  1       -1 0.21849285E+00 0.23419421E+04</pdfrwt>
<totfact> 0.30779901E+00</totfact>
</mgrwt>
</event>
<event>
12    7  0.1546317E-007  0.1745032E+04  0.7818608E-02  0.8736090E-01
          2   -1    0    0  501    0  0.00000000000E+00  0.00000000000E+00  0.12826695426E+04  0.12826695426E+04  0.00000000000E+00 0. -1.
         -1   -1    0    0    0  501 -0.00000000000E+00 -0.00000000000E+00 -0.59351557535E+03  0.59351557535E+03  0.00000000000E+00 0.  1.
         24    2    1    2    0    0  0.24075285479E+03 -0.11009383442E+02  0.87870703059E+03  0.91459064315E+03  0.79163472137E+02 0.  0.
        254    2    1    2    0    0 -0.24075285479E+03  0.11009383442E+02 -0.18955306335E+03  0.96159447480E+03  0.91140025594E+03 0.  0.
         23    2    4    4    0    0 -0.12620277111E+02 -0.19696052679E+03 -0.48105965630E+03  0.52782288171E+03  0.90696642860E+02 0.  0.
         23    2    4    4    0    0 -0.22813257768E+03  0.20796991023E+03  0.29150659295E+03  0.43377159309E+03  0.88801715524E+02 0.  0.
          2    1    3    3  502    0  0.17607070027E+03 -0.16904645085E+02  0.74808446509E+03  0.76871127572E+03  0.00000000000E+00 0. -1.
         -1    1    3    3    0  502  0.64682154517E+02  0.58952616429E+01  0.13062256550E+03  0.14587936743E+03  0.00000000000E+00 0.  1.
         13    1    5    5    0    0 -0.31806675833E+02 -0.17951151860E+03 -0.45862643825E+03  0.49353243034E+03  0.00000000000E+00 0. -1.
        -13    1    5    5    0    0  0.19186398722E+02 -0.17449008193E+02 -0.22433218053E+02  0.34290451368E+02  0.00000000000E+00 0.  1.
          3    1    6    6  503    0 -0.47249743516E+01  0.43104672534E+02  0.44780456881E+02  0.62334801639E+02  0.00000000000E+00 0. -1.
         -3    1    6    6    0  503 -0.22340760332E+03  0.16486523770E+03  0.24672613607E+03  0.37143679145E+03  0.00000000000E+00 0.  1.
<mgrwt>
<rscale>  0 0.17450322E+04</rscale>
<asrwt>0</asrwt>
<pdfrwt beam="1">  1        2 0.19733378E+00 0.17450322E+04</pdfrwt>
<pdfrwt beam="2">  1       -1 0.91310089E-01 0.17450322E+04</pdfrwt>
<totfact> 0.21401230E+01</totfact>
</mgrwt>
</event>
<event>
12    7  0.1546317E-007  0.1631494E+04  0.7818608E-02  0.8801430E-01
         -1   -1    0    0    0  501 -0.00000000000E+00  0.00000000000E+00  0.40749759840E+03  0.40749759840E+03  0.00000000000E+00 0.  1.
          2   -1    0    0  501    0  0.00000000000E+00 -0.00000000000E+00 -0.16329987138E+04  0.16329987138E+04  0.00000000000E+00 0. -1.
         24    2    1    2    0    0 -0.43740546302E+03  0.28560255270E+03 -0.16069290246E+03  0.55144806499E+03  0.73351225553E+02 0.  0.
        254    2    1    2    0    0  0.43740546302E+03 -0.28560255270E+03 -0.10648082129E+04  0.14890482472E+04  0.90030872202E+03 0.  0.
         23    2    4    4    0    0  0.28845337023E+03 -0.42036886011E+01 -0.11130874814E+04  0.11533896154E+04  0.90115735053E+02 0.  0.
         23    2    4    4    0    0  0.14895209279E+03 -0.28139886410E+03  0.48279268546E+02  0.33565863179E+03  0.94677255263E+02 0.  0.
          4    1    3    3  502    0 -0.41130670070E+03  0.27670262096E+03 -0.16712524275E+03  0.52313324235E+03  0.00000000000E+00 0. -1.
         -3    1    3    3    0  502 -0.26098762317E+02  0.88999317430E+01  0.64323402877E+01  0.28314822639E+02  0.00000000000E+00 0.  1.
         13    1    5    5    0    0  0.14470387289E+03  0.23237403720E+02 -0.69909636674E+03  0.71429329953E+03  0.00000000000E+00 0. -1.
        -13    1    5    5    0    0  0.14374949734E+03 -0.27441092321E+02 -0.41399111470E+03  0.43909631584E+03  0.00000000000E+00 0.  1.
          1    1    6    6  503    0  0.15561737996E+03 -0.28471067773E+03  0.49148288139E+02  0.32816534428E+03  0.00000000000E+00 0. -1.
         -1    1    6    6    0  503 -0.66652871779E+01  0.33118136304E+01 -0.86901959270E+00  0.74932875121E+01  0.00000000000E+00 0.  1.
<mgrwt>
<rscale>  0 0.16314939E+04</rscale>
<asrwt>0</asrwt>
<pdfrwt beam="1">  1        2 0.25123057E+00 0.16314939E+04</pdfrwt>
<pdfrwt beam="2">  1       -1 0.62691938E-01 0.16314939E+04</pdfrwt>
<totfact> 0.30059545E+01</totfact>
</mgrwt>
</event>
<event>
12    7  0.1546317E-007  0.3812063E+04  0.7818608E-02  0.8043571E-01
          2   -1    0    0  501    0  0.00000000000E+00  0.00000000000E+00  0.27889702024E+04  0.27889702024E+04  0.00000000000E+00 0. -1.
         -1   -1    0    0    0  501 -0.00000000000E+00 -0.00000000000E+00 -0.13026156004E+04  0.13026156004E+04  0.00000000000E+00 0.  1.
         24    2    1    2    0    0  0.13322130742E+04 -0.19507277306E+03 -0.55851573729E+03  0.14615589231E+04  0.10662830360E+03 0.  0.
        254    2    1    2    0    0 -0.13322130742E+04  0.19507277306E+03  0.20448703393E+04  0.26300268797E+04  0.96057358986E+03 0.  0.
         23    2    4    4    0    0  0.35458338813E+02  0.25687598331E+03  0.25641973834E+03  0.37587766428E+03  0.91051478299E+02 0.  0.
         23    2    4    4    0    0 -0.13676714130E+04 -0.61803210249E+02  0.17884506010E+04  0.22541492154E+04  0.91040664327E+02 0.  0.
          4    1    3    3  502    0  0.24423007938E+03 -0.53952588747E+02 -0.14505968195E+03  0.28913928276E+03  0.00000000000E+00 0. -1.
         -3    1    3    3    0  502  0.10879829948E+04 -0.14112018431E+03 -0.41345605533E+03  0.11724196403E+04  0.00000000000E+00 0.  1.
         13    1    5    5    0    0 -0.27043006119E+02  0.11344465593E+03  0.13070674378E+03  0.17517210682E+03  0.00000000000E+00 0. -1.
        -13    1    5    5    0    0  0.62501344932E+02  0.14343132738E+03  0.12571299456E+03  0.20070555746E+03  0.00000000000E+00 0.  1.
          2    1    6    6  503    0 -0.20785856406E+03 -0.37090995948E+02  0.30520571059E+03  0.37112188080E+03  0.00000000000E+00 0. -1.
         -2    1    6    6    0  503 -0.11598128489E+04 -0.24712214301E+02  0.14832448904E+04  0.18830273346E+04  0.00000000000E+00 0.  1.
<mgrwt>
<rscale>  0 0.38120630E+04</rscale>
<asrwt>0</asrwt>
<pdfrwt beam="1">  1        2 0.42907234E+00 0.38120630E+04</pdfrwt>
<pdfrwt beam="2">  1       -1 0.20040240E+00 0.38120630E+04</pdfrwt>
<totfact> 0.31942767E-01</totfact>
</mgrwt>
</event>
<event>
12    7  0.1546317E-007  0.1465394E+04  0.7818608E-02  0.8907797E-01
          2   -1    0    0  501    0  0.00000000000E+00  0.00000000000E+00  0.14406584709E+04  0.14406584709E+04  0.00000000000E+00 0. -1.
         -1   -1    0    0    0  501 -0.00000000000E+00 -0.00000000000E+00 -0.37263871679E+03  0.37263871679E+03  0.00000000000E+00 0.  1.
         24    2    1    2    0    0  0.13908438908E+03 -0.38258827963E+03  0.56436339865E+02  0.41841958300E+03  0.78559709709E+02 0.  0.
        254    2    1    2    0    0 -0.13908438908E+03  0.38258827963E+03  0.10115834142E+04  0.13948776046E+04  0.86986451190E+03 0.  0.
         23    2    4    4    0    0 -0.11435620349E+03  0.12047178949E+03  0.10918069714E+04  0.11083249307E+04  0.93546223834E+02 0.  0.
         23    2    4    4    0    0 -0.24728185585E+02  0.26211649014E+03 -0.80223557193E+02  0.28655267390E+03  0.79750098590E+02 0.  0.
          4    1    3    3  502    0  0.13239531604E+03 -0.28795513267E+03  0.63704777453E+02  0.32327229515E+03  0.00000000000E+00 0. -1.
         -3    1    3    3    0  502  0.66890730390E+01 -0.94633146958E+02 -0.72684375878E+01  0.95147287855E+02  0.00000000000E+00 0.  1.
         13    1    5    5    0    0 -0.12485608479E+03  0.89344371351E+02  0.79364586527E+03  0.80835958463E+03  0.00000000000E+00 0. -1.
        -13    1    5    5    0    0  0.10499881300E+02  0.31127418139E+02  0.29816110612E+03  0.29996534612E+03  0.00000000000E+00 0.  1.
          4    1    6    6  503    0  0.17899685482E+02  0.11324428036E+03 -0.59437970206E+01  0.11480415715E+03  0.00000000000E+00 0. -1.
         -4    1    6    6    0  503 -0.42627871066E+02  0.14887220978E+03 -0.74279760172E+02  0.17174851675E+03  0.00000000000E+00 0.  1.
<mgrwt>
<rscale>  0 0.14653943E+04</rscale>
<asrwt>0</asrwt>
<pdfrwt beam="1">  1        2 0.22163976E+00 0.14653943E+04</pdfrwt>
<pdfrwt beam="2">  1       -1 0.57329034E-01 0.14653943E+04</pdfrwt>
<totfact> 0.46654391E+01</totfact>
</mgrwt>
</event>
<event>
12    7  0.1546317E-007  0.1520599E+04  0.7818608E-02  0.8870869E-01
          2   -1    0    0  501    0  0.00000000000E+00  0.00000000000E+00  0.14257240504E+04  0.14257240504E+04  0.00000000000E+00 0. -1.
         -1   -1    0    0    0  501 -0.00000000000E+00 -0.00000000000E+00 -0.40544676043E+03  0.40544676043E+03  0.00000000000E+00 0.  1.
         24    2    1    2    0    0 -0.20882416006E+03 -0.42268262679E+03  0.47107907877E+03  0.67136225901E+03  0.80892839915E+02 0.  0.
        254    2    1    2    0    0  0.20882416006E+03  0.42268262679E+03  0.54919821119E+03  0.11598085518E+04  0.90623896896E+03 0.  0.
         23    2    4    4    0    0 -0.26963571894E+03 -0.69014925086E+02  0.31165399808E+03  0.42818751548E+03  0.93540649352E+02 0.  0.
         23    2    4    4    0    0  0.47845987901E+03  0.49169755187E+03  0.23754421311E+03  0.73162103632E+03  0.90287038243E+02 0.  0.
          4    1    3    3  502    0 -0.20665111603E+03 -0.41809627219E+03  0.44440204280E+03  0.64420676201E+03  0.00000000000E+00 0. -1.
         -3    1    3    3    0  502 -0.21730440351E+01 -0.45863545919E+01  0.26677035967E+02  0.27155496991E+02  0.00000000000E+00 0.  1.
         13    1    5    5    0    0 -0.23605938585E+03 -0.91299750635E+02  0.27447710310E+03  0.37335955624E+03  0.00000000000E+00 0. -1.
        -13    1    5    5    0    0 -0.33576333096E+02  0.22284825549E+02  0.37176894986E+02  0.54827959243E+02  0.00000000000E+00 0.  1.
          2    1    6    6  503    0  0.19551940831E+02  0.31788090495E+02 -0.59463246039E+01  0.37790473189E+02  0.00000000000E+00 0.  1.
         -2    1    6    6    0  503  0.45890793817E+03  0.45990946138E+03  0.24349053771E+03  0.69383056313E+03  0.00000000000E+00 0. -1.
<mgrwt>
<rscale>  0 0.15205988E+04</rscale>
<asrwt>0</asrwt>
<pdfrwt beam="1">  1        2 0.21934216E+00 0.15205988E+04</pdfrwt>
<pdfrwt beam="2">  1       -1 0.62376425E-01 0.15205988E+04</pdfrwt>
<totfact> 0.40091026E+01</totfact>
</mgrwt>
</event>
<event>
12    7  0.1546317E-007  0.2196976E+04  0.7818608E-02  0.8519688E-01
          2   -1    0    0  501    0  0.00000000000E+00  0.00000000000E+00  0.21606104026E+04  0.21606104026E+04  0.00000000000E+00 0. -1.
         -1   -1    0    0    0  501 -0.00000000000E+00 -0.00000000000E+00 -0.55848847756E+03  0.55848847756E+03  0.00000000000E+00 0.  1.
         24    2    1    2    0    0 -0.88815495692E+03 -0.12277725388E+02  0.41234733369E+03  0.98256960815E+03  0.80266688145E+02 0.  0.
        254    2    1    2    0    0  0.88815495692E+03  0.12277725388E+02  0.11897745913E+04  0.17365292720E+04  0.90055558642E+03 0.  0.
         23    2    4    4    0    0  0.47891148894E+03 -0.35968135864E+03  0.95223708727E+03  0.11279714818E+04  0.82687964563E+02 0.  0.
         23    2    4    4    0    0  0.40924346798E+03  0.37195908403E+03  0.23753750404E+03  0.60855779012E+03  0.89915192379E+02 0.  0.
          4    1    3    3  502    0 -0.18494144507E+02 -0.14414901646E+01  0.23325196763E+02  0.29802283117E+02  0.00000000000E+00 0. -1.
         -3    1    3    3    0  502 -0.86966081241E+03 -0.10836235223E+02  0.38902213693E+03  0.95276732503E+03  0.00000000000E+00 0.  1.
         13    1    5    5    0    0  0.15920692359E+03 -0.81925619596E+02  0.32683098225E+03  0.37266223665E+03  0.00000000000E+00 0.  1.
        -13    1    5    5    0    0  0.31970456534E+03 -0.27775573905E+03  0.62540610501E+03  0.75530924518E+03  0.00000000000E+00 0. -1.
          1    1    6    6  503    0  0.38031435894E+03  0.33116760863E+03  0.23999769343E+03  0.55848893407E+03  0.00000000000E+00 0. -1.
         -1    1    6    6    0  503  0.28929109042E+02  0.40791475395E+02 -0.24601893976E+01  0.50068856055E+02  0.00000000000E+00 0.  1.
<mgrwt>
<rscale>  0 0.21969761E+04</rscale>
<asrwt>0</asrwt>
<pdfrwt beam="1">  1        2 0.33240160E+00 0.21969761E+04</pdfrwt>
<pdfrwt beam="2">  1       -1 0.85921305E-01 0.21969761E+04</pdfrwt>
<totfact> 0.75610083E+00</totfact>
</mgrwt>
</event>
<event>
12    7  0.1546317E-007  0.1785577E+04  0.7818608E-02  0.8714007E-01
          2   -1    0    0  501    0  0.00000000000E+00  0.00000000000E+00  0.15273684762E+04  0.15273684762E+04  0.00000000000E+00 0. -1.
         -1   -1    0    0    0  501 -0.00000000000E+00 -0.00000000000E+00 -0.52185916619E+03  0.52185916619E+03  0.00000000000E+00 0.  1.
         24    2    1    2    0    0 -0.58569702569E+03 -0.63651764192E+02  0.26214691319E+02  0.59534281478E+03  0.81567788287E+02 0.  0.
        254    2    1    2    0    0  0.58569702569E+03  0.63651764192E+02  0.97929461868E+03  0.14538848276E+04  0.89870495090E+03 0.  0.
         23    2    4    4    0    0  0.31682817186E+03 -0.14779399282E+03  0.10341835111E+04  0.10951749144E+04  0.87460869169E+02 0.  0.
         23    2    4    4    0    0  0.26886885383E+03  0.21144575701E+03 -0.54888892443E+02  0.35870991321E+03  0.93060424486E+02 0.  0.
          2    1    3    3  502    0 -0.61548881021E+02 -0.23348567137E+02  0.22709427756E+02  0.69635755552E+02  0.00000000000E+00 0. -1.
         -1    1    3    3    0  502 -0.52414814467E+03 -0.40303197055E+02  0.35052635631E+01  0.52570705923E+03  0.00000000000E+00 0.  1.
         13    1    5    5    0    0  0.29110109358E+03 -0.15962161276E+03  0.94691222233E+03  0.10034249662E+04  0.00000000000E+00 0. -1.
        -13    1    5    5    0    0  0.25727078278E+02  0.11827619941E+02  0.87271288791E+02  0.91749948215E+02  0.00000000000E+00 0.  1.
          3    1    6    6  503    0  0.21625201024E+03  0.12509032513E+03 -0.61787149451E+02  0.25735223568E+03  0.00000000000E+00 0. -1.
         -3    1    6    6    0  503  0.52616843595E+02  0.86355431880E+02  0.68982570076E+01  0.10135767753E+03  0.00000000000E+00 0.  1.
<mgrwt>
<rscale>  0 0.17855769E+04</rscale>
<asrwt>0</asrwt>
<pdfrwt beam="1">  1        2 0.23497976E+00 0.17855769E+04</pdfrwt>
<pdfrwt beam="2">  1       -1 0.80286026E-01 0.17855769E+04</pdfrwt>
<totfact> 0.20422698E+01</totfact>
</mgrwt>
</event>
<event>
12    7  0.1546317E-007  0.2066153E+04  0.7818608E-02  0.8576302E-01
         -1   -1    0    0    0  501 -0.00000000000E+00  0.00000000000E+00  0.76449655292E+03  0.76449655292E+03  0.00000000000E+00 0.  1.
          2   -1    0    0  501    0  0.00000000000E+00 -0.00000000000E+00 -0.13960123004E+04  0.13960123004E+04  0.00000000000E+00 0. -1.
         24    2    1    2    0    0 -0.71580829615E+03  0.10237795423E+03 -0.66062556711E+03  0.98264560590E+03  0.79394486705E+02 0.  0.
        254    2    1    2    0    0  0.71580829615E+03 -0.10237795423E+03  0.29109819637E+02  0.11778632474E+04  0.92932862092E+03 0.  0.
         23    2    4    4    0    0  0.85928056054E+02 -0.62587129331E+02 -0.39014074437E+03  0.41494523012E+03  0.93107271520E+02 0.  0.
         23    2    4    4    0    0  0.62988024010E+03 -0.39790824896E+02  0.41925056400E+03  0.76291801730E+03  0.89109141429E+02 0.  0.
          2    1    3    3  502    0 -0.46979961940E+03  0.51048624756E+02 -0.47658000589E+03  0.67115284883E+03  0.00000000000E+00 0. -1.
         -3    1    3    3    0  502 -0.24600867675E+03  0.51329329471E+02 -0.18404556122E+03  0.31149275707E+03  0.00000000000E+00 0.  1.
         13    1    5    5    0    0  0.30635693788E+02 -0.71702597372E+02 -0.28881772624E+03  0.29915796361E+03  0.00000000000E+00 0. -1.
        -13    1    5    5    0    0  0.55292362267E+02  0.91154680407E+01 -0.10132301813E+03  0.11578726651E+03  0.00000000000E+00 0.  1.
          4    1    6    6  503    0  0.51547977124E+03 -0.97323845134E+01  0.37095461575E+03  0.63515465896E+03  0.00000000000E+00 0. -1.
         -4    1    6    6    0  503  0.11440046886E+03 -0.30058440383E+02  0.48295948259E+02  0.12776335833E+03  0.00000000000E+00 0.  1.
<mgrwt>
<rscale>  0 0.20661526E+04</rscale>
<asrwt>0</asrwt>
<pdfrwt beam="1">  1        2 0.21477112E+00 0.20661526E+04</pdfrwt>
<pdfrwt beam="2">  1       -1 0.11761486E+00 0.20661526E+04</pdfrwt>
<totfact> 0.99606160E+00</totfact>
</mgrwt>
</event>
<event>
12    7  0.1546317E-007  0.1503931E+04  0.7818608E-02  0.8881843E-01
         -1   -1    0    0    0  501 -0.00000000000E+00  0.00000000000E+00  0.31173767679E+03  0.31173767679E+03  0.00000000000E+00 0.  1.
          2   -1    0    0  501    0  0.00000000000E+00 -0.00000000000E+00 -0.18138721213E+04  0.18138721213E+04  0.00000000000E+00 0. -1.
         24    2    1    2    0    0 -0.28394483640E+03 -0.34430337665E+03 -0.24470050383E+03  0.51518005937E+03  0.79766357005E+02 0.  0.
        254    2    1    2    0    0  0.28394483640E+03  0.34430337665E+03 -0.12574339407E+04  0.16104297387E+04  0.90176179940E+03 0.  0.
         23    2    4    4    0    0  0.34369008884E+03 -0.16961715318E+03 -0.22843363633E+03  0.45516035374E+03  0.89978695162E+02 0.  0.
         23    2    4    4    0    0 -0.59745252442E+02  0.51392052983E+03 -0.10290003043E+04  0.11552693850E+04  0.90121691867E+02 0.  0.
          2    1    3    3  502    0 -0.64431556287E+02 -0.45744612925E+02 -0.69692803234E+02  0.10536167178E+03  0.00000000000E+00 0. -1.
         -3    1    3    3    0  502 -0.21951328011E+03 -0.29855876372E+03 -0.17500770059E+03  0.40981838759E+03  0.00000000000E+00 0.  1.
         13    1    5    5    0    0  0.29423672185E+03 -0.11650096011E+03 -0.15675697030E+03  0.35315785412E+03  0.00000000000E+00 0.  1.
        -13    1    5    5    0    0  0.49453366989E+02 -0.53116193073E+02 -0.71676666035E+02  0.10200249961E+03  0.00000000000E+00 0. -1.
          4    1    6    6  503    0  0.47438179612E+01  0.16079932419E+01 -0.33003296455E+02  0.33381237664E+02  0.00000000000E+00 0. -1.
         -4    1    6    6    0  503 -0.64489070403E+02  0.51231253659E+03 -0.99599700787E+03  0.11218881473E+04  0.00000000000E+00 0.  1.
<mgrwt>
<rscale>  0 0.15039312E+04</rscale>
<asrwt>0</asrwt>
<pdfrwt beam="1">  1        2 0.27905726E+00 0.15039312E+04</pdfrwt>
<pdfrwt beam="2">  1       -1 0.47959641E-01 0.15039312E+04</pdfrwt>
<totfact> 0.40524992E+01</totfact>
</mgrwt>
</event>
<event>
12    7  0.1546317E-007  0.2967757E+04  0.7818608E-02  0.8252998E-01
         -1   -1    0    0    0  501 -0.00000000000E+00  0.00000000000E+00  0.25253830551E+04  0.25253830551E+04  0.00000000000E+00 0.  1.
          2   -1    0    0  501    0  0.00000000000E+00 -0.00000000000E+00 -0.87190541273E+03  0.87190541273E+03  0.00000000000E+00 0. -1.
         24    2    1    2    0    0  0.93842679882E+03 -0.39879499483E+03  0.17593978526E+04  0.20350657125E+04  0.79557186733E+02 0.  0.
        254    2    1    2    0    0 -0.93842679882E+03  0.39879499483E+03 -0.10592021026E+03  0.13622227553E+04  0.89707827940E+03 0.  0.
         23    2    4    4    0    0 -0.54197467654E+03  0.54991048554E+03 -0.36266799293E+03  0.85809831025E+03  0.93094279305E+02 0.  0.
         23    2    4    4    0    0 -0.39645212228E+03 -0.15111549071E+03  0.25674778267E+03  0.50412444502E+03  0.90619288010E+02 0.  0.
          2    1    3    3  502    0  0.29358341060E+03 -0.10236168396E+03  0.59762007630E+03  0.67366081147E+03  0.00000000000E+00 0. -1.
         -1    1    3    3    0  502  0.64484338823E+03 -0.29643331086E+03  0.11617777763E+04  0.13614049011E+04  0.00000000000E+00 0.  1.
         13    1    5    5    0    0 -0.10561709127E+03  0.16453834584E+03 -0.89924755271E+02  0.21520757150E+03  0.00000000000E+00 0. -1.
        -13    1    5    5    0    0 -0.43635758527E+03  0.38537213969E+03 -0.27274323766E+03  0.64289073875E+03  0.00000000000E+00 0.  1.
          3    1    6    6  503    0 -0.69035807504E+02  0.84982881258E+01  0.43656916635E+02  0.82122408567E+02  0.00000000000E+00 0. -1.
         -3    1    6    6    0  503 -0.32741631478E+03 -0.15961377884E+03  0.21309086604E+03  0.42200203645E+03  0.00000000000E+00 0.  1.
<mgrwt>
<rscale>  0 0.29677568E+04</rscale>
<asrwt>0</asrwt>
<pdfrwt beam="1">  1        2 0.13413930E+00 0.29677568E+04</pdfrwt>
<pdfrwt beam="2">  1       -1 0.38852047E+00 0.29677568E+04</pdfrwt>
<totfact> 0.25669900E-01</totfact>
</mgrwt>
</event>
<event>
12    7  0.1546317E-007  0.2246782E+04  0.7818608E-02  0.8499205E-01
         -1   -1    0    0    0  501 -0.00000000000E+00  0.00000000000E+00  0.42986118675E+03  0.42986118675E+03  0.00000000000E+00 0.  1.
          2   -1    0    0  501    0  0.00000000000E+00 -0.00000000000E+00 -0.29358481266E+04  0.29358481266E+04  0.00000000000E+00 0. -1.
         24    2    1    2    0    0 -0.14445826027E+02 -0.60053737289E+03 -0.21665720095E+04  0.22500635389E+04  0.88869784764E+02 0.  0.
        254    2    1    2    0    0  0.14445826027E+02  0.60053737289E+03 -0.33941493036E+03  0.11156457745E+04  0.87670358788E+03 0.  0.
         23    2    4    4    0    0  0.23629859277E+03  0.22530318269E+03  0.21707943642E+03  0.40270002572E+03  0.91898204133E+02 0.  0.
         23    2    4    4    0    0 -0.22185276674E+03  0.37523419020E+03 -0.55649436678E+03  0.71294574874E+03  0.92662359055E+02 0.  0.
          2    1    3    3  502    0 -0.40228449862E+02 -0.50460373183E+03 -0.18696360305E+04  0.19369517653E+04  0.00000000000E+00 0. -1.
         -1    1    3    3    0  502  0.25782623835E+02 -0.95933641061E+02 -0.29693597898E+03  0.31311177364E+03  0.00000000000E+00 0.  1.
         13    1    5    5    0    0  0.58742688428E+02  0.12369572581E+02  0.55770599187E+02  0.81939425817E+02  0.00000000000E+00 0. -1.
        -13    1    5    5    0    0  0.17755590434E+03  0.21293361010E+03  0.16130883724E+03  0.32076059990E+03  0.00000000000E+00 0.  1.
          1    1    6    6  503    0 -0.10695940514E+03  0.15372014834E+03 -0.31011348642E+03  0.36227140767E+03  0.00000000000E+00 0. -1.
         -1    1    6    6    0  503 -0.11489336160E+03  0.22151404186E+03 -0.24638088036E+03  0.35067434107E+03  0.00000000000E+00 0.  1.
<mgrwt>
<rscale>  0 0.22467818E+04</rscale>
<asrwt>0</asrwt>
<pdfrwt beam="1">  1        2 0.45166893E+00 0.22467818E+04</pdfrwt>
<pdfrwt beam="2">  1       -1 0.66132492E-01 0.22467818E+04</pdfrwt>
<totfact> 0.45871029E+00</totfact>
</mgrwt>
</event>
<event>
12    7  0.1546317E-007  0.1316163E+04  0.7818608E-02  0.9016845E-01
         -1   -1    0    0    0  501 -0.00000000000E+00  0.00000000000E+00  0.40469257286E+03  0.40469257286E+03  0.00000000000E+00 0.  1.
          2   -1    0    0  501    0  0.00000000000E+00 -0.00000000000E+00 -0.10701234806E+04  0.10701234806E+04  0.00000000000E+00 0. -1.
         24    2    1    2    0    0 -0.10826731020E+03 -0.22852543294E+03 -0.22061481291E+03  0.34557617125E+03  0.82500366690E+02 0.  0.
        254    2    1    2    0    0  0.10826731020E+03  0.22852543294E+03 -0.44481609486E+03  0.11292398822E+04  0.10066656195E+04 0.  0.
         23    2    4    4    0    0  0.72520457937E+02  0.56641191028E+03 -0.51090093290E+03  0.77103828037E+03  0.86015101137E+02 0.  0.
         23    2    4    4    0    0  0.35746852266E+02 -0.33788647734E+03  0.66084838043E+02  0.35820160188E+03  0.92174143604E+02 0.  0.
          4    1    3    3  502    0 -0.47185370853E+02 -0.27907500078E+02 -0.31722969130E+02  0.63337465639E+02  0.00000000000E+00 0. -1.
         -3    1    3    3    0  502 -0.61081939349E+02 -0.20061793286E+03 -0.18889184378E+03  0.28223870561E+03  0.00000000000E+00 0.  1.
         13    1    5    5    0    0  0.35174797647E+02  0.49376667816E+03 -0.45200750632E+03  0.67033841052E+03  0.00000000000E+00 0.  1.
        -13    1    5    5    0    0  0.37345660290E+02  0.72645232118E+02 -0.58893426585E+02  0.10069986985E+03  0.00000000000E+00 0. -1.
          2    1    6    6  503    0 -0.22962276655E+02 -0.20533620855E+03  0.29745401007E+02  0.20874628996E+03  0.00000000000E+00 0. -1.
         -2    1    6    6    0  503  0.58709128921E+02 -0.13255026879E+03  0.36339437036E+02  0.14945531191E+03  0.00000000000E+00 0.  1.
<mgrwt>
<rscale>  0 0.13161626E+04</rscale>
<asrwt>0</asrwt>
<pdfrwt beam="1">  1        2 0.16463438E+00 0.13161626E+04</pdfrwt>
<pdfrwt beam="2">  1       -1 0.62260396E-01 0.13161626E+04</pdfrwt>
<totfact> 0.66441581E+01</totfact>
</mgrwt>
</event>
<event>
12    7  0.1546317E-007  0.1880305E+04  0.7818608E-02  0.8664722E-01
          4   -1    0    0  501    0  0.00000000000E+00  0.00000000000E+00  0.12785839266E+04  0.12785839266E+04  0.00000000000E+00 0. -1.
         -3   -1    0    0    0  501 -0.00000000000E+00 -0.00000000000E+00 -0.69130146294E+03  0.69130146294E+03  0.00000000000E+00 0.  1.
         24    2    1    2    0    0 -0.54281879952E+03 -0.40742737880E+03 -0.36795353962E+02  0.68386755083E+03  0.75310098221E+02 0.  0.
        254    2    1    2    0    0  0.54281879952E+03  0.40742737880E+03  0.62407781765E+03  0.12860178387E+04  0.89650401058E+03 0.  0.
         23    2    4    4    0    0  0.16650310087E+03  0.35704943402E+03  0.76907135437E+03  0.86907048554E+03  0.92764108312E+02 0.  0.
         23    2    4    4    0    0  0.37631569865E+03  0.50377944780E+02 -0.14499353672E+03  0.41694735321E+03  0.93115666163E+02 0.  0.
          4    1    3    3  502    0 -0.33636421841E+03 -0.25120589015E+03  0.13927213302E+02  0.42004672829E+03  0.00000000000E+00 0. -1.
         -3    1    3    3    0  502 -0.20645458111E+03 -0.15622148864E+03 -0.50722567264E+02  0.26382082254E+03  0.00000000000E+00 0.  1.
         13    1    5    5    0    0  0.14710455613E+03  0.32219815081E+03  0.73770765907E+03  0.81833000010E+03  0.00000000000E+00 0.  1.
        -13    1    5    5    0    0  0.19398544738E+02  0.34851283211E+02  0.31363695300E+02  0.50740485435E+02  0.00000000000E+00 0. -1.
          3    1    6    6  503    0  0.31156452415E+03  0.56072971709E+01 -0.12479967370E+03  0.33567670912E+03  0.00000000000E+00 0. -1.
         -3    1    6    6    0  503  0.64751174501E+02  0.44770647609E+02 -0.20193863015E+02  0.81270644085E+02  0.00000000000E+00 0.  1.
<mgrwt>
<rscale>  0 0.18803052E+04</rscale>
<asrwt>0</asrwt>
<pdfrwt beam="1">  1        4 0.19670522E+00 0.18803052E+04</pdfrwt>
<pdfrwt beam="2">  1       -3 0.10635407E+00 0.18803052E+04</pdfrwt>
<totfact> 0.22399729E-01</totfact>
</mgrwt>
</event>
<event>
12    7  0.1546317E-007  0.1680016E+04  0.7818608E-02  0.8772845E-01
          2   -1    0    0  501    0  0.00000000000E+00  0.00000000000E+00  0.28735067279E+04  0.28735067279E+04  0.00000000000E+00 0. -1.
         -1   -1    0    0    0  501 -0.00000000000E+00 -0.00000000000E+00 -0.24555821939E+03  0.24555821939E+03  0.00000000000E+00 0.  1.
         24    2    1    2    0    0 -0.21477086066E+02  0.30253051772E+03  0.90253380281E+01  0.31377003750E+03  0.79901191024E+02 0.  0.
        254    2    1    2    0    0  0.21477086066E+02 -0.30253051772E+03  0.26189231704E+04  0.28052949097E+04  0.95861096312E+03 0.  0.
         23    2    4    4    0    0  0.44935915201E+03 -0.12737197801E+03  0.84345783623E+03  0.96839876067E+03  0.90707055311E+02 0.  0.
         23    2    4    4    0    0 -0.42788206594E+03 -0.17515853971E+03  0.17754653342E+04  0.18368961491E+04  0.90259255181E+02 0.  0.
          2    1    3    3  502    0  0.23514986324E+02  0.34116945304E+02  0.30171410738E+01  0.41545441134E+02  0.00000000000E+00 0. -1.
         -1    1    3    3    0  502 -0.44992072390E+02  0.26841357242E+03  0.60081969543E+01  0.27222459637E+03  0.00000000000E+00 0.  1.
         13    1    5    5    0    0  0.40898613827E+03 -0.86051751640E+02  0.73518577689E+03  0.84567883490E+03  0.00000000000E+00 0.  1.
        -13    1    5    5    0    0  0.40373013736E+02 -0.41320226372E+02  0.10827205935E+03  0.12271992577E+03  0.00000000000E+00 0. -1.
          1    1    6    6  503    0 -0.25622189897E+02 -0.22955540940E+02  0.23548690473E+03  0.23798641930E+03  0.00000000000E+00 0. -1.
         -1    1    6    6    0  503 -0.40225987605E+03 -0.15220299877E+03  0.15399784295E+04  0.15989097298E+04  0.00000000000E+00 0.  1.
<mgrwt>
<rscale>  0 0.16800157E+04</rscale>
<asrwt>0</asrwt>
<pdfrwt beam="1">  1        2 0.44207793E+00 0.16800157E+04</pdfrwt>
<pdfrwt beam="2">  1       -1 0.37778190E-01 0.16800157E+04</pdfrwt>
<totfact> 0.15363302E+01</totfact>
</mgrwt>
</event>
<event>
12    7  0.1546317E-007  0.1591764E+04  0.7818608E-02  0.8825623E-01
         -1   -1    0    0    0  501 -0.00000000000E+00  0.00000000000E+00  0.90105600710E+03  0.90105600710E+03  0.00000000000E+00 0.  1.
          2   -1    0    0  501    0  0.00000000000E+00 -0.00000000000E+00 -0.70298454679E+03  0.70298454679E+03  0.00000000000E+00 0. -1.
         24    2    1    2    0    0 -0.42515538333E+03  0.15518979957E+02  0.40718185364E+03  0.59439354287E+03  0.80676410224E+02 0.  0.
        254    2    1    2    0    0  0.42515538333E+03 -0.15518979957E+02 -0.20911039332E+03  0.10096470110E+04  0.89143815912E+03 0.  0.
         23    2    4    4    0    0  0.63453866260E+03 -0.16276517304E+03 -0.29489988121E+03  0.72443352822E+03  0.93306918213E+02 0.  0.
         23    2    4    4    0    0 -0.20938327927E+03  0.14724619308E+03  0.85789487884E+02  0.28521348280E+03  0.92000519143E+02 0.  0.
          4    1    3    3  502    0 -0.72818727139E+02  0.30790441555E+02  0.57553085990E+02  0.97790469988E+02  0.00000000000E+00 0. -1.
         -3    1    3    3    0  502 -0.35233665619E+03 -0.15271461598E+02  0.34962876765E+03  0.49660307288E+03  0.00000000000E+00 0.  1.
         13    1    5    5    0    0  0.42008611961E+03 -0.61966620377E+02 -0.18319495943E+03  0.46246362353E+03  0.00000000000E+00 0. -1.
        -13    1    5    5    0    0  0.21445254299E+03 -0.10079855266E+03 -0.11170492177E+03  0.26196990468E+03  0.00000000000E+00 0.  1.
          4    1    6    6  503    0 -0.20381372063E+03  0.15848827787E+03  0.87375576131E+02  0.27256752969E+03  0.00000000000E+00 0.  1.
         -4    1    6    6    0  503 -0.55695586402E+01 -0.11242084791E+02 -0.15860882474E+01  0.12645953101E+02  0.00000000000E+00 0. -1.
<mgrwt>
<rscale>  0 0.15917644E+04</rscale>
<asrwt>0</asrwt>
<pdfrwt beam="1">  1        2 0.10815147E+00 0.15917644E+04</pdfrwt>
<pdfrwt beam="2">  1       -1 0.13862400E+00 0.15917644E+04</pdfrwt>
<totfact> 0.19211703E+01</totfact>
</mgrwt>
</event>
<event>
12    7  0.1546317E-007  0.1487275E+04  0.7818608E-02  0.8892959E-01
          2   -1    0    0  501    0  0.00000000000E+00  0.00000000000E+00  0.16415414259E+04  0.16415414259E+04  0.00000000000E+00 0. -1.
         -1   -1    0    0    0  501 -0.00000000000E+00 -0.00000000000E+00 -0.33687652706E+03  0.33687652706E+03  0.00000000000E+00 0.  1.
         24    2    1    2    0    0  0.21282485994E+03 -0.13358369138E+03 -0.86212746727E+02  0.27196250256E+03  0.58240376753E+02 0.  0.
        254    2    1    2    0    0 -0.21282485994E+03  0.13358369138E+03  0.13908776455E+04  0.17064554504E+04  0.95619587723E+03 0.  0.
         23    2    4    4    0    0 -0.49301424585E+03 -0.17498319724E+03  0.97799017719E+03  0.11131126679E+04  0.94195853717E+02 0.  0.
         23    2    4    4    0    0  0.28018938590E+03  0.30856688863E+03  0.41288746835E+03  0.59334278246E+03  0.88656524023E+02 0.  0.
          2    1    3    3  502    0  0.20198295296E+02 -0.36753405784E+02 -0.19750956016E+02  0.46356059293E+02  0.00000000000E+00 0. -1.
         -1    1    3    3    0  502  0.19262656465E+03 -0.96830285600E+02 -0.66461790710E+02  0.22560644326E+03  0.00000000000E+00 0.  1.
         13    1    5    5    0    0 -0.13703795747E+03 -0.93792515807E+02  0.32550966113E+03  0.36542164317E+03  0.00000000000E+00 0. -1.
        -13    1    5    5    0    0 -0.35597628837E+03 -0.81190681435E+02  0.65248051607E+03  0.74769102474E+03  0.00000000000E+00 0.  1.
          2    1    6    6  503    0  0.80514069229E+02  0.14873001982E+03  0.18661892775E+03  0.25185265203E+03  0.00000000000E+00 0. -1.
         -2    1    6    6    0  503  0.19967531667E+03  0.15983686880E+03  0.22626854060E+03  0.34149013043E+03  0.00000000000E+00 0.  1.
<mgrwt>
<rscale>  0 0.14872751E+04</rscale>
<asrwt>0</asrwt>
<pdfrwt beam="1">  1        2 0.25254483E+00 0.14872751E+04</pdfrwt>
<pdfrwt beam="2">  1       -1 0.51827159E-01 0.14872751E+04</pdfrwt>
<totfact> 0.43646333E+01</totfact>
</mgrwt>
</event>
<event>
12    7  0.1546317E-007  0.1457399E+04  0.7818608E-02  0.8913287E-01
         -1   -1    0    0    0  501 -0.00000000000E+00  0.00000000000E+00  0.23793736507E+03  0.23793736507E+03  0.00000000000E+00 0.  1.
          2   -1    0    0  501    0  0.00000000000E+00 -0.00000000000E+00 -0.22316924061E+04  0.22316924061E+04  0.00000000000E+00 0. -1.
         24    2    1    2    0    0 -0.23871878870E+03 -0.26911378565E+03 -0.10353040937E+04  0.10992166659E+04  0.83748566672E+02 0.  0.
        254    2    1    2    0    0  0.23871878870E+03  0.26911378565E+03 -0.95845094737E+03  0.13704131053E+04  0.91104059791E+03 0.  0.
         23    2    4    4    0    0 -0.11445139371E+03 -0.25095768608E+03 -0.52934035070E+03  0.60385763983E+03  0.91454691428E+02 0.  0.
         23    2    4    4    0    0  0.35317018241E+03  0.52007147173E+03 -0.42911059667E+03  0.76655546550E+03  0.90927795848E+02 0.  0.
          2    1    3    3  502    0 -0.14778111057E+03 -0.19838718458E+03 -0.79731836902E+03  0.83481334034E+03  0.00000000000E+00 0. -1.
         -1    1    3    3    0  502 -0.90937678126E+02 -0.70726601077E+02 -0.23798572466E+03  0.26440332552E+03  0.00000000000E+00 0.  1.
         13    1    5    5    0    0 -0.68435037979E+02 -0.51924071112E+02 -0.17151354780E+03  0.19182377502E+03  0.00000000000E+00 0. -1.
        -13    1    5    5    0    0 -0.46016355735E+02 -0.19903361496E+03 -0.35782680290E+03  0.41203386481E+03  0.00000000000E+00 0.  1.
          3    1    6    6  503    0  0.79991789364E+02  0.12429246844E+03 -0.14969839555E+03  0.21037327232E+03  0.00000000000E+00 0. -1.
         -3    1    6    6    0  503  0.27317839305E+03  0.39577900329E+03 -0.27941220113E+03  0.55618219318E+03  0.00000000000E+00 0.  1.
<mgrwt>
<rscale>  0 0.14573991E+04</rscale>
<asrwt>0</asrwt>
<pdfrwt beam="1">  1        2 0.34333730E+00 0.14573991E+04</pdfrwt>
<pdfrwt beam="2">  1       -1 0.36605748E-01 0.14573991E+04</pdfrwt>
<totfact> 0.39214023E+01</totfact>
</mgrwt>
</event>
<event>
12    7  0.1546317E-007  0.2842640E+04  0.7818608E-02  0.8290151E-01
          2   -1    0    0  501    0  0.00000000000E+00  0.00000000000E+00  0.35037434180E+04  0.35037434180E+04  0.00000000000E+00 0. -1.
         -1   -1    0    0    0  501 -0.00000000000E+00 -0.00000000000E+00 -0.57656922999E+03  0.57656922999E+03  0.00000000000E+00 0.  1.
         24    2    1    2    0    0 -0.29427658375E+03  0.15491049433E+02 -0.46629323154E+03  0.55736957928E+03  0.79954923419E+02 0.  0.
        254    2    1    2    0    0  0.29427658375E+03 -0.15491049433E+02  0.33934674196E+04  0.35229430687E+04  0.89925972750E+03 0.  0.
         23    2    4    4    0    0 -0.89611379654E+02  0.19484491734E+03  0.26117631699E+04  0.26221538158E+04  0.91591687156E+02 0.  0.
         23    2    4    4    0    0  0.38388796340E+03 -0.21033596677E+03  0.78170424967E+03  0.90078925288E+03  0.93533720122E+02 0.  0.
          2    1    3    3  502    0 -0.20675373326E+02  0.76465927322E+01 -0.77891562257E+01  0.23379743311E+02  0.00000000000E+00 0. -1.
         -1    1    3    3    0  502 -0.27360121042E+03  0.78444567010E+01 -0.45850407531E+03  0.53398983597E+03  0.00000000000E+00 0.  1.
         13    1    5    5    0    0 -0.71187718357E+02  0.20028037968E+03  0.24632016781E+04  0.24723556437E+04  0.00000000000E+00 0. -1.
        -13    1    5    5    0    0 -0.18423661297E+02 -0.54354623431E+01  0.14856149178E+03  0.14979817218E+03  0.00000000000E+00 0.  1.
          2    1    6    6  503    0  0.22269097353E+03 -0.68867027938E+02  0.41369874116E+03  0.47484796058E+03  0.00000000000E+00 0. -1.
         -2    1    6    6    0  503  0.16119698987E+03 -0.14146893883E+03  0.36800550851E+03  0.42594129231E+03  0.00000000000E+00 0.  1.
<mgrwt>
<rscale>  0 0.28426401E+04</rscale>
<asrwt>0</asrwt>
<pdfrwt beam="1">  1        2 0.53903743E+00 0.28426401E+04</pdfrwt>
<pdfrwt beam="2">  1       -1 0.88702961E-01 0.28426401E+04</pdfrwt>
<totfact> 0.99285111E-01</totfact>
</mgrwt>
</event>
<event>
12    7  0.1546317E-007  0.1624396E+04  0.7818608E-02  0.8805699E-01
          2   -1    0    0  501    0  0.00000000000E+00  0.00000000000E+00  0.20532968025E+04  0.20532968025E+04  0.00000000000E+00 0. -1.
         -1   -1    0    0    0  501 -0.00000000000E+00 -0.00000000000E+00 -0.32127132185E+03  0.32127132185E+03  0.00000000000E+00 0.  1.
         24    2    1    2    0    0 -0.44223521379E+03 -0.28431057585E+03  0.87205491305E+03  0.10216553818E+04  0.83038906181E+02 0.  0.
        254    2    1    2    0    0  0.44223521379E+03  0.28431057585E+03  0.85997056765E+03  0.13529127426E+04  0.90245167403E+03 0.  0.
         23    2    4    4    0    0  0.64926117652E+03  0.14231898077E+03  0.30702185959E+03  0.73733146189E+03  0.87180816745E+02 0.  0.
         23    2    4    4    0    0 -0.20702596273E+03  0.14199159508E+03  0.55294870806E+03  0.61558128069E+03  0.10082994136E+03 0.  0.
          4    1    3    3  502    0 -0.42715445274E+03 -0.25135640530E+03  0.82202969851E+03  0.95988217725E+03  0.00000000000E+00 0. -1.
         -3    1    3    3    0  502 -0.15080761053E+02 -0.32954170552E+02  0.50025214542E+02  0.61773204552E+02  0.00000000000E+00 0.  1.
         13    1    5    5    0    0  0.59523933227E+03  0.15454146427E+03  0.28064073838E+03  0.67598235990E+03  0.00000000000E+00 0. -1.
        -13    1    5    5    0    0  0.54021844250E+02 -0.12222483496E+02  0.26381121208E+02  0.61349101992E+02  0.00000000000E+00 0.  1.
          3    1    6    6  503    0 -0.12241663406E+03  0.23191788856E+02  0.26263276271E+03  0.29068825125E+03  0.00000000000E+00 0. -1.
         -3    1    6    6    0  503 -0.84609328667E+02  0.11879980622E+03  0.29031594535E+03  0.32489302944E+03  0.00000000000E+00 0.  1.
<mgrwt>
<rscale>  0 0.16243957E+04</rscale>
<asrwt>0</asrwt>
<pdfrwt beam="1">  1        2 0.31589181E+00 0.16243957E+04</pdfrwt>
<pdfrwt beam="2">  1       -1 0.49426359E-01 0.16243957E+04</pdfrwt>
<totfact> 0.27918591E+01</totfact>
</mgrwt>
</event>
<event>
12    7  0.1546317E-007  0.2431302E+04  0.7818608E-02  0.8427877E-01
          2   -1    0    0  501    0  0.00000000000E+00  0.00000000000E+00  0.26149858063E+04  0.26149858063E+04  0.00000000000E+00 0. -1.
         -1   -1    0    0    0  501 -0.00000000000E+00 -0.00000000000E+00 -0.56513003068E+03  0.56513003068E+03  0.00000000000E+00 0.  1.
         24    2    1    2    0    0  0.75490514165E+03 -0.70288278269E+03  0.11254834669E+04  0.15287030359E+04  0.79334471598E+02 0.  0.
        254    2    1    2    0    0 -0.75490514165E+03  0.70288278269E+03  0.92437230869E+03  0.16514128011E+04  0.89931868413E+03 0.  0.
         23    2    4    4    0    0 -0.80897591231E+03  0.31119426549E+03  0.33088269747E+03  0.93244781459E+03  0.93229125680E+02 0.  0.
         23    2    4    4    0    0  0.54070770660E+02  0.39168851720E+03  0.59348961122E+03  0.71896498656E+03  0.91308217168E+02 0.  0.
          4    1    3    3  502    0  0.63475393452E+00 -0.10813348878E+02  0.12783358984E+02  0.16755467568E+02  0.00000000000E+00 0. -1.
         -3    1    3    3    0  502  0.75427038771E+03 -0.69206943381E+03  0.11127001080E+04  0.15119475683E+04  0.00000000000E+00 0.  1.
         13    1    5    5    0    0 -0.30346923654E+03  0.73740425381E+02  0.97713602644E+02  0.32722954635E+03  0.00000000000E+00 0. -1.
        -13    1    5    5    0    0 -0.50550667577E+03  0.23745384011E+03  0.23316909482E+03  0.60521826824E+03  0.00000000000E+00 0.  1.
          4    1    6    6  503    0  0.53025628856E+02  0.18252969737E+03  0.34737494382E+03  0.39597747326E+03  0.00000000000E+00 0. -1.
         -4    1    6    6    0  503  0.10451418039E+01  0.20915881983E+03  0.24611466740E+03  0.32298751329E+03  0.00000000000E+00 0.  1.
<mgrwt>
<rscale>  0 0.24313017E+04</rscale>
<asrwt>0</asrwt>
<pdfrwt beam="1">  1        2 0.40230550E+00 0.24313017E+04</pdfrwt>
<pdfrwt beam="2">  1       -1 0.86943083E-01 0.24313017E+04</pdfrwt>
<totfact> 0.39647677E+00</totfact>
</mgrwt>
</event>
<event>
12    7  0.1546317E-007  0.1414597E+04  0.7818608E-02  0.8943320E-01
         -1   -1    0    0    0  501 -0.00000000000E+00  0.00000000000E+00  0.13596117668E+03  0.13596117668E+03  0.00000000000E+00 0.  1.
          2   -1    0    0  501    0  0.00000000000E+00 -0.00000000000E+00 -0.36795157325E+04  0.36795157325E+04  0.00000000000E+00 0. -1.
         24    2    1    2    0    0  0.94710987366E+02 -0.16822106997E+03 -0.16795866172E+04  0.16928918159E+04  0.87195161680E+02 0.  0.
        254    2    1    2    0    0 -0.94710987366E+02  0.16822106997E+03 -0.18639679386E+04  0.21225850933E+04  0.99685630982E+03 0.  0.
         23    2    4    4    0    0 -0.38392625803E+03 -0.17254873352E+03 -0.39484589622E+03  0.58422436717E+03  0.90787622466E+02 0.  0.
         23    2    4    4    0    0  0.28921527066E+03  0.34076980349E+03 -0.14691220424E+04  0.15383607261E+04  0.92003349763E+02 0.  0.
          4    1    3    3  502    0  0.10501153431E+03 -0.16202507524E+03 -0.16446566499E+04  0.16559514013E+04  0.00000000000E+00 0. -1.
         -3    1    3    3    0  502 -0.10300546941E+02 -0.61959947293E+01 -0.34929967268E+02  0.36940414606E+02  0.00000000000E+00 0.  1.
         13    1    5    5    0    0 -0.35457582436E+03 -0.13939156770E+03 -0.32134028399E+03  0.49841107781E+03  0.00000000000E+00 0.  1.
        -13    1    5    5    0    0 -0.29350433661E+02 -0.33157165819E+02 -0.73505612234E+02  0.85813289362E+02  0.00000000000E+00 0. -1.
          2    1    6    6  503    0  0.20216696837E+02  0.75950957605E+02 -0.23433001463E+03  0.24715950022E+03  0.00000000000E+00 0. -1.
         -2    1    6    6    0  503  0.26899857382E+03  0.26481884588E+03 -0.12347920278E+04  0.12912012259E+04  0.00000000000E+00 0.  1.
<mgrwt>
<rscale>  0 0.14145972E+04</rscale>
<asrwt>0</asrwt>
<pdfrwt beam="1">  1        2 0.56607925E+00 0.14145972E+04</pdfrwt>
<pdfrwt beam="2">  1       -1 0.20917108E-01 0.14145972E+04</pdfrwt>
<totfact> 0.12953930E+01</totfact>
</mgrwt>
</event>
<event>
12    7  0.1546317E-007  0.2557878E+04  0.7818608E-02  0.8382651E-01
         -1   -1    0    0    0  501 -0.00000000000E+00  0.00000000000E+00  0.58357841329E+03  0.58357841329E+03  0.00000000000E+00 0.  1.
          2   -1    0    0  501    0  0.00000000000E+00 -0.00000000000E+00 -0.28028538346E+04  0.28028538346E+04  0.00000000000E+00 0. -1.
         24    2    1    2    0    0 -0.23077793813E+03 -0.60788260627E+03 -0.21687027653E+04  0.22654492633E+04  0.78796956984E+02 0.  0.
        254    2    1    2    0    0  0.23077793813E+03  0.60788260627E+03 -0.50572655973E+02  0.11209829846E+04  0.91173764784E+03 0.  0.
         23    2    4    4    0    0 -0.18220710344E+03  0.60481111344E+03  0.14564593501E+03  0.65481269103E+03  0.92579751941E+02 0.  0.
         23    2    4    4    0    0  0.41298504158E+03  0.30714928390E+01 -0.19621859099E+03  0.46617029357E+03  0.90812601130E+02 0.  0.
          2    1    3    3  502    0 -0.67840185219E+02 -0.96889864158E+02 -0.42116037773E+03  0.43745399790E+03  0.00000000000E+00 0. -1.
         -1    1    3    3    0  502 -0.16293775291E+03 -0.51099274212E+03 -0.17475423876E+04  0.18279952654E+04  0.00000000000E+00 0.  1.
         13    1    5    5    0    0 -0.52737730103E+02  0.87932669001E+02  0.47498064806E+02  0.11300216199E+03  0.00000000000E+00 0. -1.
        -13    1    5    5    0    0 -0.12946937334E+03  0.51687844443E+03  0.98147870207E+02  0.54181052904E+03  0.00000000000E+00 0.  1.
          1    1    6    6  503    0  0.41245567609E+02  0.27474730609E+02 -0.14265948435E+02  0.51571067026E+02  0.00000000000E+00 0. -1.
         -1    1    6    6    0  503  0.37173947397E+03 -0.24403237770E+02 -0.18195264255E+03  0.41459922654E+03  0.00000000000E+00 0.  1.
<mgrwt>
<rscale>  0 0.25578780E+04</rscale>
<asrwt>0</asrwt>
<pdfrwt beam="1">  1        2 0.43120829E+00 0.25578780E+04</pdfrwt>
<pdfrwt beam="2">  1       -1 0.89781293E-01 0.25578780E+04</pdfrwt>
<totfact> 0.28229645E+00</totfact>
</mgrwt>
</event>
<event>
12    7  0.1546317E-007  0.1108788E+04  0.7818608E-02  0.9196669E-01
         -1   -1    0    0    0  501 -0.00000000000E+00  0.00000000000E+00  0.20410931203E+03  0.20410931203E+03  0.00000000000E+00 0.  1.
          2   -1    0    0  501    0  0.00000000000E+00 -0.00000000000E+00 -0.15058241014E+04  0.15058241014E+04  0.00000000000E+00 0. -1.
         24    2    1    2    0    0  0.57729094358E+01 -0.71717577205E+02  0.19963235265E+02  0.10949079728E+03  0.80081000009E+02 0.  0.
        254    2    1    2    0    0 -0.57729094358E+01  0.71717577205E+02 -0.13216780247E+04  0.16004426162E+04  0.89967051159E+03 0.  0.
         23    2    4    4    0    0  0.16153967033E+03  0.69890617163E+02 -0.13873629228E+04  0.14012420771E+04  0.87884672419E+02 0.  0.
         23    2    4    4    0    0 -0.16731257977E+03  0.18269600412E+01  0.65684898118E+02  0.19920053908E+03  0.85845860692E+02 0.  0.
          2    1    3    3  502    0 -0.14124160922E+01  0.16992245831E+02 -0.35941571411E+01  0.17425535951E+02  0.00000000000E+00 0. -1.
         -1    1    3    3    0  502  0.71853255280E+01 -0.88709823036E+02  0.23557392406E+02  0.92065261326E+02  0.00000000000E+00 0.  1.
         13    1    5    5    0    0  0.62403719801E+02  0.71561573812E+02 -0.56484706969E+03  0.57277176539E+03  0.00000000000E+00 0.  1.
        -13    1    5    5    0    0  0.99135950534E+02 -0.16709566484E+01 -0.82251585310E+03  0.82847031171E+03  0.00000000000E+00 0. -1.
          4    1    6    6  503    0 -0.10285750533E+03 -0.32305994361E+01  0.83067984822E+02  0.13225125057E+03  0.00000000000E+00 0. -1.
         -4    1    6    6    0  503 -0.64455074439E+02  0.50575594773E+01 -0.17383086703E+02  0.66949288511E+02  0.00000000000E+00 0.  1.
<mgrwt>
<rscale>  0 0.11087880E+04</rscale>
<asrwt>0</asrwt>
<pdfrwt beam="1">  1        2 0.23166525E+00 0.11087880E+04</pdfrwt>
<pdfrwt beam="2">  1       -1 0.31401433E-01 0.11087880E+04</pdfrwt>
<totfact> 0.13401189E+02</totfact>
</mgrwt>
</event>
<event>
12    7  0.1546317E-007  0.1792665E+04  0.7818608E-02  0.8710210E-01
          2   -1    0    0  501    0  0.00000000000E+00  0.00000000000E+00  0.19590866594E+04  0.19590866594E+04  0.00000000000E+00 0. -1.
         -1   -1    0    0    0  501 -0.00000000000E+00 -0.00000000000E+00 -0.41009505041E+03  0.41009505041E+03  0.00000000000E+00 0.  1.
         24    2    1    2    0    0  0.56951929043E+03  0.25042095754E+03  0.89972955414E+03  0.10968229168E+04  0.80276784464E+02 0.  0.
        254    2    1    2    0    0 -0.56951929043E+03 -0.25042095754E+03  0.64926205488E+03  0.12723587930E+04  0.90016265426E+03 0.  0.
         23    2    4    4    0    0 -0.44666331728E+03 -0.40262945889E+03  0.21817921790E+02  0.60883064748E+03  0.92629020512E+02 0.  0.
         23    2    4    4    0    0 -0.12285597315E+03  0.15220850135E+03  0.62744413309E+03  0.66352814553E+03  0.91227417717E+02 0.  0.
          4    1    3    3  502    0  0.49689726304E+03  0.21729273319E+03  0.73145528558E+03  0.91057666163E+03  0.00000000000E+00 0. -1.
         -3    1    3    3    0  502  0.72622027393E+02  0.33128224348E+02  0.16827426857E+03  0.18624625519E+03  0.00000000000E+00 0.  1.
         13    1    5    5    0    0 -0.33434975929E+02 -0.43984507778E+02  0.27337235115E+02  0.61642996063E+02  0.00000000000E+00 0. -1.
        -13    1    5    5    0    0 -0.41322834135E+03 -0.35864495111E+03 -0.55193133255E+01  0.54718765142E+03  0.00000000000E+00 0.  1.
          4    1    6    6  503    0  0.73960620803E+01  0.40848584424E+02  0.17123625109E+03  0.17619637417E+03  0.00000000000E+00 0. -1.
         -4    1    6    6    0  503 -0.13025203523E+03  0.11135991693E+03  0.45620788200E+03  0.48733177137E+03  0.00000000000E+00 0.  1.
<mgrwt>
<rscale>  0 0.17926648E+04</rscale>
<asrwt>0</asrwt>
<pdfrwt beam="1">  1        2 0.30139794E+00 0.17926648E+04</pdfrwt>
<pdfrwt beam="2">  1       -1 0.63091547E-01 0.17926648E+04</pdfrwt>
<totfact> 0.19299491E+01</totfact>
</mgrwt>
</event>
<event>
12    7  0.1546317E-007  0.1441256E+04  0.7818608E-02  0.8924485E-01
         -1   -1    0    0    0  501 -0.00000000000E+00  0.00000000000E+00  0.17380141231E+03  0.17380141231E+03  0.00000000000E+00 0.  1.
          2   -1    0    0  501    0  0.00000000000E+00 -0.00000000000E+00 -0.29879197769E+04  0.29879197769E+04  0.00000000000E+00 0. -1.
         24    2    1    2    0    0  0.11776545444E+03 -0.41116918096E+03 -0.10081313536E+04  0.10968907797E+04  0.62544054969E+02 0.  0.
        254    2    1    2    0    0 -0.11776545444E+03  0.41116918096E+03 -0.18059870110E+04  0.20648304095E+04  0.90498991078E+03 0.  0.
         23    2    4    4    0    0  0.12212720067E+03  0.31307405416E+03 -0.13902087022E+03  0.37525723142E+03  0.92524433775E+02 0.  0.
         23    2    4    4    0    0 -0.23989265511E+03  0.98095126804E+02 -0.16669661408E+04  0.16895731781E+04  0.93328826456E+02 0.  0.
          2    1    3    3  502    0  0.80717799307E+02 -0.27724299855E+03 -0.75128705147E+03  0.80486724190E+03  0.00000000000E+00 0. -1.
         -1    1    3    3    0  502  0.37047655130E+02 -0.13392618241E+03 -0.25684430213E+03  0.29202353779E+03  0.00000000000E+00 0.  1.
         13    1    5    5    0    0  0.44852159709E+02  0.12823716069E+03 -0.10577653728E+03  0.17217770312E+03  0.00000000000E+00 0. -1.
        -13    1    5    5    0    0  0.77275040961E+02  0.18483689346E+03 -0.33244332941E+02  0.20307952830E+03  0.00000000000E+00 0.  1.
          1    1    6    6  503    0 -0.11944334421E+03  0.12155769599E+02 -0.55731496508E+03  0.57010038196E+03  0.00000000000E+00 0. -1.
         -1    1    6    6    0  503 -0.12044931090E+03  0.85939357205E+02 -0.11096511757E+04  0.11194727961E+04  0.00000000000E+00 0.  1.
<mgrwt>
<rscale>  0 0.14412559E+04</rscale>
<asrwt>0</asrwt>
<pdfrwt beam="1">  1        2 0.45967995E+00 0.14412559E+04</pdfrwt>
<pdfrwt beam="2">  1       -1 0.26738680E-01 0.14412559E+04</pdfrwt>
<totfact> 0.24623887E+01</totfact>
</mgrwt>
</event>
<event>
12    7  0.1546317E-007  0.1880130E+04  0.7818608E-02  0.8664811E-01
          2   -1    0    0  501    0  0.00000000000E+00  0.00000000000E+00  0.10218515878E+04  0.10218515878E+04  0.00000000000E+00 0. -1.
         -1   -1    0    0    0  501 -0.00000000000E+00 -0.00000000000E+00 -0.86482449504E+03  0.86482449504E+03  0.00000000000E+00 0.  1.
         24    2    1    2    0    0  0.54636280063E+03 -0.36442016793E+03  0.32840568751E+03  0.73866979569E+03  0.80426381091E+02 0.  0.
        254    2    1    2    0    0 -0.54636280063E+03  0.36442016793E+03 -0.17137859471E+03  0.11480062872E+04  0.92586902096E+03 0.  0.
         23    2    4    4    0    0  0.19943158286E+03  0.19475909490E+03  0.12803509445E+03  0.32163503302E+03  0.96705986198E+02 0.  0.
         23    2    4    4    0    0 -0.74579438349E+03  0.16966107303E+03 -0.29941368917E+03  0.82637125416E+03  0.90811619785E+02 0.  0.
          2    1    3    3  502    0  0.44924264153E+03 -0.26155969849E+03  0.26786337540E+03  0.58479330941E+03  0.00000000000E+00 0. -1.
         -3    1    3    3    0  502  0.97120159094E+02 -0.10286046944E+03  0.60542312113E+02  0.15387648629E+03  0.00000000000E+00 0.  1.
         13    1    5    5    0    0  0.80140917523E+02  0.20168587482E+02  0.24495133951E+02  0.86193678247E+02  0.00000000000E+00 0.  1.
        -13    1    5    5    0    0  0.11929066534E+03  0.17459050742E+03  0.10353996050E+03  0.23544135478E+03  0.00000000000E+00 0. -1.
          1    1    6    6  503    0 -0.48637224166E+03  0.70479138385E+02 -0.17063060159E+03  0.52023078399E+03  0.00000000000E+00 0. -1.
         -1    1    6    6    0  503 -0.25942214183E+03  0.99181934648E+02 -0.12878308757E+03  0.30614047017E+03  0.00000000000E+00 0.  1.
<mgrwt>
<rscale>  0 0.18801301E+04</rscale>
<asrwt>0</asrwt>
<pdfrwt beam="1">  1        2 0.15720794E+00 0.18801301E+04</pdfrwt>
<pdfrwt beam="2">  1       -1 0.13304992E+00 0.18801301E+04</pdfrwt>
<totfact> 0.12479705E+01</totfact>
</mgrwt>
</event>
<event>
12    7  0.1546317E-007  0.2320133E+04  0.7818608E-02  0.8470025E-01
         -1   -1    0    0    0  501 -0.00000000000E+00  0.00000000000E+00  0.58857557486E+03  0.58857557486E+03  0.00000000000E+00 0.  1.
          2   -1    0    0  501    0  0.00000000000E+00 -0.00000000000E+00 -0.22864595104E+04  0.22864595104E+04  0.00000000000E+00 0. -1.
         24    2    1    2    0    0 -0.55543116664E+03  0.39139337970E+03  0.17493085721E+03  0.70553942888E+03  0.74111553424E+02 0.  0.
        254    2    1    2    0    0  0.55543116664E+03 -0.39139337970E+03 -0.18728147927E+04  0.21694956564E+04  0.85882687229E+03 0.  0.
         23    2    4    4    0    0  0.54988458136E+02 -0.11819972322E+03 -0.14373738451E+04  0.14461165548E+04  0.90634510476E+02 0.  0.
         23    2    4    4    0    0  0.50044270851E+03 -0.27319365648E+03 -0.43544094762E+03  0.72337910153E+03  0.92686715452E+02 0.  0.
          4    1    3    3  502    0 -0.12430744239E+03  0.66348731285E+02  0.11285079346E+02  0.14135716251E+03  0.00000000000E+00 0. -1.
         -3    1    3    3    0  502 -0.43112372425E+03  0.32504464841E+03  0.16364577786E+03  0.56418226637E+03  0.00000000000E+00 0.  1.
         13    1    5    5    0    0  0.39184235854E+02 -0.44147546675E+02 -0.10348833644E+04  0.10365654770E+04  0.00000000000E+00 0. -1.
        -13    1    5    5    0    0  0.15804222282E+02 -0.74052176545E+02 -0.40249048073E+03  0.40955107785E+03  0.00000000000E+00 0.  1.
          2    1    6    6  503    0  0.47649076419E+03 -0.27915519985E+03 -0.40898631357E+03  0.68719784535E+03  0.00000000000E+00 0. -1.
         -2    1    6    6    0  503  0.23951944312E+02  0.59615433690E+01 -0.26454634059E+02  0.36181256181E+02  0.00000000000E+00 0.  1.
<mgrwt>
<rscale>  0 0.23201329E+04</rscale>
<asrwt>0</asrwt>
<pdfrwt beam="1">  1        2 0.35176300E+00 0.23201329E+04</pdfrwt>
<pdfrwt beam="2">  1       -1 0.90550088E-01 0.23201329E+04</pdfrwt>
<totfact> 0.56630110E+00</totfact>
</mgrwt>
</event>
<event>
12    7  0.1546317E-007  0.1136347E+04  0.7818608E-02  0.9170472E-01
         -3   -1    0    0    0  501 -0.00000000000E+00  0.00000000000E+00  0.27569533453E+04  0.27569533453E+04  0.00000000000E+00 0.  1.
          4   -1    0    0  501    0  0.00000000000E+00 -0.00000000000E+00 -0.11709353142E+03  0.11709353142E+03  0.00000000000E+00 0. -1.
         24    2    1    2    0    0  0.65133498517E+02 -0.14700249192E+03  0.20556736119E+03  0.27293498395E+03  0.79896559499E+02 0.  0.
        254    2    1    2    0    0 -0.65133498517E+02  0.14700249192E+03  0.24342924527E+04  0.26011118928E+04  0.90230329060E+03 0.  0.
         23    2    4    4    0    0  0.16769432492E+03 -0.98947741375E+02  0.93240060740E+02  0.23393568657E+03  0.90111899267E+02 0.  0.
         23    2    4    4    0    0 -0.23282782344E+03  0.24595023329E+03  0.23410523919E+04  0.23671762062E+04  0.91085546143E+02 0.  0.
          4    1    3    3  502    0  0.29954847112E+02 -0.95205796354E+02  0.65146161944E+02  0.11918665588E+03  0.00000000000E+00 0. -1.
         -3    1    3    3    0  502  0.35178651405E+02 -0.51796695562E+02  0.14042119925E+03  0.15374832807E+03  0.00000000000E+00 0.  1.
         13    1    5    5    0    0  0.74118782580E+02 -0.72801790269E+02  0.88805016928E+02  0.13667489027E+03  0.00000000000E+00 0. -1.
        -13    1    5    5    0    0  0.93575542345E+02 -0.26145951106E+02  0.44350438114E+01  0.97260796305E+02  0.00000000000E+00 0.  1.
          3    1    6    6  503    0 -0.24125174681E+03  0.24064314418E+03  0.22757010658E+04  0.23010708092E+04  0.00000000000E+00 0. -1.
         -3    1    6    6    0  503  0.84239233661E+01  0.53070891120E+01  0.65351326134E+02  0.66105396960E+02  0.00000000000E+00 0.  1.
<mgrwt>
<rscale>  0 0.11363475E+04</rscale>
<asrwt>0</asrwt>
<pdfrwt beam="1">  1        4 0.18014391E-01 0.11363475E+04</pdfrwt>
<pdfrwt beam="2">  1       -3 0.42414662E+00 0.11363475E+04</pdfrwt>
<totfact> 0.50737081E-01</totfact>
</mgrwt>
</event>
<event>
12    7  0.1546317E-007  0.1439620E+04  0.7818608E-02  0.8925628E-01
          2   -1    0    0  501    0  0.00000000000E+00  0.00000000000E+00  0.29118872452E+04  0.29118872452E+04  0.00000000000E+00 0. -1.
         -1   -1    0    0    0  501 -0.00000000000E+00 -0.00000000000E+00 -0.17793500862E+03  0.17793500862E+03  0.00000000000E+00 0.  1.
         24    2    1    2    0    0 -0.72998527924E+02  0.43657474052E+03  0.89051025044E+03  0.99757167862E+03  0.78831838135E+02 0.  0.
        254    2    1    2    0    0  0.72998527924E+02 -0.43657474052E+03  0.18434419861E+04  0.20922505752E+04  0.88504679199E+03 0.  0.
         23    2    4    4    0    0 -0.34213418889E+02  0.19629830940E+03  0.10221547457E+04  0.10455842564E+04  0.93501490556E+02 0.  0.
         23    2    4    4    0    0  0.10721194681E+03 -0.63287304993E+03  0.82128724042E+03  0.10466663188E+04  0.94736227318E+02 0.  0.
          4    1    3    3  502    0 -0.42287188932E+02  0.34420251212E+03  0.75380106616E+03  0.82974672222E+03  0.00000000000E+00 0. -1.
         -3    1    3    3    0  502 -0.30711338992E+02  0.92372228405E+02  0.13670918429E+03  0.16782495640E+03  0.00000000000E+00 0.  1.
         13    1    5    5    0    0  0.23384756118E+02  0.10078014826E+03  0.38085966951E+03  0.39466133958E+03  0.00000000000E+00 0.  1.
        -13    1    5    5    0    0 -0.57598175007E+02  0.95518161141E+02  0.64129507617E+03  0.65092291678E+03  0.00000000000E+00 0. -1.
          3    1    6    6  503    0  0.10635202158E+03 -0.59381360307E+03  0.80065586776E+03  0.10024844968E+04  0.00000000000E+00 0. -1.
         -3    1    6    6    0  503  0.85992523425E+00 -0.39059446857E+02  0.20631372669E+02  0.44181822035E+02  0.00000000000E+00 0.  1.
<mgrwt>
<rscale>  0 0.14396203E+04</rscale>
<asrwt>0</asrwt>
<pdfrwt beam="1">  1        2 0.44798262E+00 0.14396203E+04</pdfrwt>
<pdfrwt beam="2">  1       -1 0.27374619E-01 0.14396203E+04</pdfrwt>
<totfact> 0.26337657E+01</totfact>
</mgrwt>
</event>
<event>
12    7  0.1546317E-007  0.1255155E+04  0.7818608E-02  0.9065903E-01
          2   -1    0    0  501    0  0.00000000000E+00  0.00000000000E+00  0.26443973218E+04  0.26443973218E+04  0.00000000000E+00 0. -1.
         -1   -1    0    0    0  501 -0.00000000000E+00 -0.00000000000E+00 -0.14893893277E+03  0.14893893277E+03  0.00000000000E+00 0.  1.
         24    2    1    2    0    0  0.19198587684E+03  0.22833917711E+03  0.62005923829E+03  0.69262398240E+03  0.79102245775E+02 0.  0.
        254    2    1    2    0    0 -0.19198587684E+03 -0.22833917711E+03  0.18753991508E+04  0.21007122722E+04  0.89826094160E+03 0.  0.
         23    2    4    4    0    0  0.18220722977E+03 -0.19800567414E+02  0.15267369052E+04  0.15403997542E+04  0.91182717173E+02 0.  0.
         23    2    4    4    0    0 -0.37419310662E+03 -0.20853860970E+03  0.34866224559E+03  0.56031251806E+03  0.94212120317E+02 0.  0.
          2    1    3    3  502    0  0.52280772867E+00  0.16716455615E+02  0.80739081559E+02  0.82453092769E+02  0.00000000000E+00 0. -1.
         -1    1    3    3    0  502  0.19146306912E+03  0.21162272149E+03  0.53932015673E+03  0.61017088963E+03  0.00000000000E+00 0.  1.
         13    1    5    5    0    0  0.65267115592E+02 -0.35245548641E+02  0.86980442823E+03  0.87296150456E+03  0.00000000000E+00 0.  1.
        -13    1    5    5    0    0  0.11694011418E+03  0.15444981227E+02  0.65693247696E+03  0.66743824961E+03  0.00000000000E+00 0. -1.
          2    1    6    6  503    0 -0.92744865970E+02 -0.35120713685E+02  0.13180329241E+03  0.16494599899E+03  0.00000000000E+00 0. -1.
         -2    1    6    6    0  503 -0.28144824065E+03 -0.17341789601E+03  0.21685895318E+03  0.39536651906E+03  0.00000000000E+00 0.  1.
<mgrwt>
<rscale>  0 0.12551553E+04</rscale>
<asrwt>0</asrwt>
<pdfrwt beam="1">  1        2 0.40683032E+00 0.12551553E+04</pdfrwt>
<pdfrwt beam="2">  1       -1 0.22913684E-01 0.12551553E+04</pdfrwt>
<totfact> 0.52538752E+01</totfact>
</mgrwt>
</event>
<event>
12    7  0.1546317E-007  0.1244072E+04  0.7818608E-02  0.9075131E-01
          2   -1    0    0  501    0  0.00000000000E+00  0.00000000000E+00  0.73607007124E+03  0.73607007124E+03  0.00000000000E+00 0. -1.
         -1   -1    0    0    0  501 -0.00000000000E+00 -0.00000000000E+00 -0.52566859551E+03  0.52566859551E+03  0.00000000000E+00 0.  1.
         24    2    1    2    0    0 -0.18581232739E+03  0.15396500389E+02 -0.17627210556E+03  0.26865522863E+03  0.79627278222E+02 0.  0.
        254    2    1    2    0    0  0.18581232739E+03 -0.15396500389E+02  0.38667358128E+03  0.99308343813E+03  0.89550822631E+03 0.  0.
         23    2    4    4    0    0  0.14879327613E+03 -0.38104536390E+03  0.44329048372E+03  0.61030103202E+03  0.92875660714E+02 0.  0.
         23    2    4    4    0    0  0.37019051261E+02  0.36564886351E+03 -0.56616902432E+02  0.38278240611E+03  0.90815170774E+02 0.  0.
          4    1    3    3  502    0 -0.86232835075E+02 -0.25308669620E+02 -0.11101539904E+03  0.14283224225E+03  0.00000000000E+00 0. -1.
         -3    1    3    3    0  502 -0.99579492314E+02  0.40705170009E+02 -0.65256706523E+02  0.12582298638E+03  0.00000000000E+00 0.  1.
         13    1    5    5    0    0  0.74733776506E+02 -0.26634610227E+03  0.34427386241E+03  0.44164451302E+03  0.00000000000E+00 0. -1.
        -13    1    5    5    0    0  0.74059499622E+02 -0.11469926164E+03  0.99016621306E+02  0.16865651900E+03  0.00000000000E+00 0.  1.
          2    1    6    6  503    0  0.54171597724E+02  0.11652448806E+03 -0.27125153565E+02  0.13133275400E+03  0.00000000000E+00 0. -1.
         -2    1    6    6    0  503 -0.17152546463E+02  0.24912437545E+03 -0.29491748867E+02  0.25144965211E+03  0.00000000000E+00 0.  1.
<mgrwt>
<rscale>  0 0.12440722E+04</rscale>
<asrwt>0</asrwt>
<pdfrwt beam="1">  1        2 0.11324155E+00 0.12440722E+04</pdfrwt>
<pdfrwt beam="2">  1       -1 0.80872091E-01 0.12440722E+04</pdfrwt>
<totfact> 0.65830808E+01</totfact>
</mgrwt>
</event>
<event>
12    7  0.1546317E-007  0.1849207E+04  0.7818608E-02  0.8680561E-01
          2   -1    0    0  501    0  0.00000000000E+00  0.00000000000E+00  0.98176476150E+03  0.98176476150E+03  0.00000000000E+00 0. -1.
         -1   -1    0    0    0  501 -0.00000000000E+00 -0.00000000000E+00 -0.87077029651E+03  0.87077029651E+03  0.00000000000E+00 0.  1.
         24    2    1    2    0    0  0.38508247922E+03  0.38319521315E+03  0.49313965683E+03  0.73813573620E+03  0.80811860071E+02 0.  0.
        254    2    1    2    0    0 -0.38508247922E+03 -0.38319521315E+03 -0.38214519184E+03  0.11143993218E+04  0.89483172363E+03 0.  0.
         23    2    4    4    0    0 -0.10692441949E+03  0.94853323651E+02  0.22894880361E+03  0.28482957360E+03  0.90996411109E+02 0.  0.
         23    2    4    4    0    0 -0.27815805973E+03 -0.47804853680E+03 -0.61109399545E+03  0.82956974820E+03  0.94062671264E+02 0.  0.
          4    1    3    3  502    0  0.31154221721E+03  0.29343139985E+03  0.34349731438E+03  0.54877221551E+03  0.00000000000E+00 0. -1.
         -3    1    3    3    0  502  0.73540262008E+02  0.89763813295E+02  0.14964234246E+03  0.18936352069E+03  0.00000000000E+00 0.  1.
         13    1    5    5    0    0 -0.10373964538E+03  0.39564760619E+02  0.17673347478E+03  0.20871512982E+03  0.00000000000E+00 0. -1.
        -13    1    5    5    0    0 -0.31847741077E+01  0.55288563031E+02  0.52215328824E+02  0.76114443783E+02  0.00000000000E+00 0.  1.
          2    1    6    6  503    0 -0.22765195716E+03 -0.35349122499E+03 -0.51237283363E+03  0.66280267078E+03  0.00000000000E+00 0. -1.
         -2    1    6    6    0  503 -0.50506102570E+02 -0.12455731181E+03 -0.98721161817E+02  0.16676707742E+03  0.00000000000E+00 0.  1.
<mgrwt>
<rscale>  0 0.18492070E+04</rscale>
<asrwt>0</asrwt>
<pdfrwt beam="1">  1        2 0.15104073E+00 0.18492070E+04</pdfrwt>
<pdfrwt beam="2">  1       -1 0.13396466E+00 0.18492070E+04</pdfrwt>
<totfact> 0.13046825E+01</totfact>
</mgrwt>
</event>
<event>
12    7  0.2489362E-007  0.2230403E+04  0.7818608E-02  0.8505879E-01
         -1   -1    0    0    0  501 -0.00000000000E+00  0.00000000000E+00  0.83157402478E+03  0.83157402478E+03  0.00000000000E+00 0.  1.
          2   -1    0    0  501    0  0.00000000000E+00 -0.00000000000E+00 -0.14955672612E+04  0.14955672612E+04  0.00000000000E+00 0. -1.
         24    2    1    2    0    0  0.23540716781E+02  0.59484560260E+03 -0.10623696217E+04  0.12202954989E+04  0.78079672056E+02 0.  0.
        254    2    1    2    0    0 -0.23540716781E+02 -0.59484560260E+03  0.39837638527E+03  0.11068457871E+04  0.84380589937E+03 0.  0.
         23    2    4    4    0    0  0.37784667609E+03 -0.31448836703E+03  0.59806405459E+02  0.50414451256E+03  0.94413133511E+02 0.  0.
         23    2    4    4    0    0 -0.40138739288E+03 -0.28035723557E+03  0.33856997981E+03  0.60270127454E+03  0.94377838545E+02 0.  0.
          2    1    3    3  502    0  0.44192710790E+02  0.47611554583E+03 -0.80945512990E+03  0.94013648796E+03  0.00000000000E+00 0. -1.
         -1    1    3    3    0  502 -0.20651994009E+02  0.11873005677E+03 -0.25291449177E+03  0.28015901089E+03  0.00000000000E+00 0.  1.
         13    1    5    5    0    0  0.32913340476E+03 -0.30915825830E+03  0.52637000894E+02  0.45461883008E+03  0.00000000000E+00 0. -1.
        -13    1    5    5    0    0  0.48713271338E+02 -0.53301087341E+01  0.71694045644E+01  0.49525682483E+02  0.00000000000E+00 0.  1.
          1    1    6    6  503    0 -0.33686918066E+03 -0.22042103435E+03  0.31602535848E+03  0.51179908604E+03  0.00000000000E+00 0. -1.
         -1    1    6    6    0  503 -0.64518212214E+02 -0.59936201217E+02  0.22544621324E+02  0.90902188501E+02  0.00000000000E+00 0.  1.
<mgrwt>
<rscale>  0 0.22304034E+04</rscale>
<asrwt>0</asrwt>
<pdfrwt beam="1">  1        2 0.23008727E+00 0.22304034E+04</pdfrwt>
<pdfrwt beam="2">  1       -1 0.12793447E+00 0.22304034E+04</pdfrwt>
<totfact> 0.70028426E+00</totfact>
</mgrwt>
</event>
<event>
12    7  0.1546317E-007  0.1150178E+04  0.7818608E-02  0.9157620E-01
          2   -1    0    0  501    0  0.00000000000E+00  0.00000000000E+00  0.78003843580E+03  0.78003843580E+03  0.00000000000E+00 0. -1.
         -1   -1    0    0    0  501 -0.00000000000E+00 -0.00000000000E+00 -0.42398825022E+03  0.42398825022E+03  0.00000000000E+00 0.  1.
         24    2    1    2    0    0 -0.53946365451E+02  0.19402910415E+03  0.16346063164E+03  0.27165587174E+03  0.80746708629E+02 0.  0.
        254    2    1    2    0    0  0.53946365451E+02 -0.19402910415E+03  0.19258955394E+03  0.93237081428E+03  0.88975676195E+03 0.  0.
         23    2    4    4    0    0  0.25404727872E+02  0.34479310717E+03  0.13728169191E+03  0.38283765895E+03  0.90502614460E+02 0.  0.
         23    2    4    4    0    0  0.28541637579E+02 -0.53882221132E+03  0.55307862030E+02  0.54953315534E+03  0.88225442632E+02 0.  0.
          4    1    3    3  502    0 -0.96929977447E+01  0.72742597053E+02  0.10929413976E+03  0.13164592139E+03  0.00000000000E+00 0. -1.
         -3    1    3    3    0  502 -0.44253367706E+02  0.12128650709E+03  0.54166491880E+02  0.14000995036E+03  0.00000000000E+00 0.  1.
         13    1    5    5    0    0 -0.19615919577E+02  0.21101615350E+03  0.53046610170E+02  0.21846405697E+03  0.00000000000E+00 0. -1.
        -13    1    5    5    0    0  0.45020647449E+02  0.13377695367E+03  0.84235081741E+02  0.16437360198E+03  0.00000000000E+00 0.  1.
          3    1    6    6  503    0  0.46231386144E+02 -0.51118640938E+03  0.45496782047E+02  0.51528520586E+03  0.00000000000E+00 0. -1.
         -3    1    6    6    0  503 -0.17689748565E+02 -0.27635801933E+02  0.98110799829E+01  0.34247949475E+02  0.00000000000E+00 0.  1.
<mgrwt>
<rscale>  0 0.11501776E+04</rscale>
<asrwt>0</asrwt>
<pdfrwt beam="1">  1        2 0.12000591E+00 0.11501776E+04</pdfrwt>
<pdfrwt beam="2">  1       -1 0.65228961E-01 0.11501776E+04</pdfrwt>
<totfact> 0.95936183E+01</totfact>
</mgrwt>
</event>
<event>
12    7  0.1546317E-007  0.1638054E+04  0.7818608E-02  0.8797505E-01
          2   -1    0    0  501    0  0.00000000000E+00  0.00000000000E+00  0.32301808451E+04  0.32301808451E+04  0.00000000000E+00 0. -1.
         -1   -1    0    0    0  501 -0.00000000000E+00 -0.00000000000E+00 -0.20766799549E+03  0.20766799549E+03  0.00000000000E+00 0.  1.
         24    2    1    2    0    0 -0.30164635122E+03  0.46239400923E+03  0.76711906253E+03  0.94958444228E+03  0.91870647908E+02 0.  0.
        254    2    1    2    0    0  0.30164635122E+03 -0.46239400923E+03  0.22553937871E+04  0.24882643983E+04  0.89434883579E+03 0.  0.
         23    2    4    4    0    0 -0.15021902304E+03  0.17588032874E+03  0.73605591749E+03  0.77704043873E+03  0.92270714829E+02 0.  0.
         23    2    4    4    0    0  0.45186537426E+03 -0.63827433797E+03  0.15193378696E+04  0.17112239596E+04  0.91232838907E+02 0.  0.
          4    1    3    3  502    0 -0.21789329246E+03  0.34703951264E+03  0.63168294412E+03  0.75295235714E+03  0.00000000000E+00 0. -1.
         -3    1    3    3    0  502 -0.83753058767E+02  0.11535449660E+03  0.13543611841E+03  0.19663208514E+03  0.00000000000E+00 0.  1.
         13    1    5    5    0    0 -0.86616056852E+02  0.35576445251E+02  0.31828385428E+03  0.33177196484E+03  0.00000000000E+00 0.  1.
        -13    1    5    5    0    0 -0.63602966189E+02  0.14030388349E+03  0.41777206322E+03  0.44526847388E+03  0.00000000000E+00 0. -1.
          4    1    6    6  503    0  0.40574173194E+03 -0.59709506310E+03  0.13490897780E+04  0.15300954534E+04  0.00000000000E+00 0. -1.
         -4    1    6    6    0  503  0.46123642325E+02 -0.41179274873E+02  0.17024809159E+03  0.18112850618E+03  0.00000000000E+00 0.  1.
<mgrwt>
<rscale>  0 0.16380539E+04</rscale>
<asrwt>0</asrwt>
<pdfrwt beam="1">  1        2 0.49695086E+00 0.16380539E+04</pdfrwt>
<pdfrwt beam="2">  1       -1 0.31948925E-01 0.16380539E+04</pdfrwt>
<totfact> 0.12413590E+01</totfact>
</mgrwt>
</event>
<event>
12    7  0.1546317E-007  0.1608643E+04  0.7818608E-02  0.8815256E-01
          2   -1    0    0  501    0  0.00000000000E+00  0.00000000000E+00  0.10234142589E+04  0.10234142589E+04  0.00000000000E+00 0. -1.
         -1   -1    0    0    0  501 -0.00000000000E+00 -0.00000000000E+00 -0.63213232090E+03  0.63213232090E+03  0.00000000000E+00 0.  1.
         24    2    1    2    0    0 -0.14994086571E+03 -0.20767513765E+03 -0.36251148780E+03  0.45093037414E+03  0.79450598041E+02 0.  0.
        254    2    1    2    0    0  0.14994086571E+03  0.20767513765E+03  0.75379342576E+03  0.12046162056E+04  0.90403785769E+03 0.  0.
         23    2    4    4    0    0  0.12726548400E+02  0.32929805801E+03 -0.75709883747E+02  0.35025643947E+03  0.91369638565E+02 0.  0.
         23    2    4    4    0    0  0.13721431731E+03 -0.12162292036E+03  0.82950330951E+03  0.85435976616E+03  0.90746712940E+02 0.  0.
          4    1    3    3  502    0  0.84403334557E+01 -0.11192582486E+02 -0.92950491855E+01  0.16819960491E+02  0.00000000000E+00 0. -1.
         -3    1    3    3    0  502 -0.15838119916E+03 -0.19648255517E+03 -0.35321643861E+03  0.43411041365E+03  0.00000000000E+00 0.  1.
         13    1    5    5    0    0  0.26204067732E+02  0.26373907453E+02  0.20035361764E+01  0.37232382643E+02  0.00000000000E+00 0.  1.
        -13    1    5    5    0    0 -0.13477519332E+02  0.30292415056E+03 -0.77713419924E+02  0.31302405683E+03  0.00000000000E+00 0. -1.
          1    1    6    6  503    0  0.15042409545E+03 -0.11699758973E+03  0.77578938097E+03  0.79885230683E+03  0.00000000000E+00 0. -1.
         -1    1    6    6    0  503 -0.13209778148E+02 -0.46253306243E+01  0.53713928541E+02  0.55507459331E+02  0.00000000000E+00 0.  1.
<mgrwt>
<rscale>  0 0.16086432E+04</rscale>
<asrwt>0</asrwt>
<pdfrwt beam="1">  1        2 0.15744835E+00 0.16086432E+04</pdfrwt>
<pdfrwt beam="2">  1       -1 0.97251126E-01 0.16086432E+04</pdfrwt>
<totfact> 0.27024312E+01</totfact>
</mgrwt>
</event>
<event>
12    7  0.1546317E-007  0.1601102E+04  0.7818608E-02  0.8819872E-01
          2   -1    0    0  501    0  0.00000000000E+00  0.00000000000E+00  0.85744865609E+03  0.85744865609E+03  0.00000000000E+00 0. -1.
         -1   -1    0    0    0  501 -0.00000000000E+00 -0.00000000000E+00 -0.74742849978E+03  0.74742849978E+03  0.00000000000E+00 0.  1.
         24    2    1    2    0    0  0.32749033509E+03 -0.36934539072E+03  0.26009009576E+03  0.56277314203E+03  0.73490232327E+02 0.  0.
        254    2    1    2    0    0 -0.32749033509E+03  0.36934539072E+03 -0.15006993945E+03  0.10421040138E+04  0.90542468030E+03 0.  0.
         23    2    4    4    0    0  0.12792758818E+03  0.11016091438E+03  0.29386422053E+03  0.34939564983E+03  0.84972025609E+02 0.  0.
         23    2    4    4    0    0 -0.45541792327E+03  0.25918447635E+03 -0.44393415999E+03  0.69270836401E+03  0.90472435260E+02 0.  0.
          4    1    3    3  502    0  0.26853231242E+03 -0.33869464920E+03  0.21776315736E+03  0.48398807931E+03  0.00000000000E+00 0. -1.
         -3    1    3    3    0  502  0.58958022669E+02 -0.30650741527E+02  0.42326938404E+02  0.78785062720E+02  0.00000000000E+00 0.  1.
         13    1    5    5    0    0  0.44908191803E+01 -0.13311868033E+02  0.28048589043E+02  0.31370314546E+02  0.00000000000E+00 0.  1.
        -13    1    5    5    0    0  0.12343676900E+03  0.12347278241E+03  0.26581563149E+03  0.31802533528E+03  0.00000000000E+00 0. -1.
          3    1    6    6  503    0 -0.29887614812E+03  0.12133937469E+03 -0.25331643727E+03  0.41014559995E+03  0.00000000000E+00 0. -1.
         -3    1    6    6    0  503 -0.15654177516E+03  0.13784510165E+03 -0.19061772271E+03  0.28256276406E+03  0.00000000000E+00 0.  1.
<mgrwt>
<rscale>  0 0.16011016E+04</rscale>
<asrwt>0</asrwt>
<pdfrwt beam="1">  1        2 0.13191518E+00 0.16011016E+04</pdfrwt>
<pdfrwt beam="2">  1       -1 0.11498900E+00 0.16011016E+04</pdfrwt>
<totfact> 0.23571715E+01</totfact>
</mgrwt>
</event>
<event>
12    7  0.1546317E-007  0.1769137E+04  0.7818608E-02  0.8722886E-01
          2   -1    0    0  501    0  0.00000000000E+00  0.00000000000E+00  0.32508549383E+04  0.32508549383E+04  0.00000000000E+00 0. -1.
         -1   -1    0    0    0  501 -0.00000000000E+00 -0.00000000000E+00 -0.24069416174E+03  0.24069416174E+03  0.00000000000E+00 0.  1.
         24    2    1    2    0    0  0.46187826586E+03  0.43457975778E+03  0.13134362783E+04  0.14607134201E+04  0.79860755413E+02 0.  0.
        254    2    1    2    0    0 -0.46187826586E+03 -0.43457975778E+03  0.16967244983E+04  0.20308356799E+04  0.91827470698E+03 0.  0.
         23    2    4    4    0    0 -0.26273702994E+03 -0.53527088129E+03  0.16832201888E+04  0.17884211187E+04  0.98357665265E+02 0.  0.
         23    2    4    4    0    0 -0.19914123592E+03  0.10069112351E+03  0.13504309438E+02  0.24241456126E+03  0.93736433361E+02 0.  0.
          4    1    3    3  502    0  0.10315789904E+03  0.12914638955E+03  0.28422149313E+03  0.32878898890E+03  0.00000000000E+00 0. -1.
         -3    1    3    3    0  502  0.35872036682E+03  0.30543336823E+03  0.10292147851E+04  0.11319244312E+04  0.00000000000E+00 0.  1.
         13    1    5    5    0    0 -0.11927127734E+03 -0.15223636771E+03  0.60879334650E+03  0.63877295497E+03  0.00000000000E+00 0. -1.
        -13    1    5    5    0    0 -0.14346575260E+03 -0.38303451358E+03  0.10744268423E+04  0.11496481637E+04  0.00000000000E+00 0.  1.
          1    1    6    6  503    0 -0.33020685898E+02 -0.14799749893E+02 -0.12815200365E+02  0.38387858165E+02  0.00000000000E+00 0. -1.
         -1    1    6    6    0  503 -0.16612055002E+03  0.11549087341E+03  0.26319509803E+02  0.20402670310E+03  0.00000000000E+00 0.  1.
<mgrwt>
<rscale>  0 0.17691374E+04</rscale>
<asrwt>0</asrwt>
<pdfrwt beam="1">  1        2 0.50013150E+00 0.17691374E+04</pdfrwt>
<pdfrwt beam="2">  1       -1 0.37029873E-01 0.17691374E+04</pdfrwt>
<totfact> 0.91259153E+00</totfact>
</mgrwt>
</event>
<event>
12    7  0.1546317E-007  0.1240425E+04  0.7818608E-02  0.9078190E-01
         -1   -1    0    0    0  501 -0.00000000000E+00  0.00000000000E+00  0.12706536484E+03  0.12706536484E+03  0.00000000000E+00 0.  1.
          2   -1    0    0  501    0  0.00000000000E+00 -0.00000000000E+00 -0.30272888769E+04  0.30272888769E+04  0.00000000000E+00 0. -1.
         24    2    1    2    0    0 -0.11621790963E+03 -0.21760454991E+03 -0.37623936016E+03  0.45686928364E+03  0.79467877398E+02 0.  0.
        254    2    1    2    0    0  0.11621790963E+03  0.21760454991E+03 -0.25239841519E+04  0.26974849581E+04  0.91927730172E+03 0.  0.
         23    2    4    4    0    0 -0.20632491331E+03 -0.27315334069E+03 -0.10576758997E+04  0.11155155475E+04  0.92270854132E+02 0.  0.
         23    2    4    4    0    0  0.32254282293E+03  0.49075789060E+03 -0.14663082522E+04  0.15819694106E+04  0.87693476312E+02 0.  0.
          4    1    3    3  502    0  0.95826897373E+01 -0.44469227686E+01 -0.25397269795E+02  0.27506806026E+02  0.00000000000E+00 0. -1.
         -3    1    3    3    0  502 -0.12580059936E+03 -0.21315762714E+03 -0.35084209036E+03  0.42936247761E+03  0.00000000000E+00 0.  1.
         13    1    5    5    0    0 -0.17557098683E+03 -0.23638960633E+03 -0.98799723406E+03  0.10309431371E+04  0.00000000000E+00 0. -1.
        -13    1    5    5    0    0 -0.30753926483E+02 -0.36763734360E+02 -0.69678665676E+02  0.84572410445E+02  0.00000000000E+00 0.  1.
          1    1    6    6  503    0  0.72797255781E+02  0.17146415177E+03 -0.52582906959E+03  0.55784908911E+03  0.00000000000E+00 0.  1.
         -1    1    6    6    0  503  0.24974556715E+03  0.31929373884E+03 -0.94047918256E+03  0.10241203214E+04  0.00000000000E+00 0. -1.
<mgrwt>
<rscale>  0 0.12404250E+04</rscale>
<asrwt>0</asrwt>
<pdfrwt beam="1">  1        2 0.46573675E+00 0.12404250E+04</pdfrwt>
<pdfrwt beam="2">  1       -1 0.19548518E-01 0.12404250E+04</pdfrwt>
<totfact> 0.40415530E+01</totfact>
</mgrwt>
</event>
<event>
12    7  0.1546317E-007  0.1803678E+04  0.7818608E-02  0.8704346E-01
          2   -1    0    0  501    0  0.00000000000E+00  0.00000000000E+00  0.23635923248E+04  0.23635923248E+04  0.00000000000E+00 0. -1.
         -1   -1    0    0    0  501 -0.00000000000E+00 -0.00000000000E+00 -0.34410074381E+03  0.34410074381E+03  0.00000000000E+00 0.  1.
         24    2    1    2    0    0 -0.31646853474E+03  0.10618677793E+03  0.16303708102E+04  0.16659768490E+04  0.77083834270E+02 0.  0.
        254    2    1    2    0    0  0.31646853474E+03 -0.10618677793E+03  0.38912077077E+03  0.10417162195E+04  0.90682398652E+03 0.  0.
         23    2    4    4    0    0  0.29643559909E+03  0.35235646315E+03  0.32237364632E+03  0.56882141946E+03  0.87200331754E+02 0.  0.
         23    2    4    4    0    0  0.20032935654E+02 -0.45854324108E+03  0.66747124450E+02  0.47289480008E+03  0.92255573675E+02 0.  0.
          2    1    3    3  502    0 -0.30893646528E+03  0.11595686137E+03  0.15829039066E+04  0.16169330570E+04  0.00000000000E+00 0. -1.
         -1    1    3    3    0  502 -0.75320694598E+01 -0.97700834417E+01  0.47466903542E+02  0.49043791989E+02  0.00000000000E+00 0.  1.
         13    1    5    5    0    0  0.64369714786E+02  0.13712890707E+03  0.11859543572E+03  0.19238678414E+03  0.00000000000E+00 0. -1.
        -13    1    5    5    0    0  0.23206588430E+03  0.21522755608E+03  0.20377821059E+03  0.37643463532E+03  0.00000000000E+00 0.  1.
          2    1    6    6  503    0  0.35742816484E+02 -0.43130721506E+03  0.45997465233E+02  0.43522319504E+03  0.00000000000E+00 0.  1.
         -2    1    6    6    0  503 -0.15709880829E+02 -0.27236026019E+02  0.20749659217E+02  0.37671605044E+02  0.00000000000E+00 0. -1.
<mgrwt>
<rscale>  0 0.18036783E+04</rscale>
<asrwt>0</asrwt>
<pdfrwt beam="1">  1        2 0.36362958E+00 0.18036783E+04</pdfrwt>
<pdfrwt beam="2">  1       -1 0.52938577E-01 0.18036783E+04</pdfrwt>
<totfact> 0.16136274E+01</totfact>
</mgrwt>
</event>
<event>
12    7  0.1546317E-007  0.1293387E+04  0.7818608E-02  0.9034826E-01
          2   -1    0    0  501    0  0.00000000000E+00  0.00000000000E+00  0.20805154309E+04  0.20805154309E+04  0.00000000000E+00 0. -1.
         -1   -1    0    0    0  501 -0.00000000000E+00 -0.00000000000E+00 -0.20101394738E+03  0.20101394738E+03  0.00000000000E+00 0.  1.
         24    2    1    2    0    0 -0.96055588473E+02  0.26359433272E+03  0.20131460370E+03  0.35464734847E+03  0.80861138950E+02 0.  0.
        254    2    1    2    0    0  0.96055588473E+02 -0.26359433272E+03  0.16781868798E+04  0.19268820298E+04  0.90435308639E+03 0.  0.
         23    2    4    4    0    0  0.33881112410E+03 -0.44092289307E+03  0.13903588877E+04  0.15002077224E+04  0.91210736636E+02 0.  0.
         23    2    4    4    0    0 -0.24275553563E+03  0.17732856035E+03  0.28782799217E+03  0.42667430738E+03  0.93969905351E+02 0.  0.
          2    1    3    3  502    0 -0.26105245335E+02  0.23380179829E+02  0.53795135207E+02  0.64203062348E+02  0.00000000000E+00 0. -1.
         -1    1    3    3    0  502 -0.69950343138E+02  0.24021415290E+03  0.14751946849E+03  0.29044428612E+03  0.00000000000E+00 0.  1.
         13    1    5    5    0    0  0.10402110989E+02 -0.24662177284E+02  0.13234950457E+03  0.13502895342E+03  0.00000000000E+00 0.  1.
        -13    1    5    5    0    0  0.32840901311E+03 -0.41626071579E+03  0.12580093831E+04  0.13651787690E+04  0.00000000000E+00 0. -1.
          4    1    6    6  503    0 -0.25081600930E+03  0.17684869351E+03  0.28059856917E+03  0.41583613112E+03  0.00000000000E+00 0. -1.
         -4    1    6    6    0  503  0.80604736733E+01  0.47986684328E+00  0.72294229921E+01  0.10838176268E+02  0.00000000000E+00 0.  1.
<mgrwt>
<rscale>  0 0.12933872E+04</rscale>
<asrwt>0</asrwt>
<pdfrwt beam="1">  1        2 0.32007928E+00 0.12933872E+04</pdfrwt>
<pdfrwt beam="2">  1       -1 0.30925224E-01 0.12933872E+04</pdfrwt>
<totfact> 0.65184058E+01</totfact>
</mgrwt>
</event>
<event>
12    7  0.1546317E-007  0.2144052E+04  0.7818608E-02  0.8542083E-01
          2   -1    0    0  501    0  0.00000000000E+00  0.00000000000E+00  0.12193117179E+04  0.12193117179E+04  0.00000000000E+00 0. -1.
         -1   -1    0    0    0  501 -0.00000000000E+00 -0.00000000000E+00 -0.94253151983E+03  0.94253151983E+03  0.00000000000E+00 0.  1.
         24    2    1    2    0    0  0.69762271055E+03 -0.15942289398E+03 -0.40652448450E+03  0.82705309092E+03  0.81618339267E+02 0.  0.
        254    2    1    2    0    0 -0.69762271055E+03  0.15942289398E+03  0.68330468253E+03  0.13347901468E+04  0.89591648124E+03 0.  0.
         23    2    4    4    0    0  0.18823605744E+03  0.14231684153E+03  0.19076632820E+03  0.31674617937E+03  0.90826502001E+02 0.  0.
         23    2    4    4    0    0 -0.88585876799E+03  0.17106052445E+02  0.49253835433E+03  0.10180439674E+04  0.93707604880E+02 0.  0.
          4    1    3    3  502    0  0.22060090763E+03 -0.73258270936E+02 -0.96709431576E+02  0.25176228642E+03  0.00000000000E+00 0. -1.
         -3    1    3    3    0  502  0.47702180291E+03 -0.86164623041E+02 -0.30981505292E+03  0.57529080450E+03  0.00000000000E+00 0.  1.
         13    1    5    5    0    0  0.18851039979E+03  0.14476861161E+03  0.16146546867E+03  0.28734164215E+03  0.00000000000E+00 0. -1.
        -13    1    5    5    0    0 -0.27434234642E+00 -0.24517700826E+01  0.29300859531E+02  0.29404537227E+02  0.00000000000E+00 0.  1.
          2    1    6    6  503    0 -0.73729854806E+03  0.47207809991E+02  0.39469167038E+03  0.83762714914E+03  0.00000000000E+00 0. -1.
         -2    1    6    6    0  503 -0.14856021993E+03 -0.30101757545E+02  0.97846683943E+02  0.18041681826E+03  0.00000000000E+00 0.  1.
<mgrwt>
<rscale>  0 0.21440520E+04</rscale>
<asrwt>0</asrwt>
<pdfrwt beam="1">  1        2 0.18758642E+00 0.21440520E+04</pdfrwt>
<pdfrwt beam="2">  1       -1 0.14500485E+00 0.21440520E+04</pdfrwt>
<totfact> 0.73768957E+00</totfact>
</mgrwt>
</event>
<event>
12    7  0.1546317E-007  0.1535331E+04  0.7818608E-02  0.8861292E-01
          2   -1    0    0  501    0  0.00000000000E+00  0.00000000000E+00  0.16144433119E+04  0.16144433119E+04  0.00000000000E+00 0. -1.
         -1   -1    0    0    0  501 -0.00000000000E+00 -0.00000000000E+00 -0.36502382073E+03  0.36502382073E+03  0.00000000000E+00 0.  1.
         24    2    1    2    0    0  0.32647286799E+03  0.30733875650E+03  0.11372109471E+03  0.46946522426E+03  0.80146519713E+02 0.  0.
        254    2    1    2    0    0 -0.32647286799E+03 -0.30733875650E+03  0.11356983965E+04  0.15100019084E+04  0.88839927442E+03 0.  0.
         23    2    4    4    0    0  0.10576284065E+03 -0.48051359835E+03  0.42977659791E+03  0.65932857279E+03  0.89034522106E+02 0.  0.
         23    2    4    4    0    0 -0.43223570864E+03  0.17317484184E+03  0.70592179855E+03  0.85067333559E+03  0.92207941821E+02 0.  0.
          2    1    3    3  502    0  0.32197713215E+03  0.31122725131E+03  0.11677438476E+03  0.46278281356E+03  0.00000000000E+00 0. -1.
         -1    1    3    3    0  502  0.44957358363E+01 -0.38884948098E+01 -0.30532900508E+01  0.66824106975E+01  0.00000000000E+00 0.  1.
         13    1    5    5    0    0  0.10053610247E+03 -0.43130747570E+03  0.34589969747E+03  0.56194327757E+03  0.00000000000E+00 0.  1.
        -13    1    5    5    0    0  0.52267381849E+01 -0.49206122641E+02  0.83876900433E+02  0.97385295213E+02  0.00000000000E+00 0. -1.
          1    1    6    6  503    0 -0.18260097701E+03  0.11767797700E+03  0.36043271905E+03  0.42083603462E+03  0.00000000000E+00 0. -1.
         -1    1    6    6    0  503 -0.24963473163E+03  0.55496864841E+02  0.34548907951E+03  0.42983730097E+03  0.00000000000E+00 0.  1.
<mgrwt>
<rscale>  0 0.15353309E+04</rscale>
<asrwt>0</asrwt>
<pdfrwt beam="1">  1        2 0.24837589E+00 0.15353309E+04</pdfrwt>
<pdfrwt beam="2">  1       -1 0.56157512E-01 0.15353309E+04</pdfrwt>
<totfact> 0.38554012E+01</totfact>
</mgrwt>
</event>
<event>
12    7  0.1546317E-007  0.2292746E+04  0.7818608E-02  0.8480787E-01
         -1   -1    0    0    0  501 -0.00000000000E+00  0.00000000000E+00  0.54967176233E+03  0.54967176233E+03  0.00000000000E+00 0.  1.
          2   -1    0    0  501    0  0.00000000000E+00 -0.00000000000E+00 -0.23908279122E+04  0.23908279122E+04  0.00000000000E+00 0. -1.
         24    2    1    2    0    0 -0.61292881375E+03 -0.12961654023E+03  0.18740952424E+03  0.65854673965E+03  0.77969867911E+02 0.  0.
        254    2    1    2    0    0  0.61292881375E+03  0.12961654023E+03 -0.20285656741E+04  0.22819529349E+04  0.83650960821E+03 0.  0.
         23    2    4    4    0    0  0.90557755726E+02  0.84371218367E+02  0.29103992593E+02  0.15668975630E+03  0.91571981163E+02 0.  0.
         23    2    4    4    0    0  0.52237105803E+03  0.45245321860E+02 -0.20576696667E+04  0.21252631786E+04  0.88433362322E+02 0.  0.
          2    1    3    3  502    0 -0.59806922164E+02  0.79401014592E+01  0.71630490353E+01  0.60755431209E+02  0.00000000000E+00 0. -1.
         -1    1    3    3    0  502 -0.55312189159E+03 -0.13755664169E+03  0.18024647520E+03  0.59779130844E+03  0.00000000000E+00 0.  1.
         13    1    5    5    0    0 -0.94568142272E+01 -0.11224384466E+02 -0.21968353489E+01  0.14840627598E+02  0.00000000000E+00 0. -1.
        -13    1    5    5    0    0  0.10001456995E+03  0.95595602833E+02  0.31300827942E+02  0.14184912870E+03  0.00000000000E+00 0.  1.
          1    1    6    6  503    0  0.51480797137E+03  0.50556273964E+02 -0.19584269461E+04  0.20255910958E+04  0.00000000000E+00 0.  1.
         -1    1    6    6    0  503  0.75630866578E+01 -0.53109521042E+01 -0.99242720578E+02  0.99672082750E+02  0.00000000000E+00 0. -1.
<mgrwt>
<rscale>  0 0.22927456E+04</rscale>
<asrwt>0</asrwt>
<pdfrwt beam="1">  1        2 0.36781968E+00 0.22927456E+04</pdfrwt>
<pdfrwt beam="2">  1       -1 0.84564886E-01 0.22927456E+04</pdfrwt>
<totfact> 0.57495631E+00</totfact>
</mgrwt>
</event>
<event>
12    7  0.1546317E-007  0.2124179E+04  0.7818608E-02  0.8550667E-01
          2   -1    0    0  501    0  0.00000000000E+00  0.00000000000E+00  0.90244122915E+03  0.90244122915E+03  0.00000000000E+00 0. -1.
         -1   -1    0    0    0  501 -0.00000000000E+00 -0.00000000000E+00 -0.12499803272E+04  0.12499803272E+04  0.00000000000E+00 0.  1.
         24    2    1    2    0    0 -0.36991442266E+03 -0.26995380822E+03 -0.89920532451E+03  0.10124399331E+04  0.82174593488E+02 0.  0.
        254    2    1    2    0    0  0.36991442266E+03  0.26995380822E+03  0.55166622649E+03  0.11399816232E+04  0.88629043614E+03 0.  0.
         23    2    4    4    0    0  0.48102517805E+03  0.51234910037E+03  0.45385092850E+03  0.84168023392E+03  0.92510152447E+02 0.  0.
         23    2    4    4    0    0 -0.11111075539E+03 -0.24239529215E+03  0.97815297994E+02  0.29830138931E+03  0.91185572991E+02 0.  0.
          4    1    3    3  502    0 -0.71074966700E+02 -0.67270278066E+02 -0.13018876450E+03  0.16286821546E+03  0.00000000000E+00 0. -1.
         -3    1    3    3    0  502 -0.29883945596E+03 -0.20268353016E+03 -0.76901656001E+03  0.84957171763E+03  0.00000000000E+00 0.  1.
         13    1    5    5    0    0  0.18011183657E+03  0.15265643320E+03  0.11184981212E+03  0.26125589131E+03  0.00000000000E+00 0. -1.
        -13    1    5    5    0    0  0.30091334148E+03  0.35969266717E+03  0.34200111638E+03  0.58042434262E+03  0.00000000000E+00 0.  1.
          1    1    6    6  503    0 -0.56358323109E+02 -0.20208273246E+03  0.51468313429E+02  0.21601545924E+03  0.00000000000E+00 0. -1.
         -1    1    6    6    0  503 -0.54752432281E+02 -0.40312559691E+02  0.46346984566E+02  0.82285930072E+02  0.00000000000E+00 0.  1.
<mgrwt>
<rscale>  0 0.21241787E+04</rscale>
<asrwt>0</asrwt>
<pdfrwt beam="1">  1        2 0.13883711E+00 0.21241787E+04</pdfrwt>
<pdfrwt beam="2">  1       -1 0.19230467E+00 0.21241787E+04</pdfrwt>
<totfact> 0.52174380E+00</totfact>
</mgrwt>
</event>
<event>
12    7  0.1546317E-007  0.1675769E+04  0.7818608E-02  0.8775306E-01
          2   -1    0    0  501    0  0.00000000000E+00  0.00000000000E+00  0.24604919637E+04  0.24604919637E+04  0.00000000000E+00 0. -1.
         -1   -1    0    0    0  501 -0.00000000000E+00 -0.00000000000E+00 -0.28532916192E+03  0.28532916192E+03  0.00000000000E+00 0.  1.
         24    2    1    2    0    0 -0.56253836434E+03 -0.17857038886E+03  0.95348318047E+03  0.11257358599E+04  0.99066925517E+02 0.  0.
        254    2    1    2    0    0  0.56253836434E+03  0.17857038886E+03  0.12216796214E+04  0.16200852657E+04  0.88534647225E+03 0.  0.
         23    2    4    4    0    0  0.32530344966E+02  0.44964621161E+03  0.48361434472E+03  0.66744356136E+03  0.91422832022E+02 0.  0.
         23    2    4    4    0    0  0.53000801938E+03 -0.27107582275E+03  0.73806527663E+03  0.95264170439E+03  0.91625662863E+02 0.  0.
          2    1    3    3  502    0 -0.55073809338E+03 -0.15612409019E+03  0.92277677973E+03  0.10859116742E+04  0.00000000000E+00 0. -1.
         -3    1    3    3    0  502 -0.11800270966E+02 -0.22446298667E+02  0.30706400734E+02  0.39824185676E+02  0.00000000000E+00 0.  1.
         13    1    5    5    0    0  0.67791080918E+01  0.24481638594E+03  0.32582006143E+03  0.40760241849E+03  0.00000000000E+00 0.  1.
        -13    1    5    5    0    0  0.25751236874E+02  0.20482982567E+03  0.15779428330E+03  0.25984114286E+03  0.00000000000E+00 0. -1.
          1    1    6    6  503    0  0.21007065854E+03 -0.15843219916E+03  0.31940706896E+03  0.41382522762E+03  0.00000000000E+00 0. -1.
         -1    1    6    6    0  503  0.31993736083E+03 -0.11264362359E+03  0.41865820767E+03  0.53881647677E+03  0.00000000000E+00 0.  1.
<mgrwt>
<rscale>  0 0.16757686E+04</rscale>
<asrwt>0</asrwt>
<pdfrwt beam="1">  1        2 0.37853721E+00 0.16757686E+04</pdfrwt>
<pdfrwt beam="2">  1       -1 0.43896796E-01 0.16757686E+04</pdfrwt>
<totfact> 0.20465718E+01</totfact>
</mgrwt>
</event>
<event>
12    7  0.1546317E-007  0.2341965E+04  0.7818608E-02  0.8461556E-01
          2   -1    0    0  501    0  0.00000000000E+00  0.00000000000E+00  0.13700198607E+04  0.13700198607E+04  0.00000000000E+00 0. -1.
         -1   -1    0    0    0  501 -0.00000000000E+00 -0.00000000000E+00 -0.10008615152E+04  0.10008615152E+04  0.00000000000E+00 0.  1.
         24    2    1    2    0    0 -0.95765938686E+03  0.27031802859E+03  0.20614239918E+03  0.10198817816E+04  0.86491744295E+02 0.  0.
        254    2    1    2    0    0  0.95765938686E+03 -0.27031802859E+03  0.16301594627E+03  0.13509995943E+04  0.89913423209E+03 0.  0.
         23    2    4    4    0    0  0.21801903306E+02  0.19100736460E+03  0.21526002298E+03  0.30253985526E+03  0.90743320486E+02 0.  0.
         23    2    4    4    0    0  0.93585748355E+03 -0.46132539318E+03 -0.52244076707E+02  0.10484597391E+04  0.88814598883E+02 0.  0.
          2    1    3    3  502    0 -0.24423734706E+03  0.55079318918E+02  0.16326375848E+02  0.25090269751E+03  0.00000000000E+00 0. -1.
         -1    1    3    3    0  502 -0.71342203980E+03  0.21523870967E+03  0.18981602333E+03  0.76897908406E+03  0.00000000000E+00 0.  1.
         13    1    5    5    0    0  0.54059202633E+02  0.77857767827E+02  0.90511905560E+02  0.13105965988E+03  0.00000000000E+00 0.  1.
        -13    1    5    5    0    0 -0.32257299327E+02  0.11314959677E+03  0.12474811742E+03  0.17148019538E+03  0.00000000000E+00 0. -1.
          1    1    6    6  503    0  0.35230972300E+03 -0.14255509613E+03 -0.51424419162E+02  0.38352127352E+03  0.00000000000E+00 0. -1.
         -1    1    6    6    0  503  0.58354776055E+03 -0.31877029706E+03 -0.81965754513E+00  0.66493846555E+03  0.00000000000E+00 0.  1.
<mgrwt>
<rscale>  0 0.23419651E+04</rscale>
<asrwt>0</asrwt>
<pdfrwt beam="1">  1        2 0.21077229E+00 0.23419651E+04</pdfrwt>
<pdfrwt beam="2">  1       -1 0.15397869E+00 0.23419651E+04</pdfrwt>
<totfact> 0.50370850E+00</totfact>
</mgrwt>
</event>
<event>
12    7  0.1546317E-007  0.1131566E+04  0.7818608E-02  0.9174960E-01
         -1   -1    0    0    0  501 -0.00000000000E+00  0.00000000000E+00  0.13758957006E+03  0.13758957006E+03  0.00000000000E+00 0.  1.
          2   -1    0    0  501    0  0.00000000000E+00 -0.00000000000E+00 -0.23265615603E+04  0.23265615603E+04  0.00000000000E+00 0. -1.
         24    2    1    2    0    0  0.16195382263E+02 -0.27348491720E+01 -0.75365794179E+02  0.11039709473E+03  0.78979401016E+02 0.  0.
        254    2    1    2    0    0 -0.16195382263E+02  0.27348491720E+01 -0.21136061960E+04  0.23537540356E+04  0.10356433452E+04 0.  0.
         23    2    4    4    0    0  0.23898063088E+03 -0.33317982394E+03 -0.37809312037E+03  0.56529473149E+03  0.92104227688E+02 0.  0.
         23    2    4    4    0    0 -0.25517601315E+03  0.33591467311E+03 -0.17355130757E+04  0.17884593041E+04  0.92884775065E+02 0.  0.
          2    1    3    3  502    0 -0.12098870953E+02  0.32348672192E+00 -0.80563250189E+02  0.81467322302E+02  0.00000000000E+00 0. -1.
         -1    1    3    3    0  502  0.28294253216E+02 -0.30583358939E+01  0.51974560100E+01  0.28929772423E+02  0.00000000000E+00 0.  1.
         13    1    5    5    0    0  0.19305570410E+02 -0.19961222406E+02 -0.51529942764E+00  0.27774466373E+02  0.00000000000E+00 0. -1.
        -13    1    5    5    0    0  0.21967506047E+03 -0.31321860153E+03 -0.37757782095E+03  0.53752026512E+03  0.00000000000E+00 0.  1.
          1    1    6    6  503    0  0.52394238759E+01  0.25917656650E+02 -0.85117180821E+02  0.89129742285E+02  0.00000000000E+00 0. -1.
         -1    1    6    6    0  503 -0.26041543702E+03  0.30999701646E+03 -0.16503958948E+04  0.16993295618E+04  0.00000000000E+00 0.  1.
<mgrwt>
<rscale>  0 0.11315664E+04</rscale>
<asrwt>0</asrwt>
<pdfrwt beam="1">  1        2 0.35793255E+00 0.11315664E+04</pdfrwt>
<pdfrwt beam="2">  1       -1 0.21167626E-01 0.11315664E+04</pdfrwt>
<totfact> 0.92403745E+01</totfact>
</mgrwt>
</event>
<event>
12    7  0.1546317E-007  0.1831770E+04  0.7818608E-02  0.8689585E-01
         -1   -1    0    0    0  501 -0.00000000000E+00  0.00000000000E+00  0.86570217119E+03  0.86570217119E+03  0.00000000000E+00 0.  1.
          2   -1    0    0  501    0  0.00000000000E+00 -0.00000000000E+00 -0.96897686074E+03  0.96897686074E+03  0.00000000000E+00 0. -1.
         24    2    1    2    0    0  0.54930042363E+03  0.29471201975E+02  0.38149654181E+03  0.67411479287E+03  0.79319829863E+02 0.  0.
        254    2    1    2    0    0 -0.54930042363E+03 -0.29471201975E+02 -0.48477123136E+03  0.11605642391E+04  0.89961475036E+03 0.  0.
         23    2    4    4    0    0 -0.31068502332E+03 -0.88837662971E+02 -0.72882743229E+03  0.80230154920E+03  0.89894581079E+02 0.  0.
         23    2    4    4    0    0 -0.23861540031E+03  0.59366460996E+02  0.24405620093E+03  0.35826268986E+03  0.91252615162E+02 0.  0.
          4    1    3    3  502    0  0.22698538760E+02  0.94890654559E+01  0.37312399862E+02  0.44693189733E+02  0.00000000000E+00 0. -1.
         -3    1    3    3    0  502  0.52660188487E+03  0.19982136519E+02  0.34418414195E+03  0.62942160314E+03  0.00000000000E+00 0.  1.
         13    1    5    5    0    0 -0.14147917280E+03 -0.87200987641E+02 -0.36069167433E+03  0.39713832919E+03  0.00000000000E+00 0.  1.
        -13    1    5    5    0    0 -0.16920585052E+03 -0.16366753299E+01 -0.36813575796E+03  0.40516322001E+03  0.00000000000E+00 0. -1.
          1    1    6    6  503    0 -0.42564086808E+02 -0.19763561509E+02  0.70703352823E+02  0.84860261311E+02  0.00000000000E+00 0. -1.
         -1    1    6    6    0  503 -0.19605131350E+03  0.79130022505E+02  0.17335284811E+03  0.27340242855E+03  0.00000000000E+00 0.  1.
<mgrwt>
<rscale>  0 0.18317700E+04</rscale>
<asrwt>0</asrwt>
<pdfrwt beam="1">  1        2 0.14907336E+00 0.18317700E+04</pdfrwt>
<pdfrwt beam="2">  1       -1 0.13318495E+00 0.18317700E+04</pdfrwt>
<totfact> 0.13518839E+01</totfact>
</mgrwt>
</event>
<event>
12    7  0.1546317E-007  0.1551235E+04  0.7818608E-02  0.8851080E-01
         -1   -1    0    0    0  501 -0.00000000000E+00  0.00000000000E+00  0.82478841910E+03  0.82478841910E+03  0.00000000000E+00 0.  1.
          2   -1    0    0  501    0  0.00000000000E+00 -0.00000000000E+00 -0.72937757243E+03  0.72937757243E+03  0.00000000000E+00 0. -1.
         24    2    1    2    0    0 -0.19778480894E+03  0.46958956367E+03  0.84785395043E+02  0.52294942152E+03  0.81574170570E+02 0.  0.
        254    2    1    2    0    0  0.19778480894E+03 -0.46958956367E+03  0.10625451628E+02  0.10312165700E+04  0.89647170902E+03 0.  0.
         23    2    4    4    0    0  0.50421600097E+03 -0.10053844849E+03 -0.96075884728E+02  0.53096775949E+03  0.91402575058E+02 0.  0.
         23    2    4    4    0    0 -0.30643119203E+03 -0.36905111518E+03  0.10670133636E+03  0.50024881051E+03  0.93621024215E+02 0.  0.
          4    1    3    3  502    0  0.41909022996E+01  0.51632425284E+02  0.68911652000E+01  0.52258579780E+02  0.00000000000E+00 0. -1.
         -3    1    3    3    0  502 -0.20197571124E+03  0.41795713839E+03  0.77894229843E+02  0.47069084174E+03  0.00000000000E+00 0.  1.
         13    1    5    5    0    0  0.21738187601E+03 -0.83943290083E+02 -0.65345191224E+02  0.24201518544E+03  0.00000000000E+00 0.  1.
        -13    1    5    5    0    0  0.28683412496E+03 -0.16595158411E+02 -0.30730693504E+02  0.28895257405E+03  0.00000000000E+00 0. -1.
          4    1    6    6  503    0 -0.26317687521E+03 -0.35756520752E+03  0.96145973246E+02  0.45426753510E+03  0.00000000000E+00 0. -1.
         -4    1    6    6    0  503 -0.43254316817E+02 -0.11485907659E+02  0.10555363110E+02  0.45981275411E+02  0.00000000000E+00 0.  1.
<mgrwt>
<rscale>  0 0.15512346E+04</rscale>
<asrwt>0</asrwt>
<pdfrwt beam="1">  1        2 0.11221193E+00 0.15512346E+04</pdfrwt>
<pdfrwt beam="2">  1       -1 0.12689053E+00 0.15512346E+04</pdfrwt>
<totfact> 0.23038656E+01</totfact>
</mgrwt>
</event>
<event>
12    7  0.1546317E-007  0.1884589E+04  0.7818608E-02  0.8662566E-01
         -1   -1    0    0    0  501 -0.00000000000E+00  0.00000000000E+00  0.49817860808E+03  0.49817860808E+03  0.00000000000E+00 0.  1.
          2   -1    0    0  501    0  0.00000000000E+00 -0.00000000000E+00 -0.17823309810E+04  0.17823309810E+04  0.00000000000E+00 0. -1.
         24    2    1    2    0    0 -0.21541498472E+03  0.66174693235E+03 -0.68956831717E+03  0.98291958683E+03  0.79459625065E+02 0.  0.
        254    2    1    2    0    0  0.21541498472E+03 -0.66174693235E+03 -0.59458405572E+03  0.12975900022E+04  0.91972658788E+03 0.  0.
         23    2    4    4    0    0  0.83095998594E+02  0.20245584089E+03 -0.27385381696E+01  0.23795261802E+03  0.93384347382E+02 0.  0.
         23    2    4    4    0    0  0.13231898613E+03 -0.86420277324E+03 -0.59184551755E+03  0.10596373842E+04  0.90529122468E+02 0.  0.
          4    1    3    3  502    0 -0.96022328739E+02  0.18099832485E+03 -0.21262293259E+03  0.29527816154E+03  0.00000000000E+00 0. -1.
         -3    1    3    3    0  502 -0.11939265598E+03  0.48074860749E+03 -0.47694538458E+03  0.68764142530E+03  0.00000000000E+00 0.  1.
         13    1    5    5    0    0  0.32161697720E+02  0.11279766242E+03 -0.46183874700E+02  0.12605807284E+03  0.00000000000E+00 0. -1.
        -13    1    5    5    0    0  0.50934300874E+02  0.89658178477E+02  0.43445336530E+02  0.11189454517E+03  0.00000000000E+00 0.  1.
          1    1    6    6  503    0  0.41670162329E+02 -0.23350011395E+03 -0.11387884783E+03  0.26311042858E+03  0.00000000000E+00 0. -1.
         -1    1    6    6    0  503  0.90648823799E+02 -0.63070265929E+03 -0.47796666972E+03  0.79652695564E+03  0.00000000000E+00 0.  1.
<mgrwt>
<rscale>  0 0.18845893E+04</rscale>
<asrwt>0</asrwt>
<pdfrwt beam="1">  1        2 0.27420477E+00 0.18845893E+04</pdfrwt>
<pdfrwt beam="2">  1       -1 0.76642862E-01 0.18845893E+04</pdfrwt>
<totfact> 0.16101787E+01</totfact>
</mgrwt>
</event>
<event>
12    7  0.1546317E-007  0.2201312E+04  0.7818608E-02  0.8517882E-01
          2   -1    0    0  501    0  0.00000000000E+00  0.00000000000E+00  0.17210739545E+04  0.17210739545E+04  0.00000000000E+00 0. -1.
         -1   -1    0    0    0  501 -0.00000000000E+00 -0.00000000000E+00 -0.70388836562E+03  0.70388836562E+03  0.00000000000E+00 0.  1.
         24    2    1    2    0    0  0.54820409074E+03  0.24049572884E+03  0.11914288281E+04  0.13357586720E+04  0.79891530090E+02 0.  0.
        254    2    1    2    0    0 -0.54820409074E+03 -0.24049572884E+03 -0.17424323926E+03  0.10892036481E+04  0.89310579439E+03 0.  0.
         23    2    4    4    0    0 -0.19358195277E+03 -0.23767237088E+03  0.33428792435E+03  0.46261378173E+03  0.91109639254E+02 0.  0.
         23    2    4    4    0    0 -0.35462213797E+03 -0.28233579664E+01 -0.50853116361E+03  0.62658986640E+03  0.90807952453E+02 0.  0.
          2    1    3    3  502    0  0.33483420675E+03  0.13779627675E+03  0.63381143874E+03  0.72994431279E+03  0.00000000000E+00 0. -1.
         -1    1    3    3    0  502  0.21336988399E+03  0.10269945209E+03  0.55761738939E+03  0.60581435919E+03  0.00000000000E+00 0.  1.
         13    1    5    5    0    0 -0.87589559559E+01 -0.68922971229E+02  0.69753698955E+02  0.98451377798E+02  0.00000000000E+00 0.  1.
        -13    1    5    5    0    0 -0.18482299682E+03 -0.16874939965E+03  0.26453422539E+03  0.36416240393E+03  0.00000000000E+00 0. -1.
          3    1    6    6  503    0 -0.23209047839E+03 -0.39711147630E+02 -0.36434776003E+03  0.43381131341E+03  0.00000000000E+00 0. -1.
         -3    1    6    6    0  503 -0.12253165958E+03  0.36887789664E+02 -0.14418340358E+03  0.19277855299E+03  0.00000000000E+00 0.  1.
<mgrwt>
<rscale>  0 0.22013123E+04</rscale>
<asrwt>0</asrwt>
<pdfrwt beam="1">  1        2 0.26478061E+00 0.22013123E+04</pdfrwt>
<pdfrwt beam="2">  1       -1 0.10829052E+00 0.22013123E+04</pdfrwt>
<totfact> 0.78672391E+00</totfact>
</mgrwt>
</event>
<event>
12    7  0.1546317E-007  0.2662447E+04  0.7818608E-02  0.8347293E-01
         -1   -1    0    0    0  501 -0.00000000000E+00  0.00000000000E+00  0.72204302975E+03  0.72204302975E+03  0.00000000000E+00 0.  1.
          2   -1    0    0  501    0  0.00000000000E+00 -0.00000000000E+00 -0.24543633122E+04  0.24543633122E+04  0.00000000000E+00 0. -1.
         24    2    1    2    0    0 -0.10717986821E+04 -0.27151860464E+03 -0.12496962913E+04  0.16705574026E+04  0.80910117792E+02 0.  0.
        254    2    1    2    0    0  0.10717986821E+04  0.27151860464E+03 -0.48262399112E+03  0.15058489393E+04  0.90121048798E+03 0.  0.
         23    2    4    4    0    0 -0.31248165055E+02  0.29590101875E+03 -0.41702400950E+02  0.31407864107E+03  0.91501048171E+02 0.  0.
         23    2    4    4    0    0  0.11030468472E+04 -0.24382414105E+02 -0.44092159017E+03  0.11917702983E+04  0.92724031272E+02 0.  0.
          2    1    3    3  502    0 -0.39288834250E+03 -0.68092340507E+02 -0.41403409864E+03  0.57482349581E+03  0.00000000000E+00 0. -1.
         -1    1    3    3    0  502 -0.67891033962E+03 -0.20342626414E+03 -0.83566219268E+03  0.10957339068E+04  0.00000000000E+00 0.  1.
         13    1    5    5    0    0  0.25238026110E+02  0.59400070889E+02  0.10492455550E+02  0.65386680655E+02  0.00000000000E+00 0. -1.
        -13    1    5    5    0    0 -0.56486191165E+02  0.23650094786E+03 -0.52194856499E+02  0.24869196041E+03  0.00000000000E+00 0.  1.
          3    1    6    6  503    0  0.78443631426E+02 -0.17110238609E+02 -0.12825146874E+02  0.81305891354E+02  0.00000000000E+00 0. -1.
         -3    1    6    6    0  503  0.10246032157E+04 -0.72721754955E+01 -0.42809644330E+03  0.11104644069E+04  0.00000000000E+00 0.  1.
<mgrwt>
<rscale>  0 0.26624469E+04</rscale>
<asrwt>0</asrwt>
<pdfrwt beam="1">  1        2 0.37759436E+00 0.26624469E+04</pdfrwt>
<pdfrwt beam="2">  1       -1 0.11108354E+00 0.26624469E+04</pdfrwt>
<totfact> 0.27595424E+00</totfact>
</mgrwt>
</event>
<event>
12    7  0.1546317E-007  0.2018657E+04  0.7818608E-02  0.8597947E-01
         -1   -1    0    0    0  501 -0.00000000000E+00  0.00000000000E+00  0.43060890778E+03  0.43060890778E+03  0.00000000000E+00 0.  1.
          2   -1    0    0  501    0  0.00000000000E+00 -0.00000000000E+00 -0.23658221044E+04  0.23658221044E+04  0.00000000000E+00 0. -1.
         24    2    1    2    0    0 -0.50501216065E+03  0.62901959787E+03 -0.86797353543E+03  0.11877715212E+04  0.81976773240E+02 0.  0.
        254    2    1    2    0    0  0.50501216065E+03 -0.62901959787E+03 -0.10672396612E+04  0.16086594911E+04  0.89335431201E+03 0.  0.
         23    2    4    4    0    0  0.13853134740E+03  0.15372098294E+03 -0.55613757324E+03  0.60043605400E+03  0.91724477469E+02 0.  0.
         23    2    4    4    0    0  0.36648081325E+03 -0.78274058082E+03 -0.51110208799E+03  0.10082234371E+04  0.91094189532E+02 0.  0.
          2    1    3    3  502    0 -0.25334473351E+02  0.36709276229E+02 -0.24277250631E+02  0.50781801853E+02  0.00000000000E+00 0. -1.
         -3    1    3    3    0  502 -0.47967768730E+03  0.59231032164E+03 -0.84369628480E+03  0.11369897193E+04  0.00000000000E+00 0.  1.
         13    1    5    5    0    0  0.25294514763E+02  0.92162610402E+02 -0.19916770871E+03  0.22091069559E+03  0.00000000000E+00 0.  1.
        -13    1    5    5    0    0  0.11323683263E+03  0.61558372540E+02 -0.35696986453E+03  0.37952535842E+03  0.00000000000E+00 0. -1.
          2    1    6    6  503    0  0.35051920036E+03 -0.68954184185E+03 -0.47005461484E+03  0.90514253154E+03  0.00000000000E+00 0. -1.
         -2    1    6    6    0  503  0.15961612896E+02 -0.93198738969E+02 -0.41047473147E+02  0.10308090552E+03  0.00000000000E+00 0.  1.
<mgrwt>
<rscale>  0 0.20186571E+04</rscale>
<asrwt>0</asrwt>
<pdfrwt beam="1">  1        2 0.36397263E+00 0.20186571E+04</pdfrwt>
<pdfrwt beam="2">  1       -1 0.66247524E-01 0.20186571E+04</pdfrwt>
<totfact> 0.10142802E+01</totfact>
</mgrwt>
</event>
<event>
12    7  0.1546317E-007  0.1164948E+04  0.7818608E-02  0.9144103E-01
          2   -1    0    0  501    0  0.00000000000E+00  0.00000000000E+00  0.51830155091E+03  0.51830155091E+03  0.00000000000E+00 0. -1.
         -1   -1    0    0    0  501 -0.00000000000E+00 -0.00000000000E+00 -0.65459236923E+03  0.65459236923E+03  0.00000000000E+00 0.  1.
         24    2    1    2    0    0 -0.59887790060E+02  0.99329956833E+02  0.16875368196E+03  0.21958157045E+03  0.79279714821E+02 0.  0.
        254    2    1    2    0    0  0.59887790060E+02 -0.99329956833E+02 -0.30504450027E+03  0.95331234969E+03  0.89571161721E+03 0.  0.
         23    2    4    4    0    0  0.61633254755E+02  0.29407817860E+03 -0.42650169170E+03  0.53160209825E+03  0.10206108278E+03 0.  0.
         23    2    4    4    0    0 -0.17454646946E+01 -0.39340813543E+03  0.12145719143E+03  0.42171025145E+03  0.91184862546E+02 0.  0.
          4    1    3    3  502    0 -0.65084532117E+02  0.98557636389E+02  0.17518296177E+03  0.21127866458E+03  0.00000000000E+00 0. -1.
         -3    1    3    3    0  502  0.51967420566E+01  0.77232044373E+00 -0.64292798143E+01  0.83029058649E+01  0.00000000000E+00 0.  1.
         13    1    5    5    0    0 -0.24416442503E+02  0.28660039809E+02 -0.62498694557E+02  0.72963328924E+02  0.00000000000E+00 0. -1.
        -13    1    5    5    0    0  0.86049697258E+02  0.26541813879E+03 -0.36400299714E+03  0.45863876932E+03  0.00000000000E+00 0.  1.
          3    1    6    6  503    0 -0.21235812568E+02 -0.13653151185E+03  0.83149413896E+02  0.16126263825E+03  0.00000000000E+00 0. -1.
         -3    1    6    6    0  503  0.19490347873E+02 -0.25687662358E+03  0.38307777530E+02  0.26044761320E+03  0.00000000000E+00 0.  1.
<mgrwt>
<rscale>  0 0.11649485E+04</rscale>
<asrwt>0</asrwt>
<pdfrwt beam="1">  1        2 0.79738700E-01 0.11649485E+04</pdfrwt>
<pdfrwt beam="2">  1       -1 0.10070652E+00 0.11649485E+04</pdfrwt>
<totfact> 0.62654428E+01</totfact>
</mgrwt>
</event>
<event>
12    7  0.1546317E-007  0.2154948E+04  0.7818608E-02  0.8537417E-01
         -1   -1    0    0    0  501 -0.00000000000E+00  0.00000000000E+00  0.12869909176E+04  0.12869909176E+04  0.00000000000E+00 0.  1.
          2   -1    0    0  501    0  0.00000000000E+00 -0.00000000000E+00 -0.90206575492E+03  0.90206575492E+03  0.00000000000E+00 0. -1.
         24    2    1    2    0    0 -0.56947616945E+03 -0.66246867323E+03  0.86061949449E+01  0.87723290042E+03  0.79345096968E+02 0.  0.
        254    2    1    2    0    0  0.56947616945E+03  0.66246867323E+03  0.37631896773E+03  0.13118237721E+04  0.90338131094E+03 0.  0.
         23    2    4    4    0    0  0.65147654973E+03  0.42800591404E+03 -0.75048795776E+02  0.78854763353E+03  0.92543456280E+02 0.  0.
         23    2    4    4    0    0 -0.82000380287E+02  0.23446275920E+03  0.45136776350E+03  0.52327613855E+03  0.91587179391E+02 0.  0.
          2    1    3    3  502    0 -0.17963119375E+03 -0.23383593351E+03 -0.30930203163E+02  0.29648488501E+03  0.00000000000E+00 0. -1.
         -1    1    3    3    0  502 -0.38984497570E+03 -0.42863273972E+03  0.39536398108E+02  0.58074801542E+03  0.00000000000E+00 0.  1.
         13    1    5    5    0    0  0.44193082641E+03  0.34026338364E+03 -0.49429211970E+02  0.55993327511E+03  0.00000000000E+00 0. -1.
        -13    1    5    5    0    0  0.20954572332E+03  0.87742530396E+02 -0.25619583806E+02  0.22861435842E+03  0.00000000000E+00 0.  1.
          2    1    6    6  503    0 -0.11453211825E+02  0.34205499147E+02  0.15224307245E+03  0.15645812648E+03  0.00000000000E+00 0. -1.
         -2    1    6    6    0  503 -0.70547168461E+02  0.20025726005E+03  0.29912469105E+03  0.36681801207E+03  0.00000000000E+00 0.  1.
<mgrwt>
<rscale>  0 0.21549482E+04</rscale>
<asrwt>0</asrwt>
<pdfrwt beam="1">  1        2 0.13877935E+00 0.21549482E+04</pdfrwt>
<pdfrwt beam="2">  1       -1 0.19799860E+00 0.21549482E+04</pdfrwt>
<totfact> 0.47524766E+00</totfact>
</mgrwt>
</event>
<event>
12    7  0.1546317E-007  0.2628464E+04  0.7818608E-02  0.8358597E-01
         -1   -1    0    0    0  501 -0.00000000000E+00  0.00000000000E+00  0.84203578427E+03  0.84203578427E+03  0.00000000000E+00 0.  1.
          2   -1    0    0  501    0  0.00000000000E+00 -0.00000000000E+00 -0.20512256760E+04  0.20512256760E+04  0.00000000000E+00 0. -1.
         24    2    1    2    0    0  0.30879118449E+03 -0.31145699812E+02 -0.17646784680E+04  0.17933571162E+04  0.75614816765E+02 0.  0.
        254    2    1    2    0    0 -0.30879118449E+03  0.31145699812E+02  0.55548857634E+03  0.10999043440E+04  0.89716216890E+03 0.  0.
         23    2    4    4    0    0 -0.33055924750E+03  0.32596414572E+03  0.88665829462E+01  0.47293029660E+03  0.89790916808E+02 0.  0.
         23    2    4    4    0    0  0.21768063011E+02 -0.29481844591E+03  0.54662199340E+03  0.62697404742E+03  0.83120923063E+02 0.  0.
          4    1    3    3  502    0  0.24157846753E+03 -0.41045009210E+02 -0.12123398812E+04  0.12368560290E+04  0.00000000000E+00 0. -1.
         -3    1    3    3    0  502  0.67212716966E+02  0.98993093981E+01 -0.55233858679E+03  0.55650108724E+03  0.00000000000E+00 0.  1.
         13    1    5    5    0    0 -0.26184368845E+02  0.70088165739E+02  0.84145446432E+01  0.75291279111E+02  0.00000000000E+00 0.  1.
        -13    1    5    5    0    0 -0.30437487866E+03  0.25587597999E+03  0.45203830294E+00  0.39763901749E+03  0.00000000000E+00 0. -1.
          1    1    6    6  503    0  0.17716686532E+02 -0.23020568717E+03  0.48701316236E+03  0.53897157596E+03  0.00000000000E+00 0. -1.
         -1    1    6    6    0  503  0.40513764791E+01 -0.64612758748E+02  0.59608831040E+02  0.88002471456E+02  0.00000000000E+00 0.  1.
<mgrwt>
<rscale>  0 0.26284637E+04</rscale>
<asrwt>0</asrwt>
<pdfrwt beam="1">  1        2 0.31557318E+00 0.26284637E+04</pdfrwt>
<pdfrwt beam="2">  1       -1 0.12954397E+00 0.26284637E+04</pdfrwt>
<totfact> 0.32136382E+00</totfact>
</mgrwt>
</event>
<event>
12    7  0.1546317E-007  0.2796392E+04  0.7818608E-02  0.8304389E-01
         -1   -1    0    0    0  501 -0.00000000000E+00  0.00000000000E+00  0.13438685618E+04  0.13438685618E+04  0.00000000000E+00 0.  1.
          2   -1    0    0  501    0  0.00000000000E+00 -0.00000000000E+00 -0.14547200676E+04  0.14547200676E+04  0.00000000000E+00 0. -1.
         24    2    1    2    0    0  0.39140960953E+03 -0.99329104427E+02 -0.12433713551E+04  0.13097443609E+04  0.79938794749E+02 0.  0.
        254    2    1    2    0    0 -0.39140960953E+03  0.99329104427E+02  0.11325198494E+04  0.14888442684E+04  0.87805939041E+03 0.  0.
         23    2    4    4    0    0 -0.16557910839E+03  0.18376056756E+03  0.11947005370E+04  0.12234430908E+04  0.91209845656E+02 0.  0.
         23    2    4    4    0    0 -0.22583050113E+03 -0.84431463135E+02 -0.62180687658E+02  0.26540117765E+03  0.91887213324E+02 0.  0.
          4    1    3    3  502    0  0.30515471523E+03 -0.11057871486E+03 -0.96890905703E+03  0.10218276827E+04  0.00000000000E+00 0. -1.
         -3    1    3    3    0  502  0.86254894293E+02  0.11249610435E+02 -0.27446229807E+03  0.28791667820E+03  0.00000000000E+00 0.  1.
         13    1    5    5    0    0 -0.12507176942E+03  0.72448942245E+02  0.61384547459E+03  0.63063306559E+03  0.00000000000E+00 0. -1.
        -13    1    5    5    0    0 -0.40507338970E+02  0.11131162532E+03  0.58085506242E+03  0.59281002520E+03  0.00000000000E+00 0.  1.
          1    1    6    6  503    0 -0.13398929970E+03 -0.92912321561E+02 -0.58049388064E+02  0.17307675577E+03  0.00000000000E+00 0. -1.
         -1    1    6    6    0  503 -0.91841201431E+02  0.84808584262E+01 -0.41312995946E+01  0.92324421884E+02  0.00000000000E+00 0.  1.
<mgrwt>
<rscale>  0 0.27963924E+04</rscale>
<asrwt>0</asrwt>
<pdfrwt beam="1">  1        2 0.22380309E+00 0.27963924E+04</pdfrwt>
<pdfrwt beam="2">  1       -1 0.20674901E+00 0.27963924E+04</pdfrwt>
<totfact> 0.18059306E+00</totfact>
</mgrwt>
</event>
<event>
12    7  0.1546317E-007  0.1485376E+04  0.7818608E-02  0.8894236E-01
         -1   -1    0    0    0  501 -0.00000000000E+00  0.00000000000E+00  0.59688444189E+03  0.59688444189E+03  0.00000000000E+00 0.  1.
          2   -1    0    0  501    0  0.00000000000E+00 -0.00000000000E+00 -0.92410799372E+03  0.92410799372E+03  0.00000000000E+00 0. -1.
         24    2    1    2    0    0 -0.61760697588E+02  0.23187270881E+03  0.30573734209E+03  0.39662583070E+03  0.79103668556E+02 0.  0.
        254    2    1    2    0    0  0.61760697588E+02 -0.23187270881E+03 -0.63296089392E+03  0.11243666049E+04  0.89776468639E+03 0.  0.
         23    2    4    4    0    0  0.31134576281E+03  0.14564399981E+03 -0.18653041123E+02  0.35604644609E+03  0.90954808158E+02 0.  0.
         23    2    4    4    0    0 -0.24958506522E+03 -0.37751670862E+03 -0.61430785280E+03  0.76832015882E+03  0.90167390787E+02 0.  0.
          4    1    3    3  502    0 -0.43054529412E+01  0.63407265138E+01  0.51027636690E+02  0.51600013992E+02  0.00000000000E+00 0. -1.
         -3    1    3    3    0  502 -0.57455244646E+02  0.22553198229E+03  0.25470970540E+03  0.34502581671E+03  0.00000000000E+00 0.  1.
         13    1    5    5    0    0  0.29400334537E+03  0.13304854596E+03  0.67900046307E+01  0.32277854147E+03  0.00000000000E+00 0.  1.
        -13    1    5    5    0    0  0.17342417441E+02  0.12595453855E+02 -0.25443045753E+02  0.33267904619E+02  0.00000000000E+00 0. -1.
          2    1    6    6  503    0 -0.16772869613E+03 -0.24279621204E+03 -0.46787079907E+03  0.55316001365E+03  0.00000000000E+00 0.  1.
         -2    1    6    6    0  503 -0.81856369092E+02 -0.13472049658E+03 -0.14643705373E+03  0.21516014516E+03  0.00000000000E+00 0. -1.
<mgrwt>
<rscale>  0 0.14853763E+04</rscale>
<asrwt>0</asrwt>
<pdfrwt beam="1">  1        2 0.14217046E+00 0.14853763E+04</pdfrwt>
<pdfrwt beam="2">  1       -1 0.91828375E-01 0.14853763E+04</pdfrwt>
<totfact> 0.36030495E+01</totfact>
</mgrwt>
</event>
<event>
12    7  0.1546317E-007  0.1724670E+04  0.7818608E-02  0.8747418E-01
         -1   -1    0    0    0  501 -0.00000000000E+00  0.00000000000E+00  0.26239478650E+03  0.26239478650E+03  0.00000000000E+00 0.  1.
          2   -1    0    0  501    0  0.00000000000E+00 -0.00000000000E+00 -0.28339787144E+04  0.28339787144E+04  0.00000000000E+00 0. -1.
         24    2    1    2    0    0 -0.20363607986E+03  0.19106024270E+03  0.61857142789E+02  0.29704091943E+03  0.80220523199E+02 0.  0.
        254    2    1    2    0    0  0.20363607986E+03 -0.19106024270E+03 -0.26334410707E+04  0.27993325815E+04  0.90734743045E+03 0.  0.
         23    2    4    4    0    0  0.20638094314E+03  0.64140358434E+02 -0.10621571426E+03  0.25757857608E+03  0.91421363093E+02 0.  0.
         23    2    4    4    0    0 -0.27448632758E+01 -0.25520060113E+03 -0.25272253564E+04  0.25417540054E+04  0.92252591702E+02 0.  0.
          4    1    3    3  502    0 -0.25567778974E+02  0.62644895291E+02 -0.41549089875E+01  0.67789066201E+02  0.00000000000E+00 0. -1.
         -3    1    3    3    0  502 -0.17806830089E+03  0.12841534741E+03  0.66012051776E+02  0.22925185323E+03  0.00000000000E+00 0.  1.
         13    1    5    5    0    0  0.17548814079E+02  0.55423397812E+01  0.16632979692E+02  0.24805935162E+02  0.00000000000E+00 0. -1.
        -13    1    5    5    0    0  0.18883212906E+03  0.58598018653E+02 -0.12284869395E+03  0.23277264092E+03  0.00000000000E+00 0.  1.
          4    1    6    6  503    0  0.30281293143E+02 -0.18166518097E+03 -0.14767245572E+04  0.14881648473E+04  0.00000000000E+00 0. -1.
         -4    1    6    6    0  503 -0.33026156419E+02 -0.73535420166E+02 -0.10505007992E+04  0.10535891581E+04  0.00000000000E+00 0.  1.
<mgrwt>
<rscale>  0 0.17246695E+04</rscale>
<asrwt>0</asrwt>
<pdfrwt beam="1">  1        2 0.43599673E+00 0.17246695E+04</pdfrwt>
<pdfrwt beam="2">  1       -1 0.40368428E-01 0.17246695E+04</pdfrwt>
<totfact> 0.14329730E+01</totfact>
</mgrwt>
</event>
<event>
12    7  0.1546317E-007  0.1655032E+04  0.7818608E-02  0.8787435E-01
         -1   -1    0    0    0  501 -0.00000000000E+00  0.00000000000E+00  0.65556380133E+03  0.65556380133E+03  0.00000000000E+00 0.  1.
          2   -1    0    0  501    0  0.00000000000E+00 -0.00000000000E+00 -0.10445710304E+04  0.10445710304E+04  0.00000000000E+00 0. -1.
         24    2    1    2    0    0 -0.12645198567E+03 -0.22505745718E+03  0.39649043489E+03  0.47994412515E+03  0.80627133069E+02 0.  0.
        254    2    1    2    0    0  0.12645198567E+03  0.22505745718E+03 -0.78549766394E+03  0.12201907066E+04  0.89733929849E+03 0.  0.
         23    2    4    4    0    0  0.16602556356E+03 -0.30543718610E+03 -0.48178958593E+03  0.60070620327E+03  0.88715134685E+02 0.  0.
         23    2    4    4    0    0 -0.39573577893E+02  0.53049464328E+03 -0.30370807800E+03  0.61948450329E+03  0.92367843726E+02 0.  0.
          4    1    3    3  502    0 -0.91238306946E+02 -0.11329278091E+03  0.16146585594E+03  0.21732672522E+03  0.00000000000E+00 0. -1.
         -3    1    3    3    0  502 -0.35213678725E+02 -0.11176467628E+03  0.23502457895E+03  0.26261739993E+03  0.00000000000E+00 0.  1.
         13    1    5    5    0    0  0.14630385944E+03 -0.29462581181E+03 -0.41101071967E+03  0.52643993005E+03  0.00000000000E+00 0.  1.
        -13    1    5    5    0    0  0.19721704126E+02 -0.10811374290E+02 -0.70778866268E+02  0.74266273219E+02  0.00000000000E+00 0. -1.
          4    1    6    6  503    0 -0.54991992554E+02  0.41088205443E+03 -0.26828980863E+03  0.49378902713E+03  0.00000000000E+00 0.  1.
         -4    1    6    6    0  503  0.15418414661E+02  0.11961258885E+03 -0.35418269375E+02  0.12569547616E+03  0.00000000000E+00 0. -1.
<mgrwt>
<rscale>  0 0.16550323E+04</rscale>
<asrwt>0</asrwt>
<pdfrwt beam="1">  1        2 0.16070323E+00 0.16550323E+04</pdfrwt>
<pdfrwt beam="2">  1       -1 0.10085597E+00 0.16550323E+04</pdfrwt>
<totfact> 0.24025263E+01</totfact>
</mgrwt>
</event>
<event>
12    7  0.1546317E-007  0.2008432E+04  0.7818608E-02  0.8602688E-01
          2   -1    0    0  501    0  0.00000000000E+00  0.00000000000E+00  0.90703329865E+03  0.90703329865E+03  0.00000000000E+00 0. -1.
         -1   -1    0    0    0  501 -0.00000000000E+00 -0.00000000000E+00 -0.11118113562E+04  0.11118113562E+04  0.00000000000E+00 0.  1.
         24    2    1    2    0    0 -0.11452927121E+03  0.68150362668E+03 -0.48614149100E+03  0.84983548102E+03  0.91228550286E+02 0.  0.
        254    2    1    2    0    0  0.11452927121E+03 -0.68150362668E+03  0.28136343341E+03  0.11690091739E+04  0.89991828508E+03 0.  0.
         23    2    4    4    0    0  0.30523843674E+03  0.55270434468E+02 -0.61614134121E+02  0.32929883391E+03  0.91739284378E+02 0.  0.
         23    2    4    4    0    0 -0.19070916554E+03 -0.73677406115E+03  0.34297756753E+03  0.83971033997E+03  0.90960652104E+02 0.  0.
          2    1    3    3  502    0 -0.99662586520E+02  0.47353299678E+03 -0.29346789536E+03  0.56594128300E+03  0.00000000000E+00 0. -1.
         -1    1    3    3    0  502 -0.14866684686E+02  0.20797062990E+03 -0.19267359564E+03  0.28389419802E+03  0.00000000000E+00 0.  1.
         13    1    5    5    0    0  0.50400230578E+02  0.33346256446E+02 -0.40289373580E+02  0.72631877882E+02  0.00000000000E+00 0.  1.
        -13    1    5    5    0    0  0.25483820616E+03  0.21924178022E+02 -0.21324760542E+02  0.25666695603E+03  0.00000000000E+00 0. -1.
          1    1    6    6  503    0 -0.84972484493E+02 -0.49788395952E+03  0.23377217717E+03  0.55655924311E+03  0.00000000000E+00 0. -1.
         -1    1    6    6    0  503 -0.10573668104E+03 -0.23889010162E+03  0.10920539036E+03  0.28315109686E+03  0.00000000000E+00 0.  1.
<mgrwt>
<rscale>  0 0.20084321E+04</rscale>
<asrwt>0</asrwt>
<pdfrwt beam="1">  1        2 0.13954358E+00 0.20084321E+04</pdfrwt>
<pdfrwt beam="2">  1       -1 0.17104790E+00 0.20084321E+04</pdfrwt>
<totfact> 0.74265124E+00</totfact>
</mgrwt>
</event>
<event>
12    7  0.1546317E-007  0.1545961E+04  0.7818608E-02  0.8854451E-01
         -1   -1    0    0    0  501 -0.00000000000E+00  0.00000000000E+00  0.72482720906E+03  0.72482720906E+03  0.00000000000E+00 0.  1.
          2   -1    0    0  501    0  0.00000000000E+00 -0.00000000000E+00 -0.82433331294E+03  0.82433331294E+03  0.00000000000E+00 0. -1.
         24    2    1    2    0    0 -0.26688828466E+03  0.33959826511E+03 -0.30824407787E+03  0.53644599640E+03  0.78762664719E+02 0.  0.
        254    2    1    2    0    0  0.26688828466E+03 -0.33959826511E+03  0.20873797400E+03  0.10127145256E+04  0.89188722966E+03 0.  0.
         23    2    4    4    0    0  0.26725431055E+01 -0.70256648809E+02 -0.32994521966E+03  0.34934178523E+03  0.90734203792E+02 0.  0.
         23    2    4    4    0    0  0.26421574155E+03 -0.26934161630E+03  0.53868319366E+03  0.66337274038E+03  0.86769494544E+02 0.  0.
          2    1    3    3  502    0 -0.26411547494E+03  0.33733327108E+03 -0.31293419239E+03  0.53054550101E+03  0.00000000000E+00 0. -1.
         -1    1    3    3    0  502 -0.27728097168E+01  0.22649940363E+01  0.46901145114E+01  0.59004953894E+01  0.00000000000E+00 0.  1.
         13    1    5    5    0    0  0.21329727473E+02 -0.29626483079E+02 -0.27975171116E+03  0.28212356455E+03  0.00000000000E+00 0. -1.
        -13    1    5    5    0    0 -0.18657184367E+02 -0.40630165730E+02 -0.50193508499E+02  0.67218220679E+02  0.00000000000E+00 0.  1.
          1    1    6    6  503    0  0.11591931058E+03 -0.13289247434E+03  0.18020103499E+03  0.25213113515E+03  0.00000000000E+00 0. -1.
         -1    1    6    6    0  503  0.14829643097E+03 -0.13644914196E+03  0.35848215867E+03  0.41124160522E+03  0.00000000000E+00 0.  1.
<mgrwt>
<rscale>  0 0.15459615E+04</rscale>
<asrwt>0</asrwt>
<pdfrwt beam="1">  1        2 0.12682051E+00 0.15459615E+04</pdfrwt>
<pdfrwt beam="2">  1       -1 0.11151188E+00 0.15459615E+04</pdfrwt>
<totfact> 0.26881284E+01</totfact>
</mgrwt>
</event>
<event>
12    7  0.1546317E-007  0.1637289E+04  0.7818608E-02  0.8797962E-01
          2   -1    0    0  501    0  0.00000000000E+00  0.00000000000E+00  0.30431521717E+04  0.30431521717E+04  0.00000000000E+00 0. -1.
         -1   -1    0    0    0  501 -0.00000000000E+00 -0.00000000000E+00 -0.22022517193E+03  0.22022517193E+03  0.00000000000E+00 0.  1.
         24    2    1    2    0    0  0.23070387235E+03 -0.25968809506E+02  0.20092030588E+04  0.20242396617E+04  0.82162159900E+02 0.  0.
        254    2    1    2    0    0 -0.23070387235E+03  0.25968809506E+02  0.81372394092E+03  0.12391376819E+04  0.90521648626E+03 0.  0.
         23    2    4    4    0    0 -0.33588180096E+03  0.13976679619E+01 -0.60613248551E+02  0.35323541035E+03  0.91009623296E+02 0.  0.
         23    2    4    4    0    0  0.10517792861E+03  0.24571141545E+02  0.87433718948E+03  0.88590227159E+03  0.93226478274E+02 0.  0.
          4    1    3    3  502    0  0.15773351752E+03 -0.54276204122E+02  0.14568306191E+04  0.14663496247E+04  0.00000000000E+00 0. -1.
         -3    1    3    3    0  502  0.72970354832E+02  0.28307394615E+02  0.55237243970E+03  0.55789003703E+03  0.00000000000E+00 0.  1.
         13    1    5    5    0    0 -0.13333956661E+03 -0.39179305418E+02 -0.39274933969E+01  0.13903195029E+03  0.00000000000E+00 0.  1.
        -13    1    5    5    0    0 -0.20254223435E+03  0.40576973380E+02 -0.56685755154E+02  0.21420346006E+03  0.00000000000E+00 0. -1.
          2    1    6    6  503    0  0.54887325274E+02 -0.30004469052E+02  0.52869087664E+03  0.53237855863E+03  0.00000000000E+00 0. -1.
         -2    1    6    6    0  503  0.50290603340E+02  0.54575610596E+02  0.34564631283E+03  0.35352371297E+03  0.00000000000E+00 0.  1.
<mgrwt>
<rscale>  0 0.16372889E+04</rscale>
<asrwt>0</asrwt>
<pdfrwt beam="1">  1        2 0.46817723E+00 0.16372889E+04</pdfrwt>
<pdfrwt beam="2">  1       -1 0.33880798E-01 0.16372889E+04</pdfrwt>
<totfact> 0.14733162E+01</totfact>
</mgrwt>
</event>
<event>
12    7  0.1546317E-007  0.2350946E+04  0.7818608E-02  0.8458101E-01
         -1   -1    0    0    0  501 -0.00000000000E+00  0.00000000000E+00  0.44531610687E+03  0.44531610687E+03  0.00000000000E+00 0.  1.
          2   -1    0    0  501    0  0.00000000000E+00 -0.00000000000E+00 -0.31028211565E+04  0.31028211565E+04  0.00000000000E+00 0. -1.
         24    2    1    2    0    0  0.36724928853E+03 -0.63450606168E+03 -0.10276436057E+03  0.74454417448E+03  0.79470319764E+02 0.  0.
        254    2    1    2    0    0 -0.36724928853E+03  0.63450606168E+03 -0.25547406890E+04  0.28035930888E+04  0.89216827867E+03 0.  0.
         23    2    4    4    0    0 -0.58936214163E+03  0.15119570681E+03 -0.13599468405E+04  0.14926422266E+04  0.91200502980E+02 0.  0.
         23    2    4    4    0    0  0.22211285310E+03  0.48331035487E+03 -0.11947938485E+04  0.13109508623E+04  0.90204236429E+02 0.  0.
          2    1    3    3  502    0  0.58431457133E+02 -0.92263653311E+02 -0.44097754474E+02  0.11777703025E+03  0.00000000000E+00 0. -1.
         -1    1    3    3    0  502  0.30881783140E+03 -0.54224240836E+03 -0.58666606094E+02  0.62676714423E+03  0.00000000000E+00 0.  1.
         13    1    5    5    0    0 -0.23992759527E+03  0.10372946323E+03 -0.62558291864E+03  0.67799634262E+03  0.00000000000E+00 0.  1.
        -13    1    5    5    0    0 -0.34943454636E+03  0.47466243578E+02 -0.73436392190E+03  0.81464588397E+03  0.00000000000E+00 0. -1.
          3    1    6    6  503    0  0.10771817112E+03  0.24094214979E+03 -0.70232903931E+03  0.75028154942E+03  0.00000000000E+00 0. -1.
         -3    1    6    6    0  503  0.11439468198E+03  0.24236820508E+03 -0.49246480916E+03  0.56066931284E+03  0.00000000000E+00 0.  1.
<mgrwt>
<rscale>  0 0.23509455E+04</rscale>
<asrwt>0</asrwt>
<pdfrwt beam="1">  1        2 0.47735711E+00 0.23509455E+04</pdfrwt>
<pdfrwt beam="2">  1       -1 0.68510169E-01 0.23509455E+04</pdfrwt>
<totfact> 0.33218502E+00</totfact>
</mgrwt>
</event>
<event>
12    7  0.1546317E-007  0.1420525E+04  0.7818608E-02  0.8939094E-01
         -1   -1    0    0    0  501 -0.00000000000E+00  0.00000000000E+00  0.63809635037E+03  0.63809635037E+03  0.00000000000E+00 0.  1.
          2   -1    0    0  501    0  0.00000000000E+00 -0.00000000000E+00 -0.79059029544E+03  0.79059029544E+03  0.00000000000E+00 0. -1.
         24    2    1    2    0    0  0.88458154240E+02  0.30870510091E+03  0.22612634350E+03  0.40101117031E+03  0.80951535576E+02 0.  0.
        254    2    1    2    0    0 -0.88458154240E+02 -0.30870510091E+03 -0.37862028857E+03  0.10276754755E+04  0.89979990867E+03 0.  0.
         23    2    4    4    0    0 -0.43091484962E+03 -0.12672195252E+02 -0.35500823668E+03  0.56589742399E+03  0.91437706740E+02 0.  0.
         23    2    4    4    0    0  0.34245669538E+03 -0.29603290566E+03 -0.23612051896E+02  0.46177805151E+03  0.88144032225E+02 0.  0.
          2    1    3    3  502    0  0.10159254450E+03  0.25234902894E+03  0.17247871765E+03  0.32210244573E+03  0.00000000000E+00 0. -1.
         -1    1    3    3    0  502 -0.13134390263E+02  0.56356071971E+02  0.53647625851E+02  0.78908724582E+02  0.00000000000E+00 0.  1.
         13    1    5    5    0    0 -0.10438808992E+03 -0.42706914350E+02 -0.90977452732E+02  0.14490566157E+03  0.00000000000E+00 0. -1.
        -13    1    5    5    0    0 -0.32652675970E+03  0.30034719098E+02 -0.26403078395E+03  0.42099176242E+03  0.00000000000E+00 0.  1.
          4    1    6    6  503    0  0.48624012254E+02 -0.45423519691E+02 -0.35474780425E+02  0.75405906632E+02  0.00000000000E+00 0. -1.
         -4    1    6    6    0  503  0.29383268313E+03 -0.25060938596E+03  0.11862728530E+02  0.38637214488E+03  0.00000000000E+00 0.  1.
<mgrwt>
<rscale>  0 0.14205249E+04</rscale>
<asrwt>0</asrwt>
<pdfrwt beam="1">  1        2 0.12162928E+00 0.14205249E+04</pdfrwt>
<pdfrwt beam="2">  1       -1 0.98168669E-01 0.14205249E+04</pdfrwt>
<totfact> 0.38618848E+01</totfact>
</mgrwt>
</event>
<event>
12    7  0.1546317E-007  0.2590656E+04  0.7818608E-02  0.8371382E-01
         -1   -1    0    0    0  501 -0.00000000000E+00  0.00000000000E+00  0.85586379411E+03  0.85586379411E+03  0.00000000000E+00 0.  1.
          2   -1    0    0  501    0  0.00000000000E+00 -0.00000000000E+00 -0.19604456054E+04  0.19604456054E+04  0.00000000000E+00 0. -1.
         24    2    1    2    0    0 -0.33064438478E+03  0.11510778486E+03 -0.16841979079E+04  0.17218943133E+04  0.76301518010E+02 0.  0.
        254    2    1    2    0    0  0.33064438478E+03 -0.11510778486E+03  0.57961609669E+03  0.10944150862E+04  0.85977558119E+03 0.  0.
         23    2    4    4    0    0  0.39938290905E+03 -0.42516933796E+03  0.42060331204E+03  0.72498651893E+03  0.91774901510E+02 0.  0.
         23    2    4    4    0    0 -0.68738524279E+02  0.31006155310E+03  0.15901278465E+03  0.36942856726E+03  0.10163291394E+03 0.  0.
          2    1    3    3  502    0 -0.28456136403E+03  0.78499718583E+02 -0.12911359907E+04  0.13244506492E+04  0.00000000000E+00 0. -1.
         -1    1    3    3    0  502 -0.46083020747E+02  0.36608066280E+02 -0.39306191724E+03  0.39744366406E+03  0.00000000000E+00 0.  1.
         13    1    5    5    0    0  0.24294447190E+03 -0.30769879862E+03  0.31332810605E+03  0.50187156638E+03  0.00000000000E+00 0.  1.
        -13    1    5    5    0    0  0.15643843716E+03 -0.11747053934E+03  0.10727520599E+03  0.22311495255E+03  0.00000000000E+00 0. -1.
          1    1    6    6  503    0  0.12856511202E+02  0.99920954766E+01 -0.60495289352E+01  0.17370338300E+02  0.00000000000E+00 0. -1.
         -1    1    6    6    0  503 -0.81595035482E+02  0.30006945762E+03  0.16506231358E+03  0.35205822896E+03  0.00000000000E+00 0.  1.
<mgrwt>
<rscale>  0 0.25906558E+04</rscale>
<asrwt>0</asrwt>
<pdfrwt beam="1">  1        2 0.30160701E+00 0.25906558E+04</pdfrwt>
<pdfrwt beam="2">  1       -1 0.13167135E+00 0.25906558E+04</pdfrwt>
<totfact> 0.34758593E+00</totfact>
</mgrwt>
</event>
<event>
12    7  0.1546317E-007  0.1665913E+04  0.7818608E-02  0.8781048E-01
          2   -1    0    0  501    0  0.00000000000E+00  0.00000000000E+00  0.15972895245E+04  0.15972895245E+04  0.00000000000E+00 0. -1.
         -1   -1    0    0    0  501 -0.00000000000E+00 -0.00000000000E+00 -0.43437113942E+03  0.43437113942E+03  0.00000000000E+00 0.  1.
         24    2    1    2    0    0  0.20768138700E+03  0.17153805768E+02  0.10784568712E+04  0.11013147408E+04  0.79994523167E+02 0.  0.
        254    2    1    2    0    0 -0.20768138700E+03 -0.17153805768E+02  0.84461513856E+02  0.93034592308E+03  0.90276463030E+03 0.  0.
         23    2    4    4    0    0  0.54939855099E+02 -0.41756260185E+03  0.10163003289E+03  0.44257834876E+03  0.90388146708E+02 0.  0.
         23    2    4    4    0    0 -0.26262124210E+03  0.40040879608E+03 -0.17168519036E+02  0.48776757432E+03  0.91243233879E+02 0.  0.
          4    1    3    3  502    0  0.80498031325E+02  0.48086493358E+01  0.62557509819E+03  0.63075134533E+03  0.00000000000E+00 0. -1.
         -3    1    3    3    0  502  0.12718335567E+03  0.12345156432E+02  0.45288177301E+03  0.47056339549E+03  0.00000000000E+00 0.  1.
         13    1    5    5    0    0  0.71035774071E+02 -0.27040847351E+03  0.91603160992E+02  0.29420734669E+03  0.00000000000E+00 0.  1.
        -13    1    5    5    0    0 -0.16095918972E+02 -0.14715412834E+03  0.10026871900E+02  0.14837100207E+03  0.00000000000E+00 0. -1.
          3    1    6    6  503    0 -0.17756264317E+03  0.29473350191E+03  0.26891408699E+02  0.34513689640E+03  0.00000000000E+00 0. -1.
         -3    1    6    6    0  503 -0.85058598934E+02  0.10567529418E+03 -0.44059927735E+02  0.14263067792E+03  0.00000000000E+00 0.  1.
<mgrwt>
<rscale>  0 0.16659129E+04</rscale>
<asrwt>0</asrwt>
<pdfrwt beam="1">  1        2 0.24573685E+00 0.16659129E+04</pdfrwt>
<pdfrwt beam="2">  1       -1 0.66826330E-01 0.16659129E+04</pdfrwt>
<totfact> 0.27596211E+01</totfact>
</mgrwt>
</event>
<event>
12    7  0.1546317E-007  0.1396723E+04  0.7818608E-02  0.8956194E-01
         -1   -1    0    0    0  501 -0.00000000000E+00  0.00000000000E+00  0.70526747643E+03  0.70526747643E+03  0.00000000000E+00 0.  1.
          2   -1    0    0  501    0  0.00000000000E+00 -0.00000000000E+00 -0.69152320268E+03  0.69152320268E+03  0.00000000000E+00 0. -1.
         24    2    1    2    0    0  0.17842433488E+03 -0.23029101855E+03 -0.27713956978E+03  0.40968248243E+03  0.78512411575E+02 0.  0.
        254    2    1    2    0    0 -0.17842433488E+03  0.23029101855E+03  0.29088384353E+03  0.98710819667E+03  0.89716218434E+03 0.  0.
         23    2    4    4    0    0 -0.51090735732E+03  0.18640410581E+03  0.32038206758E+03  0.63837545846E+03  0.95423992301E+02 0.  0.
         23    2    4    4    0    0  0.33248302244E+03  0.43886912745E+02 -0.29498224052E+02  0.34873273822E+03  0.90957991174E+02 0.  0.
          2    1    3    3  502    0  0.17106511324E+03 -0.23664121565E+03 -0.26823113149E+03  0.39649751300E+03  0.00000000000E+00 0. -1.
         -1    1    3    3    0  502  0.73592216445E+01  0.63501970951E+01 -0.89084382859E+01  0.13184969437E+02  0.00000000000E+00 0.  1.
         13    1    5    5    0    0 -0.30665324835E+02  0.29923278919E+02  0.48651385911E+02  0.64828405190E+02  0.00000000000E+00 0. -1.
        -13    1    5    5    0    0 -0.48024203249E+03  0.15648082689E+03  0.27173068167E+03  0.57354705327E+03  0.00000000000E+00 0.  1.
          1    1    6    6  503    0  0.56040096070E+02  0.43659681588E+02 -0.61045277327E+01  0.71301650912E+02  0.00000000000E+00 0. -1.
         -1    1    6    6    0  503  0.27644292637E+03  0.22723115730E+00 -0.23393696319E+02  0.27743108730E+03  0.00000000000E+00 0.  1.
<mgrwt>
<rscale>  0 0.13967231E+04</rscale>
<asrwt>0</asrwt>
<pdfrwt beam="1">  1        2 0.10638819E+00 0.13967231E+04</pdfrwt>
<pdfrwt beam="2">  1       -1 0.10850269E+00 0.13967231E+04</pdfrwt>
<totfact> 0.36491430E+01</totfact>
</mgrwt>
</event>
<event>
12    7  0.1546317E-007  0.3228647E+04  0.7818608E-02  0.8181292E-01
          4   -1    0    0  501    0  0.00000000000E+00  0.00000000000E+00  0.78992378046E+03  0.78992378046E+03  0.00000000000E+00 0. -1.
         -3   -1    0    0    0  501 -0.00000000000E+00 -0.00000000000E+00 -0.32991041792E+04  0.32991041792E+04  0.00000000000E+00 0.  1.
         24    2    1    2    0    0  0.33185249498E+02  0.20244023400E+03 -0.30321211798E+04  0.30401160673E+04  0.80396168916E+02 0.  0.
        254    2    1    2    0    0 -0.33185249498E+02 -0.20244023400E+03  0.52294078109E+03  0.10489118924E+04  0.88581363076E+03 0.  0.
         23    2    4    4    0    0 -0.92536731526E+02 -0.50407275581E+03  0.51342173171E+03  0.73110892216E+03  0.90917499110E+02 0.  0.
         23    2    4    4    0    0  0.59351482028E+02  0.30163252182E+03  0.95190493807E+01  0.31780297027E+03  0.80020865871E+02 0.  0.
          4    1    3    3  502    0  0.29587128997E+02  0.39241468058E+02 -0.11054911936E+04  0.11065830606E+04  0.00000000000E+00 0. -1.
         -3    1    3    3    0  502  0.35981205019E+01  0.16319876594E+03 -0.19266299863E+04  0.19335330066E+04  0.00000000000E+00 0.  1.
         13    1    5    5    0    0 -0.24658094945E+02 -0.45798025383E+02  0.24284817300E+02  0.57404121164E+02  0.00000000000E+00 0. -1.
        -13    1    5    5    0    0 -0.67878636581E+02 -0.45827473043E+03  0.48913691441E+03  0.67370480100E+03  0.00000000000E+00 0.  1.
          4    1    6    6  503    0  0.91407360866E+01 -0.17333522173E+01 -0.37327191556E+01  0.10024507889E+02  0.00000000000E+00 0. -1.
         -4    1    6    6    0  503  0.50210745941E+02  0.30336587403E+03  0.13251768536E+02  0.30777846238E+03  0.00000000000E+00 0.  1.
<mgrwt>
<rscale>  0 0.32286473E+04</rscale>
<asrwt>0</asrwt>
<pdfrwt beam="1">  1        4 0.12152674E+00 0.32286473E+04</pdfrwt>
<pdfrwt beam="2">  1       -3 0.50755449E+00 0.32286473E+04</pdfrwt>
<totfact> 0.27154287E-03</totfact>
</mgrwt>
</event>
<event>
12    7  0.1546317E-007  0.1604526E+04  0.7818608E-02  0.8817773E-01
          2   -1    0    0  501    0  0.00000000000E+00  0.00000000000E+00  0.83920413855E+03  0.83920413855E+03  0.00000000000E+00 0. -1.
         -1   -1    0    0    0  501 -0.00000000000E+00 -0.00000000000E+00 -0.76694756405E+03  0.76694756405E+03  0.00000000000E+00 0.  1.
         24    2    1    2    0    0 -0.37311309104E+03  0.41608133080E+02  0.40964005626E+03  0.56080713030E+03  0.75862021119E+02 0.  0.
        254    2    1    2    0    0  0.37311309104E+03 -0.41608133080E+02 -0.33738348176E+03  0.10453445723E+04  0.91540867684E+03 0.  0.
         23    2    4    4    0    0  0.26104670683E+03  0.38932425189E+03 -0.43290983240E+00  0.47796646028E+03  0.93450486801E+02 0.  0.
         23    2    4    4    0    0  0.11206638421E+03 -0.43093238497E+03 -0.33695057193E+03  0.56737811202E+03  0.10060138759E+03 0.  0.
          4    1    3    3  502    0 -0.36337598009E+03  0.27488630749E+02  0.40009691509E+03  0.54117951660E+03  0.00000000000E+00 0. -1.
         -1    1    3    3    0  502 -0.97371109589E+01  0.14119502331E+02  0.95431411709E+01  0.19627613694E+02  0.00000000000E+00 0.  1.
         13    1    5    5    0    0  0.21971393028E+03  0.30498528265E+03 -0.35841895586E+02  0.37759088346E+03  0.00000000000E+00 0.  1.
        -13    1    5    5    0    0  0.41332776557E+02  0.84338969244E+02  0.35408985754E+02  0.10037557683E+03  0.00000000000E+00 0. -1.
          3    1    6    6  503    0  0.11797886696E+03 -0.34081179265E+03 -0.30248449411E+03  0.47071069696E+03  0.00000000000E+00 0. -1.
         -3    1    6    6    0  503 -0.59124827520E+01 -0.90120592324E+02 -0.34466077818E+02  0.96667415054E+02  0.00000000000E+00 0.  1.
<mgrwt>
<rscale>  0 0.16045256E+04</rscale>
<asrwt>0</asrwt>
<pdfrwt beam="1">  1        2 0.12910833E+00 0.16045256E+04</pdfrwt>
<pdfrwt beam="2">  1       -1 0.11799193E+00 0.16045256E+04</pdfrwt>
<totfact> 0.22805746E+01</totfact>
</mgrwt>
</event>
<event>
12    7  0.1546317E-007  0.1272249E+04  0.7818608E-02  0.9051866E-01
         -1   -1    0    0    0  501 -0.00000000000E+00  0.00000000000E+00  0.28953664176E+03  0.28953664176E+03  0.00000000000E+00 0.  1.
          2   -1    0    0  501    0  0.00000000000E+00 -0.00000000000E+00 -0.13975922506E+04  0.13975922506E+04  0.00000000000E+00 0. -1.
         24    2    1    2    0    0  0.10925399655E+03 -0.28328787227E+03 -0.35841478921E+03  0.47628560408E+03  0.78729671627E+02 0.  0.
        254    2    1    2    0    0 -0.10925399655E+03  0.28328787227E+03 -0.74964081967E+03  0.12108432883E+04  0.90110579624E+03 0.  0.
         23    2    4    4    0    0 -0.29016323385E+03 -0.18671060553E+03 -0.76618539051E+02  0.36524364898E+03  0.92070462679E+02 0.  0.
         23    2    4    4    0    0  0.18090923731E+03  0.46999847780E+03 -0.67302228062E+03  0.84559963934E+03  0.91940407605E+02 0.  0.
          2    1    3    3  502    0  0.72037399000E+02 -0.11123692835E+03 -0.19715796248E+03  0.23755905214E+03  0.00000000000E+00 0. -1.
         -1    1    3    3    0  502  0.37216597550E+02 -0.17205094392E+03 -0.16125682673E+03  0.23872655194E+03  0.00000000000E+00 0.  1.
         13    1    5    5    0    0 -0.17024677462E+03 -0.13848890410E+03 -0.96441000767E+01  0.21967282375E+03  0.00000000000E+00 0. -1.
        -13    1    5    5    0    0 -0.11991645923E+03 -0.48221701437E+02 -0.66974438974E+02  0.14557082524E+03  0.00000000000E+00 0.  1.
          2    1    6    6  503    0  0.74748953340E+02  0.31190898582E+03 -0.44445725580E+03  0.54810297727E+03  0.00000000000E+00 0. -1.
         -2    1    6    6    0  503  0.10616028397E+03  0.15808949198E+03 -0.22856502482E+03  0.29749666206E+03  0.00000000000E+00 0.  1.
<mgrwt>
<rscale>  0 0.12722487E+04</rscale>
<asrwt>0</asrwt>
<pdfrwt beam="1">  1        2 0.21501419E+00 0.12722487E+04</pdfrwt>
<pdfrwt beam="2">  1       -1 0.44544100E-01 0.12722487E+04</pdfrwt>
<totfact> 0.81064132E+01</totfact>
</mgrwt>
</event>
<event>
12    7  0.1620395E-007  0.2642978E+04  0.7818608E-02  0.8353747E-01
          2   -1    0    0  501    0  0.00000000000E+00  0.00000000000E+00  0.10128351495E+04  0.10128351495E+04  0.00000000000E+00 0. -1.
         -1   -1    0    0    0  501 -0.00000000000E+00 -0.00000000000E+00 -0.17242031280E+04  0.17242031280E+04  0.00000000000E+00 0.  1.
         24    2    1    2    0    0  0.96409769824E+03  0.40544198861E+03 -0.86053393011E+03  0.13570339368E+04  0.84586540343E+02 0.  0.
        254    2    1    2    0    0 -0.96409769824E+03 -0.40544198861E+03  0.14916595163E+03  0.13800043407E+04  0.88785917875E+03 0.  0.
         23    2    4    4    0    0 -0.37942020256E+03  0.39639742239E+01 -0.33396605273E+03  0.51346362310E+03  0.90200691067E+02 0.  0.
         23    2    4    4    0    0 -0.58467749569E+03 -0.40940596284E+03  0.48313200436E+03  0.86654071759E+03  0.89528013666E+02 0.  0.
          2    1    3    3  502    0  0.29062103799E+03  0.12035402312E+03 -0.31007021630E+03  0.44168905085E+03  0.00000000000E+00 0. -1.
         -1    1    3    3    0  502  0.67347666025E+03  0.28508796549E+03 -0.55046371381E+03  0.91534488592E+03  0.00000000000E+00 0.  1.
         13    1    5    5    0    0 -0.21714856891E+03  0.39653181335E+02 -0.15805011734E+03  0.27148796540E+03  0.00000000000E+00 0. -1.
        -13    1    5    5    0    0 -0.16227163365E+03 -0.35689207111E+02 -0.17591593539E+03  0.24197565769E+03  0.00000000000E+00 0.  1.
          3    1    6    6  503    0 -0.79827809216E+02 -0.91327681762E+02  0.62215286091E+02  0.13632302228E+03  0.00000000000E+00 0. -1.
         -3    1    6    6    0  503 -0.50484968647E+03 -0.31807828107E+03  0.42091671827E+03  0.73021769530E+03  0.00000000000E+00 0.  1.
<mgrwt>
<rscale>  0 0.26429783E+04</rscale>
<asrwt>0</asrwt>
<pdfrwt beam="1">  1        2 0.15582080E+00 0.26429783E+04</pdfrwt>
<pdfrwt beam="2">  1       -1 0.26526201E+00 0.26429783E+04</pdfrwt>
<totfact> 0.13771904E+00</totfact>
</mgrwt>
</event>
<event>
12    7  0.1546317E-007  0.1216064E+04  0.7818608E-02  0.9098911E-01
         -1   -1    0    0    0  501 -0.00000000000E+00  0.00000000000E+00  0.99133111787E+02  0.99133111787E+02  0.00000000000E+00 0.  1.
          2   -1    0    0  501    0  0.00000000000E+00 -0.00000000000E+00 -0.37293593780E+04  0.37293593780E+04  0.00000000000E+00 0. -1.
         24    2    1    2    0    0 -0.19041442864E+03  0.15494297720E+02 -0.24079661567E+03  0.31752648437E+03  0.79638748498E+02 0.  0.
        254    2    1    2    0    0  0.19041442864E+03 -0.15494297720E+02 -0.33894296505E+04  0.35109660054E+04  0.89562894510E+03 0.  0.
         23    2    4    4    0    0  0.46261247358E+03  0.17186632257E+03 -0.26303303549E+04  0.26777921336E+04  0.91567467857E+02 0.  0.
         23    2    4    4    0    0 -0.27219804493E+03 -0.18736062029E+03 -0.75909929564E+03  0.83317387184E+03  0.93547754506E+02 0.  0.
          2    1    3    3  502    0 -0.25673271855E+02  0.25229518577E+02 -0.17937528094E+02  0.40216916956E+02  0.00000000000E+00 0. -1.
         -1    1    3    3    0  502 -0.16474115679E+03 -0.97352208563E+01 -0.22285908758E+03  0.27730956742E+03  0.00000000000E+00 0.  1.
         13    1    5    5    0    0  0.39292550129E+03  0.17004893397E+03 -0.23659011109E+04  0.24043284210E+04  0.00000000000E+00 0. -1.
        -13    1    5    5    0    0  0.69686972282E+02  0.18173886081E+01 -0.26442924404E+03  0.27346371260E+03  0.00000000000E+00 0.  1.
          3    1    6    6  503    0 -0.15680650579E+03 -0.53878373640E+02 -0.40238881240E+03  0.43521019720E+03  0.00000000000E+00 0. -1.
         -3    1    6    6    0  503 -0.11539153914E+03 -0.13348224665E+03 -0.35671048323E+03  0.39796367463E+03  0.00000000000E+00 0.  1.
<mgrwt>
<rscale>  0 0.12160641E+04</rscale>
<asrwt>0</asrwt>
<pdfrwt beam="1">  1        2 0.57374757E+00 0.12160641E+04</pdfrwt>
<pdfrwt beam="2">  1       -1 0.15251249E-01 0.12160641E+04</pdfrwt>
<totfact> 0.20585343E+01</totfact>
</mgrwt>
</event>
<event>
12    7  0.1546317E-007  0.4935783E+04  0.7818608E-02  0.7838490E-01
          2   -1    0    0  501    0  0.00000000000E+00  0.00000000000E+00  0.32262793179E+04  0.32262793179E+04  0.00000000000E+00 0. -1.
         -1   -1    0    0    0  501 -0.00000000000E+00 -0.00000000000E+00 -0.18877747987E+04  0.18877747987E+04  0.00000000000E+00 0.  1.
         24    2    1    2    0    0  0.10586870602E+04  0.21369944378E+04  0.67645707026E+03  0.24801741399E+04  0.78141396190E+02 0.  0.
        254    2    1    2    0    0 -0.10586870602E+04 -0.21369944378E+04  0.66204744900E+03  0.26338799767E+04  0.90080707627E+03 0.  0.
         23    2    4    4    0    0 -0.73661401990E+03 -0.62050466583E+03  0.44852714872E+03  0.10662414215E+04  0.89821551545E+02 0.  0.
         23    2    4    4    0    0 -0.32207304026E+03 -0.15164897719E+04  0.21352030028E+03  0.15676385552E+04  0.91801141453E+02 0.  0.
          4    1    3    3  502    0  0.30127152165E+03  0.65150503362E+03  0.17224877961E+03  0.73816866682E+03  0.00000000000E+00 0. -1.
         -3    1    3    3    0  502  0.75741553850E+03  0.14854894042E+04  0.50420829066E+03  0.17420054731E+04  0.00000000000E+00 0.  1.
         13    1    5    5    0    0 -0.39758359295E+03 -0.35438267484E+03  0.20131380624E+03  0.56937425494E+03  0.00000000000E+00 0. -1.
        -13    1    5    5    0    0 -0.33903042695E+03 -0.26612199099E+03  0.24721334248E+03  0.49686716654E+03  0.00000000000E+00 0.  1.
          4    1    6    6  503    0 -0.13043185730E+03 -0.79406927224E+03  0.13753226856E+03  0.81637834575E+03  0.00000000000E+00 0. -1.
         -4    1    6    6    0  503 -0.19164118296E+03 -0.72242049970E+03  0.75988031720E+02  0.75126020949E+03  0.00000000000E+00 0.  1.
<mgrwt>
<rscale>  0 0.49357831E+04</rscale>
<asrwt>0</asrwt>
<pdfrwt beam="1">  1        2 0.49635066E+00 0.49357831E+04</pdfrwt>
<pdfrwt beam="2">  1       -1 0.29042689E+00 0.49357831E+04</pdfrwt>
<totfact> 0.39435154E-02</totfact>
</mgrwt>
</event>
<event>
12    7  0.1546317E-007  0.5627181E+04  0.7818608E-02  0.7738427E-01
          2   -1    0    0  501    0  0.00000000000E+00  0.00000000000E+00  0.29374656897E+04  0.29374656897E+04  0.00000000000E+00 0. -1.
         -1   -1    0    0    0  501 -0.00000000000E+00 -0.00000000000E+00 -0.26949390829E+04  0.26949390829E+04  0.00000000000E+00 0.  1.
         24    2    1    2    0    0 -0.11941868670E+04  0.15748912657E+04 -0.17879235094E+04  0.26663125097E+04  0.78658450557E+02 0.  0.
        254    2    1    2    0    0  0.11941868670E+04 -0.15748912657E+04  0.20304501161E+04  0.29660922629E+04  0.87670454868E+03 0.  0.
         23    2    4    4    0    0  0.17854177470E+03  0.82051997970E+02  0.19377950571E+03  0.29048075121E+03  0.90658007411E+02 0.  0.
         23    2    4    4    0    0  0.10156450923E+04 -0.16569432637E+04  0.18366706104E+04  0.26756115117E+04  0.92423468856E+02 0.  0.
          4    1    3    3  502    0 -0.23591281218E+03  0.27335332756E+03 -0.35392868113E+03  0.50561092547E+03  0.00000000000E+00 0. -1.
         -3    1    3    3    0  502 -0.95827405486E+03  0.13015379382E+04 -0.14339948282E+04  0.21607015842E+04  0.00000000000E+00 0.  1.
         13    1    5    5    0    0  0.16308150110E+03  0.47664200756E+02  0.12123400181E+03  0.20872262750E+03  0.00000000000E+00 0. -1.
        -13    1    5    5    0    0  0.15460273597E+02  0.34387797213E+02  0.72545503896E+02  0.81758123709E+02  0.00000000000E+00 0.  1.
          2    1    6    6  503    0  0.53382069003E+03 -0.78250822486E+03  0.89550636380E+03  0.13035395271E+04  0.00000000000E+00 0.  1.
         -2    1    6    6    0  503  0.48182440231E+03 -0.87443503883E+03  0.94116424659E+03  0.13720719846E+04  0.00000000000E+00 0. -1.
<mgrwt>
<rscale>  0 0.56271809E+04</rscale>
<asrwt>0</asrwt>
<pdfrwt beam="1">  1        2 0.45191780E+00 0.56271809E+04</pdfrwt>
<pdfrwt beam="2">  1       -1 0.41460601E+00 0.56271809E+04</pdfrwt>
<totfact> 0.85366338E-03</totfact>
</mgrwt>
</event>
<event>
12    7  0.1546317E-007  0.1670563E+04  0.7818608E-02  0.8778334E-01
          2   -1    0    0  501    0  0.00000000000E+00  0.00000000000E+00  0.20087329547E+04  0.20087329547E+04  0.00000000000E+00 0. -1.
         -1   -1    0    0    0  501 -0.00000000000E+00 -0.00000000000E+00 -0.34733104150E+03  0.34733104150E+03  0.00000000000E+00 0.  1.
         24    2    1    2    0    0  0.12913247002E+03  0.18658143418E+03  0.13550140058E+04  0.13762954575E+04  0.81476401823E+02 0.  0.
        254    2    1    2    0    0 -0.12913247002E+03 -0.18658143418E+03  0.30638790748E+03  0.97976853878E+03  0.90254363514E+03 0.  0.
         23    2    4    4    0    0 -0.16154679536E+03 -0.16406735030E+03  0.61068378435E+03  0.65928821668E+03  0.93331696922E+02 0.  0.
         23    2    4    4    0    0  0.32414325338E+02 -0.22514083879E+02 -0.30429587687E+03  0.32048032210E+03  0.92488289614E+02 0.  0.
          2    1    3    3  502    0  0.12024595455E+03  0.15165944552E+03  0.93991517491E+03  0.95963545840E+03  0.00000000000E+00 0. -1.
         -1    1    3    3    0  502  0.88865154736E+01  0.34921988664E+02  0.41509883085E+03  0.41665999906E+03  0.00000000000E+00 0.  1.
         13    1    5    5    0    0 -0.14837426559E+03 -0.10542750533E+03  0.38693247062E+03  0.42760568096E+03  0.00000000000E+00 0. -1.
        -13    1    5    5    0    0 -0.13172529774E+02 -0.58639844966E+02  0.22375131374E+03  0.23168253572E+03  0.00000000000E+00 0.  1.
          2    1    6    6  503    0  0.52083517474E+02  0.18336776504E+02 -0.16733610513E+03  0.17621095949E+03  0.00000000000E+00 0. -1.
         -2    1    6    6    0  503 -0.19669192136E+02 -0.40850860383E+02 -0.13695977174E+03  0.14426936262E+03  0.00000000000E+00 0.  1.
<mgrwt>
<rscale>  0 0.16705631E+04</rscale>
<asrwt>0</asrwt>
<pdfrwt beam="1">  1        2 0.30903583E+00 0.16705631E+04</pdfrwt>
<pdfrwt beam="2">  1       -1 0.53435546E-01 0.16705631E+04</pdfrwt>
<totfact> 0.25361541E+01</totfact>
</mgrwt>
</event>
<event>
12    7  0.1546317E-007  0.2647404E+04  0.7818608E-02  0.8352275E-01
         -1   -1    0    0    0  501 -0.00000000000E+00  0.00000000000E+00  0.24942794490E+04  0.24942794490E+04  0.00000000000E+00 0.  1.
          2   -1    0    0  501    0  0.00000000000E+00 -0.00000000000E+00 -0.70248241378E+03  0.70248241378E+03  0.00000000000E+00 0. -1.
         24    2    1    2    0    0  0.62002806267E+03  0.75846454293E+03  0.15540262458E+04  0.18386256711E+04  0.76442948131E+02 0.  0.
        254    2    1    2    0    0 -0.62002806267E+03 -0.75846454293E+03  0.23777078946E+03  0.13581361917E+04  0.91010752422E+03 0.  0.
         23    2    4    4    0    0 -0.16148701717E+03  0.88229961782E+02  0.32880060571E+03  0.38646706786E+03  0.85932376632E+02 0.  0.
         23    2    4    4    0    0 -0.45854104549E+03 -0.84669450471E+03 -0.91029816252E+02  0.97166912389E+03  0.93289785901E+02 0.  0.
          4    1    3    3  502    0  0.21619425568E+03  0.30309825391E+03  0.53824882777E+03  0.65446184633E+03  0.00000000000E+00 0. -1.
         -3    1    3    3    0  502  0.40383380698E+03  0.45536628903E+03  0.10157774180E+04  0.11841638247E+04  0.00000000000E+00 0.  1.
         13    1    5    5    0    0  0.65792934522E+00  0.18143079868E+02  0.71671255932E+01  0.19518501669E+02  0.00000000000E+00 0.  1.
        -13    1    5    5    0    0 -0.16214494652E+03  0.70086881914E+02  0.32163348012E+03  0.36694856619E+03  0.00000000000E+00 0. -1.
          2    1    6    6  503    0 -0.22042760858E+03 -0.49971928277E+03 -0.37562023413E+02  0.54746561335E+03  0.00000000000E+00 0. -1.
         -2    1    6    6    0  503 -0.23811343692E+03 -0.34697522195E+03 -0.53467792838E+02  0.42420351054E+03  0.00000000000E+00 0.  1.
<mgrwt>
<rscale>  0 0.26474043E+04</rscale>
<asrwt>0</asrwt>
<pdfrwt beam="1">  1        2 0.10807422E+00 0.26474043E+04</pdfrwt>
<pdfrwt beam="2">  1       -1 0.38373530E+00 0.26474043E+04</pdfrwt>
<totfact> 0.37834160E-01</totfact>
</mgrwt>
</event>
<event>
12    7  0.1546317E-007  0.1601410E+04  0.7818608E-02  0.8819682E-01
          2   -1    0    0  501    0  0.00000000000E+00  0.00000000000E+00  0.12051366327E+04  0.12051366327E+04  0.00000000000E+00 0. -1.
         -1   -1    0    0    0  501 -0.00000000000E+00 -0.00000000000E+00 -0.53199651090E+03  0.53199651090E+03  0.00000000000E+00 0.  1.
         24    2    1    2    0    0  0.37466195357E+03 -0.37042994419E+03  0.85263286888E+02  0.53979153225E+03  0.80716461726E+02 0.  0.
        254    2    1    2    0    0 -0.37466195357E+03  0.37042994419E+03  0.58787683495E+03  0.11973416114E+04  0.90024321064E+03 0.  0.
         23    2    4    4    0    0 -0.28819958430E+03  0.37379206940E+02 -0.17889622988E+03  0.35272861704E+03  0.89204320032E+02 0.  0.
         23    2    4    4    0    0 -0.86462369274E+02  0.33305073725E+03  0.76677306483E+03  0.84461299436E+03  0.83854888983E+02 0.  0.
          2    1    3    3  502    0  0.37413594357E+03 -0.37104816700E+03  0.78221987866E+02  0.53270360041E+03  0.00000000000E+00 0. -1.
         -1    1    3    3    0  502  0.52601000780E+00  0.61822280640E+00  0.70412990220E+01  0.70879318481E+01  0.00000000000E+00 0.  1.
         13    1    5    5    0    0 -0.23140804443E+03  0.19090527981E+00 -0.11076594217E+03  0.25655177532E+03  0.00000000000E+00 0.  1.
        -13    1    5    5    0    0 -0.56791539866E+02  0.37188301660E+02 -0.68130287706E+02  0.96176841722E+02  0.00000000000E+00 0. -1.
          3    1    6    6  503    0  0.20235577661E+01 -0.29753355528E+01  0.27660293112E+02  0.27893354454E+02  0.00000000000E+00 0. -1.
         -3    1    6    6    0  503 -0.88485927040E+02  0.33602607280E+03  0.73911277172E+03  0.81671963990E+03  0.00000000000E+00 0.  1.
<mgrwt>
<rscale>  0 0.16014100E+04</rscale>
<asrwt>0</asrwt>
<pdfrwt beam="1">  1        2 0.18540563E+00 0.16014100E+04</pdfrwt>
<pdfrwt beam="2">  1       -1 0.81845617E-01 0.16014100E+04</pdfrwt>
<totfact> 0.30550530E+01</totfact>
</mgrwt>
</event>
<event>
12    7  0.1546317E-007  0.2114226E+04  0.7818608E-02  0.8555003E-01
          2   -1    0    0  501    0  0.00000000000E+00  0.00000000000E+00  0.11982681518E+04  0.11982681518E+04  0.00000000000E+00 0. -1.
         -1   -1    0    0    0  501 -0.00000000000E+00 -0.00000000000E+00 -0.93258568287E+03  0.93258568287E+03  0.00000000000E+00 0.  1.
         24    2    1    2    0    0 -0.40571037285E+03  0.11528225816E+03 -0.64319606082E+03  0.77311216231E+03  0.78168645729E+02 0.  0.
        254    2    1    2    0    0  0.40571037285E+03 -0.11528225816E+03  0.90887852973E+03  0.13577416724E+04  0.91624852597E+03 0.  0.
         23    2    4    4    0    0  0.32433972318E+03 -0.21633441610E+03  0.10612830490E+04  0.11349551469E+04  0.99018379937E+02 0.  0.
         23    2    4    4    0    0  0.81370649669E+02  0.10105215794E+03 -0.15240451931E+03  0.22278652550E+03  0.97846702473E+02 0.  0.
          4    1    3    3  502    0 -0.23299491348E+02 -0.95138754584E+01 -0.24352383312E+02  0.35020261225E+02  0.00000000000E+00 0. -1.
         -3    1    3    3    0  502 -0.38241088150E+03  0.12479613362E+03 -0.61884367750E+03  0.73809190108E+03  0.00000000000E+00 0.  1.
         13    1    5    5    0    0  0.25535559871E+03 -0.18515686517E+03  0.94455618401E+03  0.99582926813E+03  0.00000000000E+00 0.  1.
        -13    1    5    5    0    0  0.68984124467E+02 -0.31177550931E+02  0.11672686503E+03  0.13912587872E+03  0.00000000000E+00 0. -1.
          4    1    6    6  503    0  0.14241474383E+02  0.90588928646E+02 -0.66565103268E+02  0.11331410574E+03  0.00000000000E+00 0. -1.
         -4    1    6    6    0  503  0.67129175286E+02  0.10463229297E+02 -0.85839416041E+02  0.10947241976E+03  0.00000000000E+00 0.  1.
<mgrwt>
<rscale>  0 0.21142258E+04</rscale>
<asrwt>0</asrwt>
<pdfrwt beam="1">  1        2 0.18434895E+00 0.21142258E+04</pdfrwt>
<pdfrwt beam="2">  1       -1 0.14347472E+00 0.21142258E+04</pdfrwt>
<totfact> 0.78298753E+00</totfact>
</mgrwt>
</event>
<event>
12    7  0.1546317E-007  0.1438471E+04  0.7818608E-02  0.8926433E-01
          2   -1    0    0  501    0  0.00000000000E+00  0.00000000000E+00  0.80618804824E+03  0.80618804824E+03  0.00000000000E+00 0. -1.
         -1   -1    0    0    0  501 -0.00000000000E+00 -0.00000000000E+00 -0.64166127496E+03  0.64166127496E+03  0.00000000000E+00 0.  1.
         24    2    1    2    0    0  0.98500694934E+02  0.36405291314E+03 -0.16571510435E+03  0.41952493129E+03  0.79389934461E+02 0.  0.
        254    2    1    2    0    0 -0.98500694934E+02 -0.36405291314E+03  0.33024187763E+03  0.10283243919E+04  0.89786103979E+03 0.  0.
         23    2    4    4    0    0  0.25258322554E+03 -0.20828476158E+03  0.49500790249E+03  0.60061936363E+03  0.92357829693E+02 0.  0.
         23    2    4    4    0    0 -0.35108392047E+03 -0.15576815156E+03 -0.16476602486E+03  0.42770502828E+03  0.90885158401E+02 0.  0.
          4    1    3    3  502    0  0.14588309051E+02  0.19352274335E+03 -0.10079296516E+03  0.21868491667E+03  0.00000000000E+00 0. -1.
         -3    1    3    3    0  502  0.83912385883E+02  0.17053016979E+03 -0.64922139191E+02  0.20084001462E+03  0.00000000000E+00 0.  1.
         13    1    5    5    0    0  0.96517483814E+02 -0.28771233489E+02  0.17462576897E+03  0.20158761804E+03  0.00000000000E+00 0. -1.
        -13    1    5    5    0    0  0.15606574172E+03 -0.17951352809E+03  0.32038213352E+03  0.39903174559E+03  0.00000000000E+00 0.  1.
          3    1    6    6  503    0 -0.18568441526E+03 -0.13088525507E+03 -0.87266616407E+02  0.24336210553E+03  0.00000000000E+00 0. -1.
         -3    1    6    6    0  503 -0.16539950521E+03 -0.24882896489E+02 -0.77499408450E+02  0.18434292276E+03  0.00000000000E+00 0.  1.
<mgrwt>
<rscale>  0 0.14384709E+04</rscale>
<asrwt>0</asrwt>
<pdfrwt beam="1">  1        2 0.12402893E+00 0.14384709E+04</pdfrwt>
<pdfrwt beam="2">  1       -1 0.98717119E-01 0.14384709E+04</pdfrwt>
<totfact> 0.37101101E+01</totfact>
</mgrwt>
</event>
<event>
12    7  0.1546317E-007  0.1940657E+04  0.7818608E-02  0.8634879E-01
          2   -1    0    0  501    0  0.00000000000E+00  0.00000000000E+00  0.24141566541E+04  0.24141566541E+04  0.00000000000E+00 0. -1.
         -1   -1    0    0    0  501 -0.00000000000E+00 -0.00000000000E+00 -0.39000677110E+03  0.39000677110E+03  0.00000000000E+00 0.  1.
         24    2    1    2    0    0  0.14398707859E+03  0.19042451774E+03 -0.24075786438E+03  0.34842772237E+03  0.80272988572E+02 0.  0.
        254    2    1    2    0    0 -0.14398707859E+03 -0.19042451774E+03  0.22649077474E+04  0.24557357028E+04  0.91860598860E+03 0.  0.
         23    2    4    4    0    0 -0.93930231717E+02 -0.55022544073E+03  0.15240870072E+04  0.16256117841E+04  0.90562370943E+02 0.  0.
         23    2    4    4    0    0 -0.50056846868E+02  0.35980092299E+03  0.74082074017E+03  0.83012391873E+03  0.91257653248E+02 0.  0.
          4    1    3    3  502    0  0.37504002882E+02  0.32413033005E+02 -0.12554448120E+02  0.51134813076E+02  0.00000000000E+00 0. -1.
         -3    1    3    3    0  502  0.10648307570E+03  0.15801148474E+03 -0.22820341626E+03  0.29729290929E+03  0.00000000000E+00 0.  1.
         13    1    5    5    0    0 -0.56375075871E+02 -0.48284919479E+03  0.12613574921E+04  0.13517929638E+04  0.00000000000E+00 0. -1.
        -13    1    5    5    0    0 -0.37555155846E+02 -0.67376245939E+02  0.26272951515E+03  0.27381882035E+03  0.00000000000E+00 0.  1.
          1    1    6    6  503    0 -0.39609079185E+02  0.20661224503E+03  0.52208145349E+03  0.56287346982E+03  0.00000000000E+00 0. -1.
         -1    1    6    6    0  503 -0.10447767684E+02  0.15318867795E+03  0.21873928668E+03  0.26725044891E+03  0.00000000000E+00 0.  1.
<mgrwt>
<rscale>  0 0.19406570E+04</rscale>
<asrwt>0</asrwt>
<pdfrwt beam="1">  1        2 0.37140871E+00 0.19406570E+04</pdfrwt>
<pdfrwt beam="2">  1       -1 0.60001043E-01 0.19406570E+04</pdfrwt>
<totfact> 0.11684530E+01</totfact>
</mgrwt>
</event>
<event>
12    7  0.1546317E-007  0.1367657E+04  0.7818608E-02  0.8977569E-01
         -3   -1    0    0    0  501 -0.00000000000E+00  0.00000000000E+00  0.82348985332E+03  0.82348985332E+03  0.00000000000E+00 0.  1.
          4   -1    0    0  501    0  0.00000000000E+00 -0.00000000000E+00 -0.56785294687E+03  0.56785294687E+03  0.00000000000E+00 0. -1.
         24    2    1    2    0    0  0.10187496423E+03  0.15393174853E+03 -0.26109464711E+03  0.33563783045E+03  0.10202375673E+03 0.  0.
        254    2    1    2    0    0 -0.10187496423E+03 -0.15393174853E+03  0.51673155356E+03  0.10557049697E+04  0.90190242995E+03 0.  0.
         23    2    4    4    0    0 -0.29738066536E+03 -0.20584950300E+03  0.68183659607E+03  0.77718147287E+03  0.91107738501E+02 0.  0.
         23    2    4    4    0    0  0.19550570112E+03  0.51917754477E+02 -0.16510504251E+03  0.27852349688E+03  0.96941894187E+02 0.  0.
          2    1    3    3  502    0  0.10602717429E+03  0.13421578353E+03 -0.26471559432E+03  0.31516659739E+03  0.00000000000E+00 0. -1.
         -1    1    3    3    0  502 -0.41522100583E+01  0.19715965000E+02  0.36209472064E+01  0.20471233058E+02  0.00000000000E+00 0.  1.
         13    1    5    5    0    0 -0.10942912822E+03 -0.29640358863E+02  0.17298975390E+03  0.20683022006E+03  0.00000000000E+00 0. -1.
        -13    1    5    5    0    0 -0.18795153713E+03 -0.17620914414E+03  0.50884684217E+03  0.57035125281E+03  0.00000000000E+00 0.  1.
          3    1    6    6  503    0  0.73858738270E+02 -0.22131494620E+02 -0.31628629007E+02  0.83338385188E+02  0.00000000000E+00 0. -1.
         -3    1    6    6    0  503  0.12164696285E+03  0.74049249097E+02 -0.13347641350E+03  0.19518511169E+03  0.00000000000E+00 0.  1.
<mgrwt>
<rscale>  0 0.13676566E+04</rscale>
<asrwt>0</asrwt>
<pdfrwt beam="1">  1        4 0.87361991E-01 0.13676566E+04</pdfrwt>
<pdfrwt beam="2">  1       -3 0.12669075E+00 0.13676566E+04</pdfrwt>
<totfact> 0.12520048E+00</totfact>
</mgrwt>
</event>
<event>
12    7  0.1546317E-007  0.2100294E+04  0.7818608E-02  0.8561114E-01
         -1   -1    0    0    0  501 -0.00000000000E+00  0.00000000000E+00  0.48168837756E+03  0.48168837756E+03  0.00000000000E+00 0.  1.
          2   -1    0    0  501    0  0.00000000000E+00 -0.00000000000E+00 -0.22894656251E+04  0.22894656251E+04  0.00000000000E+00 0. -1.
         24    2    1    2    0    0  0.76071518574E+03 -0.21624508622E+03 -0.31255558382E+03  0.85394472903E+03  0.77981254977E+02 0.  0.
        254    2    1    2    0    0 -0.76071518574E+03  0.21624508622E+03 -0.14952216637E+04  0.19172092736E+04  0.90252647834E+03 0.  0.
         23    2    4    4    0    0 -0.87279651403E+03  0.38998703316E+03 -0.10864356965E+04  0.14501126702E+04  0.92847147386E+02 0.  0.
         23    2    4    4    0    0  0.11208132829E+03 -0.17374194693E+03 -0.40878596722E+03  0.46709660341E+03  0.91240241370E+02 0.  0.
          4    1    3    3  502    0  0.35341028000E+03 -0.77189455871E+02 -0.10870955697E+03  0.37772318685E+03  0.00000000000E+00 0. -1.
         -3    1    3    3    0  502  0.40730490574E+03 -0.13905563035E+03 -0.20384602685E+03  0.47622154218E+03  0.00000000000E+00 0.  1.
         13    1    5    5    0    0 -0.60433404528E+03  0.31410631994E+03 -0.75176292952E+03  0.10144111202E+04  0.00000000000E+00 0. -1.
        -13    1    5    5    0    0 -0.26846246876E+03  0.75880713213E+02 -0.33467276698E+03  0.43570155006E+03  0.00000000000E+00 0.  1.
          3    1    6    6  503    0  0.29923450680E+02 -0.90669800889E+02 -0.26590200420E+03  0.28252486888E+03  0.00000000000E+00 0. -1.
         -3    1    6    6    0  503  0.82157877608E+02 -0.83072146042E+02 -0.14288396302E+03  0.18457173453E+03  0.00000000000E+00 0.  1.
<mgrwt>
<rscale>  0 0.21002942E+04</rscale>
<asrwt>0</asrwt>
<pdfrwt beam="1">  1        2 0.35222547E+00 0.21002942E+04</pdfrwt>
<pdfrwt beam="2">  1       -1 0.74105906E-01 0.21002942E+04</pdfrwt>
<totfact> 0.88391222E+00</totfact>
</mgrwt>
</event>
<event>
12    7  0.1546317E-007  0.3430116E+04  0.7818608E-02  0.8130554E-01
         -1   -1    0    0    0  501 -0.00000000000E+00  0.00000000000E+00  0.34143307731E+04  0.34143307731E+04  0.00000000000E+00 0.  1.
          2   -1    0    0  501    0  0.00000000000E+00 -0.00000000000E+00 -0.86149332381E+03  0.86149332381E+03  0.00000000000E+00 0. -1.
         24    2    1    2    0    0 -0.10796314975E+04 -0.59341275259E+03 -0.73979205018E+02  0.12370355139E+04  0.83911110738E+02 0.  0.
        254    2    1    2    0    0  0.10796314975E+04  0.59341275259E+03  0.26268166543E+04  0.30387885831E+04  0.90350841278E+03 0.  0.
         23    2    4    4    0    0  0.29473486932E+03 -0.20338317231E+03  0.40134867502E+03  0.54640461727E+03  0.96145144759E+02 0.  0.
         23    2    4    4    0    0  0.78489662815E+03  0.79679592489E+03  0.22254679793E+04  0.24923839658E+04  0.91234003101E+02 0.  0.
          2    1    3    3  502    0 -0.46959798189E+03 -0.29498289915E+03 -0.67902912559E+01  0.55460191438E+03  0.00000000000E+00 0. -1.
         -1    1    3    3    0  502 -0.61003351558E+03 -0.29842985344E+03 -0.67188913762E+02  0.68243359947E+03  0.00000000000E+00 0.  1.
         13    1    5    5    0    0  0.27764543489E+03 -0.15570663321E+03  0.36348010478E+03  0.48316594428E+03  0.00000000000E+00 0. -1.
        -13    1    5    5    0    0  0.17089434431E+02 -0.47676539097E+02  0.37868570243E+02  0.63238672991E+02  0.00000000000E+00 0.  1.
          3    1    6    6  503    0  0.65422630950E+03  0.70605600181E+03  0.18825264845E+04  0.21143398749E+04  0.00000000000E+00 0. -1.
         -3    1    6    6    0  503  0.13067031865E+03  0.90739923079E+02  0.34294149481E+03  0.37804409092E+03  0.00000000000E+00 0.  1.
<mgrwt>
<rscale>  0 0.34301155E+04</rscale>
<asrwt>0</asrwt>
<pdfrwt beam="1">  1        2 0.13253744E+00 0.34301155E+04</pdfrwt>
<pdfrwt beam="2">  1       -1 0.52528165E+00 0.34301155E+04</pdfrwt>
<totfact> 0.30359204E-02</totfact>
</mgrwt>
</event>
<event>
12    7  0.1546317E-007  0.1520929E+04  0.7818608E-02  0.8870653E-01
         -1   -1    0    0    0  501 -0.00000000000E+00  0.00000000000E+00  0.10305246066E+04  0.10305246066E+04  0.00000000000E+00 0.  1.
          2   -1    0    0  501    0  0.00000000000E+00 -0.00000000000E+00 -0.56117666199E+03  0.56117666199E+03  0.00000000000E+00 0. -1.
         24    2    1    2    0    0 -0.85719761729E+02 -0.29729352243E+03 -0.23535023197E+03  0.40385293411E+03  0.10943557316E+03 0.  0.
        254    2    1    2    0    0  0.85719761729E+02  0.29729352243E+03  0.70469817660E+03  0.11878483345E+04  0.90479435766E+03 0.  0.
         23    2    4    4    0    0  0.11257492280E+03  0.60755385536E+03  0.53598317390E+03  0.82287863375E+03  0.89757911964E+02 0.  0.
         23    2    4    4    0    0 -0.26855161066E+02 -0.31026033293E+03  0.16871500270E+03  0.36496970076E+03  0.88065069502E+02 0.  0.
          4    1    3    3  502    0 -0.39893407782E+02 -0.24945319163E+03 -0.14328163224E+03  0.29042727995E+03  0.00000000000E+00 0. -1.
         -3    1    3    3    0  502 -0.45826353948E+02 -0.47840330795E+02 -0.92068599725E+02  0.11342565416E+03  0.00000000000E+00 0.  1.
         13    1    5    5    0    0  0.88140793117E+02  0.56040564874E+03  0.46096106835E+03  0.73096401901E+03  0.00000000000E+00 0. -1.
        -13    1    5    5    0    0  0.24434129679E+02  0.47148206628E+02  0.75022105554E+02  0.91914614742E+02  0.00000000000E+00 0.  1.
          1    1    6    6  503    0 -0.55372801450E+02 -0.15841365745E+03  0.10425688734E+03  0.19756146528E+03  0.00000000000E+00 0. -1.
         -1    1    6    6    0  503  0.28517640384E+02 -0.15184667548E+03  0.64458115357E+02  0.16740823547E+03  0.00000000000E+00 0.  1.
<mgrwt>
<rscale>  0 0.15209291E+04</rscale>
<asrwt>0</asrwt>
<pdfrwt beam="1">  1        2 0.86334871E-01 0.15209291E+04</pdfrwt>
<pdfrwt beam="2">  1       -1 0.15854225E+00 0.15209291E+04</pdfrwt>
<totfact> 0.17765298E+01</totfact>
</mgrwt>
</event>
<event>
12    7  0.1546317E-007  0.1548020E+04  0.7818608E-02  0.8853133E-01
          2   -1    0    0  501    0  0.00000000000E+00  0.00000000000E+00  0.23892858533E+04  0.23892858533E+04  0.00000000000E+00 0. -1.
         -1   -1    0    0    0  501 -0.00000000000E+00 -0.00000000000E+00 -0.25074088784E+03  0.25074088784E+03  0.00000000000E+00 0.  1.
         24    2    1    2    0    0 -0.26330998033E+03  0.36323510731E+03  0.22170701258E+03  0.50856751531E+03  0.90636798700E+02 0.  0.
        254    2    1    2    0    0  0.26330998033E+03 -0.36323510731E+03  0.19168379529E+04  0.21314592258E+04  0.81705495827E+03 0.  0.
         23    2    4    4    0    0  0.51330557825E+03 -0.66063772286E+02  0.94614708572E+03  0.10822890268E+04  0.91149278675E+02 0.  0.
         23    2    4    4    0    0 -0.24999559792E+03 -0.29717133502E+03  0.97069086714E+03  0.10491701990E+04  0.87799462634E+02 0.  0.
          4    1    3    3  502    0 -0.14216101103E+03  0.13494443768E+03  0.65904449236E+02  0.20679253068E+03  0.00000000000E+00 0. -1.
         -3    1    3    3    0  502 -0.12114896931E+03  0.22829066963E+03  0.15580256334E+03  0.30177498463E+03  0.00000000000E+00 0.  1.
         13    1    5    5    0    0  0.50595569882E+03 -0.59839615408E+02  0.89161098001E+03  0.10269089971E+04  0.00000000000E+00 0. -1.
        -13    1    5    5    0    0  0.73498794260E+01 -0.62241568780E+01  0.54536105707E+02  0.55380029633E+02  0.00000000000E+00 0.  1.
          2    1    6    6  503    0 -0.21919273853E+03 -0.20196407530E+03  0.73170697425E+03  0.79008229983E+03  0.00000000000E+00 0. -1.
         -2    1    6    6    0  503 -0.30802859391E+02 -0.95207259720E+02  0.23898389289E+03  0.25908789920E+03  0.00000000000E+00 0.  1.
<mgrwt>
<rscale>  0 0.15480202E+04</rscale>
<asrwt>0</asrwt>
<pdfrwt beam="1">  1        2 0.36758242E+00 0.15480202E+04</pdfrwt>
<pdfrwt beam="2">  1       -1 0.38575523E-01 0.15480202E+04</pdfrwt>
<totfact> 0.28823626E+01</totfact>
</mgrwt>
</event>
<event>
12    7  0.1546317E-007  0.1759127E+04  0.7818608E-02  0.8728342E-01
         -1   -1    0    0    0  501 -0.00000000000E+00  0.00000000000E+00  0.18094281795E+03  0.18094281795E+03  0.00000000000E+00 0.  1.
          2   -1    0    0  501    0  0.00000000000E+00 -0.00000000000E+00 -0.42755613308E+04  0.42755613308E+04  0.00000000000E+00 0. -1.
         24    2    1    2    0    0 -0.53710773523E+03  0.33888604024E+03 -0.16946573835E+04  0.18118666729E+04  0.87571258734E+02 0.  0.
        254    2    1    2    0    0  0.53710773523E+03 -0.33888604024E+03 -0.23999611294E+04  0.26446374759E+04  0.91157308476E+03 0.  0.
         23    2    4    4    0    0 -0.24793689433E+03 -0.76930255715E+02 -0.70718561585E+03  0.75853527372E+03  0.88731608773E+02 0.  0.
         23    2    4    4    0    0  0.78504462956E+03 -0.26195578452E+03 -0.16927755136E+04  0.18861022022E+04  0.83526489272E+02 0.  0.
          4    1    3    3  502    0 -0.17893434646E+01 -0.42975033874E+01 -0.71655865639E+01  0.85449351199E+01  0.00000000000E+00 0. -1.
         -3    1    3    3    0  502 -0.53531839177E+03  0.34318354362E+03 -0.16874917969E+04  0.18033217378E+04  0.00000000000E+00 0.  1.
         13    1    5    5    0    0 -0.15561741030E+03 -0.55859783662E+02 -0.32308003667E+03  0.36292947512E+03  0.00000000000E+00 0.  1.
        -13    1    5    5    0    0 -0.92319484030E+02 -0.21070472052E+02 -0.38410557918E+03  0.39560579860E+03  0.00000000000E+00 0. -1.
          4    1    6    6  503    0  0.47271273930E+03 -0.16389008417E+03 -0.92982414153E+03  0.10558836242E+04  0.00000000000E+00 0. -1.
         -4    1    6    6    0  503  0.31233189026E+03 -0.98065700351E+02 -0.76295137203E+03  0.83021857805E+03  0.00000000000E+00 0.  1.
<mgrwt>
<rscale>  0 0.17591272E+04</rscale>
<asrwt>0</asrwt>
<pdfrwt beam="1">  1        2 0.65777866E+00 0.17591272E+04</pdfrwt>
<pdfrwt beam="2">  1       -1 0.27837357E-01 0.17591272E+04</pdfrwt>
<totfact> 0.25528508E+00</totfact>
</mgrwt>
</event>
<event>
12    7  0.1546317E-007  0.2048876E+04  0.7818608E-02  0.8584105E-01
          2   -1    0    0  501    0  0.00000000000E+00  0.00000000000E+00  0.18557359613E+04  0.18557359613E+04  0.00000000000E+00 0. -1.
         -1   -1    0    0    0  501 -0.00000000000E+00 -0.00000000000E+00 -0.56552922671E+03  0.56552922671E+03  0.00000000000E+00 0.  1.
         24    2    1    2    0    0  0.16393403399E+03 -0.28064269838E+03  0.14188442603E+04  0.14578832774E+04  0.81669601430E+02 0.  0.
        254    2    1    2    0    0 -0.16393403399E+03  0.28064269838E+03 -0.12863752575E+03  0.96338191060E+03  0.89773180905E+03 0.  0.
         23    2    4    4    0    0 -0.33399325647E+03  0.38884674752E+03 -0.36804522695E+03  0.63753677158E+03  0.90788532424E+02 0.  0.
         23    2    4    4    0    0  0.17005922248E+03 -0.10820404914E+03  0.23940770120E+03  0.32584513901E+03  0.90723491036E+02 0.  0.
          4    1    3    3  502    0  0.34495104205E+02 -0.40284706267E+02  0.38361654911E+03  0.38726531800E+03  0.00000000000E+00 0. -1.
         -3    1    3    3    0  502  0.12943892979E+03 -0.24035799212E+03  0.10352277112E+04  0.10706179594E+04  0.00000000000E+00 0.  1.
         13    1    5    5    0    0 -0.29184633142E+03  0.36916769180E+03 -0.35422778423E+03  0.58901306348E+03  0.00000000000E+00 0. -1.
        -13    1    5    5    0    0 -0.42146925044E+02  0.19679055725E+02 -0.13817442721E+02  0.48523708105E+02  0.00000000000E+00 0.  1.
          3    1    6    6  503    0  0.14328530226E+03 -0.51632134082E+02  0.20181390520E+03  0.25283474335E+03  0.00000000000E+00 0. -1.
         -3    1    6    6    0  503  0.26773920212E+02 -0.56571915055E+02  0.37593795996E+02  0.73010395656E+02  0.00000000000E+00 0.  1.
<mgrwt>
<rscale>  0 0.20488757E+04</rscale>
<asrwt>0</asrwt>
<pdfrwt beam="1">  1        2 0.28549784E+00 0.20488757E+04</pdfrwt>
<pdfrwt beam="2">  1       -1 0.87004497E-01 0.20488757E+04</pdfrwt>
<totfact> 0.11017225E+01</totfact>
</mgrwt>
</event>
<event>
12    7  0.1546317E-007  0.2639148E+04  0.7818608E-02  0.8355024E-01
         -1   -1    0    0    0  501 -0.00000000000E+00  0.00000000000E+00  0.11716439463E+04  0.11716439463E+04  0.00000000000E+00 0.  1.
          2   -1    0    0  501    0  0.00000000000E+00 -0.00000000000E+00 -0.14861816912E+04  0.14861816912E+04  0.00000000000E+00 0. -1.
         24    2    1    2    0    0 -0.35935165087E+03  0.38620503954E+03  0.90393102977E+03  0.10495054499E+04  0.77990006984E+02 0.  0.
        254    2    1    2    0    0  0.35935165087E+03 -0.38620503954E+03 -0.12184687747E+04  0.16083201877E+04  0.90760108518E+03 0.  0.
         23    2    4    4    0    0  0.53357395631E+03  0.23227175785E+02 -0.40305123270E+03  0.67523730213E+03  0.90854000759E+02 0.  0.
         23    2    4    4    0    0 -0.17422230544E+03 -0.40943221532E+03 -0.81541754196E+03  0.93308288558E+03  0.88032681258E+02 0.  0.
          2    1    3    3  502    0 -0.44213153131E+02  0.84930646747E+02  0.13380594742E+03  0.16453586002E+03  0.00000000000E+00 0. -1.
         -1    1    3    3    0  502 -0.31513849774E+03  0.30127439279E+03  0.77012508235E+03  0.88496958986E+03  0.00000000000E+00 0.  1.
         13    1    5    5    0    0  0.38781096768E+03  0.53308700955E+02 -0.26939211421E+03  0.47519603897E+03  0.00000000000E+00 0. -1.
        -13    1    5    5    0    0  0.14576298863E+03 -0.30081525170E+02 -0.13365911849E+03  0.20004126316E+03  0.00000000000E+00 0.  1.
          2    1    6    6  503    0 -0.13627665345E+03 -0.21159424785E+03 -0.47365157117E+03  0.53636672424E+03  0.00000000000E+00 0. -1.
         -2    1    6    6    0  503 -0.37945651988E+02 -0.19783796748E+03 -0.34176597078E+03  0.39671616134E+03  0.00000000000E+00 0.  1.
<mgrwt>
<rscale>  0 0.26391482E+04</rscale>
<asrwt>0</asrwt>
<pdfrwt beam="1">  1        2 0.22864334E+00 0.26391482E+04</pdfrwt>
<pdfrwt beam="2">  1       -1 0.18025292E+00 0.26391482E+04</pdfrwt>
<totfact> 0.26898011E+00</totfact>
</mgrwt>
</event>
<event>
12    7  0.1546317E-007  0.1083916E+04  0.7818608E-02  0.9221012E-01
          2   -1    0    0  501    0  0.00000000000E+00  0.00000000000E+00  0.12718871882E+04  0.12718871882E+04  0.00000000000E+00 0. -1.
         -1   -1    0    0    0  501 -0.00000000000E+00 -0.00000000000E+00 -0.23093128045E+03  0.23093128045E+03  0.00000000000E+00 0.  1.
         24    2    1    2    0    0 -0.11925459664E+03  0.92138148945E+02  0.18751781909E+03  0.25351137349E+03  0.79962408059E+02 0.  0.
        254    2    1    2    0    0  0.11925459664E+03 -0.92138148945E+02  0.85343808870E+03  0.12493070952E+04  0.89983362328E+03 0.  0.
         23    2    4    4    0    0  0.10412779055E+03 -0.24407773443E+03 -0.86822073094E+02  0.29288257709E+03  0.88462389594E+02 0.  0.
         23    2    4    4    0    0  0.15126806084E+02  0.15193958549E+03  0.94026016180E+03  0.95642451812E+03  0.85698477838E+02 0.  0.
          4    1    3    3  502    0 -0.50177898276E+02  0.72154257486E+02  0.14618381217E+03  0.17056894585E+03  0.00000000000E+00 0. -1.
         -3    1    3    3    0  502 -0.69076698360E+02  0.19983891459E+02  0.41334006917E+02  0.82942427635E+02  0.00000000000E+00 0.  1.
         13    1    5    5    0    0  0.47963625568E+02 -0.10936907919E+03  0.65813148973E+01  0.11960526145E+03  0.00000000000E+00 0.  1.
        -13    1    5    5    0    0  0.56164164984E+02 -0.13470865524E+03 -0.93403387991E+02  0.17327731563E+03  0.00000000000E+00 0. -1.
          4    1    6    6  503    0  0.51653220382E+01  0.10524155841E+03  0.82446629589E+03  0.83117214777E+03  0.00000000000E+00 0. -1.
         -4    1    6    6    0  503  0.99614840459E+01  0.46698027081E+02  0.11579386590E+03  0.12525237035E+03  0.00000000000E+00 0.  1.
<mgrwt>
<rscale>  0 0.10839161E+04</rscale>
<asrwt>0</asrwt>
<pdfrwt beam="1">  1        2 0.19567495E+00 0.10839161E+04</pdfrwt>
<pdfrwt beam="2">  1       -1 0.35527890E-01 0.10839161E+04</pdfrwt>
<totfact> 0.14675717E+02</totfact>
</mgrwt>
</event>
<event>
12    7  0.1546317E-007  0.1264497E+04  0.7818608E-02  0.9058203E-01
         -1   -1    0    0    0  501 -0.00000000000E+00  0.00000000000E+00  0.40832999137E+03  0.40832999137E+03  0.00000000000E+00 0.  1.
          2   -1    0    0  501    0  0.00000000000E+00 -0.00000000000E+00 -0.97895812389E+03  0.97895812389E+03  0.00000000000E+00 0. -1.
         24    2    1    2    0    0 -0.53397776033E+02 -0.28397097853E+03 -0.24163498491E+03  0.38702568281E+03  0.88941408165E+02 0.  0.
        254    2    1    2    0    0  0.53397776033E+02  0.28397097853E+03 -0.32899314760E+03  0.10002624325E+04  0.89933175384E+03 0.  0.
         23    2    4    4    0    0  0.33024304979E+03  0.44515675086E+03 -0.35988378714E+03  0.66616927591E+03  0.83905656272E+02 0.  0.
         23    2    4    4    0    0 -0.27684527376E+03 -0.16118577232E+03  0.30890639540E+02  0.33409315654E+03  0.89665192983E+02 0.  0.
          4    1    3    3  502    0 -0.23071526719E+02 -0.17226557900E+03 -0.19765826477E+03  0.26320432117E+03  0.00000000000E+00 0. -1.
         -3    1    3    3    0  502 -0.30326249314E+02 -0.11170539954E+03 -0.43976720143E+02  0.12382136164E+03  0.00000000000E+00 0.  1.
         13    1    5    5    0    0  0.28397125979E+03  0.42181962116E+03 -0.33245868749E+03  0.60753621133E+03  0.00000000000E+00 0. -1.
        -13    1    5    5    0    0  0.46271789998E+02  0.23337129700E+02 -0.27425099648E+02  0.58633064588E+02  0.00000000000E+00 0.  1.
          3    1    6    6  503    0 -0.17888251560E+03 -0.14860968788E+03  0.35325835366E+02  0.23522692951E+03  0.00000000000E+00 0. -1.
         -3    1    6    6    0  503 -0.97962758154E+02 -0.12576084439E+02 -0.44351958262E+01  0.98866227029E+02  0.00000000000E+00 0.  1.
<mgrwt>
<rscale>  0 0.12644967E+04</rscale>
<asrwt>0</asrwt>
<pdfrwt beam="1">  1        2 0.15060894E+00 0.12644967E+04</pdfrwt>
<pdfrwt beam="2">  1       -1 0.62819999E-01 0.12644967E+04</pdfrwt>
<totfact> 0.74883783E+01</totfact>
</mgrwt>
</event>
<event>
12    7  0.1546317E-007  0.1567879E+04  0.7818608E-02  0.8840528E-01
         -1   -1    0    0    0  501 -0.00000000000E+00  0.00000000000E+00  0.20323371119E+03  0.20323371119E+03  0.00000000000E+00 0.  1.
          2   -1    0    0  501    0  0.00000000000E+00 -0.00000000000E+00 -0.30239129054E+04  0.30239129054E+04  0.00000000000E+00 0. -1.
         24    2    1    2    0    0  0.32991448450E+03 -0.10905663460E+03 -0.17553630172E+04  0.17912371032E+04  0.80586110193E+02 0.  0.
        254    2    1    2    0    0 -0.32991448450E+03  0.10905663460E+03 -0.10653161770E+04  0.14359095134E+04  0.89788677292E+03 0.  0.
         23    2    4    4    0    0  0.10039475685E+03 -0.19221005933E+02  0.10900761258E+03  0.17532774668E+03  0.91698445356E+02 0.  0.
         23    2    4    4    0    0 -0.43030924135E+03  0.12827764053E+03 -0.11743237896E+04  0.12605817667E+04  0.91699680980E+02 0.  0.
          4    1    3    3  502    0  0.28011206910E+03 -0.12154977125E+03 -0.15008058769E+04  0.15315532632E+04  0.00000000000E+00 0. -1.
         -3    1    3    3    0  502  0.49802415401E+02  0.12493136657E+02 -0.25455714036E+03  0.25968383999E+03  0.00000000000E+00 0.  1.
         13    1    5    5    0    0  0.12984844985E+02  0.24300786884E+02  0.60109041774E+02  0.66122850403E+02  0.00000000000E+00 0. -1.
        -13    1    5    5    0    0  0.87409911867E+02 -0.43521792817E+02  0.48898570810E+02  0.10920489627E+03  0.00000000000E+00 0.  1.
          2    1    6    6  503    0 -0.37860242427E+03  0.79393969301E+02 -0.10077891737E+04  0.10794823836E+04  0.00000000000E+00 0.  1.
         -2    1    6    6    0  503 -0.51706817084E+02  0.48883671229E+02 -0.16653461592E+03  0.18109938307E+03  0.00000000000E+00 0. -1.
<mgrwt>
<rscale>  0 0.15678789E+04</rscale>
<asrwt>0</asrwt>
<pdfrwt beam="1">  1        2 0.46521739E+00 0.15678789E+04</pdfrwt>
<pdfrwt beam="2">  1       -1 0.31266724E-01 0.15678789E+04</pdfrwt>
<totfact> 0.17580729E+01</totfact>
</mgrwt>
</event>
<event>
12    7  0.1546317E-007  0.2035245E+04  0.7818608E-02  0.8590317E-01
         -1   -1    0    0    0  501 -0.00000000000E+00  0.00000000000E+00  0.73499113190E+03  0.73499113190E+03  0.00000000000E+00 0.  1.
          2   -1    0    0  501    0  0.00000000000E+00 -0.00000000000E+00 -0.14089361736E+04  0.14089361736E+04  0.00000000000E+00 0. -1.
         24    2    1    2    0    0 -0.55434684912E+03 -0.81469468473E+01 -0.89475165298E+03  0.10556026335E+04  0.79684361206E+02 0.  0.
        254    2    1    2    0    0  0.55434684912E+03  0.81469468473E+01  0.22080661130E+03  0.10883246720E+04  0.91012539258E+03 0.  0.
         23    2    4    4    0    0  0.76145041862E+03 -0.15221125701E+03  0.11089142535E+03  0.79004693865E+03  0.94351736980E+02 0.  0.
         23    2    4    4    0    0 -0.20710356950E+03  0.16035820385E+03  0.10991518596E+03  0.29827773335E+03  0.91003384923E+02 0.  0.
          4    1    3    3  502    0 -0.45219837533E+03  0.59801933197E+01 -0.77747713942E+03  0.89943862252E+03  0.00000000000E+00 0. -1.
         -3    1    3    3    0  502 -0.10214847379E+03 -0.14127140167E+02 -0.11727451356E+03  0.15616401096E+03  0.00000000000E+00 0.  1.
         13    1    5    5    0    0  0.40047348730E+03 -0.61309029166E+02  0.10159919305E+03  0.41768433908E+03  0.00000000000E+00 0.  1.
        -13    1    5    5    0    0  0.36097693133E+03 -0.90902227840E+02  0.92922323013E+01  0.37236259957E+03  0.00000000000E+00 0. -1.
          2    1    6    6  503    0 -0.15438996744E+03  0.13977917413E+03  0.46704889312E+02  0.21343810872E+03  0.00000000000E+00 0. -1.
         -2    1    6    6    0  503 -0.52713602063E+02  0.20579029721E+02  0.63210296644E+02  0.84839624637E+02  0.00000000000E+00 0.  1.
<mgrwt>
<rscale>  0 0.20352450E+04</rscale>
<asrwt>0</asrwt>
<pdfrwt beam="1">  1        2 0.21675941E+00 0.20352450E+04</pdfrwt>
<pdfrwt beam="2">  1       -1 0.11307556E+00 0.20352450E+04</pdfrwt>
<totfact> 0.10791429E+01</totfact>
</mgrwt>
</event>
<event>
12    7  0.1546317E-007  0.2380504E+04  0.7818608E-02  0.8446839E-01
          2   -1    0    0  501    0  0.00000000000E+00  0.00000000000E+00  0.10909838980E+04  0.10909838980E+04  0.00000000000E+00 0. -1.
         -3   -1    0    0    0  501 -0.00000000000E+00 -0.00000000000E+00 -0.12985521560E+04  0.12985521560E+04  0.00000000000E+00 0.  1.
         24    2    1    2    0    0  0.19080206604E+03  0.60975154548E+03  0.70796936737E+03  0.95709569756E+03  0.81296823608E+02 0.  0.
        254    2    1    2    0    0 -0.19080206604E+03 -0.60975154548E+03 -0.91553762535E+03  0.14324403564E+04  0.89748195280E+03 0.  0.
         23    2    4    4    0    0  0.26285985930E+03  0.59357845349E+02 -0.18199576506E+03  0.33692594197E+03  0.88192813987E+02 0.  0.
         23    2    4    4    0    0 -0.45366192533E+03 -0.66910939083E+03 -0.73354186029E+03  0.10955144144E+04  0.92475142850E+02 0.  0.
          2    1    3    3  502    0  0.92006665421E+02  0.31851352032E+03  0.30769480019E+03  0.45231866994E+03  0.00000000000E+00 0. -1.
         -1    1    3    3    0  502  0.98795400617E+02  0.29123802516E+03  0.40027456719E+03  0.50477702763E+03  0.00000000000E+00 0.  1.
         13    1    5    5    0    0  0.68839033680E+02 -0.16521263467E+02 -0.73451259546E+02  0.10201398058E+03  0.00000000000E+00 0. -1.
        -13    1    5    5    0    0  0.19402082562E+03  0.75879108816E+02 -0.10854450551E+03  0.23491196139E+03  0.00000000000E+00 0.  1.
          3    1    6    6  503    0 -0.16034509361E+03 -0.22095685780E+03 -0.19139879070E+03  0.33341562521E+03  0.00000000000E+00 0. -1.
         -3    1    6    6    0  503 -0.29331683172E+03 -0.44815253303E+03 -0.54214306959E+03  0.76209878923E+03  0.00000000000E+00 0.  1.
<mgrwt>
<rscale>  0 0.23805037E+04</rscale>
<asrwt>0</asrwt>
<pdfrwt beam="1">  1        2 0.16784368E+00 0.23805037E+04</pdfrwt>
<pdfrwt beam="2">  1       -3 0.19977725E+00 0.23805037E+04</pdfrwt>
<totfact> 0.18390776E+00</totfact>
</mgrwt>
</event>
<event>
12    7  0.1546317E-007  0.1623582E+04  0.7818608E-02  0.8806190E-01
         -1   -1    0    0    0  501 -0.00000000000E+00  0.00000000000E+00  0.94273087989E+03  0.94273087989E+03  0.00000000000E+00 0.  1.
          2   -1    0    0  501    0  0.00000000000E+00 -0.00000000000E+00 -0.69903769907E+03  0.69903769907E+03  0.00000000000E+00 0. -1.
         24    2    1    2    0    0  0.18788701475E+03  0.27239212973E+03  0.54914845148E+03  0.64584688192E+03  0.77814975905E+02 0.  0.
        254    2    1    2    0    0 -0.18788701475E+03 -0.27239212973E+03 -0.30545527066E+03  0.99592169703E+03  0.88828942446E+03 0.  0.
         23    2    4    4    0    0 -0.26156789072E+03 -0.40867254319E+03 -0.51918556056E+03  0.71661561802E+03  0.92483991487E+02 0.  0.
         23    2    4    4    0    0  0.73680875967E+02  0.13628041346E+03  0.21373028990E+03  0.27930607902E+03  0.91268978173E+02 0.  0.
          2    1    3    3  502    0  0.29314514997E+02  0.10455439157E+03  0.16046901906E+03  0.19375569066E+03  0.00000000000E+00 0. -1.
         -1    1    3    3    0  502  0.15857249975E+03  0.16783773816E+03  0.38867943242E+03  0.45209119126E+03  0.00000000000E+00 0.  1.
         13    1    5    5    0    0 -0.21701703066E+03 -0.26801527069E+03 -0.38891417996E+03  0.51979112756E+03  0.00000000000E+00 0. -1.
        -13    1    5    5    0    0 -0.44550860054E+02 -0.14065727250E+03 -0.13027138060E+03  0.19682449045E+03  0.00000000000E+00 0.  1.
          1    1    6    6  503    0  0.16478060907E+02  0.11675803381E+01  0.76992381886E+02  0.78744629045E+02  0.00000000000E+00 0. -1.
         -1    1    6    6    0  503  0.57202815060E+02  0.13511283312E+03  0.13673790802E+03  0.20056144997E+03  0.00000000000E+00 0.  1.
<mgrwt>
<rscale>  0 0.16235818E+04</rscale>
<asrwt>0</asrwt>
<pdfrwt beam="1">  1        2 0.10754426E+00 0.16235818E+04</pdfrwt>
<pdfrwt beam="2">  1       -1 0.14503552E+00 0.16235818E+04</pdfrwt>
<totfact> 0.17134351E+01</totfact>
</mgrwt>
</event>
<event>
12    7  0.1546317E-007  0.1396711E+04  0.7818608E-02  0.8956203E-01
         -1   -1    0    0    0  501 -0.00000000000E+00  0.00000000000E+00  0.17093475207E+03  0.17093475207E+03  0.00000000000E+00 0.  1.
          2   -1    0    0  501    0  0.00000000000E+00 -0.00000000000E+00 -0.28531359409E+04  0.28531359409E+04  0.00000000000E+00 0. -1.
         24    2    1    2    0    0 -0.16079159443E+03  0.29512907822E+03 -0.12510299372E+04  0.12980240037E+04  0.82675877495E+02 0.  0.
        254    2    1    2    0    0  0.16079159443E+03 -0.29512907822E+03 -0.14311712516E+04  0.17260466893E+04  0.90445061359E+03 0.  0.
         23    2    4    4    0    0  0.36805840685E+03 -0.36821566563E+03 -0.38694576471E+03  0.65497580900E+03  0.90645012456E+02 0.  0.
         23    2    4    4    0    0 -0.20726681241E+03  0.73086587415E+02 -0.10442254869E+04  0.10710708803E+04  0.92112877756E+02 0.  0.
          2    1    3    3  502    0 -0.72766482635E+02  0.19982318026E+03 -0.86579548146E+03  0.89153019022E+03  0.00000000000E+00 0. -1.
         -1    1    3    3    0  502 -0.88025111799E+02  0.95305897960E+02 -0.38523445579E+03  0.40649381351E+03  0.00000000000E+00 0.  1.
         13    1    5    5    0    0  0.11360211758E+03 -0.17628280182E+03 -0.15123770467E+03  0.25856123191E+03  0.00000000000E+00 0. -1.
        -13    1    5    5    0    0  0.25445628927E+03 -0.19193286382E+03 -0.23570806004E+03  0.39641457709E+03  0.00000000000E+00 0.  1.
          4    1    6    6  503    0 -0.25718520250E+02  0.21774671699E+02 -0.59005449297E+02  0.67950140973E+02  0.00000000000E+00 0. -1.
         -4    1    6    6    0  503 -0.18154829216E+03  0.51311915716E+02 -0.98522003763E+03  0.10031207393E+04  0.00000000000E+00 0.  1.
<mgrwt>
<rscale>  0 0.13967105E+04</rscale>
<asrwt>0</asrwt>
<pdfrwt beam="1">  1        2 0.43894396E+00 0.13967105E+04</pdfrwt>
<pdfrwt beam="2">  1       -1 0.26297656E-01 0.13967105E+04</pdfrwt>
<totfact> 0.30777534E+01</totfact>
</mgrwt>
</event>
<event>
12    7  0.1546317E-007  0.1536325E+04  0.7818608E-02  0.8860650E-01
          2   -1    0    0  501    0  0.00000000000E+00  0.00000000000E+00  0.42636593542E+03  0.42636593542E+03  0.00000000000E+00 0. -1.
         -1   -1    0    0    0  501 -0.00000000000E+00 -0.00000000000E+00 -0.13839606057E+04  0.13839606057E+04  0.00000000000E+00 0.  1.
         24    2    1    2    0    0 -0.15263292535E+03 -0.38131518585E+03 -0.66968677098E+03  0.78951238090E+03  0.78430526646E+02 0.  0.
        254    2    1    2    0    0  0.15263292535E+03  0.38131518585E+03 -0.28790789926E+03  0.10208141602E+04  0.88908520981E+03 0.  0.
         23    2    4    4    0    0  0.83685388842E+02  0.25471550261E+03 -0.60172603395E+03  0.66487152641E+03  0.89981637742E+02 0.  0.
         23    2    4    4    0    0  0.68947536509E+02  0.12659968323E+03  0.31381813469E+03  0.35594263376E+03  0.86209595074E+02 0.  0.
          2    1    3    3  502    0  0.53429020201E+00  0.10383430274E+01  0.15715124799E+01  0.19578748012E+01  0.00000000000E+00 0. -1.
         -1    1    3    3    0  502 -0.15316721555E+03 -0.38235352888E+03 -0.67125828346E+03  0.78755450610E+03  0.00000000000E+00 0.  1.
         13    1    5    5    0    0  0.53285823172E+02  0.24069197070E+03 -0.49451568106E+03  0.55255566464E+03  0.00000000000E+00 0. -1.
        -13    1    5    5    0    0  0.30399565670E+02  0.14023531911E+02 -0.10721035288E+03  0.11231586177E+03  0.00000000000E+00 0.  1.
          1    1    6    6  503    0  0.16716476442E+02  0.32270507160E+02  0.18223892948E+03  0.18582748353E+03  0.00000000000E+00 0. -1.
         -1    1    6    6    0  503  0.52231060067E+02  0.94329176075E+02  0.13157920521E+03  0.17011515023E+03  0.00000000000E+00 0.  1.
<mgrwt>
<rscale>  0 0.15363250E+04</rscale>
<asrwt>0</asrwt>
<pdfrwt beam="1">  1        2 0.65594760E-01 0.15363250E+04</pdfrwt>
<pdfrwt beam="2">  1       -1 0.21291701E+00 0.15363250E+04</pdfrwt>
<totfact> 0.10011962E+01</totfact>
</mgrwt>
</event>
<event>
12    7  0.1546317E-007  0.2268361E+04  0.7818608E-02  0.8490501E-01
          2   -1    0    0  501    0  0.00000000000E+00  0.00000000000E+00  0.23521367252E+04  0.23521367252E+04  0.00000000000E+00 0. -1.
         -1   -1    0    0    0  501 -0.00000000000E+00 -0.00000000000E+00 -0.54689234668E+03  0.54689234668E+03  0.00000000000E+00 0.  1.
         24    2    1    2    0    0 -0.21208426488E+02  0.14573299768E+03  0.19643720960E+04  0.19715034580E+04  0.79876464389E+02 0.  0.
        254    2    1    2    0    0  0.21208426488E+02 -0.14573299768E+03 -0.15912771741E+03  0.92752561390E+03  0.90182827080E+03 0.  0.
         23    2    4    4    0    0 -0.21050566358E+03 -0.25161011186E+03  0.26000608364E+03  0.42785328492E+03  0.88515462457E+02 0.  0.
         23    2    4    4    0    0  0.23171409007E+03  0.10587711418E+03 -0.41913380106E+03  0.49967232898E+03  0.95382966579E+02 0.  0.
          4    1    3    3  502    0 -0.46082984270E+02  0.99972381933E+02  0.15435494676E+04  0.15474698955E+04  0.00000000000E+00 0. -1.
         -3    1    3    3    0  502  0.24874557782E+02  0.45760615747E+02  0.42082262836E+03  0.42403356249E+03  0.00000000000E+00 0.  1.
         13    1    5    5    0    0 -0.44689136167E+02 -0.19474670993E+02  0.69211057366E+02  0.84655491041E+02  0.00000000000E+00 0. -1.
        -13    1    5    5    0    0 -0.16581652741E+03 -0.23213544087E+03  0.19079502628E+03  0.34319779388E+03  0.00000000000E+00 0.  1.
          4    1    6    6  503    0  0.18542438514E+03  0.97422961437E+02 -0.26083076504E+03  0.33452372713E+03  0.00000000000E+00 0.  1.
         -4    1    6    6    0  503  0.46289704926E+02  0.84541527462E+01 -0.15830303601E+03  0.16514860185E+03  0.00000000000E+00 0. -1.
<mgrwt>
<rscale>  0 0.22683611E+04</rscale>
<asrwt>0</asrwt>
<pdfrwt beam="1">  1        2 0.36186718E+00 0.22683611E+04</pdfrwt>
<pdfrwt beam="2">  1       -1 0.84137286E-01 0.22683611E+04</pdfrwt>
<totfact> 0.61293201E+00</totfact>
</mgrwt>
</event>
<event>
12    7  0.1546317E-007  0.2298667E+04  0.7818608E-02  0.8478447E-01
         -1   -1    0    0    0  501 -0.00000000000E+00  0.00000000000E+00  0.54892297364E+03  0.54892297364E+03  0.00000000000E+00 0.  1.
          2   -1    0    0  501    0  0.00000000000E+00 -0.00000000000E+00 -0.24064704869E+04  0.24064704869E+04  0.00000000000E+00 0. -1.
         24    2    1    2    0    0  0.68490722344E+03 -0.69067142671E+03 -0.91131342074E+03  0.13352409529E+04  0.79065333750E+02 0.  0.
        254    2    1    2    0    0 -0.68490722344E+03  0.69067142671E+03 -0.94623409249E+03  0.16201525076E+04  0.88510466377E+03 0.  0.
         23    2    4    4    0    0 -0.24288148537E+03 -0.18180598714E+03 -0.12677844125E+03  0.34090433749E+03  0.89989784174E+02 0.  0.
         23    2    4    4    0    0 -0.44202573807E+03  0.87247741384E+03 -0.81945565125E+03  0.12792481702E+04  0.91458874436E+02 0.  0.
          2    1    3    3  502    0  0.54191132805E+03 -0.54167907974E+03 -0.67207127066E+03  0.10191976775E+04  0.00000000000E+00 0. -1.
         -1    1    3    3    0  502  0.14299589539E+03 -0.14899234696E+03 -0.23924215008E+03  0.31604327541E+03  0.00000000000E+00 0.  1.
         13    1    5    5    0    0 -0.18500525406E+03 -0.85297289909E+02 -0.75850886803E+02  0.21738428813E+03  0.00000000000E+00 0. -1.
        -13    1    5    5    0    0 -0.57876231309E+02 -0.96508697228E+02 -0.50927554445E+02  0.12352004936E+03  0.00000000000E+00 0.  1.
          1    1    6    6  503    0 -0.39012109014E+03  0.82128172443E+03 -0.75182248064E+03  0.11798030252E+04  0.00000000000E+00 0. -1.
         -1    1    6    6    0  503 -0.51904647935E+02  0.51195689412E+02 -0.67633170603E+02  0.99445144967E+02  0.00000000000E+00 0.  1.
<mgrwt>
<rscale>  0 0.22986665E+04</rscale>
<asrwt>0</asrwt>
<pdfrwt beam="1">  1        2 0.37022623E+00 0.22986665E+04</pdfrwt>
<pdfrwt beam="2">  1       -1 0.84449688E-01 0.22986665E+04</pdfrwt>
<totfact> 0.56459117E+00</totfact>
</mgrwt>
</event>
<event>
12    7  0.1546317E-007  0.2772648E+04  0.7818608E-02  0.8311811E-01
          2   -1    0    0  501    0  0.00000000000E+00  0.00000000000E+00  0.28988157316E+04  0.28988157316E+04  0.00000000000E+00 0. -1.
         -1   -1    0    0    0  501 -0.00000000000E+00 -0.00000000000E+00 -0.66299271449E+03  0.66299271449E+03  0.00000000000E+00 0.  1.
         24    2    1    2    0    0  0.11712369841E+04 -0.39134656810E+03  0.10023885888E+04  0.15925050837E+04  0.79632589892E+02 0.  0.
        254    2    1    2    0    0 -0.11712369841E+04  0.39134656810E+03  0.12334344283E+04  0.19693033624E+04  0.91205648656E+03 0.  0.
         23    2    4    4    0    0 -0.12999915257E+04  0.35291130201E+03  0.97881258391E+03  0.16675987742E+04  0.91034298524E+02 0.  0.
         23    2    4    4    0    0  0.12875454153E+03  0.38435266099E+02  0.25462184440E+03  0.30170458812E+03  0.90212932594E+02 0.  0.
          4    1    3    3  502    0  0.65142119660E+02 -0.31944883836E+01  0.51483075123E+02  0.83091561148E+02  0.00000000000E+00 0. -1.
         -3    1    3    3    0  502  0.11060948645E+04 -0.38815207972E+03  0.95090551368E+03  0.15094135226E+04  0.00000000000E+00 0.  1.
         13    1    5    5    0    0 -0.10908516493E+04  0.28208866954E+03  0.77901157000E+03  0.13698139890E+04  0.00000000000E+00 0. -1.
        -13    1    5    5    0    0 -0.20913987637E+03  0.70822632464E+02  0.19980101392E+03  0.29778478524E+03  0.00000000000E+00 0.  1.
          1    1    6    6  503    0  0.27881216082E+02  0.10687551022E+02  0.15288631664E+03  0.15577487530E+03  0.00000000000E+00 0. -1.
         -1    1    6    6    0  503  0.10087332545E+03  0.27747715077E+02  0.10173552775E+03  0.14592971283E+03  0.00000000000E+00 0.  1.
<mgrwt>
<rscale>  0 0.27726476E+04</rscale>
<asrwt>0</asrwt>
<pdfrwt beam="1">  1        2 0.44597164E+00 0.27726476E+04</pdfrwt>
<pdfrwt beam="2">  1       -1 0.10199888E+00 0.27726476E+04</pdfrwt>
<totfact> 0.18159652E+00</totfact>
</mgrwt>
</event>
<event>
12    7  0.1546317E-007  0.1786797E+04  0.7818608E-02  0.8713352E-01
          2   -1    0    0  501    0  0.00000000000E+00  0.00000000000E+00  0.10113966578E+04  0.10113966578E+04  0.00000000000E+00 0. -1.
         -1   -1    0    0    0  501 -0.00000000000E+00 -0.00000000000E+00 -0.78916727386E+03  0.78916727386E+03  0.00000000000E+00 0.  1.
         24    2    1    2    0    0  0.27364478811E+02  0.59075260834E+03  0.33201965190E+03  0.68290238326E+03  0.79882143536E+02 0.  0.
        254    2    1    2    0    0 -0.27364478811E+02 -0.59075260834E+03 -0.10979026793E+03  0.11176615484E+04  0.94200635612E+03 0.  0.
         23    2    4    4    0    0 -0.26439643993E+03  0.14202919851E+03  0.69039931620E+02  0.32190178971E+03  0.93682865997E+02 0.  0.
         23    2    4    4    0    0  0.23703196112E+03 -0.73278180685E+03 -0.17883019955E+03  0.79575975873E+03  0.90000146139E+02 0.  0.
          4    1    3    3  502    0  0.47592099868E+02  0.38637307371E+03  0.18986053056E+03  0.43312374805E+03  0.00000000000E+00 0. -1.
         -3    1    3    3    0  502 -0.20227621056E+02  0.20437953463E+03  0.14215912134E+03  0.24977863521E+03  0.00000000000E+00 0.  1.
         13    1    5    5    0    0 -0.16560912873E+03  0.13365987408E+03  0.28198286364E+02  0.21467763929E+03  0.00000000000E+00 0. -1.
        -13    1    5    5    0    0 -0.98787311199E+02  0.83693244339E+01  0.40841645256E+02  0.10722415042E+03  0.00000000000E+00 0.  1.
          2    1    6    6  503    0  0.18584822466E+03 -0.49574994722E+03 -0.15728287284E+03  0.55230922033E+03  0.00000000000E+00 0. -1.
         -2    1    6    6    0  503  0.51183736462E+02 -0.23703185963E+03 -0.21547326702E+02  0.24345053840E+03  0.00000000000E+00 0.  1.
<mgrwt>
<rscale>  0 0.17867973E+04</rscale>
<asrwt>0</asrwt>
<pdfrwt beam="1">  1        2 0.15559948E+00 0.17867973E+04</pdfrwt>
<pdfrwt beam="2">  1       -1 0.12141035E+00 0.17867973E+04</pdfrwt>
<totfact> 0.16065496E+01</totfact>
</mgrwt>
</event>
<event>
12    7  0.1546317E-007  0.1782542E+04  0.7818608E-02  0.8715639E-01
          2   -1    0    0  501    0  0.00000000000E+00  0.00000000000E+00  0.25328479731E+04  0.25328479731E+04  0.00000000000E+00 0. -1.
         -1   -1    0    0    0  501 -0.00000000000E+00 -0.00000000000E+00 -0.31362469470E+03  0.31362469470E+03  0.00000000000E+00 0.  1.
         24    2    1    2    0    0 -0.13367250742E+03 -0.42217033159E+03  0.16263284105E+04  0.16873738373E+04  0.78678077283E+02 0.  0.
        254    2    1    2    0    0  0.13367250742E+03  0.42217033159E+03  0.59289486789E+03  0.11590988305E+04  0.89212647444E+03 0.  0.
         23    2    4    4    0    0 -0.53091344735E+02 -0.17406325035E+03 -0.95611561896E+02  0.22431597996E+03  0.89774061330E+02 0.  0.
         23    2    4    4    0    0  0.18676385215E+03  0.59623358194E+03  0.68850642979E+03  0.93478285055E+03  0.96967278629E+02 0.  0.
          4    1    3    3  502    0 -0.86803838355E+02 -0.36670525246E+03  0.13398337367E+04  0.13918197047E+04  0.00000000000E+00 0. -1.
         -3    1    3    3    0  502 -0.46868669063E+02 -0.55465079129E+02  0.28649467381E+03  0.29555413254E+03  0.00000000000E+00 0.  1.
         13    1    5    5    0    0 -0.22145277875E+02 -0.14543583879E+03 -0.36257706164E+02  0.15151441447E+03  0.00000000000E+00 0. -1.
        -13    1    5    5    0    0 -0.30946066860E+02 -0.28627411560E+02 -0.59353855732E+02  0.72801565485E+02  0.00000000000E+00 0.  1.
          3    1    6    6  503    0  0.15234704727E+03  0.56661352003E+03  0.63393430944E+03  0.86379002806E+03  0.00000000000E+00 0. -1.
         -3    1    6    6    0  503  0.34416804882E+02  0.29620061903E+02  0.54572120351E+02  0.70992822490E+02  0.00000000000E+00 0.  1.
<mgrwt>
<rscale>  0 0.17825416E+04</rscale>
<asrwt>0</asrwt>
<pdfrwt beam="1">  1        2 0.38966891E+00 0.17825416E+04</pdfrwt>
<pdfrwt beam="2">  1       -1 0.48249955E-01 0.17825416E+04</pdfrwt>
<totfact> 0.15423376E+01</totfact>
</mgrwt>
</event>
<event>
12    7  0.1546317E-007  0.1233004E+04  0.7818608E-02  0.9084449E-01
          2   -1    0    0  501    0  0.00000000000E+00  0.00000000000E+00  0.31324839756E+04  0.31324839756E+04  0.00000000000E+00 0. -1.
         -1   -1    0    0    0  501 -0.00000000000E+00 -0.00000000000E+00 -0.12133331169E+03  0.12133331169E+03  0.00000000000E+00 0.  1.
         24    2    1    2    0    0  0.19995886715E+03  0.18624394401E+03  0.58845799749E+03  0.65388056571E+03  0.81281142760E+02 0.  0.
        254    2    1    2    0    0 -0.19995886715E+03 -0.18624394401E+03  0.24226926665E+04  0.25999367216E+04  0.90308407418E+03 0.  0.
         23    2    4    4    0    0 -0.35595671617E+03 -0.23009787543E+03  0.23695829065E+04  0.24089178276E+04  0.91168706169E+02 0.  0.
         23    2    4    4    0    0  0.15599784902E+03  0.43853931417E+02  0.53109759914E+02  0.19101889403E+03  0.86075984338E+02 0.  0.
          2    1    3    3  502    0  0.45963025510E+02  0.14271005857E+02  0.16141770072E+03  0.16843970859E+03  0.00000000000E+00 0. -1.
         -1    1    3    3    0  502  0.15399584164E+03  0.17197293815E+03  0.42704029677E+03  0.48544085712E+03  0.00000000000E+00 0.  1.
         13    1    5    5    0    0 -0.28819213527E+03 -0.20937872377E+03  0.21089787741E+04  0.21388514737E+04  0.00000000000E+00 0. -1.
        -13    1    5    5    0    0 -0.67764580893E+02 -0.20719151659E+02  0.26060413245E+03  0.27006635392E+03  0.00000000000E+00 0.  1.
          3    1    6    6  503    0  0.11720114186E+03 -0.91250097886E+01  0.38984434141E+02  0.12385136076E+03  0.00000000000E+00 0. -1.
         -3    1    6    6    0  503  0.38796707161E+02  0.52978941206E+02  0.14125325773E+02  0.67167533274E+02  0.00000000000E+00 0.  1.
<mgrwt>
<rscale>  0 0.12330039E+04</rscale>
<asrwt>0</asrwt>
<pdfrwt beam="1">  1        2 0.48192055E+00 0.12330039E+04</pdfrwt>
<pdfrwt beam="2">  1       -1 0.18666666E-01 0.12330039E+04</pdfrwt>
<totfact> 0.37511823E+01</totfact>
</mgrwt>
</event>
<event>
12    7  0.1546317E-007  0.1434817E+04  0.7818608E-02  0.8928995E-01
         -1   -1    0    0    0  501 -0.00000000000E+00  0.00000000000E+00  0.10503460054E+03  0.10503460054E+03  0.00000000000E+00 0.  1.
          2   -1    0    0  501    0  0.00000000000E+00 -0.00000000000E+00 -0.49000523791E+04  0.49000523791E+04  0.00000000000E+00 0. -1.
         24    2    1    2    0    0 -0.25540140325E+02  0.33152961218E+03 -0.24070061933E+04  0.24311672418E+04  0.79568592619E+02 0.  0.
        254    2    1    2    0    0  0.25540140325E+02 -0.33152961218E+03 -0.23880115854E+04  0.25739197378E+04  0.90105455028E+03 0.  0.
         23    2    4    4    0    0 -0.18570823319E+03 -0.58222877005E+03 -0.14552717376E+04  0.15810013347E+04  0.90947797071E+02 0.  0.
         23    2    4    4    0    0  0.21124837352E+03  0.25069915787E+03 -0.93273984779E+03  0.99291840310E+03  0.91691812506E+02 0.  0.
          4    1    3    3  502    0  0.61343038777E+01  0.26381657312E+03 -0.20023538843E+04  0.20196677678E+04  0.00000000000E+00 0. -1.
         -3    1    3    3    0  502 -0.31674444203E+02  0.67713039052E+02 -0.40465230891E+03  0.41149947409E+03  0.00000000000E+00 0.  1.
         13    1    5    5    0    0 -0.30987891873E+02 -0.31801978603E+02 -0.77780600058E+02  0.89562475575E+02  0.00000000000E+00 0. -1.
        -13    1    5    5    0    0 -0.15472034132E+03 -0.55042679144E+03 -0.13774911375E+04  0.14914388592E+04  0.00000000000E+00 0.  1.
          1    1    6    6  503    0  0.27791958549E+02  0.16005188628E+02 -0.18966680318E+03  0.19235918291E+03  0.00000000000E+00 0. -1.
         -1    1    6    6    0  503  0.18345641497E+03  0.23469396924E+03 -0.74307304461E+03  0.80055922018E+03  0.00000000000E+00 0.  1.
<mgrwt>
<rscale>  0 0.14348171E+04</rscale>
<asrwt>0</asrwt>
<pdfrwt beam="1">  1        2 0.75385409E+00 0.14348171E+04</pdfrwt>
<pdfrwt beam="2">  1       -1 0.16159172E-01 0.14348171E+04</pdfrwt>
<totfact> 0.15469953E+00</totfact>
</mgrwt>
</event>
<event>
12    7  0.1546317E-007  0.1167730E+04  0.7818608E-02  0.9141581E-01
          2   -1    0    0  501    0  0.00000000000E+00  0.00000000000E+00  0.93387149511E+03  0.93387149511E+03  0.00000000000E+00 0. -1.
         -1   -1    0    0    0  501 -0.00000000000E+00 -0.00000000000E+00 -0.36503753888E+03  0.36503753888E+03  0.00000000000E+00 0.  1.
         24    2    1    2    0    0  0.19878706240E+03 -0.10263212398E+03  0.11315076004E+03  0.26424254905E+03  0.83494797357E+02 0.  0.
        254    2    1    2    0    0 -0.19878706240E+03  0.10263212398E+03  0.45568319620E+03  0.10346664849E+04  0.90157523851E+03 0.  0.
         23    2    4    4    0    0  0.32823268517E+03  0.15611593040E+02  0.23271847595E+02  0.34142659241E+03  0.89722470259E+02 0.  0.
         23    2    4    4    0    0 -0.52701974756E+03  0.87020530939E+02  0.43241134860E+03  0.69323989252E+03  0.90992236215E+02 0.  0.
          2    1    3    3  502    0  0.11531069677E+03 -0.40266529452E+02  0.10259105210E+03  0.15950822598E+03  0.00000000000E+00 0. -1.
         -1    1    3    3    0  502  0.83476365626E+02 -0.62365594527E+02  0.10559707938E+02  0.10473432308E+03  0.00000000000E+00 0.  1.
         13    1    5    5    0    0  0.27732237621E+03 -0.19490177823E+02  0.10035978437E+02  0.27818750555E+03  0.00000000000E+00 0. -1.
        -13    1    5    5    0    0  0.50910308952E+02  0.35101770863E+02  0.13235869158E+02  0.63239086866E+02  0.00000000000E+00 0.  1.
          1    1    6    6  503    0 -0.40726761825E+03  0.28449750494E+02  0.33549462024E+03  0.52842496288E+03  0.00000000000E+00 0. -1.
         -1    1    6    6    0  503 -0.11975212931E+03  0.58570780444E+02  0.96916728359E+02  0.16481492964E+03  0.00000000000E+00 0.  1.
<mgrwt>
<rscale>  0 0.11677297E+04</rscale>
<asrwt>0</asrwt>
<pdfrwt beam="1">  1        2 0.14367254E+00 0.11677297E+04</pdfrwt>
<pdfrwt beam="2">  1       -1 0.56159622E-01 0.11677297E+04</pdfrwt>
<totfact> 0.10069401E+02</totfact>
</mgrwt>
</event>
<event>
12    7  0.1546317E-007  0.1750443E+04  0.7818608E-02  0.8733106E-01
          2   -1    0    0  501    0  0.00000000000E+00  0.00000000000E+00  0.14459993148E+04  0.14459993148E+04  0.00000000000E+00 0. -1.
         -1   -1    0    0    0  501 -0.00000000000E+00 -0.00000000000E+00 -0.52974639811E+03  0.52974639811E+03  0.00000000000E+00 0.  1.
         24    2    1    2    0    0 -0.48695464393E+03  0.36257558149E+03  0.21408069264E+03  0.64866632951E+03  0.79696841493E+02 0.  0.
        254    2    1    2    0    0  0.48695464393E+03 -0.36257558149E+03  0.70217222401E+03  0.13270793834E+04  0.94842394532E+03 0.  0.
         23    2    4    4    0    0  0.12848304939E+03 -0.64268805123E+03  0.42643893359E+03  0.78724725906E+03  0.91390686868E+02 0.  0.
         23    2    4    4    0    0  0.35847159454E+03  0.28011246975E+03  0.27573329042E+03  0.53983212430E+03  0.91787772546E+02 0.  0.
          4    1    3    3  502    0 -0.11972139991E+03  0.10001353732E+03  0.91601814390E+02  0.18090553790E+03  0.00000000000E+00 0. -1.
         -3    1    3    3    0  502 -0.36723324401E+03  0.26256204417E+03  0.12247887825E+03  0.46776079161E+03  0.00000000000E+00 0.  1.
         13    1    5    5    0    0  0.61226654832E+02 -0.48717831821E+03  0.33822606704E+03  0.59622838697E+03  0.00000000000E+00 0.  1.
        -13    1    5    5    0    0  0.67256394558E+02 -0.15550973302E+03  0.88212866544E+02  0.19101887209E+03  0.00000000000E+00 0. -1.
          2    1    6    6  503    0  0.41629685123E+02  0.69670025869E+02  0.71204737053E+02  0.10796785525E+03  0.00000000000E+00 0. -1.
         -2    1    6    6    0  503  0.31684190941E+03  0.21044244388E+03  0.20452855337E+03  0.43186426906E+03  0.00000000000E+00 0.  1.
<mgrwt>
<rscale>  0 0.17504433E+04</rscale>
<asrwt>0</asrwt>
<pdfrwt beam="1">  1        2 0.22246143E+00 0.17504433E+04</pdfrwt>
<pdfrwt beam="2">  1       -1 0.81499447E-01 0.17504433E+04</pdfrwt>
<totfact> 0.22056642E+01</totfact>
</mgrwt>
</event>
<event>
12    7  0.1546317E-007  0.2446407E+04  0.7818608E-02  0.8422331E-01
          2   -1    0    0  501    0  0.00000000000E+00  0.00000000000E+00  0.31388958199E+04  0.31388958199E+04  0.00000000000E+00 0. -1.
         -1   -1    0    0    0  501 -0.00000000000E+00 -0.00000000000E+00 -0.47667313202E+03  0.47667313202E+03  0.00000000000E+00 0.  1.
         24    2    1    2    0    0 -0.15128700284E+03  0.41296903310E+03  0.25684671575E+04  0.26071260457E+04  0.81556724835E+02 0.  0.
        254    2    1    2    0    0  0.15128700284E+03 -0.41296903310E+03  0.93755530286E+02  0.10084429061E+04  0.90262717441E+03 0.  0.
         23    2    4    4    0    0  0.43693754920E+03 -0.18139899502E+03 -0.20904730144E+03  0.52465888402E+03  0.88012232372E+02 0.  0.
         23    2    4    4    0    0 -0.28565054636E+03 -0.23157003808E+03  0.30280283172E+03  0.48378402213E+03  0.84477855078E+02 0.  0.
          2    1    3    3  502    0 -0.97145307806E+02  0.35471494728E+03  0.21113425507E+04  0.21431349167E+04  0.00000000000E+00 0. -1.
         -1    1    3    3    0  502 -0.54141695030E+02  0.58254085816E+02  0.45712460683E+03  0.46399112904E+03  0.00000000000E+00 0.  1.
         13    1    5    5    0    0  0.25318051953E+02 -0.21865178500E+02 -0.39508375993E+02  0.51768731480E+02  0.00000000000E+00 0.  1.
        -13    1    5    5    0    0  0.41161949724E+03 -0.15953381652E+03 -0.16953892544E+03  0.47289015254E+03  0.00000000000E+00 0. -1.
          4    1    6    6  503    0 -0.26304844028E+03 -0.23208684833E+03  0.26462596871E+03  0.43941516863E+03  0.00000000000E+00 0. -1.
         -4    1    6    6    0  503 -0.22602106081E+02  0.51681025191E+00  0.38176863009E+02  0.44368853505E+02  0.00000000000E+00 0.  1.
<mgrwt>
<rscale>  0 0.24464074E+04</rscale>
<asrwt>0</asrwt>
<pdfrwt beam="1">  1        2 0.48290704E+00 0.24464074E+04</pdfrwt>
<pdfrwt beam="2">  1       -1 0.73334330E-01 0.24464074E+04</pdfrwt>
<totfact> 0.27139390E+00</totfact>
</mgrwt>
</event>
<event>
12    7  0.1546317E-007  0.1360247E+04  0.7818608E-02  0.8983108E-01
         -1   -1    0    0    0  501 -0.00000000000E+00  0.00000000000E+00  0.31357235108E+03  0.31357235108E+03  0.00000000000E+00 0.  1.
          2   -1    0    0  501    0  0.00000000000E+00 -0.00000000000E+00 -0.14751546201E+04  0.14751546201E+04  0.00000000000E+00 0. -1.
         24    2    1    2    0    0  0.15393006581E+02 -0.34494991104E+03 -0.13321511427E+03  0.37850231345E+03  0.79311719434E+02 0.  0.
        254    2    1    2    0    0 -0.15393006581E+02  0.34494991104E+03 -0.10283671547E+04  0.14102246577E+04  0.90109222307E+03 0.  0.
         23    2    4    4    0    0  0.88333899972E+00  0.64340379882E+03 -0.65553821844E+03  0.92379849901E+03  0.98509300719E+02 0.  0.
         23    2    4    4    0    0 -0.16276345581E+02 -0.29845388778E+03 -0.37282893628E+03  0.48642615868E+03  0.90935964070E+02 0.  0.
          2    1    3    3  502    0  0.55255772038E+01 -0.17097715998E+00 -0.11459514473E+02  0.12723274287E+02  0.00000000000E+00 0. -1.
         -1    1    3    3    0  502  0.98674293771E+01 -0.34477893388E+03 -0.12175559980E+03  0.36577903916E+03  0.00000000000E+00 0.  1.
         13    1    5    5    0    0 -0.22915247099E+02  0.12645374403E+03 -0.88047682515E+02  0.15578206677E+03  0.00000000000E+00 0. -1.
        -13    1    5    5    0    0  0.23798586098E+02  0.51695005479E+03 -0.56749053592E+03  0.76801643225E+03  0.00000000000E+00 0.  1.
          1    1    6    6  503    0  0.26192870124E+02 -0.11690451080E+03 -0.10043989767E+03  0.15633586964E+03  0.00000000000E+00 0. -1.
         -1    1    6    6    0  503 -0.42469215705E+02 -0.18154937698E+03 -0.27238903861E+03  0.33009028904E+03  0.00000000000E+00 0.  1.
<mgrwt>
<rscale>  0 0.13602466E+04</rscale>
<asrwt>0</asrwt>
<pdfrwt beam="1">  1        2 0.22694686E+00 0.13602466E+04</pdfrwt>
<pdfrwt beam="2">  1       -1 0.48241901E-01 0.13602466E+04</pdfrwt>
<totfact> 0.62645352E+01</totfact>
</mgrwt>
</event>
<event>
12    7  0.1546317E-007  0.2218098E+04  0.7818608E-02  0.8510933E-01
         -1   -1    0    0    0  501 -0.00000000000E+00  0.00000000000E+00  0.49368158547E+03  0.49368158547E+03  0.00000000000E+00 0.  1.
          2   -1    0    0  501    0  0.00000000000E+00 -0.00000000000E+00 -0.24914629790E+04  0.24914629790E+04  0.00000000000E+00 0. -1.
         24    2    1    2    0    0  0.10570092038E+03  0.91990305642E+03 -0.71706461753E+03  0.11738311851E+04  0.79395639752E+02 0.  0.
        254    2    1    2    0    0 -0.10570092038E+03 -0.91990305642E+03 -0.12807167760E+04  0.18113133794E+04  0.88500077976E+03 0.  0.
         23    2    4    4    0    0 -0.13945469981E+03  0.12100449737E+03 -0.37517463459E+03  0.42855194002E+03  0.93867231640E+02 0.  0.
         23    2    4    4    0    0  0.33753779425E+02 -0.10409075538E+04 -0.90554214139E+03  0.13827614393E+04  0.85992878256E+02 0.  0.
          4    1    3    3  502    0  0.10893227606E+03  0.91694851914E+03 -0.71756067644E+03  0.11694247098E+04  0.00000000000E+00 0. -1.
         -3    1    3    3    0  502 -0.32313556808E+01  0.29545372794E+01  0.49605891146E+00  0.44064752938E+01  0.00000000000E+00 0.  1.
         13    1    5    5    0    0 -0.10189777557E+03  0.61801245366E+02 -0.14367429065E+03  0.18666775937E+03  0.00000000000E+00 0.  1.
        -13    1    5    5    0    0 -0.37556924240E+02  0.59203252005E+02 -0.23150034394E+03  0.24188418065E+03  0.00000000000E+00 0. -1.
          3    1    6    6  503    0  0.10962194025E+02 -0.91849247196E+03 -0.76892512249E+03  0.11979125322E+04  0.00000000000E+00 0. -1.
         -3    1    6    6    0  503  0.22791585400E+02 -0.12241508183E+03 -0.13661701890E+03  0.18484890716E+03  0.00000000000E+00 0.  1.
<mgrwt>
<rscale>  0 0.22180977E+04</rscale>
<asrwt>0</asrwt>
<pdfrwt beam="1">  1        2 0.38330200E+00 0.22180977E+04</pdfrwt>
<pdfrwt beam="2">  1       -1 0.75951013E-01 0.22180977E+04</pdfrwt>
<totfact> 0.63678311E+00</totfact>
</mgrwt>
</event>
<event>
12    7  0.1546317E-007  0.2186688E+04  0.7818608E-02  0.8523990E-01
         -1   -1    0    0    0  501 -0.00000000000E+00  0.00000000000E+00  0.32084357982E+03  0.32084357982E+03  0.00000000000E+00 0.  1.
          2   -1    0    0  501    0  0.00000000000E+00 -0.00000000000E+00 -0.37258050681E+04  0.37258050681E+04  0.00000000000E+00 0. -1.
         24    2    1    2    0    0 -0.41109173000E+03  0.31337065923E+03 -0.33758720914E+02  0.52401832345E+03  0.79107341824E+02 0.  0.
        254    2    1    2    0    0  0.41109173000E+03 -0.31337065923E+03 -0.33712027674E+04  0.35226303245E+04  0.88131647193E+03 0.  0.
         23    2    4    4    0    0 -0.20962264622E+03 -0.31695221581E+03 -0.11579967394E+04  0.12221973615E+04  0.91703768238E+02 0.  0.
         23    2    4    4    0    0  0.62071437622E+03  0.35815565798E+01 -0.22132060280E+04  0.23004329630E+04  0.91715486596E+02 0.  0.
          2    1    3    3  502    0 -0.26203365695E+03  0.15498709371E+03 -0.35630785597E+02  0.30651621405E+03  0.00000000000E+00 0. -1.
         -1    1    3    3    0  502 -0.14905807305E+03  0.15838356552E+03  0.18720646831E+01  0.21750210940E+03  0.00000000000E+00 0.  1.
         13    1    5    5    0    0 -0.15423825506E+03 -0.24707677175E+03 -0.75001454768E+03  0.80458572706E+03  0.00000000000E+00 0. -1.
        -13    1    5    5    0    0 -0.55384391158E+02 -0.69875444061E+02 -0.40798219168E+03  0.41761163441E+03  0.00000000000E+00 0.  1.
          4    1    6    6  503    0  0.56109682819E+03 -0.18035741942E+02 -0.20454919131E+04  0.21211299124E+04  0.00000000000E+00 0. -1.
         -4    1    6    6    0  503  0.59617548030E+02  0.21617298522E+02 -0.16771411494E+03  0.17930305067E+03  0.00000000000E+00 0.  1.
<mgrwt>
<rscale>  0 0.21866876E+04</rscale>
<asrwt>0</asrwt>
<pdfrwt beam="1">  1        2 0.57320077E+00 0.21866876E+04</pdfrwt>
<pdfrwt beam="2">  1       -1 0.49360552E-01 0.21866876E+04</pdfrwt>
<totfact> 0.24045319E+00</totfact>
</mgrwt>
</event>
<event>
12    7  0.1546317E-007  0.1417666E+04  0.7818608E-02  0.8941129E-01
         -1   -1    0    0    0  501 -0.00000000000E+00  0.00000000000E+00  0.11441879085E+03  0.11441879085E+03  0.00000000000E+00 0.  1.
          2   -1    0    0  501    0  0.00000000000E+00 -0.00000000000E+00 -0.43912725130E+04  0.43912725130E+04  0.00000000000E+00 0. -1.
         24    2    1    2    0    0 -0.39138297356E+03 -0.10694230741E+03 -0.15894438323E+04  0.16424727247E+04  0.82265827233E+02 0.  0.
        254    2    1    2    0    0  0.39138297356E+03  0.10694230741E+03 -0.26874098899E+04  0.28632185791E+04  0.90068386612E+03 0.  0.
         23    2    4    4    0    0  0.47664188086E+03  0.34146746581E+03 -0.10622966886E+04  0.12165760862E+04  0.88292729945E+02 0.  0.
         23    2    4    4    0    0 -0.85258907301E+02 -0.23452515839E+03 -0.16251132013E+04  0.16466424929E+04  0.90373952934E+02 0.  0.
          2    1    3    3  502    0 -0.34405552795E+03 -0.91820599282E+02 -0.14806784556E+04  0.15228965552E+04  0.00000000000E+00 0. -1.
         -3    1    3    3    0  502 -0.47327445611E+02 -0.15121708131E+02 -0.10876537664E+03  0.11957616954E+03  0.00000000000E+00 0.  1.
         13    1    5    5    0    0  0.34597278015E+03  0.29367380308E+03 -0.81192627412E+03  0.93014286097E+03  0.00000000000E+00 0.  1.
        -13    1    5    5    0    0  0.13066910071E+03  0.47793662729E+02 -0.25037041448E+03  0.28643322525E+03  0.00000000000E+00 0. -1.
          4    1    6    6  503    0 -0.35333346010E+02 -0.23106114185E+02 -0.15840767415E+03  0.16393696679E+03  0.00000000000E+00 0. -1.
         -4    1    6    6    0  503 -0.49925561290E+02 -0.21141904421E+03 -0.14667055271E+04  0.14827055261E+04  0.00000000000E+00 0.  1.
<mgrwt>
<rscale>  0 0.14176658E+04</rscale>
<asrwt>0</asrwt>
<pdfrwt beam="1">  1        2 0.67558033E+00 0.14176658E+04</pdfrwt>
<pdfrwt beam="2">  1       -1 0.17602892E-01 0.14176658E+04</pdfrwt>
<totfact> 0.45476504E+00</totfact>
</mgrwt>
</event>
<event>
12    7  0.1546317E-007  0.1791008E+04  0.7818608E-02  0.8711096E-01
         -1   -1    0    0    0  501 -0.00000000000E+00  0.00000000000E+00  0.13561785930E+04  0.13561785930E+04  0.00000000000E+00 0.  1.
          2   -1    0    0  501    0  0.00000000000E+00 -0.00000000000E+00 -0.59131400585E+03  0.59131400585E+03  0.00000000000E+00 0. -1.
         24    2    1    2    0    0 -0.58758829966E+03  0.20986106488E+03  0.32880921020E+03  0.70986192612E+03  0.80540554928E+02 0.  0.
        254    2    1    2    0    0  0.58758829966E+03 -0.20986106488E+03  0.43605537692E+03  0.12376306727E+04  0.97585025175E+03 0.  0.
         23    2    4    4    0    0  0.64647669293E+03 -0.41992656486E+03  0.57239711100E+03  0.96498685979E+03  0.96388549700E+02 0.  0.
         23    2    4    4    0    0 -0.58888393267E+02  0.21006549998E+03 -0.13634173407E+03  0.27264381292E+03  0.90278586217E+02 0.  0.
          2    1    3    3  502    0 -0.46169352466E+03  0.15451172214E+03  0.29113906640E+03  0.56727130985E+03  0.00000000000E+00 0. -1.
         -1    1    3    3    0  502 -0.12589477500E+03  0.55349342740E+02  0.37670143798E+02  0.14259061627E+03  0.00000000000E+00 0.  1.
         13    1    5    5    0    0  0.46509821003E+02 -0.59514894546E+02  0.74225854513E+02  0.10589930878E+03  0.00000000000E+00 0. -1.
        -13    1    5    5    0    0  0.59996687193E+03 -0.36041167032E+03  0.49817125648E+03  0.85908755101E+03  0.00000000000E+00 0.  1.
          3    1    6    6  503    0  0.17238551713E+02  0.13042434992E+02 -0.27657795721E+02  0.35103083053E+02  0.00000000000E+00 0. -1.
         -3    1    6    6    0  503 -0.76126944980E+02  0.19702306499E+03 -0.10868393835E+03  0.23754072987E+03  0.00000000000E+00 0.  1.
<mgrwt>
<rscale>  0 0.17910080E+04</rscale>
<asrwt>0</asrwt>
<pdfrwt beam="1">  1        2 0.90971386E-01 0.17910080E+04</pdfrwt>
<pdfrwt beam="2">  1       -1 0.20864286E+00 0.17910080E+04</pdfrwt>
<totfact> 0.71526090E+00</totfact>
</mgrwt>
</event>
<event>
12    7  0.1546317E-007  0.1869040E+04  0.7818608E-02  0.8670423E-01
         -1   -1    0    0    0  501 -0.00000000000E+00  0.00000000000E+00  0.73990674346E+03  0.73990674346E+03  0.00000000000E+00 0.  1.
          2   -1    0    0  501    0  0.00000000000E+00 -0.00000000000E+00 -0.11803207002E+04  0.11803207002E+04  0.00000000000E+00 0. -1.
         24    2    1    2    0    0  0.44757596661E+03  0.94249739710E+02 -0.73253656502E+03  0.86729458507E+03  0.79892545814E+02 0.  0.
        254    2    1    2    0    0 -0.44757596661E+03 -0.94249739710E+02  0.29212260830E+03  0.10529328586E+04  0.90228860519E+03 0.  0.
         23    2    4    4    0    0 -0.23098685168E+03 -0.47184343965E+03  0.23424091090E+02  0.53339118659E+03  0.89254202731E+02 0.  0.
         23    2    4    4    0    0 -0.21658911493E+03  0.37759369994E+03  0.26869851721E+03  0.51954167198E+03  0.90756866575E+02 0.  0.
          4    1    3    3  502    0  0.30972877340E+03  0.99326755361E+02 -0.54110946934E+03  0.63134552759E+03  0.00000000000E+00 0. -1.
         -3    1    3    3    0  502  0.13784719320E+03 -0.50770156509E+01 -0.19142709569E+03  0.23594905748E+03  0.00000000000E+00 0.  1.
         13    1    5    5    0    0 -0.19554777295E+03 -0.38696087941E+03 -0.14716694290E+02  0.43381359452E+03  0.00000000000E+00 0. -1.
        -13    1    5    5    0    0 -0.35439078725E+02 -0.84882560236E+02  0.38140785380E+02  0.99577592070E+02  0.00000000000E+00 0.  1.
          3    1    6    6  503    0 -0.22205839604E+03  0.37536196934E+03  0.25643663388E+03  0.50593110843E+03  0.00000000000E+00 0. -1.
         -3    1    6    6    0  503  0.54692811160E+01  0.22317306030E+01  0.12261883326E+02  0.13610563549E+02  0.00000000000E+00 0.  1.
<mgrwt>
<rscale>  0 0.18690396E+04</rscale>
<asrwt>0</asrwt>
<pdfrwt beam="1">  1        2 0.18158780E+00 0.18690396E+04</pdfrwt>
<pdfrwt beam="2">  1       -1 0.11383181E+00 0.18690396E+04</pdfrwt>
<totfact> 0.14658777E+01</totfact>
</mgrwt>
</event>
<event>
12    7  0.1546317E-007  0.1552912E+04  0.7818608E-02  0.8850010E-01
         -1   -1    0    0    0  501 -0.00000000000E+00  0.00000000000E+00  0.17993789126E+03  0.17993789126E+03  0.00000000000E+00 0.  1.
          2   -1    0    0  501    0  0.00000000000E+00 -0.00000000000E+00 -0.33505126336E+04  0.33505126336E+04  0.00000000000E+00 0. -1.
         24    2    1    2    0    0  0.16375345903E+03  0.41509059293E+02 -0.21563502385E+04  0.21644499640E+04  0.80368516433E+02 0.  0.
        254    2    1    2    0    0 -0.16375345903E+03 -0.41509059293E+02 -0.10142245039E+04  0.13660005608E+04  0.89931528989E+03 0.  0.
         23    2    4    4    0    0  0.89929524906E+02  0.32668994777E+03 -0.13662388213E+03  0.37683201215E+03  0.92318138986E+02 0.  0.
         23    2    4    4    0    0 -0.25368298394E+03 -0.36819900706E+03 -0.87760062174E+03  0.98916854870E+03  0.91356452007E+02 0.  0.
          2    1    3    3  502    0  0.14609853581E+03  0.56377144737E+02 -0.20282862366E+04  0.20343225462E+04  0.00000000000E+00 0. -1.
         -1    1    3    3    0  502  0.17654923226E+02 -0.14868085444E+02 -0.12806400190E+03  0.13012741779E+03  0.00000000000E+00 0.  1.
         13    1    5    5    0    0  0.74935672363E+02  0.18410994899E+03 -0.36845032615E+02  0.20216177863E+03  0.00000000000E+00 0.  1.
        -13    1    5    5    0    0  0.14993852543E+02  0.14257999878E+03 -0.99778849520E+02  0.17467023352E+03  0.00000000000E+00 0. -1.
          1    1    6    6  503    0 -0.10468210867E+03 -0.22418017910E+03 -0.52008995451E+03  0.57594153988E+03  0.00000000000E+00 0. -1.
         -1    1    6    6    0  503 -0.14900087526E+03 -0.14401882796E+03 -0.35751066723E+03  0.41322700882E+03  0.00000000000E+00 0.  1.
<mgrwt>
<rscale>  0 0.15529123E+04</rscale>
<asrwt>0</asrwt>
<pdfrwt beam="1">  1        2 0.51546345E+00 0.15529123E+04</pdfrwt>
<pdfrwt beam="2">  1       -1 0.27682754E-01 0.15529123E+04</pdfrwt>
<totfact> 0.13401167E+01</totfact>
</mgrwt>
</event>
<event>
12    7  0.1546317E-007  0.2080956E+04  0.7818608E-02  0.8569679E-01
         -1   -1    0    0    0  501 -0.00000000000E+00  0.00000000000E+00  0.51197309796E+03  0.51197309796E+03  0.00000000000E+00 0.  1.
          2   -1    0    0  501    0  0.00000000000E+00 -0.00000000000E+00 -0.21145541128E+04  0.21145541128E+04  0.00000000000E+00 0. -1.
         24    2    1    2    0    0  0.65047687942E+03 -0.52672305595E+03 -0.47698662116E+03  0.96676463031E+03  0.80995464804E+02 0.  0.
        254    2    1    2    0    0 -0.65047687942E+03  0.52672305595E+03 -0.11255943937E+04  0.16597625804E+04  0.88729461626E+03 0.  0.
         23    2    4    4    0    0 -0.76344788097E+03  0.11164767802E+03 -0.66567678578E+03  0.10231323979E+04  0.91413617856E+02 0.  0.
         23    2    4    4    0    0  0.11297100155E+03  0.41507537792E+03 -0.45991760788E+03  0.63663018255E+03  0.93401106735E+02 0.  0.
          4    1    3    3  502    0  0.13639543216E+03 -0.99087972167E+02 -0.13328724782E+03  0.21491307679E+03  0.00000000000E+00 0. -1.
         -3    1    3    3    0  502  0.51408144726E+03 -0.42763508378E+03 -0.34369937334E+03  0.75185155352E+03  0.00000000000E+00 0.  1.
         13    1    5    5    0    0 -0.71590147038E+03  0.12023263694E+03 -0.64303222398E+03  0.96977381041E+03  0.00000000000E+00 0. -1.
        -13    1    5    5    0    0 -0.47546410584E+02 -0.85849589127E+01 -0.22644561800E+02  0.53358587482E+02  0.00000000000E+00 0.  1.
          4    1    6    6  503    0  0.65071312777E+02  0.87372868892E+02 -0.10894235925E+03  0.15406729570E+03  0.00000000000E+00 0. -1.
         -4    1    6    6    0  503  0.47899688768E+02  0.32770250903E+03 -0.35097524863E+03  0.48256288685E+03  0.00000000000E+00 0.  1.
<mgrwt>
<rscale>  0 0.20809563E+04</rscale>
<asrwt>0</asrwt>
<pdfrwt beam="1">  1        2 0.32531601E+00 0.20809563E+04</pdfrwt>
<pdfrwt beam="2">  1       -1 0.78765093E-01 0.20809563E+04</pdfrwt>
<totfact> 0.97690065E+00</totfact>
</mgrwt>
</event>
<event>
12    7  0.1546317E-007  0.1787782E+04  0.7818608E-02  0.8712824E-01
         -1   -1    0    0    0  501 -0.00000000000E+00  0.00000000000E+00  0.21070542765E+03  0.21070542765E+03  0.00000000000E+00 0.  1.
          2   -1    0    0  501    0  0.00000000000E+00 -0.00000000000E+00 -0.37922197573E+04  0.37922197573E+04  0.00000000000E+00 0. -1.
         24    2    1    2    0    0  0.51115209138E+03 -0.45255750825E+03 -0.12153833912E+04  0.13962400797E+04  0.79024135539E+02 0.  0.
        254    2    1    2    0    0 -0.51115209138E+03  0.45255750825E+03 -0.23661309385E+04  0.26066851052E+04  0.85448631398E+03 0.  0.
         23    2    4    4    0    0 -0.59214103860E+03  0.50905817621E+03 -0.23413473580E+04  0.24698586009E+04  0.92319129021E+02 0.  0.
         23    2    4    4    0    0  0.80988947229E+02 -0.56500667960E+02 -0.24783580561E+02  0.13682650430E+03  0.91409689636E+02 0.  0.
          2    1    3    3  502    0  0.86349599768E+02 -0.11481229928E+03 -0.28434490626E+03  0.31857517663E+03  0.00000000000E+00 0. -1.
         -1    1    3    3    0  502  0.42480249161E+03 -0.33774520897E+03 -0.93103848490E+03  0.10776649031E+04  0.00000000000E+00 0.  1.
         13    1    5    5    0    0 -0.40106585263E+03  0.39892187334E+03 -0.17015913025E+04  0.17931551634E+04  0.00000000000E+00 0. -1.
        -13    1    5    5    0    0 -0.19107518598E+03  0.11013630287E+03 -0.63975605544E+03  0.67670343754E+03  0.00000000000E+00 0.  1.
          3    1    6    6  503    0  0.57593511068E+00 -0.42262701989E+02  0.16435667138E+02  0.45349739084E+02  0.00000000000E+00 0. -1.
         -3    1    6    6    0  503  0.80413012118E+02 -0.14237965971E+02 -0.41219247699E+02  0.91476765213E+02  0.00000000000E+00 0.  1.
<mgrwt>
<rscale>  0 0.17877822E+04</rscale>
<asrwt>0</asrwt>
<pdfrwt beam="1">  1        2 0.58341838E+00 0.17877822E+04</pdfrwt>
<pdfrwt beam="2">  1       -1 0.32416222E-01 0.17877822E+04</pdfrwt>
<totfact> 0.48235800E+00</totfact>
</mgrwt>
</event>
<event>
12    7  0.1546317E-007  0.1497393E+04  0.7818608E-02  0.8886188E-01
          2   -1    0    0  501    0  0.00000000000E+00  0.00000000000E+00  0.49316503958E+03  0.49316503958E+03  0.00000000000E+00 0. -1.
         -1   -1    0    0    0  501 -0.00000000000E+00 -0.00000000000E+00 -0.11366305584E+04  0.11366305584E+04  0.00000000000E+00 0.  1.
         24    2    1    2    0    0 -0.26996589670E+03  0.39001839325E+03 -0.26984084671E+03  0.55264085491E+03  0.87188872596E+02 0.  0.
        254    2    1    2    0    0  0.26996589670E+03 -0.39001839325E+03 -0.37362467215E+03  0.10771547431E+04  0.89200393077E+03 0.  0.
         23    2    4    4    0    0  0.19541370009E+03 -0.66201888214E+03 -0.34865520254E+03  0.77861773760E+03  0.90717234076E+02 0.  0.
         23    2    4    4    0    0  0.74552196606E+02  0.27200048889E+03 -0.24969469613E+02  0.29853700551E+03  0.94649739954E+02 0.  0.
          2    1    3    3  502    0 -0.44978718892E+02  0.63820273223E+02 -0.84905178364E+02  0.11534730920E+03  0.00000000000E+00 0. -1.
         -1    1    3    3    0  502 -0.22498717780E+03  0.32619812003E+03 -0.18493566834E+03  0.43729354570E+03  0.00000000000E+00 0.  1.
         13    1    5    5    0    0 -0.89179867022E+01 -0.12968583311E+02 -0.79898482824E+01  0.17650844611E+02  0.00000000000E+00 0. -1.
        -13    1    5    5    0    0  0.20433168679E+03 -0.64905029883E+03 -0.34066535425E+03  0.76096689299E+03  0.00000000000E+00 0.  1.
          3    1    6    6  503    0  0.79981534366E+02  0.12294882468E+03  0.33921518116E+01  0.14671389172E+03  0.00000000000E+00 0. -1.
         -3    1    6    6    0  503 -0.54293377595E+01  0.14905166421E+03 -0.28361621425E+02  0.15182311379E+03  0.00000000000E+00 0.  1.
<mgrwt>
<rscale>  0 0.14973930E+04</rscale>
<asrwt>0</asrwt>
<pdfrwt beam="1">  1        2 0.75871546E-01 0.14973930E+04</pdfrwt>
<pdfrwt beam="2">  1       -1 0.17486624E+00 0.14973930E+04</pdfrwt>
<totfact> 0.15671381E+01</totfact>
</mgrwt>
</event>
<event>
12    7  0.1546317E-007  0.2137337E+04  0.7818608E-02  0.8544972E-01
         -1   -1    0    0    0  501 -0.00000000000E+00  0.00000000000E+00  0.34882471593E+03  0.34882471593E+03  0.00000000000E+00 0.  1.
          2   -1    0    0  501    0  0.00000000000E+00 -0.00000000000E+00 -0.32739997308E+04  0.32739997308E+04  0.00000000000E+00 0. -1.
         24    2    1    2    0    0 -0.12958477050E+03  0.83807651867E+03 -0.15608123083E+04  0.17783456331E+04  0.84933297198E+02 0.  0.
        254    2    1    2    0    0  0.12958477050E+03 -0.83807651867E+03 -0.13643627066E+04  0.18444788137E+04  0.90633991147E+03 0.  0.
         23    2    4    4    0    0 -0.42882097937E+02  0.60267456174E+02 -0.70131470163E+03  0.71138637833E+03  0.93580061718E+02 0.  0.
         23    2    4    4    0    0  0.17246686844E+03 -0.89834397485E+03 -0.66304800494E+03  0.11330924354E+04  0.86597299812E+02 0.  0.
          2    1    3    3  502    0 -0.22054228314E+02  0.34914312419E+03 -0.58546022414E+03  0.68201978286E+03  0.00000000000E+00 0. -1.
         -1    1    3    3    0  502 -0.10753054219E+03  0.48893339448E+03 -0.97535208416E+03  0.10963258502E+04  0.00000000000E+00 0.  1.
         13    1    5    5    0    0 -0.42798927352E+01  0.76802602298E+02 -0.42639626659E+03  0.43327904792E+03  0.00000000000E+00 0.  1.
        -13    1    5    5    0    0 -0.38602205201E+02 -0.16535146124E+02 -0.27491843504E+03  0.27810733041E+03  0.00000000000E+00 0. -1.
          1    1    6    6  503    0  0.30331646664E+02 -0.15930080110E+03 -0.78531514749E+02  0.18017755918E+03  0.00000000000E+00 0. -1.
         -1    1    6    6    0  503  0.14213522178E+03 -0.73904317374E+03 -0.58451649020E+03  0.95291487618E+03  0.00000000000E+00 0.  1.
<mgrwt>
<rscale>  0 0.21373367E+04</rscale>
<asrwt>0</asrwt>
<pdfrwt beam="1">  1        2 0.50369226E+00 0.21373367E+04</pdfrwt>
<pdfrwt beam="2">  1       -1 0.53665342E-01 0.21373367E+04</pdfrwt>
<totfact> 0.42585014E+00</totfact>
</mgrwt>
</event>
<event>
12    7  0.1546317E-007  0.2115631E+04  0.7818608E-02  0.8554389E-01
         -1   -1    0    0    0  501 -0.00000000000E+00  0.00000000000E+00  0.43178352284E+03  0.43178352284E+03  0.00000000000E+00 0.  1.
          2   -1    0    0  501    0  0.00000000000E+00 -0.00000000000E+00 -0.25915147608E+04  0.25915147608E+04  0.00000000000E+00 0. -1.
         24    2    1    2    0    0  0.67581592653E+03  0.37463451910E+03 -0.14387579522E+04  0.16350986657E+04  0.80280832903E+02 0.  0.
        254    2    1    2    0    0 -0.67581592653E+03 -0.37463451910E+03 -0.72097328581E+03  0.13881996180E+04  0.90012083137E+03 0.  0.
         23    2    4    4    0    0 -0.28999548464E+03 -0.52120382455E+03 -0.75326685903E+03  0.96507507581E+03  0.90598748356E+02 0.  0.
         23    2    4    4    0    0 -0.38582044189E+03  0.14656930545E+03  0.32293573222E+02  0.42312454217E+03  0.87473016613E+02 0.  0.
          2    1    3    3  502    0  0.25389639783E+03  0.14276193169E+03 -0.46240483598E+03  0.54650030404E+03  0.00000000000E+00 0. -1.
         -1    1    3    3    0  502  0.42191952869E+03  0.23187258741E+03 -0.97635311620E+03  0.10885983617E+04  0.00000000000E+00 0.  1.
         13    1    5    5    0    0 -0.73642738939E+01 -0.25595146966E+02 -0.10853754329E+02  0.28760181871E+02  0.00000000000E+00 0.  1.
        -13    1    5    5    0    0 -0.28263121074E+03 -0.49560867758E+03 -0.74241310470E+03  0.93631489394E+03  0.00000000000E+00 0. -1.
          1    1    6    6  503    0 -0.35599114463E+03  0.12946065070E+03  0.53746037046E+02  0.38259429117E+03  0.00000000000E+00 0. -1.
         -1    1    6    6    0  503 -0.29829297261E+02  0.17108654755E+02 -0.21452463824E+02  0.40530251007E+02  0.00000000000E+00 0.  1.
<mgrwt>
<rscale>  0 0.21156308E+04</rscale>
<asrwt>0</asrwt>
<pdfrwt beam="1">  1        2 0.39869457E+00 0.21156308E+04</pdfrwt>
<pdfrwt beam="2">  1       -1 0.66428236E-01 0.21156308E+04</pdfrwt>
<totfact> 0.74079370E+00</totfact>
</mgrwt>
</event>
<event>
12    7  0.1589504E-007  0.1731743E+04  0.7818608E-02  0.8743464E-01
          2   -1    0    0  501    0  0.00000000000E+00  0.00000000000E+00  0.20352127271E+04  0.20352127271E+04  0.00000000000E+00 0. -1.
         -1   -1    0    0    0  501 -0.00000000000E+00 -0.00000000000E+00 -0.36838097267E+03  0.36838097267E+03  0.00000000000E+00 0.  1.
         24    2    1    2    0    0  0.33106447371E+03 -0.35930504409E+03  0.11727064847E+04  0.12729755573E+04  0.80761808704E+02 0.  0.
        254    2    1    2    0    0 -0.33106447371E+03  0.35930504409E+03  0.49412526972E+03  0.11306181425E+04  0.89187095559E+03 0.  0.
         23    2    4    4    0    0  0.94777637425E+01  0.58429903471E+03  0.22325101892E+03  0.63259822317E+03  0.94044162718E+02 0.  0.
         23    2    4    4    0    0 -0.34054223745E+03 -0.22499399061E+03  0.27087425080E+03  0.49801991929E+03  0.89775659090E+02 0.  0.
          2    1    3    3  502    0  0.29748843358E+03 -0.31218909758E+03  0.10885007440E+04  0.11708096645E+04  0.00000000000E+00 0. -1.
         -1    1    3    3    0  502  0.33576040128E+02 -0.47115946512E+02  0.84205740696E+02  0.10216589280E+03  0.00000000000E+00 0.  1.
         13    1    5    5    0    0  0.99689173369E+01  0.33503533977E+02  0.37643331934E+02  0.51370093837E+02  0.00000000000E+00 0.  1.
        -13    1    5    5    0    0 -0.49115359440E+00  0.55079550073E+03  0.18560768699E+03  0.58122812933E+03  0.00000000000E+00 0. -1.
          3    1    6    6  503    0 -0.33991578863E+03 -0.22753976438E+03  0.25519272308E+03  0.48212074592E+03  0.00000000000E+00 0. -1.
         -3    1    6    6    0  503 -0.62644882242E+00  0.25457737682E+01  0.15681527725E+02  0.15899173375E+02  0.00000000000E+00 0.  1.
<mgrwt>
<rscale>  0 0.17317432E+04</rscale>
<asrwt>0</asrwt>
<pdfrwt beam="1">  1        2 0.31310964E+00 0.17317432E+04</pdfrwt>
<pdfrwt beam="2">  1       -1 0.56673997E-01 0.17317432E+04</pdfrwt>
<totfact> 0.21758575E+01</totfact>
</mgrwt>
</event>
<event>
12    7  0.1546317E-007  0.2009671E+04  0.7818608E-02  0.8602113E-01
         -1   -1    0    0    0  501 -0.00000000000E+00  0.00000000000E+00  0.55067853465E+03  0.55067853465E+03  0.00000000000E+00 0.  1.
          2   -1    0    0  501    0  0.00000000000E+00 -0.00000000000E+00 -0.18335453049E+04  0.18335453049E+04  0.00000000000E+00 0. -1.
         24    2    1    2    0    0  0.60562674615E+03  0.52798356392E+03 -0.59820633237E+03  0.10048383518E+04  0.79365595713E+02 0.  0.
        254    2    1    2    0    0 -0.60562674615E+03 -0.52798356392E+03 -0.68466043786E+03  0.13793854877E+04  0.88791554165E+03 0.  0.
         23    2    4    4    0    0 -0.46878314746E+03 -0.16066409325E+03 -0.81311248327E+03  0.95668588917E+03  0.92333037854E+02 0.  0.
         23    2    4    4    0    0 -0.13684359870E+03 -0.36731947067E+03  0.12845204541E+03  0.42269959855E+03  0.92332326968E+02 0.  0.
          4    1    3    3  502    0  0.53381970774E+02  0.79425835654E+02 -0.78486375464E+02  0.12376675364E+03  0.00000000000E+00 0. -1.
         -3    1    3    3    0  502  0.55224477538E+03  0.44855772827E+03 -0.51971995691E+03  0.88107159819E+03  0.00000000000E+00 0.  1.
         13    1    5    5    0    0 -0.12402609411E+02  0.40103088756E+01 -0.55664429266E+02  0.57170236863E+02  0.00000000000E+00 0.  1.
        -13    1    5    5    0    0 -0.45638053804E+03 -0.16467440213E+03 -0.75744805400E+03  0.89951565230E+03  0.00000000000E+00 0. -1.
          1    1    6    6  503    0 -0.68710205071E+02 -0.26363348982E+03  0.12187223391E+03  0.29845694938E+03  0.00000000000E+00 0. -1.
         -1    1    6    6    0  503 -0.68133393624E+02 -0.10368598085E+03  0.65798114935E+01  0.12424264916E+03  0.00000000000E+00 0.  1.
<mgrwt>
<rscale>  0 0.20096707E+04</rscale>
<asrwt>0</asrwt>
<pdfrwt beam="1">  1        2 0.28208389E+00 0.20096707E+04</pdfrwt>
<pdfrwt beam="2">  1       -1 0.84719776E-01 0.20096707E+04</pdfrwt>
<totfact> 0.12049656E+01</totfact>
</mgrwt>
</event>
<event>
12    7  0.1546317E-007  0.1671630E+04  0.7818608E-02  0.8777712E-01
          2   -1    0    0  501    0  0.00000000000E+00  0.00000000000E+00  0.14881284455E+04  0.14881284455E+04  0.00000000000E+00 0. -1.
         -1   -1    0    0    0  501 -0.00000000000E+00 -0.00000000000E+00 -0.46943978303E+03  0.46943978303E+03  0.00000000000E+00 0.  1.
         24    2    1    2    0    0 -0.35353244739E+03 -0.96745597774E+02  0.90743897456E+03  0.98191351433E+03  0.79773147361E+02 0.  0.
        254    2    1    2    0    0  0.35353244739E+03  0.96745597774E+02  0.11124968789E+03  0.97565471418E+03  0.89731863136E+03 0.  0.
         23    2    4    4    0    0 -0.10571865582E+03 -0.27438324452E+03  0.20536058208E+03  0.37127117142E+03  0.95951628416E+02 0.  0.
         23    2    4    4    0    0  0.45925110321E+03  0.37112884229E+03 -0.94110894185E+02  0.60438354276E+03  0.88172631671E+02 0.  0.
          2    1    3    3  502    0 -0.35575305841E+03 -0.89068811524E+02  0.89370218245E+03  0.96602126409E+03  0.00000000000E+00 0. -1.
         -1    1    3    3    0  502  0.22206110232E+01 -0.76767862497E+01  0.13736792106E+02  0.15892250244E+02  0.00000000000E+00 0.  1.
         13    1    5    5    0    0 -0.11753068269E+03 -0.24536454158E+03  0.20375042169E+03  0.33989918208E+03  0.00000000000E+00 0. -1.
        -13    1    5    5    0    0  0.11812026869E+02 -0.29018702931E+02  0.16101603893E+01  0.31371989338E+02  0.00000000000E+00 0.  1.
          3    1    6    6  503    0  0.31786062019E+03  0.22983869280E+03 -0.25611344129E+02  0.39308668195E+03  0.00000000000E+00 0. -1.
         -3    1    6    6    0  503  0.14139048301E+03  0.14129014949E+03 -0.68499550056E+02  0.21129686081E+03  0.00000000000E+00 0.  1.
<mgrwt>
<rscale>  0 0.16716300E+04</rscale>
<asrwt>0</asrwt>
<pdfrwt beam="1">  1        2 0.22894284E+00 0.16716300E+04</pdfrwt>
<pdfrwt beam="2">  1       -1 0.72221506E-01 0.16716300E+04</pdfrwt>
<totfact> 0.27098205E+01</totfact>
</mgrwt>
</event>
<event>
12    7  0.1546317E-007  0.2057551E+04  0.7818608E-02  0.8580176E-01
         -1   -1    0    0    0  501 -0.00000000000E+00  0.00000000000E+00  0.52963204546E+03  0.52963204546E+03  0.00000000000E+00 0.  1.
          2   -1    0    0  501    0  0.00000000000E+00 -0.00000000000E+00 -0.19983294619E+04  0.19983294619E+04  0.00000000000E+00 0. -1.
         24    2    1    2    0    0 -0.48150778587E+03 -0.50670714021E+03 -0.44483767663E+02  0.70502443396E+03  0.80490826219E+02 0.  0.
        254    2    1    2    0    0  0.48150778587E+03  0.50670714021E+03 -0.14242136488E+04  0.18229370734E+04  0.89783806026E+03 0.  0.
         23    2    4    4    0    0  0.66688861589E+03  0.11749268202E+03 -0.72401301026E+03  0.99554988698E+03  0.91541149815E+02 0.  0.
         23    2    4    4    0    0 -0.18538083003E+03  0.38921445819E+03 -0.70020063854E+03  0.82738718644E+03  0.91840489303E+02 0.  0.
          2    1    3    3  502    0 -0.17820041428E+03 -0.24537176515E+03 -0.19984969892E+02  0.30391131897E+03  0.00000000000E+00 0. -1.
         -1    1    3    3    0  502 -0.30330737159E+03 -0.26133537506E+03 -0.24498797772E+02  0.40111311498E+03  0.00000000000E+00 0.  1.
         13    1    5    5    0    0  0.49954318546E+03  0.11821664172E+03 -0.58223394949E+03  0.77621835875E+03  0.00000000000E+00 0. -1.
        -13    1    5    5    0    0  0.16734543044E+03 -0.72395969886E+00 -0.14177906077E+03  0.21933152824E+03  0.00000000000E+00 0.  1.
          4    1    6    6  503    0 -0.10235386895E+03  0.17671526893E+03 -0.25109751706E+03  0.32365809713E+03  0.00000000000E+00 0. -1.
         -4    1    6    6    0  503 -0.83026961075E+02  0.21249918926E+03 -0.44910312148E+03  0.50372908931E+03  0.00000000000E+00 0.  1.
<mgrwt>
<rscale>  0 0.20575513E+04</rscale>
<asrwt>0</asrwt>
<pdfrwt beam="1">  1        2 0.30743531E+00 0.20575513E+04</pdfrwt>
<pdfrwt beam="2">  1       -1 0.81481852E-01 0.20575513E+04</pdfrwt>
<totfact> 0.10571851E+01</totfact>
</mgrwt>
</event>
<event>
12    7  0.1546317E-007  0.3039800E+04  0.7818608E-02  0.8232456E-01
         -1   -1    0    0    0  501 -0.00000000000E+00  0.00000000000E+00  0.79265846300E+03  0.79265846300E+03  0.00000000000E+00 0.  1.
          2   -1    0    0  501    0  0.00000000000E+00 -0.00000000000E+00 -0.29143656281E+04  0.29143656281E+04  0.00000000000E+00 0. -1.
         24    2    1    2    0    0 -0.48840580262E+03  0.46975420777E+02  0.60874599042E+03  0.78704414590E+03  0.90110424168E+02 0.  0.
        254    2    1    2    0    0  0.48840580262E+03 -0.46975420777E+02 -0.27304531555E+04  0.29199799452E+04  0.91113200345E+03 0.  0.
         23    2    4    4    0    0 -0.11308027801E+03 -0.14575442478E+03 -0.12067812483E+03  0.23843086597E+03  0.90854644446E+02 0.  0.
         23    2    4    4    0    0  0.60148608064E+03  0.98779004001E+02 -0.26097750307E+04  0.26815490793E+04  0.90757681145E+02 0.  0.
          4    1    3    3  502    0 -0.10064262737E+03 -0.13013369467E+02  0.83481011245E+02  0.13140534794E+03  0.00000000000E+00 0. -1.
         -3    1    3    3    0  502 -0.38776317525E+03  0.59988790244E+02  0.52526497918E+03  0.65563879796E+03  0.00000000000E+00 0.  1.
         13    1    5    5    0    0 -0.11743113036E+03 -0.15329987603E+03 -0.10332294571E+03  0.21901267880E+03  0.00000000000E+00 0.  1.
        -13    1    5    5    0    0  0.43508523433E+01  0.75454512471E+01 -0.17355179120E+02  0.19418187168E+02  0.00000000000E+00 0. -1.
          1    1    6    6  503    0  0.34595744433E+03  0.22345815063E+02 -0.16015549560E+04  0.16386470535E+04  0.00000000000E+00 0. -1.
         -1    1    6    6    0  503  0.25552863631E+03  0.76433188938E+02 -0.10082200747E+04  0.10429020258E+04  0.00000000000E+00 0.  1.
<mgrwt>
<rscale>  0 0.30398004E+04</rscale>
<asrwt>0</asrwt>
<pdfrwt beam="1">  1        2 0.44836395E+00 0.30398004E+04</pdfrwt>
<pdfrwt beam="2">  1       -1 0.12194746E+00 0.30398004E+04</pdfrwt>
<totfact> 0.11348396E+00</totfact>
</mgrwt>
</event>
<event>
12    7  0.1848293E-007  0.1254069E+04  0.7818608E-02  0.9066803E-01
         -1   -1    0    0    0  501 -0.00000000000E+00  0.00000000000E+00  0.20078728360E+03  0.20078728360E+03  0.00000000000E+00 0.  1.
          2   -1    0    0  501    0  0.00000000000E+00 -0.00000000000E+00 -0.19581537991E+04  0.19581537991E+04  0.00000000000E+00 0. -1.
         24    2    1    2    0    0  0.23277923673E+02  0.16908511960E+03 -0.86782941370E+03  0.88955166840E+03  0.95092797146E+02 0.  0.
        254    2    1    2    0    0 -0.23277923673E+02 -0.16908511960E+03 -0.88953710178E+03  0.12693894143E+04  0.88934896988E+03 0.  0.
         23    2    4    4    0    0  0.12785489105E+03  0.24002792838E+03 -0.74924440860E+03  0.80248688475E+03  0.93046960238E+02 0.  0.
         23    2    4    4    0    0 -0.15113281472E+03 -0.40911304797E+03 -0.14029269318E+03  0.46690252953E+03  0.90007325336E+02 0.  0.
          4    1    3    3  502    0  0.53324874085E+02  0.13911520590E+03 -0.59107431144E+03  0.60956166575E+03  0.00000000000E+00 0. -1.
         -3    1    3    3    0  502 -0.30046950412E+02  0.29969913700E+02 -0.27675510227E+03  0.27999000266E+03  0.00000000000E+00 0.  1.
         13    1    5    5    0    0  0.87954955208E+02  0.21279084729E+03 -0.68101269597E+03  0.71888407334E+03  0.00000000000E+00 0. -1.
        -13    1    5    5    0    0  0.39899935843E+02  0.27237081081E+02 -0.68231712630E+02  0.83602811403E+02  0.00000000000E+00 0.  1.
          4    1    6    6  503    0 -0.13000612642E+03 -0.37104588266E+03 -0.95827153736E+02  0.40467206888E+03  0.00000000000E+00 0. -1.
         -4    1    6    6    0  503 -0.21126688307E+02 -0.38067165316E+02 -0.44465539446E+02  0.62230460646E+02  0.00000000000E+00 0.  1.
<mgrwt>
<rscale>  0 0.12540692E+04</rscale>
<asrwt>0</asrwt>
<pdfrwt beam="1">  1        2 0.30125442E+00 0.12540692E+04</pdfrwt>
<pdfrwt beam="2">  1       -1 0.30890353E-01 0.12540692E+04</pdfrwt>
<totfact> 0.76581980E+01</totfact>
</mgrwt>
</event>
<event>
12    7  0.1546317E-007  0.1693366E+04  0.7818608E-02  0.8765157E-01
          2   -1    0    0  501    0  0.00000000000E+00  0.00000000000E+00  0.74545471208E+03  0.74545471208E+03  0.00000000000E+00 0. -1.
         -1   -1    0    0    0  501 -0.00000000000E+00 -0.00000000000E+00 -0.96165765284E+03  0.96165765284E+03  0.00000000000E+00 0.  1.
         24    2    1    2    0    0 -0.13313834290E+03  0.62340030134E+02  0.51280655683E+03  0.53943749281E+03  0.80063388697E+02 0.  0.
        254    2    1    2    0    0  0.13313834290E+03 -0.62340030134E+02 -0.72900949759E+03  0.11676748721E+04  0.90022089605E+03 0.  0.
         23    2    4    4    0    0 -0.35346967808E+03 -0.10715446996E+03 -0.16342540457E+03  0.41467142569E+03  0.93923557618E+02 0.  0.
         23    2    4    4    0    0  0.48660802098E+03  0.44814439827E+02 -0.56558409302E+03  0.75300344642E+03  0.91285946055E+02 0.  0.
          2    1    3    3  502    0 -0.74228082846E+02  0.72461914187E+02  0.37796324805E+03  0.39193973283E+03  0.00000000000E+00 0. -1.
         -1    1    3    3    0  502 -0.58910260058E+02 -0.10121884053E+02  0.13484330878E+03  0.14749775998E+03  0.00000000000E+00 0.  1.
         13    1    5    5    0    0 -0.13126120710E+03  0.42292714829E+01 -0.72420967041E+02  0.14997395672E+03  0.00000000000E+00 0. -1.
        -13    1    5    5    0    0 -0.22220847098E+03 -0.11138374144E+03 -0.91004437528E+02  0.26469746897E+03  0.00000000000E+00 0.  1.
          3    1    6    6  503    0  0.23698603898E+03 -0.43411385970E+01 -0.21630063558E+03  0.32088501540E+03  0.00000000000E+00 0. -1.
         -3    1    6    6    0  503  0.24962198200E+03  0.49155578424E+02 -0.34928345744E+03  0.43211843102E+03  0.00000000000E+00 0.  1.
<mgrwt>
<rscale>  0 0.16933661E+04</rscale>
<asrwt>0</asrwt>
<pdfrwt beam="1">  1        2 0.11468534E+00 0.16933661E+04</pdfrwt>
<pdfrwt beam="2">  1       -1 0.14794733E+00 0.16933661E+04</pdfrwt>
<totfact> 0.14878204E+01</totfact>
</mgrwt>
</event>
<event>
12    7  0.1546317E-007  0.1738327E+04  0.7818608E-02  0.8739802E-01
          2   -1    0    0  501    0  0.00000000000E+00  0.00000000000E+00  0.61000402888E+03  0.61000402888E+03  0.00000000000E+00 0. -1.
         -1   -1    0    0    0  501 -0.00000000000E+00 -0.00000000000E+00 -0.12384270556E+04  0.12384270556E+04  0.00000000000E+00 0.  1.
         24    2    1    2    0    0 -0.57007239592E+03 -0.25203270121E+03 -0.12958918678E+03  0.64164478457E+03  0.80072799213E+02 0.  0.
        254    2    1    2    0    0  0.57007239592E+03  0.25203270121E+03 -0.49883383995E+03  0.12067862999E+04  0.90498340025E+03 0.  0.
         23    2    4    4    0    0  0.31984954244E+02 -0.30195483462E+03 -0.17851918873E+03  0.36579202922E+03  0.98665842347E+02 0.  0.
         23    2    4    4    0    0  0.53808744167E+03  0.55398753583E+03 -0.32031465122E+03  0.84099427070E+03  0.90717158371E+02 0.  0.
          4    1    3    3  502    0 -0.36177757683E+03 -0.20070357920E+03 -0.92517941858E+02  0.42393927792E+03  0.00000000000E+00 0. -1.
         -3    1    3    3    0  502 -0.20829481909E+03 -0.51329122003E+02 -0.37071244925E+02  0.21770550665E+03  0.00000000000E+00 0.  1.
         13    1    5    5    0    0 -0.20688003679E+02 -0.49791810444E+02 -0.28569628876E+01  0.53994260070E+02  0.00000000000E+00 0.  1.
        -13    1    5    5    0    0  0.52672957923E+02 -0.25216302418E+03 -0.17566222584E+03  0.31179776915E+03  0.00000000000E+00 0. -1.
          3    1    6    6  503    0  0.22067262390E+03  0.28921587712E+03 -0.13538432918E+03  0.38816381478E+03  0.00000000000E+00 0. -1.
         -3    1    6    6    0  503  0.31741481778E+03  0.26477165870E+03 -0.18493032204E+03  0.45283045592E+03  0.00000000000E+00 0.  1.
<mgrwt>
<rscale>  0 0.17383273E+04</rscale>
<asrwt>0</asrwt>
<pdfrwt beam="1">  1        2 0.93846775E-01 0.17383273E+04</pdfrwt>
<pdfrwt beam="2">  1       -1 0.19052724E+00 0.17383273E+04</pdfrwt>
<totfact> 0.92278220E+00</totfact>
</mgrwt>
</event>
<event>
12    7  0.1546317E-007  0.1607872E+04  0.7818608E-02  0.8815726E-01
         -1   -1    0    0    0  501 -0.00000000000E+00  0.00000000000E+00  0.27369479918E+03  0.27369479918E+03  0.00000000000E+00 0.  1.
          2   -1    0    0  501    0  0.00000000000E+00 -0.00000000000E+00 -0.23614384239E+04  0.23614384239E+04  0.00000000000E+00 0. -1.
         24    2    1    2    0    0  0.14830543238E+03 -0.16203790052E+02 -0.16259712146E+04  0.16346402129E+04  0.77518843240E+02 0.  0.
        254    2    1    2    0    0 -0.14830543238E+03  0.16203790052E+02 -0.46177241011E+03  0.10004930101E+04  0.87492596283E+03 0.  0.
         23    2    4    4    0    0  0.16021968518E+03 -0.15670102896E+03 -0.57072970733E+03  0.61995055741E+03  0.91546353304E+02 0.  0.
         23    2    4    4    0    0 -0.30852511755E+03  0.17290481901E+03  0.10895729722E+03  0.38054245269E+03  0.88639951974E+02 0.  0.
          4    1    3    3  502    0  0.66009286712E+02  0.30066390195E+02 -0.61210877919E+03  0.61639141081E+03  0.00000000000E+00 0. -1.
         -3    1    3    3    0  502  0.82296145666E+02 -0.46270180246E+02 -0.10138624354E+04  0.10182488021E+04  0.00000000000E+00 0.  1.
         13    1    5    5    0    0  0.10340627754E+03 -0.14644415354E+03 -0.48026981571E+03  0.51263812210E+03  0.00000000000E+00 0. -1.
        -13    1    5    5    0    0  0.56813407639E+02 -0.10256875420E+02 -0.90459891619E+02  0.10731243531E+03  0.00000000000E+00 0.  1.
          3    1    6    6  503    0 -0.29763213528E+03  0.13811973991E+03  0.96341619921E+02  0.34197025929E+03  0.00000000000E+00 0. -1.
         -3    1    6    6    0  503 -0.10892982271E+02  0.34785079097E+02  0.12615677303E+02  0.38572193409E+02  0.00000000000E+00 0.  1.
<mgrwt>
<rscale>  0 0.16078724E+04</rscale>
<asrwt>0</asrwt>
<pdfrwt beam="1">  1        2 0.36329823E+00 0.16078724E+04</pdfrwt>
<pdfrwt beam="2">  1       -1 0.42106891E-01 0.16078724E+04</pdfrwt>
<totfact> 0.25333217E+01</totfact>
</mgrwt>
</event>
<event>
12    7  0.1546317E-007  0.1681201E+04  0.7818608E-02  0.8772159E-01
         -1   -1    0    0    0  501 -0.00000000000E+00  0.00000000000E+00  0.70867798932E+03  0.70867798932E+03  0.00000000000E+00 0.  1.
          2   -1    0    0  501    0  0.00000000000E+00 -0.00000000000E+00 -0.99708070384E+03  0.99708070384E+03  0.00000000000E+00 0. -1.
         24    2    1    2    0    0  0.23234879552E+03  0.23736461479E+03 -0.60692128688E+03  0.69655251487E+03  0.80647593683E+02 0.  0.
        254    2    1    2    0    0 -0.23234879552E+03 -0.23736461479E+03  0.31851857236E+03  0.10092061783E+04  0.89817320502E+03 0.  0.
         23    2    4    4    0    0  0.23951349458E+02 -0.16613097365E+03  0.58924891490E+03  0.61923678018E+03  0.89815024731E+02 0.  0.
         23    2    4    4    0    0 -0.25630014498E+03 -0.71233641139E+02 -0.27073034254E+03  0.38996939811E+03  0.89538914133E+02 0.  0.
          4    1    3    3  502    0  0.23418064045E+03  0.21072521622E+03 -0.56322292863E+03  0.64534158122E+03  0.00000000000E+00 0. -1.
         -3    1    3    3    0  502 -0.18318449255E+01  0.26639398563E+02 -0.43698358253E+02  0.51210933653E+02  0.00000000000E+00 0.  1.
         13    1    5    5    0    0  0.10096580893E+02 -0.10090802662E+03  0.19918846211E+03  0.22351826373E+03  0.00000000000E+00 0. -1.
        -13    1    5    5    0    0  0.13854768565E+02 -0.65222947030E+02  0.39006045278E+03  0.39571851644E+03  0.00000000000E+00 0.  1.
          3    1    6    6  503    0 -0.12823735227E+00 -0.19270895927E+02 -0.17438456791E+02  0.25990068293E+02  0.00000000000E+00 0. -1.
         -3    1    6    6    0  503 -0.25617190763E+03 -0.51962745212E+02 -0.25329188575E+03  0.36397932982E+03  0.00000000000E+00 0.  1.
<mgrwt>
<rscale>  0 0.16812009E+04</rscale>
<asrwt>0</asrwt>
<pdfrwt beam="1">  1        2 0.15339703E+00 0.16812009E+04</pdfrwt>
<pdfrwt beam="2">  1       -1 0.10902738E+00 0.16812009E+04</pdfrwt>
<totfact> 0.21440653E+01</totfact>
</mgrwt>
</event>
<event>
12    7  0.1546317E-007  0.2178208E+04  0.7818608E-02  0.8527553E-01
         -1   -1    0    0    0  501 -0.00000000000E+00  0.00000000000E+00  0.79185300686E+03  0.79185300686E+03  0.00000000000E+00 0.  1.
          2   -1    0    0  501    0  0.00000000000E+00 -0.00000000000E+00 -0.14979396874E+04  0.14979396874E+04  0.00000000000E+00 0. -1.
         24    2    1    2    0    0 -0.17969447174E+03  0.80736324497E+03  0.84749534374E+02  0.83508479336E+03  0.77837112105E+02 0.  0.
        254    2    1    2    0    0  0.17969447174E+03 -0.80736324497E+03 -0.79083621494E+03  0.14547079009E+04  0.89812451567E+03 0.  0.
         23    2    4    4    0    0  0.18110925725E+02 -0.60416883343E+03  0.62682690262E+01  0.61139507073E+03  0.91742336942E+02 0.  0.
         23    2    4    4    0    0  0.16158354602E+03 -0.20319441154E+03 -0.79710448397E+03  0.84331283020E+03  0.91672024066E+02 0.  0.
          2    1    3    3  502    0 -0.97698886410E+02  0.39432867342E+03  0.79501320327E+02  0.41395728647E+03  0.00000000000E+00 0. -1.
         -1    1    3    3    0  502 -0.81995585333E+02  0.41303457155E+03  0.52482140468E+01  0.42112750689E+03  0.00000000000E+00 0.  1.
         13    1    5    5    0    0  0.29587399718E+01 -0.57939317233E+03 -0.70535384569E+01  0.57944365963E+03  0.00000000000E+00 0.  1.
        -13    1    5    5    0    0  0.15152185753E+02 -0.24775661109E+02  0.13321807483E+02  0.31951411097E+02  0.00000000000E+00 0. -1.
          2    1    6    6  503    0  0.21290417915E+02 -0.86684760378E+02 -0.20079478441E+03  0.21974092705E+03  0.00000000000E+00 0. -1.
         -2    1    6    6    0  503  0.14029312810E+03 -0.11650965116E+03 -0.59630969956E+03  0.62357190315E+03  0.00000000000E+00 0.  1.
<mgrwt>
<rscale>  0 0.21782085E+04</rscale>
<asrwt>0</asrwt>
<pdfrwt beam="1">  1        2 0.23045226E+00 0.21782085E+04</pdfrwt>
<pdfrwt beam="2">  1       -1 0.12182354E+00 0.21782085E+04</pdfrwt>
<totfact> 0.79206035E+00</totfact>
</mgrwt>
</event>
<event>
12    7  0.1546317E-007  0.1551039E+04  0.7818608E-02  0.8851204E-01
          2   -1    0    0  501    0  0.00000000000E+00  0.00000000000E+00  0.16286910207E+04  0.16286910207E+04  0.00000000000E+00 0. -1.
         -1   -1    0    0    0  501 -0.00000000000E+00 -0.00000000000E+00 -0.36927233873E+03  0.36927233873E+03  0.00000000000E+00 0.  1.
         24    2    1    2    0    0 -0.90561977337E+02  0.50266976499E+03  0.46528584361E+03  0.69552436801E+03  0.79905355618E+02 0.  0.
        254    2    1    2    0    0  0.90561977337E+02 -0.50266976499E+03  0.79413283832E+03  0.13024389914E+04  0.89711871957E+03 0.  0.
         23    2    4    4    0    0 -0.22014130812E+03  0.87978499187E+02  0.51219358077E+03  0.57205850149E+03  0.93307304600E+02 0.  0.
         23    2    4    4    0    0  0.31070328546E+03 -0.59064826418E+03  0.28193925756E+03  0.73038048989E+03  0.92541944515E+02 0.  0.
          2    1    3    3  502    0 -0.84742787616E+02  0.50147128112E+03  0.44984931727E+03  0.67898394244E+03  0.00000000000E+00 0. -1.
         -1    1    3    3    0  502 -0.58191897217E+01  0.11984838697E+01  0.15436526341E+02  0.16540425571E+02  0.00000000000E+00 0.  1.
         13    1    5    5    0    0 -0.22930114473E+03  0.82449416588E+02  0.49639064919E+03  0.55297431937E+03  0.00000000000E+00 0.  1.
        -13    1    5    5    0    0  0.91598366124E+01  0.55290825991E+01  0.15802931574E+02  0.19084182128E+02  0.00000000000E+00 0. -1.
          1    1    6    6  503    0  0.17284010309E+02 -0.79342488545E+02  0.57886125523E+02  0.99723472808E+02  0.00000000000E+00 0. -1.
         -1    1    6    6    0  503  0.29341927515E+03 -0.51130577563E+03  0.22405313204E+03  0.63065701708E+03  0.00000000000E+00 0.  1.
<mgrwt>
<rscale>  0 0.15510391E+04</rscale>
<asrwt>0</asrwt>
<pdfrwt beam="1">  1        2 0.25056784E+00 0.15510391E+04</pdfrwt>
<pdfrwt beam="2">  1       -1 0.56811130E-01 0.15510391E+04</pdfrwt>
<totfact> 0.36962727E+01</totfact>
</mgrwt>
</event>
<event>
12    7  0.1546317E-007  0.1236958E+04  0.7818608E-02  0.9081109E-01
          2   -1    0    0  501    0  0.00000000000E+00  0.00000000000E+00  0.13731092791E+04  0.13731092791E+04  0.00000000000E+00 0. -1.
         -1   -1    0    0    0  501 -0.00000000000E+00 -0.00000000000E+00 -0.27857655764E+03  0.27857655764E+03  0.00000000000E+00 0.  1.
         24    2    1    2    0    0  0.57632474222E+00  0.27382716803E+03  0.37678813695E+03  0.47324594882E+03  0.83730387699E+02 0.  0.
        254    2    1    2    0    0 -0.57632474222E+00 -0.27382716803E+03  0.71774458449E+03  0.11784398879E+04  0.89363394673E+03 0.  0.
         23    2    4    4    0    0  0.29882196181E+03  0.10208237038E+03  0.58694973531E+03  0.67247761343E+03  0.89447043444E+02 0.  0.
         23    2    4    4    0    0 -0.29939828655E+03 -0.37590953841E+03  0.13079484917E+03  0.50596227448E+03  0.89124719183E+02 0.  0.
          4    1    3    3  502    0  0.70885733236E+01  0.22912681647E+03  0.35623290287E+03  0.42361683983E+03  0.00000000000E+00 0. -1.
         -3    1    3    3    0  502 -0.65122485814E+01  0.44700351557E+02  0.20555234079E+02  0.49629108988E+02  0.00000000000E+00 0.  1.
         13    1    5    5    0    0  0.18578841428E+02  0.25954502828E+02  0.27430514855E+02  0.42086134427E+02  0.00000000000E+00 0.  1.
        -13    1    5    5    0    0  0.28024312038E+03  0.76127867554E+02  0.55951922046E+03  0.63039147900E+03  0.00000000000E+00 0. -1.
          1    1    6    6  503    0 -0.20347967912E+03 -0.22493173263E+03  0.41810970402E+02  0.30618037397E+03  0.00000000000E+00 0. -1.
         -1    1    6    6    0  503 -0.95918607424E+02 -0.15097780578E+03  0.88983878771E+02  0.19978190050E+03  0.00000000000E+00 0.  1.
<mgrwt>
<rscale>  0 0.12369576E+04</rscale>
<asrwt>0</asrwt>
<pdfrwt beam="1">  1        2 0.21124758E+00 0.12369576E+04</pdfrwt>
<pdfrwt beam="2">  1       -1 0.42857933E-01 0.12369576E+04</pdfrwt>
<totfact> 0.90173346E+01</totfact>
</mgrwt>
</event>
<event>
12    7  0.1546317E-007  0.1660676E+04  0.7818608E-02  0.8784115E-01
          2   -1    0    0  501    0  0.00000000000E+00  0.00000000000E+00  0.85907620912E+03  0.85907620912E+03  0.00000000000E+00 0. -1.
         -1   -1    0    0    0  501 -0.00000000000E+00 -0.00000000000E+00 -0.80256151123E+03  0.80256151123E+03  0.00000000000E+00 0.  1.
         24    2    1    2    0    0  0.48510066813E+03  0.23675109631E+03 -0.19530269439E+03  0.57950738412E+03  0.79447630525E+02 0.  0.
        254    2    1    2    0    0 -0.48510066813E+03 -0.23675109631E+03  0.25181739227E+03  0.10821303362E+04  0.90344912735E+03 0.  0.
         23    2    4    4    0    0 -0.27184612483E+03  0.26062012204E+03 -0.13498217781E+03  0.41050114873E+03  0.92020873620E+02 0.  0.
         23    2    4    4    0    0 -0.21325454330E+03 -0.49737121835E+03  0.38679957008E+03  0.67162918750E+03  0.92823644622E+02 0.  0.
          4    1    3    3  502    0  0.26487007593E+03  0.15223337886E+03 -0.74369488112E+02  0.31442324902E+03  0.00000000000E+00 0. -1.
         -1    1    3    3    0  502  0.22023059220E+03  0.84517717448E+02 -0.12093320628E+03  0.26508413510E+03  0.00000000000E+00 0.  1.
         13    1    5    5    0    0 -0.11707044266E+03  0.10677627804E+03 -0.10533499217E+03  0.19026855408E+03  0.00000000000E+00 0. -1.
        -13    1    5    5    0    0 -0.15477568217E+03  0.15384384400E+03 -0.29647185642E+02  0.22023259465E+03  0.00000000000E+00 0.  1.
          2    1    6    6  503    0 -0.26472074671E+02 -0.64708872001E+02  0.15349190501E+02  0.71579372043E+02  0.00000000000E+00 0. -1.
         -2    1    6    6    0  503 -0.18678246862E+03 -0.43266234635E+03  0.37145037958E+03  0.60004981546E+03  0.00000000000E+00 0.  1.
<mgrwt>
<rscale>  0 0.16606764E+04</rscale>
<asrwt>0</asrwt>
<pdfrwt beam="1">  1        2 0.13216557E+00 0.16606764E+04</pdfrwt>
<pdfrwt beam="2">  1       -1 0.12347100E+00 0.16606764E+04</pdfrwt>
<totfact> 0.19667313E+01</totfact>
</mgrwt>
</event>
<event>
12    7  0.1546317E-007  0.1131032E+04  0.7818608E-02  0.9175463E-01
          2   -1    0    0  501    0  0.00000000000E+00  0.00000000000E+00  0.31580878357E+03  0.31580878357E+03  0.00000000000E+00 0. -1.
         -1   -1    0    0    0  501 -0.00000000000E+00 -0.00000000000E+00 -0.10126642331E+04  0.10126642331E+04  0.00000000000E+00 0.  1.
         24    2    1    2    0    0 -0.18424786111E+03 -0.10355581699E+02 -0.55718076402E+02  0.20891862479E+03  0.80547969255E+02 0.  0.
        254    2    1    2    0    0  0.18424786111E+03  0.10355581699E+02 -0.64113737309E+03  0.11195543918E+04  0.89904971648E+03 0.  0.
         23    2    4    4    0    0 -0.17211628779E+03  0.12658307808E+03  0.12240273917E+03  0.26331928559E+03  0.93313039990E+02 0.  0.
         23    2    4    4    0    0  0.35636414890E+03 -0.11622749638E+03 -0.76354011226E+03  0.85623510624E+03  0.98187660082E+02 0.  0.
          4    1    3    3  502    0 -0.71486479028E+02 -0.42935470788E+02 -0.15303136327E+02  0.84781821855E+02  0.00000000000E+00 0. -1.
         -3    1    3    3    0  502 -0.11276138208E+03  0.32579889090E+02 -0.40414940075E+02  0.12413680294E+03  0.00000000000E+00 0.  1.
         13    1    5    5    0    0 -0.74931523763E+02  0.39668911110E+02  0.43785724436E+00  0.84785302270E+02  0.00000000000E+00 0. -1.
        -13    1    5    5    0    0 -0.97184764024E+02  0.86914166965E+02  0.12196488193E+03  0.17853398332E+03  0.00000000000E+00 0.  1.
          1    1    6    6  503    0  0.10213044638E+03 -0.12100491822E+01 -0.14186918093E+03  0.17481120329E+03  0.00000000000E+00 0. -1.
         -1    1    6    6    0  503  0.25423370252E+03 -0.11501744719E+03 -0.62167093132E+03  0.68142390295E+03  0.00000000000E+00 0.  1.
<mgrwt>
<rscale>  0 0.11310318E+04</rscale>
<asrwt>0</asrwt>
<pdfrwt beam="1">  1        2 0.48585966E-01 0.11310318E+04</pdfrwt>
<pdfrwt beam="2">  1       -1 0.15579450E+00 0.11310318E+04</pdfrwt>
<totfact> 0.37042399E+01</totfact>
</mgrwt>
</event>
<event>
12    7  0.1546317E-007  0.1334063E+04  0.7818608E-02  0.9002981E-01
         -1   -1    0    0    0  501 -0.00000000000E+00  0.00000000000E+00  0.45641754730E+03  0.45641754730E+03  0.00000000000E+00 0.  1.
          2   -1    0    0  501    0  0.00000000000E+00 -0.00000000000E+00 -0.97483313616E+03  0.97483313616E+03  0.00000000000E+00 0. -1.
         24    2    1    2    0    0  0.20619370781E+03 -0.72513098025E+02 -0.43922388594E+03  0.49717835407E+03  0.80589696938E+02 0.  0.
        254    2    1    2    0    0 -0.20619370781E+03  0.72513098025E+02 -0.79191702921E+02  0.93407232940E+03  0.90467994131E+03 0.  0.
         23    2    4    4    0    0 -0.65270255843E+02 -0.84743527859E+02  0.38882192118E+03  0.41303054852E+03  0.89275281064E+02 0.  0.
         23    2    4    4    0    0 -0.14092345196E+03  0.15725662588E+03 -0.46801362410E+03  0.52104178088E+03  0.88649418429E+02 0.  0.
          2    1    3    3  502    0  0.19784460193E+03 -0.48191299622E+02 -0.35658393578E+03  0.41062999297E+03  0.00000000000E+00 0. -1.
         -1    1    3    3    0  502  0.83491058774E+01 -0.24321798403E+02 -0.82639950160E+02  0.86548361099E+02  0.00000000000E+00 0.  1.
         13    1    5    5    0    0  0.11138802115E+02 -0.29015173115E+02  0.19392769995E+03  0.19640240832E+03  0.00000000000E+00 0. -1.
        -13    1    5    5    0    0 -0.76409057957E+02 -0.55728354744E+02  0.19489422122E+03  0.21662814020E+03  0.00000000000E+00 0.  1.
          2    1    6    6  503    0 -0.47960737273E+02  0.16905640486E+02 -0.18386449947E+03  0.19076736400E+03  0.00000000000E+00 0. -1.
         -2    1    6    6    0  503 -0.92962714691E+02  0.14035098540E+03 -0.28414912462E+03  0.33027441688E+03  0.00000000000E+00 0.  1.
<mgrwt>
<rscale>  0 0.13340629E+04</rscale>
<asrwt>0</asrwt>
<pdfrwt beam="1">  1        2 0.14997433E+00 0.13340629E+04</pdfrwt>
<pdfrwt beam="2">  1       -1 0.70218084E-01 0.13340629E+04</pdfrwt>
<totfact> 0.59826177E+01</totfact>
</mgrwt>
</event>
<event>
12    7  0.1546317E-007  0.1550806E+04  0.7818608E-02  0.8851353E-01
         -1   -1    0    0    0  501 -0.00000000000E+00  0.00000000000E+00  0.68458309941E+03  0.68458309941E+03  0.00000000000E+00 0.  1.
          2   -1    0    0  501    0  0.00000000000E+00 -0.00000000000E+00 -0.87827186439E+03  0.87827186439E+03  0.00000000000E+00 0. -1.
         24    2    1    2    0    0 -0.71143135056E+02  0.47523264972E+03  0.12012880854E+03  0.50161708364E+03  0.79254974172E+02 0.  0.
        254    2    1    2    0    0  0.71143135056E+02 -0.47523264972E+03 -0.31381757352E+03  0.10612378802E+04  0.89265724207E+03 0.  0.
         23    2    4    4    0    0  0.21680204974E+03 -0.48887306278E+03  0.15166910786E+03  0.56383000205E+03  0.94343800300E+02 0.  0.
         23    2    4    4    0    0 -0.14565891469E+03  0.13640413061E+02 -0.46548668138E+03  0.49740787811E+03  0.96613489561E+02 0.  0.
          2    1    3    3  502    0  0.13139381185E+01  0.92814304379E+01  0.16249500260E+02  0.18759468091E+02  0.00000000000E+00 0. -1.
         -1    1    3    3    0  502 -0.72457073174E+02  0.46595121928E+03  0.10387930828E+03  0.48285761554E+03  0.00000000000E+00 0.  1.
         13    1    5    5    0    0  0.30850384215E+02 -0.62484979844E+02 -0.11986741562E+02  0.70709270153E+02  0.00000000000E+00 0. -1.
        -13    1    5    5    0    0  0.18595166553E+03 -0.42638808293E+03  0.16365584942E+03  0.49312073190E+03  0.00000000000E+00 0.  1.
          1    1    6    6  503    0  0.98614421997E+01 -0.14237731646E+02 -0.45700589506E+02  0.48872332929E+02  0.00000000000E+00 0. -1.
         -1    1    6    6    0  503 -0.15552035688E+03  0.27878144707E+02 -0.41978609187E+03  0.44853554518E+03  0.00000000000E+00 0.  1.
<mgrwt>
<rscale>  0 0.15508063E+04</rscale>
<asrwt>0</asrwt>
<pdfrwt beam="1">  1        2 0.13511875E+00 0.15508063E+04</pdfrwt>
<pdfrwt beam="2">  1       -1 0.10532048E+00 0.15508063E+04</pdfrwt>
<totfact> 0.28183628E+01</totfact>
</mgrwt>
</event>
<event>
12    7  0.1546317E-007  0.2486570E+04  0.7818608E-02  0.8407786E-01
         -1   -1    0    0    0  501 -0.00000000000E+00  0.00000000000E+00  0.77048457137E+03  0.77048457137E+03  0.00000000000E+00 0.  1.
          2   -1    0    0  501    0  0.00000000000E+00 -0.00000000000E+00 -0.20062150403E+04  0.20062150403E+04  0.00000000000E+00 0. -1.
         24    2    1    2    0    0  0.44641262740E+03 -0.29823103836E+03 -0.15814303495E+04  0.16720030837E+04  0.80289323817E+02 0.  0.
        254    2    1    2    0    0 -0.44641262740E+03  0.29823103836E+03  0.34569988053E+03  0.11046965280E+04  0.90145439452E+03 0.  0.
         23    2    4    4    0    0 -0.52189141003E+03  0.45310558691E+03  0.49670781368E+03  0.85629563549E+03  0.94065118050E+02 0.  0.
         23    2    4    4    0    0  0.75478782628E+02 -0.15487454855E+03 -0.15100793315E+03  0.24840089249E+03  0.96002266116E+02 0.  0.
          2    1    3    3  502    0  0.42764808986E+03 -0.26255438747E+03 -0.14395307335E+04  0.15244889071E+04  0.00000000000E+00 0. -1.
         -1    1    3    3    0  502  0.18764537539E+02 -0.35676650887E+02 -0.14189961601E+03  0.14751417665E+03  0.00000000000E+00 0.  1.
         13    1    5    5    0    0 -0.15687905333E+02  0.17274455065E+02  0.42623923013E+02  0.48593373875E+02  0.00000000000E+00 0.  1.
        -13    1    5    5    0    0 -0.50620350470E+03  0.43583113185E+03  0.45408389067E+03  0.80770226161E+03  0.00000000000E+00 0. -1.
          3    1    6    6  503    0  0.73390573979E+02 -0.16744339427E+03 -0.14822457900E+03  0.23535928376E+03  0.00000000000E+00 0. -1.
         -3    1    6    6    0  503  0.20882086490E+01  0.12568845716E+02 -0.27833541566E+01  0.13041608733E+02  0.00000000000E+00 0.  1.
<mgrwt>
<rscale>  0 0.24865701E+04</rscale>
<asrwt>0</asrwt>
<pdfrwt beam="1">  1        2 0.30864847E+00 0.24865701E+04</pdfrwt>
<pdfrwt beam="2">  1       -1 0.11853609E+00 0.24865701E+04</pdfrwt>
<totfact> 0.42959425E+00</totfact>
</mgrwt>
</event>
<event>
12    7  0.1546317E-007  0.1141209E+04  0.7818608E-02  0.9165932E-01
         -1   -1    0    0    0  501 -0.00000000000E+00  0.00000000000E+00  0.41727857444E+03  0.41727857444E+03  0.00000000000E+00 0.  1.
          2   -1    0    0  501    0  0.00000000000E+00 -0.00000000000E+00 -0.78026843980E+03  0.78026843980E+03  0.00000000000E+00 0. -1.
         24    2    1    2    0    0  0.13466844797E+03 -0.79761226067E+02  0.49214837171E+02  0.18256426339E+03  0.80063512313E+02 0.  0.
        254    2    1    2    0    0 -0.13466844797E+03  0.79761226067E+02 -0.41220470254E+03  0.10149827508E+04  0.91420994507E+03 0.  0.
         23    2    4    4    0    0  0.28675572786E+03 -0.12930982667E+03 -0.42385885343E+03  0.53564347811E+03  0.91146745843E+02 0.  0.
         23    2    4    4    0    0 -0.42142417584E+03  0.20907105273E+03  0.11654150894E+02  0.47933927274E+03  0.91221039707E+02 0.  0.
          4    1    3    3  502    0  0.31336423098E+00  0.11844115025E+02 -0.21301250092E+01  0.12038217909E+02  0.00000000000E+00 0. -1.
         -3    1    3    3    0  502  0.13435508374E+03 -0.91605341093E+02  0.51344962181E+02  0.17052604548E+03  0.00000000000E+00 0.  1.
         13    1    5    5    0    0  0.16263872748E+03 -0.51357634647E+02 -0.16024300949E+03  0.23402304246E+03  0.00000000000E+00 0.  1.
        -13    1    5    5    0    0  0.12411700038E+03 -0.77952192019E+02 -0.26361584394E+03  0.30162043565E+03  0.00000000000E+00 0. -1.
          4    1    6    6  503    0 -0.30672789943E+03  0.16765223575E+03  0.46197725869E+02  0.35259538613E+03  0.00000000000E+00 0. -1.
         -4    1    6    6    0  503 -0.11469627640E+03  0.41418816983E+02 -0.34543574975E+02  0.12674388661E+03  0.00000000000E+00 0.  1.
<mgrwt>
<rscale>  0 0.11412087E+04</rscale>
<asrwt>0</asrwt>
<pdfrwt beam="1">  1        2 0.12004130E+00 0.11412087E+04</pdfrwt>
<pdfrwt beam="2">  1       -1 0.64196704E-01 0.11412087E+04</pdfrwt>
<totfact> 0.99087008E+01</totfact>
</mgrwt>
</event>
<event>
12    7  0.1546317E-007  0.2709906E+04  0.7818608E-02  0.8331798E-01
         -1   -1    0    0    0  501 -0.00000000000E+00  0.00000000000E+00  0.11072677466E+04  0.11072677466E+04  0.00000000000E+00 0.  1.
          2   -1    0    0  501    0  0.00000000000E+00 -0.00000000000E+00 -0.16580424952E+04  0.16580424952E+04  0.00000000000E+00 0. -1.
         24    2    1    2    0    0 -0.36665616588E+03 -0.81918632392E+03 -0.10640551555E+04  0.13943316281E+04  0.80276633878E+02 0.  0.
        254    2    1    2    0    0  0.36665616588E+03  0.81918632392E+03  0.51328040691E+03  0.13709786137E+04  0.90034582561E+03 0.  0.
         23    2    4    4    0    0 -0.14868472931E+03  0.17627293249E+03  0.48093393708E+03  0.54125705875E+03  0.92100251602E+02 0.  0.
         23    2    4    4    0    0  0.51534089520E+03  0.64291339143E+03  0.32346469831E+02  0.82972155490E+03  0.92074412432E+02 0.  0.
          2    1    3    3  502    0 -0.25347631477E+03 -0.48648299637E+03 -0.61473951000E+03  0.82390570642E+03  0.00000000000E+00 0. -1.
         -3    1    3    3    0  502 -0.11317985111E+03 -0.33270332755E+03 -0.44931564549E+03  0.57042592169E+03  0.00000000000E+00 0.  1.
         13    1    5    5    0    0 -0.12120666145E+03  0.99797317044E+02  0.38342913237E+03  0.41432892588E+03  0.00000000000E+00 0.  1.
        -13    1    5    5    0    0 -0.27478067860E+02  0.76475615447E+02  0.97504804714E+02  0.12692813287E+03  0.00000000000E+00 0. -1.
          3    1    6    6  503    0  0.44878599405E+03  0.50473503108E+03  0.35284827094E+02  0.67632191971E+03  0.00000000000E+00 0. -1.
         -3    1    6    6    0  503  0.66554901144E+02  0.13817836035E+03 -0.29383572631E+01  0.15339963519E+03  0.00000000000E+00 0.  1.
<mgrwt>
<rscale>  0 0.27099055E+04</rscale>
<asrwt>0</asrwt>
<pdfrwt beam="1">  1        2 0.25508346E+00 0.27099055E+04</pdfrwt>
<pdfrwt beam="2">  1       -1 0.17034888E+00 0.27099055E+04</pdfrwt>
<totfact> 0.25265410E+00</totfact>
</mgrwt>
</event>
<event>
12    7  0.1546317E-007  0.4247981E+04  0.7818608E-02  0.7956308E-01
         -1   -1    0    0    0  501 -0.00000000000E+00  0.00000000000E+00  0.23649054104E+04  0.23649054104E+04  0.00000000000E+00 0.  1.
          2   -1    0    0  501    0  0.00000000000E+00 -0.00000000000E+00 -0.19076177436E+04  0.19076177436E+04  0.00000000000E+00 0. -1.
         24    2    1    2    0    0 -0.35052712818E+03 -0.17647544276E+04  0.11394003294E+04  0.21311688563E+04  0.80125691547E+02 0.  0.
        254    2    1    2    0    0  0.35052712818E+03  0.17647544276E+04 -0.68211266254E+03  0.21413542977E+04  0.93962390715E+03 0.  0.
         23    2    4    4    0    0  0.15519711067E+03 -0.61626456207E+02 -0.43030906197E+02  0.19434022567E+03  0.89624221947E+02 0.  0.
         23    2    4    4    0    0  0.19533001751E+03  0.18263808838E+04 -0.63908175634E+03  0.19470140721E+04  0.92829721713E+02 0.  0.
          2    1    3    3  502    0 -0.13390234385E+03 -0.67922539113E+03  0.39255329983E+03  0.79584864318E+03  0.00000000000E+00 0. -1.
         -1    1    3    3    0  502 -0.21662478433E+03 -0.10855290364E+04  0.74684702953E+03  0.13353202132E+04  0.00000000000E+00 0.  1.
         13    1    5    5    0    0  0.15804825750E+03 -0.58378625044E+02 -0.18575900299E+02  0.16950628198E+03  0.00000000000E+00 0. -1.
        -13    1    5    5    0    0 -0.28511468266E+01 -0.32478311630E+01 -0.24455005898E+02  0.24833943685E+02  0.00000000000E+00 0.  1.
          4    1    6    6  503    0  0.83349624637E+02  0.65160870337E+03 -0.27360456060E+03  0.71161823881E+03  0.00000000000E+00 0. -1.
         -4    1    6    6    0  503  0.11198039288E+03  0.11747721804E+04 -0.36547719575E+03  0.12353958333E+04  0.00000000000E+00 0.  1.
<mgrwt>
<rscale>  0 0.42479809E+04</rscale>
<asrwt>0</asrwt>
<pdfrwt beam="1">  1        2 0.29347965E+00 0.42479809E+04</pdfrwt>
<pdfrwt beam="2">  1       -1 0.36383160E+00 0.42479809E+04</pdfrwt>
<totfact> 0.83154504E-02</totfact>
</mgrwt>
</event>
<event>
12    7  0.1546317E-007  0.2337496E+04  0.7818608E-02  0.8463282E-01
          2   -1    0    0  501    0  0.00000000000E+00  0.00000000000E+00  0.21191332446E+04  0.21191332446E+04  0.00000000000E+00 0. -1.
         -1   -1    0    0    0  501 -0.00000000000E+00 -0.00000000000E+00 -0.64459010926E+03  0.64459010926E+03  0.00000000000E+00 0.  1.
         24    2    1    2    0    0 -0.32638532509E+03  0.73299169243E+03 -0.70541400057E+02  0.80938968389E+03  0.79569904293E+02 0.  0.
        254    2    1    2    0    0  0.32638532509E+03 -0.73299169243E+03  0.15450845354E+04  0.19543336699E+04  0.88787931072E+03 0.  0.
         23    2    4    4    0    0 -0.16558080840E+03  0.71485590448E+02  0.10129776681E+03  0.22724429001E+03  0.94082602143E+02 0.  0.
         23    2    4    4    0    0  0.49196613350E+03 -0.80447728288E+03  0.14437867686E+04  0.17270893799E+04  0.95410261625E+02 0.  0.
          4    1    3    3  502    0  0.44883149043E+01  0.13487543135E+02  0.86047088650E+00  0.14240758429E+02  0.00000000000E+00 0. -1.
         -1    1    3    3    0  502 -0.33087364000E+03  0.71950414929E+03 -0.71401870943E+02  0.79514892546E+03  0.00000000000E+00 0.  1.
         13    1    5    5    0    0 -0.84977161050E+02  0.37799694288E+02 -0.62343587869E+00  0.93007115108E+02  0.00000000000E+00 0. -1.
        -13    1    5    5    0    0 -0.80603647355E+02  0.33685896160E+02  0.10192120269E+03  0.13423717490E+03  0.00000000000E+00 0.  1.
          2    1    6    6  503    0  0.44263011081E+03 -0.70752495167E+03  0.12184169287E+04  0.14768387807E+04  0.00000000000E+00 0.  1.
         -2    1    6    6    0  503  0.49336022682E+02 -0.96952331205E+02  0.22536983991E+03  0.25025059920E+03  0.00000000000E+00 0. -1.
<mgrwt>
<rscale>  0 0.23374964E+04</rscale>
<asrwt>0</asrwt>
<pdfrwt beam="1">  1        2 0.32602050E+00 0.23374964E+04</pdfrwt>
<pdfrwt beam="2">  1       -1 0.99167710E-01 0.23374964E+04</pdfrwt>
<totfact> 0.57276240E+00</totfact>
</mgrwt>
</event>
<event>
12    7  0.1546317E-007  0.1289850E+04  0.7818608E-02  0.9037653E-01
          2   -1    0    0  501    0  0.00000000000E+00  0.00000000000E+00  0.19264859809E+04  0.19264859809E+04  0.00000000000E+00 0. -1.
         -1   -1    0    0    0  501 -0.00000000000E+00 -0.00000000000E+00 -0.21589996540E+03  0.21589996540E+03  0.00000000000E+00 0.  1.
         24    2    1    2    0    0 -0.27237784289E+03  0.17416612634E+03  0.45571155086E+03  0.56456133058E+03  0.80826663534E+02 0.  0.
        254    2    1    2    0    0  0.27237784289E+03 -0.17416612634E+03  0.12548744646E+04  0.15778246157E+04  0.90016502216E+03 0.  0.
         23    2    4    4    0    0  0.54302381926E+03 -0.31921237163E+03  0.80155733972E+03  0.10227031005E+04  0.81584658267E+02 0.  0.
         23    2    4    4    0    0 -0.27064597637E+03  0.14504624529E+03  0.45331712488E+03  0.55512151517E+03  0.91519523048E+02 0.  0.
          2    1    3    3  502    0 -0.66700328085E+02  0.55501942963E+01  0.10245273461E+03  0.12237769917E+03  0.00000000000E+00 0. -1.
         -1    1    3    3    0  502 -0.20567751480E+03  0.16861593204E+03  0.35325881625E+03  0.44218363141E+03  0.00000000000E+00 0.  1.
         13    1    5    5    0    0  0.34282174806E+03 -0.24611894909E+03  0.52974596242E+03  0.67729762494E+03  0.00000000000E+00 0. -1.
        -13    1    5    5    0    0  0.20020207120E+03 -0.73093422532E+02  0.27181137730E+03  0.34540547558E+03  0.00000000000E+00 0.  1.
          2    1    6    6  503    0 -0.26831037930E+03  0.15033961243E+03  0.41594018210E+03  0.51729942373E+03  0.00000000000E+00 0. -1.
         -2    1    6    6    0  503 -0.23355970701E+01 -0.52933671437E+01  0.37376942779E+02  0.37822091440E+02  0.00000000000E+00 0.  1.
<mgrwt>
<rscale>  0 0.12898500E+04</rscale>
<asrwt>0</asrwt>
<pdfrwt beam="1">  1        2 0.29638245E+00 0.12898500E+04</pdfrwt>
<pdfrwt beam="2">  1       -1 0.33215381E-01 0.12898500E+04</pdfrwt>
<totfact> 0.69932424E+01</totfact>
</mgrwt>
</event>
<event>
12    7  0.1546317E-007  0.2093350E+04  0.7818608E-02  0.8564178E-01
         -1   -1    0    0    0  501 -0.00000000000E+00  0.00000000000E+00  0.17469073526E+04  0.17469073526E+04  0.00000000000E+00 0.  1.
          2   -1    0    0  501    0  0.00000000000E+00 -0.00000000000E+00 -0.62712488284E+03  0.62712488284E+03  0.00000000000E+00 0. -1.
         24    2    1    2    0    0  0.83803460890E+03 -0.58135020673E+02  0.31038001547E+03  0.89909436306E+03  0.79707172479E+02 0.  0.
        254    2    1    2    0    0 -0.83803460890E+03  0.58135020673E+02  0.80940245431E+03  0.14749378724E+04  0.90256728728E+03 0.  0.
         23    2    4    4    0    0 -0.34435107009E+03  0.24833245836E+03  0.82989681595E+03  0.93759685397E+03  0.10056075828E+03 0.  0.
         23    2    4    4    0    0 -0.49368353881E+03 -0.19019743768E+03 -0.20494361632E+02  0.53734101844E+03  0.91743389097E+02 0.  0.
          2    1    3    3  502    0  0.66958163914E+03 -0.67726925607E+02  0.22230262237E+03  0.70876298142E+03  0.00000000000E+00 0. -1.
         -1    1    3    3    0  502  0.16845296976E+03  0.95919049341E+01  0.88077393092E+02  0.19033138164E+03  0.00000000000E+00 0.  1.
         13    1    5    5    0    0 -0.13601671872E+03  0.49797435401E+02  0.22280455666E+03  0.26574838252E+03  0.00000000000E+00 0. -1.
        -13    1    5    5    0    0 -0.20833435137E+03  0.19853502296E+03  0.60709225928E+03  0.67184847144E+03  0.00000000000E+00 0.  1.
          4    1    6    6  503    0 -0.20193644235E+03 -0.83243920627E+02 -0.53445590226E+02  0.22486508886E+03  0.00000000000E+00 0. -1.
         -4    1    6    6    0  503 -0.29174709646E+03 -0.10695351706E+03  0.32951228594E+02  0.31247592958E+03  0.00000000000E+00 0.  1.
<mgrwt>
<rscale>  0 0.20933505E+04</rscale>
<asrwt>0</asrwt>
<pdfrwt beam="1">  1        2 0.96480752E-01 0.20933505E+04</pdfrwt>
<pdfrwt beam="2">  1       -1 0.26875498E+00 0.20933505E+04</pdfrwt>
<totfact> 0.26043319E+00</totfact>
</mgrwt>
</event>
<event>
12    7  0.1546317E-007  0.2013884E+04  0.7818608E-02  0.8600157E-01
          2   -1    0    0  501    0  0.00000000000E+00  0.00000000000E+00  0.31860394537E+04  0.31860394537E+04  0.00000000000E+00 0. -1.
         -1   -1    0    0    0  501 -0.00000000000E+00 -0.00000000000E+00 -0.31824219354E+03  0.31824219354E+03  0.00000000000E+00 0.  1.
         24    2    1    2    0    0 -0.24867767682E+03 -0.28032639655E+03  0.23906869606E+04  0.24211691028E+04  0.79070887314E+02 0.  0.
        254    2    1    2    0    0  0.24867767682E+03  0.28032639655E+03  0.47711029961E+03  0.10831125445E+04  0.89725975641E+03 0.  0.
         23    2    4    4    0    0 -0.25670083559E+03  0.31509915269E+03  0.37105454412E+03  0.55776738914E+03  0.90775495914E+02 0.  0.
         23    2    4    4    0    0  0.50537851240E+03 -0.34772756136E+02  0.10605575549E+03  0.52534515534E+03  0.90128372903E+02 0.  0.
          2    1    3    3  502    0 -0.25071553768E+03 -0.28236426774E+03  0.23288275536E+04  0.23592425977E+04  0.00000000000E+00 0. -1.
         -1    1    3    3    0  502  0.20378608647E+01  0.20378711930E+01  0.61859406999E+02  0.61926505070E+02  0.00000000000E+00 0.  1.
         13    1    5    5    0    0 -0.22196790598E+03  0.25073550871E+03  0.34320345576E+03  0.47950668260E+03  0.00000000000E+00 0.  1.
        -13    1    5    5    0    0 -0.34732929610E+02  0.64363643976E+02  0.27851088363E+02  0.78260706540E+02  0.00000000000E+00 0. -1.
          4    1    6    6  503    0  0.88923040595E+02 -0.36161484442E+02  0.16908226581E+01  0.96009473423E+02  0.00000000000E+00 0. -1.
         -4    1    6    6    0  503  0.41645547181E+03  0.13887283059E+01  0.10436493283E+03  0.42933568192E+03  0.00000000000E+00 0.  1.
<mgrwt>
<rscale>  0 0.20138840E+04</rscale>
<asrwt>0</asrwt>
<pdfrwt beam="1">  1        2 0.49015989E+00 0.20138840E+04</pdfrwt>
<pdfrwt beam="2">  1       -1 0.48960340E-01 0.20138840E+04</pdfrwt>
<totfact> 0.58627826E+00</totfact>
</mgrwt>
</event>
<event>
12    7  0.1546317E-007  0.2003838E+04  0.7818608E-02  0.8604828E-01
         -1   -1    0    0    0  501 -0.00000000000E+00  0.00000000000E+00  0.40062843440E+03  0.40062843440E+03  0.00000000000E+00 0.  1.
          2   -1    0    0  501    0  0.00000000000E+00 -0.00000000000E+00 -0.25056670429E+04  0.25056670429E+04  0.00000000000E+00 0. -1.
         24    2    1    2    0    0 -0.46148614315E+03 -0.64779258665E+03 -0.83497054886E+03  0.11578500186E+04  0.10409684222E+03 0.  0.
        254    2    1    2    0    0  0.46148614315E+03  0.64779258665E+03 -0.12700680596E+04  0.17484454586E+04  0.90076853306E+03 0.  0.
         23    2    4    4    0    0  0.50961025952E+03  0.53765182215E+03 -0.36600289978E+03  0.83117364920E+03  0.90107791085E+02 0.  0.
         23    2    4    4    0    0 -0.48124116379E+02  0.11014076450E+03 -0.90406515983E+03  0.91727180944E+03  0.98014491672E+02 0.  0.
          2    1    3    3  502    0 -0.39183577941E+03 -0.59369676829E+03 -0.77015368248E+03  0.10484025111E+04  0.00000000000E+00 0. -1.
         -1    1    3    3    0  502 -0.69650363732E+02 -0.54095818354E+02 -0.64816866381E+02  0.10944750750E+03  0.00000000000E+00 0.  1.
         13    1    5    5    0    0  0.35308849091E+03  0.38257466518E+03 -0.30139994948E+03  0.60156195557E+03  0.00000000000E+00 0. -1.
        -13    1    5    5    0    0  0.15652176862E+03  0.15507715697E+03 -0.64602950300E+02  0.22961169363E+03  0.00000000000E+00 0.  1.
          3    1    6    6  503    0 -0.22838464057E+02 -0.11766286856E+02 -0.84984006080E+02  0.88782443288E+02  0.00000000000E+00 0. -1.
         -3    1    6    6    0  503 -0.25285652322E+02  0.12190705136E+03 -0.81908115375E+03  0.82848936615E+03  0.00000000000E+00 0.  1.
<mgrwt>
<rscale>  0 0.20038378E+04</rscale>
<asrwt>0</asrwt>
<pdfrwt beam="1">  1        2 0.38548723E+00 0.20038378E+04</pdfrwt>
<pdfrwt beam="2">  1       -1 0.61635144E-01 0.20038378E+04</pdfrwt>
<totfact> 0.97574485E+00</totfact>
</mgrwt>
</event>
<event>
12    7  0.1546317E-007  0.1790478E+04  0.7818608E-02  0.8711380E-01
         -1   -1    0    0    0  501 -0.00000000000E+00  0.00000000000E+00  0.47917513307E+03  0.47917513307E+03  0.00000000000E+00 0.  1.
          2   -1    0    0  501    0  0.00000000000E+00 -0.00000000000E+00 -0.16725669462E+04  0.16725669462E+04  0.00000000000E+00 0. -1.
         24    2    1    2    0    0  0.17266891013E+03  0.57443312370E+03 -0.75661576054E+03  0.96884616425E+03  0.80046953407E+02 0.  0.
        254    2    1    2    0    0 -0.17266891013E+03 -0.57443312370E+03 -0.43677605258E+03  0.11828959150E+04  0.92123908924E+03 0.  0.
         23    2    4    4    0    0 -0.63698560219E+02 -0.19775951277E+03  0.28024829855E+03  0.36074585518E+03  0.91826639528E+02 0.  0.
         23    2    4    4    0    0 -0.10897034991E+03 -0.37667361093E+03 -0.71702435113E+03  0.82215005984E+03  0.89717637383E+02 0.  0.
          4    1    3    3  502    0  0.60084275609E+01  0.87850034797E+02 -0.14578456006E+03  0.17031402693E+03  0.00000000000E+00 0. -1.
         -3    1    3    3    0  502  0.16666048256E+03  0.48658308890E+03 -0.61083120048E+03  0.79853213732E+03  0.00000000000E+00 0.  1.
         13    1    5    5    0    0 -0.62577003387E+02 -0.12654498121E+03  0.24131600337E+03  0.27957633503E+03  0.00000000000E+00 0.  1.
        -13    1    5    5    0    0 -0.11215568325E+01 -0.71214531558E+02  0.38932295176E+02  0.81169520156E+02  0.00000000000E+00 0. -1.
          2    1    6    6  503    0 -0.86077119091E+02 -0.29466822261E+03 -0.62771735590E+03  0.69876155500E+03  0.00000000000E+00 0.  1.
         -2    1    6    6    0  503 -0.22893230815E+02 -0.82005388323E+02 -0.89306995234E+02  0.12338850485E+03  0.00000000000E+00 0. -1.
<mgrwt>
<rscale>  0 0.17904776E+04</rscale>
<asrwt>0</asrwt>
<pdfrwt beam="1">  1        2 0.25731799E+00 0.17904776E+04</pdfrwt>
<pdfrwt beam="2">  1       -1 0.73719251E-01 0.17904776E+04</pdfrwt>
<totfact> 0.20262274E+01</totfact>
</mgrwt>
</event>
<event>
12    7  0.1546317E-007  0.1485591E+04  0.7818608E-02  0.8894092E-01
         -1   -1    0    0    0  501 -0.00000000000E+00  0.00000000000E+00  0.31668557500E+03  0.31668557500E+03  0.00000000000E+00 0.  1.
          2   -1    0    0  501    0  0.00000000000E+00 -0.00000000000E+00 -0.17422492909E+04  0.17422492909E+04  0.00000000000E+00 0. -1.
         24    2    1    2    0    0 -0.11851108663E+03  0.10539657125E+03  0.13310887759E+03  0.22216333892E+03  0.80531118093E+02 0.  0.
        254    2    1    2    0    0  0.11851108663E+03 -0.10539657125E+03 -0.15586725935E+04  0.18367715270E+04  0.95870541553E+03 0.  0.
         23    2    4    4    0    0  0.94244916517E+02 -0.16210799334E+03 -0.16681451839E+04  0.16811432504E+04  0.91505016308E+02 0.  0.
         23    2    4    4    0    0  0.24266170109E+02  0.56711422091E+02  0.10947259037E+03  0.15562827662E+03  0.91819823761E+02 0.  0.
          2    1    3    3  502    0 -0.16843568535E+02 -0.90358815317E+01  0.36363793589E+02  0.41081363661E+02  0.00000000000E+00 0. -1.
         -1    1    3    3    0  502 -0.10166751809E+03  0.11443245279E+03  0.96745084002E+02  0.18108197526E+03  0.00000000000E+00 0.  1.
         13    1    5    5    0    0 -0.13947271584E+02 -0.53464053642E+02 -0.42311402884E+03  0.42670647150E+03  0.00000000000E+00 0. -1.
        -13    1    5    5    0    0  0.10819218810E+03 -0.10864393970E+03 -0.12450311550E+04  0.12544367789E+04  0.00000000000E+00 0.  1.
          4    1    6    6  503    0  0.53196105831E+02  0.82945993330E+01  0.59878404298E+02  0.80523595020E+02  0.00000000000E+00 0. -1.
         -4    1    6    6    0  503 -0.28929935721E+02  0.48416822758E+02  0.49594186072E+02  0.75104681605E+02  0.00000000000E+00 0.  1.
<mgrwt>
<rscale>  0 0.14855911E+04</rscale>
<asrwt>0</asrwt>
<pdfrwt beam="1">  1        2 0.26803835E+00 0.14855911E+04</pdfrwt>
<pdfrwt beam="2">  1       -1 0.48720859E-01 0.14855911E+04</pdfrwt>
<totfact> 0.43165349E+01</totfact>
</mgrwt>
</event>
<event>
12    7  0.1546317E-007  0.2705936E+04  0.7818608E-02  0.8333082E-01
          2   -1    0    0  501    0  0.00000000000E+00  0.00000000000E+00  0.35202305526E+04  0.35202305526E+04  0.00000000000E+00 0. -1.
         -1   -1    0    0    0  501 -0.00000000000E+00 -0.00000000000E+00 -0.52000067534E+03  0.52000067534E+03  0.00000000000E+00 0.  1.
         24    2    1    2    0    0 -0.27984739776E+03  0.85296603910E+02 -0.40387033125E+03  0.50489530725E+03  0.78853979854E+02 0.  0.
        254    2    1    2    0    0  0.27984739776E+03 -0.85296603910E+02  0.34041002085E+04  0.35353359207E+04  0.90835662925E+03 0.  0.
         23    2    4    4    0    0 -0.31221900552E+03  0.69316587250E+02  0.13148514291E+04  0.13563423142E+04  0.92437526087E+02 0.  0.
         23    2    4    4    0    0  0.59206640328E+03 -0.15461319116E+03  0.20892487794E+04  0.21789936064E+04  0.92762113765E+02 0.  0.
          2    1    3    3  502    0 -0.11499857313E+03  0.22931758256E+02 -0.22532148039E+03  0.25400847798E+03  0.00000000000E+00 0. -1.
         -1    1    3    3    0  502 -0.16484882463E+03  0.62364845654E+02 -0.17854885086E+03  0.25088682927E+03  0.00000000000E+00 0.  1.
         13    1    5    5    0    0 -0.32557962111E+02 -0.13319349933E+02  0.24287226014E+03  0.24540652136E+03  0.00000000000E+00 0. -1.
        -13    1    5    5    0    0 -0.27966104341E+03  0.82635937184E+02  0.10719791689E+04  0.11109357929E+04  0.00000000000E+00 0.  1.
          4    1    6    6  503    0  0.31255278672E+03 -0.65657342610E+02  0.12419655837E+04  0.12823722713E+04  0.00000000000E+00 0. -1.
         -4    1    6    6    0  503  0.27951361656E+03 -0.88955848550E+02  0.84728319573E+03  0.89662133513E+03  0.00000000000E+00 0.  1.
<mgrwt>
<rscale>  0 0.27059359E+04</rscale>
<asrwt>0</asrwt>
<pdfrwt beam="1">  1        2 0.54157392E+00 0.27059359E+04</pdfrwt>
<pdfrwt beam="2">  1       -1 0.80000106E-01 0.27059359E+04</pdfrwt>
<totfact> 0.12236393E+00</totfact>
</mgrwt>
</event>
<event>
12    7  0.1546317E-007  0.1905124E+04  0.7818608E-02  0.8652310E-01
          2   -1    0    0  501    0  0.00000000000E+00  0.00000000000E+00  0.13226137670E+04  0.13226137670E+04  0.00000000000E+00 0. -1.
         -1   -1    0    0    0  501 -0.00000000000E+00 -0.00000000000E+00 -0.68604606659E+03  0.68604606659E+03  0.00000000000E+00 0.  1.
         24    2    1    2    0    0  0.58524873777E+03  0.84183925592E+02  0.75452548974E+03  0.96190826427E+03  0.79723119617E+02 0.  0.
        254    2    1    2    0    0 -0.58524873777E+03 -0.84183925592E+02 -0.11795778937E+03  0.10467515693E+04  0.85567037423E+03 0.  0.
         23    2    4    4    0    0 -0.38278887100E+03  0.23341099190E+03  0.24282115428E+03  0.51798577941E+03  0.91318912593E+02 0.  0.
         23    2    4    4    0    0 -0.20245986677E+03 -0.31759491749E+03 -0.36077894365E+03  0.52876578988E+03  0.87036113764E+02 0.  0.
          4    1    3    3  502    0  0.26419155329E+03  0.25714900652E+00  0.31335725469E+03  0.40986584637E+03  0.00000000000E+00 0. -1.
         -3    1    3    3    0  502  0.32105718448E+03  0.83926776586E+02  0.44116823505E+03  0.55204241790E+03  0.00000000000E+00 0.  1.
         13    1    5    5    0    0 -0.63625676765E+02  0.17317845462E+02  0.74365810389E+01  0.66358400017E+02  0.00000000000E+00 0. -1.
        -13    1    5    5    0    0 -0.31916319424E+03  0.21609314644E+03  0.23538457324E+03  0.45162737939E+03  0.00000000000E+00 0.  1.
          2    1    6    6  503    0 -0.59120477244E+02 -0.91979228545E+02 -0.54243802748E+02  0.12205654202E+03  0.00000000000E+00 0. -1.
         -2    1    6    6    0  503 -0.14333938953E+03 -0.22561568895E+03 -0.30653514091E+03  0.40670924786E+03  0.00000000000E+00 0.  1.
<mgrwt>
<rscale>  0 0.19051236E+04</rscale>
<asrwt>0</asrwt>
<pdfrwt beam="1">  1        2 0.20347904E+00 0.19051236E+04</pdfrwt>
<pdfrwt beam="2">  1       -1 0.10554555E+00 0.19051236E+04</pdfrwt>
<totfact> 0.14395928E+01</totfact>
</mgrwt>
</event>
<event>
12    7  0.1546317E-007  0.1549904E+04  0.7818608E-02  0.8851929E-01
         -1   -1    0    0    0  501 -0.00000000000E+00  0.00000000000E+00  0.21440714536E+03  0.21440714536E+03  0.00000000000E+00 0.  1.
          2   -1    0    0  501    0  0.00000000000E+00 -0.00000000000E+00 -0.28009829475E+04  0.28009829475E+04  0.00000000000E+00 0. -1.
         24    2    1    2    0    0 -0.24551770282E+03 -0.84486538001E+02 -0.17062969831E+04  0.17277276235E+04  0.78590259929E+02 0.  0.
        254    2    1    2    0    0  0.24551770282E+03  0.84486538001E+02 -0.88027881902E+03  0.12876624694E+04  0.90319816112E+03 0.  0.
         23    2    4    4    0    0  0.43540795468E+03  0.37359768139E+03 -0.58386701039E+03  0.82403899109E+03  0.94785328339E+02 0.  0.
         23    2    4    4    0    0 -0.18989025186E+03 -0.28911114339E+03 -0.29641180864E+03  0.46362347826E+03  0.86274030343E+02 0.  0.
          2    1    3    3  502    0 -0.23998803902E+03 -0.62080697199E+02 -0.15360266892E+04  0.15559004665E+04  0.00000000000E+00 0. -1.
         -1    1    3    3    0  502 -0.55296638001E+01 -0.22405840802E+02 -0.17027029392E+03  0.17182715698E+03  0.00000000000E+00 0.  1.
         13    1    5    5    0    0  0.15782166112E+03  0.18378900915E+03 -0.28601111696E+03  0.37481786995E+03  0.00000000000E+00 0.  1.
        -13    1    5    5    0    0  0.27758629356E+03  0.18980867224E+03 -0.29785589342E+03  0.44922112114E+03  0.00000000000E+00 0. -1.
          1    1    6    6  503    0 -0.11129929846E+03 -0.17894487223E+03 -0.23304754456E+03  0.31419732520E+03  0.00000000000E+00 0. -1.
         -1    1    6    6    0  503 -0.78590953403E+02 -0.11016627116E+03 -0.63364264078E+02  0.14942615307E+03  0.00000000000E+00 0.  1.
<mgrwt>
<rscale>  0 0.15499042E+04</rscale>
<asrwt>0</asrwt>
<pdfrwt beam="1">  1        2 0.43092041E+00 0.15499042E+04</pdfrwt>
<pdfrwt beam="2">  1       -1 0.32985718E-01 0.15499042E+04</pdfrwt>
<totfact> 0.21940659E+01</totfact>
</mgrwt>
</event>
<event>
12    7  0.1546317E-007  0.1401276E+04  0.7818608E-02  0.8952896E-01
         -1   -1    0    0    0  501 -0.00000000000E+00  0.00000000000E+00  0.86198049473E+03  0.86198049473E+03  0.00000000000E+00 0.  1.
          2   -1    0    0  501    0  0.00000000000E+00 -0.00000000000E+00 -0.56949494238E+03  0.56949494238E+03  0.00000000000E+00 0. -1.
         24    2    1    2    0    0  0.15423548937E+03  0.18463636696E+03 -0.26648414650E+03  0.36877946369E+03  0.84293050259E+02 0.  0.
        254    2    1    2    0    0 -0.15423548937E+03 -0.18463636696E+03  0.55896969885E+03  0.10626959734E+04  0.87120401371E+03 0.  0.
         23    2    4    4    0    0  0.29073629077E+03 -0.70427664177E+02 -0.27684280957E+02  0.31193253317E+03  0.83951409677E+02 0.  0.
         23    2    4    4    0    0 -0.44497178013E+03 -0.11420870278E+03  0.58665397980E+03  0.75076344025E+03  0.91865871188E+02 0.  0.
          2    1    3    3  502    0  0.71260157283E+02  0.14643296379E+03 -0.15720521842E+03  0.22634951645E+03  0.00000000000E+00 0. -1.
         -1    1    3    3    0  502  0.82975332084E+02  0.38203403166E+02 -0.10927892808E+03  0.14242994724E+03  0.00000000000E+00 0.  1.
         13    1    5    5    0    0  0.19271182656E+02  0.56670042313E+01 -0.22216373149E+02  0.29950970832E+02  0.00000000000E+00 0.  1.
        -13    1    5    5    0    0  0.27146510811E+03 -0.76094668408E+02 -0.54679078084E+01  0.28198156234E+03  0.00000000000E+00 0. -1.
          3    1    6    6  503    0 -0.32959564128E+03 -0.60764271412E+02  0.47631838325E+03  0.58241289963E+03  0.00000000000E+00 0. -1.
         -3    1    6    6    0  503 -0.11537613885E+03 -0.53444431367E+02  0.11033559656E+03  0.16835054062E+03  0.00000000000E+00 0.  1.
<mgrwt>
<rscale>  0 0.14012759E+04</rscale>
<asrwt>0</asrwt>
<pdfrwt beam="1">  1        2 0.87614606E-01 0.14012759E+04</pdfrwt>
<pdfrwt beam="2">  1       -1 0.13261238E+00 0.14012759E+04</pdfrwt>
<totfact> 0.28331974E+01</totfact>
</mgrwt>
</event>
<event>
12    7  0.1546317E-007  0.2349666E+04  0.7818608E-02  0.8458592E-01
         -1   -1    0    0    0  501 -0.00000000000E+00  0.00000000000E+00  0.33365619269E+03  0.33365619269E+03  0.00000000000E+00 0.  1.
          2   -1    0    0  501    0  0.00000000000E+00 -0.00000000000E+00 -0.41366903474E+04  0.41366903474E+04  0.00000000000E+00 0. -1.
         24    2    1    2    0    0  0.72096045315E+03 -0.28837927603E+03 -0.28336085851E+04  0.29391067160E+04  0.77872284063E+02 0.  0.
        254    2    1    2    0    0 -0.72096045315E+03  0.28837927603E+03 -0.96942556962E+03  0.15312398241E+04  0.89552380316E+03 0.  0.
         23    2    4    4    0    0 -0.23544369759E+03 -0.72240557549E+02 -0.87330601365E+03  0.91209299286E+03  0.92724329327E+02 0.  0.
         23    2    4    4    0    0 -0.48551675557E+03  0.36061983358E+03 -0.96119555967E+02  0.61914683125E+03  0.91272368718E+02 0.  0.
          2    1    3    3  502    0  0.67015822221E+03 -0.26762089609E+03 -0.26974223110E+04  0.27922786592E+04  0.00000000000E+00 0. -1.
         -1    1    3    3    0  502  0.50802230945E+02 -0.20758379940E+02 -0.13618627413E+03  0.14682805682E+03  0.00000000000E+00 0.  1.
         13    1    5    5    0    0 -0.80257854168E+02  0.83856110397E+00 -0.41606735111E+03  0.42373820574E+03  0.00000000000E+00 0. -1.
        -13    1    5    5    0    0 -0.15518584342E+03 -0.73079118653E+02 -0.45723866254E+03  0.48835478712E+03  0.00000000000E+00 0.  1.
          1    1    6    6  503    0 -0.30491062100E+03  0.17038410262E+03 -0.51373769138E+02  0.35304460537E+03  0.00000000000E+00 0. -1.
         -1    1    6    6    0  503 -0.18060613457E+03  0.19023573096E+03 -0.44745786829E+02  0.26610222588E+03  0.00000000000E+00 0.  1.
<mgrwt>
<rscale>  0 0.23496658E+04</rscale>
<asrwt>0</asrwt>
<pdfrwt beam="1">  1        2 0.63641391E+00 0.23496658E+04</pdfrwt>
<pdfrwt beam="2">  1       -1 0.51331721E-01 0.23496658E+04</pdfrwt>
<totfact> 0.10396211E+00</totfact>
</mgrwt>
</event>
<event>
12    7  0.1546317E-007  0.2949679E+04  0.7818608E-02  0.8258248E-01
          2   -1    0    0  501    0  0.00000000000E+00  0.00000000000E+00  0.38910879551E+04  0.38910879551E+04  0.00000000000E+00 0. -1.
         -1   -1    0    0    0  501 -0.00000000000E+00 -0.00000000000E+00 -0.55900874752E+03  0.55900874752E+03  0.00000000000E+00 0.  1.
         24    2    1    2    0    0 -0.12436753627E+04 -0.42135209363E+03  0.18387966273E+04  0.22609092674E+04  0.79193966921E+02 0.  0.
        254    2    1    2    0    0  0.12436753627E+04  0.42135209363E+03  0.14932825803E+04  0.21891874352E+04  0.91563244120E+03 0.  0.
         23    2    4    4    0    0  0.47568835975E+03 -0.13394567270E+03  0.99404866174E+03  0.11142146595E+04  0.95502390740E+02 0.  0.
         23    2    4    4    0    0  0.76798700292E+03  0.55529776632E+03  0.49923391857E+03  0.10749727758E+04  0.90400869599E+02 0.  0.
          2    1    3    3  502    0 -0.38535720120E+02 -0.24136264155E+02  0.82162592102E+02  0.93905551026E+02  0.00000000000E+00 0. -1.
         -1    1    3    3    0  502 -0.12051396426E+04 -0.39721582947E+03  0.17566340352E+04  0.21670037164E+04  0.00000000000E+00 0.  1.
         13    1    5    5    0    0  0.37969907180E+03 -0.72896315553E+02  0.81542099204E+03  0.90243927896E+03  0.00000000000E+00 0. -1.
        -13    1    5    5    0    0  0.95989287952E+02 -0.61049357144E+02  0.17862766970E+03  0.21177538051E+03  0.00000000000E+00 0.  1.
          3    1    6    6  503    0  0.15908247888E+03  0.12580273122E+03  0.67260570956E+02  0.21367626605E+03  0.00000000000E+00 0. -1.
         -3    1    6    6    0  503  0.60890452404E+03  0.42949503510E+03  0.43197334761E+03  0.86129650970E+03  0.00000000000E+00 0.  1.
<mgrwt>
<rscale>  0 0.29496794E+04</rscale>
<asrwt>0</asrwt>
<pdfrwt beam="1">  1        2 0.59862890E+00 0.29496794E+04</pdfrwt>
<pdfrwt beam="2">  1       -1 0.86001348E-01 0.29496794E+04</pdfrwt>
<totfact> 0.54426521E-01</totfact>
</mgrwt>
</event>
<event>
12    7  0.1546317E-007  0.2972214E+04  0.7818608E-02  0.8251710E-01
          2   -1    0    0  501    0  0.00000000000E+00  0.00000000000E+00  0.14626579204E+04  0.14626579204E+04  0.00000000000E+00 0. -1.
         -1   -1    0    0    0  501 -0.00000000000E+00 -0.00000000000E+00 -0.15099320931E+04  0.15099320931E+04  0.00000000000E+00 0.  1.
         24    2    1    2    0    0 -0.12357902580E+04  0.40787662976E+02 -0.56207305900E+03  0.13606391826E+04  0.81065816312E+02 0.  0.
        254    2    1    2    0    0  0.12357902580E+04 -0.40787662976E+02  0.51479888633E+03  0.16119508309E+04  0.89695395237E+03 0.  0.
         23    2    4    4    0    0  0.13402344993E+04  0.77427858566E+02  0.44681704383E+03  0.14178831292E+04  0.92322862625E+02 0.  0.
         23    2    4    4    0    0 -0.10444424132E+03 -0.11821552154E+03  0.67981842510E+02  0.19406770171E+03  0.90317400636E+02 0.  0.
          2    1    3    3  502    0 -0.16672915844E+01  0.28575295813E+01  0.11998528974E+01  0.35192305282E+01  0.00000000000E+00 0. -1.
         -1    1    3    3    0  502 -0.12341229664E+04  0.37930133395E+02 -0.56327291190E+03  0.13571199521E+04  0.00000000000E+00 0.  1.
         13    1    5    5    0    0  0.68166132185E+03  0.30609362687E+02  0.27482125607E+03  0.73561254310E+03  0.00000000000E+00 0.  1.
        -13    1    5    5    0    0  0.65857317744E+03  0.46818495879E+02  0.17199578776E+03  0.68227058606E+03  0.00000000000E+00 0. -1.
          4    1    6    6  503    0 -0.10870826858E+03 -0.11810460643E+03  0.81406906473E+02  0.17998130497E+03  0.00000000000E+00 0. -1.
         -4    1    6    6    0  503  0.42640272607E+01 -0.11091511167E+00 -0.13425063963E+02  0.14086396738E+02  0.00000000000E+00 0.  1.
<mgrwt>
<rscale>  0 0.29722141E+04</rscale>
<asrwt>0</asrwt>
<pdfrwt beam="1">  1        2 0.22502430E+00 0.29722141E+04</pdfrwt>
<pdfrwt beam="2">  1       -1 0.23229724E+00 0.29722141E+04</pdfrwt>
<totfact> 0.11867367E+00</totfact>
</mgrwt>
</event>
<event>
12    7  0.1546317E-007  0.2211765E+04  0.7818608E-02  0.8513547E-01
          2   -1    0    0  501    0  0.00000000000E+00  0.00000000000E+00  0.29715730120E+04  0.29715730120E+04  0.00000000000E+00 0. -1.
         -1   -1    0    0    0  501 -0.00000000000E+00 -0.00000000000E+00 -0.41155863836E+03  0.41155863836E+03  0.00000000000E+00 0.  1.
         24    2    1    2    0    0 -0.30934401167E+03 -0.58887716743E+03  0.94107927407E+02  0.67634908408E+03  0.78241585174E+02 0.  0.
        254    2    1    2    0    0  0.30934401167E+03  0.58887716743E+03  0.24659064462E+04  0.27067825663E+04  0.89638564453E+03 0.  0.
         23    2    4    4    0    0  0.27554083396E+03  0.20015871396E+03  0.19728774660E+03  0.40308638442E+03  0.87005266441E+02 0.  0.
         23    2    4    4    0    0  0.33803177716E+02  0.38871845347E+03  0.22686186996E+04  0.23036961818E+04  0.90225291285E+02 0.  0.
          4    1    3    3  502    0 -0.40193666297E+02 -0.95731082902E+02 -0.12281343176E+02  0.10455047792E+03  0.00000000000E+00 0. -1.
         -3    1    3    3    0  502 -0.26915034538E+03 -0.49314608453E+03  0.10638927058E+03  0.57179860615E+03  0.00000000000E+00 0.  1.
         13    1    5    5    0    0  0.27262834561E+03  0.20643075903E+03  0.19940238747E+03  0.39585500532E+03  0.00000000000E+00 0.  1.
        -13    1    5    5    0    0  0.29124883440E+01 -0.62720450667E+01 -0.21146408677E+01  0.72313790989E+01  0.00000000000E+00 0. -1.
          4    1    6    6  503    0  0.53663500459E+02  0.17276544092E+03  0.89994607196E+03  0.91794912783E+03  0.00000000000E+00 0. -1.
         -4    1    6    6    0  503 -0.19860322743E+02  0.21595301254E+03  0.13686726276E+04  0.13857470540E+04  0.00000000000E+00 0.  1.
<mgrwt>
<rscale>  0 0.22117654E+04</rscale>
<asrwt>0</asrwt>
<pdfrwt beam="1">  1        2 0.45716507E+00 0.22117654E+04</pdfrwt>
<pdfrwt beam="2">  1       -1 0.63316715E-01 0.22117654E+04</pdfrwt>
<totfact> 0.47733340E+00</totfact>
</mgrwt>
</event>
<event>
12    7  0.1546317E-007  0.2665152E+04  0.7818608E-02  0.8346401E-01
          2   -1    0    0  501    0  0.00000000000E+00  0.00000000000E+00  0.68354845254E+03  0.68354845254E+03  0.00000000000E+00 0. -1.
         -1   -1    0    0    0  501 -0.00000000000E+00 -0.00000000000E+00 -0.25978529191E+04  0.25978529191E+04  0.00000000000E+00 0.  1.
         24    2    1    2    0    0  0.13504327699E+03  0.10774969662E+04 -0.28803653117E+03  0.11264201277E+04  0.81368679178E+02 0.  0.
        254    2    1    2    0    0 -0.13504327699E+03 -0.10774969662E+04 -0.16262679354E+04  0.21549812440E+04  0.90551662909E+03 0.  0.
         23    2    4    4    0    0  0.72075946392E+02  0.11642847053E+03 -0.67213366790E+02  0.17835927723E+03  0.92433026020E+02 0.  0.
         23    2    4    4    0    0 -0.20711922339E+03 -0.11939254367E+04 -0.15590545686E+04  0.19766219668E+04  0.89593139012E+02 0.  0.
          4    1    3    3  502    0  0.77060614535E+02  0.87119691857E+03 -0.23672680641E+03  0.90606952830E+03  0.00000000000E+00 0. -1.
         -3    1    3    3    0  502  0.57982662458E+02  0.20630004759E+03 -0.51309724757E+02  0.22035059935E+03  0.00000000000E+00 0.  1.
         13    1    5    5    0    0  0.39010466835E+02  0.10785707758E+03 -0.14586810719E+02  0.11561894634E+03  0.00000000000E+00 0. -1.
        -13    1    5    5    0    0  0.33065479558E+02  0.85713929526E+01 -0.52626556071E+02  0.62740330884E+02  0.00000000000E+00 0.  1.
          3    1    6    6  503    0 -0.20465886614E+03 -0.11813206810E+04 -0.15542030605E+04  0.19628935162E+04  0.00000000000E+00 0. -1.
         -3    1    6    6    0  503 -0.24603572440E+01 -0.12604755696E+02 -0.48515081799E+01  0.13728450588E+02  0.00000000000E+00 0.  1.
<mgrwt>
<rscale>  0 0.26651517E+04</rscale>
<asrwt>0</asrwt>
<pdfrwt beam="1">  1        2 0.10516130E+00 0.26651517E+04</pdfrwt>
<pdfrwt beam="2">  1       -1 0.39966968E+00 0.26651517E+04</pdfrwt>
<totfact> 0.30459694E-01</totfact>
</mgrwt>
</event>
<event>
12    7  0.1546317E-007  0.2067178E+04  0.7818608E-02  0.8575841E-01
         -1   -1    0    0    0  501 -0.00000000000E+00  0.00000000000E+00  0.52185779778E+03  0.52185779778E+03  0.00000000000E+00 0.  1.
          2   -1    0    0  501    0  0.00000000000E+00 -0.00000000000E+00 -0.20471215309E+04  0.20471215309E+04  0.00000000000E+00 0. -1.
         24    2    1    2    0    0 -0.76991506782E+03 -0.33161078936E+03 -0.49639237549E+03  0.97751323086E+03  0.79948725989E+02 0.  0.
        254    2    1    2    0    0  0.76991506782E+03  0.33161078936E+03 -0.10288713576E+04  0.15914660978E+04  0.87832405332E+03 0.  0.
         23    2    4    4    0    0 -0.15689774925E+03  0.14531290257E+03 -0.36483870274E+03  0.43271389932E+03  0.91658585366E+02 0.  0.
         23    2    4    4    0    0  0.92681281707E+03  0.18629788679E+03 -0.66403265486E+03  0.11587521985E+04  0.89879865480E+02 0.  0.
          4    1    3    3  502    0 -0.49720113174E+02 -0.25535133395E+02 -0.57985473994E+02  0.80538486985E+02  0.00000000000E+00 0. -1.
         -3    1    3    3    0  502 -0.72019495464E+03 -0.30607565596E+03 -0.43840690149E+03  0.89697474387E+03  0.00000000000E+00 0.  1.
         13    1    5    5    0    0 -0.10944004921E+03  0.10628212190E+03 -0.16999250515E+03  0.22840854978E+03  0.00000000000E+00 0. -1.
        -13    1    5    5    0    0 -0.47457700043E+02  0.39030780671E+02 -0.19484619759E+03  0.20430534954E+03  0.00000000000E+00 0.  1.
          4    1    6    6  503    0  0.87192623474E+03  0.15549773363E+03 -0.63260174727E+03  0.10884024415E+04  0.00000000000E+00 0. -1.
         -4    1    6    6    0  503  0.54886582331E+02  0.30800153156E+02 -0.31430907583E+02  0.70349756971E+02  0.00000000000E+00 0.  1.
<mgrwt>
<rscale>  0 0.20671781E+04</rscale>
<asrwt>0</asrwt>
<pdfrwt beam="1">  1        2 0.31494176E+00 0.20671781E+04</pdfrwt>
<pdfrwt beam="2">  1       -1 0.80285817E-01 0.20671781E+04</pdfrwt>
<totfact> 0.10241151E+01</totfact>
</mgrwt>
</event>
<event>
12    7  0.1546317E-007  0.1948556E+04  0.7818608E-02  0.8631057E-01
          2   -1    0    0  501    0  0.00000000000E+00  0.00000000000E+00  0.76107607862E+03  0.76107607862E+03  0.00000000000E+00 0. -1.
         -1   -1    0    0    0  501 -0.00000000000E+00 -0.00000000000E+00 -0.12472045615E+04  0.12472045615E+04  0.00000000000E+00 0.  1.
         24    2    1    2    0    0 -0.75116637039E+03 -0.10240375311E+03 -0.10449015794E+03  0.76996735485E+03  0.84817980290E+02 0.  0.
        254    2    1    2    0    0  0.75116637039E+03  0.10240375311E+03 -0.38163832490E+03  0.12383132852E+04  0.90168427772E+03 0.  0.
         23    2    4    4    0    0  0.19959305799E+03 -0.35778035055E+03  0.32863655059E+00  0.41980649923E+03  0.91614522641E+02 0.  0.
         23    2    4    4    0    0  0.55157331239E+03  0.46018410366E+03 -0.38196696145E+03  0.81850678599E+03  0.89733331974E+02 0.  0.
          4    1    3    3  502    0 -0.63921489644E+03 -0.10514300700E+03 -0.11329385565E+03  0.65763685532E+03  0.00000000000E+00 0. -1.
         -3    1    3    3    0  502 -0.11195147395E+03  0.27392538910E+01  0.88036977125E+01  0.11233049953E+03  0.00000000000E+00 0.  1.
         13    1    5    5    0    0  0.32932040382E+01 -0.60259858318E+02 -0.17746172704E+02  0.62904867562E+02  0.00000000000E+00 0. -1.
        -13    1    5    5    0    0  0.19629985396E+03 -0.29752049223E+03  0.18074809255E+02  0.35690163167E+03  0.00000000000E+00 0.  1.
          2    1    6    6  503    0  0.70684203573E+02  0.24814181681E+02 -0.32361981738E+02  0.81604522603E+02  0.00000000000E+00 0. -1.
         -2    1    6    6    0  503  0.48088910882E+03  0.43536992198E+03 -0.34960497972E+03  0.73690226339E+03  0.00000000000E+00 0.  1.
<mgrwt>
<rscale>  0 0.19485559E+04</rscale>
<asrwt>0</asrwt>
<pdfrwt beam="1">  1        2 0.11708863E+00 0.19485559E+04</pdfrwt>
<pdfrwt beam="2">  1       -1 0.19187762E+00 0.19485559E+04</pdfrwt>
<totfact> 0.67151595E+00</totfact>
</mgrwt>
</event>
<event>
12    7  0.1546317E-007  0.2041279E+04  0.7818608E-02  0.8587561E-01
          2   -1    0    0  501    0  0.00000000000E+00  0.00000000000E+00  0.78899777372E+03  0.78899777372E+03  0.00000000000E+00 0. -1.
         -1   -1    0    0    0  501 -0.00000000000E+00 -0.00000000000E+00 -0.13202890078E+04  0.13202890078E+04  0.00000000000E+00 0.  1.
         24    2    1    2    0    0  0.56126713983E+03  0.55357935838E+03 -0.42513983583E+03  0.89921068710E+03  0.79781398281E+02 0.  0.
        254    2    1    2    0    0 -0.56126713983E+03 -0.55357935838E+03 -0.10615139826E+03  0.12100760944E+04  0.91189096205E+03 0.  0.
         23    2    4    4    0    0 -0.45999007965E+03 -0.22767331954E+03  0.35371491063E+03  0.63009550181E+03  0.92087401900E+02 0.  0.
         23    2    4    4    0    0 -0.10127706018E+03 -0.32590603884E+03 -0.45986630889E+03  0.57998059261E+03  0.91807824743E+02 0.  0.
          4    1    3    3  502    0  0.93904295148E+02  0.55194817052E+02 -0.65460040677E+02  0.12708068855E+03  0.00000000000E+00 0. -1.
         -3    1    3    3    0  502  0.46736284468E+03  0.49838454133E+03 -0.35967979515E+03  0.77212999855E+03  0.00000000000E+00 0.  1.
         13    1    5    5    0    0 -0.54692405664E+02 -0.45222867150E+00  0.20895359618E+02  0.58549806162E+02  0.00000000000E+00 0.  1.
        -13    1    5    5    0    0 -0.40529767399E+03 -0.22722109087E+03  0.33281955102E+03  0.57154569565E+03  0.00000000000E+00 0. -1.
          3    1    6    6  503    0 -0.43301275926E+02 -0.69996908347E+02 -0.17071182177E+03  0.18951805657E+03  0.00000000000E+00 0. -1.
         -3    1    6    6    0  503 -0.57975784249E+02 -0.25590913049E+03 -0.28915448712E+03  0.39046253604E+03  0.00000000000E+00 0.  1.
<mgrwt>
<rscale>  0 0.20412791E+04</rscale>
<asrwt>0</asrwt>
<pdfrwt beam="1">  1        2 0.12138427E+00 0.20412791E+04</pdfrwt>
<pdfrwt beam="2">  1       -1 0.20312138E+00 0.20412791E+04</pdfrwt>
<totfact> 0.53102522E+00</totfact>
</mgrwt>
</event>
<event>
12    7  0.1546317E-007  0.1670386E+04  0.7818608E-02  0.8778437E-01
          2   -1    0    0  501    0  0.00000000000E+00  0.00000000000E+00  0.90583957284E+03  0.90583957284E+03  0.00000000000E+00 0. -1.
         -1   -1    0    0    0  501 -0.00000000000E+00 -0.00000000000E+00 -0.77005605397E+03  0.77005605397E+03  0.00000000000E+00 0.  1.
         24    2    1    2    0    0  0.31513324038E+03  0.15488855626E+03  0.56637452497E+03  0.67142080874E+03  0.82014485443E+02 0.  0.
        254    2    1    2    0    0 -0.31513324038E+03 -0.15488855626E+03 -0.43059100610E+03  0.10044748181E+04  0.83681636071E+03 0.  0.
         23    2    4    4    0    0 -0.58136165047E+02  0.33105778039E+03 -0.20225027688E+03  0.40224798329E+03  0.88989875384E+02 0.  0.
         23    2    4    4    0    0 -0.25699707533E+03 -0.48594633665E+03 -0.22834072921E+03  0.60222683478E+03  0.91358267714E+02 0.  0.
          4    1    3    3  502    0  0.17138389980E+03  0.82068903402E+02  0.38129812504E+03  0.42602348078E+03  0.00000000000E+00 0. -1.
         -3    1    3    3    0  502  0.14374934058E+03  0.72819652863E+02  0.18507639992E+03  0.24539732796E+03  0.00000000000E+00 0.  1.
         13    1    5    5    0    0 -0.61970680847E+02  0.23680082902E+03 -0.10373263277E+03  0.26584856030E+03  0.00000000000E+00 0.  1.
        -13    1    5    5    0    0  0.38345157998E+01  0.94256951366E+02 -0.98517644109E+02  0.13639942299E+03  0.00000000000E+00 0. -1.
          2    1    6    6  503    0 -0.17631073780E+03 -0.36090425257E+03 -0.20706296076E+03  0.45189868943E+03  0.00000000000E+00 0.  1.
         -2    1    6    6    0  503 -0.80686337529E+02 -0.12504208408E+03 -0.21277768453E+02  0.15032814536E+03  0.00000000000E+00 0. -1.
<mgrwt>
<rscale>  0 0.16703859E+04</rscale>
<asrwt>0</asrwt>
<pdfrwt beam="1">  1        2 0.13935994E+00 0.16703859E+04</pdfrwt>
<pdfrwt beam="2">  1       -1 0.11847016E+00 0.16703859E+04</pdfrwt>
<totfact> 0.20208017E+01</totfact>
</mgrwt>
</event>
<event>
12    7  0.1546317E-007  0.1412133E+04  0.7818608E-02  0.8945083E-01
          2   -1    0    0  501    0  0.00000000000E+00  0.00000000000E+00  0.32989840549E+04  0.32989840549E+04  0.00000000000E+00 0. -1.
         -1   -1    0    0    0  501 -0.00000000000E+00 -0.00000000000E+00 -0.15111611918E+03  0.15111611918E+03  0.00000000000E+00 0.  1.
         24    2    1    2    0    0 -0.41063275467E+03 -0.60867785162E+02  0.80768739161E+03  0.91170950140E+03  0.80815505288E+02 0.  0.
        254    2    1    2    0    0  0.41063275467E+03  0.60867785162E+02  0.23401805441E+04  0.25383906727E+04  0.89143596608E+03 0.  0.
         23    2    4    4    0    0 -0.15276439796E+03  0.27732473925E+03  0.12048261696E+04  0.12493980144E+04  0.95620747149E+02 0.  0.
         23    2    4    4    0    0  0.56339715263E+03 -0.21645695409E+03  0.11353543746E+04  0.12889926583E+04  0.90567945037E+02 0.  0.
          2    1    3    3  502    0 -0.33032600258E+03 -0.77053879667E+02  0.68179083301E+03  0.76150594766E+03  0.00000000000E+00 0. -1.
         -1    1    3    3    0  502 -0.80306752096E+02  0.16186094504E+02  0.12589655860E+03  0.15020355373E+03  0.00000000000E+00 0.  1.
         13    1    5    5    0    0 -0.48261498112E+02  0.76400918227E+02  0.20161383993E+03  0.22093984014E+03  0.00000000000E+00 0. -1.
        -13    1    5    5    0    0 -0.10450289985E+03  0.20092382103E+03  0.10032123297E+04  0.10284581743E+04  0.00000000000E+00 0.  1.
          2    1    6    6  503    0  0.48746792935E+02 -0.22371503283E+02  0.16612995468E+03  0.17457346827E+03  0.00000000000E+00 0. -1.
         -2    1    6    6    0  503  0.51465035970E+03 -0.19408545081E+03  0.96922441988E+03  0.11144191900E+04  0.00000000000E+00 0.  1.
<mgrwt>
<rscale>  0 0.14121327E+04</rscale>
<asrwt>0</asrwt>
<pdfrwt beam="1">  1        2 0.50753595E+00 0.14121327E+04</pdfrwt>
<pdfrwt beam="2">  1       -1 0.23248636E-01 0.14121327E+04</pdfrwt>
<totfact> 0.19857806E+01</totfact>
</mgrwt>
</event>
<event>
12    7  0.1546317E-007  0.1253256E+04  0.7818608E-02  0.9067478E-01
          2   -1    0    0  501    0  0.00000000000E+00  0.00000000000E+00  0.59473439333E+03  0.59473439333E+03  0.00000000000E+00 0. -1.
         -1   -1    0    0    0  501 -0.00000000000E+00 -0.00000000000E+00 -0.66023210581E+03  0.66023210581E+03  0.00000000000E+00 0.  1.
         24    2    1    2    0    0 -0.33842561954E+02  0.93990440425E+01  0.27489123013E+03  0.28807626723E+03  0.78670746195E+02 0.  0.
        254    2    1    2    0    0  0.33842561954E+02 -0.93990440425E+01 -0.34038894261E+03  0.96689023192E+03  0.90431102354E+03 0.  0.
         23    2    4    4    0    0  0.23184493838E+03 -0.26113101252E+03 -0.48482665558E+03  0.60428153011E+03  0.90320543218E+02 0.  0.
         23    2    4    4    0    0 -0.19800237642E+03  0.25173196848E+03  0.14443771297E+03  0.36260870180E+03  0.89715621135E+02 0.  0.
          4    1    3    3  502    0  0.13852832039E+02  0.26140255775E+02  0.55019436722E+02  0.62468810976E+02  0.00000000000E+00 0. -1.
         -3    1    3    3    0  502 -0.47695393993E+02 -0.16741211733E+02  0.21987179341E+03  0.22560745625E+03  0.00000000000E+00 0.  1.
         13    1    5    5    0    0  0.84250240867E+02 -0.59376919390E+02 -0.89266174014E+02  0.13635311315E+03  0.00000000000E+00 0.  1.
        -13    1    5    5    0    0  0.14759469751E+03 -0.20175409313E+03 -0.39556048157E+03  0.46792841696E+03  0.00000000000E+00 0. -1.
          3    1    6    6  503    0 -0.12049480129E+03  0.20013159716E+03  0.71417485893E+02  0.24427875596E+03  0.00000000000E+00 0. -1.
         -3    1    6    6    0  503 -0.77507575130E+02  0.51600371314E+02  0.73020227072E+02  0.11832994585E+03  0.00000000000E+00 0.  1.
<mgrwt>
<rscale>  0 0.12532561E+04</rscale>
<asrwt>0</asrwt>
<pdfrwt beam="1">  1        2 0.91497599E-01 0.12532561E+04</pdfrwt>
<pdfrwt beam="2">  1       -1 0.10157417E+00 0.12532561E+04</pdfrwt>
<totfact> 0.51823997E+01</totfact>
</mgrwt>
</event>
<event>
12    7  0.1546317E-007  0.2633467E+04  0.7818608E-02  0.8356921E-01
          2   -1    0    0  501    0  0.00000000000E+00  0.00000000000E+00  0.33670203810E+04  0.33670203810E+04  0.00000000000E+00 0. -1.
         -1   -1    0    0    0  501 -0.00000000000E+00 -0.00000000000E+00 -0.51493219221E+03  0.51493219221E+03  0.00000000000E+00 0.  1.
         24    2    1    2    0    0 -0.15544822250E+03 -0.31400317022E+03 -0.37039649030E+03  0.51689991867E+03  0.85028378251E+02 0.  0.
        254    2    1    2    0    0  0.15544822250E+03  0.31400317022E+03  0.32224846791E+04  0.33650526546E+04  0.90355393866E+03 0.  0.
         23    2    4    4    0    0 -0.27594100746E+03  0.33656970861E+03  0.22983528825E+04  0.23409624349E+04  0.90865509154E+02 0.  0.
         23    2    4    4    0    0  0.43138922996E+03 -0.22566538396E+02  0.92413179667E+03  0.10240902197E+04  0.90195809927E+02 0.  0.
          4    1    3    3  502    0 -0.52322206052E+02 -0.65854319114E+02 -0.46731658419E+02  0.96219813400E+02  0.00000000000E+00 0. -1.
         -3    1    3    3    0  502 -0.10312601645E+03 -0.24814885110E+03 -0.32366483188E+03  0.42068010527E+03  0.00000000000E+00 0.  1.
         13    1    5    5    0    0 -0.24050562045E+03  0.31570677049E+03  0.19344184304E+04  0.19747122277E+04  0.00000000000E+00 0. -1.
        -13    1    5    5    0    0 -0.35435387008E+02  0.20862938126E+02  0.36393445205E+03  0.36625020714E+03  0.00000000000E+00 0.  1.
          1    1    6    6  503    0  0.80873767451E+02 -0.10546317447E+02  0.10439299982E+03  0.13247524102E+03  0.00000000000E+00 0.  1.
         -1    1    6    6    0  503  0.35051546251E+03 -0.12020220948E+02  0.81973879685E+03  0.89161497870E+03  0.00000000000E+00 0. -1.
<mgrwt>
<rscale>  0 0.26334671E+04</rscale>
<asrwt>0</asrwt>
<pdfrwt beam="1">  1        2 0.51800312E+00 0.26334671E+04</pdfrwt>
<pdfrwt beam="2">  1       -1 0.79220339E-01 0.26334671E+04</pdfrwt>
<totfact> 0.16041979E+00</totfact>
</mgrwt>
</event>
<event>
12    7  0.1546317E-007  0.1223453E+04  0.7818608E-02  0.9092572E-01
          2   -1    0    0  501    0  0.00000000000E+00  0.00000000000E+00  0.35624969840E+04  0.35624969840E+04  0.00000000000E+00 0. -1.
         -1   -1    0    0    0  501 -0.00000000000E+00 -0.00000000000E+00 -0.10504131795E+03  0.10504131795E+03  0.00000000000E+00 0.  1.
         24    2    1    2    0    0  0.20361300375E+03 -0.74225527676E+02  0.11688647045E+04  0.11913844952E+04  0.78642441952E+02 0.  0.
        254    2    1    2    0    0 -0.20361300375E+03  0.74225527676E+02  0.22885909615E+04  0.24761538067E+04  0.92017465798E+03 0.  0.
         23    2    4    4    0    0 -0.50905232165E+03 -0.15980567985E+03  0.14825813848E+04  0.15783218055E+04  0.91542545486E+02 0.  0.
         23    2    4    4    0    0  0.30543931790E+03  0.23403120752E+03  0.80600957670E+03  0.89783200123E+03  0.91581011595E+02 0.  0.
          2    1    3    3  502    0  0.11686182027E+03 -0.66025230739E+01  0.70548418807E+03  0.71512811297E+03  0.00000000000E+00 0. -1.
         -1    1    3    3    0  502  0.86751183479E+02 -0.67623004602E+02  0.46338051644E+03  0.47625638222E+03  0.00000000000E+00 0.  1.
         13    1    5    5    0    0 -0.38431787562E+03 -0.82025784885E+02  0.11272683010E+04  0.11938016088E+04  0.00000000000E+00 0.  1.
        -13    1    5    5    0    0 -0.12473444603E+03 -0.77779894960E+02  0.35531308387E+03  0.38452019668E+03  0.00000000000E+00 0. -1.
          2    1    6    6  503    0  0.30517309399E+03  0.23594665203E+03  0.80781222436E+03  0.89518826497E+03  0.00000000000E+00 0.  1.
         -2    1    6    6    0  503  0.26622390870E+00 -0.19154445115E+01 -0.18026476612E+01  0.26437362646E+01  0.00000000000E+00 0. -1.
<mgrwt>
<rscale>  0 0.12234531E+04</rscale>
<asrwt>0</asrwt>
<pdfrwt beam="1">  1        2 0.54807637E+00 0.12234531E+04</pdfrwt>
<pdfrwt beam="2">  1       -1 0.16160206E-01 0.12234531E+04</pdfrwt>
<totfact> 0.24638322E+01</totfact>
</mgrwt>
</event>
<event>
12    7  0.1546317E-007  0.2425829E+04  0.7818608E-02  0.8429896E-01
         -1   -1    0    0    0  501 -0.00000000000E+00  0.00000000000E+00  0.20390930205E+04  0.20390930205E+04  0.00000000000E+00 0.  1.
          2   -1    0    0  501    0  0.00000000000E+00 -0.00000000000E+00 -0.72147841513E+03  0.72147841513E+03  0.00000000000E+00 0. -1.
         24    2    1    2    0    0 -0.50349575341E+03  0.89041734687E+03  0.80731310020E+03  0.13048629106E+04  0.67540717410E+02 0.  0.
        254    2    1    2    0    0  0.50349575341E+03 -0.89041734687E+03  0.51030150522E+03  0.14557085250E+04  0.90129277061E+03 0.  0.
         23    2    4    4    0    0  0.67632618270E+03 -0.37035711256E+03  0.44742300706E+03  0.89614677257E+03  0.91160268310E+02 0.  0.
         23    2    4    4    0    0 -0.17283042929E+03 -0.52006023431E+03  0.62878498160E+02  0.55956175248E+03  0.93928934329E+02 0.  0.
          2    1    3    3  502    0 -0.94086767451E+02  0.14172082332E+03  0.10702462673E+03  0.20097607395E+03  0.00000000000E+00 0. -1.
         -1    1    3    3    0  502 -0.40940898596E+03  0.74869652355E+03  0.70028847346E+03  0.11038868367E+04  0.00000000000E+00 0.  1.
         13    1    5    5    0    0  0.64799745559E+02 -0.22837774774E+02  0.69267576403E+02  0.97563149405E+02  0.00000000000E+00 0. -1.
        -13    1    5    5    0    0  0.61152643714E+03 -0.34751933778E+03  0.37815543065E+03  0.79858362316E+03  0.00000000000E+00 0.  1.
          3    1    6    6  503    0 -0.53925954734E+02 -0.16599093277E+03  0.64468387854E+02  0.18605690363E+03  0.00000000000E+00 0. -1.
         -3    1    6    6    0  503 -0.11890447456E+03 -0.35406930154E+03 -0.15898896948E+01  0.37350484884E+03  0.00000000000E+00 0.  1.
<mgrwt>
<rscale>  0 0.24258290E+04</rscale>
<asrwt>0</asrwt>
<pdfrwt beam="1">  1        2 0.11099668E+00 0.24258290E+04</pdfrwt>
<pdfrwt beam="2">  1       -1 0.31370662E+00 0.24258290E+04</pdfrwt>
<totfact> 0.10859174E+00</totfact>
</mgrwt>
</event>
<event>
12    7  0.1546317E-007  0.2116969E+04  0.7818608E-02  0.8553805E-01
          2   -1    0    0  501    0  0.00000000000E+00  0.00000000000E+00  0.26337916703E+04  0.26337916703E+04  0.00000000000E+00 0. -1.
         -1   -1    0    0    0  501 -0.00000000000E+00 -0.00000000000E+00 -0.42539021165E+03  0.42539021165E+03  0.00000000000E+00 0.  1.
         24    2    1    2    0    0 -0.11026955196E+03 -0.14812556349E+03  0.21422061802E+04  0.21515744663E+04  0.78261159318E+02 0.  0.
        254    2    1    2    0    0  0.11026955196E+03  0.14812556349E+03  0.66195278422E+02  0.90760741559E+03  0.88615396479E+03 0.  0.
         23    2    4    4    0    0 -0.13798782015E+03  0.12885872504E+03  0.41734937370E+03  0.46742088366E+03  0.93040707314E+02 0.  0.
         23    2    4    4    0    0  0.24825737210E+03  0.19266838448E+02 -0.35115409528E+03  0.44018653194E+03  0.91935033572E+02 0.  0.
          4    1    3    3  502    0 -0.10874428341E+03 -0.12662022390E+03  0.20540587884E+04  0.20608288397E+04  0.00000000000E+00 0. -1.
         -3    1    3    3    0  502 -0.15252685432E+01 -0.21505339592E+02  0.88147391762E+02  0.90745626614E+02  0.00000000000E+00 0.  1.
         13    1    5    5    0    0 -0.10370787156E+02  0.22912469062E+02  0.90687641522E+01  0.26735312753E+02  0.00000000000E+00 0.  1.
        -13    1    5    5    0    0 -0.12761703299E+03  0.10594625598E+03  0.40828060955E+03  0.44068557090E+03  0.00000000000E+00 0. -1.
          1    1    6    6  503    0  0.25130501940E+03  0.91803423690E+01 -0.34767959833E+03  0.42909159227E+03  0.00000000000E+00 0. -1.
         -1    1    6    6    0  503 -0.30476472956E+01  0.10086496079E+02 -0.34744969551E+01  0.11094939670E+02  0.00000000000E+00 0.  1.
<mgrwt>
<rscale>  0 0.21169688E+04</rscale>
<asrwt>0</asrwt>
<pdfrwt beam="1">  1        2 0.40519871E+00 0.21169688E+04</pdfrwt>
<pdfrwt beam="2">  1       -1 0.65444650E-01 0.21169688E+04</pdfrwt>
<totfact> 0.72098422E+00</totfact>
</mgrwt>
</event>
<event>
12    7  0.1546317E-007  0.1835185E+04  0.7818608E-02  0.8687809E-01
         -1   -1    0    0    0  501 -0.00000000000E+00  0.00000000000E+00  0.28333693427E+03  0.28333693427E+03  0.00000000000E+00 0.  1.
          2   -1    0    0  501    0  0.00000000000E+00 -0.00000000000E+00 -0.29716411289E+04  0.29716411289E+04  0.00000000000E+00 0. -1.
         24    2    1    2    0    0  0.21195515987E+02 -0.49178700864E+03 -0.18789332246E+04  0.19439918831E+04  0.80066643814E+02 0.  0.
        254    2    1    2    0    0 -0.21195515987E+02  0.49178700864E+03 -0.80937097003E+03  0.13109861800E+04  0.90625586086E+03 0.  0.
         23    2    4    4    0    0  0.29565447253E+03  0.14400317467E+03  0.33055289910E+02  0.34183487050E+03  0.87234999003E+02 0.  0.
         23    2    4    4    0    0 -0.31684998852E+03  0.34778383396E+03 -0.84242625994E+03  0.96915130953E+03  0.90690390595E+02 0.  0.
          4    1    3    3  502    0  0.44265532144E+02 -0.28934448038E+03 -0.10155608244E+04  0.10569027645E+04  0.00000000000E+00 0. -1.
         -3    1    3    3    0  502 -0.23070016157E+02 -0.20244252826E+03 -0.86337240017E+03  0.88708911856E+03  0.00000000000E+00 0.  1.
         13    1    5    5    0    0  0.20186605523E+03  0.84302688587E+02  0.61178584918E+02  0.22715560044E+03  0.00000000000E+00 0.  1.
        -13    1    5    5    0    0  0.93788417301E+02  0.59700486088E+02 -0.28123295008E+02  0.11467927006E+03  0.00000000000E+00 0. -1.
          2    1    6    6  503    0 -0.14283796565E+03  0.10397807714E+03 -0.26217820708E+03  0.31615113035E+03  0.00000000000E+00 0. -1.
         -2    1    6    6    0  503 -0.17401202288E+03  0.24380575682E+03 -0.58024805286E+03  0.65300017918E+03  0.00000000000E+00 0.  1.
<mgrwt>
<rscale>  0 0.18351847E+04</rscale>
<asrwt>0</asrwt>
<pdfrwt beam="1">  1        2 0.45717556E+00 0.18351847E+04</pdfrwt>
<pdfrwt beam="2">  1       -1 0.43590297E-01 0.18351847E+04</pdfrwt>
<totfact> 0.10136406E+01</totfact>
</mgrwt>
</event>
<event>
12    7  0.1546317E-007  0.1666777E+04  0.7818608E-02  0.8780543E-01
         -1   -1    0    0    0  501 -0.00000000000E+00  0.00000000000E+00  0.47946642798E+03  0.47946642798E+03  0.00000000000E+00 0.  1.
          2   -1    0    0  501    0  0.00000000000E+00 -0.00000000000E+00 -0.14485610197E+04  0.14485610197E+04  0.00000000000E+00 0. -1.
         24    2    1    2    0    0 -0.29642868162E+03 -0.51047823194E+03 -0.37893393736E+03  0.70589857038E+03  0.79018189135E+02 0.  0.
        254    2    1    2    0    0  0.29642868162E+03  0.51047823194E+03 -0.59016065432E+03  0.12221288773E+04  0.89266533828E+03 0.  0.
         23    2    4    4    0    0  0.11558203011E+03  0.50302496745E+03 -0.78363520215E+03  0.94224225044E+03  0.85691335111E+02 0.  0.
         23    2    4    4    0    0  0.18084665151E+03  0.74532644866E+01  0.19347454783E+03  0.27988662682E+03  0.90238909035E+02 0.  0.
          2    1    3    3  502    0 -0.20991153547E+03 -0.39051554489E+03 -0.31956119894E+03  0.54652045103E+03  0.00000000000E+00 0. -1.
         -1    1    3    3    0  502 -0.86517146148E+02 -0.11996268705E+03 -0.59372738427E+02  0.15937811936E+03  0.00000000000E+00 0.  1.
         13    1    5    5    0    0 -0.13392640300E+02  0.68787063926E+02 -0.97904086665E+02  0.12040030383E+03  0.00000000000E+00 0.  1.
        -13    1    5    5    0    0  0.12897467041E+03  0.43423790352E+03 -0.68573111548E+03  0.82184194661E+03  0.00000000000E+00 0. -1.
          1    1    6    6  503    0  0.16356585733E+03  0.35421410548E+02  0.14570557017E+03  0.22189767729E+03  0.00000000000E+00 0. -1.
         -1    1    6    6    0  503  0.17280794183E+02 -0.27968146061E+02  0.47768977652E+02  0.57988949530E+02  0.00000000000E+00 0.  1.
<mgrwt>
<rscale>  0 0.16667770E+04</rscale>
<asrwt>0</asrwt>
<pdfrwt beam="1">  1        2 0.22285554E+00 0.16667770E+04</pdfrwt>
<pdfrwt beam="2">  1       -1 0.73764068E-01 0.16667770E+04</pdfrwt>
<totfact> 0.27321638E+01</totfact>
</mgrwt>
</event>
<event>
12    7  0.1546317E-007  0.1101037E+04  0.7818608E-02  0.9204182E-01
          2   -1    0    0  501    0  0.00000000000E+00  0.00000000000E+00  0.70063676737E+03  0.70063676737E+03  0.00000000000E+00 0. -1.
         -1   -1    0    0    0  501 -0.00000000000E+00 -0.00000000000E+00 -0.43256418341E+03  0.43256418341E+03  0.00000000000E+00 0.  1.
         24    2    1    2    0    0  0.16420073755E+02 -0.31684700696E+02 -0.12261901689E+03  0.15088138718E+03  0.80350672775E+02 0.  0.
        254    2    1    2    0    0 -0.16420073755E+02  0.31684700696E+02  0.39069160084E+03  0.98231956360E+03  0.90057662582E+03 0.  0.
         23    2    4    4    0    0  0.14905164018E+03 -0.35869838846E+03  0.37561519620E+03  0.54840202657E+03  0.93686081168E+02 0.  0.
         23    2    4    4    0    0 -0.16547171394E+03  0.39038308916E+03  0.15076404639E+02  0.43391753702E+03  0.90979594106E+02 0.  0.
          2    1    3    3  502    0  0.41507552630E+02 -0.18616908953E+02 -0.31139582305E+02  0.55128393868E+02  0.00000000000E+00 0. -1.
         -1    1    3    3    0  502 -0.25087478875E+02 -0.13067791743E+02 -0.91479434580E+02  0.95752993313E+02  0.00000000000E+00 0.  1.
         13    1    5    5    0    0  0.15571812500E+03 -0.31513345490E+03  0.35556426076E+03  0.49998317210E+03  0.00000000000E+00 0. -1.
        -13    1    5    5    0    0 -0.66664848226E+01 -0.43564933568E+02  0.20050935438E+02  0.48418854475E+02  0.00000000000E+00 0.  1.
          3    1    6    6  503    0 -0.15029133641E+03  0.24717917098E+03  0.16688028362E+01  0.28928846031E+03  0.00000000000E+00 0. -1.
         -3    1    6    6    0  503 -0.15180377523E+02  0.14320391818E+03  0.13407601802E+02  0.14462907671E+03  0.00000000000E+00 0.  1.
<mgrwt>
<rscale>  0 0.11010366E+04</rscale>
<asrwt>0</asrwt>
<pdfrwt beam="1">  1        2 0.10779027E+00 0.11010366E+04</pdfrwt>
<pdfrwt beam="2">  1       -1 0.66548336E-01 0.11010366E+04</pdfrwt>
<totfact> 0.10620307E+02</totfact>
</mgrwt>
</event>
<event>
12    7  0.1546317E-007  0.1771176E+04  0.7818608E-02  0.8721780E-01
         -1   -1    0    0    0  501 -0.00000000000E+00  0.00000000000E+00  0.38978006459E+03  0.38978006459E+03  0.00000000000E+00 0.  1.
          2   -1    0    0  501    0  0.00000000000E+00 -0.00000000000E+00 -0.20120734030E+04  0.20120734030E+04  0.00000000000E+00 0. -1.
         24    2    1    2    0    0 -0.61218326001E+02 -0.18785534037E+02  0.24372999742E+03  0.26462757874E+03  0.80764249881E+02 0.  0.
        254    2    1    2    0    0  0.61218326001E+02  0.18785534037E+02 -0.18660233358E+04  0.21372258888E+04  0.10399955915E+04 0.  0.
         23    2    4    4    0    0  0.33574576489E+03  0.71810850176E+02 -0.13137608422E+03  0.37731392849E+03  0.84994754463E+02 0.  0.
         23    2    4    4    0    0 -0.27452743889E+03 -0.53025316140E+02 -0.17346472516E+04  0.17599119603E+04  0.10055854931E+03 0.  0.
          2    1    3    3  502    0  0.19346823851E+02  0.29889657061E+01  0.49181705084E+02  0.52934616501E+02  0.00000000000E+00 0. -1.
         -1    1    3    3    0  502 -0.80565149852E+02 -0.21774499743E+02  0.19454829233E+03  0.21169296224E+03  0.00000000000E+00 0.  1.
         13    1    5    5    0    0  0.28453904436E+03  0.60828058458E+02 -0.14216697015E+03  0.32384250472E+03  0.00000000000E+00 0. -1.
        -13    1    5    5    0    0  0.51206720530E+02  0.10982791718E+02  0.10790885931E+02  0.53471423775E+02  0.00000000000E+00 0.  1.
          3    1    6    6  503    0 -0.20607447609E+03 -0.34983565547E+02 -0.98523355821E+03  0.10071622033E+04  0.00000000000E+00 0. -1.
         -3    1    6    6    0  503 -0.68452962796E+02 -0.18041750592E+02 -0.74941369335E+03  0.75274975700E+03  0.00000000000E+00 0.  1.
<mgrwt>
<rscale>  0 0.17711760E+04</rscale>
<asrwt>0</asrwt>
<pdfrwt beam="1">  1        2 0.30954975E+00 0.17711760E+04</pdfrwt>
<pdfrwt beam="2">  1       -1 0.59966165E-01 0.17711760E+04</pdfrwt>
<totfact> 0.19990677E+01</totfact>
</mgrwt>
</event>
<event>
12    7  0.1546317E-007  0.1324892E+04  0.7818608E-02  0.9010055E-01
          2   -1    0    0  501    0  0.00000000000E+00  0.00000000000E+00  0.51354792496E+03  0.51354792496E+03  0.00000000000E+00 0. -1.
         -1   -1    0    0    0  501 -0.00000000000E+00 -0.00000000000E+00 -0.85451581705E+03  0.85451581705E+03  0.00000000000E+00 0.  1.
         24    2    1    2    0    0 -0.92224256558E+02  0.26569156988E+03 -0.28976112761E+03  0.41142795171E+03  0.78829718834E+02 0.  0.
        254    2    1    2    0    0  0.92224256558E+02 -0.26569156988E+03 -0.51206764477E+02  0.95663579030E+03  0.91292528651E+03 0.  0.
         23    2    4    4    0    0  0.40123824402E+02 -0.56333030830E+03 -0.20066002455E+03  0.60623577408E+03  0.91139512794E+02 0.  0.
         23    2    4    4    0    0  0.52100432156E+02  0.29763873843E+03  0.14945326007E+03  0.35040001621E+03  0.95606593776E+02 0.  0.
          4    1    3    3  502    0 -0.18757597728E+02  0.26875466102E+01 -0.16801911131E+02  0.25325374567E+02  0.00000000000E+00 0. -1.
         -3    1    3    3    0  502 -0.73466658830E+02  0.26300402327E+03 -0.27295921648E+03  0.38610257714E+03  0.00000000000E+00 0.  1.
         13    1    5    5    0    0  0.67743406424E+02 -0.42616691919E+03 -0.13917966705E+03  0.45340753395E+03  0.00000000000E+00 0.  1.
        -13    1    5    5    0    0 -0.27619582021E+02 -0.13716338911E+03 -0.61480357491E+02  0.15282824013E+03  0.00000000000E+00 0. -1.
          3    1    6    6  503    0 -0.22621234304E+02  0.49636995893E+02  0.46488056385E+02  0.71670712213E+02  0.00000000000E+00 0. -1.
         -3    1    6    6    0  503  0.74721666459E+02  0.24800174253E+03  0.10296520368E+03  0.27872930400E+03  0.00000000000E+00 0.  1.
<mgrwt>
<rscale>  0 0.13248922E+04</rscale>
<asrwt>0</asrwt>
<pdfrwt beam="1">  1        2 0.79007373E-01 0.13248922E+04</pdfrwt>
<pdfrwt beam="2">  1       -1 0.13146397E+00 0.13248922E+04</pdfrwt>
<totfact> 0.32927270E+01</totfact>
</mgrwt>
</event>
<event>
12    7  0.1546317E-007  0.2654168E+04  0.7818608E-02  0.8350031E-01
          2   -1    0    0  501    0  0.00000000000E+00  0.00000000000E+00  0.10726198302E+04  0.10726198302E+04  0.00000000000E+00 0. -1.
         -1   -1    0    0    0  501 -0.00000000000E+00 -0.00000000000E+00 -0.16419159213E+04  0.16419159213E+04  0.00000000000E+00 0.  1.
         24    2    1    2    0    0  0.84514900242E+02  0.75672060127E+03  0.65858583061E+03  0.10099785542E+04  0.80947803755E+02 0.  0.
        254    2    1    2    0    0 -0.84514900242E+02 -0.75672060127E+03 -0.12278819217E+04  0.17045571973E+04  0.90446248584E+03 0.  0.
         23    2    4    4    0    0  0.48296274856E+02  0.11632809364E+03 -0.59459884417E+03  0.61476286313E+03  0.92308379165E+02 0.  0.
         23    2    4    4    0    0 -0.13281117510E+03 -0.87304869491E+03 -0.63328307756E+03  0.10897943341E+04  0.82166918307E+02 0.  0.
          2    1    3    3  502    0  0.98253621375E+02  0.70292292449E+03  0.61933034555E+03  0.94197902779E+03  0.00000000000E+00 0. -1.
         -1    1    3    3    0  502 -0.13738721133E+02  0.53797676784E+02  0.39255485068E+02  0.67999526422E+02  0.00000000000E+00 0.  1.
         13    1    5    5    0    0  0.24495943107E+02  0.86115173081E+02 -0.21057844387E+03  0.22882122997E+03  0.00000000000E+00 0.  1.
        -13    1    5    5    0    0  0.23800331749E+02  0.30212920561E+02 -0.38402040029E+03  0.38594163316E+03  0.00000000000E+00 0. -1.
          3    1    6    6  503    0 -0.76561934104E+01 -0.30474198661E+03 -0.20839487170E+03  0.36926239756E+03  0.00000000000E+00 0. -1.
         -3    1    6    6    0  503 -0.12515498169E+03 -0.56830670831E+03 -0.42488820586E+03  0.72053193657E+03  0.00000000000E+00 0.  1.
<mgrwt>
<rscale>  0 0.26541677E+04</rscale>
<asrwt>0</asrwt>
<pdfrwt beam="1">  1        2 0.16501844E+00 0.26541677E+04</pdfrwt>
<pdfrwt beam="2">  1       -1 0.25260245E+00 0.26541677E+04</pdfrwt>
<totfact> 0.15245064E+00</totfact>
</mgrwt>
</event>
<event>
12    7  0.1546317E-007  0.1188903E+04  0.7818608E-02  0.9122625E-01
          2   -1    0    0  501    0  0.00000000000E+00  0.00000000000E+00  0.79846349837E+03  0.79846349837E+03  0.00000000000E+00 0. -1.
         -1   -1    0    0    0  501 -0.00000000000E+00 -0.00000000000E+00 -0.44256593111E+03  0.44256593111E+03  0.00000000000E+00 0.  1.
         24    2    1    2    0    0  0.25118869015E+03 -0.31079494805E+02  0.11149696138E+02  0.26575162925E+03  0.80236647907E+02 0.  0.
        254    2    1    2    0    0 -0.25118869015E+03  0.31079494805E+02  0.34474787113E+03  0.97527780023E+03  0.87650099824E+03 0.  0.
         23    2    4    4    0    0 -0.10105063634E+03 -0.39340724339E+03  0.30217288913E+03  0.51422738316E+03  0.90226694572E+02 0.  0.
         23    2    4    4    0    0 -0.15013805381E+03  0.42448673820E+03  0.42574982004E+02  0.46105041707E+03  0.89579193351E+02 0.  0.
          2    1    3    3  502    0  0.30532572029E+02  0.41361199243E+01 -0.24643594247E+02  0.39454431692E+02  0.00000000000E+00 0. -1.
         -1    1    3    3    0  502  0.22065611812E+03 -0.35215614729E+02  0.35793290385E+02  0.22629719756E+03  0.00000000000E+00 0.  1.
         13    1    5    5    0    0 -0.98427578845E+02 -0.26518858671E+03  0.24333629450E+03  0.37312937036E+03  0.00000000000E+00 0. -1.
        -13    1    5    5    0    0 -0.26230574996E+01 -0.12821865668E+03  0.58836594622E+02  0.14109801281E+03  0.00000000000E+00 0.  1.
          1    1    6    6  503    0 -0.46177753938E+02  0.25282346260E+03  0.41652625767E+02  0.26035942355E+03  0.00000000000E+00 0. -1.
         -1    1    6    6    0  503 -0.10396029987E+03  0.17166327560E+03  0.92235623683E+00  0.20069099352E+03  0.00000000000E+00 0.  1.
<mgrwt>
<rscale>  0 0.11889033E+04</rscale>
<asrwt>0</asrwt>
<pdfrwt beam="1">  1        2 0.12284054E+00 0.11889033E+04</pdfrwt>
<pdfrwt beam="2">  1       -1 0.68087066E-01 0.11889033E+04</pdfrwt>
<totfact> 0.85041208E+01</totfact>
</mgrwt>
</event>
<event>
12    7  0.1546317E-007  0.1746346E+04  0.7818608E-02  0.8735364E-01
          2   -1    0    0  501    0  0.00000000000E+00  0.00000000000E+00  0.16597298623E+04  0.16597298623E+04  0.00000000000E+00 0. -1.
         -1   -1    0    0    0  501 -0.00000000000E+00 -0.00000000000E+00 -0.45937041043E+03  0.45937041043E+03  0.00000000000E+00 0.  1.
         24    2    1    2    0    0 -0.53925797261E+03 -0.36420513562E+02  0.26327126918E+02  0.54653366420E+03  0.76683203266E+02 0.  0.
        254    2    1    2    0    0  0.53925797261E+03  0.36420513562E+02  0.11740323250E+04  0.15725666086E+04  0.89581707028E+03 0.  0.
         23    2    4    4    0    0  0.75232335857E+03  0.15644128014E+03  0.76906121939E+03  0.10909907699E+04  0.91331215372E+02 0.  0.
         23    2    4    4    0    0 -0.21306538596E+03 -0.12002076658E+03  0.40497110559E+03  0.48157583863E+03  0.90065803078E+02 0.  0.
          2    1    3    3  502    0 -0.25140316594E+03 -0.37527229892E+02 -0.19993506720E+02  0.25497369500E+03  0.00000000000E+00 0. -1.
         -1    1    3    3    0  502 -0.28785480667E+03  0.11067163297E+01  0.46320633638E+02  0.29155996921E+03  0.00000000000E+00 0.  1.
         13    1    5    5    0    0  0.67544541202E+03  0.12406526378E+03  0.71611568254E+03  0.99218968200E+03  0.00000000000E+00 0.  1.
        -13    1    5    5    0    0  0.76877946559E+02  0.32376016358E+02  0.52945536848E+02  0.98801087921E+02  0.00000000000E+00 0. -1.
          2    1    6    6  503    0 -0.20110031134E+02  0.90080656365E+01  0.11795924375E+02  0.24994047903E+02  0.00000000000E+00 0. -1.
         -2    1    6    6    0  503 -0.19295535483E+03 -0.12902883222E+03  0.39317518122E+03  0.45658179073E+03  0.00000000000E+00 0.  1.
<mgrwt>
<rscale>  0 0.17463457E+04</rscale>
<asrwt>0</asrwt>
<pdfrwt beam="1">  1        2 0.25534305E+00 0.17463457E+04</pdfrwt>
<pdfrwt beam="2">  1       -1 0.70672372E-01 0.17463457E+04</pdfrwt>
<totfact> 0.22563158E+01</totfact>
</mgrwt>
</event>
<event>
12    7  0.1546317E-007  0.1660083E+04  0.7818608E-02  0.8784464E-01
          2   -1    0    0  501    0  0.00000000000E+00  0.00000000000E+00  0.21496390510E+04  0.21496390510E+04  0.00000000000E+00 0. -1.
         -1   -1    0    0    0  501 -0.00000000000E+00 -0.00000000000E+00 -0.32050426541E+03  0.32050426541E+03  0.00000000000E+00 0.  1.
         24    2    1    2    0    0 -0.50577979863E+03  0.67011517481E+02  0.22953342209E+03  0.56765324537E+03  0.96129428119E+02 0.  0.
        254    2    1    2    0    0  0.50577979863E+03 -0.67011517481E+02  0.15996013635E+04  0.19024900711E+04  0.89467323653E+03 0.  0.
         23    2    4    4    0    0  0.35356603922E+03 -0.10428673236E+02  0.16649216177E+04  0.17046612702E+04  0.93746208637E+02 0.  0.
         23    2    4    4    0    0  0.15221375941E+03 -0.56582844245E+02 -0.65320254172E+02  0.19782880090E+03  0.92189218697E+02 0.  0.
          2    1    3    3  502    0 -0.30541966261E+03  0.29343497458E+01  0.10383095038E+03  0.32259982482E+03  0.00000000000E+00 0. -1.
         -1    1    3    3    0  502 -0.20036013602E+03  0.64077167735E+02  0.12570247172E+03  0.24505342056E+03  0.00000000000E+00 0.  1.
         13    1    5    5    0    0  0.74540067649E+02  0.16556490972E+02  0.22209237737E+03  0.23485178978E+03  0.00000000000E+00 0. -1.
        -13    1    5    5    0    0  0.27902597157E+03 -0.26985164208E+02  0.14428292403E+04  0.14698094804E+04  0.00000000000E+00 0.  1.
          1    1    6    6  503    0  0.58128370694E+02 -0.58741302105E+02  0.10874488812E+01  0.82647629110E+02  0.00000000000E+00 0. -1.
         -1    1    6    6    0  503  0.94085388713E+02  0.21584578592E+01 -0.66407703054E+02  0.11518117179E+03  0.00000000000E+00 0.  1.
<mgrwt>
<rscale>  0 0.16600825E+04</rscale>
<asrwt>0</asrwt>
<pdfrwt beam="1">  1        2 0.33071369E+00 0.16600825E+04</pdfrwt>
<pdfrwt beam="2">  1       -1 0.49308350E-01 0.16600825E+04</pdfrwt>
<totfact> 0.24707369E+01</totfact>
</mgrwt>
</event>
<event>
12    7  0.1546317E-007  0.1607044E+04  0.7818608E-02  0.8816232E-01
          2   -1    0    0  501    0  0.00000000000E+00  0.00000000000E+00  0.13284300547E+04  0.13284300547E+04  0.00000000000E+00 0. -1.
         -1   -1    0    0    0  501 -0.00000000000E+00 -0.00000000000E+00 -0.48602316134E+03  0.48602316134E+03  0.00000000000E+00 0.  1.
         24    2    1    2    0    0 -0.10907376407E+03  0.93926698699E+02 -0.30672135544E+03  0.34946559153E+03  0.85608989263E+02 0.  0.
        254    2    1    2    0    0  0.10907376407E+03 -0.93926698699E+02  0.11491282488E+04  0.14649876245E+04  0.89720326406E+03 0.  0.
         23    2    4    4    0    0  0.24162088692E+03 -0.35436546812E+03  0.10609769835E+04  0.11482110170E+04  0.93599369719E+02 0.  0.
         23    2    4    4    0    0 -0.13254712285E+03  0.26043876942E+03  0.88151265281E+02  0.31677660751E+03  0.84732998899E+02 0.  0.
          2    1    3    3  502    0 -0.45339642892E+02 -0.34135656846E+01 -0.13145118925E+03  0.13909259794E+03  0.00000000000E+00 0. -1.
         -1    1    3    3    0  502 -0.63734121182E+02  0.97340264383E+02 -0.17527016619E+03  0.21037299358E+03  0.00000000000E+00 0.  1.
         13    1    5    5    0    0  0.24826065530E+03 -0.32638677288E+03  0.98334019726E+03  0.10654199275E+04  0.00000000000E+00 0.  1.
        -13    1    5    5    0    0 -0.66397683730E+01 -0.27978695246E+02  0.77636786251E+02  0.82791089442E+02  0.00000000000E+00 0. -1.
          2    1    6    6  503    0  0.16716208612E+01  0.46773426211E+02  0.36176900884E+02  0.59155015623E+02  0.00000000000E+00 0. -1.
         -2    1    6    6    0  503 -0.13421874371E+03  0.21366534321E+03  0.51974364396E+02  0.25762159189E+03  0.00000000000E+00 0.  1.
<mgrwt>
<rscale>  0 0.16070442E+04</rscale>
<asrwt>0</asrwt>
<pdfrwt beam="1">  1        2 0.20437385E+00 0.16070442E+04</pdfrwt>
<pdfrwt beam="2">  1       -1 0.74772795E-01 0.16070442E+04</pdfrwt>
<totfact> 0.31282825E+01</totfact>
</mgrwt>
</event>
<event>
12    7  0.1546317E-007  0.1341229E+04  0.7818608E-02  0.8997494E-01
         -1   -1    0    0    0  501 -0.00000000000E+00  0.00000000000E+00  0.27804779467E+03  0.27804779467E+03  0.00000000000E+00 0.  1.
          2   -1    0    0  501    0  0.00000000000E+00 -0.00000000000E+00 -0.16174346366E+04  0.16174346366E+04  0.00000000000E+00 0. -1.
         24    2    1    2    0    0  0.20731590099E+02 -0.79257573331E+02 -0.86202440750E+03  0.86952873616E+03  0.79262741129E+02 0.  0.
        254    2    1    2    0    0 -0.20731590099E+02  0.79257573331E+02 -0.47736243444E+03  0.10259536951E+04  0.90443049978E+03 0.  0.
         23    2    4    4    0    0 -0.15957460119E+03 -0.29152453997E+03 -0.51313847750E+03  0.61817764585E+03  0.91552684243E+02 0.  0.
         23    2    4    4    0    0  0.13884301109E+03  0.37078211330E+03  0.35776043063E+02  0.40777604925E+03  0.90799910872E+02 0.  0.
          4    1    3    3  502    0  0.88465062974E+01 -0.77233561780E+02 -0.84553953101E+03  0.84910563668E+03  0.00000000000E+00 0. -1.
         -3    1    3    3    0  502  0.11885083802E+02 -0.20240115513E+01 -0.16484876493E+02  0.20423099489E+02  0.00000000000E+00 0.  1.
         13    1    5    5    0    0 -0.16512244296E+03 -0.29419422545E+03 -0.50936363758E+03  0.61095579116E+03  0.00000000000E+00 0. -1.
        -13    1    5    5    0    0  0.55478417713E+01  0.26696854761E+01 -0.37748399152E+01  0.72218546957E+01  0.00000000000E+00 0.  1.
          1    1    6    6  503    0  0.13455552493E+03  0.35848173673E+03  0.52600151715E+02  0.38649853921E+03  0.00000000000E+00 0. -1.
         -1    1    6    6    0  503  0.42874861615E+01  0.12300376577E+02 -0.16824108653E+02  0.21277510039E+02  0.00000000000E+00 0.  1.
<mgrwt>
<rscale>  0 0.13412295E+04</rscale>
<asrwt>0</asrwt>
<pdfrwt beam="1">  1        2 0.24883609E+00 0.13412295E+04</pdfrwt>
<pdfrwt beam="2">  1       -1 0.42776584E-01 0.13412295E+04</pdfrwt>
<totfact> 0.65340788E+01</totfact>
</mgrwt>
</event>
<event>
12    7  0.1546317E-007  0.2593611E+04  0.7818608E-02  0.8370374E-01
         -1   -1    0    0    0  501 -0.00000000000E+00  0.00000000000E+00  0.15682833253E+04  0.15682833253E+04  0.00000000000E+00 0.  1.
          2   -1    0    0  501    0  0.00000000000E+00 -0.00000000000E+00 -0.10723221865E+04  0.10723221865E+04  0.00000000000E+00 0. -1.
         24    2    1    2    0    0 -0.95469848276E+03  0.28952974155E+03  0.77359680030E+03  0.12633964878E+04  0.49416714562E+02 0.  0.
        254    2    1    2    0    0  0.95469848276E+03 -0.28952974155E+03 -0.27763566153E+03  0.13772090241E+04  0.90793527918E+03 0.  0.
         23    2    4    4    0    0  0.63168055825E+03 -0.59674361348E+03 -0.66355681726E+02  0.87563245350E+03  0.84887273626E+02 0.  0.
         23    2    4    4    0    0  0.32301792451E+03  0.30721387193E+03 -0.21127997980E+03  0.50157657056E+03  0.90658058746E+02 0.  0.
          2    1    3    3  502    0 -0.50926375897E+03  0.14551022214E+03  0.38133143523E+03  0.65263808075E+03  0.00000000000E+00 0. -1.
         -1    1    3    3    0  502 -0.44543472379E+03  0.14401951942E+03  0.39226536507E+03  0.61075840703E+03  0.00000000000E+00 0.  1.
         13    1    5    5    0    0  0.42902573180E+03 -0.45774574837E+03 -0.48328795625E+02  0.62922962516E+03  0.00000000000E+00 0.  1.
        -13    1    5    5    0    0  0.20265482646E+03 -0.13899786511E+03 -0.18026886102E+02  0.24640282834E+03  0.00000000000E+00 0. -1.
          3    1    6    6  503    0  0.75862581030E+02  0.90896981748E+02 -0.99420215117E+02  0.15460197821E+03  0.00000000000E+00 0. -1.
         -3    1    6    6    0  503  0.24715534348E+03  0.21631689018E+03 -0.11185976469E+03  0.34697459236E+03  0.00000000000E+00 0.  1.
<mgrwt>
<rscale>  0 0.25936114E+04</rscale>
<asrwt>0</asrwt>
<pdfrwt beam="1">  1        2 0.16497264E+00 0.25936114E+04</pdfrwt>
<pdfrwt beam="2">  1       -1 0.24127436E+00 0.25936114E+04</pdfrwt>
<totfact> 0.18183113E+00</totfact>
</mgrwt>
</event>
<event>
12    7  0.1546317E-007  0.1403164E+04  0.7818608E-02  0.8951531E-01
          2   -1    0    0  501    0  0.00000000000E+00  0.00000000000E+00  0.17202012868E+04  0.17202012868E+04  0.00000000000E+00 0. -1.
         -1   -1    0    0    0  501 -0.00000000000E+00 -0.00000000000E+00 -0.28613935651E+03  0.28613935651E+03  0.00000000000E+00 0.  1.
         24    2    1    2    0    0  0.12270151051E+02  0.20831655932E+03  0.92285208919E+03  0.94944727315E+03  0.79043029306E+02 0.  0.
        254    2    1    2    0    0 -0.12270151051E+02 -0.20831655932E+03  0.51120984108E+03  0.10568933701E+04  0.90118907490E+03 0.  0.
         23    2    4    4    0    0  0.39483490544E+03 -0.23205224030E+03  0.11575382368E+03  0.48152167036E+03  0.93388042832E+02 0.  0.
         23    2    4    4    0    0 -0.40710505649E+03  0.23735680985E+02  0.39545601740E+03  0.57537169977E+03  0.91483450028E+02 0.  0.
          4    1    3    3  502    0 -0.29032015059E+02  0.14154062135E+03  0.61391869440E+03  0.63069229322E+03  0.00000000000E+00 0. -1.
         -3    1    3    3    0  502  0.41302166110E+02  0.66775937972E+02  0.30893339479E+03  0.31875497994E+03  0.00000000000E+00 0.  1.
         13    1    5    5    0    0  0.16635968689E+03 -0.13700464431E+03  0.20960944820E+02  0.21652985751E+03  0.00000000000E+00 0. -1.
        -13    1    5    5    0    0  0.22847521855E+03 -0.95047595997E+02  0.94792878859E+02  0.26499181285E+03  0.00000000000E+00 0.  1.
          2    1    6    6  503    0 -0.13741333989E+03  0.11740668120E+02  0.77234117132E+02  0.15806763779E+03  0.00000000000E+00 0. -1.
         -2    1    6    6    0  503 -0.26969171660E+03  0.11995012866E+02  0.31822190026E+03  0.41730406198E+03  0.00000000000E+00 0.  1.
<mgrwt>
<rscale>  0 0.14031640E+04</rscale>
<asrwt>0</asrwt>
<pdfrwt beam="1">  1        2 0.26464635E+00 0.14031640E+04</pdfrwt>
<pdfrwt beam="2">  1       -1 0.44021441E-01 0.14031640E+04</pdfrwt>
<totfact> 0.54055745E+01</totfact>
</mgrwt>
</event>
<event>
12    7  0.1546317E-007  0.1679402E+04  0.7818608E-02  0.8773200E-01
         -1   -1    0    0    0  501 -0.00000000000E+00  0.00000000000E+00  0.36051016034E+03  0.36051016034E+03  0.00000000000E+00 0.  1.
          2   -1    0    0  501    0  0.00000000000E+00 -0.00000000000E+00 -0.19558336038E+04  0.19558336038E+04  0.00000000000E+00 0. -1.
         24    2    1    2    0    0  0.19082855299E+02 -0.55754104567E+03 -0.88179149024E+03  0.10466131740E+04  0.81404734517E+02 0.  0.
        254    2    1    2    0    0 -0.19082855299E+02  0.55754104567E+03 -0.71353195322E+03  0.12697305901E+04  0.88987176056E+03 0.  0.
         23    2    4    4    0    0  0.24155119659E+03 -0.13504778893E+03 -0.11115247743E+03  0.31134954963E+03  0.89435915326E+02 0.  0.
         23    2    4    4    0    0 -0.26063405189E+03  0.69258883460E+03 -0.60237947580E+03  0.95838104049E+03  0.89575571905E+02 0.  0.
          2    1    3    3  502    0 -0.26654074021E+02 -0.17044009660E+03 -0.30626799345E+03  0.35151152186E+03  0.00000000000E+00 0. -1.
         -1    1    3    3    0  502  0.45736929320E+02 -0.38710094908E+03 -0.57552349679E+03  0.69510165216E+03  0.00000000000E+00 0.  1.
         13    1    5    5    0    0  0.80387758262E+02 -0.94869712095E+02 -0.55569095195E+02  0.13619977347E+03  0.00000000000E+00 0.  1.
        -13    1    5    5    0    0  0.16116343832E+03 -0.40178076838E+02 -0.55583382232E+02  0.17514977617E+03  0.00000000000E+00 0. -1.
          1    1    6    6  503    0 -0.22248991345E+03  0.47605976912E+03 -0.41913670007E+03  0.67216831130E+03  0.00000000000E+00 0. -1.
         -1    1    6    6    0  503 -0.38144138438E+02  0.21652906548E+03 -0.18324277572E+03  0.28621272919E+03  0.00000000000E+00 0.  1.
<mgrwt>
<rscale>  0 0.16794021E+04</rscale>
<asrwt>0</asrwt>
<pdfrwt beam="1">  1        2 0.30089748E+00 0.16794021E+04</pdfrwt>
<pdfrwt beam="2">  1       -1 0.55463100E-01 0.16794021E+04</pdfrwt>
<totfact> 0.25229554E+01</totfact>
</mgrwt>
</event>
<event>
12    7  0.1546317E-007  0.2444551E+04  0.7818608E-02  0.8423010E-01
          2   -1    0    0  501    0  0.00000000000E+00  0.00000000000E+00  0.16941155673E+04  0.16941155673E+04  0.00000000000E+00 0. -1.
         -1   -1    0    0    0  501 -0.00000000000E+00 -0.00000000000E+00 -0.88185124118E+03  0.88185124118E+03  0.00000000000E+00 0.  1.
         24    2    1    2    0    0 -0.80753032797E+03  0.29815299043E+03  0.99034525524E+03  0.13147411682E+04  0.82220304132E+02 0.  0.
        254    2    1    2    0    0  0.80753032797E+03 -0.29815299043E+03 -0.17808092917E+03  0.12612256403E+04  0.90442073285E+03 0.  0.
         23    2    4    4    0    0  0.47509411211E+03 -0.46868409377E+03  0.21912219921E+03  0.70850597571E+03  0.92665982583E+02 0.  0.
         23    2    4    4    0    0  0.33243621586E+03  0.17053110333E+03 -0.39720312838E+03  0.55271966454E+03  0.90188732972E+02 0.  0.
          4    1    3    3  502    0 -0.26743241953E+03  0.78901831920E+02  0.27044798431E+03  0.38844267314E+03  0.00000000000E+00 0. -1.
         -3    1    3    3    0  502 -0.54009790844E+03  0.21925115851E+03  0.71989727093E+03  0.92629849504E+03  0.00000000000E+00 0.  1.
         13    1    5    5    0    0  0.11456642059E+02 -0.38971186730E+02  0.22755066474E+02  0.46559650908E+02  0.00000000000E+00 0. -1.
        -13    1    5    5    0    0  0.46363747005E+03 -0.42971290704E+03  0.19636713273E+03  0.66194632481E+03  0.00000000000E+00 0.  1.
          3    1    6    6  503    0  0.30517306754E+03  0.12254182498E+03 -0.33216897133E+03  0.46742199941E+03  0.00000000000E+00 0. -1.
         -3    1    6    6    0  503  0.27263148324E+02  0.47989278350E+02 -0.65034157047E+02  0.85297665126E+02  0.00000000000E+00 0.  1.
<mgrwt>
<rscale>  0 0.24445514E+04</rscale>
<asrwt>0</asrwt>
<pdfrwt beam="1">  1        2 0.26063316E+00 0.24445514E+04</pdfrwt>
<pdfrwt beam="2">  1       -1 0.13566942E+00 0.24445514E+04</pdfrwt>
<totfact> 0.45846138E+00</totfact>
</mgrwt>
</event>
<event>
12    7  0.1546317E-007  0.1193964E+04  0.7818608E-02  0.9118156E-01
         -1   -1    0    0    0  501 -0.00000000000E+00  0.00000000000E+00  0.36490431473E+03  0.36490431473E+03  0.00000000000E+00 0.  1.
          2   -1    0    0  501    0  0.00000000000E+00 -0.00000000000E+00 -0.97665987220E+03  0.97665987220E+03  0.00000000000E+00 0. -1.
         24    2    1    2    0    0 -0.18857817681E+03  0.13506186233E+03 -0.24281038899E+03  0.34501332397E+03  0.79207785546E+02 0.  0.
        254    2    1    2    0    0  0.18857817681E+03 -0.13506186233E+03 -0.36894516847E+03  0.99655086296E+03  0.89620848563E+03 0.  0.
         23    2    4    4    0    0  0.32947097233E+03  0.29379148266E+03 -0.26968394822E+03  0.52529568304E+03  0.91332172884E+02 0.  0.
         23    2    4    4    0    0 -0.14089279552E+03 -0.42885334499E+03 -0.99261220255E+02  0.47125517992E+03  0.91992844359E+02 0.  0.
          4    1    3    3  502    0 -0.10633190966E+03  0.10338529886E+03 -0.19422510321E+03  0.24437345549E+03  0.00000000000E+00 0. -1.
         -3    1    3    3    0  502 -0.82246267147E+02  0.31676563470E+02 -0.48585285783E+02  0.10063986848E+03  0.00000000000E+00 0.  1.
         13    1    5    5    0    0  0.11487068420E+03  0.60711466765E+02 -0.47550694284E+02  0.13835542928E+03  0.00000000000E+00 0.  1.
        -13    1    5    5    0    0  0.21460028813E+03  0.23308001590E+03 -0.22213325393E+03  0.38694025376E+03  0.00000000000E+00 0. -1.
          1    1    6    6  503    0 -0.12202054819E+03 -0.42152347653E+03 -0.86353706494E+02  0.44724491956E+03  0.00000000000E+00 0. -1.
         -1    1    6    6    0  503 -0.18872247331E+02 -0.73298684607E+01 -0.12907513760E+02  0.24010260358E+02  0.00000000000E+00 0.  1.
<mgrwt>
<rscale>  0 0.11939638E+04</rscale>
<asrwt>0</asrwt>
<pdfrwt beam="1">  1        2 0.15025536E+00 0.11939638E+04</pdfrwt>
<pdfrwt beam="2">  1       -1 0.56139127E-01 0.11939638E+04</pdfrwt>
<totfact> 0.94272668E+01</totfact>
</mgrwt>
</event>
<event>
12    7  0.1546317E-007  0.1738120E+04  0.7818608E-02  0.8739917E-01
          2   -1    0    0  501    0  0.00000000000E+00  0.00000000000E+00  0.11800155381E+04  0.11800155381E+04  0.00000000000E+00 0. -1.
         -1   -1    0    0    0  501 -0.00000000000E+00 -0.00000000000E+00 -0.64004706074E+03  0.64004706074E+03  0.00000000000E+00 0.  1.
         24    2    1    2    0    0 -0.37792722745E+02  0.21192050848E+03  0.75420791718E+03  0.78826493771E+03  0.78698398184E+02 0.  0.
        254    2    1    2    0    0  0.37792722745E+02 -0.21192050848E+03 -0.21423943986E+03  0.10317976611E+04  0.98608786832E+03 0.  0.
         23    2    4    4    0    0  0.29473530101E+03 -0.49583770613E+03 -0.25398116477E+03  0.63674053987E+03  0.90598866260E+02 0.  0.
         23    2    4    4    0    0 -0.25694257827E+03  0.28391719765E+03  0.39741724910E+02  0.39505712123E+03  0.88669389824E+02 0.  0.
          2    1    3    3  502    0 -0.53418015689E+02  0.19918423297E+03  0.71545019187E+03  0.74457828341E+03  0.00000000000E+00 0. -1.
         -1    1    3    3    0  502  0.15625292944E+02  0.12736275511E+02  0.38757725305E+02  0.43686654304E+02  0.00000000000E+00 0.  1.
         13    1    5    5    0    0  0.21318416500E+03 -0.40400570528E+03 -0.16754999998E+03  0.48656047990E+03  0.00000000000E+00 0. -1.
        -13    1    5    5    0    0  0.81551136008E+02 -0.91832000850E+02 -0.86431164788E+02  0.15018005996E+03  0.00000000000E+00 0.  1.
          3    1    6    6  503    0 -0.15611987185E+03  0.23200534861E+03  0.29448017128E+02  0.28118869445E+03  0.00000000000E+00 0. -1.
         -3    1    6    6    0  503 -0.10082270641E+03  0.51911849037E+02  0.10293707782E+02  0.11386842679E+03  0.00000000000E+00 0.  1.
<mgrwt>
<rscale>  0 0.17381202E+04</rscale>
<asrwt>0</asrwt>
<pdfrwt beam="1">  1        2 0.18154085E+00 0.17381202E+04</pdfrwt>
<pdfrwt beam="2">  1       -1 0.98468779E-01 0.17381202E+04</pdfrwt>
<totfact> 0.20799883E+01</totfact>
</mgrwt>
</event>
<event>
12    7  0.1546317E-007  0.1340960E+04  0.7818608E-02  0.8997700E-01
          2   -1    0    0  501    0  0.00000000000E+00  0.00000000000E+00  0.12009432086E+04  0.12009432086E+04  0.00000000000E+00 0. -1.
         -1   -1    0    0    0  501 -0.00000000000E+00 -0.00000000000E+00 -0.37432526743E+03  0.37432526743E+03  0.00000000000E+00 0.  1.
         24    2    1    2    0    0 -0.23296065519E+03  0.24417574927E+03  0.61800547376E+02  0.35281440263E+03  0.82257106986E+02 0.  0.
        254    2    1    2    0    0  0.23296065519E+03 -0.24417574927E+03  0.76481739382E+03  0.12224540734E+04  0.89193937705E+03 0.  0.
         23    2    4    4    0    0  0.34418428540E+02 -0.55712684833E+03  0.38658333911E+03  0.68527320163E+03  0.92616032311E+02 0.  0.
         23    2    4    4    0    0  0.19854222665E+03  0.31295109906E+03  0.37823405470E+03  0.53718087179E+03  0.90249003948E+02 0.  0.
          4    1    3    3  502    0 -0.78539703444E+02  0.40844926571E+02  0.38161072454E+02  0.96400521235E+02  0.00000000000E+00 0. -1.
         -3    1    3    3    0  502 -0.15442095174E+03  0.20333082270E+03  0.23639474923E+02  0.25641388139E+03  0.00000000000E+00 0.  1.
         13    1    5    5    0    0  0.69827417397E+01 -0.10117645962E+02 -0.35935187443E+01  0.12807764012E+02  0.00000000000E+00 0.  1.
        -13    1    5    5    0    0  0.27435686800E+02 -0.54700920237E+03  0.39017685786E+03  0.67246543762E+03  0.00000000000E+00 0. -1.
          3    1    6    6  503    0  0.15552585020E+03  0.28998873932E+03  0.35181864395E+03  0.48172410905E+03  0.00000000000E+00 0. -1.
         -3    1    6    6    0  503  0.43016376452E+02  0.22962359744E+02  0.26415410747E+02  0.55456762734E+02  0.00000000000E+00 0.  1.
<mgrwt>
<rscale>  0 0.13409599E+04</rscale>
<asrwt>0</asrwt>
<pdfrwt beam="1">  1        2 0.18476049E+00 0.13409599E+04</pdfrwt>
<pdfrwt beam="2">  1       -1 0.57588503E-01 0.13409599E+04</pdfrwt>
<totfact> 0.64374182E+01</totfact>
</mgrwt>
</event>
<event>
12    7  0.1546317E-007  0.1726555E+04  0.7818608E-02  0.8746362E-01
         -1   -1    0    0    0  501 -0.00000000000E+00  0.00000000000E+00  0.34883009708E+03  0.34883009708E+03  0.00000000000E+00 0.  1.
          2   -1    0    0  501    0  0.00000000000E+00 -0.00000000000E+00 -0.21364218368E+04  0.21364218368E+04  0.00000000000E+00 0. -1.
         24    2    1    2    0    0  0.51899703046E+03 -0.45498498368E+02 -0.13918830051E+03  0.54591748794E+03  0.84996997942E+02 0.  0.
        254    2    1    2    0    0 -0.51899703046E+03  0.45498498368E+02 -0.16484034392E+04  0.19393344459E+04  0.87883796220E+03 0.  0.
         23    2    4    4    0    0  0.73996606785E+02  0.30742739033E+03 -0.81339898675E+03  0.87821492977E+03  0.98267253315E+02 0.  0.
         23    2    4    4    0    0 -0.59299363725E+03 -0.26192889197E+03 -0.83500445241E+03  0.10611195161E+04  0.92162865076E+02 0.  0.
          4    1    3    3  502    0  0.13268725333E+03 -0.11369010857E+02 -0.74959037105E+02  0.15282021741E+03  0.00000000000E+00 0. -1.
         -3    1    3    3    0  502  0.38630977713E+03 -0.34129487512E+02 -0.64229263406E+02  0.39309727053E+03  0.00000000000E+00 0.  1.
         13    1    5    5    0    0 -0.90815570249E+01  0.17197804569E+03 -0.41978317864E+03  0.45373653143E+03  0.00000000000E+00 0.  1.
        -13    1    5    5    0    0  0.83078163810E+02  0.13544934464E+03 -0.39361580811E+03  0.42447839834E+03  0.00000000000E+00 0. -1.
          2    1    6    6  503    0 -0.33811241789E+03 -0.10070796058E+03 -0.46866225465E+03  0.58660583818E+03  0.00000000000E+00 0. -1.
         -2    1    6    6    0  503 -0.25488121936E+03 -0.16122093138E+03 -0.36634219776E+03  0.47451367794E+03  0.00000000000E+00 0.  1.
<mgrwt>
<rscale>  0 0.17265552E+04</rscale>
<asrwt>0</asrwt>
<pdfrwt beam="1">  1        2 0.32868028E+00 0.17265552E+04</pdfrwt>
<pdfrwt beam="2">  1       -1 0.53666169E-01 0.17265552E+04</pdfrwt>
<totfact> 0.21250281E+01</totfact>
</mgrwt>
</event>
<event>
12    7  0.1546317E-007  0.1618286E+04  0.7818608E-02  0.8809392E-01
         -1   -1    0    0    0  501 -0.00000000000E+00  0.00000000000E+00  0.83328665948E+03  0.83328665948E+03  0.00000000000E+00 0.  1.
          2   -1    0    0  501    0  0.00000000000E+00 -0.00000000000E+00 -0.78569914219E+03  0.78569914219E+03  0.00000000000E+00 0. -1.
         24    2    1    2    0    0  0.30401242332E+03  0.14263745009E+03 -0.43022408495E+03  0.55164816984E+03  0.80336444448E+02 0.  0.
        254    2    1    2    0    0 -0.30401242332E+03 -0.14263745009E+03  0.47781160224E+03  0.10673376318E+04  0.89338496595E+03 0.  0.
         23    2    4    4    0    0 -0.12722003918E+03  0.11060978020E+03 -0.22405965054E+03  0.29481601145E+03  0.91073002400E+02 0.  0.
         23    2    4    4    0    0 -0.17679238415E+03 -0.25324723028E+03  0.70187125278E+03  0.77252162038E+03  0.93683999354E+02 0.  0.
          2    1    3    3  502    0  0.25902886827E+03  0.11483543803E+03 -0.40166802274E+03  0.49154891203E+03  0.00000000000E+00 0. -1.
         -1    1    3    3    0  502  0.44983555056E+02  0.27802012054E+02 -0.28556062210E+02  0.60099257804E+02  0.00000000000E+00 0.  1.
         13    1    5    5    0    0 -0.71619939088E+02  0.66942869445E+01 -0.10511951683E+03  0.12737480901E+03  0.00000000000E+00 0.  1.
        -13    1    5    5    0    0 -0.55600100090E+02  0.10391549325E+03 -0.11894013371E+03  0.16744120244E+03  0.00000000000E+00 0. -1.
          4    1    6    6  503    0 -0.14376848605E+03 -0.15538031189E+03  0.38661358502E+03  0.44077486659E+03  0.00000000000E+00 0. -1.
         -4    1    6    6    0  503 -0.33023898097E+02 -0.97866918399E+02  0.31525766776E+03  0.33174675378E+03  0.00000000000E+00 0.  1.
<mgrwt>
<rscale>  0 0.16182863E+04</rscale>
<asrwt>0</asrwt>
<pdfrwt beam="1">  1        2 0.12087679E+00 0.16182863E+04</pdfrwt>
<pdfrwt beam="2">  1       -1 0.12819795E+00 0.16182863E+04</pdfrwt>
<totfact> 0.20267455E+01</totfact>
</mgrwt>
</event>
<event>
12    7  0.1546317E-007  0.1579403E+04  0.7818608E-02  0.8833302E-01
          2   -1    0    0  501    0  0.00000000000E+00  0.00000000000E+00  0.10209296267E+04  0.10209296267E+04  0.00000000000E+00 0. -1.
         -1   -1    0    0    0  501 -0.00000000000E+00 -0.00000000000E+00 -0.61084410543E+03  0.61084410543E+03  0.00000000000E+00 0.  1.
         24    2    1    2    0    0 -0.73707253551E+02 -0.39759671584E+03  0.49175301488E+03  0.64177297437E+03  0.80843152478E+02 0.  0.
        254    2    1    2    0    0  0.73707253551E+02  0.39759671584E+03 -0.81667493622E+02  0.99000075775E+03  0.89995333943E+03 0.  0.
         23    2    4    4    0    0 -0.27664300604E+03 -0.13317384152E+03  0.76097222972E+02  0.32819961796E+03  0.87507582712E+02 0.  0.
         23    2    4    4    0    0  0.35035025959E+03  0.53077055737E+03 -0.15776471659E+03  0.66180113979E+03  0.92888932909E+02 0.  0.
          2    1    3    3  502    0 -0.41884979245E+02 -0.26291352300E+03  0.37954407572E+03  0.46360713700E+03  0.00000000000E+00 0. -1.
         -1    1    3    3    0  502 -0.31822274306E+02 -0.13468319284E+03  0.11220893917E+03  0.17816583737E+03  0.00000000000E+00 0.  1.
         13    1    5    5    0    0 -0.25857928513E+03 -0.12589582252E+03  0.93156554917E+02  0.30230968981E+03  0.00000000000E+00 0. -1.
        -13    1    5    5    0    0 -0.18063720907E+02 -0.72780190011E+01 -0.17059331945E+02  0.25889928157E+02  0.00000000000E+00 0.  1.
          1    1    6    6  503    0  0.29147332973E+03  0.48776091853E+03 -0.12467711254E+03  0.58173172337E+03  0.00000000000E+00 0. -1.
         -1    1    6    6    0  503  0.58876929862E+02  0.43009638843E+02 -0.33087604051E+02  0.80069416416E+02  0.00000000000E+00 0.  1.
<mgrwt>
<rscale>  0 0.15794035E+04</rscale>
<asrwt>0</asrwt>
<pdfrwt beam="1">  1        2 0.15706610E+00 0.15794035E+04</pdfrwt>
<pdfrwt beam="2">  1       -1 0.93976016E-01 0.15794035E+04</pdfrwt>
<totfact> 0.29366211E+01</totfact>
</mgrwt>
</event>
<event>
12    7  0.1791068E-007  0.2429466E+04  0.7818608E-02  0.8428554E-01
          2   -1    0    0  501    0  0.00000000000E+00  0.00000000000E+00  0.34133424728E+04  0.34133424728E+04  0.00000000000E+00 0. -1.
         -1   -1    0    0    0  501 -0.00000000000E+00 -0.00000000000E+00 -0.43229659288E+03  0.43229659288E+03  0.00000000000E+00 0.  1.
         24    2    1    2    0    0  0.80425797988E+03  0.30837127552E+03  0.22366431351E+04  0.23980305553E+04  0.77809310904E+02 0.  0.
        254    2    1    2    0    0 -0.80425797988E+03 -0.30837127552E+03  0.74440274488E+03  0.14476085104E+04  0.89415390789E+03 0.  0.
         23    2    4    4    0    0  0.13737580316E+03 -0.35470675326E+02 -0.57046830404E+02  0.17823333849E+03  0.91556004661E+02 0.  0.
         23    2    4    4    0    0 -0.94163378304E+03 -0.27290060019E+03  0.80144957528E+03  0.12693751719E+04  0.88560636603E+02 0.  0.
          4    1    3    3  502    0  0.56008013556E+03  0.22788129776E+03  0.14734069525E+04  0.15926542914E+04  0.00000000000E+00 0. -1.
         -3    1    3    3    0  502  0.24417784432E+03  0.80489977754E+02  0.76323618253E+03  0.80537626393E+03  0.00000000000E+00 0.  1.
         13    1    5    5    0    0  0.36679834678E+02 -0.33813258033E+02  0.17572667523E+02  0.52891826729E+02  0.00000000000E+00 0. -1.
        -13    1    5    5    0    0  0.10069596848E+03 -0.16574172924E+01 -0.74619497927E+02  0.12534151176E+03  0.00000000000E+00 0.  1.
          3    1    6    6  503    0 -0.23672180490E+03 -0.63811463203E+02  0.15284865154E+03  0.28891491140E+03  0.00000000000E+00 0. -1.
         -3    1    6    6    0  503 -0.70491197814E+03 -0.20908913699E+03  0.64860092374E+03  0.98046026049E+03  0.00000000000E+00 0.  1.
<mgrwt>
<rscale>  0 0.24294660E+04</rscale>
<asrwt>0</asrwt>
<pdfrwt beam="1">  1        2 0.52512959E+00 0.24294660E+04</pdfrwt>
<pdfrwt beam="2">  1       -1 0.66507170E-01 0.24294660E+04</pdfrwt>
<totfact> 0.21851930E+00</totfact>
</mgrwt>
</event>
<event>
12    7  0.1546317E-007  0.2649082E+04  0.7818608E-02  0.8351718E-01
          2   -1    0    0  501    0  0.00000000000E+00  0.00000000000E+00  0.17810035350E+04  0.17810035350E+04  0.00000000000E+00 0. -1.
         -1   -1    0    0    0  501 -0.00000000000E+00 -0.00000000000E+00 -0.98506728898E+03  0.98506728898E+03  0.00000000000E+00 0.  1.
         24    2    1    2    0    0  0.60446741279E+03  0.72180168090E+03 -0.38119721834E+03  0.10190433153E+04  0.82215810578E+02 0.  0.
        254    2    1    2    0    0 -0.60446741279E+03 -0.72180168090E+03  0.11771334643E+04  0.17470275086E+04  0.88322330328E+03 0.  0.
         23    2    4    4    0    0 -0.25945513470E+03  0.12760895324E+03  0.56509468440E+03  0.64133663479E+03  0.91540509738E+02 0.  0.
         23    2    4    4    0    0 -0.34501227809E+03 -0.84941063414E+03  0.61203877992E+03  0.11056908738E+04  0.86191316050E+02 0.  0.
          4    1    3    3  502    0  0.10368616830E+03  0.15336758106E+03 -0.46744891921E+02  0.19093852764E+03  0.00000000000E+00 0. -1.
         -3    1    3    3    0  502  0.50078124449E+03  0.56843409983E+03 -0.33445232641E+03  0.82810478765E+03  0.00000000000E+00 0.  1.
         13    1    5    5    0    0 -0.22873008805E+03  0.74002934956E+02  0.47033005973E+03  0.52820853140E+03  0.00000000000E+00 0. -1.
        -13    1    5    5    0    0 -0.30725046650E+02  0.53606018286E+02  0.94764624669E+02  0.11312810339E+03  0.00000000000E+00 0.  1.
          4    1    6    6  503    0 -0.20944327422E+03 -0.40316866821E+03  0.31172245368E+03  0.55098307440E+03  0.00000000000E+00 0.  1.
         -4    1    6    6    0  503 -0.13556900387E+03 -0.44624196592E+03  0.30031632624E+03  0.55470779945E+03  0.00000000000E+00 0. -1.
<mgrwt>
<rscale>  0 0.26490816E+04</rscale>
<asrwt>0</asrwt>
<pdfrwt beam="1">  1        2 0.27400054E+00 0.26490816E+04</pdfrwt>
<pdfrwt beam="2">  1       -1 0.15154881E+00 0.26490816E+04</pdfrwt>
<totfact> 0.30083486E+00</totfact>
</mgrwt>
</event>
<event>
12    7  0.1546317E-007  0.2543943E+04  0.7818608E-02  0.8387496E-01
          2   -1    0    0  501    0  0.00000000000E+00  0.00000000000E+00  0.23439256343E+04  0.23439256343E+04  0.00000000000E+00 0. -1.
         -1   -1    0    0    0  501 -0.00000000000E+00 -0.00000000000E+00 -0.69025711965E+03  0.69025711965E+03  0.00000000000E+00 0.  1.
         24    2    1    2    0    0 -0.32674217086E+03 -0.55536404897E+03  0.18006407021E+04  0.19141768842E+04  0.81095826222E+02 0.  0.
        254    2    1    2    0    0  0.32674217086E+03  0.55536404897E+03 -0.14697218738E+03  0.11200058698E+04  0.90422488979E+03 0.  0.
         23    2    4    4    0    0 -0.72334798869E+02  0.66859276850E+03 -0.15057437105E+03  0.69508253946E+03  0.90655844995E+02 0.  0.
         23    2    4    4    0    0  0.39907696973E+03 -0.11322871953E+03  0.36021836663E+01  0.42492333030E+03  0.91998316348E+02 0.  0.
          4    1    3    3  502    0 -0.27634054318E+03 -0.50505584164E+03  0.15440801241E+04  0.16479165418E+04  0.00000000000E+00 0. -1.
         -3    1    3    3    0  502 -0.50401627677E+02 -0.50308207338E+02  0.25656057798E+03  0.26626034247E+03  0.00000000000E+00 0.  1.
         13    1    5    5    0    0 -0.29059594209E+02  0.39962575068E+03 -0.13264829032E+03  0.42206725714E+03  0.00000000000E+00 0.  1.
        -13    1    5    5    0    0 -0.43275204660E+02  0.26896701782E+03 -0.17926080727E+02  0.27301528233E+03  0.00000000000E+00 0. -1.
          1    1    6    6  503    0  0.16255496735E+03 -0.49788540081E+02  0.46634327615E+02  0.17628890109E+03  0.00000000000E+00 0. -1.
         -1    1    6    6    0  503  0.23652200238E+03 -0.63440179446E+02 -0.43032143949E+02  0.24863442921E+03  0.00000000000E+00 0.  1.
<mgrwt>
<rscale>  0 0.25439429E+04</rscale>
<asrwt>0</asrwt>
<pdfrwt beam="1">  1        2 0.36060394E+00 0.25439429E+04</pdfrwt>
<pdfrwt beam="2">  1       -1 0.10619340E+00 0.25439429E+04</pdfrwt>
<totfact> 0.35864297E+00</totfact>
</mgrwt>
</event>
<event>
12    7  0.1546317E-007  0.2244394E+04  0.7818608E-02  0.8500174E-01
          2   -1    0    0  501    0  0.00000000000E+00  0.00000000000E+00  0.57386901758E+03  0.57386901758E+03  0.00000000000E+00 0. -1.
         -1   -1    0    0    0  501 -0.00000000000E+00 -0.00000000000E+00 -0.21944488207E+04  0.21944488207E+04  0.00000000000E+00 0.  1.
         24    2    1    2    0    0  0.74027691621E+03 -0.43001949435E+03 -0.19342977092E+03  0.88135535544E+03  0.80283921789E+02 0.  0.
        254    2    1    2    0    0 -0.74027691621E+03  0.43001949435E+03 -0.14271500322E+04  0.18869624829E+04  0.88935005428E+03 0.  0.
         23    2    4    4    0    0 -0.33525972263E+03 -0.25509552382E+03 -0.55439531039E+03  0.70236215744E+03  0.92117490965E+02 0.  0.
         23    2    4    4    0    0 -0.40501719358E+03  0.68511501816E+03 -0.87275472183E+03  0.11846003254E+04  0.90308423088E+02 0.  0.
          4    1    3    3  502    0  0.70991465011E+03 -0.39116487053E+03 -0.18323933466E+03  0.83100265953E+03  0.00000000000E+00 0. -1.
         -3    1    3    3    0  502  0.30362266098E+02 -0.38854623813E+02 -0.10190436255E+02  0.50352695910E+02  0.00000000000E+00 0.  1.
         13    1    5    5    0    0 -0.33340372098E+03 -0.24016988128E+03 -0.55028485158E+03  0.68676999856E+03  0.00000000000E+00 0. -1.
        -13    1    5    5    0    0 -0.18560016514E+01 -0.14925642534E+02 -0.41104588055E+01  0.15592158888E+02  0.00000000000E+00 0.  1.
          2    1    6    6  503    0 -0.38770717424E+03  0.67931502701E+03 -0.84559478046E+03  0.11518751198E+04  0.00000000000E+00 0. -1.
         -2    1    6    6    0  503 -0.17310019338E+02  0.57999911516E+01 -0.27159941368E+02  0.32725205606E+02  0.00000000000E+00 0.  1.
<mgrwt>
<rscale>  0 0.22443941E+04</rscale>
<asrwt>0</asrwt>
<pdfrwt beam="1">  1        2 0.88287539E-01 0.22443941E+04</pdfrwt>
<pdfrwt beam="2">  1       -1 0.33760752E+00 0.22443941E+04</pdfrwt>
<totfact> 0.10215283E+00</totfact>
</mgrwt>
</event>
<event>
12    7  0.1546317E-007  0.1402748E+04  0.7818608E-02  0.8951832E-01
          2   -1    0    0  501    0  0.00000000000E+00  0.00000000000E+00  0.18919927221E+04  0.18919927221E+04  0.00000000000E+00 0. -1.
         -1   -1    0    0    0  501 -0.00000000000E+00 -0.00000000000E+00 -0.26000387106E+03  0.26000387106E+03  0.00000000000E+00 0.  1.
         24    2    1    2    0    0 -0.13703765852E+03 -0.19339942991E+03  0.99512051801E+03  0.10258473700E+04  0.76911129721E+02 0.  0.
        254    2    1    2    0    0  0.13703765852E+03  0.19339942991E+03  0.63686833307E+03  0.11261492232E+04  0.89801344079E+03 0.  0.
         23    2    4    4    0    0 -0.21142707538E+03  0.18402134239E+03  0.69886605317E+03  0.75996206108E+03  0.10277797117E+03 0.  0.
         23    2    4    4    0    0  0.34846473390E+03  0.93780875243E+01 -0.61997720101E+02  0.36618716208E+03  0.93454272673E+02 0.  0.
          4    1    3    3  502    0 -0.11034325530E+03 -0.13389194986E+03  0.83719433455E+03  0.85498365015E+03  0.00000000000E+00 0. -1.
         -3    1    3    3    0  502 -0.26694403216E+02 -0.59507480049E+02  0.15792618346E+03  0.17086371987E+03  0.00000000000E+00 0.  1.
         13    1    5    5    0    0 -0.15661840705E+03  0.15698944601E+03  0.42515965986E+03  0.47951616027E+03  0.00000000000E+00 0. -1.
        -13    1    5    5    0    0 -0.54808668332E+02  0.27031896371E+02  0.27370639331E+03  0.28044590082E+03  0.00000000000E+00 0.  1.
          2    1    6    6  503    0  0.78952893483E+02 -0.34232239784E+02  0.72401400718E+00  0.86057712184E+02  0.00000000000E+00 0. -1.
         -2    1    6    6    0  503  0.26951184042E+03  0.43610327308E+02 -0.62721734108E+02  0.28012944990E+03  0.00000000000E+00 0.  1.
<mgrwt>
<rscale>  0 0.14027479E+04</rscale>
<asrwt>0</asrwt>
<pdfrwt beam="1">  1        2 0.29107579E+00 0.14027479E+04</pdfrwt>
<pdfrwt beam="2">  1       -1 0.40000597E-01 0.14027479E+04</pdfrwt>
<totfact> 0.51811610E+01</totfact>
</mgrwt>
</event>
<event>
12    7  0.1546317E-007  0.1255175E+04  0.7818608E-02  0.9065887E-01
          2   -1    0    0  501    0  0.00000000000E+00  0.00000000000E+00  0.14968234716E+04  0.14968234716E+04  0.00000000000E+00 0. -1.
         -3   -1    0    0    0  501 -0.00000000000E+00 -0.00000000000E+00 -0.26313454966E+03  0.26313454966E+03  0.00000000000E+00 0.  1.
         24    2    1    2    0    0  0.92466677797E+02 -0.16525296636E+03 -0.41711902510E+02  0.20981111590E+03  0.80138580912E+02 0.  0.
        254    2    1    2    0    0 -0.92466677797E+02  0.16525296636E+03  0.12754008245E+04  0.15501469054E+04  0.86049377444E+03 0.  0.
         23    2    4    4    0    0 -0.34823596814E+03  0.11833168275E+03  0.17778489515E+03  0.41834109640E+03  0.90172763879E+02 0.  0.
         23    2    4    4    0    0  0.25576929035E+03  0.46921283609E+02  0.10976159293E+04  0.11318058090E+04  0.92758418569E+02 0.  0.
          4    1    3    3  502    0  0.55798890211E+02 -0.25883546163E+02 -0.12221268440E+02  0.62712307508E+02  0.00000000000E+00 0. -1.
         -3    1    3    3    0  502  0.36667787586E+02 -0.13936942019E+03 -0.29490634070E+02  0.14709880839E+03  0.00000000000E+00 0.  1.
         13    1    5    5    0    0 -0.10109274157E+03  0.40652489070E+02  0.99894289218E+02  0.14782163672E+03  0.00000000000E+00 0. -1.
        -13    1    5    5    0    0 -0.24714322658E+03  0.77679193679E+02  0.77890605931E+02  0.27051945968E+03  0.00000000000E+00 0.  1.
          2    1    6    6  503    0  0.74998106803E+02  0.22569959402E+02  0.18102078876E+03  0.19723753460E+03  0.00000000000E+00 0. -1.
         -2    1    6    6    0  503  0.18077118354E+03  0.24351324207E+02  0.91659514058E+03  0.93456827441E+03  0.00000000000E+00 0.  1.
<mgrwt>
<rscale>  0 0.12551748E+04</rscale>
<asrwt>0</asrwt>
<pdfrwt beam="1">  1        2 0.23028053E+00 0.12551748E+04</pdfrwt>
<pdfrwt beam="2">  1       -3 0.40482239E-01 0.12551748E+04</pdfrwt>
<totfact> 0.48812879E+01</totfact>
</mgrwt>
</event>
<event>
12    7  0.1546317E-007  0.1544941E+04  0.7818608E-02  0.8855105E-01
          2   -1    0    0  501    0  0.00000000000E+00  0.00000000000E+00  0.26073843844E+04  0.26073843844E+04  0.00000000000E+00 0. -1.
         -1   -1    0    0    0  501 -0.00000000000E+00 -0.00000000000E+00 -0.22885418998E+03  0.22885418998E+03  0.00000000000E+00 0.  1.
         24    2    1    2    0    0 -0.39244490974E+03  0.84498860314E+00  0.13719541063E+04  0.14292986065E+04  0.81380068224E+02 0.  0.
        254    2    1    2    0    0  0.39244490974E+03 -0.84498860314E+00  0.10065760881E+04  0.14069399679E+04  0.90126074525E+03 0.  0.
         23    2    4    4    0    0 -0.20476680551E+03  0.10470878488E+03  0.65475509204E+03  0.69991150966E+03  0.90986353563E+02 0.  0.
         23    2    4    4    0    0  0.59721171525E+03 -0.10555377349E+03  0.35182099610E+03  0.70702845826E+03  0.91147109426E+02 0.  0.
          4    1    3    3  502    0 -0.16793765304E+02  0.12870265700E+02  0.13033892454E+03  0.13204510420E+03  0.00000000000E+00 0. -1.
         -3    1    3    3    0  502 -0.37565114444E+03 -0.12025277097E+02  0.12416151817E+04  0.12972535023E+04  0.00000000000E+00 0.  1.
         13    1    5    5    0    0 -0.12423805558E+03  0.75024385045E+02  0.52223335697E+03  0.54202530562E+03  0.00000000000E+00 0.  1.
        -13    1    5    5    0    0 -0.80528749934E+02  0.29684399837E+02  0.13252173507E+03  0.15788620404E+03  0.00000000000E+00 0. -1.
          2    1    6    6  503    0  0.20725720819E+02  0.10919102209E+02  0.40705953489E+01  0.23777132775E+02  0.00000000000E+00 0.  1.
         -2    1    6    6    0  503  0.57648599443E+03 -0.11647287569E+03  0.34775040075E+03  0.68325132548E+03  0.00000000000E+00 0. -1.
<mgrwt>
<rscale>  0 0.15449412E+04</rscale>
<asrwt>0</asrwt>
<pdfrwt beam="1">  1        2 0.40113604E+00 0.15449412E+04</pdfrwt>
<pdfrwt beam="2">  1       -1 0.35208339E-01 0.15449412E+04</pdfrwt>
<totfact> 0.25447890E+01</totfact>
</mgrwt>
</event>
<event>
12    7  0.1546317E-007  0.1730194E+04  0.7818608E-02  0.8744328E-01
         -1   -1    0    0    0  501 -0.00000000000E+00  0.00000000000E+00  0.40372790595E+03  0.40372790595E+03  0.00000000000E+00 0.  1.
          2   -1    0    0  501    0  0.00000000000E+00 -0.00000000000E+00 -0.18537062014E+04  0.18537062014E+04  0.00000000000E+00 0. -1.
         24    2    1    2    0    0  0.10807201822E+03  0.34873456810E+03  0.13987298690E+03  0.39892243098E+03  0.79241992425E+02 0.  0.
        254    2    1    2    0    0 -0.10807201822E+03 -0.34873456810E+03 -0.15898512824E+04  0.18585116764E+04  0.89058586959E+03 0.  0.
         23    2    4    4    0    0 -0.37250565850E+03  0.40346328129E+02 -0.31841509132E+03  0.49986270122E+03  0.89923622471E+02 0.  0.
         23    2    4    4    0    0  0.26443364028E+03 -0.38908089623E+03 -0.12714361910E+04  0.13586489752E+04  0.89821800897E+02 0.  0.
          4    1    3    3  502    0 -0.36202808070E+01  0.90979393462E+02  0.18514965741E+02  0.92914801965E+02  0.00000000000E+00 0. -1.
         -3    1    3    3    0  502  0.11169229903E+03  0.25775517464E+03  0.12135802116E+03  0.30600762901E+03  0.00000000000E+00 0.  1.
         13    1    5    5    0    0 -0.91201026972E+02  0.34022090491E+02 -0.43980638650E+02  0.10681491721E+03  0.00000000000E+00 0. -1.
        -13    1    5    5    0    0 -0.28130463153E+03  0.63242376380E+01 -0.27443445267E+03  0.39304778401E+03  0.00000000000E+00 0.  1.
          2    1    6    6  503    0  0.26592774417E+03 -0.35714891506E+03 -0.12111882424E+04  0.12904456096E+04  0.00000000000E+00 0.  1.
         -2    1    6    6    0  503 -0.14941038888E+01 -0.31931981171E+02 -0.60247948626E+02  0.68203365617E+02  0.00000000000E+00 0. -1.
<mgrwt>
<rscale>  0 0.17301941E+04</rscale>
<asrwt>0</asrwt>
<pdfrwt beam="1">  1        2 0.28518556E+00 0.17301941E+04</pdfrwt>
<pdfrwt beam="2">  1       -1 0.62111987E-01 0.17301941E+04</pdfrwt>
<totfact> 0.22901577E+01</totfact>
</mgrwt>
</event>
<event>
12    7  0.1546317E-007  0.2182917E+04  0.7818608E-02  0.8525572E-01
         -1   -1    0    0    0  501 -0.00000000000E+00  0.00000000000E+00  0.13726902172E+04  0.13726902172E+04  0.00000000000E+00 0.  1.
          2   -1    0    0  501    0  0.00000000000E+00 -0.00000000000E+00 -0.86784435736E+03  0.86784435736E+03  0.00000000000E+00 0. -1.
         24    2    1    2    0    0  0.36765326040E+03  0.15995929984E+03 -0.62492504908E+03  0.74669309244E+03  0.79141391441E+02 0.  0.
        254    2    1    2    0    0 -0.36765326040E+03 -0.15995929984E+03  0.11297709089E+04  0.14938414821E+04  0.89130475684E+03 0.  0.
         23    2    4    4    0    0 -0.19179091311E+03  0.15697791621E+03 -0.38962070479E+02  0.26690920263E+03  0.91085997743E+02 0.  0.
         23    2    4    4    0    0 -0.17586234729E+03 -0.31693721605E+03  0.11687329794E+04  0.12269322795E+04  0.89717764138E+02 0.  0.
          2    1    3    3  502    0  0.23841275382E+03  0.10785167827E+03 -0.47287070160E+03  0.54044363825E+03  0.00000000000E+00 0. -1.
         -1    1    3    3    0  502  0.12924050658E+03  0.52107621571E+02 -0.15205434748E+03  0.20624945419E+03  0.00000000000E+00 0.  1.
         13    1    5    5    0    0 -0.25255506455E+02 -0.10807287801E+02 -0.10856598432E+01  0.27492121293E+02  0.00000000000E+00 0. -1.
        -13    1    5    5    0    0 -0.16653540666E+03  0.16778520401E+03 -0.37876410636E+02  0.23941708134E+03  0.00000000000E+00 0.  1.
          2    1    6    6  503    0 -0.64209146826E+02 -0.11222057126E+03  0.56799767997E+03  0.58252693981E+03  0.00000000000E+00 0. -1.
         -2    1    6    6    0  503 -0.11165320046E+03 -0.20471664479E+03  0.60073529940E+03  0.64440533966E+03  0.00000000000E+00 0.  1.
<mgrwt>
<rscale>  0 0.21829168E+04</rscale>
<asrwt>0</asrwt>
<pdfrwt beam="1">  1        2 0.13351452E+00 0.21829168E+04</pdfrwt>
<pdfrwt beam="2">  1       -1 0.21118311E+00 0.21829168E+04</pdfrwt>
<totfact> 0.40645460E+00</totfact>
</mgrwt>
</event>
<event>
12    7  0.1546317E-007  0.2468387E+04  0.7818608E-02  0.8414335E-01
         -1   -1    0    0    0  501 -0.00000000000E+00  0.00000000000E+00  0.69954996164E+03  0.69954996164E+03  0.00000000000E+00 0.  1.
          2   -1    0    0  501    0  0.00000000000E+00 -0.00000000000E+00 -0.21774481207E+04  0.21774481207E+04  0.00000000000E+00 0. -1.
         24    2    1    2    0    0  0.96631241232E+03 -0.44541714381E+03 -0.77856536844E+03  0.13210255172E+04  0.82390981692E+02 0.  0.
        254    2    1    2    0    0 -0.96631241232E+03  0.44541714381E+03 -0.69933279058E+03  0.15559725651E+04  0.89433112508E+03 0.  0.
         23    2    4    4    0    0 -0.39643173783E+03  0.65765096097E+03 -0.35015377461E+03  0.84893740666E+03  0.91783142869E+02 0.  0.
         23    2    4    4    0    0 -0.56988067449E+03 -0.21223381716E+03 -0.34917901596E+03  0.70703515848E+03  0.90363454134E+02 0.  0.
          2    1    3    3  502    0  0.23474622459E+03 -0.92136351430E+02 -0.14598210516E+03  0.29138577907E+03  0.00000000000E+00 0. -1.
         -1    1    3    3    0  502  0.73156618773E+03 -0.35328079238E+03 -0.63258326328E+03  0.10296397381E+04  0.00000000000E+00 0.  1.
         13    1    5    5    0    0 -0.40078322987E+03  0.65592855810E+03 -0.34811416653E+03  0.84383229591E+03  0.00000000000E+00 0. -1.
        -13    1    5    5    0    0  0.43514920369E+01  0.17224028657E+01 -0.20396080867E+01  0.51051107458E+01  0.00000000000E+00 0.  1.
          4    1    6    6  503    0 -0.39762348347E+03 -0.19023186000E+03 -0.26117704343E+03  0.51235343581E+03  0.00000000000E+00 0. -1.
         -4    1    6    6    0  503 -0.17225719101E+03 -0.22001957163E+02 -0.88001972528E+02  0.19468172267E+03  0.00000000000E+00 0.  1.
<mgrwt>
<rscale>  0 0.24683871E+04</rscale>
<asrwt>0</asrwt>
<pdfrwt beam="1">  1        2 0.33499201E+00 0.24683871E+04</pdfrwt>
<pdfrwt beam="2">  1       -1 0.10762307E+00 0.24683871E+04</pdfrwt>
<totfact> 0.43457679E+00</totfact>
</mgrwt>
</event>
<event>
12    7  0.1546317E-007  0.1688091E+04  0.7818608E-02  0.8768186E-01
         -3   -1    0    0    0  501 -0.00000000000E+00  0.00000000000E+00  0.46683578002E+03  0.46683578002E+03  0.00000000000E+00 0.  1.
          2   -1    0    0  501    0  0.00000000000E+00 -0.00000000000E+00 -0.15260458277E+04  0.15260458277E+04  0.00000000000E+00 0. -1.
         24    2    1    2    0    0 -0.14883965203E+03 -0.12290227816E+03  0.28756621990E+03  0.35611881066E+03  0.82873786480E+02 0.  0.
        254    2    1    2    0    0  0.14883965203E+03  0.12290227816E+03 -0.13467762676E+04  0.16367627971E+04  0.90990544946E+03 0.  0.
         23    2    4    4    0    0  0.33154535447E+03  0.21206802239E+03 -0.16794021389E+03  0.43725357655E+03  0.89953357764E+02 0.  0.
         23    2    4    4    0    0 -0.18270570244E+03 -0.89165744227E+02 -0.11788360537E+04  0.11995092205E+04  0.88521324907E+02 0.  0.
          4    1    3    3  502    0 -0.41457222752E+02  0.63862446743E+01  0.60563196238E+02  0.73670795964E+02  0.00000000000E+00 0. -1.
         -3    1    3    3    0  502 -0.10738242928E+03 -0.12928852284E+03  0.22700302366E+03  0.28244801469E+03  0.00000000000E+00 0.  1.
         13    1    5    5    0    0  0.75316644730E+02  0.62891779114E+02 -0.34329228322E+01  0.98182268321E+02  0.00000000000E+00 0.  1.
        -13    1    5    5    0    0  0.25622870974E+03  0.14917624328E+03 -0.16450729105E+03  0.33907130823E+03  0.00000000000E+00 0. -1.
          3    1    6    6  503    0 -0.17410403173E+03 -0.10480917679E+03 -0.10551135035E+04  0.10745053200E+04  0.00000000000E+00 0. -1.
         -3    1    6    6    0  503 -0.86016707117E+01  0.15643432568E+02 -0.12372255020E+03  0.12500390054E+03  0.00000000000E+00 0.  1.
<mgrwt>
<rscale>  0 0.16880910E+04</rscale>
<asrwt>0</asrwt>
<pdfrwt beam="1">  1        2 0.23477628E+00 0.16880910E+04</pdfrwt>
<pdfrwt beam="2">  1       -3 0.71820890E-01 0.16880910E+04</pdfrwt>
<totfact> 0.13764421E+01</totfact>
</mgrwt>
</event>
<event>
12    7  0.1546317E-007  0.2866246E+04  0.7818608E-02  0.8282992E-01
          2   -1    0    0  501    0  0.00000000000E+00  0.00000000000E+00  0.20409253173E+04  0.20409253173E+04  0.00000000000E+00 0. -1.
         -1   -1    0    0    0  501 -0.00000000000E+00 -0.00000000000E+00 -0.10063283684E+04  0.10063283684E+04  0.00000000000E+00 0.  1.
         24    2    1    2    0    0  0.74968741235E+03  0.12984202675E+03 -0.64040461960E+03  0.99771706671E+03  0.80194140977E+02 0.  0.
        254    2    1    2    0    0 -0.74968741235E+03 -0.12984202675E+03  0.16750015685E+04  0.20495366189E+04  0.90337142395E+03 0.  0.
         23    2    4    4    0    0 -0.10214052779E+03  0.33316834787E+03  0.35732142450E+03  0.50742227216E+03  0.91459971804E+02 0.  0.
         23    2    4    4    0    0 -0.64754688456E+03 -0.46301037462E+03  0.13176801440E+04  0.15421143468E+04  0.90222623606E+02 0.  0.
          4    1    3    3  502    0  0.26316828119E+03  0.44037567779E+02 -0.27552722088E+03  0.38355195351E+03  0.00000000000E+00 0. -1.
         -3    1    3    3    0  502  0.48651913116E+03  0.85804458973E+02 -0.36487739872E+03  0.61416511319E+03  0.00000000000E+00 0.  1.
         13    1    5    5    0    0  0.20214843583E+01  0.14531763849E+03  0.15135193891E+03  0.20983019770E+03  0.00000000000E+00 0. -1.
        -13    1    5    5    0    0 -0.10416201215E+03  0.18785070938E+03  0.20596948558E+03  0.29759207446E+03  0.00000000000E+00 0.  1.
          1    1    6    6  503    0 -0.62906869472E+03 -0.45230479214E+03  0.12453566694E+04  0.14667038834E+04  0.00000000000E+00 0. -1.
         -1    1    6    6    0  503 -0.18478189840E+02 -0.10705582484E+02  0.72323474662E+02  0.75410463354E+02  0.00000000000E+00 0.  1.
<mgrwt>
<rscale>  0 0.28662457E+04</rscale>
<asrwt>0</asrwt>
<pdfrwt beam="1">  1        2 0.31398851E+00 0.28662457E+04</pdfrwt>
<pdfrwt beam="2">  1       -1 0.15481975E+00 0.28662457E+04</pdfrwt>
<totfact> 0.19979933E+00</totfact>
</mgrwt>
</event>
<event>
12    7  0.1546317E-007  0.1812353E+04  0.7818608E-02  0.8699758E-01
         -1   -1    0    0    0  501 -0.00000000000E+00  0.00000000000E+00  0.41682188200E+03  0.41682188200E+03  0.00000000000E+00 0.  1.
          2   -1    0    0  501    0  0.00000000000E+00 -0.00000000000E+00 -0.19700411488E+04  0.19700411488E+04  0.00000000000E+00 0. -1.
         24    2    1    2    0    0 -0.33505257911E+03 -0.21201569088E+03 -0.13191549566E+04  0.13796975394E+04  0.78642334055E+02 0.  0.
        254    2    1    2    0    0  0.33505257911E+03  0.21201569088E+03 -0.23406431025E+03  0.10071654915E+04  0.89575964518E+03 0.  0.
         23    2    4    4    0    0  0.34940059936E+03  0.48456421698E+03 -0.34858990167E+03  0.69766483509E+03  0.91312887225E+02 0.  0.
         23    2    4    4    0    0 -0.14348020252E+02 -0.27254852610E+03  0.11452559142E+03  0.30950065638E+03  0.90476408235E+02 0.  0.
          4    1    3    3  502    0 -0.32176221810E+03 -0.19848976798E+03 -0.11755732860E+04  0.12348690877E+04  0.00000000000E+00 0. -1.
         -3    1    3    3    0  502 -0.13290361013E+02 -0.13525922901E+02 -0.14358167056E+03  0.14482845165E+03  0.00000000000E+00 0.  1.
         13    1    5    5    0    0  0.32374468918E+03  0.42845587555E+03 -0.33942818681E+03  0.63529249568E+03  0.00000000000E+00 0.  1.
        -13    1    5    5    0    0  0.25655910180E+02  0.56108341425E+02 -0.91617148576E+01  0.62372339412E+02  0.00000000000E+00 0. -1.
          1    1    6    6  503    0 -0.15802484865E+02 -0.11876583797E+02  0.29109571008E+02  0.35187197883E+02  0.00000000000E+00 0. -1.
         -1    1    6    6    0  503  0.14544646125E+01 -0.26067194230E+03  0.85416020411E+02  0.27431345850E+03  0.00000000000E+00 0.  1.
<mgrwt>
<rscale>  0 0.18123535E+04</rscale>
<asrwt>0</asrwt>
<pdfrwt beam="1">  1        2 0.30308326E+00 0.18123535E+04</pdfrwt>
<pdfrwt beam="2">  1       -1 0.64126443E-01 0.18123535E+04</pdfrwt>
<totfact> 0.18389060E+01</totfact>
</mgrwt>
</event>
<event>
12    7  0.1546317E-007  0.1677149E+04  0.7818608E-02  0.8774506E-01
         -1   -1    0    0    0  501 -0.00000000000E+00  0.00000000000E+00  0.67090159604E+03  0.67090159604E+03  0.00000000000E+00 0.  1.
          2   -1    0    0  501    0  0.00000000000E+00 -0.00000000000E+00 -0.10481524372E+04  0.10481524372E+04  0.00000000000E+00 0. -1.
         24    2    1    2    0    0  0.23906130652E+03 -0.24093563740E+03  0.36349617580E+03  0.50341785857E+03  0.78101093827E+02 0.  0.
        254    2    1    2    0    0 -0.23906130652E+03  0.24093563740E+03 -0.74074701700E+03  0.12156361747E+04  0.90214459839E+03 0.  0.
         23    2    4    4    0    0  0.90144299614E+02  0.51176168149E+03 -0.39101375845E+03  0.65656752641E+03  0.90350119279E+02 0.  0.
         23    2    4    4    0    0 -0.32920560614E+03 -0.27082604408E+03 -0.34973325856E+03  0.55906864829E+03  0.92311018281E+02 0.  0.
          2    1    3    3  502    0  0.14310141490E+03 -0.14285300462E+03  0.27023225382E+03  0.33750624717E+03  0.00000000000E+00 0. -1.
         -1    1    3    3    0  502  0.95959891621E+02 -0.98082632779E+02  0.93263921989E+02  0.16591161140E+03  0.00000000000E+00 0.  1.
         13    1    5    5    0    0  0.80514492981E+02  0.43957693700E+03 -0.37159190714E+03  0.58119791170E+03  0.00000000000E+00 0.  1.
        -13    1    5    5    0    0  0.96298066334E+01  0.72184744490E+02 -0.19421851307E+02  0.75369614707E+02  0.00000000000E+00 0. -1.
          3    1    6    6  503    0 -0.11002566894E+03 -0.11953653515E+03 -0.18367108263E+03  0.24521357560E+03  0.00000000000E+00 0. -1.
         -3    1    6    6    0  503 -0.21917993720E+03 -0.15128950893E+03 -0.16606217592E+03  0.31385507270E+03  0.00000000000E+00 0.  1.
<mgrwt>
<rscale>  0 0.16771489E+04</rscale>
<asrwt>0</asrwt>
<pdfrwt beam="1">  1        2 0.16125422E+00 0.16771489E+04</pdfrwt>
<pdfrwt beam="2">  1       -1 0.10321563E+00 0.16771489E+04</pdfrwt>
<totfact> 0.22617399E+01</totfact>
</mgrwt>
</event>
<event>
12    7  0.1546317E-007  0.1471365E+04  0.7818608E-02  0.8903721E-01
         -1   -1    0    0    0  501 -0.00000000000E+00  0.00000000000E+00  0.48049925791E+03  0.48049925791E+03  0.00000000000E+00 0.  1.
          2   -1    0    0  501    0  0.00000000000E+00 -0.00000000000E+00 -0.11263889945E+04  0.11263889945E+04  0.00000000000E+00 0. -1.
         24    2    1    2    0    0 -0.56215274594E+02  0.22816676051E+03  0.22192779073E+03  0.33242386176E+03  0.77675297685E+02 0.  0.
        254    2    1    2    0    0  0.56215274594E+02 -0.22816676051E+03 -0.86781752732E+03  0.12744643907E+04  0.90328954086E+03 0.  0.
         23    2    4    4    0    0  0.34228954982E+03  0.13235126073E+03 -0.66219712708E+03  0.76260174450E+03  0.91528102153E+02 0.  0.
         23    2    4    4    0    0 -0.28607427522E+03 -0.36051802124E+03 -0.20562040025E+03  0.51186264615E+03  0.88948777090E+02 0.  0.
          4    1    3    3  502    0 -0.12137081445E+02  0.45734959929E+02  0.82610019113E+01  0.48033732504E+02  0.00000000000E+00 0. -1.
         -3    1    3    3    0  502 -0.44078193149E+02  0.18243180058E+03  0.21366678882E+03  0.28439012925E+03  0.00000000000E+00 0.  1.
         13    1    5    5    0    0  0.24010066351E+03  0.13605900592E+03 -0.48289685109E+03  0.55619218845E+03  0.00000000000E+00 0.  1.
        -13    1    5    5    0    0  0.10218888631E+03 -0.37077451838E+01 -0.17930027599E+03  0.20640955605E+03  0.00000000000E+00 0. -1.
          3    1    6    6  503    0 -0.17707546160E+03 -0.15451681132E+03 -0.89526913201E+02  0.25148803603E+03  0.00000000000E+00 0. -1.
         -3    1    6    6    0  503 -0.10899881362E+03 -0.20600120992E+03 -0.11609348705E+03  0.26037461012E+03  0.00000000000E+00 0.  1.
<mgrwt>
<rscale>  0 0.14713655E+04</rscale>
<asrwt>0</asrwt>
<pdfrwt beam="1">  1        2 0.17329061E+00 0.14713655E+04</pdfrwt>
<pdfrwt beam="2">  1       -1 0.73922963E-01 0.14713655E+04</pdfrwt>
<totfact> 0.42712908E+01</totfact>
</mgrwt>
</event>
<event>
12    7  0.1546317E-007  0.2574410E+04  0.7818608E-02  0.8376946E-01
         -3   -1    0    0    0  501 -0.00000000000E+00  0.00000000000E+00  0.15212806123E+04  0.15212806123E+04  0.00000000000E+00 0.  1.
          2   -1    0    0  501    0  0.00000000000E+00 -0.00000000000E+00 -0.10891460260E+04  0.10891460260E+04  0.00000000000E+00 0. -1.
         24    2    1    2    0    0  0.19161918157E+03  0.10217613515E+04  0.62630946821E+03  0.12165582891E+04  0.83882958436E+02 0.  0.
        254    2    1    2    0    0 -0.19161918157E+03 -0.10217613515E+04 -0.19417488190E+03  0.13938683492E+04  0.90799279738E+03 0.  0.
         23    2    4    4    0    0  0.50472934808E+02 -0.70317398592E+03  0.28238848343E+03  0.76500076174E+03  0.92096353148E+02 0.  0.
         23    2    4    4    0    0 -0.24209211638E+03 -0.31858736559E+03 -0.47656336533E+03  0.62886758751E+03  0.90858676639E+02 0.  0.
          4    1    3    3  502    0  0.30617369683E+02  0.97460144207E+02  0.88292355918E+02  0.13502386141E+03  0.00000000000E+00 0. -1.
         -3    1    3    3    0  502  0.16100181189E+03  0.92430120730E+03  0.53801711229E+03  0.10815344277E+04  0.00000000000E+00 0.  1.
         13    1    5    5    0    0  0.44649737135E+02 -0.66988933986E+03  0.24519193322E+03  0.71474779524E+03  0.00000000000E+00 0.  1.
        -13    1    5    5    0    0  0.58231976731E+01 -0.33284646060E+02  0.37196550206E+02  0.50252966496E+02  0.00000000000E+00 0. -1.
          4    1    6    6  503    0 -0.47890043013E+02 -0.57091407970E+02 -0.15075422859E+03  0.16816575906E+03  0.00000000000E+00 0. -1.
         -4    1    6    6    0  503 -0.19420207337E+03 -0.26149595762E+03 -0.32580913674E+03  0.46070182844E+03  0.00000000000E+00 0.  1.
<mgrwt>
<rscale>  0 0.25744100E+04</rscale>
<asrwt>0</asrwt>
<pdfrwt beam="1">  1        2 0.16756093E+00 0.25744100E+04</pdfrwt>
<pdfrwt beam="2">  1       -3 0.23404317E+00 0.25744100E+04</pdfrwt>
<totfact> 0.11180156E+00</totfact>
</mgrwt>
</event>
<event>
12    7  0.1546317E-007  0.1441795E+04  0.7818608E-02  0.8924109E-01
         -1   -1    0    0    0  501 -0.00000000000E+00  0.00000000000E+00  0.71614910612E+03  0.71614910612E+03  0.00000000000E+00 0.  1.
          2   -1    0    0  501    0  0.00000000000E+00 -0.00000000000E+00 -0.72567743895E+03  0.72567743895E+03  0.00000000000E+00 0. -1.
         24    2    1    2    0    0  0.98407754161E+02 -0.50292191097E+02  0.42220918894E+03  0.44360652622E+03  0.79452881101E+02 0.  0.
        254    2    1    2    0    0 -0.98407754161E+02  0.50292191097E+02 -0.43173752176E+03  0.99822001885E+03  0.89321471538E+03 0.  0.
         23    2    4    4    0    0 -0.31588333090E+03 -0.79500598444E+02 -0.59461548625E+03  0.68387418408E+03  0.89519267596E+02 0.  0.
         23    2    4    4    0    0  0.21747557674E+03  0.12979278954E+03  0.16287796448E+03  0.31434583477E+03  0.90234571144E+02 0.  0.
          2    1    3    3  502    0  0.66208852109E+02 -0.33952800103E+02  0.13509275769E+03  0.15422858981E+03  0.00000000000E+00 0. -1.
         -1    1    3    3    0  502  0.32198902053E+02 -0.16339390994E+02  0.28711643125E+03  0.28937793641E+03  0.00000000000E+00 0.  1.
         13    1    5    5    0    0 -0.16291981812E+03 -0.52859059268E+02 -0.22346543204E+03  0.28155593868E+03  0.00000000000E+00 0.  1.
        -13    1    5    5    0    0 -0.15296351278E+03 -0.26641539176E+02 -0.37115005420E+03  0.40231824540E+03  0.00000000000E+00 0. -1.
          4    1    6    6  503    0  0.91420021049E+02  0.74788610654E+02  0.12437850681E+03  0.17152541937E+03  0.00000000000E+00 0. -1.
         -4    1    6    6    0  503  0.12605555569E+03  0.55004178887E+02  0.38499457671E+02  0.14282041541E+03  0.00000000000E+00 0.  1.
<mgrwt>
<rscale>  0 0.14417951E+04</rscale>
<asrwt>0</asrwt>
<pdfrwt beam="1">  1        2 0.11164268E+00 0.14417951E+04</pdfrwt>
<pdfrwt beam="2">  1       -1 0.11017679E+00 0.14417951E+04</pdfrwt>
<totfact> 0.32983584E+01</totfact>
</mgrwt>
</event>
<event>
12    7  0.1546317E-007  0.1705444E+04  0.7818608E-02  0.8758266E-01
         -1   -1    0    0    0  501 -0.00000000000E+00  0.00000000000E+00  0.45147802676E+03  0.45147802676E+03  0.00000000000E+00 0.  1.
          2   -1    0    0  501    0  0.00000000000E+00 -0.00000000000E+00 -0.16105646325E+04  0.16105646325E+04  0.00000000000E+00 0. -1.
         24    2    1    2    0    0 -0.10904746414E+03  0.22189871114E+03  0.22951975907E+03  0.34659092396E+03  0.79470506042E+02 0.  0.
        254    2    1    2    0    0  0.10904746414E+03 -0.22189871114E+03 -0.13886063648E+04  0.17154517353E+04  0.97643055681E+03 0.  0.
         23    2    4    4    0    0  0.30546243491E+03 -0.24301471336E+03 -0.10629755214E+03  0.41473073952E+03  0.91317942714E+02 0.  0.
         23    2    4    4    0    0 -0.19641497077E+03  0.21116002218E+02 -0.12823088127E+04  0.13007209958E+04  0.92382311629E+02 0.  0.
          2    1    3    3  502    0  0.30879249172E+01  0.73846794337E+02  0.68927254479E+02  0.10106359742E+03  0.00000000000E+00 0. -1.
         -1    1    3    3    0  502 -0.11213538906E+03  0.14805191680E+03  0.16059250459E+03  0.24552732654E+03  0.00000000000E+00 0.  1.
         13    1    5    5    0    0  0.21810301066E+03 -0.17272672533E+03 -0.11757739015E+03  0.30203954638E+03  0.00000000000E+00 0.  1.
        -13    1    5    5    0    0  0.87359424242E+02 -0.70287988030E+02  0.11279838005E+02  0.11269119314E+03  0.00000000000E+00 0. -1.
          1    1    6    6  503    0 -0.17199731482E+03 -0.10822218730E+02 -0.11356418266E+04  0.11486437895E+04  0.00000000000E+00 0. -1.
         -1    1    6    6    0  503 -0.24417655944E+02  0.31938220947E+02 -0.14666698604E+03  0.15207720629E+03  0.00000000000E+00 0.  1.
<mgrwt>
<rscale>  0 0.17054437E+04</rscale>
<asrwt>0</asrwt>
<pdfrwt beam="1">  1        2 0.24777917E+00 0.17054437E+04</pdfrwt>
<pdfrwt beam="2">  1       -1 0.69458158E-01 0.17054437E+04</pdfrwt>
<totfact> 0.24991223E+01</totfact>
</mgrwt>
</event>
<event>
12    7  0.1546317E-007  0.1424288E+04  0.7818608E-02  0.8936423E-01
         -1   -1    0    0    0  501 -0.00000000000E+00  0.00000000000E+00  0.21977406280E+03  0.21977406280E+03  0.00000000000E+00 0.  1.
          2   -1    0    0  501    0  0.00000000000E+00 -0.00000000000E+00 -0.23075925619E+04  0.23075925619E+04  0.00000000000E+00 0. -1.
         24    2    1    2    0    0  0.83328532998E+02  0.23858180658E+03 -0.31928116511E+02  0.26703883752E+03  0.80158675627E+02 0.  0.
        254    2    1    2    0    0 -0.83328532998E+02 -0.23858180658E+03 -0.20558903826E+04  0.22603277872E+04  0.90472731661E+03 0.  0.
         23    2    4    4    0    0  0.10950151437E+03  0.18142643360E+03 -0.15589538746E+04  0.15756902511E+04  0.86927853198E+02 0.  0.
         23    2    4    4    0    0 -0.19283004736E+03 -0.42000824018E+03 -0.49693650799E+03  0.68463753613E+03  0.90511402119E+02 0.  0.
          2    1    3    3  502    0 -0.13121495689E+02  0.14923267766E+02 -0.10641921747E+02  0.22541696218E+02  0.00000000000E+00 0. -1.
         -1    1    3    3    0  502  0.96450028687E+02  0.22365853881E+03 -0.21286194764E+02  0.24449714130E+03  0.00000000000E+00 0.  1.
         13    1    5    5    0    0  0.45473114747E+02  0.65498253077E+02 -0.90219924820E+03  0.90571590953E+03  0.00000000000E+00 0. -1.
        -13    1    5    5    0    0  0.64028399619E+02  0.11592818053E+03 -0.65675462644E+03  0.66997434156E+03  0.00000000000E+00 0.  1.
          3    1    6    6  503    0 -0.10344801402E+03 -0.15182188930E+03 -0.15042589238E+03  0.23744331276E+03  0.00000000000E+00 0. -1.
         -3    1    6    6    0  503 -0.89382033343E+02 -0.26818635088E+03 -0.34651061561E+03  0.44719422336E+03  0.00000000000E+00 0.  1.
<mgrwt>
<rscale>  0 0.14242879E+04</rscale>
<asrwt>0</asrwt>
<pdfrwt beam="1">  1        2 0.35501425E+00 0.14242879E+04</pdfrwt>
<pdfrwt beam="2">  1       -1 0.33811394E-01 0.14242879E+04</pdfrwt>
<totfact> 0.41090542E+01</totfact>
</mgrwt>
</event>
<event>
12    7  0.1546317E-007  0.4027524E+04  0.7818608E-02  0.7999017E-01
         -1   -1    0    0    0  501 -0.00000000000E+00  0.00000000000E+00  0.12676543021E+04  0.12676543021E+04  0.00000000000E+00 0.  1.
          2   -1    0    0  501    0  0.00000000000E+00 -0.00000000000E+00 -0.31990084800E+04  0.31990084800E+04  0.00000000000E+00 0. -1.
         24    2    1    2    0    0  0.20028413052E+03 -0.16367341579E+04 -0.19822490445E+04  0.25795933808E+04  0.77319460033E+02 0.  0.
        254    2    1    2    0    0 -0.20028413052E+03  0.16367341579E+04  0.50894866711E+02  0.18870694013E+04  0.91620314414E+03 0.  0.
         23    2    4    4    0    0  0.20190845426E+03  0.34786960937E+03 -0.27479533704E+03  0.49545285674E+03  0.90447592364E+02 0.  0.
         23    2    4    4    0    0 -0.40219258478E+03  0.12888645486E+04  0.32569020375E+03  0.13916165446E+04  0.87130928006E+02 0.  0.
          2    1    3    3  502    0  0.19606399897E+03 -0.15253026807E+04 -0.18201384541E+04  0.23828330515E+04  0.00000000000E+00 0. -1.
         -1    1    3    3    0  502  0.42201315416E+01 -0.11143147724E+03 -0.16211059040E+03  0.19676032921E+03  0.00000000000E+00 0.  1.
         13    1    5    5    0    0  0.19972749935E+02  0.95386624036E+02 -0.38836135634E+02  0.10490836104E+03  0.00000000000E+00 0.  1.
        -13    1    5    5    0    0  0.18193570432E+03  0.25248298534E+03 -0.23595920140E+03  0.39054449570E+03  0.00000000000E+00 0. -1.
          2    1    6    6  503    0 -0.23397892521E+03  0.61892215662E+03  0.13937879124E+03  0.67619318308E+03  0.00000000000E+00 0. -1.
         -2    1    6    6    0  503 -0.16821365957E+03  0.66994239194E+03  0.18631141251E+03  0.71542336152E+03  0.00000000000E+00 0.  1.
<mgrwt>
<rscale>  0 0.40275237E+04</rscale>
<asrwt>0</asrwt>
<pdfrwt beam="1">  1        2 0.49215515E+00 0.40275237E+04</pdfrwt>
<pdfrwt beam="2">  1       -1 0.19502374E+00 0.40275237E+04</pdfrwt>
<totfact> 0.18893479E-01</totfact>
</mgrwt>
</event>
<event>
12    7  0.1546317E-007  0.2433090E+04  0.7818608E-02  0.8427218E-01
          2   -1    0    0  501    0  0.00000000000E+00  0.00000000000E+00  0.20640718765E+04  0.20640718765E+04  0.00000000000E+00 0. -1.
         -1   -1    0    0    0  501 -0.00000000000E+00 -0.00000000000E+00 -0.71702049593E+03  0.71702049593E+03  0.00000000000E+00 0.  1.
         24    2    1    2    0    0  0.52203096482E+03  0.90926625744E+03  0.45879836335E+03  0.11474505859E+04  0.82858034014E+02 0.  0.
        254    2    1    2    0    0 -0.52203096482E+03 -0.90926625744E+03  0.88825301719E+03  0.16336417865E+04  0.88346511463E+03 0.  0.
         23    2    4    4    0    0  0.23842255710E+03 -0.19807862720E+03  0.25823859177E+03  0.41336762132E+03  0.90028672019E+02 0.  0.
         23    2    4    4    0    0 -0.76045352192E+03 -0.71118763025E+03  0.63001442542E+03  0.12202741651E+04  0.89852420472E+02 0.  0.
          4    1    3    3  502    0  0.36546350462E+03  0.59200855537E+03  0.33905105117E+03  0.77394658610E+03  0.00000000000E+00 0. -1.
         -3    1    3    3    0  502  0.15656746020E+03  0.31725770208E+03  0.11974731218E+03  0.37350399984E+03  0.00000000000E+00 0.  1.
         13    1    5    5    0    0 -0.11441403497E+01  0.20536750961E+01  0.21400162278E+02  0.21528901134E+02  0.00000000000E+00 0. -1.
        -13    1    5    5    0    0  0.23956669745E+03 -0.20013230229E+03  0.23683842950E+03  0.39183872018E+03  0.00000000000E+00 0.  1.
          1    1    6    6  503    0 -0.10698901934E+03 -0.62701035501E+02  0.63701032596E+02  0.13941266681E+03  0.00000000000E+00 0. -1.
         -1    1    6    6    0  503 -0.65346450258E+03 -0.64848659475E+03  0.56631339282E+03  0.10808614983E+04  0.00000000000E+00 0.  1.
<mgrwt>
<rscale>  0 0.24330901E+04</rscale>
<asrwt>0</asrwt>
<pdfrwt beam="1">  1        2 0.31754952E+00 0.24330901E+04</pdfrwt>
<pdfrwt beam="2">  1       -1 0.11031085E+00 0.24330901E+04</pdfrwt>
<totfact> 0.47600543E+00</totfact>
</mgrwt>
</event>
<event>
12    7  0.1546317E-007  0.1690670E+04  0.7818608E-02  0.8766704E-01
         -1   -1    0    0    0  501 -0.00000000000E+00  0.00000000000E+00  0.50327118975E+03  0.50327118975E+03  0.00000000000E+00 0.  1.
          2   -1    0    0  501    0  0.00000000000E+00 -0.00000000000E+00 -0.14198929392E+04  0.14198929392E+04  0.00000000000E+00 0. -1.
         24    2    1    2    0    0 -0.52361891222E+03 -0.20702053068E+03 -0.57472731063E+03  0.80853096684E+03  0.79853474539E+02 0.  0.
        254    2    1    2    0    0  0.52361891222E+03  0.20702053068E+03 -0.34189443884E+03  0.11146331621E+04  0.89915572259E+03 0.  0.
         23    2    4    4    0    0 -0.25233755735E+02 -0.20446621228E+03 -0.35704591258E+03  0.42268651024E+03  0.93482232824E+02 0.  0.
         23    2    4    4    0    0  0.54885266795E+03  0.41148674297E+03  0.15151473742E+02  0.69194665190E+03  0.89442781491E+02 0.  0.
          2    1    3    3  502    0 -0.36677679068E+03 -0.14691588991E+03 -0.34902614743E+03  0.52718947683E+03  0.00000000000E+00 0. -1.
         -1    1    3    3    0  502 -0.15684212154E+03 -0.60104640771E+02 -0.22570116320E+03  0.28134149001E+03  0.00000000000E+00 0.  1.
         13    1    5    5    0    0 -0.37116664275E+02 -0.78751190722E+02 -0.80062552899E+02  0.11827683283E+03  0.00000000000E+00 0. -1.
        -13    1    5    5    0    0  0.11882908540E+02 -0.12571502156E+03 -0.27698335968E+03  0.30440967741E+03  0.00000000000E+00 0.  1.
          4    1    6    6  503    0  0.39446923871E+03  0.26383273949E+03  0.43011090389E+02  0.47651196062E+03  0.00000000000E+00 0.  1.
         -4    1    6    6    0  503  0.15438342924E+03  0.14765400348E+03 -0.27859616648E+02  0.21543469128E+03  0.00000000000E+00 0. -1.
<mgrwt>
<rscale>  0 0.16906699E+04</rscale>
<asrwt>0</asrwt>
<pdfrwt beam="1">  1        2 0.21844507E+00 0.16906699E+04</pdfrwt>
<pdfrwt beam="2">  1       -1 0.77426338E-01 0.16906699E+04</pdfrwt>
<totfact> 0.25579561E+01</totfact>
</mgrwt>
</event>
<event>
12    7  0.1546317E-007  0.2567180E+04  0.7818608E-02  0.8379436E-01
          2   -1    0    0  501    0  0.00000000000E+00  0.00000000000E+00  0.52639318374E+03  0.52639318374E+03  0.00000000000E+00 0. -1.
         -1   -1    0    0    0  501 -0.00000000000E+00 -0.00000000000E+00 -0.31299852849E+04  0.31299852849E+04  0.00000000000E+00 0.  1.
         24    2    1    2    0    0 -0.41951930222E+03 -0.31972693053E+03  0.26637356272E+03  0.59647249455E+03  0.81257656832E+02 0.  0.
        254    2    1    2    0    0  0.41951930222E+03  0.31972693053E+03 -0.28699656639E+04  0.30599059741E+04  0.92092339715E+03 0.  0.
         23    2    4    4    0    0  0.94991165340E+02 -0.25863063791E+03 -0.36259094246E+03  0.46468835275E+03  0.92465914073E+02 0.  0.
         23    2    4    4    0    0  0.32452813688E+03  0.57835756844E+03 -0.25073747215E+04  0.25952176214E+04  0.91708886971E+02 0.  0.
          4    1    3    3  502    0 -0.39771193108E+03 -0.27480347437E+03  0.23512396392E+03  0.53756395718E+03  0.00000000000E+00 0. -1.
         -3    1    3    3    0  502 -0.21807371135E+02 -0.44923456162E+02  0.31249598796E+02  0.58908537363E+02  0.00000000000E+00 0.  1.
         13    1    5    5    0    0  0.32801587159E+02 -0.18449591937E+03 -0.28289474436E+03  0.33932893301E+03  0.00000000000E+00 0. -1.
        -13    1    5    5    0    0  0.62189578180E+02 -0.74134718536E+02 -0.79696198095E+02  0.12535941974E+03  0.00000000000E+00 0.  1.
          2    1    6    6  503    0  0.77549344599E+02  0.20468752812E+03 -0.71720988041E+03  0.74986725330E+03  0.00000000000E+00 0. -1.
         -2    1    6    6    0  503  0.24697879228E+03  0.37367004033E+03 -0.17901648411E+04  0.18453503681E+04  0.00000000000E+00 0.  1.
<mgrwt>
<rscale>  0 0.25671797E+04</rscale>
<asrwt>0</asrwt>
<pdfrwt beam="1">  1        2 0.80983566E-01 0.25671797E+04</pdfrwt>
<pdfrwt beam="2">  1       -1 0.48153620E+00 0.25671797E+04</pdfrwt>
<totfact> 0.11545303E-01</totfact>
</mgrwt>
</event>
<event>
12    7  0.1546317E-007  0.3236304E+04  0.7818608E-02  0.8179295E-01
         -1   -1    0    0    0  501 -0.00000000000E+00  0.00000000000E+00  0.16057569805E+04  0.16057569805E+04  0.00000000000E+00 0.  1.
          2   -1    0    0  501    0  0.00000000000E+00 -0.00000000000E+00 -0.16306427002E+04  0.16306427002E+04  0.00000000000E+00 0. -1.
         24    2    1    2    0    0 -0.14052551577E+04 -0.44692924018E+02 -0.37517679350E+03  0.14573224795E+04  0.79320029877E+02 0.  0.
        254    2    1    2    0    0  0.14052551577E+04  0.44692924018E+02  0.35029107380E+03  0.17790772011E+04  0.10323140682E+04 0.  0.
         23    2    4    4    0    0  0.14621184544E+03 -0.31576767914E+03  0.29451382122E+03  0.46514886904E+03  0.92401020286E+02 0.  0.
         23    2    4    4    0    0  0.12590433123E+04  0.36046060316E+03  0.55777252583E+02  0.13139283321E+04  0.90413777735E+02 0.  0.
          2    1    3    3  502    0 -0.39695394874E+03  0.87085745784E+01 -0.76419731097E+02  0.40433680514E+03  0.00000000000E+00 0. -1.
         -1    1    3    3    0  502 -0.10083012090E+04 -0.53401498597E+02 -0.29875706240E+03  0.10529856744E+04  0.00000000000E+00 0.  1.
         13    1    5    5    0    0  0.14825343038E+02 -0.83256197130E+02  0.11741752526E+03  0.14470058879E+03  0.00000000000E+00 0.  1.
        -13    1    5    5    0    0  0.13138650240E+03 -0.23251148201E+03  0.17709629596E+03  0.32044828026E+03  0.00000000000E+00 0. -1.
          2    1    6    6  503    0  0.30247968833E+03  0.50456060852E+02  0.29023670096E+02  0.30802946183E+03  0.00000000000E+00 0. -1.
         -2    1    6    6    0  503  0.95656362398E+03  0.31000454231E+03  0.26753582487E+02  0.10058988702E+04  0.00000000000E+00 0.  1.
<mgrwt>
<rscale>  0 0.32363040E+04</rscale>
<asrwt>0</asrwt>
<pdfrwt beam="1">  1        2 0.25086811E+00 0.32363040E+04</pdfrwt>
<pdfrwt beam="2">  1       -1 0.24703954E+00 0.32363040E+04</pdfrwt>
<totfact> 0.74682628E-01</totfact>
</mgrwt>
</event>
<event>
12    7  0.1546317E-007  0.1535377E+04  0.7818608E-02  0.8861262E-01
         -1   -1    0    0    0  501 -0.00000000000E+00  0.00000000000E+00  0.19264978352E+03  0.19264978352E+03  0.00000000000E+00 0.  1.
          2   -1    0    0  501    0  0.00000000000E+00 -0.00000000000E+00 -0.30591569871E+04  0.30591569871E+04  0.00000000000E+00 0. -1.
         24    2    1    2    0    0  0.28174002927E+03  0.13793610074E+03 -0.11361724976E+03  0.34327083784E+03  0.80759994355E+02 0.  0.
        254    2    1    2    0    0 -0.28174002927E+03 -0.13793610074E+03 -0.27528899539E+04  0.29085359328E+04  0.88474536586E+03 0.  0.
         23    2    4    4    0    0 -0.13868759351E+03 -0.15475726954E+03 -0.96088894433E+02  0.24619938751E+03  0.90537294570E+02 0.  0.
         23    2    4    4    0    0 -0.14305243576E+03  0.16821168800E+02 -0.26568010594E+04  0.26623365453E+04  0.93258028865E+02 0.  0.
          4    1    3    3  502    0  0.69675658336E+02  0.19847220461E+01 -0.42030854625E+02  0.81395511096E+02  0.00000000000E+00 0. -1.
         -1    1    3    3    0  502  0.21206437093E+03  0.13595137870E+03 -0.71586395131E+02  0.26187532674E+03  0.00000000000E+00 0.  1.
         13    1    5    5    0    0 -0.14601134930E+03 -0.13894560222E+03 -0.10429098682E+03  0.22694008996E+03  0.00000000000E+00 0. -1.
        -13    1    5    5    0    0  0.73237557882E+01 -0.15811667327E+02  0.82020923922E+01  0.19259297550E+02  0.00000000000E+00 0.  1.
          4    1    6    6  503    0 -0.89289157950E+02  0.54195096751E+02 -0.18073734029E+04  0.18103889857E+04  0.00000000000E+00 0. -1.
         -4    1    6    6    0  503 -0.53763277808E+02 -0.37373927951E+02 -0.84942765659E+03  0.85194755960E+03  0.00000000000E+00 0.  1.
<mgrwt>
<rscale>  0 0.15353774E+04</rscale>
<asrwt>0</asrwt>
<pdfrwt beam="1">  1        2 0.47063948E+00 0.15353774E+04</pdfrwt>
<pdfrwt beam="2">  1       -1 0.29638432E-01 0.15353774E+04</pdfrwt>
<totfact> 0.18411625E+01</totfact>
</mgrwt>
</event>
<event>
12    7  0.1546317E-007  0.1858414E+04  0.7818608E-02  0.8675838E-01
         -1   -1    0    0    0  501 -0.00000000000E+00  0.00000000000E+00  0.51131541687E+03  0.51131541687E+03  0.00000000000E+00 0.  1.
          2   -1    0    0  501    0  0.00000000000E+00 -0.00000000000E+00 -0.16886369114E+04  0.16886369114E+04  0.00000000000E+00 0. -1.
         24    2    1    2    0    0  0.49173124821E+03  0.22838315650E+03 -0.99605305495E+03  0.11371316363E+04  0.83595355138E+02 0.  0.
        254    2    1    2    0    0 -0.49173124821E+03 -0.22838315650E+03 -0.18126843961E+03  0.10628206920E+04  0.89597493798E+03 0.  0.
         23    2    4    4    0    0 -0.65623118594E+03  0.85468579270E+02 -0.19584453604E+03  0.69615512223E+03  0.91283210234E+02 0.  0.
         23    2    4    4    0    0  0.16449993773E+03 -0.31385173577E+03  0.14576096430E+02  0.36666556976E+03  0.93102287295E+02 0.  0.
          4    1    3    3  502    0  0.49081003533E+03  0.22195808811E+03 -0.99354483560E+03  0.11301730947E+04  0.00000000000E+00 0. -1.
         -3    1    3    3    0  502  0.92121287326E+00  0.64250683877E+01 -0.25082193481E+01  0.69585416032E+01  0.00000000000E+00 0.  1.
         13    1    5    5    0    0 -0.37037705405E+02  0.27508973586E+02 -0.12971182797E+02  0.47924803939E+02  0.00000000000E+00 0. -1.
        -13    1    5    5    0    0 -0.61919348054E+03  0.57959605684E+02 -0.18287335325E+03  0.64823031830E+03  0.00000000000E+00 0.  1.
          3    1    6    6  503    0  0.61209825954E+02 -0.11312940044E+03 -0.39469742244E+02  0.13454651460E+03  0.00000000000E+00 0. -1.
         -3    1    6    6    0  503  0.10329011178E+03 -0.20072233533E+03  0.54045838674E+02  0.23211905516E+03  0.00000000000E+00 0.  1.
<mgrwt>
<rscale>  0 0.18584145E+04</rscale>
<asrwt>0</asrwt>
<pdfrwt beam="1">  1        2 0.25979029E+00 0.18584145E+04</pdfrwt>
<pdfrwt beam="2">  1       -1 0.78663910E-01 0.18584145E+04</pdfrwt>
<totfact> 0.17219962E+01</totfact>
</mgrwt>
</event>
<event>
12    7  0.1546317E-007  0.2416876E+04  0.7818608E-02  0.8433212E-01
         -1   -1    0    0    0  501 -0.00000000000E+00  0.00000000000E+00  0.52097934582E+03  0.52097934582E+03  0.00000000000E+00 0.  1.
          2   -1    0    0  501    0  0.00000000000E+00 -0.00000000000E+00 -0.28030334957E+04  0.28030334957E+04  0.00000000000E+00 0. -1.
         24    2    1    2    0    0  0.62212190256E+03  0.10137847312E+03 -0.21236983205E+04  0.22167176829E+04  0.80183994558E+02 0.  0.
        254    2    1    2    0    0 -0.62212190256E+03 -0.10137847312E+03 -0.15835582940E+03  0.11072951586E+04  0.89650027500E+03 0.  0.
         23    2    4    4    0    0 -0.76107258722E+02  0.85056101509E+02 -0.43724372841E+03  0.46113189132E+03  0.91835112736E+02 0.  0.
         23    2    4    4    0    0 -0.54601464384E+03 -0.18643457463E+03  0.27888789901E+03  0.64616326726E+03  0.82817062522E+02 0.  0.
          4    1    3    3  502    0  0.28761718410E+03  0.81054563653E+02 -0.92620633479E+03  0.97321717077E+03  0.00000000000E+00 0. -1.
         -3    1    3    3    0  502  0.33450471846E+03  0.20323909472E+02 -0.11974919857E+04  0.12435005122E+04  0.00000000000E+00 0.  1.
         13    1    5    5    0    0 -0.29571351709E+02 -0.23766679247E+01 -0.30680633543E+02  0.42678034947E+02  0.00000000000E+00 0.  1.
        -13    1    5    5    0    0 -0.46535907013E+02  0.87432769433E+02 -0.40656309486E+03  0.41845385638E+03  0.00000000000E+00 0. -1.
          2    1    6    6  503    0 -0.54034780174E+03 -0.18428589653E+03  0.28453023074E+03  0.63788281895E+03  0.00000000000E+00 0. -1.
         -2    1    6    6    0  503 -0.56668420978E+01 -0.21486781035E+01 -0.56423317310E+01  0.82804483161E+01  0.00000000000E+00 0.  1.
<mgrwt>
<rscale>  0 0.24168761E+04</rscale>
<asrwt>0</asrwt>
<pdfrwt beam="1">  1        2 0.43123591E+00 0.24168761E+04</pdfrwt>
<pdfrwt beam="2">  1       -1 0.80150671E-01 0.24168761E+04</pdfrwt>
<totfact> 0.36545081E+00</totfact>
</mgrwt>
</event>
<event>
12    7  0.1546317E-007  0.1355519E+04  0.7818608E-02  0.8986661E-01
         -1   -1    0    0    0  501 -0.00000000000E+00  0.00000000000E+00  0.32788281208E+03  0.32788281208E+03  0.00000000000E+00 0.  1.
          2   -1    0    0  501    0  0.00000000000E+00 -0.00000000000E+00 -0.14009821439E+04  0.14009821439E+04  0.00000000000E+00 0. -1.
         24    2    1    2    0    0  0.37612608218E+03  0.25697576484E+03 -0.59509335208E+03  0.75358794523E+03  0.79065290047E+02 0.  0.
        254    2    1    2    0    0 -0.37612608218E+03 -0.25697576484E+03 -0.47800597975E+03  0.97527701077E+03  0.71775215614E+03 0.  0.
         23    2    4    4    0    0 -0.46874834088E+02 -0.28951364410E+03  0.79750569163E+02  0.31870300992E+03  0.95896063861E+02 0.  0.
         23    2    4    4    0    0 -0.32925124809E+03  0.32537879259E+02 -0.55775654892E+03  0.65657400085E+03  0.10262530279E+03 0.  0.
          2    1    3    3  502    0  0.12038333306E+03  0.86003741724E+02 -0.25654304340E+03  0.29614713166E+03  0.00000000000E+00 0. -1.
         -1    1    3    3    0  502  0.25574274912E+03  0.17097202311E+03 -0.33855030868E+03  0.45744081357E+03  0.00000000000E+00 0.  1.
         13    1    5    5    0    0 -0.59990907662E+02 -0.20762340620E+03  0.91973073311E+02  0.23487322967E+03  0.00000000000E+00 0. -1.
        -13    1    5    5    0    0  0.13116073574E+02 -0.81890237898E+02 -0.12222504148E+02  0.83829780249E+02  0.00000000000E+00 0.  1.
          3    1    6    6  503    0 -0.74517289770E+02 -0.32557025568E+02 -0.10237068058E+03  0.13073845123E+03  0.00000000000E+00 0. -1.
         -3    1    6    6    0  503 -0.25473395832E+03  0.65094904827E+02 -0.45538586833E+03  0.52583554961E+03  0.00000000000E+00 0.  1.
<mgrwt>
<rscale>  0 0.13555190E+04</rscale>
<asrwt>0</asrwt>
<pdfrwt beam="1">  1        2 0.21553572E+00 0.13555190E+04</pdfrwt>
<pdfrwt beam="2">  1       -1 0.50443508E-01 0.13555190E+04</pdfrwt>
<totfact> 0.63458898E+01</totfact>
</mgrwt>
</event>
<event>
12    7  0.1546317E-007  0.2150809E+04  0.7818608E-02  0.8539186E-01
          2   -1    0    0  501    0  0.00000000000E+00  0.00000000000E+00  0.20565187050E+04  0.20565187050E+04  0.00000000000E+00 0. -1.
         -1   -1    0    0    0  501 -0.00000000000E+00 -0.00000000000E+00 -0.56235578953E+03  0.56235578953E+03  0.00000000000E+00 0.  1.
         24    2    1    2    0    0  0.18070816628E+03  0.21538393148E+02  0.16780058937E+04  0.16904991940E+04  0.94680524616E+02 0.  0.
        254    2    1    2    0    0 -0.18070816628E+03 -0.21538393148E+02 -0.18384297827E+03  0.92837530054E+03  0.89160704027E+03 0.  0.
         23    2    4    4    0    0  0.26954608497E+03 -0.26083102379E+03 -0.26418676728E+02  0.38704925816E+03  0.91767460868E+02 0.  0.
         23    2    4    4    0    0 -0.45025425124E+03  0.23929263064E+03 -0.15742430154E+03  0.54132604238E+03  0.90893451944E+02 0.  0.
          2    1    3    3  502    0  0.53712691467E+02  0.44684515003E+02  0.80135107550E+03  0.80439126382E+03  0.00000000000E+00 0. -1.
         -1    1    3    3    0  502  0.12699547481E+03 -0.23146121855E+02  0.87665481823E+03  0.88610793016E+03  0.00000000000E+00 0.  1.
         13    1    5    5    0    0  0.34885770355E+02 -0.38944410780E+01 -0.16880344855E+02  0.38950348997E+02  0.00000000000E+00 0. -1.
        -13    1    5    5    0    0  0.23466031461E+03 -0.25693658271E+03 -0.95383318738E+01  0.34809890916E+03  0.00000000000E+00 0.  1.
          2    1    6    6  503    0 -0.24565041425E+03  0.10716219525E+03 -0.40131629413E+02  0.27099522097E+03  0.00000000000E+00 0. -1.
         -2    1    6    6    0  503 -0.20460383699E+03  0.13213043539E+03 -0.11729267212E+03  0.27033082141E+03  0.00000000000E+00 0.  1.
<mgrwt>
<rscale>  0 0.21508093E+04</rscale>
<asrwt>0</asrwt>
<pdfrwt beam="1">  1        2 0.31638749E+00 0.21508093E+04</pdfrwt>
<pdfrwt beam="2">  1       -1 0.86516276E-01 0.21508093E+04</pdfrwt>
<totfact> 0.85506668E+00</totfact>
</mgrwt>
</event>
<event>
12    7  0.1546317E-007  0.2370282E+04  0.7818608E-02  0.8450714E-01
         -1   -1    0    0    0  501 -0.00000000000E+00  0.00000000000E+00  0.14232150498E+04  0.14232150498E+04  0.00000000000E+00 0.  1.
          2   -1    0    0  501    0  0.00000000000E+00 -0.00000000000E+00 -0.98689185388E+03  0.98689185388E+03  0.00000000000E+00 0. -1.
         24    2    1    2    0    0 -0.59106489442E+03  0.81802727304E+03  0.18619566050E+03  0.10292633940E+04  0.78663722847E+02 0.  0.
        254    2    1    2    0    0  0.59106489442E+03 -0.81802727304E+03  0.25012753543E+03  0.13808435097E+04  0.90864662303E+03 0.  0.
         23    2    4    4    0    0  0.60753095720E+03 -0.60955195909E+03 -0.18935873274E+03  0.88597762142E+03  0.91935636239E+02 0.  0.
         23    2    4    4    0    0 -0.16466062777E+02 -0.20847531395E+03  0.43948626817E+03  0.49486588831E+03  0.89504076765E+02 0.  0.
          2    1    3    3  502    0 -0.21506204189E+03  0.24520360094E+03  0.39561107138E+02  0.32854462250E+03  0.00000000000E+00 0. -1.
         -1    1    3    3    0  502 -0.37600285253E+03  0.57282367210E+03  0.14663455336E+03  0.70071877145E+03  0.00000000000E+00 0.  1.
         13    1    5    5    0    0  0.39542097844E+03 -0.42850688418E+03 -0.16540621924E+03  0.60608177447E+03  0.00000000000E+00 0. -1.
        -13    1    5    5    0    0  0.21210997875E+03 -0.18104507491E+03 -0.23952513492E+02  0.27989584695E+03  0.00000000000E+00 0.  1.
          3    1    6    6  503    0 -0.42655750133E+02 -0.15409128193E+03  0.25720070254E+03  0.30284622760E+03  0.00000000000E+00 0. -1.
         -3    1    6    6    0  503  0.26189687356E+02 -0.54384032017E+02  0.18228556563E+03  0.19201966071E+03  0.00000000000E+00 0.  1.
<mgrwt>
<rscale>  0 0.23702821E+04</rscale>
<asrwt>0</asrwt>
<pdfrwt beam="1">  1        2 0.15182952E+00 0.23702821E+04</pdfrwt>
<pdfrwt beam="2">  1       -1 0.21895616E+00 0.23702821E+04</pdfrwt>
<totfact> 0.29524371E+00</totfact>
</mgrwt>
</event>
<event>
12    7  0.1546317E-007  0.2723296E+04  0.7818608E-02  0.8327486E-01
         -1   -1    0    0    0  501 -0.00000000000E+00  0.00000000000E+00  0.12821152608E+04  0.12821152608E+04  0.00000000000E+00 0.  1.
          2   -1    0    0  501    0  0.00000000000E+00 -0.00000000000E+00 -0.14461143670E+04  0.14461143670E+04  0.00000000000E+00 0. -1.
         24    2    1    2    0    0 -0.23514130828E+03  0.25526770665E+02 -0.12621126706E+04  0.12865565813E+04  0.79726988277E+02 0.  0.
        254    2    1    2    0    0  0.23514130828E+03 -0.25526770665E+02  0.10981135645E+04  0.14416730465E+04  0.90367290624E+03 0.  0.
         23    2    4    4    0    0  0.11672010466E+03  0.42858700085E+03  0.47566561905E+03  0.65727715208E+03  0.91897080371E+02 0.  0.
         23    2    4    4    0    0  0.11842120362E+03 -0.45411377151E+03  0.62244794548E+03  0.78439589440E+03  0.87135385337E+02 0.  0.
          2    1    3    3  502    0 -0.15849089341E+03  0.18578583632E+01 -0.64200926525E+03  0.66128565053E+03  0.00000000000E+00 0. -1.
         -1    1    3    3    0  502 -0.76650414870E+02  0.23668912301E+02 -0.62010340539E+03  0.62527093079E+03  0.00000000000E+00 0.  1.
         13    1    5    5    0    0  0.20581067270E+02  0.32696370807E+02  0.82530479598E+02  0.91125808949E+02  0.00000000000E+00 0.  1.
        -13    1    5    5    0    0  0.96139037394E+02  0.39589063004E+03  0.39313513945E+03  0.56615134313E+03  0.00000000000E+00 0. -1.
          1    1    6    6  503    0  0.11353336280E+03 -0.27435828750E+03  0.36877980816E+03  0.47345627179E+03  0.00000000000E+00 0. -1.
         -1    1    6    6    0  503  0.48878408226E+01 -0.17975548401E+03  0.25366813731E+03  0.31093962261E+03  0.00000000000E+00 0.  1.
<mgrwt>
<rscale>  0 0.27232960E+04</rscale>
<asrwt>0</asrwt>
<pdfrwt beam="1">  1        2 0.22247913E+00 0.27232960E+04</pdfrwt>
<pdfrwt beam="2">  1       -1 0.19724850E+00 0.27232960E+04</pdfrwt>
<totfact> 0.21359305E+00</totfact>
</mgrwt>
</event>
<event>
12    7  0.1546317E-007  0.1584931E+04  0.7818608E-02  0.8829860E-01
          4   -1    0    0  501    0  0.00000000000E+00  0.00000000000E+00  0.61511838984E+03  0.61511838984E+03  0.00000000000E+00 0. -1.
         -3   -1    0    0    0  501 -0.00000000000E+00 -0.00000000000E+00 -0.10209436045E+04  0.10209436045E+04  0.00000000000E+00 0.  1.
         24    2    1    2    0    0 -0.21452831326E+03 -0.45632205254E+03 -0.31356760959E+03  0.59911406374E+03  0.79754641073E+02 0.  0.
        254    2    1    2    0    0  0.21452831326E+03  0.45632205254E+03 -0.92257605117E+02  0.10369479306E+04  0.90138633911E+03 0.  0.
         23    2    4    4    0    0  0.38065857743E+02 -0.18915538966E+03 -0.26156890462E+03  0.34070342912E+03  0.10213600630E+03 0.  0.
         23    2    4    4    0    0  0.17646245552E+03  0.64547744220E+03  0.16931129950E+03  0.69624450152E+03  0.91158999384E+02 0.  0.
          2    1    3    3  502    0 -0.78023054638E+02 -0.95133428676E+02 -0.94809452484E+02  0.15532803542E+03  0.00000000000E+00 0. -1.
         -1    1    3    3    0  502 -0.13650525862E+03 -0.36118862386E+03 -0.21875815710E+03  0.44378602832E+03  0.00000000000E+00 0.  1.
         13    1    5    5    0    0 -0.20422146758E+02 -0.10818574997E+03 -0.18323095722E+03  0.21376343060E+03  0.00000000000E+00 0.  1.
        -13    1    5    5    0    0  0.58488004501E+02 -0.80969639687E+02 -0.78337947394E+02  0.12693999852E+03  0.00000000000E+00 0. -1.
          1    1    6    6  503    0  0.71530471694E+02  0.40785194466E+03  0.81344421313E+02  0.42199138856E+03  0.00000000000E+00 0. -1.
         -1    1    6    6    0  503  0.10493198382E+03  0.23762549754E+03  0.87966878189E+02  0.27425311296E+03  0.00000000000E+00 0.  1.
<mgrwt>
<rscale>  0 0.15849305E+04</rscale>
<asrwt>0</asrwt>
<pdfrwt beam="1">  1        4 0.94633599E-01 0.15849305E+04</pdfrwt>
<pdfrwt beam="2">  1       -3 0.15706825E+00 0.15849305E+04</pdfrwt>
<totfact> 0.59110639E-01</totfact>
</mgrwt>
</event>
<event>
12    7  0.1546317E-007  0.2065272E+04  0.7818608E-02  0.8576697E-01
         -1   -1    0    0    0  501 -0.00000000000E+00  0.00000000000E+00  0.99562826470E+03  0.99562826470E+03  0.00000000000E+00 0.  1.
          2   -1    0    0  501    0  0.00000000000E+00 -0.00000000000E+00 -0.10710197821E+04  0.10710197821E+04  0.00000000000E+00 0. -1.
         24    2    1    2    0    0 -0.61130247742E+03 -0.56679536200E+03  0.27952482045E+02  0.83788712620E+03  0.79534858555E+02 0.  0.
        254    2    1    2    0    0  0.61130247742E+03  0.56679536200E+03 -0.10334399942E+03  0.12287609206E+04  0.89678632708E+03 0.  0.
         23    2    4    4    0    0  0.27093325496E+03  0.37002450299E+03  0.37831794977E+03  0.60145715809E+03  0.91122337809E+02 0.  0.
         23    2    4    4    0    0  0.34036922246E+03  0.19677085901E+03 -0.48166194918E+03  0.62730376249E+03  0.83317456674E+02 0.  0.
          4    1    3    3  502    0 -0.85609727004E+02 -0.88267855510E+02 -0.23361077923E+02  0.12516381121E+03  0.00000000000E+00 0. -1.
         -1    1    3    3    0  502 -0.52569275042E+03 -0.47852750649E+03  0.51313559969E+02  0.71272331500E+03  0.00000000000E+00 0.  1.
         13    1    5    5    0    0  0.14856892302E+03  0.12708561541E+03  0.15381756167E+03  0.24876358418E+03  0.00000000000E+00 0.  1.
        -13    1    5    5    0    0  0.12236433194E+03  0.24293888757E+03  0.22450038810E+03  0.35269357391E+03  0.00000000000E+00 0. -1.
          1    1    6    6  503    0  0.24061114196E+03  0.10619933070E+03 -0.35945646081E+03  0.44539978300E+03  0.00000000000E+00 0. -1.
         -1    1    6    6    0  503  0.99758080502E+02  0.90571528311E+02 -0.12220548837E+03  0.18190397949E+03  0.00000000000E+00 0.  1.
<mgrwt>
<rscale>  0 0.20652724E+04</rscale>
<asrwt>0</asrwt>
<pdfrwt beam="1">  1        2 0.16477227E+00 0.20652724E+04</pdfrwt>
<pdfrwt beam="2">  1       -1 0.15317358E+00 0.20652724E+04</pdfrwt>
<totfact> 0.78898039E+00</totfact>
</mgrwt>
</event>
<event>
12    7  0.1546317E-007  0.1086583E+04  0.7818608E-02  0.9218368E-01
          2   -1    0    0  501    0  0.00000000000E+00  0.00000000000E+00  0.15881611914E+03  0.15881611914E+03  0.00000000000E+00 0. -1.
         -1   -1    0    0    0  501 -0.00000000000E+00 -0.00000000000E+00 -0.18585380982E+04  0.18585380982E+04  0.00000000000E+00 0.  1.
         24    2    1    2    0    0 -0.22112739932E+02 -0.47215276320E+02 -0.56822946054E+03  0.57607429387E+03  0.79111419250E+02 0.  0.
        254    2    1    2    0    0  0.22112739932E+02  0.47215276320E+02 -0.11314925185E+04  0.14412799234E+04  0.89123186810E+03 0.  0.
         23    2    4    4    0    0 -0.67421864462E+02  0.30174858518E+03 -0.11106537261E+04  0.11563661380E+04  0.89627169514E+02 0.  0.
         23    2    4    4    0    0  0.89534604394E+02 -0.25453330886E+03 -0.20838792405E+02  0.28491378538E+03  0.89095225042E+02 0.  0.
          4    1    3    3  502    0 -0.35992220365E+02 -0.21746095713E+02 -0.12474115615E+03  0.13163847706E+03  0.00000000000E+00 0. -1.
         -3    1    3    3    0  502  0.13879480433E+02 -0.25469180607E+02 -0.44348830438E+03  0.44443581681E+03  0.00000000000E+00 0.  1.
         13    1    5    5    0    0 -0.69108205075E+02  0.12651390892E+03 -0.43031243886E+03  0.45381770370E+03  0.00000000000E+00 0.  1.
        -13    1    5    5    0    0  0.16863406126E+01  0.17523467627E+03 -0.68034128721E+03  0.70254843434E+03  0.00000000000E+00 0. -1.
          4    1    6    6  503    0  0.85787382821E+01 -0.17211100971E+02  0.23402948945E+02  0.30290506210E+02  0.00000000000E+00 0. -1.
         -4    1    6    6    0  503  0.80955866112E+02 -0.23732220789E+03 -0.44241741351E+02  0.25462327917E+03  0.00000000000E+00 0.  1.
<mgrwt>
<rscale>  0 0.10865833E+04</rscale>
<asrwt>0</asrwt>
<pdfrwt beam="1">  1        2 0.24433248E-01 0.10865833E+04</pdfrwt>
<pdfrwt beam="2">  1       -1 0.28592895E+00 0.10865833E+04</pdfrwt>
<totfact> 0.10557012E+01</totfact>
</mgrwt>
</event>
<event>
12    7  0.1546317E-007  0.1582554E+04  0.7818608E-02  0.8831338E-01
         -1   -1    0    0    0  501 -0.00000000000E+00  0.00000000000E+00  0.20790715499E+03  0.20790715499E+03  0.00000000000E+00 0.  1.
          2   -1    0    0  501    0  0.00000000000E+00 -0.00000000000E+00 -0.30115336178E+04  0.30115336178E+04  0.00000000000E+00 0. -1.
         24    2    1    2    0    0 -0.52810217457E+03  0.34260675801E+02 -0.10902938687E+04  0.12138589753E+04  0.68170308304E+02 0.  0.
        254    2    1    2    0    0  0.52810217457E+03 -0.34260675801E+02 -0.17133325941E+04  0.20055817975E+04  0.89821159420E+03 0.  0.
         23    2    4    4    0    0  0.54619829151E+03  0.30969567576E+03 -0.77296510751E+03  0.10001026064E+04  0.92120468213E+02 0.  0.
         23    2    4    4    0    0 -0.18096116937E+02 -0.34395635156E+03 -0.94036748654E+03  0.10054791911E+04  0.89799514373E+02 0.  0.
          2    1    3    3  502    0 -0.85558067677E+02  0.89974743571E+01 -0.12604923216E+03  0.15260912953E+03  0.00000000000E+00 0. -1.
         -1    1    3    3    0  502 -0.44254410689E+03  0.25263201444E+02 -0.96424463658E+03  0.10612498457E+04  0.00000000000E+00 0.  1.
         13    1    5    5    0    0  0.31020824296E+03  0.22430824781E+03 -0.49179633575E+03  0.62322305789E+03  0.00000000000E+00 0.  1.
        -13    1    5    5    0    0  0.23599004855E+03  0.85387427949E+02 -0.28116877177E+03  0.37687954851E+03  0.00000000000E+00 0. -1.
          1    1    6    6  503    0 -0.46612556170E+02 -0.13431374560E+03 -0.43381962993E+03  0.45652205200E+03  0.00000000000E+00 0. -1.
         -1    1    6    6    0  503  0.28516439233E+02 -0.20964260596E+03 -0.50654785661E+03  0.54895713911E+03  0.00000000000E+00 0.  1.
<mgrwt>
<rscale>  0 0.15825541E+04</rscale>
<asrwt>0</asrwt>
<pdfrwt beam="1">  1        2 0.46331285E+00 0.15825541E+04</pdfrwt>
<pdfrwt beam="2">  1       -1 0.31985717E-01 0.15825541E+04</pdfrwt>
<totfact> 0.17168282E+01</totfact>
</mgrwt>
</event>
<event>
12    7  0.1546317E-007  0.1827377E+04  0.7818608E-02  0.8691874E-01
          2   -1    0    0  501    0  0.00000000000E+00  0.00000000000E+00  0.25603671664E+04  0.25603671664E+04  0.00000000000E+00 0. -1.
         -1   -1    0    0    0  501 -0.00000000000E+00 -0.00000000000E+00 -0.32605756941E+03  0.32605756941E+03  0.00000000000E+00 0.  1.
         24    2    1    2    0    0 -0.43824126929E+03 -0.14033815768E+03  0.16444176024E+04  0.17096224953E+04  0.83364361231E+02 0.  0.
        254    2    1    2    0    0  0.43824126929E+03  0.14033815768E+03  0.58989199458E+03  0.11768022405E+04  0.90837257741E+03 0.  0.
         23    2    4    4    0    0 -0.18102148331E+03 -0.19815242584E+03  0.59622120619E+02  0.28973002406E+03  0.91408578853E+02 0.  0.
         23    2    4    4    0    0  0.61926275261E+03  0.33849058352E+03  0.53026987397E+03  0.88707221646E+03  0.87457109906E+02 0.  0.
          4    1    3    3  502    0 -0.19225775586E+03 -0.53831918470E+02  0.86510447578E+03  0.88784383432E+03  0.00000000000E+00 0. -1.
         -3    1    3    3    0  502 -0.24598351343E+03 -0.86506239210E+02  0.77931312659E+03  0.82177866094E+03  0.00000000000E+00 0.  1.
         13    1    5    5    0    0 -0.79143262277E+02 -0.14700901779E+03  0.54466621074E+02  0.17561867807E+03  0.00000000000E+00 0. -1.
        -13    1    5    5    0    0 -0.10187822103E+03 -0.51143408049E+02  0.51554995452E+01  0.11411134599E+03  0.00000000000E+00 0.  1.
          1    1    6    6  503    0  0.34056512763E+03  0.17181080000E+03  0.23407435837E+03  0.44754258166E+03  0.00000000000E+00 0. -1.
         -1    1    6    6    0  503  0.27869762498E+03  0.16667978352E+03  0.29619551560E+03  0.43952963480E+03  0.00000000000E+00 0.  1.
<mgrwt>
<rscale>  0 0.18273775E+04</rscale>
<asrwt>0</asrwt>
<pdfrwt beam="1">  1        2 0.39390263E+00 0.18273775E+04</pdfrwt>
<pdfrwt beam="2">  1       -1 0.50162705E-01 0.18273775E+04</pdfrwt>
<totfact> 0.13753236E+01</totfact>
</mgrwt>
</event>
<event>
12    7  0.1546317E-007  0.1418844E+04  0.7818608E-02  0.8940290E-01
         -1   -1    0    0    0  501 -0.00000000000E+00  0.00000000000E+00  0.14263189562E+03  0.14263189562E+03  0.00000000000E+00 0.  1.
          2   -1    0    0  501    0  0.00000000000E+00 -0.00000000000E+00 -0.35285228271E+04  0.35285228271E+04  0.00000000000E+00 0. -1.
         24    2    1    2    0    0  0.26161937426E+03 -0.71716660582E+02 -0.18368521006E+04  0.18584715616E+04  0.79390991406E+02 0.  0.
        254    2    1    2    0    0 -0.26161937426E+03  0.71716660582E+02 -0.15490388309E+04  0.18126831611E+04  0.90150483444E+03 0.  0.
         23    2    4    4    0    0 -0.23500258603E+03 -0.34933317308E+03 -0.40988968214E+03  0.59455645731E+03  0.90708037936E+02 0.  0.
         23    2    4    4    0    0 -0.26616788234E+02  0.42104983366E+03 -0.11391491488E+04  0.12181267038E+04  0.90445937041E+02 0.  0.
          2    1    3    3  502    0  0.26673706262E+03 -0.74325478762E+02 -0.18012899186E+04  0.18224484378E+04  0.00000000000E+00 0. -1.
         -1    1    3    3    0  502 -0.51176883511E+01  0.26088181794E+01 -0.35562181955E+02  0.36023123848E+02  0.00000000000E+00 0.  1.
         13    1    5    5    0    0 -0.19717238203E+03 -0.33241562415E+03 -0.34802555069E+03  0.52009506760E+03  0.00000000000E+00 0.  1.
        -13    1    5    5    0    0 -0.37830203996E+02 -0.16917548933E+02 -0.61864131451E+02  0.74461389703E+02  0.00000000000E+00 0. -1.
          2    1    6    6  503    0  0.15500626359E+02  0.56539122724E+02 -0.23847750762E+03  0.24557781548E+03  0.00000000000E+00 0. -1.
         -2    1    6    6    0  503 -0.42117414593E+02  0.36451071094E+03 -0.90067164116E+03  0.97254888833E+03  0.00000000000E+00 0.  1.
<mgrwt>
<rscale>  0 0.14188445E+04</rscale>
<asrwt>0</asrwt>
<pdfrwt beam="1">  1        2 0.54284963E+00 0.14188445E+04</pdfrwt>
<pdfrwt beam="2">  1       -1 0.21943370E-01 0.14188445E+04</pdfrwt>
<totfact> 0.15293701E+01</totfact>
</mgrwt>
</event>
<event>
12    7  0.1553626E-007  0.1806853E+04  0.7818608E-02  0.8702664E-01
         -1   -1    0    0    0  501 -0.00000000000E+00  0.00000000000E+00  0.88479822441E+03  0.88479822441E+03  0.00000000000E+00 0.  1.
          2   -1    0    0  501    0  0.00000000000E+00 -0.00000000000E+00 -0.92244666335E+03  0.92244666335E+03  0.00000000000E+00 0. -1.
         24    2    1    2    0    0  0.27592446539E+03  0.46576488208E+03 -0.41452806805E+03  0.68967636129E+03  0.10367607312E+03 0.  0.
        254    2    1    2    0    0 -0.27592446539E+03 -0.46576488208E+03  0.37687962911E+03  0.11175685265E+04  0.90213630929E+03 0.  0.
         23    2    4    4    0    0  0.28365296361E+03  0.15664062442E+02  0.40062583904E+02  0.30104469012E+03  0.91205965840E+02 0.  0.
         23    2    4    4    0    0 -0.55957742900E+03 -0.48142894453E+03  0.33681704520E+03  0.81652383635E+03  0.91458874413E+02 0.  0.
          4    1    3    3  502    0  0.25636223477E+03  0.41963677004E+03 -0.40835047248E+03  0.63919224225E+03  0.00000000000E+00 0. -1.
         -3    1    3    3    0  502  0.19562230621E+02  0.46128112043E+02 -0.61775955699E+01  0.50484119033E+02  0.00000000000E+00 0.  1.
         13    1    5    5    0    0  0.27205408992E+03  0.71895169792E+01  0.15500197822E+02  0.27259011928E+03  0.00000000000E+00 0.  1.
        -13    1    5    5    0    0  0.11598873687E+02  0.84745454631E+01  0.24562386082E+02  0.28454570839E+02  0.00000000000E+00 0. -1.
          1    1    6    6  503    0 -0.31982263861E+02 -0.39476636819E+02  0.48797957994E+02  0.70445090394E+02  0.00000000000E+00 0. -1.
         -1    1    6    6    0  503 -0.52759516514E+03 -0.44195230771E+03  0.28801908721E+03  0.74607874595E+03  0.00000000000E+00 0.  1.
<mgrwt>
<rscale>  0 0.18068527E+04</rscale>
<asrwt>0</asrwt>
<pdfrwt beam="1">  1        2 0.14191487E+00 0.18068527E+04</pdfrwt>
<pdfrwt beam="2">  1       -1 0.13612280E+00 0.18068527E+04</pdfrwt>
<totfact> 0.13750500E+01</totfact>
</mgrwt>
</event>
<event>
12    7  0.1546317E-007  0.1696348E+04  0.7818608E-02  0.8763450E-01
         -1   -1    0    0    0  501 -0.00000000000E+00  0.00000000000E+00  0.11660023960E+04  0.11660023960E+04  0.00000000000E+00 0.  1.
          2   -1    0    0  501    0  0.00000000000E+00 -0.00000000000E+00 -0.61697895807E+03  0.61697895807E+03  0.00000000000E+00 0. -1.
         24    2    1    2    0    0  0.41842740862E+03  0.61600841818E+02  0.65322882791E+03  0.78200117718E+03  0.77082939073E+02 0.  0.
        254    2    1    2    0    0 -0.41842740862E+03 -0.61600841818E+02 -0.10420538997E+03  0.10009801769E+04  0.90123603526E+03 0.  0.
         23    2    4    4    0    0 -0.48864536813E+03 -0.39388362539E+03 -0.13300813303E+03  0.64857446435E+03  0.95074003867E+02 0.  0.
         23    2    4    4    0    0  0.70217959516E+02  0.33228278357E+03  0.28802743055E+02  0.35240571255E+03  0.89542046736E+02 0.  0.
          4    1    3    3  502    0  0.11258921927E+03  0.26703641056E+02  0.24281164905E+03  0.26897381593E+03  0.00000000000E+00 0. -1.
         -3    1    3    3    0  502  0.30583818934E+03  0.34897200763E+02  0.41041717886E+03  0.51302736125E+03  0.00000000000E+00 0.  1.
         13    1    5    5    0    0 -0.94155380857E+02 -0.12854470822E+03 -0.30786710847E+02  0.16228616490E+03  0.00000000000E+00 0. -1.
        -13    1    5    5    0    0 -0.39448998728E+03 -0.26533891717E+03 -0.10222142218E+03  0.48628829945E+03  0.00000000000E+00 0.  1.
          1    1    6    6  503    0  0.10489129247E+02  0.23888434157E+03  0.33458895164E+02  0.24144408907E+03  0.00000000000E+00 0. -1.
         -1    1    6    6    0  503  0.59728830268E+02  0.93398442000E+02 -0.46561521086E+01  0.11096162348E+03  0.00000000000E+00 0.  1.
<mgrwt>
<rscale>  0 0.16963478E+04</rscale>
<asrwt>0</asrwt>
<pdfrwt beam="1">  1        2 0.94919840E-01 0.16963478E+04</pdfrwt>
<pdfrwt beam="2">  1       -1 0.17938498E+00 0.16963478E+04</pdfrwt>
<totfact> 0.10957839E+01</totfact>
</mgrwt>
</event>
<event>
12    7  0.1546317E-007  0.1733671E+04  0.7818608E-02  0.8742390E-01
         -1   -1    0    0    0  501 -0.00000000000E+00  0.00000000000E+00  0.81085262914E+03  0.81085262914E+03  0.00000000000E+00 0.  1.
          2   -1    0    0  501    0  0.00000000000E+00 -0.00000000000E+00 -0.92668384393E+03  0.92668384393E+03  0.00000000000E+00 0. -1.
         24    2    1    2    0    0  0.50209475604E+03 -0.34773528697E+03 -0.18388202159E+03  0.64146731449E+03  0.68181697358E+02 0.  0.
        254    2    1    2    0    0 -0.50209475604E+03  0.34773528697E+03  0.68050806806E+02  0.10960691586E+04  0.90758895666E+03 0.  0.
         23    2    4    4    0    0 -0.14679948411E+03 -0.26043515245E+03 -0.15968657172E+03  0.35064997265E+03  0.89883507740E+02 0.  0.
         23    2    4    4    0    0 -0.35529527193E+03  0.60817043941E+03  0.22773737853E+03  0.74541918594E+03  0.87632388717E+02 0.  0.
          4    1    3    3  502    0  0.49553533228E+03 -0.33184148316E+03 -0.17243869219E+03  0.62081328759E+03  0.00000000000E+00 0. -1.
         -3    1    3    3    0  502  0.65594237601E+01 -0.15893803810E+02 -0.11443329404E+02  0.20654026907E+02  0.00000000000E+00 0.  1.
         13    1    5    5    0    0 -0.15687224179E+03 -0.22999502739E+03 -0.13122605276E+03  0.30777733801E+03  0.00000000000E+00 0. -1.
        -13    1    5    5    0    0  0.10072757686E+02 -0.30440125052E+02 -0.28460518967E+02  0.42872634634E+02  0.00000000000E+00 0.  1.
          2    1    6    6  503    0 -0.25050802778E+03  0.46791788646E+03  0.20458521050E+03  0.56882029571E+03  0.00000000000E+00 0. -1.
         -2    1    6    6    0  503 -0.10478724415E+03  0.14025255295E+03  0.23152168030E+02  0.17659889023E+03  0.00000000000E+00 0.  1.
<mgrwt>
<rscale>  0 0.17336713E+04</rscale>
<asrwt>0</asrwt>
<pdfrwt beam="1">  1        2 0.14256675E+00 0.17336713E+04</pdfrwt>
<pdfrwt beam="2">  1       -1 0.12474656E+00 0.17336713E+04</pdfrwt>
<totfact> 0.17140604E+01</totfact>
</mgrwt>
</event>
<event>
12    7  0.1546317E-007  0.1361786E+04  0.7818608E-02  0.8981954E-01
          2   -1    0    0  501    0  0.00000000000E+00  0.00000000000E+00  0.93874762248E+03  0.93874762248E+03  0.00000000000E+00 0. -1.
         -1   -1    0    0    0  501 -0.00000000000E+00 -0.00000000000E+00 -0.49386573946E+03  0.49386573946E+03  0.00000000000E+00 0.  1.
         24    2    1    2    0    0 -0.16701739291E+03  0.34697578045E+03  0.15074688625E+03  0.42069743637E+03  0.77296232078E+02 0.  0.
        254    2    1    2    0    0  0.16701739291E+03 -0.34697578045E+03  0.29413499676E+03  0.10119159256E+04  0.88835321937E+03 0.  0.
         23    2    4    4    0    0 -0.32221206540E+03  0.26655474675E+02  0.17203491296E+03  0.37774515619E+03  0.92543299726E+02 0.  0.
         23    2    4    4    0    0  0.48922945831E+03 -0.37363125513E+03  0.12210008380E+03  0.63417076939E+03  0.91205025071E+02 0.  0.
          4    1    3    3  502    0 -0.14062471406E+03  0.27832089938E+03  0.87980609255E+02  0.32400373585E+03  0.00000000000E+00 0. -1.
         -3    1    3    3    0  502 -0.26392678849E+02  0.68654881072E+02  0.62766276999E+02  0.96693700520E+02  0.00000000000E+00 0.  1.
         13    1    5    5    0    0 -0.11342038892E+03 -0.40330465089E+01  0.14540351861E+02  0.11441971823E+03  0.00000000000E+00 0.  1.
        -13    1    5    5    0    0 -0.20879167648E+03  0.30688521184E+02  0.15749456110E+03  0.26332543796E+03  0.00000000000E+00 0. -1.
          3    1    6    6  503    0  0.48594058084E+03 -0.36237581433E+03  0.10782214354E+03  0.61569480553E+03  0.00000000000E+00 0. -1.
         -3    1    6    6    0  503  0.32888774722E+01 -0.11255440800E+02  0.14277940260E+02  0.18475963863E+02  0.00000000000E+00 0.  1.
<mgrwt>
<rscale>  0 0.13617860E+04</rscale>
<asrwt>0</asrwt>
<pdfrwt beam="1">  1        2 0.14442271E+00 0.13617860E+04</pdfrwt>
<pdfrwt beam="2">  1       -1 0.75979345E-01 0.13617860E+04</pdfrwt>
<totfact> 0.53531307E+01</totfact>
</mgrwt>
</event>
<event>
12    7  0.1546317E-007  0.1926153E+04  0.7818608E-02  0.8641947E-01
          2   -1    0    0  501    0  0.00000000000E+00  0.00000000000E+00  0.17214780802E+04  0.17214780802E+04  0.00000000000E+00 0. -1.
         -1   -1    0    0    0  501 -0.00000000000E+00 -0.00000000000E+00 -0.53879083177E+03  0.53879083177E+03  0.00000000000E+00 0.  1.
         24    2    1    2    0    0 -0.25741557748E+03  0.68076888845E+03  0.63402646205E+03  0.96856255639E+03  0.80092521721E+02 0.  0.
        254    2    1    2    0    0  0.25741557748E+03 -0.68076888845E+03  0.54866078635E+03  0.12917063556E+04  0.91529645006E+03 0.  0.
         23    2    4    4    0    0  0.54860502048E+03 -0.56515867838E+03  0.20778745655E+03  0.81961654177E+03  0.90685435415E+02 0.  0.
         23    2    4    4    0    0 -0.29118944300E+03 -0.11561021007E+03  0.34087332980E+03  0.47208981379E+03  0.92288422514E+02 0.  0.
          4    1    3    3  502    0 -0.18276773360E+02  0.17762133716E+02  0.36675966782E+02  0.44661620862E+02  0.00000000000E+00 0. -1.
         -3    1    3    3    0  502 -0.23913880412E+03  0.66300675474E+03  0.59735049527E+03  0.92390093552E+03  0.00000000000E+00 0.  1.
         13    1    5    5    0    0  0.41380781263E+03 -0.37984026349E+03  0.12112076885E+03  0.57461793585E+03  0.00000000000E+00 0. -1.
        -13    1    5    5    0    0  0.13479720785E+03 -0.18531841489E+03  0.86666687699E+02  0.24499860591E+03  0.00000000000E+00 0.  1.
          3    1    6    6  503    0 -0.20371047333E+03 -0.11545525377E+03  0.28249005013E+03  0.36691756702E+03  0.00000000000E+00 0. -1.
         -3    1    6    6    0  503 -0.87478969666E+02 -0.15495630348E+00  0.58383279672E+02  0.10517224677E+03  0.00000000000E+00 0.  1.
<mgrwt>
<rscale>  0 0.19261533E+04</rscale>
<asrwt>0</asrwt>
<pdfrwt beam="1">  1        2 0.26484278E+00 0.19261533E+04</pdfrwt>
<pdfrwt beam="2">  1       -1 0.82890898E-01 0.19261533E+04</pdfrwt>
<totfact> 0.14680628E+01</totfact>
</mgrwt>
</event>
<event>
12    7  0.1546317E-007  0.1057964E+04  0.7818608E-02  0.9247160E-01
         -1   -1    0    0    0  501 -0.00000000000E+00  0.00000000000E+00  0.14681495794E+03  0.14681495794E+03  0.00000000000E+00 0.  1.
          2   -1    0    0  501    0  0.00000000000E+00 -0.00000000000E+00 -0.19059499971E+04  0.19059499971E+04  0.00000000000E+00 0. -1.
         24    2    1    2    0    0 -0.12695507191E+03 -0.20517193074E+02 -0.21958266269E+03  0.26638295907E+03  0.78770487067E+02 0.  0.
        254    2    1    2    0    0  0.12695507191E+03  0.20517193074E+02 -0.15395523764E+04  0.17863819959E+04  0.89688381082E+03 0.  0.
         23    2    4    4    0    0 -0.16566407869E+03 -0.29059138261E+03 -0.25337972782E+03  0.42809317500E+03  0.84702664634E+02 0.  0.
         23    2    4    4    0    0  0.29261915060E+03  0.31110857569E+03 -0.12861726486E+04  0.13582888209E+04  0.91070993453E+02 0.  0.
          2    1    3    3  502    0 -0.60347262941E+02 -0.24352511453E+02 -0.17348471993E+03  0.18528838336E+03  0.00000000000E+00 0. -1.
         -1    1    3    3    0  502 -0.66607808970E+02  0.38353183797E+01 -0.46097942760E+02  0.81094575710E+02  0.00000000000E+00 0.  1.
         13    1    5    5    0    0  0.33036244165E+01 -0.18554822573E+02 -0.37241578235E+02  0.41738837124E+02  0.00000000000E+00 0. -1.
        -13    1    5    5    0    0 -0.16896770311E+03 -0.27203656004E+03 -0.21613814959E+03  0.38635433788E+03  0.00000000000E+00 0.  1.
          1    1    6    6  503    0  0.25212976210E+02  0.60638478710E+02 -0.27656022016E+03  0.28425037316E+03  0.00000000000E+00 0. -1.
         -1    1    6    6    0  503  0.26740617439E+03  0.25047009698E+03 -0.10096124285E+04  0.10740384478E+04  0.00000000000E+00 0.  1.
<mgrwt>
<rscale>  0 0.10579640E+04</rscale>
<asrwt>0</asrwt>
<pdfrwt beam="1">  1        2 0.29322309E+00 0.10579640E+04</pdfrwt>
<pdfrwt beam="2">  1       -1 0.22586916E-01 0.10579640E+04</pdfrwt>
<totfact> 0.14258677E+02</totfact>
</mgrwt>
</event>
<event>
12    7  0.1546317E-007  0.3048613E+04  0.7818608E-02  0.8229984E-01
          2   -1    0    0  501    0  0.00000000000E+00  0.00000000000E+00  0.17907057475E+04  0.17907057475E+04  0.00000000000E+00 0. -1.
         -1   -1    0    0    0  501 -0.00000000000E+00 -0.00000000000E+00 -0.12975389958E+04  0.12975389958E+04  0.00000000000E+00 0.  1.
         24    2    1    2    0    0 -0.28027413882E+03  0.76376246557E+03  0.13671689579E+04  0.15929461291E+04  0.80247830327E+02 0.  0.
        254    2    1    2    0    0  0.28027413882E+03 -0.76376246557E+03 -0.87400220627E+03  0.14952986142E+04  0.90008410288E+03 0.  0.
         23    2    4    4    0    0  0.30856718527E+03 -0.71689944608E+03 -0.10362210252E+04  0.13005793966E+04  0.92705070914E+02 0.  0.
         23    2    4    4    0    0 -0.28293046454E+02 -0.46863019484E+02  0.16221881889E+03  0.19471921760E+03  0.92757692024E+02 0.  0.
          2    1    3    3  502    0 -0.24969097171E+03  0.59706227312E+03  0.11122348585E+04  0.12868159619E+04  0.00000000000E+00 0. -1.
         -1    1    3    3    0  502 -0.30583167111E+02  0.16670019245E+03  0.25493409939E+03  0.30613016726E+03  0.00000000000E+00 0.  1.
         13    1    5    5    0    0  0.22034431878E+03 -0.48961563318E+03 -0.77968551681E+03  0.94667026582E+03  0.00000000000E+00 0.  1.
        -13    1    5    5    0    0  0.88222866488E+02 -0.22728381290E+03 -0.25653550835E+03  0.35390913074E+03  0.00000000000E+00 0. -1.
          1    1    6    6  503    0  0.97550960819E-01  0.20214731985E+02  0.89648758868E+02  0.91899645658E+02  0.00000000000E+00 0. -1.
         -1    1    6    6    0  503 -0.28390597415E+02 -0.67077751469E+02  0.72570060017E+02  0.10281957194E+03  0.00000000000E+00 0.  1.
<mgrwt>
<rscale>  0 0.30486132E+04</rscale>
<asrwt>0</asrwt>
<pdfrwt beam="1">  1        2 0.27549319E+00 0.30486132E+04</pdfrwt>
<pdfrwt beam="2">  1       -1 0.19962138E+00 0.30486132E+04</pdfrwt>
<totfact> 0.12828428E+00</totfact>
</mgrwt>
</event>
<event>
12    7  0.1546317E-007  0.1813056E+04  0.7818608E-02  0.8699387E-01
          2   -1    0    0  501    0  0.00000000000E+00  0.00000000000E+00  0.76179285585E+03  0.76179285585E+03  0.00000000000E+00 0. -1.
         -1   -1    0    0    0  501 -0.00000000000E+00 -0.00000000000E+00 -0.10787613339E+04  0.10787613339E+04  0.00000000000E+00 0.  1.
         24    2    1    2    0    0 -0.74809557275E+02 -0.39436538638E+03 -0.67431520387E+03  0.78862931691E+03  0.78196403348E+02 0.  0.
        254    2    1    2    0    0  0.74809557275E+02  0.39436538638E+03  0.35734672580E+03  0.10519248729E+04  0.90428354395E+03 0.  0.
         23    2    4    4    0    0  0.30911346696E+03 -0.17588503918E+03  0.14517615989E+03  0.39360198590E+03  0.85788830504E+02 0.  0.
         23    2    4    4    0    0 -0.23430390968E+03  0.57025042556E+03  0.21217056591E+03  0.65832288696E+03  0.91042871867E+02 0.  0.
          4    1    3    3  502    0 -0.58488436652E+02 -0.17912917669E+03 -0.25562471437E+03  0.31757228115E+03  0.00000000000E+00 0. -1.
         -3    1    3    3    0  502 -0.16321120623E+02 -0.21523620970E+03 -0.41869048950E+03  0.47105703576E+03  0.00000000000E+00 0.  1.
         13    1    5    5    0    0  0.85106915934E+02 -0.38922486258E+02  0.79890240007E+02  0.12304713538E+03  0.00000000000E+00 0.  1.
        -13    1    5    5    0    0  0.22400655102E+03 -0.13696255292E+03  0.65285919885E+02  0.27055485052E+03  0.00000000000E+00 0. -1.
          1    1    6    6  503    0 -0.16777595687E+03  0.30303789823E+03  0.14038987978E+03  0.37375133152E+03  0.00000000000E+00 0. -1.
         -1    1    6    6    0  503 -0.66527952813E+02  0.26721252733E+03  0.71780686131E+02  0.28457155544E+03  0.00000000000E+00 0.  1.
<mgrwt>
<rscale>  0 0.18130556E+04</rscale>
<asrwt>0</asrwt>
<pdfrwt beam="1">  1        2 0.11719890E+00 0.18130556E+04</pdfrwt>
<pdfrwt beam="2">  1       -1 0.16596328E+00 0.18130556E+04</pdfrwt>
<totfact> 0.10427714E+01</totfact>
</mgrwt>
</event>
<event>
12    7  0.1546317E-007  0.1558092E+04  0.7818608E-02  0.8846715E-01
          2   -1    0    0  501    0  0.00000000000E+00  0.00000000000E+00  0.14285911345E+04  0.14285911345E+04  0.00000000000E+00 0. -1.
         -1   -1    0    0    0  501 -0.00000000000E+00 -0.00000000000E+00 -0.42483320894E+03  0.42483320894E+03  0.00000000000E+00 0.  1.
         24    2    1    2    0    0  0.89021328090E+02 -0.31263255426E+03 -0.13534437377E+03  0.36118592079E+03  0.80456566081E+02 0.  0.
        254    2    1    2    0    0 -0.89021328090E+02  0.31263255426E+03  0.11391022993E+04  0.14922384226E+04  0.90750071670E+03 0.  0.
         23    2    4    4    0    0  0.12990631661E+03 -0.85748805972E+02  0.98897943190E+03  0.10053586092E+04  0.91853729608E+02 0.  0.
         23    2    4    4    0    0 -0.21892764470E+03  0.39838136024E+03  0.15012286741E+03  0.48687981338E+03  0.88758411189E+02 0.  0.
          2    1    3    3  502    0  0.70796004495E+02 -0.12803555571E+03 -0.35597846218E+02  0.15057351837E+03  0.00000000000E+00 0. -1.
         -1    1    3    3    0  502  0.18225323596E+02 -0.18459699856E+03 -0.99746527555E+02  0.21061240242E+03  0.00000000000E+00 0.  1.
         13    1    5    5    0    0  0.11965327597E+03 -0.30960203111E+02  0.73663060987E+03  0.74692710221E+03  0.00000000000E+00 0.  1.
        -13    1    5    5    0    0  0.10253040639E+02 -0.54788602862E+02  0.25234882203E+03  0.25843150703E+03  0.00000000000E+00 0. -1.
          2    1    6    6  503    0  0.79275384949E+01  0.12405102464E+02  0.15128142688E+00  0.14722612533E+02  0.00000000000E+00 0. -1.
         -2    1    6    6    0  503 -0.22685518320E+03  0.38597625777E+03  0.14997158598E+03  0.47215720084E+03  0.00000000000E+00 0.  1.
<mgrwt>
<rscale>  0 0.15580924E+04</rscale>
<asrwt>0</asrwt>
<pdfrwt beam="1">  1        2 0.21978325E+00 0.15580924E+04</pdfrwt>
<pdfrwt beam="2">  1       -1 0.65358956E-01 0.15580924E+04</pdfrwt>
<totfact> 0.36257222E+01</totfact>
</mgrwt>
</event>
<event>
12    7  0.1546317E-007  0.2137721E+04  0.7818608E-02  0.8544807E-01
         -1   -1    0    0    0  501 -0.00000000000E+00  0.00000000000E+00  0.33213060019E+03  0.33213060019E+03  0.00000000000E+00 0.  1.
          2   -1    0    0  501    0  0.00000000000E+00 -0.00000000000E+00 -0.34397991825E+04  0.34397991825E+04  0.00000000000E+00 0. -1.
         24    2    1    2    0    0 -0.35757469090E+03  0.71339322660E+03 -0.62546181177E+03  0.10170395879E+04  0.79859188643E+02 0.  0.
        254    2    1    2    0    0  0.35757469090E+03 -0.71339322660E+03 -0.24822067706E+04  0.27548901948E+04  0.88953919438E+03 0.  0.
         23    2    4    4    0    0  0.87034602572E+02  0.20072719587E+03 -0.48276983618E+03  0.53784590429E+03  0.91351370126E+02 0.  0.
         23    2    4    4    0    0  0.27054008833E+03 -0.91412042247E+03 -0.19994369344E+04  0.22170442905E+04  0.93430431036E+02 0.  0.
          2    1    3    3  502    0 -0.59892832185E+02  0.88682662592E+02 -0.55622861307E+02  0.12060542563E+03  0.00000000000E+00 0. -1.
         -1    1    3    3    0  502 -0.29768185872E+03  0.62471056401E+03 -0.56983895046E+03  0.89643416226E+03  0.00000000000E+00 0.  1.
         13    1    5    5    0    0 -0.19205998270E+02  0.32989850156E+02 -0.89328331073E+02  0.97142942694E+02  0.00000000000E+00 0.  1.
        -13    1    5    5    0    0  0.10624060084E+03  0.16773734571E+03 -0.39344150511E+03  0.44070296159E+03  0.00000000000E+00 0. -1.
          4    1    6    6  503    0  0.13463874908E+03 -0.60817483069E+03 -0.13225253559E+04  0.14618746644E+04  0.00000000000E+00 0. -1.
         -4    1    6    6    0  503  0.13590133925E+03 -0.30594559179E+03 -0.67691157851E+03  0.75516962615E+03  0.00000000000E+00 0.  1.
<mgrwt>
<rscale>  0 0.21377208E+04</rscale>
<asrwt>0</asrwt>
<pdfrwt beam="1">  1        2 0.52919989E+00 0.21377208E+04</pdfrwt>
<pdfrwt beam="2">  1       -1 0.51097013E-01 0.21377208E+04</pdfrwt>
<totfact> 0.36177381E+00</totfact>
</mgrwt>
</event>
<event>
12    7  0.1546317E-007  0.1176301E+04  0.7818608E-02  0.9133857E-01
         -1   -1    0    0    0  501 -0.00000000000E+00  0.00000000000E+00  0.64612649584E+03  0.64612649584E+03  0.00000000000E+00 0.  1.
          2   -1    0    0  501    0  0.00000000000E+00 -0.00000000000E+00 -0.53537676314E+03  0.53537676314E+03  0.00000000000E+00 0. -1.
         24    2    1    2    0    0  0.19475540772E+03  0.92235094691E+01  0.27716996458E+03  0.34787465813E+03  0.78605639383E+02 0.  0.
        254    2    1    2    0    0 -0.19475540772E+03 -0.92235094691E+01 -0.16642023188E+03  0.83362860084E+03  0.79323780079E+03 0.  0.
         23    2    4    4    0    0  0.77149678353E+02  0.12248413610E+03  0.25578133003E+03  0.30654820623E+03  0.87139414059E+02 0.  0.
         23    2    4    4    0    0 -0.27190508608E+03 -0.13170764557E+03 -0.42220156191E+03  0.52708039461E+03  0.90996174461E+02 0.  0.
          2    1    3    3  502    0  0.37639399757E-01  0.39454652716E+01 -0.41327075262E+01  0.57137889732E+01  0.00000000000E+00 0. -1.
         -1    1    3    3    0  502  0.19471776832E+03  0.52780441975E+01  0.28130267210E+03  0.34216086916E+03  0.00000000000E+00 0.  1.
         13    1    5    5    0    0 -0.22761730930E+01 -0.11858194725E+02  0.11534880354E+02  0.16698838608E+02  0.00000000000E+00 0.  1.
        -13    1    5    5    0    0  0.79425851446E+02  0.13434233082E+03  0.24424644968E+03  0.28984936762E+03  0.00000000000E+00 0. -1.
          1    1    6    6  503    0 -0.11877580064E+03 -0.75778738915E+02 -0.26751549720E+03  0.30234855602E+03  0.00000000000E+00 0. -1.
         -1    1    6    6    0  503 -0.15312928544E+03 -0.55928906652E+02 -0.15468606472E+03  0.22473183859E+03  0.00000000000E+00 0.  1.
<mgrwt>
<rscale>  0 0.11763012E+04</rscale>
<asrwt>0</asrwt>
<pdfrwt beam="1">  1        2 0.82365656E-01 0.11763012E+04</pdfrwt>
<pdfrwt beam="2">  1       -1 0.99404076E-01 0.11763012E+04</pdfrwt>
<totfact> 0.62084889E+01</totfact>
</mgrwt>
</event>
<event>
12    7  0.1546317E-007  0.1764076E+04  0.7818608E-02  0.8725640E-01
          2   -1    0    0  501    0  0.00000000000E+00  0.00000000000E+00  0.17086222626E+04  0.17086222626E+04  0.00000000000E+00 0. -1.
         -1   -1    0    0    0  501 -0.00000000000E+00 -0.00000000000E+00 -0.45533261419E+03  0.45533261419E+03  0.00000000000E+00 0.  1.
         24    2    1    2    0    0 -0.44565236196E+01 -0.54933186804E+03  0.42818066439E+02  0.55680866058E+03  0.80107027360E+02 0.  0.
        254    2    1    2    0    0  0.44565236196E+01  0.54933186804E+03  0.12104715819E+04  0.16071462162E+04  0.90326748401E+03 0.  0.
         23    2    4    4    0    0 -0.18181821622E+02  0.75387681791E+03  0.11439027668E+04  0.13730270543E+04  0.89604222575E+02 0.  0.
         23    2    4    4    0    0  0.22638345242E+02 -0.20454494987E+03  0.66568815167E+02  0.23411916192E+03  0.89606046853E+02 0.  0.
          4    1    3    3  502    0  0.23590907594E+02 -0.69134570147E+02 -0.61483787539E+01  0.73307041080E+02  0.00000000000E+00 0. -1.
         -3    1    3    3    0  502 -0.28047431214E+02 -0.48019729789E+03  0.48966445193E+02  0.48350161950E+03  0.00000000000E+00 0.  1.
         13    1    5    5    0    0  0.97160917715E+01  0.57786475695E+03  0.92563666465E+03  0.10912494283E+04  0.00000000000E+00 0.  1.
        -13    1    5    5    0    0 -0.27897913394E+02  0.17601206096E+03  0.21826610212E+03  0.28177762599E+03  0.00000000000E+00 0. -1.
          2    1    6    6  503    0  0.14383438563E+01  0.87570978534E+01 -0.19406830645E+01  0.90841535995E+01  0.00000000000E+00 0. -1.
         -2    1    6    6    0  503  0.21200001385E+02 -0.21330204772E+03  0.68509498231E+02  0.22503500832E+03  0.00000000000E+00 0.  1.
<mgrwt>
<rscale>  0 0.17640765E+04</rscale>
<asrwt>0</asrwt>
<pdfrwt beam="1">  1        2 0.26286496E+00 0.17640765E+04</pdfrwt>
<pdfrwt beam="2">  1       -1 0.70051172E-01 0.17640765E+04</pdfrwt>
<totfact> 0.21548571E+01</totfact>
</mgrwt>
</event>
<event>
12    7  0.1546317E-007  0.2185708E+04  0.7818608E-02  0.8524400E-01
          2   -1    0    0  501    0  0.00000000000E+00  0.00000000000E+00  0.11213086816E+04  0.11213086816E+04  0.00000000000E+00 0. -1.
         -1   -1    0    0    0  501 -0.00000000000E+00 -0.00000000000E+00 -0.10651215817E+04  0.10651215817E+04  0.00000000000E+00 0.  1.
         24    2    1    2    0    0  0.72921176993E+03 -0.21409943662E+03 -0.45541115062E+03  0.88946397129E+03  0.78475894044E+02 0.  0.
        254    2    1    2    0    0 -0.72921176993E+03  0.21409943662E+03  0.51159825045E+03  0.12969662920E+04  0.91804162139E+03 0.  0.
         23    2    4    4    0    0 -0.85919244573E+03  0.18722786164E+03  0.14482952099E+03  0.89634644986E+03  0.95892841477E+02 0.  0.
         23    2    4    4    0    0  0.12998067580E+03  0.26871574988E+02  0.36676872946E+03  0.40061984216E+03  0.91432485483E+02 0.  0.
          4    1    3    3  502    0  0.26469256145E+03 -0.42207822829E+02 -0.14194323653E+03  0.30330106296E+03  0.00000000000E+00 0. -1.
         -3    1    3    3    0  502  0.46451920848E+03 -0.17189161379E+03 -0.31346791409E+03  0.58616290833E+03  0.00000000000E+00 0.  1.
         13    1    5    5    0    0 -0.61365475763E+03  0.13687442418E+03  0.59373305082E+02  0.63153143937E+03  0.00000000000E+00 0. -1.
        -13    1    5    5    0    0 -0.24553768810E+03  0.50353437456E+02  0.85456215909E+02  0.26481501049E+03  0.00000000000E+00 0.  1.
          1    1    6    6  503    0  0.13081098206E+03  0.39815378598E+02  0.26665357058E+03  0.29966798979E+03  0.00000000000E+00 0. -1.
         -1    1    6    6    0  503 -0.83030625998E+00 -0.12943803610E+02  0.10011515888E+03  0.10095185238E+03  0.00000000000E+00 0.  1.
<mgrwt>
<rscale>  0 0.21857082E+04</rscale>
<asrwt>0</asrwt>
<pdfrwt beam="1">  1        2 0.17250903E+00 0.21857082E+04</pdfrwt>
<pdfrwt beam="2">  1       -1 0.16386486E+00 0.21857082E+04</pdfrwt>
<totfact> 0.60274982E+00</totfact>
</mgrwt>
</event>
<event>
12    7  0.1546317E-007  0.1247264E+04  0.7818608E-02  0.9072463E-01
          2   -1    0    0  501    0  0.00000000000E+00  0.00000000000E+00  0.14956066497E+04  0.14956066497E+04  0.00000000000E+00 0. -1.
         -1   -1    0    0    0  501 -0.00000000000E+00 -0.00000000000E+00 -0.26003970730E+03  0.26003970730E+03  0.00000000000E+00 0.  1.
         24    2    1    2    0    0 -0.14136751136E+03 -0.18897805778E+03  0.25243751714E+02  0.25035620725E+03  0.79646116776E+02 0.  0.
        254    2    1    2    0    0  0.14136751136E+03  0.18897805778E+03  0.12103231907E+04  0.15052901497E+04  0.86331844034E+03 0.  0.
         23    2    4    4    0    0  0.19452592690E+03 -0.29766699186E+03  0.33247181321E+03  0.49488431935E+03  0.89033750218E+02 0.  0.
         23    2    4    4    0    0 -0.53158415543E+02  0.48664504964E+03  0.87785137744E+03  0.10104058304E+04  0.10318759467E+03 0.  0.
          2    1    3    3  502    0 -0.49321398243E+01 -0.48608677268E+02  0.24381757554E+02  0.54604025588E+02  0.00000000000E+00 0. -1.
         -3    1    3    3    0  502 -0.13643537154E+03 -0.14036938051E+03  0.86199416031E+00  0.19575218166E+03  0.00000000000E+00 0.  1.
         13    1    5    5    0    0  0.18849524925E+03 -0.23434556127E+03  0.29383799121E+03  0.42046291888E+03  0.00000000000E+00 0. -1.
        -13    1    5    5    0    0  0.60306776495E+01 -0.63321430593E+02  0.38633822006E+02  0.74421400471E+02  0.00000000000E+00 0.  1.
          4    1    6    6  503    0 -0.49852625471E+02  0.48331034321E+03  0.82572853833E+03  0.95807191335E+03  0.00000000000E+00 0. -1.
         -4    1    6    6    0  503 -0.33057900719E+01  0.33347064285E+01  0.52122839103E+02  0.52333917025E+02  0.00000000000E+00 0.  1.
<mgrwt>
<rscale>  0 0.12472644E+04</rscale>
<asrwt>0</asrwt>
<pdfrwt beam="1">  1        2 0.23009333E+00 0.12472644E+04</pdfrwt>
<pdfrwt beam="2">  1       -1 0.40006110E-01 0.12472644E+04</pdfrwt>
<totfact> 0.87099297E+01</totfact>
</mgrwt>
</event>
<event>
12    7  0.1546317E-007  0.3273037E+04  0.7818608E-02  0.8169790E-01
         -1   -1    0    0    0  501 -0.00000000000E+00  0.00000000000E+00  0.20046032909E+04  0.20046032909E+04  0.00000000000E+00 0.  1.
          2   -1    0    0  501    0  0.00000000000E+00 -0.00000000000E+00 -0.13360213904E+04  0.13360213904E+04  0.00000000000E+00 0. -1.
         24    2    1    2    0    0 -0.13022259794E+04  0.38819996159E+03  0.97929869860E+03  0.16768839007E+04  0.80137155409E+02 0.  0.
        254    2    1    2    0    0  0.13022259794E+04 -0.38819996159E+03 -0.31071679804E+03  0.16637407806E+04  0.90829331442E+03 0.  0.
         23    2    4    4    0    0  0.82586952121E+03  0.20440430888E+03 -0.60311625094E+02  0.85801587867E+03  0.93338997050E+02 0.  0.
         23    2    4    4    0    0  0.47635645817E+03 -0.59260427048E+03 -0.25040517295E+03  0.80572490197E+03  0.91621888156E+02 0.  0.
          4    1    3    3  502    0 -0.12228949527E+03  0.19441045303E+02  0.10992754239E+03  0.16558000928E+03  0.00000000000E+00 0. -1.
         -3    1    3    3    0  502 -0.11799364841E+04  0.36875891629E+03  0.86937115620E+03  0.15113038914E+04  0.00000000000E+00 0.  1.
         13    1    5    5    0    0  0.80176238622E+03  0.20297538549E+03 -0.42757844362E+02  0.82816071165E+03  0.00000000000E+00 0.  1.
        -13    1    5    5    0    0  0.24107134994E+02  0.14289233934E+01 -0.17553780732E+02  0.29855167017E+02  0.00000000000E+00 0. -1.
          1    1    6    6  503    0  0.79697319662E+02 -0.12034913328E+03 -0.83694027407E+02  0.16685402862E+03  0.00000000000E+00 0. -1.
         -1    1    6    6    0  503  0.39665913851E+03 -0.47225513720E+03 -0.16671114554E+03  0.63887087335E+03  0.00000000000E+00 0.  1.
<mgrwt>
<rscale>  0 0.32730370E+04</rscale>
<asrwt>0</asrwt>
<pdfrwt beam="1">  1        2 0.20554175E+00 0.32730370E+04</pdfrwt>
<pdfrwt beam="2">  1       -1 0.30840050E+00 0.32730370E+04</pdfrwt>
<totfact> 0.43730473E-01</totfact>
</mgrwt>
</event>
<event>
12    7  0.1546317E-007  0.2425728E+04  0.7818608E-02  0.8429934E-01
          2   -1    0    0  501    0  0.00000000000E+00  0.00000000000E+00  0.12208274371E+04  0.12208274371E+04  0.00000000000E+00 0. -1.
         -1   -1    0    0    0  501 -0.00000000000E+00 -0.00000000000E+00 -0.12049523301E+04  0.12049523301E+04  0.00000000000E+00 0.  1.
         24    2    1    2    0    0 -0.15531609189E+03  0.56551335887E+03 -0.82872444633E+03  0.10185651687E+04  0.82233493626E+02 0.  0.
        254    2    1    2    0    0  0.15531609189E+03 -0.56551335887E+03  0.84459955334E+03  0.14072145984E+04  0.96071643739E+03 0.  0.
         23    2    4    4    0    0 -0.37627512509E+03 -0.38768699636E+03  0.32366389799E+03  0.63650760746E+03  0.92192399797E+02 0.  0.
         23    2    4    4    0    0  0.53159121699E+03 -0.17782636251E+03  0.52093565536E+03  0.77070699097E+03  0.91672633504E+02 0.  0.
          4    1    3    3  502    0 -0.18800229250E+02  0.91368727122E+02 -0.85931253335E+02  0.12683009586E+03  0.00000000000E+00 0. -1.
         -3    1    3    3    0  502 -0.13651586264E+03  0.47414463175E+03 -0.74279319299E+03  0.89173507283E+03  0.00000000000E+00 0.  1.
         13    1    5    5    0    0 -0.23744718093E+03 -0.23536667262E+03  0.25067233051E+03  0.41786989793E+03  0.00000000000E+00 0. -1.
        -13    1    5    5    0    0 -0.13882794417E+03 -0.15232032375E+03  0.72991567479E+02  0.21863770953E+03  0.00000000000E+00 0.  1.
          2    1    6    6  503    0  0.42922576443E+03 -0.16621861538E+03  0.46134646489E+03  0.65169313761E+03  0.00000000000E+00 0.  1.
         -2    1    6    6    0  503  0.10236545256E+03 -0.11607747124E+02  0.59589190469E+02  0.11901385336E+03  0.00000000000E+00 0. -1.
<mgrwt>
<rscale>  0 0.24257278E+04</rscale>
<asrwt>0</asrwt>
<pdfrwt beam="1">  1        2 0.18781961E+00 0.24257278E+04</pdfrwt>
<pdfrwt beam="2">  1       -1 0.18537728E+00 0.24257278E+04</pdfrwt>
<totfact> 0.35859979E+00</totfact>
</mgrwt>
</event>
<event>
12    7  0.1546317E-007  0.2442652E+04  0.7818608E-02  0.8423706E-01
         -1   -1    0    0    0  501 -0.00000000000E+00  0.00000000000E+00  0.62403083416E+03  0.62403083416E+03  0.00000000000E+00 0.  1.
          2   -1    0    0  501    0  0.00000000000E+00 -0.00000000000E+00 -0.23903260953E+04  0.23903260953E+04  0.00000000000E+00 0. -1.
         24    2    1    2    0    0 -0.84431007918E+03  0.15367839663E+03 -0.13819609445E+02  0.86194514265E+03  0.79258361975E+02 0.  0.
        254    2    1    2    0    0  0.84431007918E+03 -0.15367839663E+03 -0.17524756517E+04  0.21524117868E+04  0.90842117478E+03 0.  0.
         23    2    4    4    0    0 -0.18099941650E+03 -0.63970487330E+01 -0.38409670079E+03  0.43366599818E+03  0.87944365410E+02 0.  0.
         23    2    4    4    0    0  0.10253094957E+04 -0.14728134790E+03 -0.13683789509E+04  0.17187457886E+04  0.93138473802E+02 0.  0.
          2    1    3    3  502    0 -0.55199465872E+03  0.12643187301E+03 -0.36668569467E+02  0.56747485032E+03  0.00000000000E+00 0. -1.
         -1    1    3    3    0  502 -0.29231542046E+03  0.27246523620E+02  0.22848960022E+02  0.29447029232E+03  0.00000000000E+00 0.  1.
         13    1    5    5    0    0 -0.22423624762E+02  0.12294488020E+02 -0.11001688366E+02  0.27839010939E+02  0.00000000000E+00 0. -1.
        -13    1    5    5    0    0 -0.15857579173E+03 -0.18691536753E+02 -0.37309501243E+03  0.40582698724E+03  0.00000000000E+00 0.  1.
          1    1    6    6  503    0  0.47200099521E+03 -0.78043635447E+02 -0.70716263424E+03  0.85378846313E+03  0.00000000000E+00 0. -1.
         -1    1    6    6    0  503  0.55330850046E+03 -0.69237712450E+02 -0.66121631666E+03  0.86495732549E+03  0.00000000000E+00 0.  1.
<mgrwt>
<rscale>  0 0.24426520E+04</rscale>
<asrwt>0</asrwt>
<pdfrwt beam="1">  1        2 0.36774248E+00 0.24426520E+04</pdfrwt>
<pdfrwt beam="2">  1       -1 0.96004742E-01 0.24426520E+04</pdfrwt>
<totfact> 0.42912483E+00</totfact>
</mgrwt>
</event>
<event>
12    7  0.1546317E-007  0.1621804E+04  0.7818608E-02  0.8807264E-01
          2   -1    0    0  501    0  0.00000000000E+00  0.00000000000E+00  0.12737412486E+04  0.12737412486E+04  0.00000000000E+00 0. -1.
         -1   -1    0    0    0  501 -0.00000000000E+00 -0.00000000000E+00 -0.51624457229E+03  0.51624457229E+03  0.00000000000E+00 0.  1.
         24    2    1    2    0    0 -0.26284784798E+03  0.30376099854E+02 -0.27589469478E+03  0.39039033474E+03  0.79215100976E+02 0.  0.
        254    2    1    2    0    0  0.26284784798E+03 -0.30376099854E+02  0.10333913711E+04  0.13995954861E+04  0.90606738179E+03 0.  0.
         23    2    4    4    0    0 -0.20884706517E+03  0.69822189698E+02 -0.13562915423E+02  0.24330304762E+03  0.10256795554E+03 0.  0.
         23    2    4    4    0    0  0.47169491315E+03 -0.10019828955E+03  0.10469542865E+04  0.11562924385E+04  0.91450188653E+02 0.  0.
          4    1    3    3  502    0 -0.72111911793E+02  0.42929479051E+02 -0.10086048640E+03  0.13120939643E+03  0.00000000000E+00 0. -1.
         -3    1    3    3    0  502 -0.19073593619E+03 -0.12553379198E+02 -0.17503420838E+03  0.25918093831E+03  0.00000000000E+00 0.  1.
         13    1    5    5    0    0 -0.14962631535E+03  0.60304936973E+02  0.36239113384E+02  0.16534204852E+03  0.00000000000E+00 0. -1.
        -13    1    5    5    0    0 -0.59220749813E+02  0.95172527257E+01 -0.49802028807E+02  0.77960999103E+02  0.00000000000E+00 0.  1.
          2    1    6    6  503    0  0.38493741524E+03 -0.48070804662E+02  0.78950714631E+03  0.87966422570E+03  0.00000000000E+00 0. -1.
         -2    1    6    6    0  503  0.86757497909E+02 -0.52127484890E+02  0.25744714021E+03  0.27662821281E+03  0.00000000000E+00 0.  1.
<mgrwt>
<rscale>  0 0.16218039E+04</rscale>
<asrwt>0</asrwt>
<pdfrwt beam="1">  1        2 0.19596019E+00 0.16218039E+04</pdfrwt>
<pdfrwt beam="2">  1       -1 0.79422242E-01 0.16218039E+04</pdfrwt>
<totfact> 0.29615309E+01</totfact>
</mgrwt>
</event>
<event>
12    7  0.1546317E-007  0.4254360E+04  0.7818608E-02  0.7955112E-01
          2   -1    0    0  501    0  0.00000000000E+00  0.00000000000E+00  0.32711114161E+04  0.32711114161E+04  0.00000000000E+00 0. -1.
         -1   -1    0    0    0  501 -0.00000000000E+00 -0.00000000000E+00 -0.13832897976E+04  0.13832897976E+04  0.00000000000E+00 0.  1.
         24    2    1    2    0    0  0.16265195757E+04  0.37417242980E+03  0.21712928695E+04  0.27398333671E+04  0.81260180643E+02 0.  0.
        254    2    1    2    0    0 -0.16265195757E+04 -0.37417242980E+03 -0.28347125104E+03  0.19145678465E+04  0.89422768431E+03 0.  0.
         23    2    4    4    0    0 -0.70970900511E+03 -0.13900703999E+03  0.31177105886E+03  0.79253469440E+03  0.88883179479E+02 0.  0.
         23    2    4    4    0    0 -0.91681057061E+03 -0.23516538981E+03 -0.59524230990E+03  0.11220331521E+04  0.93811534612E+02 0.  0.
          4    1    3    3  502    0  0.14904034986E+04  0.34034469651E+03  0.20235607663E+04  0.25361260371E+04  0.00000000000E+00 0. -1.
         -3    1    3    3    0  502  0.13611607708E+03  0.33827733294E+02  0.14773210321E+03  0.20370733001E+03  0.00000000000E+00 0.  1.
         13    1    5    5    0    0 -0.47410610572E+03 -0.10554152606E+03  0.16513475391E+03  0.51301569192E+03  0.00000000000E+00 0. -1.
        -13    1    5    5    0    0 -0.23560289938E+03 -0.33465513937E+02  0.14663630495E+03  0.27951900248E+03  0.00000000000E+00 0.  1.
          3    1    6    6  503    0 -0.85102124889E+03 -0.23613579874E+03 -0.57212008146E+03  0.10522921026E+04  0.00000000000E+00 0. -1.
         -3    1    6    6    0  503 -0.65789321722E+02  0.97040893220E+00 -0.23122228443E+02  0.69741049564E+02  0.00000000000E+00 0.  1.
<mgrwt>
<rscale>  0 0.42543601E+04</rscale>
<asrwt>0</asrwt>
<pdfrwt beam="1">  1        2 0.50324791E+00 0.42543601E+04</pdfrwt>
<pdfrwt beam="2">  1       -1 0.21281382E+00 0.42543601E+04</pdfrwt>
<totfact> 0.12554329E-01</totfact>
</mgrwt>
</event>
<event>
12    7  0.1546317E-007  0.1961244E+04  0.7818608E-02  0.8624958E-01
          2   -1    0    0  501    0  0.00000000000E+00  0.00000000000E+00  0.20007001637E+04  0.20007001637E+04  0.00000000000E+00 0. -1.
         -1   -1    0    0    0  501 -0.00000000000E+00 -0.00000000000E+00 -0.48064151623E+03  0.48064151623E+03  0.00000000000E+00 0.  1.
         24    2    1    2    0    0  0.60630683094E+03 -0.48076847613E+03  0.57646482768E+03  0.96966471423E+03  0.95873143211E+02 0.  0.
        254    2    1    2    0    0 -0.60630683094E+03  0.48076847613E+03  0.94359381981E+03  0.15116769657E+04  0.89221726669E+03 0.  0.
         23    2    4    4    0    0 -0.39375775966E+02 -0.77484819095E+02  0.64524690096E+03  0.65712312994E+03  0.88954459046E+02 0.  0.
         23    2    4    4    0    0 -0.56693105497E+03  0.55825329523E+03  0.29834691885E+03  0.85455383577E+03  0.90519674712E+02 0.  0.
          4    1    3    3  502    0  0.82448317766E+02 -0.32730130523E+02  0.86924948851E+02  0.12419715488E+03  0.00000000000E+00 0. -1.
         -3    1    3    3    0  502  0.52385851317E+03 -0.44803834561E+03  0.48953987883E+03  0.84546755936E+03  0.00000000000E+00 0.  1.
         13    1    5    5    0    0 -0.67273325270E+02 -0.44894681502E+02  0.45110787076E+03  0.45830071327E+03  0.00000000000E+00 0.  1.
        -13    1    5    5    0    0  0.27897549304E+02 -0.32590137593E+02  0.19413903020E+03  0.19882241668E+03  0.00000000000E+00 0. -1.
          1    1    6    6  503    0 -0.35154218048E+03  0.32370243096E+03  0.22284987383E+03  0.52728287923E+03  0.00000000000E+00 0. -1.
         -1    1    6    6    0  503 -0.21538887449E+03  0.23455086427E+03  0.75497045024E+02  0.32727095654E+03  0.00000000000E+00 0.  1.
<mgrwt>
<rscale>  0 0.19612441E+04</rscale>
<asrwt>0</asrwt>
<pdfrwt beam="1">  1        2 0.30780002E+00 0.19612441E+04</pdfrwt>
<pdfrwt beam="2">  1       -1 0.73944850E-01 0.19612441E+04</pdfrwt>
<totfact> 0.13044836E+01</totfact>
</mgrwt>
</event>
<event>
12    7  0.1546317E-007  0.2034838E+04  0.7818608E-02  0.8590504E-01
         -1   -1    0    0    0  501 -0.00000000000E+00  0.00000000000E+00  0.10792271047E+04  0.10792271047E+04  0.00000000000E+00 0.  1.
          2   -1    0    0  501    0  0.00000000000E+00 -0.00000000000E+00 -0.95915062908E+03  0.95915062908E+03  0.00000000000E+00 0. -1.
         24    2    1    2    0    0 -0.49575213037E+02 -0.64158297570E+03 -0.45450483998E+03  0.79217817972E+03  0.82977119815E+02 0.  0.
        254    2    1    2    0    0  0.49575213037E+02  0.64158297570E+03  0.57458131557E+03  0.12461995540E+04  0.89932375919E+03 0.  0.
         23    2    4    4    0    0  0.12918669281E+03  0.34661932461E+00 -0.18636306005E+03  0.24435356940E+03  0.91039304604E+02 0.  0.
         23    2    4    4    0    0 -0.79611479772E+02  0.64123635637E+03  0.76094437562E+03  0.10018459846E+04  0.84480658771E+02 0.  0.
          4    1    3    3  502    0  0.16810823718E+02 -0.27414252531E+03 -0.21185898151E+03  0.34687311228E+03  0.00000000000E+00 0. -1.
         -3    1    3    3    0  502 -0.66386036756E+02 -0.36744045039E+03 -0.24264585847E+03  0.44530506744E+03  0.00000000000E+00 0.  1.
         13    1    5    5    0    0  0.68072372907E+02  0.45419518462E+02 -0.10380054511E+03  0.13217917300E+03  0.00000000000E+00 0. -1.
        -13    1    5    5    0    0  0.61114319903E+02 -0.45072899137E+02 -0.82562514945E+02  0.11217439640E+03  0.00000000000E+00 0.  1.
          4    1    6    6  503    0 -0.35637353142E+01  0.25884124908E+03  0.25800387080E+03  0.36548254375E+03  0.00000000000E+00 0. -1.
         -4    1    6    6    0  503 -0.76047744458E+02  0.38239510729E+03  0.50294050482E+03  0.63636344089E+03  0.00000000000E+00 0.  1.
<mgrwt>
<rscale>  0 0.20348379E+04</rscale>
<asrwt>0</asrwt>
<pdfrwt beam="1">  1        2 0.14756164E+00 0.20348379E+04</pdfrwt>
<pdfrwt beam="2">  1       -1 0.16603494E+00 0.20348379E+04</pdfrwt>
<totfact> 0.74502103E+00</totfact>
</mgrwt>
</event>
<event>
12    7  0.1546317E-007  0.1784432E+04  0.7818608E-02  0.8714623E-01
          2   -1    0    0  501    0  0.00000000000E+00  0.00000000000E+00  0.53519371947E+03  0.53519371947E+03  0.00000000000E+00 0. -1.
         -1   -1    0    0    0  501 -0.00000000000E+00 -0.00000000000E+00 -0.14874038420E+04  0.14874038420E+04  0.00000000000E+00 0.  1.
         24    2    1    2    0    0 -0.83723836417E+02  0.16512501393E+03  0.36097220500E+03  0.41363904189E+03  0.80748827787E+02 0.  0.
        254    2    1    2    0    0  0.83723836417E+02 -0.16512501393E+03 -0.13131823276E+04  0.16089585196E+04  0.91105638761E+03 0.  0.
         23    2    4    4    0    0  0.19927446444E+03 -0.40315348888E+02  0.53999145917E+02  0.22813781319E+03  0.88291078324E+02 0.  0.
         23    2    4    4    0    0 -0.11555062803E+03 -0.12480966504E+03 -0.13671814735E+04  0.13808207064E+04  0.92472924292E+02 0.  0.
          2    1    3    3  502    0 -0.64697869334E+02  0.15602486280E+03  0.35256112421E+03  0.39093339383E+03  0.00000000000E+00 0. -1.
         -1    1    3    3    0  502 -0.19025967083E+02  0.91001511304E+01  0.84110807902E+01  0.22705648066E+02  0.00000000000E+00 0.  1.
         13    1    5    5    0    0  0.42522805923E+02  0.35716053998E+01 -0.22542347180E+02  0.48260779160E+02  0.00000000000E+00 0.  1.
        -13    1    5    5    0    0  0.15675165852E+03 -0.43886954288E+02  0.76541493097E+02  0.17987703403E+03  0.00000000000E+00 0. -1.
          2    1    6    6  503    0 -0.21030741431E+02  0.53098554822E+01 -0.38052541411E+03  0.38114311935E+03  0.00000000000E+00 0.  1.
         -2    1    6    6    0  503 -0.94519886596E+02 -0.13011952052E+03 -0.98665605939E+03  0.99967758708E+03  0.00000000000E+00 0. -1.
<mgrwt>
<rscale>  0 0.17844318E+04</rscale>
<asrwt>0</asrwt>
<pdfrwt beam="1">  1        2 0.82337495E-01 0.17844318E+04</pdfrwt>
<pdfrwt beam="2">  1       -1 0.22883136E+00 0.17844318E+04</pdfrwt>
<totfact> 0.59005892E+00</totfact>
</mgrwt>
</event>
<event>
12    7  0.1546317E-007  0.1153016E+04  0.7818608E-02  0.9155006E-01
         -1   -1    0    0    0  501 -0.00000000000E+00  0.00000000000E+00  0.11867156344E+03  0.11867156344E+03  0.00000000000E+00 0.  1.
          2   -1    0    0  501    0  0.00000000000E+00 -0.00000000000E+00 -0.28006810515E+04  0.28006810515E+04  0.00000000000E+00 0. -1.
         24    2    1    2    0    0 -0.60605226453E+02  0.20623828798E+03 -0.44237939861E+03  0.49865959685E+03  0.82186594468E+02 0.  0.
        254    2    1    2    0    0  0.60605226453E+02 -0.20623828798E+03 -0.22396300894E+04  0.24206930181E+04  0.89308707605E+03 0.  0.
         23    2    4    4    0    0 -0.23083861376E+03  0.19782825953E+02 -0.13732133367E+03  0.28444662056E+03  0.91514509578E+02 0.  0.
         23    2    4    4    0    0  0.29144384021E+03 -0.22602111393E+03 -0.21023087557E+04  0.21362463975E+04  0.88439303603E+02 0.  0.
          2    1    3    3  502    0  0.45272565552E+01  0.31626324652E+02 -0.21909475153E+02  0.38739457462E+02  0.00000000000E+00 0. -1.
         -1    1    3    3    0  502 -0.65132483008E+02  0.17461196333E+03 -0.42046992346E+03  0.45992013939E+03  0.00000000000E+00 0.  1.
         13    1    5    5    0    0 -0.23503951413E+03  0.27917285476E+02 -0.13988698690E+03  0.27493875161E+03  0.00000000000E+00 0. -1.
        -13    1    5    5    0    0  0.42009003707E+01 -0.81344595232E+01  0.25656532248E+01  0.95078689584E+01  0.00000000000E+00 0.  1.
          4    1    6    6  503    0  0.91611072667E+00 -0.18287188011E+02 -0.53657963667E+02  0.56696010169E+02  0.00000000000E+00 0.  1.
         -4    1    6    6    0  503  0.29052772949E+03 -0.20773392592E+03 -0.20486507921E+04  0.20795503873E+04  0.00000000000E+00 0. -1.
<mgrwt>
<rscale>  0 0.11530155E+04</rscale>
<asrwt>0</asrwt>
<pdfrwt beam="1">  1        2 0.43087396E+00 0.11530155E+04</pdfrwt>
<pdfrwt beam="2">  1       -1 0.18257166E-01 0.11530155E+04</pdfrwt>
<totfact> 0.62797542E+01</totfact>
</mgrwt>
</event>
<event>
12    7  0.1546317E-007  0.2385971E+04  0.7818608E-02  0.8444774E-01
         -1   -1    0    0    0  501 -0.00000000000E+00  0.00000000000E+00  0.23460068595E+04  0.23460068595E+04  0.00000000000E+00 0.  1.
          2   -1    0    0  501    0  0.00000000000E+00 -0.00000000000E+00 -0.60665406954E+03  0.60665406954E+03  0.00000000000E+00 0. -1.
         24    2    1    2    0    0 -0.11822038442E+03 -0.40428631262E+03  0.18893500839E+04  0.19373060189E+04  0.78021725576E+02 0.  0.
        254    2    1    2    0    0  0.11822038442E+03  0.40428631262E+03 -0.14999729391E+03  0.10153549101E+04  0.91160458722E+03 0.  0.
         23    2    4    4    0    0 -0.20720691215E+03  0.11830376715E+03 -0.42336948302E+03  0.49475846037E+03  0.92810178299E+02 0.  0.
         23    2    4    4    0    0  0.32542729657E+03  0.28598254547E+03  0.27337218911E+03  0.52059644973E+03  0.92732777553E+02 0.  0.
          4    1    3    3  502    0  0.85125305152E+01 -0.54619019580E+02  0.29666851459E+03  0.30177459804E+03  0.00000000000E+00 0. -1.
         -3    1    3    3    0  502 -0.12673291494E+03 -0.34966729304E+03  0.15926815693E+04  0.16355314209E+04  0.00000000000E+00 0.  1.
         13    1    5    5    0    0 -0.14320841199E+03  0.33441664371E+02 -0.28019678467E+03  0.31644467498E+03  0.00000000000E+00 0.  1.
        -13    1    5    5    0    0 -0.63998500158E+02  0.84862102781E+02 -0.14317269835E+03  0.17831378540E+03  0.00000000000E+00 0. -1.
          1    1    6    6  503    0  0.88197743444E+02  0.48779515416E+02  0.26909078630E+02  0.10431865406E+03  0.00000000000E+00 0. -1.
         -1    1    6    6    0  503  0.23722955312E+03  0.23720303005E+03  0.24646311048E+03  0.41627779567E+03  0.00000000000E+00 0.  1.
<mgrwt>
<rscale>  0 0.23859712E+04</rscale>
<asrwt>0</asrwt>
<pdfrwt beam="1">  1        2 0.93331397E-01 0.23859712E+04</pdfrwt>
<pdfrwt beam="2">  1       -1 0.36092413E+00 0.23859712E+04</pdfrwt>
<totfact> 0.66112756E-01</totfact>
</mgrwt>
</event>
<event>
12    7  0.1546317E-007  0.2107094E+04  0.7818608E-02  0.8558125E-01
         -3   -1    0    0    0  501 -0.00000000000E+00  0.00000000000E+00  0.86387953796E+03  0.86387953796E+03  0.00000000000E+00 0.  1.
          2   -1    0    0  501    0  0.00000000000E+00 -0.00000000000E+00 -0.12848559739E+04  0.12848559739E+04  0.00000000000E+00 0. -1.
         24    2    1    2    0    0  0.29757988941E+02  0.79610502893E+03  0.17440124982E+03  0.81940039710E+03  0.79576754320E+02 0.  0.
        254    2    1    2    0    0 -0.29757988941E+02 -0.79610502893E+03 -0.59537768579E+03  0.13293351148E+04  0.88203656597E+03 0.  0.
         23    2    4    4    0    0  0.18326938002E+03  0.12541570320E+03 -0.10709066485E+03  0.26106657947E+03  0.85852106291E+02 0.  0.
         23    2    4    4    0    0 -0.21302736896E+03 -0.92152073213E+03 -0.48828702094E+03  0.10682685353E+04  0.90511485964E+02 0.  0.
          4    1    3    3  502    0  0.42944800094E+02  0.33843088651E+03  0.48768358041E+02  0.34461293294E+03  0.00000000000E+00 0. -1.
         -3    1    3    3    0  502 -0.13186811153E+02  0.45767414242E+03  0.12563289178E+03  0.47478746416E+03  0.00000000000E+00 0.  1.
         13    1    5    5    0    0  0.32415181958E+02 -0.11346904830E+02 -0.12492699404E+02  0.36545366451E+02  0.00000000000E+00 0.  1.
        -13    1    5    5    0    0  0.15085419806E+03  0.13676260803E+03 -0.94597965447E+02  0.22452121302E+03  0.00000000000E+00 0. -1.
          4    1    6    6  503    0 -0.15296000145E+02 -0.25025681284E+02 -0.30873299219E+02  0.42584186605E+02  0.00000000000E+00 0.  1.
         -4    1    6    6    0  503 -0.19773136882E+03 -0.89649505084E+03 -0.45741372172E+03  0.10256843487E+04  0.00000000000E+00 0. -1.
<mgrwt>
<rscale>  0 0.21070935E+04</rscale>
<asrwt>0</asrwt>
<pdfrwt beam="1">  1        2 0.19767015E+00 0.21070935E+04</pdfrwt>
<pdfrwt beam="2">  1       -3 0.13290454E+00 0.21070935E+04</pdfrwt>
<totfact> 0.43246543E+00</totfact>
</mgrwt>
</event>
<event>
12    7  0.1546317E-007  0.2019362E+04  0.7818608E-02  0.8597621E-01
         -1   -1    0    0    0  501 -0.00000000000E+00  0.00000000000E+00  0.72948970255E+03  0.72948970255E+03  0.00000000000E+00 0.  1.
          2   -1    0    0  501    0  0.00000000000E+00 -0.00000000000E+00 -0.13974920396E+04  0.13974920396E+04  0.00000000000E+00 0. -1.
         24    2    1    2    0    0 -0.23474525015E+02  0.50565085027E+03 -0.93226138907E+03  0.10644676135E+04  0.88012311348E+02 0.  0.
        254    2    1    2    0    0  0.23474525015E+02 -0.50565085027E+03  0.26425905204E+03  0.10625141286E+04  0.89602990532E+03 0.  0.
         23    2    4    4    0    0  0.58564279616E+02  0.18844315757E+03  0.28890813238E+03  0.36106837613E+03  0.89229282210E+02 0.  0.
         23    2    4    4    0    0 -0.35089754601E+02 -0.69409400784E+03 -0.24649080336E+02  0.70144575249E+03  0.91764829447E+02 0.  0.
          2    1    3    3  502    0 -0.54703577413E+01  0.46845272907E+03 -0.88740190286E+03  0.10034739764E+04  0.00000000000E+00 0. -1.
         -1    1    3    3    0  502 -0.18004167274E+02  0.37198121199E+02 -0.44859486219E+02  0.60993637076E+02  0.00000000000E+00 0.  1.
         13    1    5    5    0    0  0.59914297052E+02  0.53380616698E+02  0.12687857742E+03  0.15012457040E+03  0.00000000000E+00 0. -1.
        -13    1    5    5    0    0 -0.13500174360E+01  0.13506254088E+03  0.16202955495E+03  0.21094380572E+03  0.00000000000E+00 0.  1.
          3    1    6    6  503    0 -0.21962621722E+02 -0.65518278127E+03 -0.41933645155E+02  0.65689060294E+03  0.00000000000E+00 0.  1.
         -3    1    6    6    0  503 -0.13127132879E+02 -0.38911226567E+02  0.17284564818E+02  0.44555149551E+02  0.00000000000E+00 0. -1.
<mgrwt>
<rscale>  0 0.20193623E+04</rscale>
<asrwt>0</asrwt>
<pdfrwt beam="1">  1        2 0.21499877E+00 0.20193623E+04</pdfrwt>
<pdfrwt beam="2">  1       -1 0.11222919E+00 0.20193623E+04</pdfrwt>
<totfact> 0.11168516E+01</totfact>
</mgrwt>
</event>
<event>
12    7  0.1546317E-007  0.1730766E+04  0.7818608E-02  0.8744009E-01
          2   -1    0    0  501    0  0.00000000000E+00  0.00000000000E+00  0.11068185969E+04  0.11068185969E+04  0.00000000000E+00 0. -1.
         -1   -1    0    0    0  501 -0.00000000000E+00 -0.00000000000E+00 -0.67661268329E+03  0.67661268329E+03  0.00000000000E+00 0.  1.
         24    2    1    2    0    0 -0.52052501058E+03 -0.33444218582E+03  0.27523332223E+03  0.68298427848E+03  0.88973483065E+02 0.  0.
        254    2    1    2    0    0  0.52052501058E+03  0.33444218582E+03  0.15497259141E+03  0.11004470017E+04  0.89675483675E+03 0.  0.
         23    2    4    4    0    0  0.76257355232E+03  0.18617633297E+03  0.14058414895E+03  0.80251946827E+03  0.89964128179E+02 0.  0.
         23    2    4    4    0    0 -0.24204854174E+03  0.14826585285E+03  0.14388442454E+02  0.29792753346E+03  0.89350591704E+02 0.  0.
          4    1    3    3  502    0 -0.68101701793E+02 -0.81574995881E+02  0.57369679892E+02  0.12076258490E+03  0.00000000000E+00 0. -1.
         -3    1    3    3    0  502 -0.45242330879E+03 -0.25286718994E+03  0.21786364234E+03  0.56222169359E+03  0.00000000000E+00 0.  1.
         13    1    5    5    0    0  0.62306270599E+02 -0.94614631843E+01  0.12141475423E+02  0.64179483225E+02  0.00000000000E+00 0. -1.
        -13    1    5    5    0    0  0.70026728172E+03  0.19563779615E+03  0.12844267353E+03  0.73833998505E+03  0.00000000000E+00 0.  1.
          2    1    6    6  503    0 -0.34970083819E+02 -0.48880320018E+01 -0.15646398620E+02  0.38621359491E+02  0.00000000000E+00 0. -1.
         -2    1    6    6    0  503 -0.20707845792E+03  0.15315388485E+03  0.30034841075E+02  0.25930617397E+03  0.00000000000E+00 0.  1.
<mgrwt>
<rscale>  0 0.17307657E+04</rscale>
<asrwt>0</asrwt>
<pdfrwt beam="1">  1        2 0.17027978E+00 0.17307657E+04</pdfrwt>
<pdfrwt beam="2">  1       -1 0.10409426E+00 0.17307657E+04</pdfrwt>
<totfact> 0.20296261E+01</totfact>
</mgrwt>
</event>
<event>
12    7  0.1546317E-007  0.1898591E+04  0.7818608E-02  0.8655558E-01
          2   -1    0    0  501    0  0.00000000000E+00  0.00000000000E+00  0.15085966677E+04  0.15085966677E+04  0.00000000000E+00 0. -1.
         -1   -1    0    0    0  501 -0.00000000000E+00 -0.00000000000E+00 -0.59735128149E+03  0.59735128149E+03  0.00000000000E+00 0.  1.
         24    2    1    2    0    0  0.31114332199E+03  0.65920957094E+03  0.34749743387E+03  0.81145524670E+03  0.79609833658E+02 0.  0.
        254    2    1    2    0    0 -0.31114332199E+03 -0.65920957094E+03  0.56374795238E+03  0.12944927025E+04  0.90913815113E+03 0.  0.
         23    2    4    4    0    0 -0.98863756221E+02 -0.43793263426E+03  0.78249937014E+03  0.90671769098E+03  0.90954232576E+02 0.  0.
         23    2    4    4    0    0 -0.21227956577E+03 -0.22127693668E+03 -0.21875141777E+03  0.38777501154E+03  0.92147599286E+02 0.  0.
          2    1    3    3  502    0  0.21827325217E+02  0.67306532974E+02  0.59426229540E+02  0.92401722194E+02  0.00000000000E+00 0. -1.
         -1    1    3    3    0  502  0.28931599677E+03  0.59190303796E+03  0.28807120433E+03  0.71905352450E+03  0.00000000000E+00 0.  1.
         13    1    5    5    0    0  0.90541363994E+01 -0.12776958389E+03  0.18688833597E+03  0.22657072643E+03  0.00000000000E+00 0. -1.
        -13    1    5    5    0    0 -0.10791789262E+03 -0.31016305037E+03  0.59561103417E+03  0.68014696455E+03  0.00000000000E+00 0.  1.
          1    1    6    6  503    0 -0.15771674335E+03 -0.17301252984E+03 -0.20983340281E+03  0.31438505618E+03  0.00000000000E+00 0. -1.
         -1    1    6    6    0  503 -0.54562822423E+02 -0.48264406834E+02 -0.89180149602E+01  0.73389955366E+02  0.00000000000E+00 0.  1.
<mgrwt>
<rscale>  0 0.18985912E+04</rscale>
<asrwt>0</asrwt>
<pdfrwt beam="1">  1        2 0.23209179E+00 0.18985912E+04</pdfrwt>
<pdfrwt beam="2">  1       -1 0.91900198E-01 0.18985912E+04</pdfrwt>
<totfact> 0.15449901E+01</totfact>
</mgrwt>
</event>
<event>
12    7  0.1546317E-007  0.1261237E+04  0.7818608E-02  0.9060882E-01
         -1   -1    0    0    0  501 -0.00000000000E+00  0.00000000000E+00  0.68455375135E+03  0.68455375135E+03  0.00000000000E+00 0.  1.
          2   -1    0    0  501    0  0.00000000000E+00 -0.00000000000E+00 -0.58093261336E+03  0.58093261336E+03  0.00000000000E+00 0. -1.
         24    2    1    2    0    0 -0.29021321692E+03 -0.76251733916E+02  0.27330591261E+02  0.31182757364E+03  0.80320833296E+02 0.  0.
        254    2    1    2    0    0  0.29021321692E+03  0.76251733916E+02  0.76290546724E+02  0.95365879107E+03  0.90200155436E+03 0.  0.
         23    2    4    4    0    0  0.32044493466E+03 -0.17245788941E+03 -0.30680201868E+03  0.48610394082E+03  0.98706042603E+02 0.  0.
         23    2    4    4    0    0 -0.30231717738E+02  0.24870962333E+03  0.38309256540E+03  0.46755485026E+03  0.95274292640E+02 0.  0.
          2    1    3    3  502    0 -0.42400086380E+02 -0.32191005389E+02  0.27950876868E+02  0.60127195766E+02  0.00000000000E+00 0. -1.
         -1    1    3    3    0  502 -0.24781313054E+03 -0.44060728527E+02 -0.62028560684E+00  0.25170037787E+03  0.00000000000E+00 0.  1.
         13    1    5    5    0    0  0.20819764176E+03 -0.64153540808E+02 -0.14710547898E+03  0.26287251051E+03  0.00000000000E+00 0. -1.
        -13    1    5    5    0    0  0.11224729290E+03 -0.10830434860E+03 -0.15969653969E+03  0.22323143031E+03  0.00000000000E+00 0.  1.
          4    1    6    6  503    0 -0.36613280606E+02  0.25034458960E+03  0.38500331234E+03  0.46069566567E+03  0.00000000000E+00 0. -1.
         -4    1    6    6    0  503  0.63815628680E+01 -0.16349662666E+01 -0.19107469356E+01  0.68591845859E+01  0.00000000000E+00 0.  1.
<mgrwt>
<rscale>  0 0.12612369E+04</rscale>
<asrwt>0</asrwt>
<pdfrwt beam="1">  1        2 0.89374248E-01 0.12612369E+04</pdfrwt>
<pdfrwt beam="2">  1       -1 0.10531596E+00 0.12612369E+04</pdfrwt>
<totfact> 0.48994977E+01</totfact>
</mgrwt>
</event>
<event>
12    7  0.1546317E-007  0.2269290E+04  0.7818608E-02  0.8490129E-01
         -3   -1    0    0    0  501 -0.00000000000E+00  0.00000000000E+00  0.18364460280E+04  0.18364460280E+04  0.00000000000E+00 0.  1.
          2   -1    0    0  501    0  0.00000000000E+00 -0.00000000000E+00 -0.70103827358E+03  0.70103827358E+03  0.00000000000E+00 0. -1.
         24    2    1    2    0    0 -0.15143868631E+03  0.94477265266E+03  0.43757213729E+03  0.10551634558E+04  0.79821690518E+02 0.  0.
        254    2    1    2    0    0  0.15143868631E+03 -0.94477265266E+03  0.69783561709E+03  0.14823208457E+04  0.89149957948E+03 0.  0.
         23    2    4    4    0    0  0.51253900870E+03 -0.64085195946E+03  0.41131709825E+03  0.92272002421E+03  0.94037324471E+02 0.  0.
         23    2    4    4    0    0 -0.36110032239E+03 -0.30392069320E+03  0.28651851885E+03  0.55960082150E+03  0.91098777151E+02 0.  0.
          4    1    3    3  502    0 -0.17844940684E+02  0.57926084859E+02  0.48168854918E+02  0.77421649422E+02  0.00000000000E+00 0. -1.
         -3    1    3    3    0  502 -0.13359374563E+03  0.88684656780E+03  0.38940328237E+03  0.97774180642E+03  0.00000000000E+00 0.  1.
         13    1    5    5    0    0  0.18429375633E+03 -0.29705419281E+03  0.19748275661E+03  0.40150320204E+03  0.00000000000E+00 0. -1.
        -13    1    5    5    0    0  0.32824525237E+03 -0.34379776665E+03  0.21383434163E+03  0.52121682217E+03  0.00000000000E+00 0.  1.
          4    1    6    6  503    0 -0.58422731933E+02 -0.82143520353E+02  0.94154427404E+02  0.13793415002E+03  0.00000000000E+00 0. -1.
         -4    1    6    6    0  503 -0.30267759045E+03 -0.22177717285E+03  0.19236409144E+03  0.42166667148E+03  0.00000000000E+00 0.  1.
<mgrwt>
<rscale>  0 0.22692897E+04</rscale>
<asrwt>0</asrwt>
<pdfrwt beam="1">  1        2 0.10785204E+00 0.22692897E+04</pdfrwt>
<pdfrwt beam="2">  1       -3 0.28253016E+00 0.22692897E+04</pdfrwt>
<totfact> 0.11072267E+00</totfact>
</mgrwt>
</event>
<event>
12    7  0.2655948E-007  0.2298769E+04  0.7818608E-02  0.8478407E-01
          2   -1    0    0  501    0  0.00000000000E+00  0.00000000000E+00  0.13629383664E+04  0.13629383664E+04  0.00000000000E+00 0. -1.
         -1   -1    0    0    0  501 -0.00000000000E+00 -0.00000000000E+00 -0.96929160105E+03  0.96929160105E+03  0.00000000000E+00 0.  1.
         24    2    1    2    0    0 -0.63165188942E+01  0.22699253369E+03 -0.79205695795E+03  0.82781637896E+03  0.79751011689E+02 0.  0.
        254    2    1    2    0    0  0.63165188942E+01 -0.22699253369E+03  0.11857037233E+04  0.15044135885E+04  0.89766442340E+03 0.  0.
         23    2    4    4    0    0  0.10320951485E+03  0.54506458847E+01  0.12264511557E+04  0.12344151051E+04  0.94426166140E+02 0.  0.
         23    2    4    4    0    0 -0.96892995953E+02 -0.23244317958E+03 -0.40747432411E+02  0.26999848340E+03  0.88434967022E+02 0.  0.
          4    1    3    3  502    0  0.15779952315E+02  0.33472150328E+02 -0.61823401741E+02  0.72052236228E+02  0.00000000000E+00 0. -1.
         -3    1    3    3    0  502 -0.22096471209E+02  0.19352038336E+03 -0.73023355621E+03  0.75576414273E+03  0.00000000000E+00 0.  1.
         13    1    5    5    0    0 -0.10114182065E+02  0.21450857186E+02  0.29673670634E+03  0.29768289981E+03  0.00000000000E+00 0.  1.
        -13    1    5    5    0    0  0.11332369691E+03 -0.16000211301E+02  0.92971444938E+03  0.93673220529E+03  0.00000000000E+00 0. -1.
          3    1    6    6  503    0 -0.87387055792E+02 -0.13473294910E+03 -0.57168190597E+02  0.17046309603E+03  0.00000000000E+00 0. -1.
         -3    1    6    6    0  503 -0.95059401618E+01 -0.97710230482E+02  0.16420758185E+02  0.99535387368E+02  0.00000000000E+00 0.  1.
<mgrwt>
<rscale>  0 0.22987690E+04</rscale>
<asrwt>0</asrwt>
<pdfrwt beam="1">  1        2 0.20968283E+00 0.22987690E+04</pdfrwt>
<pdfrwt beam="2">  1       -1 0.14912178E+00 0.22987690E+04</pdfrwt>
<totfact> 0.55663504E+00</totfact>
</mgrwt>
</event>
<event>
12    7  0.1546317E-007  0.1096253E+04  0.7818608E-02  0.9208852E-01
         -1   -1    0    0    0  501 -0.00000000000E+00  0.00000000000E+00  0.21673302364E+03  0.21673302364E+03  0.00000000000E+00 0.  1.
          2   -1    0    0  501    0  0.00000000000E+00 -0.00000000000E+00 -0.13862328201E+04  0.13862328201E+04  0.00000000000E+00 0. -1.
         24    2    1    2    0    0 -0.40247021286E+01  0.77055886998E+02  0.88201325209E+01  0.11696248949E+03  0.87456396339E+02 0.  0.
        254    2    1    2    0    0  0.40247021286E+01 -0.77055886998E+02 -0.11783199290E+04  0.14860033543E+04  0.90211657001E+03 0.  0.
         23    2    4    4    0    0  0.33480983783E+03 -0.32844456557E+03 -0.56313257679E+03  0.73799158233E+03  0.86832116079E+02 0.  0.
         23    2    4    4    0    0 -0.33078513570E+03  0.25138867857E+03 -0.61518735223E+03  0.74801177196E+03  0.91929641248E+02 0.  0.
          4    1    3    3  502    0 -0.31439591396E+02  0.66270109108E+02 -0.19710101743E+02  0.75951717420E+02  0.00000000000E+00 0. -1.
         -3    1    3    3    0  502  0.27414889267E+02  0.10785777890E+02  0.28530234264E+02  0.41010772065E+02  0.00000000000E+00 0.  1.
         13    1    5    5    0    0  0.33856505843E+03 -0.32326461867E+03 -0.54327630511E+03  0.71713001343E+03  0.00000000000E+00 0. -1.
        -13    1    5    5    0    0 -0.37552205977E+01 -0.51799468958E+01 -0.19856271684E+02  0.20861568895E+02  0.00000000000E+00 0.  1.
          3    1    6    6  503    0 -0.17185101446E+03  0.18110026061E+03 -0.39848110024E+03  0.47023107385E+03  0.00000000000E+00 0. -1.
         -3    1    6    6    0  503 -0.15893412124E+03  0.70288417956E+02 -0.21670625199E+03  0.27778069811E+03  0.00000000000E+00 0.  1.
<mgrwt>
<rscale>  0 0.10962526E+04</rscale>
<asrwt>0</asrwt>
<pdfrwt beam="1">  1        2 0.21326658E+00 0.10962526E+04</pdfrwt>
<pdfrwt beam="2">  1       -1 0.33343543E-01 0.10962526E+04</pdfrwt>
<totfact> 0.14100189E+02</totfact>
</mgrwt>
</event>
<event>
12    7  0.1546317E-007  0.2547990E+04  0.7818608E-02  0.8386086E-01
          2   -1    0    0  501    0  0.00000000000E+00  0.00000000000E+00  0.12680051097E+04  0.12680051097E+04  0.00000000000E+00 0. -1.
         -1   -1    0    0    0  501 -0.00000000000E+00 -0.00000000000E+00 -0.12800130675E+04  0.12800130675E+04  0.00000000000E+00 0.  1.
         24    2    1    2    0    0 -0.56918679449E+03  0.43261614478E+03 -0.86082523185E+03  0.11218591428E+04  0.80109430263E+02 0.  0.
        254    2    1    2    0    0  0.56918679449E+03 -0.43261614478E+03  0.84881727398E+03  0.14261590344E+04  0.89571674709E+03 0.  0.
         23    2    4    4    0    0 -0.63355500992E+01 -0.34628508117E+03 -0.39395865690E+02  0.36031131839E+03  0.91206991448E+02 0.  0.
         23    2    4    4    0    0  0.57552234459E+03 -0.86331063609E+02  0.88821313967E+03  0.10658477160E+04  0.91813673018E+02 0.  0.
          4    1    3    3  502    0 -0.32962225852E+02  0.51837739975E+02 -0.64652080061E+02  0.89182683718E+02  0.00000000000E+00 0. -1.
         -3    1    3    3    0  502 -0.53622456864E+03  0.38077840480E+03 -0.79617315179E+03  0.10326764591E+04  0.00000000000E+00 0.  1.
         13    1    5    5    0    0  0.91587399415E+01 -0.65755011907E+01 -0.15827694474E+02  0.19432849651E+02  0.00000000000E+00 0.  1.
        -13    1    5    5    0    0 -0.15494290041E+02 -0.33970957998E+03 -0.23568171217E+02  0.34087846874E+03  0.00000000000E+00 0. -1.
          4    1    6    6  503    0  0.48273362034E+03 -0.81046356626E+02  0.68020550873E+03  0.83802135667E+03  0.00000000000E+00 0. -1.
         -4    1    6    6    0  503  0.92788724249E+02 -0.52847069824E+01  0.20800763094E+03  0.22782635933E+03  0.00000000000E+00 0.  1.
<mgrwt>
<rscale>  0 0.25479899E+04</rscale>
<asrwt>0</asrwt>
<pdfrwt beam="1">  1        2 0.19507771E+00 0.25479899E+04</pdfrwt>
<pdfrwt beam="2">  1       -1 0.19692509E+00 0.25479899E+04</pdfrwt>
<totfact> 0.27619121E+00</totfact>
</mgrwt>
</event>
<event>
12    7  0.1546317E-007  0.1047887E+04  0.7818608E-02  0.9257528E-01
         -1   -1    0    0    0  501 -0.00000000000E+00  0.00000000000E+00  0.10417344501E+03  0.10417344501E+03  0.00000000000E+00 0.  1.
          2   -1    0    0  501    0  0.00000000000E+00 -0.00000000000E+00 -0.26351894955E+04  0.26351894955E+04  0.00000000000E+00 0. -1.
         24    2    1    2    0    0  0.92743290354E+02 -0.19994243238E+02 -0.48065437712E+03  0.49650427124E+03  0.80540508102E+02 0.  0.
        254    2    1    2    0    0 -0.92743290354E+02  0.19994243238E+02 -0.20503616733E+04  0.22428586692E+04  0.90411886998E+03 0.  0.
         23    2    4    4    0    0 -0.43606413542E+03  0.11745382759E+03 -0.15786675224E+04  0.16443581822E+04  0.88177962365E+02 0.  0.
         23    2    4    4    0    0  0.34332084507E+03 -0.97459584352E+02 -0.47169415091E+03  0.59850048709E+03  0.91322986163E+02 0.  0.
          4    1    3    3  502    0  0.39466536221E+02 -0.20615900194E+02 -0.38016514587E+03  0.38276384490E+03  0.00000000000E+00 0. -1.
         -3    1    3    3    0  502  0.53276754132E+02  0.62165695649E+00 -0.10048923125E+03  0.11374042634E+03  0.00000000000E+00 0.  1.
         13    1    5    5    0    0 -0.64374927013E+02  0.17776452318E+02 -0.14001240703E+03  0.15512449067E+03  0.00000000000E+00 0. -1.
        -13    1    5    5    0    0 -0.37168920841E+03  0.99677375272E+02 -0.14386551154E+04  0.14892336915E+04  0.00000000000E+00 0.  1.
          3    1    6    6  503    0  0.69295774883E+02 -0.60167743076E+02 -0.12232532878E+03  0.15292333957E+03  0.00000000000E+00 0. -1.
         -3    1    6    6    0  503  0.27402507018E+03 -0.37291841275E+02 -0.34936882213E+03  0.44557714752E+03  0.00000000000E+00 0.  1.
<mgrwt>
<rscale>  0 0.10478870E+04</rscale>
<asrwt>0</asrwt>
<pdfrwt beam="1">  1        2 0.40541372E+00 0.10478870E+04</pdfrwt>
<pdfrwt beam="2">  1       -1 0.16026686E-01 0.10478870E+04</pdfrwt>
<totfact> 0.98460861E+01</totfact>
</mgrwt>
</event>
<event>
12    7  0.1546317E-007  0.4981839E+04  0.7818608E-02  0.7831315E-01
         -1   -1    0    0    0  501 -0.00000000000E+00  0.00000000000E+00  0.17139542115E+04  0.17139542115E+04  0.00000000000E+00 0.  1.
          2   -1    0    0  501    0  0.00000000000E+00 -0.00000000000E+00 -0.36200959908E+04  0.36200959908E+04  0.00000000000E+00 0. -1.
         24    2    1    2    0    0  0.10528895107E+04  0.18156070479E+03  0.13864022790E+04  0.17523056826E+04  0.83206457464E+02 0.  0.
        254    2    1    2    0    0 -0.10528895107E+04 -0.18156070479E+03 -0.32925440583E+04  0.35817445197E+04  0.92005805117E+03 0.  0.
         23    2    4    4    0    0 -0.14866903497E+03 -0.43330091969E+03 -0.11171132396E+04  0.12106549608E+04  0.88832848695E+02 0.  0.
         23    2    4    4    0    0 -0.90422047573E+03  0.25174021490E+03 -0.21754308187E+04  0.23710895590E+04  0.92620975459E+02 0.  0.
          2    1    3    3  502    0  0.69502787226E+03  0.15554839323E+03  0.95018735878E+03  0.11874826578E+04  0.00000000000E+00 0. -1.
         -1    1    3    3    0  502  0.35786163844E+03  0.26012311566E+02  0.43621492026E+03  0.56482302474E+03  0.00000000000E+00 0.  1.
         13    1    5    5    0    0 -0.51968350127E+02 -0.27110490252E+03 -0.71406482221E+03  0.76556328798E+03  0.00000000000E+00 0.  1.
        -13    1    5    5    0    0 -0.96700684842E+02 -0.16219601717E+03 -0.40304841740E+03  0.44509167281E+03  0.00000000000E+00 0. -1.
          3    1    6    6  503    0 -0.14824128943E+03  0.74409044865E+02 -0.34686427594E+03  0.38448278476E+03  0.00000000000E+00 0. -1.
         -3    1    6    6    0  503 -0.75597918631E+03  0.17733117003E+03 -0.18285665428E+04  0.19866067742E+04  0.00000000000E+00 0.  1.
<mgrwt>
<rscale>  0 0.49818385E+04</rscale>
<asrwt>0</asrwt>
<pdfrwt beam="1">  1        2 0.55693785E+00 0.49818385E+04</pdfrwt>
<pdfrwt beam="2">  1       -1 0.26368526E+00 0.49818385E+04</pdfrwt>
<totfact> 0.31310444E-02</totfact>
</mgrwt>
</event>
<event>
12    7  0.1546317E-007  0.2530913E+04  0.7818608E-02  0.8392055E-01
         -1   -1    0    0    0  501 -0.00000000000E+00  0.00000000000E+00  0.67947059687E+03  0.67947059687E+03  0.00000000000E+00 0.  1.
          2   -1    0    0  501    0  0.00000000000E+00 -0.00000000000E+00 -0.23568055308E+04  0.23568055308E+04  0.00000000000E+00 0. -1.
         24    2    1    2    0    0  0.16543121874E+03 -0.10866138805E+04 -0.85576842939E+03  0.13954070298E+04  0.81999759690E+02 0.  0.
        254    2    1    2    0    0 -0.16543121874E+03  0.10866138805E+04 -0.82156650455E+03  0.16408690979E+04  0.89965696890E+03 0.  0.
         23    2    4    4    0    0 -0.19700251499E+03 -0.76466590097E+02 -0.25693756637E+03  0.34490428135E+03  0.91021535724E+02 0.  0.
         23    2    4    4    0    0  0.31571296253E+02  0.11630804706E+04 -0.56462893819E+03  0.12959648166E+04  0.83462806963E+02 0.  0.
          2    1    3    3  502    0  0.12238557165E+03 -0.56172918930E+03 -0.47027668805E+03  0.74275034405E+03  0.00000000000E+00 0. -1.
         -1    1    3    3    0  502  0.43045647086E+02 -0.52488469119E+03 -0.38549174134E+03  0.65265668572E+03  0.00000000000E+00 0.  1.
         13    1    5    5    0    0 -0.77542890050E+01  0.11160652715E+02  0.49166841500E+00  0.13598930283E+02  0.00000000000E+00 0. -1.
        -13    1    5    5    0    0 -0.18924822599E+03 -0.87627242813E+02 -0.25742923478E+03  0.33130535106E+03  0.00000000000E+00 0.  1.
          2    1    6    6  503    0 -0.27748368964E+02  0.34006543164E+03 -0.15565770032E+03  0.37502505176E+03  0.00000000000E+00 0. -1.
         -2    1    6    6    0  503  0.59319665218E+02  0.82301503894E+03 -0.40897123786E+03  0.92093976481E+03  0.00000000000E+00 0.  1.
<mgrwt>
<rscale>  0 0.25309129E+04</rscale>
<asrwt>0</asrwt>
<pdfrwt beam="1">  1        2 0.36258547E+00 0.25309129E+04</pdfrwt>
<pdfrwt beam="2">  1       -1 0.10453394E+00 0.25309129E+04</pdfrwt>
<totfact> 0.36623506E+00</totfact>
</mgrwt>
</event>
<event>
12    7  0.1546317E-007  0.1292025E+04  0.7818608E-02  0.9035913E-01
         -1   -1    0    0    0  501 -0.00000000000E+00  0.00000000000E+00  0.30153312628E+03  0.30153312628E+03  0.00000000000E+00 0.  1.
          2   -1    0    0  501    0  0.00000000000E+00 -0.00000000000E+00 -0.13840350432E+04  0.13840350432E+04  0.00000000000E+00 0. -1.
         24    2    1    2    0    0  0.21894036688E+02  0.10210906538E+03  0.12772903188E+03  0.18424727212E+03  0.82016715515E+02 0.  0.
        254    2    1    2    0    0 -0.21894036688E+02 -0.10210906538E+03 -0.12102309488E+04  0.15013208973E+04  0.88226973047E+03 0.  0.
         23    2    4    4    0    0 -0.42791416698E+02  0.33867558661E+01 -0.13179011739E+04  0.13218480460E+04  0.92607650754E+02 0.  0.
         23    2    4    4    0    0  0.20897380010E+02 -0.10549582125E+03  0.10767022517E+03  0.17947285133E+03  0.95139677232E+02 0.  0.
          2    1    3    3  502    0  0.18620090017E+02  0.95497778020E+02  0.56244741070E+02  0.11238329172E+03  0.00000000000E+00 0. -1.
         -1    1    3    3    0  502  0.32739466707E+01  0.66112873635E+01  0.71484290807E+02  0.71863980405E+02  0.00000000000E+00 0.  1.
         13    1    5    5    0    0 -0.54883727529E+02 -0.22729528473E+02 -0.51224547056E+03  0.51567846292E+03  0.00000000000E+00 0. -1.
        -13    1    5    5    0    0  0.12092310830E+02  0.26116284339E+02 -0.80565570336E+03  0.80616958306E+03  0.00000000000E+00 0.  1.
          3    1    6    6  503    0  0.54588917376E+02 -0.33425522691E+02  0.46433766408E+02  0.79077873835E+02  0.00000000000E+00 0. -1.
         -3    1    6    6    0  503 -0.33691537366E+02 -0.72070298559E+02  0.61236458762E+02  0.10039497749E+03  0.00000000000E+00 0.  1.
<mgrwt>
<rscale>  0 0.12920254E+04</rscale>
<asrwt>0</asrwt>
<pdfrwt beam="1">  1        2 0.21292847E+00 0.12920254E+04</pdfrwt>
<pdfrwt beam="2">  1       -1 0.46389711E-01 0.12920254E+04</pdfrwt>
<totfact> 0.76388499E+01</totfact>
</mgrwt>
</event>
<event>
12    7  0.1546317E-007  0.1233544E+04  0.7818608E-02  0.9083992E-01
          2   -1    0    0  501    0  0.00000000000E+00  0.00000000000E+00  0.61055630447E+03  0.61055630447E+03  0.00000000000E+00 0. -1.
         -1   -1    0    0    0  501 -0.00000000000E+00 -0.00000000000E+00 -0.62305117317E+03  0.62305117317E+03  0.00000000000E+00 0.  1.
         24    2    1    2    0    0 -0.56540296176E+02  0.13947303321E+03 -0.26151466695E+03  0.31150944341E+03  0.77451147305E+02 0.  0.
        254    2    1    2    0    0  0.56540296176E+02 -0.13947303321E+03  0.24901979825E+03  0.92209803423E+03  0.87498822434E+03 0.  0.
         23    2    4    4    0    0  0.16186921395E+03  0.27695521682E+03  0.33688129556E+03  0.47418220404E+03  0.91945205346E+02 0.  0.
         23    2    4    4    0    0 -0.10532891777E+03 -0.41642825003E+03 -0.87861497310E+02  0.44791583019E+03  0.91663950832E+02 0.  0.
          2    1    3    3  502    0 -0.35483936077E+02  0.23065830614E+02 -0.11895993323E+03  0.12626404070E+03  0.00000000000E+00 0. -1.
         -1    1    3    3    0  502 -0.21056360099E+02  0.11640720260E+03 -0.14255473372E+03  0.18524540271E+03  0.00000000000E+00 0.  1.
         13    1    5    5    0    0  0.14242222818E+03  0.20764590123E+03  0.20815293645E+03  0.32669336744E+03  0.00000000000E+00 0. -1.
        -13    1    5    5    0    0  0.19446985765E+02  0.69309315591E+02  0.12872835911E+03  0.14748883660E+03  0.00000000000E+00 0.  1.
          3    1    6    6  503    0 -0.37584012178E+02 -0.30173568405E+03 -0.41570314360E+02  0.30689586514E+03  0.00000000000E+00 0. -1.
         -3    1    6    6    0  503 -0.67744905593E+02 -0.11469256598E+03 -0.46291182950E+02  0.14101996505E+03  0.00000000000E+00 0.  1.
<mgrwt>
<rscale>  0 0.12335442E+04</rscale>
<asrwt>0</asrwt>
<pdfrwt beam="1">  1        2 0.93931739E-01 0.12335442E+04</pdfrwt>
<pdfrwt beam="2">  1       -1 0.95854026E-01 0.12335442E+04</pdfrwt>
<totfact> 0.57362710E+01</totfact>
</mgrwt>
</event>
<event>
12    7  0.1546317E-007  0.1669538E+04  0.7818608E-02  0.8778931E-01
         -1   -1    0    0    0  501 -0.00000000000E+00  0.00000000000E+00  0.66645009952E+03  0.66645009952E+03  0.00000000000E+00 0.  1.
          2   -1    0    0  501    0  0.00000000000E+00 -0.00000000000E+00 -0.10455981983E+04  0.10455981983E+04  0.00000000000E+00 0. -1.
         24    2    1    2    0    0  0.12495855157E+02 -0.66380854918E+02  0.47344876182E+03  0.48490742295E+03  0.80118128202E+02 0.  0.
        254    2    1    2    0    0 -0.12495855157E+02  0.66380854918E+02 -0.85259686060E+03  0.12271408749E+04  0.87999474758E+03 0.  0.
         23    2    4    4    0    0 -0.14132983188E+03  0.14305073387E+03 -0.98362539014E+03  0.10081626454E+04  0.91844311674E+02 0.  0.
         23    2    4    4    0    0  0.12883397673E+03 -0.76669878952E+02  0.13102852953E+03  0.21897822948E+03  0.91140142294E+02 0.  0.
          4    1    3    3  502    0  0.31410091876E+02 -0.22116391350E+02  0.82488242493E+02  0.90994718460E+02  0.00000000000E+00 0. -1.
         -3    1    3    3    0  502 -0.18914236719E+02 -0.44264463568E+02  0.39096051933E+03  0.39391270449E+03  0.00000000000E+00 0.  1.
         13    1    5    5    0    0 -0.46208403884E+02  0.44745500153E+02 -0.14740801386E+03  0.16083065293E+03  0.00000000000E+00 0. -1.
        -13    1    5    5    0    0 -0.95121428000E+02  0.98305233716E+02 -0.83621737628E+03  0.84733199245E+03  0.00000000000E+00 0.  1.
          2    1    6    6  503    0  0.14605375391E+02 -0.30096333048E+02  0.77682318336E+02  0.84579245890E+02  0.00000000000E+00 0. -1.
         -2    1    6    6    0  503  0.11422860134E+03 -0.46573545904E+02  0.53346211198E+02  0.13439898359E+03  0.00000000000E+00 0.  1.
<mgrwt>
<rscale>  0 0.16695377E+04</rscale>
<asrwt>0</asrwt>
<pdfrwt beam="1">  1        2 0.16086126E+00 0.16695377E+04</pdfrwt>
<pdfrwt beam="2">  1       -1 0.10253078E+00 0.16695377E+04</pdfrwt>
<totfact> 0.23068292E+01</totfact>
</mgrwt>
</event>
<event>
12    7  0.1783039E-007  0.1755610E+04  0.7818608E-02  0.8730268E-01
          2   -1    0    0  501    0  0.00000000000E+00  0.00000000000E+00  0.18156225745E+04  0.18156225745E+04  0.00000000000E+00 0. -1.
         -1   -1    0    0    0  501 -0.00000000000E+00 -0.00000000000E+00 -0.42439528249E+03  0.42439528249E+03  0.00000000000E+00 0.  1.
         24    2    1    2    0    0  0.55076023217E+03  0.10370116452E+03  0.11005644902E+03  0.57662432392E+03  0.79324801318E+02 0.  0.
        254    2    1    2    0    0 -0.55076023217E+03 -0.10370116452E+03  0.12811708430E+04  0.16633935331E+04  0.90077108751E+03 0.  0.
         23    2    4    4    0    0  0.39893463028E+02 -0.11795324452E+03  0.98310823397E+03  0.99522123061E+03  0.91973049718E+02 0.  0.
         23    2    4    4    0    0 -0.59065369520E+03  0.14252079999E+02  0.29806260905E+03  0.66817230248E+03  0.92401284954E+02 0.  0.
          2    1    3    3  502    0  0.26877377516E+02 -0.27879849741E+00 -0.10887066553E+02  0.28999989119E+02  0.00000000000E+00 0. -1.
         -1    1    3    3    0  502  0.52388285465E+03  0.10397996302E+03  0.12094351557E+03  0.54762433480E+03  0.00000000000E+00 0.  1.
         13    1    5    5    0    0 -0.15332539733E+01  0.15194967803E+02  0.87610375207E+02  0.88931522860E+02  0.00000000000E+00 0.  1.
        -13    1    5    5    0    0  0.41426717001E+02 -0.13314821233E+03  0.89549785877E+03  0.90628970775E+03  0.00000000000E+00 0. -1.
          1    1    6    6  503    0 -0.55050258851E+03  0.37139145669E+02  0.27301450487E+03  0.61560485375E+03  0.00000000000E+00 0. -1.
         -1    1    6    6    0  503 -0.40151106692E+02 -0.22887065669E+02  0.25048104175E+02  0.52567448733E+02  0.00000000000E+00 0.  1.
<mgrwt>
<rscale>  0 0.17556100E+04</rscale>
<asrwt>0</asrwt>
<pdfrwt beam="1">  1        2 0.27932655E+00 0.17556100E+04</pdfrwt>
<pdfrwt beam="2">  1       -1 0.65291583E-01 0.17556100E+04</pdfrwt>
<totfact> 0.21704278E+01</totfact>
</mgrwt>
</event>
<event>
12    7  0.1546317E-007  0.1351927E+04  0.7818608E-02  0.8989370E-01
         -1   -1    0    0    0  501 -0.00000000000E+00  0.00000000000E+00  0.49214819051E+03  0.49214819051E+03  0.00000000000E+00 0.  1.
          2   -1    0    0  501    0  0.00000000000E+00 -0.00000000000E+00 -0.92843361569E+03  0.92843361569E+03  0.00000000000E+00 0. -1.
         24    2    1    2    0    0  0.33013157845E+03 -0.15099769160E+03 -0.20205377321E+03  0.42262064881E+03  0.77429474852E+02 0.  0.
        254    2    1    2    0    0 -0.33013157845E+03  0.15099769160E+03 -0.23423165196E+03  0.99796115739E+03  0.89959704475E+03 0.  0.
         23    2    4    4    0    0 -0.48709728060E+03 -0.74262237542E+02  0.14441567850E+03  0.52171808333E+03  0.92494484106E+02 0.  0.
         23    2    4    4    0    0  0.15696570215E+03  0.22525992914E+03 -0.37864733047E+03  0.47624307406E+03  0.89740723138E+02 0.  0.
          2    1    3    3  502    0  0.30942122462E+03 -0.12113640412E+03 -0.19597875869E+03  0.38577609634E+03  0.00000000000E+00 0. -1.
         -1    1    3    3    0  502  0.20710353827E+02 -0.29861287478E+02 -0.60750145238E+01  0.36844552473E+02  0.00000000000E+00 0.  1.
         13    1    5    5    0    0 -0.40335723554E+03 -0.28808016421E+02  0.99849567334E+02  0.41652958763E+03  0.00000000000E+00 0.  1.
        -13    1    5    5    0    0 -0.83740045051E+02 -0.45454221121E+02  0.44566111171E+02  0.10518849570E+03  0.00000000000E+00 0. -1.
          2    1    6    6  503    0  0.13580419090E+01  0.58235436407E+02 -0.54430222350E+02  0.79723644149E+02  0.00000000000E+00 0. -1.
         -2    1    6    6    0  503  0.15560766024E+03  0.16702449273E+03 -0.32421710812E+03  0.39651942991E+03  0.00000000000E+00 0.  1.
<mgrwt>
<rscale>  0 0.13519274E+04</rscale>
<asrwt>0</asrwt>
<pdfrwt beam="1">  1        2 0.14283594E+00 0.13519274E+04</pdfrwt>
<pdfrwt beam="2">  1       -1 0.75715106E-01 0.13519274E+04</pdfrwt>
<totfact> 0.54823508E+01</totfact>
</mgrwt>
</event>
<event>
12    7  0.1546317E-007  0.1117832E+04  0.7818608E-02  0.9187984E-01
         -1   -1    0    0    0  501 -0.00000000000E+00  0.00000000000E+00  0.18398204925E+03  0.18398204925E+03  0.00000000000E+00 0.  1.
          2   -1    0    0  501    0  0.00000000000E+00 -0.00000000000E+00 -0.16979215300E+04  0.16979215300E+04  0.00000000000E+00 0. -1.
         24    2    1    2    0    0  0.13049837681E+03  0.49176809658E+02 -0.67016310453E+02  0.17071296126E+03  0.72135596743E+02 0.  0.
        254    2    1    2    0    0 -0.13049837681E+03 -0.49176809658E+02 -0.14469231703E+04  0.17111906180E+04  0.90285020097E+03 0.  0.
         23    2    4    4    0    0 -0.23564887108E+03  0.33778931321E+03 -0.10833756744E+04  0.11625690156E+04  0.90729562515E+02 0.  0.
         23    2    4    4    0    0  0.10515049427E+03 -0.38696612287E+03 -0.36354749587E+03  0.54862160240E+03  0.89551516892E+02 0.  0.
          2    1    3    3  502    0 -0.28394027707E+01  0.19621514633E+02 -0.36680020827E+01  0.20162348173E+02  0.00000000000E+00 0. -1.
         -1    1    3    3    0  502  0.13333777958E+03  0.29555295025E+02 -0.63348308370E+02  0.15055061309E+03  0.00000000000E+00 0.  1.
         13    1    5    5    0    0 -0.42893681880E+02  0.24216757048E+02 -0.19129868017E+03  0.19753861471E+03  0.00000000000E+00 0. -1.
        -13    1    5    5    0    0 -0.19275518920E+03  0.31357255616E+03 -0.89207699423E+03  0.96503040085E+03  0.00000000000E+00 0.  1.
          4    1    6    6  503    0  0.23596379672E+02 -0.58566088326E+02 -0.19557814931E+02  0.66100559456E+02  0.00000000000E+00 0. -1.
         -4    1    6    6    0  503  0.81554114595E+02 -0.32840003454E+03 -0.34398968094E+03  0.48252104295E+03  0.00000000000E+00 0.  1.
<mgrwt>
<rscale>  0 0.11178320E+04</rscale>
<asrwt>0</asrwt>
<pdfrwt beam="1">  1        2 0.26121868E+00 0.11178320E+04</pdfrwt>
<pdfrwt beam="2">  1       -1 0.28304932E-01 0.11178320E+04</pdfrwt>
<totfact> 0.12552473E+02</totfact>
</mgrwt>
</event>
<event>
12    7  0.1546317E-007  0.2628352E+04  0.7818608E-02  0.8358634E-01
         -1   -1    0    0    0  501 -0.00000000000E+00  0.00000000000E+00  0.77732609809E+03  0.77732609809E+03  0.00000000000E+00 0.  1.
          2   -1    0    0  501    0  0.00000000000E+00 -0.00000000000E+00 -0.22217940558E+04  0.22217940558E+04  0.00000000000E+00 0. -1.
         24    2    1    2    0    0 -0.38213333313E+03 -0.10788369197E+04 -0.84890635584E+03  0.14271976040E+04  0.79599095961E+02 0.  0.
        254    2    1    2    0    0  0.38213333313E+03  0.10788369197E+04 -0.59556160182E+03  0.15719225499E+04  0.89795985303E+03 0.  0.
         23    2    4    4    0    0  0.15640728703E+02 -0.11711463578E+02  0.16521195569E+03  0.18967217147E+03  0.91097483792E+02 0.  0.
         23    2    4    4    0    0  0.36649260443E+03  0.10905483833E+04 -0.76077355751E+03  0.13822503784E+04  0.90703348505E+02 0.  0.
          2    1    3    3  502    0 -0.26638729258E+03 -0.66285542365E+03 -0.49841877068E+03  0.87106875347E+03  0.00000000000E+00 0. -1.
         -1    1    3    3    0  502 -0.11574604055E+03 -0.41598149609E+03 -0.35048758516E+03  0.55612885049E+03  0.00000000000E+00 0.  1.
         13    1    5    5    0    0 -0.31093463967E+02  0.45253104122E+01  0.22551079159E+02  0.38676001694E+02  0.00000000000E+00 0. -1.
        -13    1    5    5    0    0  0.46734192670E+02 -0.16236773990E+02  0.14266087653E+03  0.15099616977E+03  0.00000000000E+00 0.  1.
          4    1    6    6  503    0  0.13982233409E+03  0.28861591330E+03 -0.21193105869E+03  0.38440109802E+03  0.00000000000E+00 0. -1.
         -4    1    6    6    0  503  0.22667027034E+03  0.80193247001E+03 -0.54884249882E+03  0.99784928041E+03  0.00000000000E+00 0.  1.
<mgrwt>
<rscale>  0 0.26283520E+04</rscale>
<asrwt>0</asrwt>
<pdfrwt beam="1">  1        2 0.34181447E+00 0.26283520E+04</pdfrwt>
<pdfrwt beam="2">  1       -1 0.11958863E+00 0.26283520E+04</pdfrwt>
<totfact> 0.31453213E+00</totfact>
</mgrwt>
</event>
<event>
12    7  0.1546317E-007  0.1871903E+04  0.7818608E-02  0.8668970E-01
         -1   -1    0    0    0  501 -0.00000000000E+00  0.00000000000E+00  0.11385462264E+04  0.11385462264E+04  0.00000000000E+00 0.  1.
          2   -1    0    0  501    0  0.00000000000E+00 -0.00000000000E+00 -0.76940658888E+03  0.76940658888E+03  0.00000000000E+00 0. -1.
         24    2    1    2    0    0  0.25925597505E+03  0.30189415175E+03  0.76327768831E+03  0.86456285230E+03  0.80761108435E+02 0.  0.
        254    2    1    2    0    0 -0.25925597505E+03 -0.30189415175E+03 -0.39413805078E+03  0.10433899630E+04  0.88032043733E+03 0.  0.
         23    2    4    4    0    0 -0.57212793270E+03 -0.12622830737E+03 -0.28160042317E+03  0.65638491373E+03  0.90985711478E+02 0.  0.
         23    2    4    4    0    0  0.31287195764E+03 -0.17566584438E+03 -0.11253762761E+03  0.38700504927E+03  0.91437627781E+02 0.  0.
          4    1    3    3  502    0  0.46741236081E+02  0.54075013376E+02  0.21368100742E+03  0.22531849271E+03  0.00000000000E+00 0. -1.
         -3    1    3    3    0  502  0.21251473897E+03  0.24781913837E+03  0.54959668089E+03  0.63924435959E+03  0.00000000000E+00 0.  1.
         13    1    5    5    0    0 -0.52619350861E+03 -0.97790789888E+02 -0.23302041963E+03  0.58373038559E+03  0.00000000000E+00 0. -1.
        -13    1    5    5    0    0 -0.45934424088E+02 -0.28437517480E+02 -0.48580003537E+02  0.72654528148E+02  0.00000000000E+00 0.  1.
          2    1    6    6  503    0  0.72938353249E+02 -0.14756822037E+00 -0.25039554368E+02  0.77116823288E+02  0.00000000000E+00 0. -1.
         -2    1    6    6    0  503  0.23993360440E+03 -0.17551827616E+03 -0.87498073237E+02  0.30988822599E+03  0.00000000000E+00 0.  1.
<mgrwt>
<rscale>  0 0.18719027E+04</rscale>
<asrwt>0</asrwt>
<pdfrwt beam="1">  1        2 0.11837024E+00 0.18719027E+04</pdfrwt>
<pdfrwt beam="2">  1       -1 0.17516096E+00 0.18719027E+04</pdfrwt>
<totfact> 0.87661542E+00</totfact>
</mgrwt>
</event>
<event>
12    7  0.1546317E-007  0.1150024E+04  0.7818608E-02  0.9157762E-01
          2   -1    0    0  501    0  0.00000000000E+00  0.00000000000E+00  0.42995687516E+03  0.42995687516E+03  0.00000000000E+00 0. -1.
         -1   -1    0    0    0  501 -0.00000000000E+00 -0.00000000000E+00 -0.76900410752E+03  0.76900410752E+03  0.00000000000E+00 0.  1.
         24    2    1    2    0    0  0.13680452866E+03  0.34946418677E+02  0.98904366684E+02  0.18898865963E+03  0.77446165039E+02 0.  0.
        254    2    1    2    0    0 -0.13680452866E+03 -0.34946418677E+02 -0.43795159904E+03  0.10099723231E+04  0.89905826229E+03 0.  0.
         23    2    4    4    0    0  0.33562969341E+03 -0.81597788392E+02  0.34490715616E+00  0.35736377248E+03  0.91669279245E+02 0.  0.
         23    2    4    4    0    0 -0.47243422206E+03  0.46651369715E+02 -0.43829650620E+03  0.65260855057E+03  0.91780436136E+02 0.  0.
          4    1    3    3  502    0  0.12286500803E+03  0.23808390816E+02  0.11112170394E+03  0.16736392311E+03  0.00000000000E+00 0. -1.
         -3    1    3    3    0  502  0.13939520632E+02  0.11138027861E+02 -0.12217337256E+02  0.21624736523E+02  0.00000000000E+00 0.  1.
         13    1    5    5    0    0  0.32206108991E+03 -0.58646387502E+02  0.13494516065E+02  0.32763523370E+03  0.00000000000E+00 0.  1.
        -13    1    5    5    0    0  0.13568603500E+02 -0.22951400891E+02 -0.13149608909E+02  0.29728538784E+02  0.00000000000E+00 0. -1.
          3    1    6    6  503    0 -0.22581396700E+03  0.22955494994E+01 -0.15237863592E+03  0.27242699191E+03  0.00000000000E+00 0. -1.
         -3    1    6    6    0  503 -0.24662025506E+03  0.44355820216E+02 -0.28591787028E+03  0.38018155865E+03  0.00000000000E+00 0.  1.
<mgrwt>
<rscale>  0 0.11500237E+04</rscale>
<asrwt>0</asrwt>
<pdfrwt beam="1">  1        2 0.66147211E-01 0.11500237E+04</pdfrwt>
<pdfrwt beam="2">  1       -1 0.11830833E+00 0.11500237E+04</pdfrwt>
<totfact> 0.53212296E+01</totfact>
</mgrwt>
</event>
<event>
12    7  0.1546317E-007  0.1346294E+04  0.7818608E-02  0.8993638E-01
         -1   -1    0    0    0  501 -0.00000000000E+00  0.00000000000E+00  0.34356781428E+03  0.34356781428E+03  0.00000000000E+00 0.  1.
          2   -1    0    0  501    0  0.00000000000E+00 -0.00000000000E+00 -0.13188856463E+04  0.13188856463E+04  0.00000000000E+00 0. -1.
         24    2    1    2    0    0 -0.20357972624E+02  0.35812947994E+03 -0.29486416130E+03  0.47195430159E+03  0.84408635368E+02 0.  0.
        254    2    1    2    0    0  0.20357972624E+02 -0.35812947994E+03 -0.68045367071E+03  0.11904991590E+04  0.90862526824E+03 0.  0.
         23    2    4    4    0    0 -0.12795440371E+03  0.78944764192E+02 -0.69781187851E+03  0.71966408829E+03  0.91489764287E+02 0.  0.
         23    2    4    4    0    0  0.14831237633E+03 -0.43707424413E+03  0.17358207796E+02  0.47083507068E+03  0.91399674761E+02 0.  0.
          2    1    3    3  502    0 -0.47977170499E+02  0.29053794746E+03 -0.24978310849E+03  0.38614208407E+03  0.00000000000E+00 0. -1.
         -1    1    3    3    0  502  0.27619197875E+02  0.67591532477E+02 -0.45081052809E+02  0.85812217523E+02  0.00000000000E+00 0.  1.
         13    1    5    5    0    0 -0.19238603600E+02  0.28145594624E+02 -0.35153696875E+03  0.35318626638E+03  0.00000000000E+00 0. -1.
        -13    1    5    5    0    0 -0.10871580011E+03  0.50799169568E+02 -0.34627490976E+03  0.36647782191E+03  0.00000000000E+00 0.  1.
          3    1    6    6  503    0  0.12893215465E+03 -0.41771053311E+03  0.34504256397E+02  0.43851583060E+03  0.00000000000E+00 0. -1.
         -3    1    6    6    0  503  0.19380221680E+02 -0.19363711024E+02 -0.17146048601E+02  0.32319240084E+02  0.00000000000E+00 0.  1.
<mgrwt>
<rscale>  0 0.13462937E+04</rscale>
<asrwt>0</asrwt>
<pdfrwt beam="1">  1        2 0.20290548E+00 0.13462937E+04</pdfrwt>
<pdfrwt beam="2">  1       -1 0.52856587E-01 0.13462937E+04</pdfrwt>
<totfact> 0.64757541E+01</totfact>
</mgrwt>
</event>
<event>
12    7  0.1546317E-007  0.1543866E+04  0.7818608E-02  0.8855795E-01
          2   -1    0    0  501    0  0.00000000000E+00  0.00000000000E+00  0.13853423492E+04  0.13853423492E+04  0.00000000000E+00 0. -1.
         -1   -1    0    0    0  501 -0.00000000000E+00 -0.00000000000E+00 -0.43013235461E+03  0.43013235461E+03  0.00000000000E+00 0.  1.
         24    2    1    2    0    0  0.39677627236E+03 -0.27637850825E+03  0.13553865647E+03  0.50837220579E+03  0.79089076938E+02 0.  0.
        254    2    1    2    0    0 -0.39677627236E+03  0.27637850825E+03  0.81967133815E+03  0.13071024981E+04  0.89601302876E+03 0.  0.
         23    2    4    4    0    0 -0.10609255961E+03 -0.84803555066E+02 -0.15363442994E+03  0.22517621518E+03  0.93024274587E+02 0.  0.
         23    2    4    4    0    0 -0.29068371275E+03  0.36118206332E+03  0.97330576809E+03  0.10819262829E+04  0.91054157884E+02 0.  0.
          2    1    3    3  502    0  0.16499832731E+03 -0.13166623848E+03  0.97393488728E+02  0.23247782263E+03  0.00000000000E+00 0. -1.
         -1    1    3    3    0  502  0.23177794506E+03 -0.14471226977E+03  0.38145167742E+02  0.27589438316E+03  0.00000000000E+00 0.  1.
         13    1    5    5    0    0 -0.77090163269E+02 -0.93770827714E+02 -0.15234145663E+03  0.19479163435E+03  0.00000000000E+00 0. -1.
        -13    1    5    5    0    0 -0.29002396343E+02  0.89672726483E+01 -0.12929733095E+01  0.30384580833E+02  0.00000000000E+00 0.  1.
          4    1    6    6  503    0 -0.20523221788E+03  0.19988284833E+03  0.52916369952E+03  0.60173718283E+03  0.00000000000E+00 0. -1.
         -4    1    6    6    0  503 -0.85451494870E+02  0.16129921499E+03  0.44414206857E+03  0.48018910005E+03  0.00000000000E+00 0.  1.
<mgrwt>
<rscale>  0 0.15438660E+04</rscale>
<asrwt>0</asrwt>
<pdfrwt beam="1">  1        2 0.21312959E+00 0.15438660E+04</pdfrwt>
<pdfrwt beam="2">  1       -1 0.66174209E-01 0.15438660E+04</pdfrwt>
<totfact> 0.37476099E+01</totfact>
</mgrwt>
</event>
<event>
12    7  0.1546317E-007  0.1439383E+04  0.7818608E-02  0.8925794E-01
          2   -1    0    0  501    0  0.00000000000E+00  0.00000000000E+00  0.12784177922E+04  0.12784177922E+04  0.00000000000E+00 0. -1.
         -1   -1    0    0    0  501 -0.00000000000E+00 -0.00000000000E+00 -0.40515388358E+03  0.40515388358E+03  0.00000000000E+00 0.  1.
         24    2    1    2    0    0  0.36860967321E+03  0.18244586544E+03  0.48743458396E+03  0.64272467304E+03  0.79642618573E+02 0.  0.
        254    2    1    2    0    0 -0.36860967321E+03 -0.18244586544E+03  0.38582932466E+03  0.10408470027E+04  0.87483634490E+03 0.  0.
         23    2    4    4    0    0  0.26506084137E+03  0.41775854042E+02  0.16323177138E+03  0.32725997746E+03  0.91934814115E+02 0.  0.
         23    2    4    4    0    0 -0.63367051458E+03 -0.22422171948E+03  0.22259755328E+03  0.71358702529E+03  0.88561116706E+02 0.  0.
          4    1    3    3  502    0  0.33406442127E+03  0.13571150200E+03  0.42704069133E+03  0.55891001189E+03  0.00000000000E+00 0. -1.
         -3    1    3    3    0  502  0.34545251938E+02  0.46734363433E+02  0.60393892630E+02  0.83814661151E+02  0.00000000000E+00 0.  1.
         13    1    5    5    0    0  0.23045059589E+03  0.63294731858E+02  0.11851381776E+03  0.26675686538E+03  0.00000000000E+00 0. -1.
        -13    1    5    5    0    0  0.34610245480E+02 -0.21518877816E+02  0.44717953620E+02  0.60503112074E+02  0.00000000000E+00 0.  1.
          4    1    6    6  503    0 -0.45064188914E+03 -0.12493374521E+03  0.17977409296E+03  0.50100426889E+03  0.00000000000E+00 0. -1.
         -4    1    6    6    0  503 -0.18302862544E+03 -0.99287974267E+02  0.42823460322E+02  0.21258275640E+03  0.00000000000E+00 0.  1.
<mgrwt>
<rscale>  0 0.14393831E+04</rscale>
<asrwt>0</asrwt>
<pdfrwt beam="1">  1        2 0.19667966E+00 0.14393831E+04</pdfrwt>
<pdfrwt beam="2">  1       -1 0.62331367E-01 0.14393831E+04</pdfrwt>
<totfact> 0.49158596E+01</totfact>
</mgrwt>
</event>
<event>
12    7  0.1546317E-007  0.1333463E+04  0.7818608E-02  0.9003442E-01
          2   -1    0    0  501    0  0.00000000000E+00  0.00000000000E+00  0.28009854692E+03  0.28009854692E+03  0.00000000000E+00 0. -1.
         -1   -1    0    0    0  501 -0.00000000000E+00 -0.00000000000E+00 -0.15870509111E+04  0.15870509111E+04  0.00000000000E+00 0.  1.
         24    2    1    2    0    0  0.16668714390E+03  0.54958431167E+02 -0.79260968872E+03  0.81557046106E+03  0.78230590007E+02 0.  0.
        254    2    1    2    0    0 -0.16668714390E+03 -0.54958431167E+02 -0.51434267545E+03  0.10515789969E+04  0.90025827735E+03 0.  0.
         23    2    4    4    0    0 -0.43390827425E+03 -0.26641995933E+03 -0.46385648279E+03  0.69504617405E+03  0.93114779905E+02 0.  0.
         23    2    4    4    0    0  0.26722113035E+03  0.21146152816E+03 -0.50486192652E+02  0.35653282290E+03  0.91889541062E+02 0.  0.
          4    1    3    3  502    0  0.95233079863E+02  0.82093157026E+01 -0.27921495241E+03  0.29512323191E+03  0.00000000000E+00 0. -1.
         -3    1    3    3    0  502  0.71454064040E+02  0.46749115465E+02 -0.51339473631E+03  0.52044722915E+03  0.00000000000E+00 0.  1.
         13    1    5    5    0    0 -0.38847515787E+03 -0.25631996159E+03 -0.38746071155E+03  0.60558952598E+03  0.00000000000E+00 0. -1.
        -13    1    5    5    0    0 -0.45433116387E+02 -0.10099997742E+02 -0.76395771246E+02  0.89456648067E+02  0.00000000000E+00 0.  1.
          1    1    6    6  503    0  0.19072125923E+03  0.13125537946E+03 -0.74323758369E+02  0.24315960688E+03  0.00000000000E+00 0. -1.
         -1    1    6    6    0  503  0.76499871119E+02  0.80206148703E+02  0.23837565717E+02  0.11337321602E+03  0.00000000000E+00 0.  1.
<mgrwt>
<rscale>  0 0.13334626E+04</rscale>
<asrwt>0</asrwt>
<pdfrwt beam="1">  1        2 0.43092084E-01 0.13334626E+04</pdfrwt>
<pdfrwt beam="2">  1       -1 0.24416168E+00 0.13334626E+04</pdfrwt>
<totfact> 0.10122348E+01</totfact>
</mgrwt>
</event>
<event>
12    7  0.1546317E-007  0.2395345E+04  0.7818608E-02  0.8441248E-01
          2   -1    0    0  501    0  0.00000000000E+00  0.00000000000E+00  0.13472101745E+04  0.13472101745E+04  0.00000000000E+00 0. -1.
         -1   -1    0    0    0  501 -0.00000000000E+00 -0.00000000000E+00 -0.10647330945E+04  0.10647330945E+04  0.00000000000E+00 0.  1.
         24    2    1    2    0    0  0.54407128495E+03 -0.87549886224E+03  0.10703896579E+03  0.10395051616E+04  0.81251584608E+02 0.  0.
        254    2    1    2    0    0 -0.54407128495E+03  0.87549886224E+03  0.17543811426E+03  0.13724381074E+04  0.88898594239E+03 0.  0.
         23    2    4    4    0    0  0.38665397174E+02  0.55924594920E+03  0.36763771275E+03  0.67596277931E+03  0.86701479480E+02 0.  0.
         23    2    4    4    0    0 -0.58273668213E+03  0.31625291304E+03 -0.19219959849E+03  0.69647532807E+03  0.92408069159E+02 0.  0.
          2    1    3    3  502    0  0.34650253051E+03 -0.54493174616E+03  0.10592047407E+03  0.65439572007E+03  0.00000000000E+00 0. -1.
         -1    1    3    3    0  502  0.19756875445E+03 -0.33056711608E+03  0.11184917136E+01  0.38510944158E+03  0.00000000000E+00 0.  1.
         13    1    5    5    0    0  0.23466617810E+01  0.28225302006E+03  0.13729314046E+03  0.31388163465E+03  0.00000000000E+00 0. -1.
        -13    1    5    5    0    0  0.36318735393E+02  0.27699292914E+03  0.23034457230E+03  0.36208114466E+03  0.00000000000E+00 0.  1.
          2    1    6    6  503    0 -0.15154562303E+02 -0.58811275698E+01 -0.91993687012E+01  0.18678244152E+02  0.00000000000E+00 0. -1.
         -2    1    6    6    0  503 -0.56758211982E+03  0.32213404061E+03 -0.18300022979E+03  0.67779708392E+03  0.00000000000E+00 0.  1.
<mgrwt>
<rscale>  0 0.23953449E+04</rscale>
<asrwt>0</asrwt>
<pdfrwt beam="1">  1        2 0.20726310E+00 0.23953449E+04</pdfrwt>
<pdfrwt beam="2">  1       -1 0.16380509E+00 0.23953449E+04</pdfrwt>
<totfact> 0.43519226E+00</totfact>
</mgrwt>
</event>
<event>
12    7  0.1546317E-007  0.1475684E+04  0.7818608E-02  0.8900786E-01
          2   -1    0    0  501    0  0.00000000000E+00  0.00000000000E+00  0.52270249421E+03  0.52270249421E+03  0.00000000000E+00 0. -1.
         -1   -1    0    0    0  501 -0.00000000000E+00 -0.00000000000E+00 -0.10415307309E+04  0.10415307309E+04  0.00000000000E+00 0.  1.
         24    2    1    2    0    0 -0.16032368042E+03 -0.11472452326E+03 -0.60718359939E+03  0.64306956416E+03  0.77467039756E+02 0.  0.
        254    2    1    2    0    0  0.16032368042E+03  0.11472452326E+03  0.88355362737E+02  0.92116366091E+03  0.89547217786E+03 0.  0.
         23    2    4    4    0    0  0.36469422270E+03 -0.26838335203E+03 -0.23330727466E+02  0.46324682225E+03  0.94983134114E+02 0.  0.
         23    2    4    4    0    0 -0.20437054228E+03  0.38310787529E+03  0.11168609020E+03  0.45791683866E+03  0.93140140222E+02 0.  0.
          4    1    3    3  502    0  0.76891440047E+01 -0.25561295166E+01 -0.11536665663E+02  0.14097921416E+02  0.00000000000E+00 0. -1.
         -3    1    3    3    0  502 -0.16801282442E+03 -0.11216839375E+03 -0.59564693372E+03  0.62897164275E+03  0.00000000000E+00 0.  1.
         13    1    5    5    0    0  0.13989956364E+03 -0.57705364714E+02  0.17997368531E+02  0.15239981068E+03  0.00000000000E+00 0.  1.
        -13    1    5    5    0    0  0.22479465906E+03 -0.21067798731E+03 -0.41328095998E+02  0.31084701156E+03  0.00000000000E+00 0. -1.
          1    1    6    6  503    0 -0.16435890773E+03  0.22604102798E+03  0.47003075402E+02  0.28340375082E+03  0.00000000000E+00 0. -1.
         -1    1    6    6    0  503 -0.40011634546E+02  0.15706684731E+03  0.64683014802E+02  0.17451308784E+03  0.00000000000E+00 0.  1.
<mgrwt>
<rscale>  0 0.14756839E+04</rscale>
<asrwt>0</asrwt>
<pdfrwt beam="1">  1        2 0.80415768E-01 0.14756839E+04</pdfrwt>
<pdfrwt beam="2">  1       -1 0.16023550E+00 0.14756839E+04</pdfrwt>
<totfact> 0.18827221E+01</totfact>
</mgrwt>
</event>
<event>
12    7  0.1546317E-007  0.1680342E+04  0.7818608E-02  0.8772656E-01
          2   -1    0    0  501    0  0.00000000000E+00  0.00000000000E+00  0.43678755802E+04  0.43678755802E+04  0.00000000000E+00 0. -1.
         -1   -1    0    0    0  501 -0.00000000000E+00 -0.00000000000E+00 -0.16160887220E+03  0.16160887220E+03  0.00000000000E+00 0.  1.
         24    2    1    2    0    0 -0.50313811985E+03  0.54968435579E+02  0.64716161521E+03  0.82535778993E+03  0.78916592914E+02 0.  0.
        254    2    1    2    0    0  0.50313811985E+03 -0.54968435579E+02  0.35591050927E+04  0.37041266624E+04  0.89283580437E+03 0.  0.
         23    2    4    4    0    0  0.19458452685E+03 -0.26348086271E+03  0.41385857958E+03  0.53556515776E+03  0.90916506794E+02 0.  0.
         23    2    4    4    0    0  0.30855359300E+03  0.20851242713E+03  0.31452465132E+04  0.31685615047E+04  0.92323498162E+02 0.  0.
          4    1    3    3  502    0 -0.17142135833E+03  0.19542221725E+02  0.28338613280E+03  0.33177534686E+03  0.00000000000E+00 0. -1.
         -3    1    3    3    0  502 -0.33171676152E+03  0.35426213854E+02  0.36377548241E+03  0.49358244307E+03  0.00000000000E+00 0.  1.
         13    1    5    5    0    0  0.64953519869E+02 -0.10813288815E+03  0.94930395532E+02  0.15787166066E+03  0.00000000000E+00 0. -1.
        -13    1    5    5    0    0  0.12963100698E+03 -0.15534797456E+03  0.31892818405E+03  0.37769349710E+03  0.00000000000E+00 0.  1.
          2    1    6    6  503    0  0.29338093467E+03  0.16304997058E+03  0.27758078374E+04  0.27960269698E+04  0.00000000000E+00 0. -1.
         -2    1    6    6    0  503  0.15172658335E+02  0.45462456553E+02  0.36943867573E+03  0.37253453484E+03  0.00000000000E+00 0.  1.
<mgrwt>
<rscale>  0 0.16803422E+04</rscale>
<asrwt>0</asrwt>
<pdfrwt beam="1">  1        2 0.67198077E+00 0.16803422E+04</pdfrwt>
<pdfrwt beam="2">  1       -1 0.24862907E-01 0.16803422E+04</pdfrwt>
<totfact> 0.25854942E+00</totfact>
</mgrwt>
</event>
<event>
12    7  0.1546317E-007  0.2082230E+04  0.7818608E-02  0.8569112E-01
         -1   -1    0    0    0  501 -0.00000000000E+00  0.00000000000E+00  0.35825395579E+03  0.35825395579E+03  0.00000000000E+00 0.  1.
          2   -1    0    0  501    0  0.00000000000E+00 -0.00000000000E+00 -0.30255638481E+04  0.30255638481E+04  0.00000000000E+00 0. -1.
         24    2    1    2    0    0  0.42368193891E+03 -0.29937172962E+03 -0.62875174390E+01  0.52506171209E+03  0.80749308211E+02 0.  0.
        254    2    1    2    0    0 -0.42368193891E+03  0.29937172962E+03 -0.26610223749E+04  0.28587560918E+04  0.90681668213E+03 0.  0.
         23    2    4    4    0    0 -0.36646669762E+03  0.74823373421E+02 -0.30965727652E+03  0.49439399832E+03  0.92959232968E+02 0.  0.
         23    2    4    4    0    0 -0.57215241294E+02  0.22454835620E+03 -0.23513650984E+04  0.23643620935E+04  0.87147778369E+02 0.  0.
          2    1    3    3  502    0  0.98430729971E+01  0.48407218155E+01 -0.32143756284E+01  0.11430261782E+02  0.00000000000E+00 0. -1.
         -1    1    3    3    0  502  0.41383886592E+03 -0.30421245143E+03 -0.30731418107E+01  0.51363145031E+03  0.00000000000E+00 0.  1.
         13    1    5    5    0    0 -0.26270193956E+02  0.31541106548E+02 -0.47170923876E+02  0.62530476986E+02  0.00000000000E+00 0. -1.
        -13    1    5    5    0    0 -0.34019650366E+03  0.43282266872E+02 -0.26248635265E+03  0.43186352133E+03  0.00000000000E+00 0.  1.
          1    1    6    6  503    0  0.20348414497E+02  0.89765866583E+02 -0.88825397325E+03  0.89301012859E+03  0.00000000000E+00 0. -1.
         -1    1    6    6    0  503 -0.77563655791E+02  0.13478248961E+03 -0.14631111251E+04  0.14713519649E+04  0.00000000000E+00 0.  1.
<mgrwt>
<rscale>  0 0.20822298E+04</rscale>
<asrwt>0</asrwt>
<pdfrwt beam="1">  1        2 0.46547136E+00 0.20822298E+04</pdfrwt>
<pdfrwt beam="2">  1       -1 0.55115994E-01 0.20822298E+04</pdfrwt>
<totfact> 0.58756883E+00</totfact>
</mgrwt>
</event>
<event>
12    7  0.1546317E-007  0.1664834E+04  0.7818608E-02  0.8781679E-01
         -1   -1    0    0    0  501 -0.00000000000E+00  0.00000000000E+00  0.45950616117E+03  0.45950616117E+03  0.00000000000E+00 0.  1.
          2   -1    0    0  501    0  0.00000000000E+00 -0.00000000000E+00 -0.15079628227E+04  0.15079628227E+04  0.00000000000E+00 0. -1.
         24    2    1    2    0    0 -0.26828444512E+02 -0.53684406086E+03 -0.12463188135E+03  0.55757883047E+03  0.80247960839E+02 0.  0.
        254    2    1    2    0    0  0.26828444512E+02  0.53684406086E+03 -0.92382478014E+03  0.14098901534E+04  0.91946544744E+03 0.  0.
         23    2    4    4    0    0  0.20857545750E+03 -0.18907286561E+03 -0.37153867600E+03  0.47518494332E+03  0.92235961598E+02 0.  0.
         23    2    4    4    0    0 -0.18174701298E+03  0.72591692648E+03 -0.55228610414E+03  0.93470521004E+03  0.93094188758E+02 0.  0.
          2    1    3    3  502    0 -0.18968982806E+02 -0.15731536495E+03 -0.73041143611E+02  0.17447909622E+03  0.00000000000E+00 0. -1.
         -1    1    3    3    0  502 -0.78594617059E+01 -0.37952869591E+03 -0.51590737736E+02  0.38309973425E+03  0.00000000000E+00 0.  1.
         13    1    5    5    0    0  0.36090519871E+02 -0.86704594496E+02 -0.14335028524E+03  0.17137536757E+03  0.00000000000E+00 0.  1.
        -13    1    5    5    0    0  0.17248493763E+03 -0.10236827112E+03 -0.22818839076E+03  0.30380957575E+03  0.00000000000E+00 0. -1.
          1    1    6    6  503    0 -0.17593297015E+03  0.68170881625E+03 -0.54310569769E+03  0.88918115083E+03  0.00000000000E+00 0. -1.
         -1    1    6    6    0  503 -0.58140428384E+01  0.44208110230E+02 -0.91804064467E+01  0.45524059208E+02  0.00000000000E+00 0.  1.
<mgrwt>
<rscale>  0 0.16648342E+04</rscale>
<asrwt>0</asrwt>
<pdfrwt beam="1">  1        2 0.23199428E+00 0.16648342E+04</pdfrwt>
<pdfrwt beam="2">  1       -1 0.70693256E-01 0.16648342E+04</pdfrwt>
<totfact> 0.27615269E+01</totfact>
</mgrwt>
</event>
<event>
12    7  0.1546317E-007  0.1169142E+04  0.7818608E-02  0.9140304E-01
         -1   -1    0    0    0  501 -0.00000000000E+00  0.00000000000E+00  0.35308690338E+03  0.35308690338E+03  0.00000000000E+00 0.  1.
          2   -1    0    0  501    0  0.00000000000E+00 -0.00000000000E+00 -0.96781571162E+03  0.96781571162E+03  0.00000000000E+00 0. -1.
         24    2    1    2    0    0  0.14224044854E+03 -0.15667263356E+03 -0.18569582093E+02  0.22666468849E+03  0.79078393518E+02 0.  0.
        254    2    1    2    0    0 -0.14224044854E+03  0.15667263356E+03 -0.59615922614E+03  0.10942379265E+04  0.89284497960E+03 0.  0.
         23    2    4    4    0    0  0.17034749702E+03  0.22867562231E+02  0.16509126413E+03  0.25559111032E+03  0.92360679082E+02 0.  0.
         23    2    4    4    0    0 -0.31258794556E+03  0.13380507133E+03 -0.76125049027E+03  0.83864681619E+03  0.90615410138E+02 0.  0.
          4    1    3    3  502    0  0.14261642783E+02  0.69002796590E+01  0.71639055310E+01  0.17387635167E+02  0.00000000000E+00 0. -1.
         -3    1    3    3    0  502  0.12797880575E+03 -0.16357291322E+03 -0.25733487624E+02  0.20927705332E+03  0.00000000000E+00 0.  1.
         13    1    5    5    0    0  0.21763928070E+02 -0.26200911271E+02  0.10533304699E+02  0.35652585100E+02  0.00000000000E+00 0. -1.
        -13    1    5    5    0    0  0.14858356895E+03  0.49068473501E+02  0.15455795943E+03  0.21993852522E+03  0.00000000000E+00 0.  1.
          2    1    6    6  503    0 -0.50224647045E+01 -0.59053885316E+01 -0.25853862089E+01  0.81720858578E+01  0.00000000000E+00 0. -1.
         -2    1    6    6    0  503 -0.30756548086E+03  0.13971045986E+03 -0.75866510406E+03  0.83047473033E+03  0.00000000000E+00 0.  1.
<mgrwt>
<rscale>  0 0.11691417E+04</rscale>
<asrwt>0</asrwt>
<pdfrwt beam="1">  1        2 0.14889472E+00 0.11691417E+04</pdfrwt>
<pdfrwt beam="2">  1       -1 0.54321063E-01 0.11691417E+04</pdfrwt>
<totfact> 0.10200553E+02</totfact>
</mgrwt>
</event>
<event>
12    7  0.1546317E-007  0.1944905E+04  0.7818608E-02  0.8632822E-01
          2   -1    0    0  501    0  0.00000000000E+00  0.00000000000E+00  0.15890260242E+04  0.15890260242E+04  0.00000000000E+00 0. -1.
         -1   -1    0    0    0  501 -0.00000000000E+00 -0.00000000000E+00 -0.59512178973E+03  0.59512178973E+03  0.00000000000E+00 0.  1.
         24    2    1    2    0    0  0.37360304403E+03  0.56209636823E+03  0.61889168554E-01  0.67955020249E+03  0.79100645896E+02 0.  0.
        254    2    1    2    0    0 -0.37360304403E+03 -0.56209636823E+03  0.99384234527E+03  0.15045976114E+04  0.90584756077E+03 0.  0.
         23    2    4    4    0    0 -0.55886591722E+03 -0.29434964810E+03  0.97443631316E+03  0.11650578424E+04  0.94131923683E+02 0.  0.
         23    2    4    4    0    0  0.18526287319E+03 -0.26774672013E+03  0.19406032119E+02  0.33953976899E+03  0.94339929600E+02 0.  0.
          4    1    3    3  502    0  0.84054756480E+02  0.84624333985E+02  0.19229147282E+02  0.12081490013E+03  0.00000000000E+00 0. -1.
         -3    1    3    3    0  502  0.28954828755E+03  0.47747203425E+03 -0.19167258113E+02  0.55873530235E+03  0.00000000000E+00 0.  1.
         13    1    5    5    0    0 -0.91942910218E+02 -0.82267398818E+02  0.15112695687E+03  0.19509172392E+03  0.00000000000E+00 0.  1.
        -13    1    5    5    0    0 -0.46692300701E+03 -0.21208224928E+03  0.82330935628E+03  0.96996611852E+03  0.00000000000E+00 0. -1.
          2    1    6    6  503    0  0.13901848235E+03 -0.24084347055E+03 -0.10431222566E+02  0.27828137944E+03  0.00000000000E+00 0. -1.
         -2    1    6    6    0  503  0.46244390843E+02 -0.26903249585E+02  0.29837254685E+02  0.61258389546E+02  0.00000000000E+00 0.  1.
<mgrwt>
<rscale>  0 0.19449052E+04</rscale>
<asrwt>0</asrwt>
<pdfrwt beam="1">  1        2 0.24446554E+00 0.19449052E+04</pdfrwt>
<pdfrwt beam="2">  1       -1 0.91557199E-01 0.19449052E+04</pdfrwt>
<totfact> 0.13983041E+01</totfact>
</mgrwt>
</event>
<event>
12    7  0.1546317E-007  0.1686634E+04  0.7818608E-02  0.8769024E-01
         -1   -1    0    0    0  501 -0.00000000000E+00  0.00000000000E+00  0.21982999710E+03  0.21982999710E+03  0.00000000000E+00 0.  1.
          2   -1    0    0  501    0  0.00000000000E+00 -0.00000000000E+00 -0.32351529047E+04  0.32351529047E+04  0.00000000000E+00 0. -1.
         24    2    1    2    0    0 -0.49867372863E+03  0.23687445371E+03 -0.13760019533E+04  0.14846640055E+04  0.77851391074E+02 0.  0.
        254    2    1    2    0    0  0.49867372863E+03 -0.23687445371E+03 -0.16393209543E+04  0.19703188963E+04  0.94339724808E+03 0.  0.
         23    2    4    4    0    0 -0.24930172723E+03 -0.20249311222E+03 -0.59261468972E+03  0.68002647530E+03  0.89939006736E+02 0.  0.
         23    2    4    4    0    0  0.74797545587E+03 -0.34381341489E+02 -0.10467062645E+04  0.12902924210E+04  0.92796380916E+02 0.  0.
          2    1    3    3  502    0 -0.15029333070E+02  0.76699669035E+01 -0.92790403144E+02  0.94312078550E+02  0.00000000000E+00 0. -1.
         -3    1    3    3    0  502 -0.48364439557E+03  0.22920448680E+03 -0.12832115502E+04  0.13903519269E+04  0.00000000000E+00 0.  1.
         13    1    5    5    0    0 -0.24837725267E+02 -0.66704201932E+02 -0.12895942015E+03  0.14729865986E+03  0.00000000000E+00 0.  1.
        -13    1    5    5    0    0 -0.22446400197E+03 -0.13578891029E+03 -0.46365526957E+03  0.53272781544E+03  0.00000000000E+00 0. -1.
          3    1    6    6  503    0  0.44567299833E+03 -0.19676572358E+01 -0.54975677313E+03  0.70771519888E+03  0.00000000000E+00 0. -1.
         -3    1    6    6    0  503  0.30230245754E+03 -0.32413684253E+02 -0.49694949139E+03  0.58257722214E+03  0.00000000000E+00 0.  1.
<mgrwt>
<rscale>  0 0.16866341E+04</rscale>
<asrwt>0</asrwt>
<pdfrwt beam="1">  1        2 0.49771581E+00 0.16866341E+04</pdfrwt>
<pdfrwt beam="2">  1       -1 0.33820001E-01 0.16866341E+04</pdfrwt>
<totfact> 0.11084235E+01</totfact>
</mgrwt>
</event>
<event>
12    7  0.1546317E-007  0.1526730E+04  0.7818608E-02  0.8866870E-01
          2   -1    0    0  501    0  0.00000000000E+00  0.00000000000E+00  0.47006291709E+03  0.47006291709E+03  0.00000000000E+00 0. -1.
         -1   -1    0    0    0  501 -0.00000000000E+00 -0.00000000000E+00 -0.12396764743E+04  0.12396764743E+04  0.00000000000E+00 0.  1.
         24    2    1    2    0    0 -0.34036328144E+03 -0.35377681988E+03 -0.28208077561E+03  0.57189205129E+03  0.80534171177E+02 0.  0.
        254    2    1    2    0    0  0.34036328144E+03  0.35377681988E+03 -0.48753278161E+03  0.11378473401E+04  0.90332892935E+03 0.  0.
         23    2    4    4    0    0  0.11323384180E+00  0.41515142838E+03 -0.62365907789E+03  0.75496167654E+03  0.93090097812E+02 0.  0.
         23    2    4    4    0    0  0.34025004760E+03 -0.61374608500E+02  0.13612629628E+03  0.38288566356E+03  0.92380329966E+02 0.  0.
          4    1    3    3  502    0 -0.24552328932E+03 -0.25360147844E+03 -0.24292287704E+03  0.42849378018E+03  0.00000000000E+00 0. -1.
         -3    1    3    3    0  502 -0.94839992120E+02 -0.10017534144E+03 -0.39157898577E+02  0.14339827111E+03  0.00000000000E+00 0.  1.
         13    1    5    5    0    0  0.89026080914E+01  0.23955467628E+03 -0.43770703616E+03  0.49905225063E+03  0.00000000000E+00 0. -1.
        -13    1    5    5    0    0 -0.87893742496E+01  0.17559675210E+03 -0.18595204173E+03  0.25590942591E+03  0.00000000000E+00 0.  1.
          1    1    6    6  503    0  0.46679479025E+02 -0.33110189130E+02 -0.18910747527E+01  0.57261108530E+02  0.00000000000E+00 0. -1.
         -1    1    6    6    0  503  0.29357056857E+03 -0.28264419370E+02  0.13801737103E+03  0.32562455503E+03  0.00000000000E+00 0.  1.
<mgrwt>
<rscale>  0 0.15267298E+04</rscale>
<asrwt>0</asrwt>
<pdfrwt beam="1">  1        2 0.72317373E-01 0.15267298E+04</pdfrwt>
<pdfrwt beam="2">  1       -1 0.19071945E+00 0.15267298E+04</pdfrwt>
<totfact> 0.12735818E+01</totfact>
</mgrwt>
</event>
<event>
12    7  0.1546317E-007  0.1648043E+04  0.7818608E-02  0.8791565E-01
          2   -1    0    0  501    0  0.00000000000E+00  0.00000000000E+00  0.71406041386E+03  0.71406041386E+03  0.00000000000E+00 0. -1.
         -1   -1    0    0    0  501 -0.00000000000E+00 -0.00000000000E+00 -0.95091552196E+03  0.95091552196E+03  0.00000000000E+00 0.  1.
         24    2    1    2    0    0  0.53908137761E+01  0.50934445617E+02  0.49422525625E+03  0.50331246632E+03  0.80258683128E+02 0.  0.
        254    2    1    2    0    0 -0.53908137761E+01 -0.50934445617E+02 -0.73108036435E+03  0.11616634695E+04  0.90131023440E+03 0.  0.
         23    2    4    4    0    0 -0.39159208805E+02  0.40695122844E+03 -0.23824748094E+03  0.48238330188E+03  0.93749889595E+02 0.  0.
         23    2    4    4    0    0  0.33768395029E+02 -0.45788567406E+03 -0.49283288341E+03  0.67928016762E+03  0.87964198086E+02 0.  0.
          4    1    3    3  502    0  0.37660599916E+02  0.10567443652E+02  0.29108853040E+03  0.29370482492E+03  0.00000000000E+00 0. -1.
         -3    1    3    3    0  502 -0.32269786140E+02  0.40367001965E+02  0.20313672585E+03  0.20960764140E+03  0.00000000000E+00 0.  1.
         13    1    5    5    0    0  0.16196345829E+02  0.52156866922E+02 -0.64806647673E+01  0.54996903560E+02  0.00000000000E+00 0. -1.
        -13    1    5    5    0    0 -0.55355554634E+02  0.35479436152E+03 -0.23176681617E+03  0.42738639832E+03  0.00000000000E+00 0.  1.
          3    1    6    6  503    0  0.11860513218E+02 -0.36920271810E+02 -0.13739943808E+02  0.41140786334E+02  0.00000000000E+00 0. -1.
         -3    1    6    6    0  503  0.21907881811E+02 -0.42096540225E+03 -0.47909293960E+03  0.63813938129E+03  0.00000000000E+00 0.  1.
<mgrwt>
<rscale>  0 0.16480426E+04</rscale>
<asrwt>0</asrwt>
<pdfrwt beam="1">  1        2 0.10985545E+00 0.16480426E+04</pdfrwt>
<pdfrwt beam="2">  1       -1 0.14629470E+00 0.16480426E+04</pdfrwt>
<totfact> 0.16265026E+01</totfact>
</mgrwt>
</event>
<event>
12    7  0.1546317E-007  0.1415761E+04  0.7818608E-02  0.8942488E-01
         -1   -1    0    0    0  501 -0.00000000000E+00  0.00000000000E+00  0.36986761980E+03  0.36986761980E+03  0.00000000000E+00 0.  1.
          2   -1    0    0  501    0  0.00000000000E+00 -0.00000000000E+00 -0.13547947163E+04  0.13547947163E+04  0.00000000000E+00 0. -1.
         24    2    1    2    0    0 -0.19189746591E+03  0.12991192626E+00 -0.74380837729E+03  0.77234816910E+03  0.80287843948E+02 0.  0.
        254    2    1    2    0    0  0.19189746591E+03 -0.12991192626E+00 -0.24111871925E+03  0.95231416704E+03  0.90107679011E+03 0.  0.
         23    2    4    4    0    0  0.37482846298E+03  0.22502959732E+03  0.13591839111E+03  0.46769374092E+03  0.95545433811E+02 0.  0.
         23    2    4    4    0    0 -0.18293099706E+03 -0.22515950925E+03 -0.37703711036E+03  0.48462042612E+03  0.92408985143E+02 0.  0.
          4    1    3    3  502    0 -0.17356354854E+03  0.24852150621E+02 -0.59049781778E+03  0.61597857721E+03  0.00000000000E+00 0. -1.
         -3    1    3    3    0  502 -0.18333917369E+02 -0.24722238694E+02 -0.15331055951E+03  0.15636959189E+03  0.00000000000E+00 0.  1.
         13    1    5    5    0    0  0.31729288725E+03  0.16012840883E+03  0.79397048582E+02  0.36416998083E+03  0.00000000000E+00 0.  1.
        -13    1    5    5    0    0  0.57535575730E+02  0.64901188487E+02  0.56521342526E+02  0.10352376009E+03  0.00000000000E+00 0. -1.
          2    1    6    6  503    0 -0.39427507361E+02 -0.10920611212E+03 -0.10920300595E+03  0.15939196896E+03  0.00000000000E+00 0. -1.
         -2    1    6    6    0  503 -0.14350348970E+03 -0.11595339713E+03 -0.26783410441E+03  0.32522845716E+03  0.00000000000E+00 0.  1.
<mgrwt>
<rscale>  0 0.14157609E+04</rscale>
<asrwt>0</asrwt>
<pdfrwt beam="1">  1        2 0.20842996E+00 0.14157609E+04</pdfrwt>
<pdfrwt beam="2">  1       -1 0.56902711E-01 0.14157609E+04</pdfrwt>
<totfact> 0.53225000E+01</totfact>
</mgrwt>
</event>
<event>
12    7  0.1546317E-007  0.2942851E+04  0.7818608E-02  0.8260241E-01
         -1   -1    0    0    0  501 -0.00000000000E+00  0.00000000000E+00  0.13991400936E+04  0.13991400936E+04  0.00000000000E+00 0.  1.
          2   -1    0    0  501    0  0.00000000000E+00 -0.00000000000E+00 -0.15474450515E+04  0.15474450515E+04  0.00000000000E+00 0. -1.
         24    2    1    2    0    0 -0.63725779471E+03  0.60235702813E+03 -0.10691171840E+04  0.13849230696E+04  0.77902947400E+02 0.  0.
        254    2    1    2    0    0  0.63725779471E+03 -0.60235702813E+03  0.92081222611E+03  0.15616620755E+04  0.90662108741E+03 0.  0.
         23    2    4    4    0    0  0.62770507893E+03 -0.40285572008E+03  0.10619002245E+04  0.13008064090E+04  0.90326240400E+02 0.  0.
         23    2    4    4    0    0  0.95527157849E+01 -0.19950130805E+03 -0.14108799837E+03  0.26085566650E+03  0.90817559824E+02 0.  0.
          4    1    3    3  502    0 -0.63749770092E+03  0.60010531948E+03 -0.10699539037E+04  0.13825089762E+04  0.00000000000E+00 0. -1.
         -3    1    3    3    0  502  0.23990620057E+00  0.22517086567E+01  0.83671973827E+00  0.24140933661E+01  0.00000000000E+00 0.  1.
         13    1    5    5    0    0  0.61646722074E+03 -0.40741462230E+03  0.10401520191E+04  0.12759054556E+04  0.00000000000E+00 0.  1.
        -13    1    5    5    0    0  0.11237858193E+02  0.45589022163E+01  0.21748205366E+02  0.24900953452E+02  0.00000000000E+00 0. -1.
          2    1    6    6  503    0 -0.25190602504E+01  0.81863743306E+01 -0.15886907106E+02  0.18048717589E+02  0.00000000000E+00 0. -1.
         -2    1    6    6    0  503  0.12071776035E+02 -0.20768768238E+03 -0.12520109126E+03  0.24280694892E+03  0.00000000000E+00 0.  1.
<mgrwt>
<rscale>  0 0.29428506E+04</rscale>
<asrwt>0</asrwt>
<pdfrwt beam="1">  1        2 0.23806847E+00 0.29428506E+04</pdfrwt>
<pdfrwt beam="2">  1       -1 0.21525232E+00 0.29428506E+04</pdfrwt>
<totfact> 0.13843960E+00</totfact>
</mgrwt>
</event>
<event>
12    7  0.1546317E-007  0.1162638E+04  0.7818608E-02  0.9146203E-01
         -1   -1    0    0    0  501 -0.00000000000E+00  0.00000000000E+00  0.92329944338E+03  0.92329944338E+03  0.00000000000E+00 0.  1.
          2   -1    0    0  501    0  0.00000000000E+00 -0.00000000000E+00 -0.36600480110E+03  0.36600480110E+03  0.00000000000E+00 0. -1.
         24    2    1    2    0    0 -0.19512407501E+03  0.54260041797E+02  0.13731626444E+03  0.25757986361E+03  0.80461623611E+02 0.  0.
        254    2    1    2    0    0  0.19512407501E+03 -0.54260041797E+02  0.41997837784E+03  0.10317243809E+04  0.92035634590E+03 0.  0.
         23    2    4    4    0    0  0.15958211136E+03 -0.19039683445E+03  0.67509099534E+03  0.72514127731E+03  0.91458270446E+02 0.  0.
         23    2    4    4    0    0  0.35541963657E+02  0.13613679266E+03 -0.25511261750E+03  0.30658310356E+03  0.95468813142E+02 0.  0.
          4    1    3    3  502    0 -0.10034385441E+02  0.29511469566E+02  0.18489768437E+02  0.36242064841E+02  0.00000000000E+00 0. -1.
         -3    1    3    3    0  502 -0.18508968957E+03  0.24748572231E+02  0.11882649600E+03  0.22133779877E+03  0.00000000000E+00 0.  1.
         13    1    5    5    0    0  0.77028130114E+02 -0.69715362968E+02  0.40386185774E+03  0.41701074903E+03  0.00000000000E+00 0. -1.
        -13    1    5    5    0    0  0.82553981242E+02 -0.12068147149E+03  0.27122913760E+03  0.30813052828E+03  0.00000000000E+00 0.  1.
          3    1    6    6  503    0  0.35201192048E+02  0.15828642408E+01 -0.59769788720E+02  0.69383405973E+02  0.00000000000E+00 0. -1.
         -3    1    6    6    0  503  0.34077160892E+00  0.13455392842E+03 -0.19534282878E+03  0.23719969759E+03  0.00000000000E+00 0.  1.
<mgrwt>
<rscale>  0 0.11626384E+04</rscale>
<asrwt>0</asrwt>
<pdfrwt beam="1">  1        2 0.56308431E-01 0.11626384E+04</pdfrwt>
<pdfrwt beam="2">  1       -1 0.14204607E+00 0.11626384E+04</pdfrwt>
<totfact> 0.40164516E+01</totfact>
</mgrwt>
</event>
<event>
12    7  0.1546317E-007  0.1627519E+04  0.7818608E-02  0.8803818E-01
          2   -1    0    0  501    0  0.00000000000E+00  0.00000000000E+00  0.83649694621E+03  0.83649694621E+03  0.00000000000E+00 0. -1.
         -1   -1    0    0    0  501 -0.00000000000E+00 -0.00000000000E+00 -0.79164003949E+03  0.79164003949E+03  0.00000000000E+00 0.  1.
         24    2    1    2    0    0 -0.29614655037E+03  0.43172332363E+03 -0.19708576445E+03  0.56521209015E+03  0.80833785257E+02 0.  0.
        254    2    1    2    0    0  0.29614655037E+03 -0.43172332363E+03  0.24194267117E+03  0.10629248955E+04  0.89285232260E+03 0.  0.
         23    2    4    4    0    0  0.37646283978E+03 -0.52962430702E+03 -0.12140597182E+03  0.66733179199E+03  0.91466574639E+02 0.  0.
         23    2    4    4    0    0 -0.80316289412E+02  0.97900983393E+02  0.36334864299E+03  0.39559310356E+03  0.91849650660E+02 0.  0.
          2    1    3    3  502    0 -0.14073042118E+03  0.14755374266E+03 -0.99840442111E+02  0.22703583924E+03  0.00000000000E+00 0. -1.
         -1    1    3    3    0  502 -0.15541612919E+03  0.28416958097E+03 -0.97245322340E+02  0.33817625091E+03  0.00000000000E+00 0.  1.
         13    1    5    5    0    0  0.30790322667E+03 -0.39600195488E+03 -0.60450275551E+02  0.50524863293E+03  0.00000000000E+00 0. -1.
        -13    1    5    5    0    0  0.68559613113E+02 -0.13362235214E+03 -0.60955696271E+02  0.16208315906E+03  0.00000000000E+00 0.  1.
          3    1    6    6  503    0 -0.92918227648E+02  0.67209271183E+02  0.21599069087E+03  0.24454623634E+03  0.00000000000E+00 0. -1.
         -3    1    6    6    0  503  0.12601938236E+02  0.30691712211E+02  0.14735795212E+03  0.15104686723E+03  0.00000000000E+00 0.  1.
<mgrwt>
<rscale>  0 0.16275189E+04</rscale>
<asrwt>0</asrwt>
<pdfrwt beam="1">  1        2 0.12869184E+00 0.16275189E+04</pdfrwt>
<pdfrwt beam="2">  1       -1 0.12179078E+00 0.16275189E+04</pdfrwt>
<totfact> 0.21156036E+01</totfact>
</mgrwt>
</event>
<event>
12    7  0.1546317E-007  0.1711243E+04  0.7818608E-02  0.8754978E-01
          2   -1    0    0  501    0  0.00000000000E+00  0.00000000000E+00  0.19263998890E+04  0.19263998890E+04  0.00000000000E+00 0. -1.
         -1   -1    0    0    0  501 -0.00000000000E+00 -0.00000000000E+00 -0.38002900084E+03  0.38002900084E+03  0.00000000000E+00 0.  1.
         24    2    1    2    0    0  0.30476096358E+03  0.42663895853E+03  0.10038689118E+04  0.11353028793E+04  0.79118832900E+02 0.  0.
        254    2    1    2    0    0 -0.30476096358E+03 -0.42663895853E+03  0.54250197633E+03  0.11711260105E+04  0.89572746546E+03 0.  0.
         23    2    4    4    0    0 -0.23794727873E+03 -0.14162672760E+03 -0.20961734195E+03  0.35901115730E+03  0.90953524372E+02 0.  0.
         23    2    4    4    0    0 -0.66813684850E+02 -0.28501223094E+03  0.75211931828E+03  0.81211485324E+03  0.90283030869E+02 0.  0.
          2    1    3    3  502    0  0.14870475768E+03  0.19203737605E+03  0.54756590274E+03  0.59901575655E+03  0.00000000000E+00 0. -1.
         -1    1    3    3    0  502  0.15605620591E+03  0.23460158249E+03  0.45630300907E+03  0.53628712272E+03  0.00000000000E+00 0.  1.
         13    1    5    5    0    0 -0.19867836876E+03 -0.72919425569E+02 -0.16330910643E+03  0.26732040903E+03  0.00000000000E+00 0.  1.
        -13    1    5    5    0    0 -0.39268909967E+02 -0.68707302027E+02 -0.46308235514E+02  0.91690748269E+02  0.00000000000E+00 0. -1.
          4    1    6    6  503    0 -0.29407263632E+02 -0.14042201083E+02  0.89921337555E+02  0.95644223627E+02  0.00000000000E+00 0. -1.
         -4    1    6    6    0  503 -0.37406421219E+02 -0.27097002985E+03  0.66219798072E+03  0.71647062961E+03  0.00000000000E+00 0.  1.
<mgrwt>
<rscale>  0 0.17112426E+04</rscale>
<asrwt>0</asrwt>
<pdfrwt beam="1">  1        2 0.29636921E+00 0.17112426E+04</pdfrwt>
<pdfrwt beam="2">  1       -1 0.58466001E-01 0.17112426E+04</pdfrwt>
<totfact> 0.23566954E+01</totfact>
</mgrwt>
</event>
<event>
12    7  0.1546317E-007  0.2093767E+04  0.7818608E-02  0.8563994E-01
         -1   -1    0    0    0  501 -0.00000000000E+00  0.00000000000E+00  0.66250359703E+03  0.66250359703E+03  0.00000000000E+00 0.  1.
          2   -1    0    0  501    0  0.00000000000E+00 -0.00000000000E+00 -0.16542784441E+04  0.16542784441E+04  0.00000000000E+00 0. -1.
         24    2    1    2    0    0 -0.47509372466E+03 -0.68945991054E+03 -0.58119960784E+03  0.10225980161E+04  0.82732720457E+02 0.  0.
        254    2    1    2    0    0  0.47509372466E+03  0.68945991054E+03 -0.41057523924E+03  0.12941840250E+04  0.89736907013E+03 0.  0.
         23    2    4    4    0    0 -0.25032608652E+03  0.22575058231E+03 -0.27298064910E+02  0.34735547777E+03  0.79272748021E+02 0.  0.
         23    2    4    4    0    0  0.72541981118E+03  0.46370932822E+03 -0.38327717433E+03  0.94682854723E+03  0.91228624612E+02 0.  0.
          4    1    3    3  502    0 -0.38713959866E+03 -0.55918351831E+03 -0.43099623142E+03  0.80518384702E+03  0.00000000000E+00 0. -1.
         -3    1    3    3    0  502 -0.87954125994E+02 -0.13027639222E+03 -0.15020337641E+03  0.21741416913E+03  0.00000000000E+00 0.  1.
         13    1    5    5    0    0 -0.17245845088E+03  0.12134044966E+03 -0.45839692548E+02  0.21579318668E+03  0.00000000000E+00 0. -1.
        -13    1    5    5    0    0 -0.77867635639E+02  0.10441013265E+03  0.18541627638E+02  0.13156229109E+03  0.00000000000E+00 0.  1.
          4    1    6    6  503    0  0.71651016747E+03  0.44549474503E+03 -0.36411536923E+03  0.91893002457E+03  0.00000000000E+00 0. -1.
         -4    1    6    6    0  503  0.89096437063E+01  0.18214583194E+02 -0.19161805101E+02  0.27898522661E+02  0.00000000000E+00 0.  1.
<mgrwt>
<rscale>  0 0.20937673E+04</rscale>
<asrwt>0</asrwt>
<pdfrwt beam="1">  1        2 0.25450437E+00 0.20937673E+04</pdfrwt>
<pdfrwt beam="2">  1       -1 0.10192363E+00 0.20937673E+04</pdfrwt>
<totfact> 0.99620477E+00</totfact>
</mgrwt>
</event>
<event>
12    7  0.1546317E-007  0.3128378E+04  0.7818608E-02  0.8207993E-01
          2   -1    0    0  501    0  0.00000000000E+00  0.00000000000E+00  0.92233558173E+03  0.92233558173E+03  0.00000000000E+00 0. -1.
         -1   -1    0    0    0  501 -0.00000000000E+00 -0.00000000000E+00 -0.26527085467E+04  0.26527085467E+04  0.00000000000E+00 0.  1.
         24    2    1    2    0    0 -0.76706476391E+03  0.10478134640E+04 -0.14888661893E+04  0.19771822124E+04  0.78902242725E+02 0.  0.
        254    2    1    2    0    0  0.76706476391E+03 -0.10478134640E+04 -0.24150677562E+03  0.15978619160E+04  0.89918617242E+03 0.  0.
         23    2    4    4    0    0  0.67607621158E+03 -0.21004528399E+03 -0.23004350997E+03  0.75027557427E+03  0.93783557627E+02 0.  0.
         23    2    4    4    0    0  0.90988552331E+02 -0.83776818000E+03 -0.11463265648E+02  0.84758634175E+03  0.90203992147E+02 0.  0.
          2    1    3    3  502    0 -0.56401575682E+03  0.75077525992E+03 -0.10246327788E+04  0.13898379748E+04  0.00000000000E+00 0. -1.
         -1    1    3    3    0  502 -0.20304900709E+03  0.29703820406E+03 -0.46423341053E+03  0.58734423757E+03  0.00000000000E+00 0.  1.
         13    1    5    5    0    0  0.17657462662E+03 -0.98208541402E+02 -0.56718781349E+02  0.20985837255E+03  0.00000000000E+00 0. -1.
        -13    1    5    5    0    0  0.49950158496E+03 -0.11183674259E+03 -0.17332472862E+03  0.54041720173E+03  0.00000000000E+00 0.  1.
          4    1    6    6  503    0 -0.69767842119E+00 -0.63658154400E+02 -0.23807035250E+02  0.67967803438E+02  0.00000000000E+00 0. -1.
         -4    1    6    6    0  503  0.91686230753E+02 -0.77411002560E+03  0.12343769602E+02  0.77961853832E+03  0.00000000000E+00 0.  1.
<mgrwt>
<rscale>  0 0.31283782E+04</rscale>
<asrwt>0</asrwt>
<pdfrwt beam="1">  1        2 0.14189778E+00 0.31283782E+04</pdfrwt>
<pdfrwt beam="2">  1       -1 0.40810901E+00 0.31283782E+04</pdfrwt>
<totfact> 0.17196609E-01</totfact>
</mgrwt>
</event>
<event>
12    7  0.1546317E-007  0.1544495E+04  0.7818608E-02  0.8855392E-01
         -1   -1    0    0    0  501 -0.00000000000E+00  0.00000000000E+00  0.57200315008E+03  0.57200315008E+03  0.00000000000E+00 0.  1.
          2   -1    0    0  501    0  0.00000000000E+00 -0.00000000000E+00 -0.10425918914E+04  0.10425918914E+04  0.00000000000E+00 0. -1.
         24    2    1    2    0    0  0.35795873240E+03  0.26615623111E+03 -0.40836095677E+03  0.61004961275E+03  0.80176464999E+02 0.  0.
        254    2    1    2    0    0 -0.35795873240E+03 -0.26615623111E+03 -0.62227784546E+02  0.10045454287E+04  0.89792295201E+03 0.  0.
         23    2    4    4    0    0 -0.16532604219E+03 -0.15552460988E+03 -0.47102152866E+03  0.53082159628E+03  0.91595207896E+02 0.  0.
         23    2    4    4    0    0 -0.19263269021E+03 -0.11063162123E+03  0.40879374412E+03  0.47372383244E+03  0.89192125431E+02 0.  0.
          4    1    3    3  502    0  0.14112452573E+03  0.76307777971E+02 -0.18869438137E+03  0.24767837674E+03  0.00000000000E+00 0. -1.
         -3    1    3    3    0  502  0.21683420667E+03  0.18984845314E+03 -0.21966657540E+03  0.36237123601E+03  0.00000000000E+00 0.  1.
         13    1    5    5    0    0 -0.13936802411E+03 -0.90456747096E+02 -0.38873300539E+03  0.42275195886E+03  0.00000000000E+00 0. -1.
        -13    1    5    5    0    0 -0.25958018085E+02 -0.65067862787E+02 -0.82288523275E+02  0.10806963743E+03  0.00000000000E+00 0.  1.
          1    1    6    6  503    0 -0.58834988258E+02 -0.84635700495E+02  0.17700269753E+03  0.20482849552E+03  0.00000000000E+00 0. -1.
         -1    1    6    6    0  503 -0.13379770195E+03 -0.25995920730E+02  0.23179104658E+03  0.26889533692E+03  0.00000000000E+00 0.  1.
<mgrwt>
<rscale>  0 0.15444945E+04</rscale>
<asrwt>0</asrwt>
<pdfrwt beam="1">  1        2 0.16039875E+00 0.15444945E+04</pdfrwt>
<pdfrwt beam="2">  1       -1 0.88000485E-01 0.15444945E+04</pdfrwt>
<totfact> 0.32998157E+01</totfact>
</mgrwt>
</event>
<event>
12    7  0.1546317E-007  0.3117168E+04  0.7818608E-02  0.8211042E-01
         -1   -1    0    0    0  501 -0.00000000000E+00  0.00000000000E+00  0.15168220686E+04  0.15168220686E+04  0.00000000000E+00 0.  1.
          2   -1    0    0  501    0  0.00000000000E+00 -0.00000000000E+00 -0.16014954729E+04  0.16014954729E+04  0.00000000000E+00 0. -1.
         24    2    1    2    0    0 -0.43860477710E+03 -0.47265627947E+03  0.12363440220E+04  0.13966850980E+04  0.80028827167E+02 0.  0.
        254    2    1    2    0    0  0.43860477710E+03  0.47265627947E+03 -0.13210174264E+04  0.17216324435E+04  0.89618810572E+03 0.  0.
         23    2    4    4    0    0  0.60969932078E+03  0.58951525505E+03 -0.87468687054E+03  0.12216477191E+04  0.89914016590E+02 0.  0.
         23    2    4    4    0    0 -0.17109454368E+03 -0.11685897558E+03 -0.44633055582E+03  0.49998472443E+03  0.88568598012E+02 0.  0.
          2    1    3    3  502    0 -0.24524486947E+02 -0.57609686685E+01  0.38209174836E+02  0.45766584553E+02  0.00000000000E+00 0. -1.
         -1    1    3    3    0  502 -0.41408029015E+03 -0.46689531080E+03  0.11981348472E+04  0.13509185134E+04  0.00000000000E+00 0.  1.
         13    1    5    5    0    0  0.27591766129E+03  0.26201916225E+03 -0.32904770373E+03  0.50304770005E+03  0.00000000000E+00 0.  1.
        -13    1    5    5    0    0  0.33378165949E+03  0.32749609280E+03 -0.54563916681E+03  0.71860001904E+03  0.00000000000E+00 0. -1.
          2    1    6    6  503    0 -0.70536572615E+00  0.64175245061E+01 -0.58037351184E+02  0.58395344798E+02  0.00000000000E+00 0. -1.
         -2    1    6    6    0  503 -0.17038917795E+03 -0.12327650009E+03 -0.38829320464E+03  0.44158937963E+03  0.00000000000E+00 0.  1.
<mgrwt>
<rscale>  0 0.31171677E+04</rscale>
<asrwt>0</asrwt>
<pdfrwt beam="1">  1        2 0.24638392E+00 0.31171677E+04</pdfrwt>
<pdfrwt beam="2">  1       -1 0.23335724E+00 0.31171677E+04</pdfrwt>
<totfact> 0.96337158E-01</totfact>
</mgrwt>
</event>
<event>
12    7  0.1546317E-007  0.1041381E+04  0.7818608E-02  0.9264288E-01
          2   -1    0    0  501    0  0.00000000000E+00  0.00000000000E+00  0.17143554624E+04  0.17143554624E+04  0.00000000000E+00 0. -1.
         -1   -1    0    0    0  501 -0.00000000000E+00 -0.00000000000E+00 -0.15814606958E+03  0.15814606958E+03  0.00000000000E+00 0.  1.
         24    2    1    2    0    0  0.25769441182E+02 -0.74647541204E+02  0.34433817125E+03  0.36094193171E+03  0.73986366182E+02 0.  0.
        254    2    1    2    0    0 -0.25769441182E+02  0.74647541204E+02  0.12118712216E+04  0.15115596003E+04  0.89996902614E+03 0.  0.
         23    2    4    4    0    0  0.20423249591E+03 -0.60816578657E+02  0.12074632456E+04  0.12295289038E+04  0.91456368060E+02 0.  0.
         23    2    4    4    0    0 -0.23000193709E+03  0.13546411986E+03  0.44079760207E+01  0.28203069649E+03  0.90942095172E+02 0.  0.
          4    1    3    3  502    0  0.29259810677E+02 -0.51694774598E+02  0.32596933991E+03  0.33133743646E+03  0.00000000000E+00 0. -1.
         -3    1    3    3    0  502 -0.34903694951E+01 -0.22952766606E+02  0.18368831345E+02  0.29604495251E+02  0.00000000000E+00 0.  1.
         13    1    5    5    0    0 -0.35676837515E+01 -0.10819080649E+02  0.20286265518E+02  0.23266143688E+02  0.00000000000E+00 0.  1.
        -13    1    5    5    0    0  0.20780017966E+03 -0.49997498008E+02  0.11871769800E+04  0.12062627601E+04  0.00000000000E+00 0. -1.
          4    1    6    6  503    0 -0.86381615336E+02  0.15845703607E+02 -0.28321628410E+02  0.92276673253E+02  0.00000000000E+00 0. -1.
         -4    1    6    6    0  503 -0.14362032176E+03  0.11961841625E+03  0.32729604430E+02  0.18975402324E+03  0.00000000000E+00 0.  1.
<mgrwt>
<rscale>  0 0.10413810E+04</rscale>
<asrwt>0</asrwt>
<pdfrwt beam="1">  1        2 0.26374698E+00 0.10413810E+04</pdfrwt>
<pdfrwt beam="2">  1       -1 0.24330166E-01 0.10413810E+04</pdfrwt>
<totfact> 0.16040374E+02</totfact>
</mgrwt>
</event>
<event>
12    7  0.1546317E-007  0.1464942E+04  0.7818608E-02  0.8908107E-01
         -1   -1    0    0    0  501 -0.00000000000E+00  0.00000000000E+00  0.16781055542E+03  0.16781055542E+03  0.00000000000E+00 0.  1.
          2   -1    0    0  501    0  0.00000000000E+00 -0.00000000000E+00 -0.31971395921E+04  0.31971395921E+04  0.00000000000E+00 0. -1.
         24    2    1    2    0    0 -0.93573235148E+02 -0.39783354450E+03 -0.50355168771E+03  0.65326779453E+03  0.78530438156E+02 0.  0.
        254    2    1    2    0    0  0.93573235148E+02  0.39783354450E+03 -0.25257773489E+04  0.27116823530E+04  0.89813277828E+03 0.  0.
         23    2    4    4    0    0  0.25810812718E+03  0.57994451966E+03 -0.22108550889E+04  0.23021018534E+04  0.94006745080E+02 0.  0.
         23    2    4    4    0    0 -0.16453489203E+03 -0.18211097516E+03 -0.31492226001E+03  0.40958049952E+03  0.91345595235E+02 0.  0.
          2    1    3    3  502    0 -0.24206321971E+02 -0.22483769731E+02 -0.56293793973E+02  0.65272177569E+02  0.00000000000E+00 0. -1.
         -1    1    3    3    0  502 -0.69366913177E+02 -0.37534977477E+03 -0.44725789373E+03  0.58799561696E+03  0.00000000000E+00 0.  1.
         13    1    5    5    0    0  0.15481097115E+03  0.26528844630E+03 -0.94640289285E+03  0.99499891061E+03  0.00000000000E+00 0.  1.
        -13    1    5    5    0    0  0.10329715602E+03  0.31465607336E+03 -0.12644521961E+04  0.13071029428E+04  0.00000000000E+00 0. -1.
          3    1    6    6  503    0 -0.57169985824E+01 -0.35870586065E+02 -0.93593276512E+02  0.10039464341E+03  0.00000000000E+00 0. -1.
         -3    1    6    6    0  503 -0.15881789345E+03 -0.14624038910E+03 -0.22132898350E+03  0.30918585611E+03  0.00000000000E+00 0.  1.
<mgrwt>
<rscale>  0 0.14649420E+04</rscale>
<asrwt>0</asrwt>
<pdfrwt beam="1">  1        2 0.49186762E+00 0.14649420E+04</pdfrwt>
<pdfrwt beam="2">  1       -1 0.25817009E-01 0.14649420E+04</pdfrwt>
<totfact> 0.19241098E+01</totfact>
</mgrwt>
</event>
<event>
12    7  0.1546317E-007  0.1337940E+04  0.7818608E-02  0.9000008E-01
          2   -1    0    0  501    0  0.00000000000E+00  0.00000000000E+00  0.38896762971E+03  0.38896762971E+03  0.00000000000E+00 0. -1.
         -1   -1    0    0    0  501 -0.00000000000E+00 -0.00000000000E+00 -0.11505343676E+04  0.11505343676E+04  0.00000000000E+00 0.  1.
         24    2    1    2    0    0 -0.21076169727E+03  0.20564870210E+03  0.25480485054E+02  0.30618224522E+03  0.79915145374E+02 0.  0.
        254    2    1    2    0    0  0.21076169727E+03 -0.20564870210E+03 -0.78704722293E+03  0.12333197521E+04  0.90273052349E+03 0.  0.
         23    2    4    4    0    0 -0.18259277321E+03  0.24047966267E+03 -0.12639541889E+03  0.33952768233E+03  0.90181240680E+02 0.  0.
         23    2    4    4    0    0  0.39335447048E+03 -0.44612836477E+03 -0.66065180404E+03  0.89379206974E+03  0.92979570144E+02 0.  0.
          2    1    3    3  502    0 -0.20613152145E+03  0.16454703646E+03  0.21427471922E+02  0.26462250073E+03  0.00000000000E+00 0. -1.
         -1    1    3    3    0  502 -0.46301758229E+01  0.41101665641E+02  0.40530131315E+01  0.41559744489E+02  0.00000000000E+00 0.  1.
         13    1    5    5    0    0 -0.50280117110E+02  0.14065288368E+03 -0.58739896578E+02  0.16050451494E+03  0.00000000000E+00 0. -1.
        -13    1    5    5    0    0 -0.13231265610E+03  0.99826778984E+02 -0.67655522314E+02  0.17902316740E+03  0.00000000000E+00 0.  1.
          1    1    6    6  503    0  0.37594498748E+03 -0.44673425982E+03 -0.64811539282E+03  0.87233003784E+03  0.00000000000E+00 0. -1.
         -1    1    6    6    0  503  0.17409483000E+02  0.60589505623E+00 -0.12536411214E+02  0.21462031900E+02  0.00000000000E+00 0.  1.
<mgrwt>
<rscale>  0 0.13379396E+04</rscale>
<asrwt>0</asrwt>
<pdfrwt beam="1">  1        2 0.59841174E-01 0.13379396E+04</pdfrwt>
<pdfrwt beam="2">  1       -1 0.17700529E+00 0.13379396E+04</pdfrwt>
<totfact> 0.20082329E+01</totfact>
</mgrwt>
</event>
<event>
12    7  0.1546317E-007  0.1977966E+04  0.7818608E-02  0.8616992E-01
          2   -1    0    0  501    0  0.00000000000E+00  0.00000000000E+00  0.15398968518E+04  0.15398968518E+04  0.00000000000E+00 0. -1.
         -1   -1    0    0    0  501 -0.00000000000E+00 -0.00000000000E+00 -0.63516425201E+03  0.63516425201E+03  0.00000000000E+00 0.  1.
         24    2    1    2    0    0  0.13075361661E+03  0.61907727541E+03  0.86386199764E+03  0.10734542964E+04  0.75454584908E+02 0.  0.
        254    2    1    2    0    0 -0.13075361661E+03 -0.61907727541E+03  0.40870602131E+02  0.11016068073E+04  0.90084070217E+03 0.  0.
         23    2    4    4    0    0 -0.32766991566E+03 -0.56782566272E+03  0.32722187349E+03  0.73831870485E+03  0.90811885602E+02 0.  0.
         23    2    4    4    0    0  0.19691629905E+03 -0.51251612697E+02 -0.28635127136E+03  0.36328810250E+03  0.92619858426E+02 0.  0.
          2    1    3    3  502    0  0.12006372464E+03  0.60885061146E+03  0.85403437666E+03  0.10556936495E+04  0.00000000000E+00 0. -1.
         -1    1    3    3    0  502  0.10689891973E+02  0.10226663955E+02  0.98276209824E+01  0.17760646954E+02  0.00000000000E+00 0.  1.
         13    1    5    5    0    0 -0.15563699662E+03 -0.21675417584E+03  0.17315673551E+03  0.31810140289E+03  0.00000000000E+00 0.  1.
        -13    1    5    5    0    0 -0.17203291903E+03 -0.35107148687E+03  0.15406513798E+03  0.42021730196E+03  0.00000000000E+00 0. -1.
          2    1    6    6  503    0  0.45524303841E+02  0.43041243430E+01 -0.15910181122E+02  0.48416129439E+02  0.00000000000E+00 0. -1.
         -2    1    6    6    0  503  0.15139199521E+03 -0.55555737040E+02 -0.27044109024E+03  0.31487197306E+03  0.00000000000E+00 0.  1.
<mgrwt>
<rscale>  0 0.19779661E+04</rscale>
<asrwt>0</asrwt>
<pdfrwt beam="1">  1        2 0.23690721E+00 0.19779661E+04</pdfrwt>
<pdfrwt beam="2">  1       -1 0.97717578E-01 0.19779661E+04</pdfrwt>
<totfact> 0.12839674E+01</totfact>
</mgrwt>
</event>
<event>
12    7  0.1546317E-007  0.1448046E+04  0.7818608E-02  0.8919756E-01
         -1   -1    0    0    0  501 -0.00000000000E+00  0.00000000000E+00  0.48960172239E+03  0.48960172239E+03  0.00000000000E+00 0.  1.
          2   -1    0    0  501    0  0.00000000000E+00 -0.00000000000E+00 -0.10706848958E+04  0.10706848958E+04  0.00000000000E+00 0. -1.
         24    2    1    2    0    0 -0.14050460832E+03 -0.69052561793E+02  0.25822418091E+03  0.31581391040E+03  0.92460246314E+02 0.  0.
        254    2    1    2    0    0  0.14050460832E+03  0.69052561793E+02 -0.83930735431E+03  0.12444727078E+04  0.90540912528E+03 0.  0.
         23    2    4    4    0    0  0.36706133862E+03 -0.20061737330E+03 -0.76023256259E+03  0.87244362403E+03  0.90680599383E+02 0.  0.
         23    2    4    4    0    0 -0.22655673030E+03  0.26966993510E+03 -0.79074791721E+02  0.37202908374E+03  0.90016612496E+02 0.  0.
          4    1    3    3  502    0 -0.55756973802E+02  0.51537022094E+01  0.35710966973E+02  0.66412904892E+02  0.00000000000E+00 0. -1.
         -3    1    3    3    0  502 -0.84747634514E+02 -0.74206264002E+02  0.22251321394E+03  0.24940100551E+03  0.00000000000E+00 0.  1.
         13    1    5    5    0    0  0.58638053271E+01 -0.25068848389E+02 -0.35100070796E+02  0.43529832786E+02  0.00000000000E+00 0.  1.
        -13    1    5    5    0    0  0.36119753329E+03 -0.17554852491E+03 -0.72513249179E+03  0.82891379124E+03  0.00000000000E+00 0. -1.
          4    1    6    6  503    0 -0.72641615744E+02  0.11392320227E+03  0.10343087342E+02  0.13550748986E+03  0.00000000000E+00 0. -1.
         -4    1    6    6    0  503 -0.15391511456E+03  0.15574673283E+03 -0.89417879063E+02  0.23652159388E+03  0.00000000000E+00 0.  1.
<mgrwt>
<rscale>  0 0.14480458E+04</rscale>
<asrwt>0</asrwt>
<pdfrwt beam="1">  1        2 0.16472075E+00 0.14480458E+04</pdfrwt>
<pdfrwt beam="2">  1       -1 0.75323342E-01 0.14480458E+04</pdfrwt>
<totfact> 0.44543654E+01</totfact>
</mgrwt>
</event>
<event>
12    7  0.1678340E-007  0.3353441E+04  0.7818608E-02  0.8149429E-01
         -1   -1    0    0    0  501 -0.00000000000E+00  0.00000000000E+00  0.16677454918E+04  0.16677454918E+04  0.00000000000E+00 0.  1.
          2   -1    0    0  501    0  0.00000000000E+00 -0.00000000000E+00 -0.16857441330E+04  0.16857441330E+04  0.00000000000E+00 0. -1.
         24    2    1    2    0    0  0.84310815486E+03 -0.40794121160E+03  0.12301889800E+04  0.15482148824E+04  0.79730813940E+02 0.  0.
        254    2    1    2    0    0 -0.84310815486E+03  0.40794121160E+03 -0.12481876212E+04  0.18052747424E+04  0.90763272590E+03 0.  0.
         23    2    4    4    0    0 -0.92541888033E+03  0.37816980621E+03 -0.65579752415E+03  0.11992497686E+04  0.93365456495E+02 0.  0.
         23    2    4    4    0    0  0.82310725468E+02  0.29771405392E+02 -0.59239009702E+03  0.60602497381E+03  0.93160344197E+02 0.  0.
          2    1    3    3  502    0  0.28106882221E+03 -0.11877698986E+03  0.45781747684E+03  0.55018587608E+03  0.00000000000E+00 0. -1.
         -1    1    3    3    0  502  0.56203933265E+03 -0.28916422175E+03  0.77237150313E+03  0.99802900630E+03  0.00000000000E+00 0.  1.
         13    1    5    5    0    0 -0.85341089666E+02  0.10640310815E+02 -0.41087021220E+02  0.95312439442E+02  0.00000000000E+00 0. -1.
        -13    1    5    5    0    0 -0.84007779066E+03  0.36752949539E+03 -0.61471050293E+03  0.11039373292E+04  0.00000000000E+00 0.  1.
          1    1    6    6  503    0  0.55579375857E+01  0.44183162926E+02 -0.13901997994E+03  0.14597807157E+03  0.00000000000E+00 0. -1.
         -1    1    6    6    0  503  0.76752787882E+02 -0.14411757534E+02 -0.45337011708E+03  0.46004690224E+03  0.00000000000E+00 0.  1.
<mgrwt>
<rscale>  0 0.33534413E+04</rscale>
<asrwt>0</asrwt>
<pdfrwt beam="1">  1        2 0.25934525E+00 0.33534413E+04</pdfrwt>
<pdfrwt beam="2">  1       -1 0.25657623E+00 0.33534413E+04</pdfrwt>
<totfact> 0.59704898E-01</totfact>
</mgrwt>
</event>
<event>
12    7  0.1546317E-007  0.2083520E+04  0.7818608E-02  0.8568538E-01
         -1   -1    0    0    0  501 -0.00000000000E+00  0.00000000000E+00  0.44435351395E+03  0.44435351395E+03  0.00000000000E+00 0.  1.
          2   -1    0    0  501    0  0.00000000000E+00 -0.00000000000E+00 -0.24423426597E+04  0.24423426597E+04  0.00000000000E+00 0. -1.
         24    2    1    2    0    0 -0.71916049925E+03  0.44883060309E+03 -0.84855655719E+03  0.12017948401E+04  0.74979150084E+02 0.  0.
        254    2    1    2    0    0  0.71916049925E+03 -0.44883060309E+03 -0.11494325886E+04  0.16849013336E+04  0.89389959969E+03 0.  0.
         23    2    4    4    0    0  0.67527509060E+02  0.21135117743E+03 -0.52799422927E+02  0.24564689957E+03  0.91243276620E+02 0.  0.
         23    2    4    4    0    0  0.65163299018E+03 -0.66018178052E+03 -0.10966331657E+04  0.14392544340E+04  0.91561392576E+02 0.  0.
          2    1    3    3  502    0 -0.34306404316E+03  0.19481047220E+03 -0.44227781469E+03  0.59266662058E+03  0.00000000000E+00 0. -1.
         -1    1    3    3    0  502 -0.37609645609E+03  0.25402013089E+03 -0.40627874249E+03  0.60912821949E+03  0.00000000000E+00 0.  1.
         13    1    5    5    0    0 -0.13762729896E+00 -0.22827173515E+01  0.12124130991E+02  0.12337920898E+02  0.00000000000E+00 0. -1.
        -13    1    5    5    0    0  0.67665136359E+02  0.21363389478E+03 -0.64923553918E+02  0.23330897868E+03  0.00000000000E+00 0.  1.
          2    1    6    6  503    0  0.13796348700E+01 -0.12055918931E+02 -0.27252667601E+02  0.29832138123E+02  0.00000000000E+00 0. -1.
         -2    1    6    6    0  503  0.65025335531E+03 -0.64812586158E+03 -0.10693804981E+04  0.14094222959E+04  0.00000000000E+00 0.  1.
<mgrwt>
<rscale>  0 0.20835197E+04</rscale>
<asrwt>0</asrwt>
<pdfrwt beam="1">  1        2 0.37574502E+00 0.20835197E+04</pdfrwt>
<pdfrwt beam="2">  1       -1 0.68362080E-01 0.20835197E+04</pdfrwt>
<totfact> 0.85530127E+00</totfact>
</mgrwt>
</event>
<event>
12    7  0.1546317E-007  0.1598844E+04  0.7818608E-02  0.8821259E-01
          2   -1    0    0  501    0  0.00000000000E+00  0.00000000000E+00  0.21141322468E+04  0.21141322468E+04  0.00000000000E+00 0. -1.
         -1   -1    0    0    0  501 -0.00000000000E+00 -0.00000000000E+00 -0.30228737416E+03  0.30228737416E+03  0.00000000000E+00 0.  1.
         24    2    1    2    0    0  0.63244063446E+02  0.22336817875E+03  0.13415503110E+04  0.13638415266E+04  0.80083192905E+02 0.  0.
        254    2    1    2    0    0 -0.63244063446E+02 -0.22336817875E+03  0.47029456157E+03  0.10525780943E+04  0.91260644046E+03 0.  0.
         23    2    4    4    0    0 -0.20417660326E+03 -0.32062378051E+03 -0.13843274505E+03  0.41415383989E+03  0.88724766817E+02 0.  0.
         23    2    4    4    0    0  0.14093253981E+03  0.97255601751E+02  0.60872730661E+03  0.63842425444E+03  0.87840548672E+02 0.  0.
          4    1    3    3  502    0  0.21124976692E+02  0.18671626720E+03  0.10989441431E+04  0.11148934742E+04  0.00000000000E+00 0. -1.
         -3    1    3    3    0  502  0.42119086754E+02  0.36651911559E+02  0.24260616791E+03  0.24894805241E+03  0.00000000000E+00 0.  1.
         13    1    5    5    0    0 -0.69678956818E+01  0.36770556892E+01  0.38970289564E+01  0.87897180536E+01  0.00000000000E+00 0. -1.
        -13    1    5    5    0    0 -0.19720870758E+03 -0.32430083619E+03 -0.14232977400E+03  0.40536412183E+03  0.00000000000E+00 0.  1.
          4    1    6    6  503    0  0.47599730830E+02  0.19878128560E+02  0.33636807947E+03  0.34030039561E+03  0.00000000000E+00 0. -1.
         -4    1    6    6    0  503  0.93332808985E+02  0.77377473191E+02  0.27235922715E+03  0.29812385883E+03  0.00000000000E+00 0.  1.
<mgrwt>
<rscale>  0 0.15988439E+04</rscale>
<asrwt>0</asrwt>
<pdfrwt beam="1">  1        2 0.32525111E+00 0.15988439E+04</pdfrwt>
<pdfrwt beam="2">  1       -1 0.46505751E-01 0.15988439E+04</pdfrwt>
<totfact> 0.29031895E+01</totfact>
</mgrwt>
</event>
<event>
12    7  0.1546317E-007  0.1858400E+04  0.7818608E-02  0.8675845E-01
          2   -1    0    0  501    0  0.00000000000E+00  0.00000000000E+00  0.23301395375E+04  0.23301395375E+04  0.00000000000E+00 0. -1.
         -1   -1    0    0    0  501 -0.00000000000E+00 -0.00000000000E+00 -0.37054111185E+03  0.37054111185E+03  0.00000000000E+00 0.  1.
         24    2    1    2    0    0 -0.39185760093E+02 -0.55260836221E+03  0.13901857779E+04  0.14993372058E+04  0.92108815403E+02 0.  0.
        254    2    1    2    0    0  0.39185760093E+02  0.55260836221E+03  0.56941264775E+03  0.12013434435E+04  0.90115691205E+03 0.  0.
         23    2    4    4    0    0 -0.19578761859E+03  0.34636689382E+03 -0.13199398015E+03  0.42802832658E+03  0.86504455561E+02 0.  0.
         23    2    4    4    0    0  0.23497337868E+03  0.20624146839E+03  0.70140662789E+03  0.77331511696E+03  0.91087762581E+02 0.  0.
          2    1    3    3  502    0 -0.43403682428E+02 -0.46912002060E+03  0.10841738582E+04  0.11821126969E+04  0.00000000000E+00 0. -1.
         -1    1    3    3    0  502  0.42179223346E+01 -0.83488341613E+02  0.30601191970E+03  0.31722450891E+03  0.00000000000E+00 0.  1.
         13    1    5    5    0    0 -0.49683185350E+02  0.17324512119E+03 -0.67987450796E+02  0.19262550296E+03  0.00000000000E+00 0.  1.
        -13    1    5    5    0    0 -0.14610443324E+03  0.17312177263E+03 -0.64006529350E+02  0.23540282362E+03  0.00000000000E+00 0. -1.
          1    1    6    6  503    0  0.20178405094E+03  0.14049810065E+03  0.59602604894E+03  0.64475078171E+03  0.00000000000E+00 0. -1.
         -1    1    6    6    0  503  0.33189327741E+02  0.65743367738E+02  0.10538057895E+03  0.12856433525E+03  0.00000000000E+00 0.  1.
<mgrwt>
<rscale>  0 0.18583998E+04</rscale>
<asrwt>0</asrwt>
<pdfrwt beam="1">  1        2 0.35848300E+00 0.18583998E+04</pdfrwt>
<pdfrwt beam="2">  1       -1 0.57006326E-01 0.18583998E+04</pdfrwt>
<totfact> 0.14533963E+01</totfact>
</mgrwt>
</event>
<event>
12    7  0.1546317E-007  0.2137835E+04  0.7818608E-02  0.8544757E-01
         -1   -1    0    0    0  501 -0.00000000000E+00  0.00000000000E+00  0.93561412116E+03  0.93561412116E+03  0.00000000000E+00 0.  1.
          2   -1    0    0  501    0  0.00000000000E+00 -0.00000000000E+00 -0.12212137378E+04  0.12212137378E+04  0.00000000000E+00 0. -1.
         24    2    1    2    0    0  0.42004363190E+03  0.39412432167E+03 -0.77189568635E+03  0.96646345850E+03  0.80361883936E+02 0.  0.
        254    2    1    2    0    0 -0.42004363190E+03 -0.39412432167E+03  0.48629606971E+03  0.11903644005E+04  0.92125615593E+03 0.  0.
         23    2    4    4    0    0 -0.22062858074E+03  0.23706294769E+03 -0.41130973067E+02  0.33879924918E+03  0.90649668997E+02 0.  0.
         23    2    4    4    0    0 -0.19941505116E+03 -0.63118726936E+03  0.52742704277E+03  0.85156515128E+03  0.93915865518E+02 0.  0.
          2    1    3    3  502    0  0.39372948296E+03  0.37615910741E+03 -0.69276790322E+03  0.88116170342E+03  0.00000000000E+00 0. -1.
         -1    1    3    3    0  502  0.26314148941E+02  0.17965214257E+02 -0.79127783130E+02  0.85301755087E+02  0.00000000000E+00 0.  1.
         13    1    5    5    0    0 -0.26749128623E+02  0.38546080774E+02  0.25536509166E+02  0.53417502053E+02  0.00000000000E+00 0.  1.
        -13    1    5    5    0    0 -0.19387945212E+03  0.19851686692E+03 -0.66667482233E+02  0.28538174713E+03  0.00000000000E+00 0. -1.
          2    1    6    6  503    0 -0.62836998286E+02 -0.29482504024E+03  0.28638507716E+03  0.41579647079E+03  0.00000000000E+00 0. -1.
         -2    1    6    6    0  503 -0.13657805287E+03 -0.33636222913E+03  0.24104196562E+03  0.43576868049E+03  0.00000000000E+00 0.  1.
<mgrwt>
<rscale>  0 0.21378352E+04</rscale>
<asrwt>0</asrwt>
<pdfrwt beam="1">  1        2 0.18787904E+00 0.21378352E+04</pdfrwt>
<pdfrwt beam="2">  1       -1 0.14394063E+00 0.21378352E+04</pdfrwt>
<totfact> 0.75068538E+00</totfact>
</mgrwt>
</event>
<event>
12    7  0.1546317E-007  0.1532000E+04  0.7818608E-02  0.8863448E-01
         -1   -1    0    0    0  501 -0.00000000000E+00  0.00000000000E+00  0.15999485682E+03  0.15999485682E+03  0.00000000000E+00 0.  1.
          2   -1    0    0  501    0  0.00000000000E+00 -0.00000000000E+00 -0.36673421342E+04  0.36673421342E+04  0.00000000000E+00 0. -1.
         24    2    1    2    0    0  0.31891741499E+03 -0.11187215178E+03 -0.24389887574E+03  0.42406539694E+03  0.78237480606E+02 0.  0.
        254    2    1    2    0    0 -0.31891741499E+03  0.11187215178E+03 -0.32634484016E+04  0.34032715941E+04  0.90439945654E+03 0.  0.
         23    2    4    4    0    0 -0.47339633701E+02  0.27762828506E+03 -0.30378285286E+03  0.42521907226E+03  0.95962139114E+02 0.  0.
         23    2    4    4    0    0 -0.27157778129E+03 -0.16575613328E+03 -0.29596655488E+04  0.29780525218E+04  0.89146368629E+02 0.  0.
          4    1    3    3  502    0  0.77265878228E+02 -0.27032586335E+02 -0.10362062704E+03  0.13205306135E+03  0.00000000000E+00 0. -1.
         -3    1    3    3    0  502  0.24165153676E+03 -0.84839565442E+02 -0.14027824870E+03  0.29201233559E+03  0.00000000000E+00 0.  1.
         13    1    5    5    0    0  0.22541377612E+02  0.26837117670E+02 -0.21070483052E+02  0.40893885185E+02  0.00000000000E+00 0. -1.
        -13    1    5    5    0    0 -0.69881011313E+02  0.25079116739E+03 -0.28271236981E+03  0.38432518708E+03  0.00000000000E+00 0.  1.
          3    1    6    6  503    0 -0.49326245034E+02 -0.75922065612E+02 -0.77069988524E+03  0.77599971109E+03  0.00000000000E+00 0. -1.
         -3    1    6    6    0  503 -0.22225153625E+03 -0.89834067671E+02 -0.21889656635E+04  0.22020528107E+04  0.00000000000E+00 0.  1.
<mgrwt>
<rscale>  0 0.15319998E+04</rscale>
<asrwt>0</asrwt>
<pdfrwt beam="1">  1        2 0.56420651E+00 0.15319998E+04</pdfrwt>
<pdfrwt beam="2">  1       -1 0.24614592E-01 0.15319998E+04</pdfrwt>
<totfact> 0.98988522E+00</totfact>
</mgrwt>
</event>
<event>
12    7  0.1546317E-007  0.2090037E+04  0.7818608E-02  0.8565645E-01
         -1   -1    0    0    0  501 -0.00000000000E+00  0.00000000000E+00  0.31917334859E+03  0.31917334859E+03  0.00000000000E+00 0.  1.
          2   -1    0    0  501    0  0.00000000000E+00 -0.00000000000E+00 -0.34215386976E+04  0.34215386976E+04  0.00000000000E+00 0. -1.
         24    2    1    2    0    0 -0.13398916197E+03 -0.59171198992E+03 -0.20481683263E+03  0.64593772055E+03  0.84908358623E+02 0.  0.
        254    2    1    2    0    0  0.13398916197E+03  0.59171198992E+03 -0.28975485164E+04  0.30947743257E+04  0.90208899083E+03 0.  0.
         23    2    4    4    0    0  0.41698692010E+03  0.15755243327E+03 -0.20333010188E+04  0.20835493992E+04  0.90355988958E+02 0.  0.
         23    2    4    4    0    0 -0.28299775813E+03  0.43415955664E+03 -0.86424749757E+03  0.10112249265E+04  0.84082478749E+02 0.  0.
          2    1    3    3  502    0 -0.53289126409E+02 -0.33060642789E+03 -0.15124479511E+03  0.36744432123E+03  0.00000000000E+00 0. -1.
         -1    1    3    3    0  502 -0.80700035562E+02 -0.26110556202E+03 -0.53572037514E+02  0.27849339931E+03  0.00000000000E+00 0.  1.
         13    1    5    5    0    0  0.16545780226E+03  0.83399311306E+02 -0.66415257174E+03  0.68951458868E+03  0.00000000000E+00 0. -1.
        -13    1    5    5    0    0  0.25152911784E+03  0.74153121966E+02 -0.13691484471E+04  0.13940348105E+04  0.00000000000E+00 0.  1.
          4    1    6    6  503    0 -0.12218491948E+02  0.12339392101E+02 -0.81600590126E+01  0.19186941028E+02  0.00000000000E+00 0. -1.
         -4    1    6    6    0  503 -0.27077926618E+03  0.42182016454E+03 -0.85608743856E+03  0.99203798550E+03  0.00000000000E+00 0.  1.
<mgrwt>
<rscale>  0 0.20900373E+04</rscale>
<asrwt>0</asrwt>
<pdfrwt beam="1">  1        2 0.52639058E+00 0.20900373E+04</pdfrwt>
<pdfrwt beam="2">  1       -1 0.49103591E-01 0.20900373E+04</pdfrwt>
<totfact> 0.40350760E+00</totfact>
</mgrwt>
</event>
<event>
12    7  0.1546317E-007  0.2504019E+04  0.7818608E-02  0.8401555E-01
          2   -1    0    0  501    0  0.00000000000E+00  0.00000000000E+00  0.17593623128E+04  0.17593623128E+04  0.00000000000E+00 0. -1.
         -1   -1    0    0    0  501 -0.00000000000E+00 -0.00000000000E+00 -0.89096385351E+03  0.89096385351E+03  0.00000000000E+00 0.  1.
         24    2    1    2    0    0 -0.59635340764E+03 -0.72902974115E+03 -0.19653526054E+03  0.96551406781E+03  0.80433551558E+02 0.  0.
        254    2    1    2    0    0  0.59635340764E+03  0.72902974115E+03  0.10649337198E+04  0.16848120985E+04  0.90409414850E+03 0.  0.
         23    2    4    4    0    0  0.80100723280E+03  0.69762014228E+03  0.96011432874E+03  0.14350575486E+04  0.96354520648E+02 0.  0.
         23    2    4    4    0    0 -0.20465382516E+03  0.31409598862E+02  0.10481939109E+03  0.24975454989E+03  0.92306442847E+02 0.  0.
          2    1    3    3  502    0 -0.26942966956E+03 -0.32788428945E+03 -0.47758009204E+02  0.42706121522E+03  0.00000000000E+00 0. -1.
         -1    1    3    3    0  502 -0.32692373809E+03 -0.40114545170E+03 -0.14877725133E+03  0.53845285258E+03  0.00000000000E+00 0.  1.
         13    1    5    5    0    0  0.59627778830E+03  0.55944734742E+03  0.69988767511E+03  0.10762765877E+04  0.00000000000E+00 0. -1.
        -13    1    5    5    0    0  0.20472944450E+03  0.13817279486E+03  0.26022665363E+03  0.35878096096E+03  0.00000000000E+00 0.  1.
          1    1    6    6  503    0 -0.12968439085E+03  0.55630376037E+02  0.37207991202E+02  0.14593565218E+03  0.00000000000E+00 0. -1.
         -1    1    6    6    0  503 -0.74969434307E+02 -0.24220777175E+02  0.67611399884E+02  0.10381889771E+03  0.00000000000E+00 0.  1.
<mgrwt>
<rscale>  0 0.25040193E+04</rscale>
<asrwt>0</asrwt>
<pdfrwt beam="1">  1        2 0.27067112E+00 0.25040193E+04</pdfrwt>
<pdfrwt beam="2">  1       -1 0.13707136E+00 0.25040193E+04</pdfrwt>
<totfact> 0.40859327E+00</totfact>
</mgrwt>
</event>
<event>
12    7  0.1546317E-007  0.1868525E+04  0.7818608E-02  0.8670684E-01
          2   -1    0    0  501    0  0.00000000000E+00  0.00000000000E+00  0.91635683698E+03  0.91635683698E+03  0.00000000000E+00 0. -1.
         -1   -1    0    0    0  501 -0.00000000000E+00 -0.00000000000E+00 -0.95251754396E+03  0.95251754396E+03  0.00000000000E+00 0.  1.
         24    2    1    2    0    0  0.64108562075E+03 -0.36770759427E+01 -0.27918726553E+03  0.70336113459E+03  0.75941177205E+02 0.  0.
        254    2    1    2    0    0 -0.64108562075E+03  0.36770759427E+01  0.24302655855E+03  0.11655132463E+04  0.94252582205E+03 0.  0.
         23    2    4    4    0    0 -0.72779754834E+03 -0.17856534957E+03  0.43575024165E+03  0.87138667703E+03  0.88665733890E+02 0.  0.
         23    2    4    4    0    0  0.86711927587E+02  0.18224242551E+03 -0.19272368310E+03  0.29412656932E+03  0.92934174092E+02 0.  0.
          4    1    3    3  502    0  0.33246432241E+03  0.25292340817E+02 -0.17347365784E+03  0.37585281447E+03  0.00000000000E+00 0. -1.
         -3    1    3    3    0  502  0.30862129834E+03 -0.28969416759E+02 -0.10571360769E+03  0.32750832012E+03  0.00000000000E+00 0.  1.
         13    1    5    5    0    0 -0.52584854263E+03 -0.88878638550E+02  0.31982869840E+03  0.62185729753E+03  0.00000000000E+00 0. -1.
        -13    1    5    5    0    0 -0.20194900571E+03 -0.89686711019E+02  0.11592154325E+03  0.24952937950E+03  0.00000000000E+00 0.  1.
          2    1    6    6  503    0  0.10673288316E+03  0.14844853784E+03 -0.15570029259E+03  0.24014882437E+03  0.00000000000E+00 0. -1.
         -2    1    6    6    0  503 -0.20020955568E+02  0.33793887672E+02 -0.37023390508E+02  0.53977744956E+02  0.00000000000E+00 0.  1.
<mgrwt>
<rscale>  0 0.18685245E+04</rscale>
<asrwt>0</asrwt>
<pdfrwt beam="1">  1        2 0.14097797E+00 0.18685245E+04</pdfrwt>
<pdfrwt beam="2">  1       -1 0.14654116E+00 0.18685245E+04</pdfrwt>
<totfact> 0.11377220E+01</totfact>
</mgrwt>
</event>
<event>
12    7  0.1546317E-007  0.2574930E+04  0.7818608E-02  0.8376767E-01
          2   -1    0    0  501    0  0.00000000000E+00  0.00000000000E+00  0.18415024225E+04  0.18415024225E+04  0.00000000000E+00 0. -1.
         -1   -1    0    0    0  501 -0.00000000000E+00 -0.00000000000E+00 -0.90011618435E+03  0.90011618435E+03  0.00000000000E+00 0.  1.
         24    2    1    2    0    0  0.80840530811E+03  0.57348182616E+03  0.98355256569E+03  0.13986300873E+04  0.79937004123E+02 0.  0.
        254    2    1    2    0    0 -0.80840530811E+03 -0.57348182616E+03 -0.42166327541E+02  0.13429885195E+04  0.90522904133E+03 0.  0.
         23    2    4    4    0    0  0.83137859866E+02  0.35236976127E+02  0.19523870083E+03  0.23400174135E+03  0.92114691667E+02 0.  0.
         23    2    4    4    0    0 -0.89154316797E+03 -0.60871880228E+03 -0.23740502837E+03  0.11089867782E+04  0.90015143481E+02 0.  0.
          2    1    3    3  502    0  0.14205765468E+03  0.73184909434E+02  0.13263654544E+03  0.20767489354E+03  0.00000000000E+00 0. -1.
         -1    1    3    3    0  502  0.66634765342E+03  0.50029691672E+03  0.85091602026E+03  0.11909551938E+04  0.00000000000E+00 0.  1.
         13    1    5    5    0    0  0.96430659132E+02  0.46909484629E+02  0.14227354146E+03  0.17816041190E+03  0.00000000000E+00 0.  1.
        -13    1    5    5    0    0 -0.13292799267E+02 -0.11672508502E+02  0.52965159367E+02  0.55841329442E+02  0.00000000000E+00 0. -1.
          1    1    6    6  503    0 -0.43971097786E+03 -0.32215911640E+03 -0.16197697164E+03  0.56865523797E+03  0.00000000000E+00 0. -1.
         -1    1    6    6    0  503 -0.45183219011E+03 -0.28655968588E+03 -0.75428056732E+02  0.54033154020E+03  0.00000000000E+00 0.  1.
<mgrwt>
<rscale>  0 0.25749300E+04</rscale>
<asrwt>0</asrwt>
<pdfrwt beam="1">  1        2 0.28330806E+00 0.25749300E+04</pdfrwt>
<pdfrwt beam="2">  1       -1 0.13847941E+00 0.25749300E+04</pdfrwt>
<totfact> 0.35604488E+00</totfact>
</mgrwt>
</event>
<event>
12    7  0.1546317E-007  0.1650595E+04  0.7818608E-02  0.8790055E-01
         -1   -1    0    0    0  501 -0.00000000000E+00  0.00000000000E+00  0.24667318751E+03  0.24667318751E+03  0.00000000000E+00 0.  1.
          2   -1    0    0  501    0  0.00000000000E+00 -0.00000000000E+00 -0.27612075584E+04  0.27612075584E+04  0.00000000000E+00 0. -1.
         24    2    1    2    0    0 -0.19766563433E+03 -0.23845309937E+03 -0.17597832463E+04  0.17886089575E+04  0.79707876016E+02 0.  0.
        254    2    1    2    0    0  0.19766563433E+03  0.23845309937E+03 -0.75475112465E+03  0.12192717884E+04  0.90611414858E+03 0.  0.
         23    2    4    4    0    0  0.53962697782E+03  0.56890089402E+02 -0.52957081365E+03  0.76394217121E+03  0.93427173912E+02 0.  0.
         23    2    4    4    0    0 -0.34196134349E+03  0.18156300997E+03 -0.22518031100E+03  0.45532961720E+03  0.81952430165E+02 0.  0.
          4    1    3    3  502    0 -0.18652542798E+03 -0.20147383519E+03 -0.16379121008E+04  0.16607647309E+04  0.00000000000E+00 0. -1.
         -3    1    3    3    0  502 -0.11140206351E+02 -0.36979264180E+02 -0.12187114552E+03  0.12784422665E+03  0.00000000000E+00 0.  1.
         13    1    5    5    0    0  0.54323687567E+02  0.15145684869E+02 -0.22215341526E+02  0.60613333518E+02  0.00000000000E+00 0. -1.
        -13    1    5    5    0    0  0.48530329025E+03  0.41744404532E+02 -0.50735547212E+03  0.70332883769E+03  0.00000000000E+00 0.  1.
          1    1    6    6  503    0 -0.29044007192E+03  0.14078647284E+03 -0.21743115072E+03  0.38916907844E+03  0.00000000000E+00 0. -1.
         -1    1    6    6    0  503 -0.51521271566E+02  0.40776537124E+02 -0.77491602808E+01  0.66160538757E+02  0.00000000000E+00 0.  1.
<mgrwt>
<rscale>  0 0.16505949E+04</rscale>
<asrwt>0</asrwt>
<pdfrwt beam="1">  1        2 0.42480112E+00 0.16505949E+04</pdfrwt>
<pdfrwt beam="2">  1       -1 0.37949725E-01 0.16505949E+04</pdfrwt>
<totfact> 0.17860113E+01</totfact>
</mgrwt>
</event>
<event>
12    7  0.1546317E-007  0.1814783E+04  0.7818608E-02  0.8698477E-01
          2   -1    0    0  501    0  0.00000000000E+00  0.00000000000E+00  0.35989850663E+03  0.35989850663E+03  0.00000000000E+00 0. -1.
         -1   -1    0    0    0  501 -0.00000000000E+00 -0.00000000000E+00 -0.22877535909E+04  0.22877535909E+04  0.00000000000E+00 0.  1.
         24    2    1    2    0    0  0.31495911462E+03  0.43078888781E+03 -0.13474830957E+04  0.14515044992E+04  0.79851790821E+02 0.  0.
        254    2    1    2    0    0 -0.31495911462E+03 -0.43078888781E+03 -0.58037198858E+03  0.11961475982E+04  0.89953272422E+03 0.  0.
         23    2    4    4    0    0 -0.31655031551E+03 -0.44178993879E+03 -0.79334826767E+03  0.96539685887E+03  0.84895047178E+02 0.  0.
         23    2    4    4    0    0  0.15912008886E+01  0.11001050985E+02  0.21297627910E+03  0.23075073938E+03  0.88110460340E+02 0.  0.
          2    1    3    3  502    0  0.37895280122E+01  0.38683816661E+02 -0.88669692895E+02  0.96814836839E+02  0.00000000000E+00 0. -1.
         -1    1    3    3    0  502  0.31116958661E+03  0.39210507114E+03 -0.12588134028E+04  0.13546896624E+04  0.00000000000E+00 0.  1.
         13    1    5    5    0    0 -0.16484949509E+03 -0.27415201203E+03 -0.40588471956E+03  0.51679501478E+03  0.00000000000E+00 0. -1.
        -13    1    5    5    0    0 -0.15170082042E+03 -0.16763792676E+03 -0.38746354811E+03  0.44860184409E+03  0.00000000000E+00 0.  1.
          3    1    6    6  503    0  0.20676580123E+02  0.19661187357E+02  0.16098208878E+02  0.32760274464E+02  0.00000000000E+00 0. -1.
         -3    1    6    6    0  503 -0.19085379235E+02 -0.86601363725E+01  0.19687807022E+03  0.19799046491E+03  0.00000000000E+00 0.  1.
<mgrwt>
<rscale>  0 0.18147827E+04</rscale>
<asrwt>0</asrwt>
<pdfrwt beam="1">  1        2 0.55369000E-01 0.18147827E+04</pdfrwt>
<pdfrwt beam="2">  1       -1 0.35196210E+00 0.18147827E+04</pdfrwt>
<totfact> 0.14599562E+00</totfact>
</mgrwt>
</event>
<event>
12    7  0.1546317E-007  0.1935818E+04  0.7818608E-02  0.8637230E-01
          2   -1    0    0  501    0  0.00000000000E+00  0.00000000000E+00  0.18521114588E+04  0.18521114588E+04  0.00000000000E+00 0. -1.
         -1   -1    0    0    0  501 -0.00000000000E+00 -0.00000000000E+00 -0.50582711764E+03  0.50582711764E+03  0.00000000000E+00 0.  1.
         24    2    1    2    0    0 -0.41316207037E+03 -0.76676046664E+02  0.13017826431E+04  0.13702932470E+04  0.80519689912E+02 0.  0.
        254    2    1    2    0    0  0.41316207037E+03  0.76676046664E+02  0.44501698117E+02  0.98764532947E+03  0.89268179278E+03 0.  0.
         23    2    4    4    0    0  0.53611842504E+03 -0.18421574757E+03  0.24451551075E+03  0.62412341177E+03  0.91563042769E+02 0.  0.
         23    2    4    4    0    0 -0.12295635467E+03  0.26089179424E+03 -0.20001381263E+03  0.36352191770E+03  0.94656568445E+02 0.  0.
          4    1    3    3  502    0 -0.17987600314E+03 -0.13861599179E+02  0.67090733923E+03  0.69474036753E+03  0.00000000000E+00 0. -1.
         -3    1    3    3    0  502 -0.23328606723E+03 -0.62814447485E+02  0.63087530384E+03  0.67555287948E+03  0.00000000000E+00 0.  1.
         13    1    5    5    0    0  0.41368305782E+03 -0.17537322663E+03  0.21374955808E+03  0.49757242139E+03  0.00000000000E+00 0.  1.
        -13    1    5    5    0    0  0.12243536722E+03 -0.88425209382E+01  0.30765952673E+02  0.12655099038E+03  0.00000000000E+00 0. -1.
          3    1    6    6  503    0 -0.85206490975E+02  0.88201317357E+02 -0.11187322184E+03  0.16599769954E+03  0.00000000000E+00 0. -1.
         -3    1    6    6    0  503 -0.37749863693E+02  0.17269047688E+03 -0.88140590793E+02  0.19752421816E+03  0.00000000000E+00 0.  1.
<mgrwt>
<rscale>  0 0.19358184E+04</rscale>
<asrwt>0</asrwt>
<pdfrwt beam="1">  1        2 0.28494022E+00 0.19358184E+04</pdfrwt>
<pdfrwt beam="2">  1       -1 0.77819557E-01 0.19358184E+04</pdfrwt>
<totfact> 0.14201247E+01</totfact>
</mgrwt>
</event>
<event>
12    7  0.1546317E-007  0.1596736E+04  0.7818608E-02  0.8822556E-01
         -1   -1    0    0    0  501 -0.00000000000E+00  0.00000000000E+00  0.11250783820E+04  0.11250783820E+04  0.00000000000E+00 0.  1.
          2   -1    0    0  501    0  0.00000000000E+00 -0.00000000000E+00 -0.56653091126E+03  0.56653091126E+03  0.00000000000E+00 0. -1.
         24    2    1    2    0    0 -0.49469823246E+03 -0.36268927878E+02 -0.38575754390E+02  0.50388800011E+03  0.79832646837E+02 0.  0.
        254    2    1    2    0    0  0.49469823246E+03  0.36268927878E+02  0.59712322514E+03  0.11877212932E+04  0.89893489636E+03 0.  0.
         23    2    4    4    0    0  0.60748893789E+03 -0.55067963531E+02  0.74208193172E+03  0.96505596703E+03  0.92585829623E+02 0.  0.
         23    2    4    4    0    0 -0.11279070543E+03  0.91336891410E+02 -0.14495870657E+03  0.22266532613E+03  0.86617838141E+02 0.  0.
          4    1    3    3  502    0 -0.38100630452E+03 -0.28392243044E+02 -0.63303927273E+02  0.38727162401E+03  0.00000000000E+00 0. -1.
         -3    1    3    3    0  502 -0.11369192793E+03 -0.78766848343E+01  0.24728172883E+02  0.11661637610E+03  0.00000000000E+00 0.  1.
         13    1    5    5    0    0  0.34368270442E+03 -0.23872655054E+02  0.48886263498E+03  0.59805884397E+03  0.00000000000E+00 0.  1.
        -13    1    5    5    0    0  0.26380623347E+03 -0.31195308478E+02  0.25321929674E+03  0.36699712306E+03  0.00000000000E+00 0. -1.
          3    1    6    6  503    0  0.75599195388E+01  0.41398471376E+01 -0.39505352006E+02  0.40434682575E+02  0.00000000000E+00 0.  1.
         -3    1    6    6    0  503 -0.12035062497E+03  0.87197044272E+02 -0.10545335457E+03  0.18223064355E+03  0.00000000000E+00 0. -1.
<mgrwt>
<rscale>  0 0.15967363E+04</rscale>
<asrwt>0</asrwt>
<pdfrwt beam="1">  1        2 0.87158602E-01 0.15967363E+04</pdfrwt>
<pdfrwt beam="2">  1       -1 0.17308898E+00 0.15967363E+04</pdfrwt>
<totfact> 0.13603777E+01</totfact>
</mgrwt>
</event>
<event>
12    7  0.1546317E-007  0.3891446E+04  0.7818608E-02  0.8026811E-01
         -1   -1    0    0    0  501 -0.00000000000E+00  0.00000000000E+00  0.14265178849E+04  0.14265178849E+04  0.00000000000E+00 0.  1.
          2   -1    0    0  501    0  0.00000000000E+00 -0.00000000000E+00 -0.26539009491E+04  0.26539009491E+04  0.00000000000E+00 0. -1.
         24    2    1    2    0    0  0.10278676014E+04 -0.53663666884E+03  0.91862341580E+03  0.14816853035E+04  0.83854864271E+02 0.  0.
        254    2    1    2    0    0 -0.10278676014E+04  0.53663666884E+03 -0.21460064800E+04  0.25987335306E+04  0.89642703568E+03 0.  0.
         23    2    4    4    0    0 -0.41616229064E+02  0.37345672837E+03 -0.10194518429E+04  0.10899263635E+04  0.86345696737E+02 0.  0.
         23    2    4    4    0    0 -0.98625137233E+03  0.16317994047E+03 -0.11265546371E+04  0.15088071671E+04  0.89745499360E+02 0.  0.
          2    1    3    3  502    0  0.68806252495E+03 -0.33671946808E+03  0.64968993123E+03  0.10044436496E+04  0.00000000000E+00 0. -1.
         -1    1    3    3    0  502  0.33980507645E+03 -0.19991720076E+03  0.26893348458E+03  0.47724165395E+03  0.00000000000E+00 0.  1.
         13    1    5    5    0    0  0.99457711565E+00  0.29777416348E+03 -0.75620180588E+03  0.81271865540E+03  0.00000000000E+00 0.  1.
        -13    1    5    5    0    0 -0.42610806180E+02  0.75682564888E+02 -0.26325003699E+03  0.27720770805E+03  0.00000000000E+00 0. -1.
          4    1    6    6  503    0 -0.16561277877E+03  0.49735641601E+02 -0.15743885644E+03  0.23385512621E+03  0.00000000000E+00 0. -1.
         -4    1    6    6    0  503 -0.82063859356E+03  0.11344429887E+03 -0.96911578070E+03  0.12749520409E+04  0.00000000000E+00 0.  1.
<mgrwt>
<rscale>  0 0.38914456E+04</rscale>
<asrwt>0</asrwt>
<pdfrwt beam="1">  1        2 0.40829245E+00 0.38914456E+04</pdfrwt>
<pdfrwt beam="2">  1       -1 0.21946429E+00 0.38914456E+04</pdfrwt>
<totfact> 0.28375955E-01</totfact>
</mgrwt>
</event>
<event>
12    7  0.1546317E-007  0.2841947E+04  0.7818608E-02  0.8290363E-01
          2   -1    0    0  501    0  0.00000000000E+00  0.00000000000E+00  0.18477493820E+04  0.18477493820E+04  0.00000000000E+00 0. -1.
         -1   -1    0    0    0  501 -0.00000000000E+00 -0.00000000000E+00 -0.10927703531E+04  0.10927703531E+04  0.00000000000E+00 0.  1.
         24    2    1    2    0    0  0.92572703811E+03 -0.66699052031E+03  0.88168694029E+03  0.14441695951E+04  0.80044083947E+02 0.  0.
        254    2    1    2    0    0 -0.92572703811E+03  0.66699052031E+03 -0.12670791137E+03  0.14963501400E+04  0.95977181834E+03 0.  0.
         23    2    4    4    0    0 -0.88293285526E+03  0.88150947787E+03 -0.10673484128E+03  0.12564027808E+04  0.10259744032E+03 0.  0.
         23    2    4    4    0    0 -0.42794182853E+02 -0.21451895756E+03 -0.19973070094E+02  0.23994735917E+03  0.96571664606E+02 0.  0.
          2    1    3    3  502    0  0.70323614913E+03 -0.54132511626E+03  0.66160081021E+03  0.11069279990E+04  0.00000000000E+00 0. -1.
         -1    1    3    3    0  502  0.22249088898E+03 -0.12566540404E+03  0.22008613008E+03  0.33724159605E+03  0.00000000000E+00 0.  1.
         13    1    5    5    0    0 -0.12739762906E+03  0.88056145993E+02 -0.32652366692E+02  0.15827260593E+03  0.00000000000E+00 0. -1.
        -13    1    5    5    0    0 -0.75553522620E+03  0.79345333187E+03 -0.74082474586E+02  0.10981301749E+04  0.00000000000E+00 0.  1.
          2    1    6    6  503    0  0.24915021053E+02 -0.72709951776E+02  0.16533320436E+02  0.78618356928E+02  0.00000000000E+00 0. -1.
         -2    1    6    6    0  503 -0.67709203905E+02 -0.14180900578E+03 -0.36506390530E+02  0.16132900224E+03  0.00000000000E+00 0.  1.
<mgrwt>
<rscale>  0 0.28419470E+04</rscale>
<asrwt>0</asrwt>
<pdfrwt beam="1">  1        2 0.28426914E+00 0.28419470E+04</pdfrwt>
<pdfrwt beam="2">  1       -1 0.16811852E+00 0.28419470E+04</pdfrwt>
<totfact> 0.20352360E+00</totfact>
</mgrwt>
</event>
<event>
12    7  0.1546317E-007  0.2783308E+04  0.7818608E-02  0.8308469E-01
          2   -1    0    0  501    0  0.00000000000E+00  0.00000000000E+00  0.23313575776E+04  0.23313575776E+04  0.00000000000E+00 0. -1.
         -1   -1    0    0    0  501 -0.00000000000E+00 -0.00000000000E+00 -0.83071795053E+03  0.83071795053E+03  0.00000000000E+00 0.  1.
         24    2    1    2    0    0  0.38596345808E+03  0.47485673890E+03 -0.55782027486E+03  0.83229763369E+03  0.84256623226E+02 0.  0.
        254    2    1    2    0    0 -0.38596345808E+03 -0.47485673890E+03  0.20584599020E+04  0.23297778945E+04  0.90341084569E+03 0.  0.
         23    2    4    4    0    0 -0.35552269233E+03 -0.29633310417E+03  0.30021466493E+03  0.55989081543E+03  0.95599094049E+02 0.  0.
         23    2    4    4    0    0 -0.30440765756E+02 -0.17852363473E+03  0.17582452370E+04  0.17698870790E+04  0.90975989189E+02 0.  0.
          2    1    3    3  502    0  0.75373473225E+02  0.56352055738E+02 -0.11347135657E+03  0.14741934545E+03  0.00000000000E+00 0. -1.
         -1    1    3    3    0  502  0.31058998486E+03  0.41850468316E+03 -0.44434891829E+03  0.68487828824E+03  0.00000000000E+00 0.  1.
         13    1    5    5    0    0 -0.19581612756E+03 -0.21829920090E+03  0.20893165919E+03  0.36007073630E+03  0.00000000000E+00 0.  1.
        -13    1    5    5    0    0 -0.15970656477E+03 -0.78033903266E+02  0.91283005741E+02  0.19982007914E+03  0.00000000000E+00 0. -1.
          3    1    6    6  503    0 -0.46978010058E+02 -0.12869454968E+03  0.93667836342E+03  0.94664437729E+03  0.00000000000E+00 0. -1.
         -3    1    6    6    0  503  0.16537244302E+02 -0.49829085047E+02  0.82156687361E+03  0.82324270175E+03  0.00000000000E+00 0.  1.
<mgrwt>
<rscale>  0 0.27833078E+04</rscale>
<asrwt>0</asrwt>
<pdfrwt beam="1">  1        2 0.35867039E+00 0.27833078E+04</pdfrwt>
<pdfrwt beam="2">  1       -1 0.12780276E+00 0.27833078E+04</pdfrwt>
<totfact> 0.22820143E+00</totfact>
</mgrwt>
</event>
<event>
12    7  0.1546317E-007  0.1396750E+04  0.7818608E-02  0.8956175E-01
         -1   -1    0    0    0  501 -0.00000000000E+00  0.00000000000E+00  0.40722818914E+03  0.40722818914E+03  0.00000000000E+00 0.  1.
          2   -1    0    0  501    0  0.00000000000E+00 -0.00000000000E+00 -0.11976760070E+04  0.11976760070E+04  0.00000000000E+00 0. -1.
         24    2    1    2    0    0  0.69019783525E+01  0.15195820457E+03 -0.65733671123E+03  0.67945530087E+03  0.80181174251E+02 0.  0.
        254    2    1    2    0    0 -0.69019783525E+01 -0.15195820457E+03 -0.13311110659E+03  0.92544889523E+03  0.90310473243E+03 0.  0.
         23    2    4    4    0    0  0.31230613506E+02  0.34415171421E+03 -0.20567917066E+03  0.41227851675E+03  0.90850979711E+02 0.  0.
         23    2    4    4    0    0 -0.38132591859E+02 -0.49610991878E+03  0.72568064073E+02  0.51317037848E+03  0.10246251684E+03 0.  0.
          4    1    3    3  502    0 -0.19209409799E+02  0.70763440608E+02 -0.43844650117E+03  0.44453548828E+03  0.00000000000E+00 0. -1.
         -3    1    3    3    0  502  0.26111388152E+02  0.81194763962E+02 -0.21889021006E+03  0.23491981259E+03  0.00000000000E+00 0.  1.
         13    1    5    5    0    0  0.85705757082E+01  0.57550919793E+02 -0.78990411752E+02  0.98107330439E+02  0.00000000000E+00 0. -1.
        -13    1    5    5    0    0  0.22660037798E+02  0.28660079441E+03 -0.12668875891E+03  0.31417118631E+03  0.00000000000E+00 0.  1.
          3    1    6    6  503    0  0.77120098505E+01 -0.83489811376E+02 -0.23428986173E+02  0.87057113969E+02  0.00000000000E+00 0. -1.
         -3    1    6    6    0  503 -0.45844601709E+02 -0.41262010740E+03  0.95997050246E+02  0.42611326451E+03  0.00000000000E+00 0.  1.
<mgrwt>
<rscale>  0 0.13967497E+04</rscale>
<asrwt>0</asrwt>
<pdfrwt beam="1">  1        2 0.18425784E+00 0.13967497E+04</pdfrwt>
<pdfrwt beam="2">  1       -1 0.62650492E-01 0.13967497E+04</pdfrwt>
<totfact> 0.54505520E+01</totfact>
</mgrwt>
</event>
<event>
12    7  0.1546317E-007  0.1584008E+04  0.7818608E-02  0.8830433E-01
          2   -1    0    0  501    0  0.00000000000E+00  0.00000000000E+00  0.99400133707E+03  0.99400133707E+03  0.00000000000E+00 0. -1.
         -1   -1    0    0    0  501 -0.00000000000E+00 -0.00000000000E+00 -0.63105579106E+03  0.63105579106E+03  0.00000000000E+00 0.  1.
         24    2    1    2    0    0  0.50036803533E+03  0.55218705982E+01 -0.78116529228E+02  0.51263791652E+03  0.79352249352E+02 0.  0.
        254    2    1    2    0    0 -0.50036803533E+03 -0.55218705982E+01  0.44106207525E+03  0.11124192116E+04  0.89024832845E+03 0.  0.
         23    2    4    4    0    0  0.19590965397E+03 -0.79866714612E+02 -0.69838794319E+02  0.24083984740E+03  0.91471800484E+02 0.  0.
         23    2    4    4    0    0 -0.69627768930E+03  0.74344844014E+02  0.51090086957E+03  0.87157936421E+03  0.91110444775E+02 0.  0.
          4    1    3    3  502    0  0.14314384159E+03 -0.12089263728E+02  0.10907543651E+02  0.14406694344E+03  0.00000000000E+00 0. -1.
         -3    1    3    3    0  502  0.35722419374E+03  0.17611134327E+02 -0.89024072879E+02  0.36857097308E+03  0.00000000000E+00 0.  1.
         13    1    5    5    0    0  0.37571392448E+02 -0.14802199969E+02  0.22615298657E+02  0.46283543379E+02  0.00000000000E+00 0. -1.
        -13    1    5    5    0    0  0.15833826152E+03 -0.65064514643E+02 -0.92454092976E+02  0.19455630402E+03  0.00000000000E+00 0.  1.
          1    1    6    6  503    0 -0.98808354485E+02  0.41996009234E+02  0.67003078942E+02  0.12655500107E+03  0.00000000000E+00 0. -1.
         -1    1    6    6    0  503 -0.59746933481E+03  0.32348834780E+02  0.44389779062E+03  0.74502436314E+03  0.00000000000E+00 0.  1.
<mgrwt>
<rscale>  0 0.15840080E+04</rscale>
<asrwt>0</asrwt>
<pdfrwt beam="1">  1        2 0.15292328E+00 0.15840080E+04</pdfrwt>
<pdfrwt beam="2">  1       -1 0.97085506E-01 0.15840080E+04</pdfrwt>
<totfact> 0.28389232E+01</totfact>
</mgrwt>
</event>
<event>
12    7  0.1546317E-007  0.1383565E+04  0.7818608E-02  0.8965801E-01
         -1   -1    0    0    0  501 -0.00000000000E+00  0.00000000000E+00  0.12909942005E+03  0.12909942005E+03  0.00000000000E+00 0.  1.
          2   -1    0    0  501    0  0.00000000000E+00 -0.00000000000E+00 -0.37069364143E+04  0.37069364143E+04  0.00000000000E+00 0. -1.
         24    2    1    2    0    0  0.15843974329E+03 -0.32144104433E+03 -0.14734682801E+04  0.15184214272E+04  0.77893266333E+02 0.  0.
        254    2    1    2    0    0 -0.15843974329E+03  0.32144104433E+03 -0.21043687141E+04  0.23176144071E+04  0.90251945007E+03 0.  0.
         23    2    4    4    0    0 -0.14244851930E+03 -0.27752024603E+03 -0.44975151320E+03  0.55517553878E+03  0.92921405665E+02 0.  0.
         23    2    4    4    0    0 -0.15991223986E+02  0.59896129036E+03 -0.16546172009E+04  0.17624388683E+04  0.97068719694E+02 0.  0.
          2    1    3    3  502    0  0.89195923726E+02 -0.11544089905E+03 -0.49161456127E+03  0.51280346219E+03  0.00000000000E+00 0. -1.
         -1    1    3    3    0  502  0.69243819561E+02 -0.20600014528E+03 -0.98185371886E+03  0.10056179651E+04  0.00000000000E+00 0.  1.
         13    1    5    5    0    0 -0.54545219830E+02 -0.91080942288E+02 -0.23309223114E+03  0.25613064493E+03  0.00000000000E+00 0. -1.
        -13    1    5    5    0    0 -0.87903299470E+02 -0.18643930374E+03 -0.21665928206E+03  0.29904489385E+03  0.00000000000E+00 0.  1.
          4    1    6    6  503    0  0.74723007635E+01  0.34020464802E+03 -0.80459154803E+03  0.87359177937E+03  0.00000000000E+00 0. -1.
         -4    1    6    6    0  503 -0.23463524750E+02  0.25875664234E+03 -0.85002565287E+03  0.88884708892E+03  0.00000000000E+00 0.  1.
<mgrwt>
<rscale>  0 0.13835655E+04</rscale>
<asrwt>0</asrwt>
<pdfrwt beam="1">  1        2 0.57029789E+00 0.13835655E+04</pdfrwt>
<pdfrwt beam="2">  1       -1 0.19861450E-01 0.13835655E+04</pdfrwt>
<totfact> 0.13542762E+01</totfact>
</mgrwt>
</event>
<event>
12    7  0.2370994E-007  0.2890695E+04  0.7818608E-02  0.8275651E-01
         -1   -1    0    0    0  501 -0.00000000000E+00  0.00000000000E+00  0.13057892784E+04  0.13057892784E+04  0.00000000000E+00 0.  1.
          2   -1    0    0  501    0  0.00000000000E+00 -0.00000000000E+00 -0.15998217331E+04  0.15998217331E+04  0.00000000000E+00 0. -1.
         24    2    1    2    0    0 -0.79143381073E+03 -0.98660590676E+02 -0.11727980869E+04  0.14205272880E+04  0.79630611299E+02 0.  0.
        254    2    1    2    0    0  0.79143381073E+03  0.98660590676E+02  0.87876563229E+03  0.14850837235E+04  0.89282878561E+03 0.  0.
         23    2    4    4    0    0  0.22410166759E+03  0.45677285381E+03  0.32505609871E+03  0.61078652978E+03  0.92388961785E+02 0.  0.
         23    2    4    4    0    0  0.56733214314E+03 -0.35811226314E+03  0.55370953358E+03  0.87429719373E+03  0.87699382698E+02 0.  0.
          2    1    3    3  502    0 -0.69465732792E+03 -0.10201435021E+03 -0.99044683433E+03  0.12140595795E+04  0.00000000000E+00 0. -1.
         -1    1    3    3    0  502 -0.96776482810E+02  0.33537595303E+01 -0.18235125262E+03  0.20646770851E+03  0.00000000000E+00 0.  1.
         13    1    5    5    0    0  0.10105321023E+03  0.18832276711E+03  0.84195036839E+02  0.22970855477E+03  0.00000000000E+00 0. -1.
        -13    1    5    5    0    0  0.12304845736E+03  0.26845008671E+03  0.24086106187E+03  0.38107797501E+03  0.00000000000E+00 0.  1.
          3    1    6    6  503    0  0.42255244423E+03 -0.27292271393E+03  0.46156974697E+03  0.68270345482E+03  0.00000000000E+00 0. -1.
         -3    1    6    6    0  503  0.14477969892E+03 -0.85189549206E+02  0.92139786613E+02  0.19159373891E+03  0.00000000000E+00 0.  1.
<mgrwt>
<rscale>  0 0.28906955E+04</rscale>
<asrwt>0</asrwt>
<pdfrwt beam="1">  1        2 0.24612642E+00 0.28906955E+04</pdfrwt>
<pdfrwt beam="2">  1       -1 0.20089066E+00 0.28906955E+04</pdfrwt>
<totfact> 0.16276863E+00</totfact>
</mgrwt>
</event>
<event>
12    7  0.1546317E-007  0.1308883E+04  0.7818608E-02  0.9022551E-01
          2   -1    0    0  501    0  0.00000000000E+00  0.00000000000E+00  0.17412838696E+04  0.17412838696E+04  0.00000000000E+00 0. -1.
         -1   -1    0    0    0  501 -0.00000000000E+00 -0.00000000000E+00 -0.24596422213E+03  0.24596422213E+03  0.00000000000E+00 0.  1.
         24    2    1    2    0    0  0.27967454289E+03 -0.20288468379E+03  0.42199745159E+03  0.55205412250E+03  0.85450922543E+02 0.  0.
        254    2    1    2    0    0 -0.27967454289E+03  0.20288468379E+03  0.10733221958E+04  0.14351939692E+04  0.88790829947E+03 0.  0.
         23    2    4    4    0    0 -0.13426002136E+03  0.35781554643E+03  0.63291138901E+02  0.39864390423E+03  0.94092908930E+02 0.  0.
         23    2    4    4    0    0 -0.14541452153E+03 -0.15493086264E+03  0.10100310569E+04  0.10365500650E+04  0.95521442241E+02 0.  0.
          4    1    3    3  502    0  0.17876822887E+03 -0.15932800148E+03  0.33549684523E+03  0.41219124792E+03  0.00000000000E+00 0. -1.
         -3    1    3    3    0  502  0.10090631402E+03 -0.43556682311E+02  0.86500606365E+02  0.13986287458E+03  0.00000000000E+00 0.  1.
         13    1    5    5    0    0  0.12511898795E+02  0.10263518133E+02  0.56628838993E+00  0.16192840964E+02  0.00000000000E+00 0.  1.
        -13    1    5    5    0    0 -0.14677192016E+03  0.34755202830E+03  0.62724850511E+02  0.38245106326E+03  0.00000000000E+00 0. -1.
          4    1    6    6  503    0  0.10283860646E+02 -0.22433904193E+02  0.18138897439E+03  0.18306009362E+03  0.00000000000E+00 0.  1.
         -4    1    6    6    0  503 -0.15569838218E+03 -0.13249695845E+03  0.82864208254E+03  0.85348997133E+03  0.00000000000E+00 0. -1.
<mgrwt>
<rscale>  0 0.13088828E+04</rscale>
<asrwt>0</asrwt>
<pdfrwt beam="1">  1        2 0.26788982E+00 0.13088828E+04</pdfrwt>
<pdfrwt beam="2">  1       -1 0.37840651E-01 0.13088828E+04</pdfrwt>
<totfact> 0.69963906E+01</totfact>
</mgrwt>
</event>
<event>
12    7  0.1546317E-007  0.1348902E+04  0.7818608E-02  0.8991660E-01
          2   -1    0    0  501    0  0.00000000000E+00  0.00000000000E+00  0.15167352967E+04  0.15167352967E+04  0.00000000000E+00 0. -1.
         -1   -1    0    0    0  501 -0.00000000000E+00 -0.00000000000E+00 -0.29990986967E+03  0.29990986967E+03  0.00000000000E+00 0.  1.
         24    2    1    2    0    0 -0.96036772053E+02  0.44328855241E+02  0.82543371831E+03  0.83594344914E+03  0.79199228769E+02 0.  0.
        254    2    1    2    0    0  0.96036772053E+02 -0.44328855241E+02  0.39139170874E+03  0.98070171725E+03  0.89297272050E+03 0.  0.
         23    2    4    4    0    0 -0.38983469978E+03 -0.35806327115E+02  0.21143380600E+03  0.45420338759E+03  0.91341539126E+02 0.  0.
         23    2    4    4    0    0  0.48587147183E+03 -0.85225281265E+01  0.17995790274E+03  0.52649832966E+03  0.93123164407E+02 0.  0.
          2    1    3    3  502    0 -0.26308857682E+02 -0.22446843904E+02  0.26622406517E+03  0.26846092764E+03  0.00000000000E+00 0. -1.
         -1    1    3    3    0  502 -0.69727914371E+02  0.66775699145E+02  0.55920965314E+03  0.56748252150E+03  0.00000000000E+00 0.  1.
         13    1    5    5    0    0 -0.97728714234E+02  0.20885632661E+02  0.83830920598E+02  0.13044054004E+03  0.00000000000E+00 0. -1.
        -13    1    5    5    0    0 -0.29210598554E+03 -0.56691959776E+02  0.12760288540E+03  0.32376284755E+03  0.00000000000E+00 0.  1.
          1    1    6    6  503    0 -0.19138011838E+01  0.26489416928E+01 -0.39047518305E+01  0.50918183315E+01  0.00000000000E+00 0. -1.
         -1    1    6    6    0  503  0.48778527301E+03 -0.11171469819E+02  0.18386265457E+03  0.52140651132E+03  0.00000000000E+00 0.  1.
<mgrwt>
<rscale>  0 0.13489016E+04</rscale>
<asrwt>0</asrwt>
<pdfrwt beam="1">  1        2 0.23334389E+00 0.13489016E+04</pdfrwt>
<pdfrwt beam="2">  1       -1 0.46139981E-01 0.13489016E+04</pdfrwt>
<totfact> 0.64592629E+01</totfact>
</mgrwt>
</event>
<event>
12    7  0.1546317E-007  0.1483373E+04  0.7818608E-02  0.8895586E-01
          2   -1    0    0  501    0  0.00000000000E+00  0.00000000000E+00  0.24408921482E+04  0.24408921482E+04  0.00000000000E+00 0. -1.
         -1   -1    0    0    0  501 -0.00000000000E+00 -0.00000000000E+00 -0.22536780289E+03  0.22536780289E+03  0.00000000000E+00 0.  1.
         24    2    1    2    0    0 -0.13085309329E+03  0.33983443490E+03  0.17697972442E+03  0.41292078698E+03  0.81066505407E+02 0.  0.
        254    2    1    2    0    0  0.13085309329E+03 -0.33983443490E+03  0.20385446209E+04  0.22533391641E+04  0.88840488628E+03 0.  0.
         23    2    4    4    0    0  0.49141573885E+03 -0.82488879452E+02  0.10098268255E+04  0.11296107070E+04  0.89310067871E+02 0.  0.
         23    2    4    4    0    0 -0.36056264556E+03 -0.25734555545E+03  0.10287177953E+04  0.11237284571E+04  0.90957058613E+02 0.  0.
          4    1    3    3  502    0 -0.28266637342E+02  0.55515942374E+02  0.66449778757E+02  0.91085650577E+02  0.00000000000E+00 0. -1.
         -3    1    3    3    0  502 -0.10258645595E+03  0.28431849252E+03  0.11052994566E+03  0.32183513640E+03  0.00000000000E+00 0.  1.
         13    1    5    5    0    0  0.42658943442E+03 -0.67792345034E+02  0.93222100583E+03  0.10274290006E+04  0.00000000000E+00 0.  1.
        -13    1    5    5    0    0  0.64826304430E+02 -0.14696534419E+02  0.77605819671E+02  0.10218170637E+03  0.00000000000E+00 0. -1.
          2    1    6    6  503    0 -0.14511796699E+03 -0.12294272162E+03  0.54795838635E+03  0.58002804270E+03  0.00000000000E+00 0. -1.
         -2    1    6    6    0  503 -0.21544467857E+03 -0.13440283383E+03  0.48075940899E+03  0.54370041438E+03  0.00000000000E+00 0.  1.
<mgrwt>
<rscale>  0 0.14833725E+04</rscale>
<asrwt>0</asrwt>
<pdfrwt beam="1">  1        2 0.37552185E+00 0.14833725E+04</pdfrwt>
<pdfrwt beam="2">  1       -1 0.34671971E-01 0.14833725E+04</pdfrwt>
<totfact> 0.32828484E+01</totfact>
</mgrwt>
</event>
<event>
12    7  0.1546317E-007  0.2067037E+04  0.7818608E-02  0.8575904E-01
          2   -1    0    0  501    0  0.00000000000E+00  0.00000000000E+00  0.84880106147E+03  0.84880106147E+03  0.00000000000E+00 0. -1.
         -1   -1    0    0    0  501 -0.00000000000E+00 -0.00000000000E+00 -0.12584343688E+04  0.12584343688E+04  0.00000000000E+00 0.  1.
         24    2    1    2    0    0  0.36376122134E+03 -0.59862392525E+03  0.30256854419E+03  0.76717238201E+03  0.79579581278E+02 0.  0.
        254    2    1    2    0    0 -0.36376122134E+03  0.59862392525E+03 -0.71220185150E+03  0.13400630482E+04  0.89323270537E+03 0.  0.
         23    2    4    4    0    0  0.99888441120E+02  0.63770695518E+03 -0.32868083532E+03  0.73023589030E+03  0.92550000653E+02 0.  0.
         23    2    4    4    0    0 -0.46364966246E+03 -0.39083029923E+02 -0.38352101618E+03  0.60982715794E+03  0.91116957733E+02 0.  0.
          2    1    3    3  502    0  0.23801819966E+03 -0.44400646383E+03  0.24191540414E+03  0.55885370720E+03  0.00000000000E+00 0. -1.
         -1    1    3    3    0  502  0.12574302168E+03 -0.15461746142E+03  0.60653140046E+02  0.20831867481E+03  0.00000000000E+00 0.  1.
         13    1    5    5    0    0  0.87979150275E+01  0.14947357772E+03 -0.11843444047E+03  0.19090958707E+03  0.00000000000E+00 0. -1.
        -13    1    5    5    0    0  0.91090526093E+02  0.48823337745E+03 -0.21024639485E+03  0.53932630322E+03  0.00000000000E+00 0.  1.
          4    1    6    6  503    0 -0.81812323851E+02 -0.12017876527E+02 -0.11747281369E+03  0.14365774482E+03  0.00000000000E+00 0. -1.
         -4    1    6    6    0  503 -0.38183733861E+03 -0.27065153396E+02 -0.26604820249E+03  0.46616941312E+03  0.00000000000E+00 0.  1.
<mgrwt>
<rscale>  0 0.20670369E+04</rscale>
<asrwt>0</asrwt>
<pdfrwt beam="1">  1        2 0.13058478E+00 0.20670369E+04</pdfrwt>
<pdfrwt beam="2">  1       -1 0.19360529E+00 0.20670369E+04</pdfrwt>
<totfact> 0.55891594E+00</totfact>
</mgrwt>
</event>
<event>
12    7  0.1546317E-007  0.2151024E+04  0.7818608E-02  0.8539094E-01
          2   -1    0    0  501    0  0.00000000000E+00  0.00000000000E+00  0.89733049475E+03  0.89733049475E+03  0.00000000000E+00 0. -1.
         -1   -1    0    0    0  501 -0.00000000000E+00 -0.00000000000E+00 -0.12890748927E+04  0.12890748927E+04  0.00000000000E+00 0.  1.
         24    2    1    2    0    0  0.71885562553E+03  0.11330182398E+03 -0.68673561099E+03  0.10038314037E+04  0.80504496903E+02 0.  0.
        254    2    1    2    0    0 -0.71885562553E+03 -0.11330182398E+03  0.29499121307E+03  0.11825739837E+04  0.88423452628E+03 0.  0.
         23    2    4    4    0    0 -0.57839040698E+03 -0.45372426851E+03  0.75128642110E+02  0.74428183824E+03  0.88937996084E+02 0.  0.
         23    2    4    4    0    0 -0.14046521855E+03  0.34042244453E+03  0.21986257096E+03  0.43829214546E+03  0.90236003352E+02 0.  0.
          2    1    3    3  502    0  0.97229690454E+02 -0.13293557313E+01 -0.63424190363E+02  0.11609482252E+03  0.00000000000E+00 0. -1.
         -1    1    3    3    0  502  0.62162593507E+03  0.11463117971E+03 -0.62331142062E+03  0.88773658120E+03  0.00000000000E+00 0.  1.
         13    1    5    5    0    0 -0.23718435295E+03 -0.21782490398E+03  0.69422991111E+02  0.32942929101E+03  0.00000000000E+00 0. -1.
        -13    1    5    5    0    0 -0.34120605404E+03 -0.23589936453E+03  0.57056509988E+01  0.41485254724E+03  0.00000000000E+00 0.  1.
          4    1    6    6  503    0 -0.17235088613E+02  0.11145357841E+03  0.31135185138E+02  0.11699721438E+03  0.00000000000E+00 0. -1.
         -4    1    6    6    0  503 -0.12323012993E+03  0.22896886612E+03  0.18872738582E+03  0.32129493108E+03  0.00000000000E+00 0.  1.
<mgrwt>
<rscale>  0 0.21510241E+04</rscale>
<asrwt>0</asrwt>
<pdfrwt beam="1">  1        2 0.13805085E+00 0.21510241E+04</pdfrwt>
<pdfrwt beam="2">  1       -1 0.19831921E+00 0.21510241E+04</pdfrwt>
<totfact> 0.47649002E+00</totfact>
</mgrwt>
</event>
<event>
12    7  0.1546317E-007  0.3371953E+04  0.7818608E-02  0.8144824E-01
         -1   -1    0    0    0  501 -0.00000000000E+00  0.00000000000E+00  0.11336136052E+04  0.11336136052E+04  0.00000000000E+00 0.  1.
          2   -1    0    0  501    0  0.00000000000E+00 -0.00000000000E+00 -0.25074834528E+04  0.25074834528E+04  0.00000000000E+00 0. -1.
         24    2    1    2    0    0  0.64275278010E+02  0.11585652796E+04  0.48655524334E+03  0.12608549357E+04  0.81328626087E+02 0.  0.
        254    2    1    2    0    0 -0.64275278010E+02 -0.11585652796E+04 -0.18604250909E+04  0.23802421224E+04  0.92626466177E+03 0.  0.
         23    2    4    4    0    0 -0.16323934903E+03 -0.12704381946E+04 -0.17590082289E+04  0.21779420086E+04  0.93065310524E+02 0.  0.
         23    2    4    4    0    0  0.98964071020E+02  0.11187291498E+03 -0.10141686204E+03  0.20230011380E+03  0.91271680602E+02 0.  0.
          4    1    3    3  502    0  0.13370740357E+02  0.65472510575E+02  0.11057652424E+02  0.67732547685E+02  0.00000000000E+00 0. -1.
         -3    1    3    3    0  502  0.50904537653E+02  0.10930927691E+04  0.47549759092E+03  0.11931223880E+04  0.00000000000E+00 0.  1.
         13    1    5    5    0    0 -0.99708781965E+02 -0.68797115937E+03 -0.87783764977E+03  0.11197522479E+04  0.00000000000E+00 0.  1.
        -13    1    5    5    0    0 -0.63530567066E+02 -0.58246703525E+03 -0.88117057911E+03  0.10581897607E+04  0.00000000000E+00 0. -1.
          1    1    6    6  503    0  0.97082478701E+02  0.11596161367E+03 -0.63348947322E+02  0.16396704743E+03  0.00000000000E+00 0. -1.
         -1    1    6    6    0  503  0.18815923194E+01 -0.40886986898E+01 -0.38067914722E+02  0.38333066378E+02  0.00000000000E+00 0.  1.
<mgrwt>
<rscale>  0 0.33719534E+04</rscale>
<asrwt>0</asrwt>
<pdfrwt beam="1">  1        2 0.38576668E+00 0.33719534E+04</pdfrwt>
<pdfrwt beam="2">  1       -1 0.17440210E+00 0.33719534E+04</pdfrwt>
<totfact> 0.74287022E-01</totfact>
</mgrwt>
</event>
<event>
12    7  0.1546317E-007  0.2228287E+04  0.7818608E-02  0.8506746E-01
          2   -1    0    0  501    0  0.00000000000E+00  0.00000000000E+00  0.25376759931E+04  0.25376759931E+04  0.00000000000E+00 0. -1.
         -1   -1    0    0    0  501 -0.00000000000E+00 -0.00000000000E+00 -0.48915432693E+03  0.48915432693E+03  0.00000000000E+00 0.  1.
         24    2    1    2    0    0 -0.46756391097E+02  0.91584803034E+03  0.65960215672E+03  0.11323278747E+04  0.78279217829E+02 0.  0.
        254    2    1    2    0    0  0.46756391097E+02 -0.91584803034E+03  0.13889195095E+04  0.18945024453E+04  0.90502946736E+03 0.  0.
         23    2    4    4    0    0 -0.41609996101E+03 -0.35637349719E+03  0.56292145106E+03  0.79081163911E+03  0.91439824091E+02 0.  0.
         23    2    4    4    0    0  0.46285635211E+03 -0.55947453315E+03  0.82599805842E+03  0.11036908062E+04  0.92805427211E+02 0.  0.
          2    1    3    3  502    0 -0.56779496287E+02  0.36110021198E+03  0.26246086866E+03  0.45000331317E+03  0.00000000000E+00 0. -1.
         -1    1    3    3    0  502  0.10023105190E+02  0.55474781836E+03  0.39714128806E+03  0.68232456155E+03  0.00000000000E+00 0.  1.
         13    1    5    5    0    0 -0.14289896244E+03 -0.14225232012E+03  0.26765531271E+03  0.33510476342E+03  0.00000000000E+00 0. -1.
        -13    1    5    5    0    0 -0.27320099857E+03 -0.21412117707E+03  0.29526613835E+03  0.45570687569E+03  0.00000000000E+00 0.  1.
          1    1    6    6  503    0  0.25709508055E+03 -0.27162257184E+03  0.36535551854E+03  0.52283970479E+03  0.00000000000E+00 0. -1.
         -1    1    6    6    0  503  0.20576127156E+03 -0.28785196131E+03  0.46064253987E+03  0.58085110144E+03  0.00000000000E+00 0.  1.
<mgrwt>
<rscale>  0 0.22282865E+04</rscale>
<asrwt>0</asrwt>
<pdfrwt beam="1">  1        2 0.39041168E+00 0.22282865E+04</pdfrwt>
<pdfrwt beam="2">  1       -1 0.75254514E-01 0.22282865E+04</pdfrwt>
<totfact> 0.60978382E+00</totfact>
</mgrwt>
</event>
<event>
12    7  0.1546317E-007  0.1915542E+04  0.7818608E-02  0.8647159E-01
         -1   -1    0    0    0  501 -0.00000000000E+00  0.00000000000E+00  0.95366757172E+03  0.95366757172E+03  0.00000000000E+00 0.  1.
          2   -1    0    0  501    0  0.00000000000E+00 -0.00000000000E+00 -0.96189225602E+03  0.96189225602E+03  0.00000000000E+00 0. -1.
         24    2    1    2    0    0  0.52969933022E+03 -0.25312186317E+03 -0.46434348001E+03  0.75254030344E+03  0.77781635554E+02 0.  0.
        254    2    1    2    0    0 -0.52969933022E+03  0.25312186317E+03  0.45611879570E+03  0.11630195243E+04  0.89438135047E+03 0.  0.
         23    2    4    4    0    0 -0.39542759457E+02 -0.30622308482E+03  0.13897860880E+03  0.34948793699E+03  0.86548003411E+02 0.  0.
         23    2    4    4    0    0 -0.49015657076E+03  0.55934494799E+03  0.31714018690E+03  0.81353158731E+03  0.90197065994E+02 0.  0.
          4    1    3    3  502    0  0.27792476321E+03 -0.15935946561E+03 -0.29102438344E+03  0.43281959872E+03  0.00000000000E+00 0. -1.
         -3    1    3    3    0  502  0.25177456701E+03 -0.93762397556E+02 -0.17331909657E+03  0.31972070472E+03  0.00000000000E+00 0.  1.
         13    1    5    5    0    0 -0.13315026414E+02 -0.57722442510E+01 -0.49206772674E+01  0.15323896269E+02  0.00000000000E+00 0.  1.
        -13    1    5    5    0    0 -0.26227733043E+02 -0.30045084057E+03  0.14389928607E+03  0.33416404072E+03  0.00000000000E+00 0. -1.
          3    1    6    6  503    0 -0.32147531566E+03  0.36784019922E+03  0.25412774889E+03  0.55066659922E+03  0.00000000000E+00 0. -1.
         -3    1    6    6    0  503 -0.16868125510E+03  0.19150474876E+03  0.63012438013E+02  0.26286498809E+03  0.00000000000E+00 0.  1.
<mgrwt>
<rscale>  0 0.19155422E+04</rscale>
<asrwt>0</asrwt>
<pdfrwt beam="1">  1        2 0.14798342E+00 0.19155422E+04</pdfrwt>
<pdfrwt beam="2">  1       -1 0.14671809E+00 0.19155422E+04</pdfrwt>
<totfact> 0.10537386E+01</totfact>
</mgrwt>
</event>
<event>
12    7  0.1552638E-007  0.1732630E+04  0.7818608E-02  0.8742970E-01
          2   -1    0    0  501    0  0.00000000000E+00  0.00000000000E+00  0.23185440191E+04  0.23185440191E+04  0.00000000000E+00 0. -1.
         -1   -1    0    0    0  501 -0.00000000000E+00 -0.00000000000E+00 -0.32369518063E+03  0.32369518063E+03  0.00000000000E+00 0.  1.
         24    2    1    2    0    0 -0.48808783521E+03 -0.10832988957E+03  0.14752799769E+03  0.52728199975E+03  0.79351731631E+02 0.  0.
        254    2    1    2    0    0  0.48808783521E+03  0.10832988957E+03  0.18473208408E+04  0.21149572000E+04  0.90026916480E+03 0.  0.
         23    2    4    4    0    0 -0.13364474549E+03 -0.23008798846E+02  0.11718796149E+04  0.11833603053E+04  0.93002459802E+02 0.  0.
         23    2    4    4    0    0  0.62173258070E+03  0.13133868841E+03  0.67544122585E+03  0.93159689464E+03  0.88604015426E+02 0.  0.
          2    1    3    3  502    0 -0.15474596523E+02 -0.19777946747E+02  0.11164682830E+02  0.27482366305E+02  0.00000000000E+00 0. -1.
         -1    1    3    3    0  502 -0.47261323868E+03 -0.88551942821E+02  0.13636331486E+03  0.49979963345E+03  0.00000000000E+00 0.  1.
         13    1    5    5    0    0  0.14789290136E+01  0.18638941566E+02  0.70335017356E+02  0.72777826570E+02  0.00000000000E+00 0. -1.
        -13    1    5    5    0    0 -0.13512367451E+03 -0.41647740412E+02  0.11015445975E+04  0.11105824787E+04  0.00000000000E+00 0.  1.
          2    1    6    6  503    0  0.34081346379E+02  0.20582079027E+02  0.70569586207E+02  0.81026086203E+02  0.00000000000E+00 0. -1.
         -2    1    6    6    0  503  0.58765123432E+03  0.11075660939E+03  0.60487163964E+03  0.85057080844E+03  0.00000000000E+00 0.  1.
<mgrwt>
<rscale>  0 0.17326298E+04</rscale>
<asrwt>0</asrwt>
<pdfrwt beam="1">  1        2 0.35669907E+00 0.17326298E+04</pdfrwt>
<pdfrwt beam="2">  1       -1 0.49799260E-01 0.17326298E+04</pdfrwt>
<totfact> 0.19359185E+01</totfact>
</mgrwt>
</event>
<event>
12    7  0.1546317E-007  0.1145754E+04  0.7818608E-02  0.9161709E-01
          2   -1    0    0  501    0  0.00000000000E+00  0.00000000000E+00  0.16232075109E+04  0.16232075109E+04  0.00000000000E+00 0. -1.
         -1   -1    0    0    0  501 -0.00000000000E+00 -0.00000000000E+00 -0.20218500306E+03  0.20218500306E+03  0.00000000000E+00 0.  1.
         24    2    1    2    0    0 -0.89655509075E+02  0.10955464374E+03  0.22624483051E+02  0.16377364582E+03  0.79180866122E+02 0.  0.
        254    2    1    2    0    0  0.89655509075E+02 -0.10955464374E+03  0.13983980248E+04  0.16616188681E+04  0.88623918720E+03 0.  0.
         23    2    4    4    0    0  0.30002465917E+03 -0.19049760982E+03  0.13648797216E+04  0.14133411462E+04  0.91282011321E+02 0.  0.
         23    2    4    4    0    0 -0.21036915009E+03  0.80942966076E+02  0.33518303203E+02  0.24827772197E+03  0.98546473843E+02 0.  0.
          2    1    3    3  502    0 -0.24565078816E+02  0.60853855322E+02  0.44862620098E+02  0.79493958807E+02  0.00000000000E+00 0. -1.
         -3    1    3    3    0  502 -0.65090430260E+02  0.48700788418E+02 -0.22238137047E+02  0.84279687014E+02  0.00000000000E+00 0.  1.
         13    1    5    5    0    0  0.55460486379E+02  0.20298891183E+01  0.19122395839E+03  0.19911451042E+03  0.00000000000E+00 0.  1.
        -13    1    5    5    0    0  0.24456417279E+03 -0.19252749893E+03  0.11736557632E+04  0.12142266357E+04  0.00000000000E+00 0. -1.
          4    1    6    6  503    0 -0.79566287560E+02  0.76120204650E+02 -0.94374507634E+01  0.11051762370E+03  0.00000000000E+00 0. -1.
         -4    1    6    6    0  503 -0.13080286253E+03  0.48227614263E+01  0.42955753966E+02  0.13776009826E+03  0.00000000000E+00 0.  1.
<mgrwt>
<rscale>  0 0.11457543E+04</rscale>
<asrwt>0</asrwt>
<pdfrwt beam="1">  1        2 0.24972422E+00 0.11457543E+04</pdfrwt>
<pdfrwt beam="2">  1       -1 0.31105386E-01 0.11457543E+04</pdfrwt>
<totfact> 0.11684915E+02</totfact>
</mgrwt>
</event>
<event>
12    7  0.1555069E-007  0.2583830E+04  0.7818608E-02  0.8373715E-01
         -1   -1    0    0    0  501 -0.00000000000E+00  0.00000000000E+00  0.75287605669E+03  0.75287605669E+03  0.00000000000E+00 0.  1.
          2   -1    0    0  501    0  0.00000000000E+00 -0.00000000000E+00 -0.22168916155E+04  0.22168916155E+04  0.00000000000E+00 0. -1.
         24    2    1    2    0    0 -0.73072858510E+03 -0.58099661247E+03 -0.14571842827E+04  0.17325449818E+04  0.82490916095E+02 0.  0.
        254    2    1    2    0    0  0.73072858510E+03  0.58099661247E+03 -0.68312760407E+01  0.12372226904E+04  0.81188175894E+03 0.  0.
         23    2    4    4    0    0  0.61881709423E+03  0.18436954350E+03 -0.30478325257E+03  0.72048176513E+03  0.96303780574E+02 0.  0.
         23    2    4    4    0    0  0.11191149087E+03  0.39662706897E+03  0.29795197652E+03  0.51674092526E+03  0.91698363658E+02 0.  0.
          2    1    3    3  502    0 -0.59539378547E+03 -0.48919599006E+03 -0.11456116950E+04  0.13806638375E+04  0.00000000000E+00 0. -1.
         -1    1    3    3    0  502 -0.13533479963E+03 -0.91800622410E+02 -0.31157258775E+03  0.35188114428E+03  0.00000000000E+00 0.  1.
         13    1    5    5    0    0  0.56042631601E+03  0.18591316985E+03 -0.29882168230E+03  0.66176714954E+03  0.00000000000E+00 0. -1.
        -13    1    5    5    0    0  0.58390778223E+02 -0.15436263447E+01 -0.59615702697E+01  0.58714615590E+02  0.00000000000E+00 0.  1.
          1    1    6    6  503    0  0.27099241219E+02  0.19902996943E+03  0.18848066417E+03  0.27544919381E+03  0.00000000000E+00 0. -1.
         -1    1    6    6    0  503  0.84812249652E+02  0.19759709954E+03  0.10947131236E+03  0.24129173145E+03  0.00000000000E+00 0.  1.
<mgrwt>
<rscale>  0 0.25838302E+04</rscale>
<asrwt>0</asrwt>
<pdfrwt beam="1">  1        2 0.34106025E+00 0.25838302E+04</pdfrwt>
<pdfrwt beam="2">  1       -1 0.11582709E+00 0.25838302E+04</pdfrwt>
<totfact> 0.34334734E+00</totfact>
</mgrwt>
</event>
<event>
12    7  0.1546317E-007  0.1740164E+04  0.7818608E-02  0.8738783E-01
         -1   -1    0    0    0  501 -0.00000000000E+00  0.00000000000E+00  0.86356431177E+03  0.86356431177E+03  0.00000000000E+00 0.  1.
          2   -1    0    0  501    0  0.00000000000E+00 -0.00000000000E+00 -0.87664856282E+03  0.87664856282E+03  0.00000000000E+00 0. -1.
         24    2    1    2    0    0  0.33945747829E+03  0.44396098786E+03  0.31131068557E+03  0.64494346096E+03  0.81883982462E+02 0.  0.
        254    2    1    2    0    0 -0.33945747829E+03 -0.44396098786E+03 -0.32439493661E+03  0.10952694136E+04  0.88433606465E+03 0.  0.
         23    2    4    4    0    0  0.24508136517E+03 -0.55169576730E+02  0.80058995054E+02  0.27878826967E+03  0.90580896800E+02 0.  0.
         23    2    4    4    0    0 -0.58453884345E+03 -0.38879141113E+03 -0.40445393166E+03  0.81648114396E+03  0.10106460674E+03 0.  0.
          2    1    3    3  502    0  0.12579742025E+03  0.10918908865E+03  0.73746697426E+02  0.18216976534E+03  0.00000000000E+00 0. -1.
         -1    1    3    3    0  502  0.21366005803E+03  0.33477189921E+03  0.23756398814E+03  0.46277369562E+03  0.00000000000E+00 0.  1.
         13    1    5    5    0    0  0.10342535278E+03  0.16588948544E+02  0.54075360490E+02  0.11788189608E+03  0.00000000000E+00 0. -1.
        -13    1    5    5    0    0  0.14165601239E+03 -0.71758525274E+02  0.25983634564E+02  0.16090637359E+03  0.00000000000E+00 0.  1.
          3    1    6    6  503    0 -0.37712488853E+03 -0.29613135317E+03 -0.24127408414E+03  0.53677755501E+03  0.00000000000E+00 0. -1.
         -3    1    6    6    0  503 -0.20741395493E+03 -0.92660057955E+02 -0.16317984752E+03  0.27970358896E+03  0.00000000000E+00 0.  1.
<mgrwt>
<rscale>  0 0.17401637E+04</rscale>
<asrwt>0</asrwt>
<pdfrwt beam="1">  1        2 0.13486901E+00 0.17401637E+04</pdfrwt>
<pdfrwt beam="2">  1       -1 0.13285605E+00 0.17401637E+04</pdfrwt>
<totfact> 0.15805202E+01</totfact>
</mgrwt>
</event>
<event>
12    7  0.1546317E-007  0.2105436E+04  0.7818608E-02  0.8558852E-01
          2   -1    0    0  501    0  0.00000000000E+00  0.00000000000E+00  0.24321926125E+04  0.24321926125E+04  0.00000000000E+00 0. -1.
         -1   -1    0    0    0  501 -0.00000000000E+00 -0.00000000000E+00 -0.45564460351E+03  0.45564460351E+03  0.00000000000E+00 0.  1.
         24    2    1    2    0    0 -0.85484996080E+03  0.57078459791E-02  0.73393569992E+03  0.11295678063E+04  0.80581399810E+02 0.  0.
        254    2    1    2    0    0  0.85484996080E+03 -0.57078459791E-02  0.12426123091E+04  0.17582694097E+04  0.90369104831E+03 0.  0.
         23    2    4    4    0    0  0.26814648735E+03 -0.14759887101E+03 -0.54826823334E+02  0.32389508388E+03  0.90631558545E+02 0.  0.
         23    2    4    4    0    0  0.58670347345E+03  0.14759316316E+03  0.12974391324E+04  0.14343743258E+04  0.89870443371E+02 0.  0.
          4    1    3    3  502    0 -0.25567021737E+03  0.96847071168E+01  0.26768309017E+03  0.37029081864E+03  0.00000000000E+00 0. -1.
         -3    1    3    3    0  502 -0.59917974343E+03 -0.96789992708E+01  0.46625260975E+03  0.75927698771E+03  0.00000000000E+00 0.  1.
         13    1    5    5    0    0  0.23174768353E+03 -0.88407956559E+02 -0.56484352354E+02  0.25438835992E+03  0.00000000000E+00 0.  1.
        -13    1    5    5    0    0  0.36398803824E+02 -0.59190914449E+02  0.16575290199E+01  0.69506723959E+02  0.00000000000E+00 0. -1.
          3    1    6    6  503    0  0.20854786169E+03  0.97233899826E+02  0.48168199365E+03  0.53382036764E+03  0.00000000000E+00 0. -1.
         -3    1    6    6    0  503  0.37815561176E+03  0.50359263336E+02  0.81575713877E+03  0.90055395816E+03  0.00000000000E+00 0.  1.
<mgrwt>
<rscale>  0 0.21054362E+04</rscale>
<asrwt>0</asrwt>
<pdfrwt beam="1">  1        2 0.37418347E+00 0.21054362E+04</pdfrwt>
<pdfrwt beam="2">  1       -1 0.70099171E-01 0.21054362E+04</pdfrwt>
<totfact> 0.82184950E+00</totfact>
</mgrwt>
</event>
<event>
12    7  0.1546317E-007  0.1721939E+04  0.7818608E-02  0.8748950E-01
         -1   -1    0    0    0  501 -0.00000000000E+00  0.00000000000E+00  0.16400243048E+03  0.16400243048E+03  0.00000000000E+00 0.  1.
          2   -1    0    0  501    0  0.00000000000E+00 -0.00000000000E+00 -0.45198606148E+04  0.45198606148E+04  0.00000000000E+00 0. -1.
         24    2    1    2    0    0 -0.31455295064E+03  0.52919537009E+03 -0.18404726653E+04  0.19424611177E+04  0.82609100276E+02 0.  0.
        254    2    1    2    0    0  0.31455295064E+03 -0.52919537009E+03 -0.25153855190E+04  0.27414019276E+04  0.89951593700E+03 0.  0.
         23    2    4    4    0    0 -0.57058460900E+02  0.45842150687E+02 -0.15511896684E+04  0.15555656808E+04  0.90763589658E+02 0.  0.
         23    2    4    4    0    0  0.37161141154E+03 -0.57503752078E+03 -0.96419585058E+03  0.11858362468E+04  0.88151995918E+02 0.  0.
          4    1    3    3  502    0 -0.16537644566E+03  0.32247563660E+03 -0.97275083144E+03  0.10380674762E+04  0.00000000000E+00 0. -1.
         -3    1    3    3    0  502 -0.14917650498E+03  0.20671973349E+03 -0.86772183389E+03  0.90439364154E+03  0.00000000000E+00 0.  1.
         13    1    5    5    0    0  0.50517736818E+01 -0.23031837616E+02 -0.27356788986E+03  0.27458218501E+03  0.00000000000E+00 0.  1.
        -13    1    5    5    0    0 -0.62110234582E+02  0.68873988304E+02 -0.12776217785E+04  0.12809834958E+04  0.00000000000E+00 0. -1.
          4    1    6    6  503    0  0.30318480172E+03 -0.51920422835E+03 -0.82136185336E+03  0.10179043908E+04  0.00000000000E+00 0. -1.
         -4    1    6    6    0  503  0.68426609814E+02 -0.55833292428E+02 -0.14283399722E+03  0.16793185593E+03  0.00000000000E+00 0.  1.
<mgrwt>
<rscale>  0 0.17219386E+04</rscale>
<asrwt>0</asrwt>
<pdfrwt beam="1">  1        2 0.69536332E+00 0.17219386E+04</pdfrwt>
<pdfrwt beam="2">  1       -1 0.25231138E-01 0.17219386E+04</pdfrwt>
<totfact> 0.18006210E+00</totfact>
</mgrwt>
</event>
<event>
12    7  0.1546317E-007  0.2041439E+04  0.7818608E-02  0.8587488E-01
         -1   -1    0    0    0  501 -0.00000000000E+00  0.00000000000E+00  0.12170207062E+04  0.12170207062E+04  0.00000000000E+00 0.  1.
          2   -1    0    0  501    0  0.00000000000E+00 -0.00000000000E+00 -0.85608094342E+03  0.85608094342E+03  0.00000000000E+00 0. -1.
         24    2    1    2    0    0  0.34093298778E+03  0.22159439904E+03  0.86404648957E+03  0.95824350332E+03  0.79466317900E+02 0.  0.
        254    2    1    2    0    0 -0.34093298778E+03 -0.22159439904E+03 -0.50310672676E+03  0.11148581463E+04  0.90799390312E+03 0.  0.
         23    2    4    4    0    0  0.27458332539E+03 -0.23445975195E+03 -0.20705951710E+03  0.42562081188E+03  0.88949727482E+02 0.  0.
         23    2    4    4    0    0 -0.61551631317E+03  0.12865352905E+02 -0.29604720966E+03  0.68923733446E+03  0.91533074803E+02 0.  0.
          2    1    3    3  502    0  0.27444528474E+02  0.60176010073E+01  0.11157275436E+03  0.11505604365E+03  0.00000000000E+00 0. -1.
         -1    1    3    3    0  502  0.31348845931E+03  0.21557679803E+03  0.75247373521E+03  0.84318745967E+03  0.00000000000E+00 0.  1.
         13    1    5    5    0    0  0.16923196855E+03 -0.19163323903E+03 -0.16543828802E+03  0.30452025322E+03  0.00000000000E+00 0.  1.
        -13    1    5    5    0    0  0.10535135684E+03 -0.42826512917E+02 -0.41621229079E+02  0.12110055866E+03  0.00000000000E+00 0. -1.
          1    1    6    6  503    0 -0.42999524887E+02 -0.23009017399E+02 -0.22162946886E+02  0.53568369742E+02  0.00000000000E+00 0. -1.
         -1    1    6    6    0  503 -0.57251678828E+03  0.35874370304E+02 -0.27388426277E+03  0.63566896472E+03  0.00000000000E+00 0.  1.
<mgrwt>
<rscale>  0 0.20414389E+04</rscale>
<asrwt>0</asrwt>
<pdfrwt beam="1">  1        2 0.13170476E+00 0.20414389E+04</pdfrwt>
<pdfrwt beam="2">  1       -1 0.18723396E+00 0.20414389E+04</pdfrwt>
<totfact> 0.61367374E+00</totfact>
</mgrwt>
</event>
<event>
12    7  0.1546317E-007  0.2633285E+04  0.7818608E-02  0.8356982E-01
         -1   -1    0    0    0  501 -0.00000000000E+00  0.00000000000E+00  0.98935491916E+03  0.98935491916E+03  0.00000000000E+00 0.  1.
          2   -1    0    0  501    0  0.00000000000E+00 -0.00000000000E+00 -0.17521999558E+04  0.17521999558E+04  0.00000000000E+00 0. -1.
         24    2    1    2    0    0  0.11134803531E+04  0.38446020329E+03 -0.44158518837E+03  0.12606307094E+04  0.80895996391E+02 0.  0.
        254    2    1    2    0    0 -0.11134803531E+04 -0.38446020329E+03 -0.32125984824E+03  0.14809241655E+04  0.83802168786E+03 0.  0.
         23    2    4    4    0    0 -0.44095357722E+03 -0.52000028287E+03 -0.38088266032E+03  0.78630412521E+03  0.91445201791E+02 0.  0.
         23    2    4    4    0    0 -0.67252677587E+03  0.13554007959E+03  0.59622812080E+02  0.69462004033E+03  0.90987599488E+02 0.  0.
          4    1    3    3  502    0  0.79141660897E+03  0.25075364556E+03 -0.34290892785E+03  0.89822278557E+03  0.00000000000E+00 0. -1.
         -3    1    3    3    0  502  0.32206374413E+03  0.13370655773E+03 -0.98676260520E+02  0.36240792382E+03  0.00000000000E+00 0.  1.
         13    1    5    5    0    0 -0.39931751219E+03 -0.44896290341E+03 -0.30283792222E+03  0.67285434628E+03  0.00000000000E+00 0. -1.
        -13    1    5    5    0    0 -0.41636065035E+02 -0.71037379463E+02 -0.78044738099E+02  0.11344977892E+03  0.00000000000E+00 0.  1.
          1    1    6    6  503    0 -0.55522174801E+03  0.11815257646E+03  0.83180404308E+02  0.57371613228E+03  0.00000000000E+00 0. -1.
         -1    1    6    6    0  503 -0.11730502787E+03  0.17387503128E+02 -0.23557592228E+02  0.12090390804E+03  0.00000000000E+00 0.  1.
<mgrwt>
<rscale>  0 0.26332851E+04</rscale>
<asrwt>0</asrwt>
<pdfrwt beam="1">  1        2 0.26956923E+00 0.26332851E+04</pdfrwt>
<pdfrwt beam="2">  1       -1 0.15220845E+00 0.26332851E+04</pdfrwt>
<totfact> 0.30889159E+00</totfact>
</mgrwt>
</event>
<event>
12    7  0.1546317E-007  0.1478053E+04  0.7818608E-02  0.8899180E-01
          2   -1    0    0  501    0  0.00000000000E+00  0.00000000000E+00  0.59022917650E+03  0.59022917650E+03  0.00000000000E+00 0. -1.
         -1   -1    0    0    0  501 -0.00000000000E+00 -0.00000000000E+00 -0.92533573753E+03  0.92533573753E+03  0.00000000000E+00 0.  1.
         24    2    1    2    0    0  0.23351791337E+03  0.38661824965E+03 -0.18151390574E+03  0.49285780087E+03  0.77183075073E+02 0.  0.
        254    2    1    2    0    0 -0.23351791337E+03 -0.38661824965E+03 -0.15359265529E+03  0.10227071132E+04  0.90461862060E+03 0.  0.
         23    2    4    4    0    0 -0.36453186290E+03 -0.14625938725E+03  0.28774477334E+03  0.49550075175E+03  0.91916554401E+02 0.  0.
         23    2    4    4    0    0  0.13101394953E+03 -0.24035886240E+03 -0.44133742864E+03  0.52720636141E+03  0.90723667771E+02 0.  0.
          2    1    3    3  502    0  0.10173628195E+02  0.35082858943E+02  0.43416944610E+01  0.36785323337E+02  0.00000000000E+00 0. -1.
         -1    1    3    3    0  502  0.22334428517E+03  0.35153539071E+03 -0.18585560020E+03  0.45607247754E+03  0.00000000000E+00 0.  1.
         13    1    5    5    0    0  0.38159830119E+01  0.38135139084E+00  0.11935748094E+02  0.12536715591E+02  0.00000000000E+00 0. -1.
        -13    1    5    5    0    0 -0.36834784591E+03 -0.14664073865E+03  0.27580902525E+03  0.48296403616E+03  0.00000000000E+00 0.  1.
          2    1    6    6  503    0  0.73234586756E+01 -0.87919908617E+01 -0.78624799266E+02  0.79453075522E+02  0.00000000000E+00 0. -1.
         -2    1    6    6    0  503  0.12369049086E+03 -0.23156687154E+03 -0.36271262937E+03  0.44775328589E+03  0.00000000000E+00 0.  1.
<mgrwt>
<rscale>  0 0.14780530E+04</rscale>
<asrwt>0</asrwt>
<pdfrwt beam="1">  1        2 0.90804489E-01 0.14780530E+04</pdfrwt>
<pdfrwt beam="2">  1       -1 0.14235934E+00 0.14780530E+04</pdfrwt>
<totfact> 0.22447213E+01</totfact>
</mgrwt>
</event>
<event>
12    7  0.1546317E-007  0.2437841E+04  0.7818608E-02  0.8425471E-01
         -1   -1    0    0    0  501 -0.00000000000E+00  0.00000000000E+00  0.26459224769E+04  0.26459224769E+04  0.00000000000E+00 0.  1.
          2   -1    0    0  501    0  0.00000000000E+00 -0.00000000000E+00 -0.56153104991E+03  0.56153104991E+03  0.00000000000E+00 0. -1.
         24    2    1    2    0    0  0.72150061195E+03  0.26765780666E+03  0.18384924239E+04  0.19944670676E+04  0.75104304341E+02 0.  0.
        254    2    1    2    0    0 -0.72150061195E+03 -0.26765780666E+03  0.24589900305E+03  0.12129864592E+04  0.90480163347E+03 0.  0.
         23    2    4    4    0    0 -0.41375502642E+03 -0.37614029965E+03  0.52627063778E+03  0.77329673827E+03  0.91390997010E+02 0.  0.
         23    2    4    4    0    0 -0.30774558553E+03  0.10848249299E+03 -0.28037163473E+03  0.43968972090E+03  0.90790970971E+02 0.  0.
          2    1    3    3  502    0  0.10784915952E+02 -0.71798458206E+00  0.11308323114E+02  0.15643148200E+02  0.00000000000E+00 0. -1.
         -1    1    3    3    0  502  0.71071569599E+03  0.26837579124E+03  0.18271841008E+04  0.19788239194E+04  0.00000000000E+00 0.  1.
         13    1    5    5    0    0 -0.57138669417E+02 -0.15124523923E+02  0.57514919853E+02  0.82471478539E+02  0.00000000000E+00 0. -1.
        -13    1    5    5    0    0 -0.35661635700E+03 -0.36101577572E+03  0.46875571793E+03  0.69082525974E+03  0.00000000000E+00 0.  1.
          4    1    6    6  503    0 -0.80446219784E+00  0.18868565579E+02 -0.13771734600E+02  0.23373716015E+02  0.00000000000E+00 0. -1.
         -4    1    6    6    0  503 -0.30694112333E+03  0.89613927406E+02 -0.26659990013E+03  0.41631600489E+03  0.00000000000E+00 0.  1.
<mgrwt>
<rscale>  0 0.24378414E+04</rscale>
<asrwt>0</asrwt>
<pdfrwt beam="1">  1        2 0.86389394E-01 0.24378414E+04</pdfrwt>
<pdfrwt beam="2">  1       -1 0.40706499E+00 0.24378414E+04</pdfrwt>
<totfact> 0.35168425E-01</totfact>
</mgrwt>
</event>
<event>
12    7  0.1546317E-007  0.2292429E+04  0.7818608E-02  0.8480912E-01
          2   -1    0    0  501    0  0.00000000000E+00  0.00000000000E+00  0.13057397469E+04  0.13057397469E+04  0.00000000000E+00 0. -1.
         -1   -1    0    0    0  501 -0.00000000000E+00 -0.00000000000E+00 -0.10061787243E+04  0.10061787243E+04  0.00000000000E+00 0.  1.
         24    2    1    2    0    0 -0.30789573467E+02 -0.33572301813E+03  0.10496183872E+04  0.11052316986E+04  0.78615559094E+02 0.  0.
        254    2    1    2    0    0  0.30789573467E+02  0.33572301813E+03 -0.75005736451E+03  0.12066867726E+04  0.88309058105E+03 0.  0.
         23    2    4    4    0    0  0.92558221358E+02  0.48147566198E+03 -0.71224663812E+02  0.50369723470E+03  0.90841147553E+02 0.  0.
         23    2    4    4    0    0 -0.61768647891E+02 -0.14575264385E+03 -0.67883270070E+03  0.70298953789E+03  0.91220917488E+02 0.  0.
          4    1    3    3  502    0 -0.34482951606E+02 -0.18910446004E+03  0.70424393689E+03  0.73000622833E+03  0.00000000000E+00 0. -1.
         -3    1    3    3    0  502  0.36933781385E+01 -0.14661855809E+03  0.34537445028E+03  0.37522547025E+03  0.00000000000E+00 0.  1.
         13    1    5    5    0    0  0.65042560390E+02  0.20018190498E+03 -0.67480630920E+02  0.22103611762E+03  0.00000000000E+00 0. -1.
        -13    1    5    5    0    0  0.27515660968E+02  0.28129375700E+03 -0.37440328916E+01  0.28266111708E+03  0.00000000000E+00 0.  1.
          1    1    6    6  503    0 -0.43338429327E+02 -0.12341235466E+03 -0.36327529530E+03  0.38610590375E+03  0.00000000000E+00 0. -1.
         -1    1    6    6    0  503 -0.18430218564E+02 -0.22340289188E+02 -0.31555740540E+03  0.31688363414E+03  0.00000000000E+00 0.  1.
<mgrwt>
<rscale>  0 0.22924289E+04</rscale>
<asrwt>0</asrwt>
<pdfrwt beam="1">  1        2 0.20088304E+00 0.22924289E+04</pdfrwt>
<pdfrwt beam="2">  1       -1 0.15479673E+00 0.22924289E+04</pdfrwt>
<totfact> 0.54320875E+00</totfact>
</mgrwt>
</event>
<event>
12    7  0.1546317E-007  0.1646659E+04  0.7818608E-02  0.8792385E-01
          2   -1    0    0  501    0  0.00000000000E+00  0.00000000000E+00  0.11096281710E+04  0.11096281710E+04  0.00000000000E+00 0. -1.
         -1   -1    0    0    0  501 -0.00000000000E+00 -0.00000000000E+00 -0.61089973084E+03  0.61089973084E+03  0.00000000000E+00 0.  1.
         24    2    1    2    0    0 -0.30435907011E+03 -0.16971564025E+03  0.65130347657E+03  0.74298573590E+03  0.79960884464E+02 0.  0.
        254    2    1    2    0    0  0.30435907011E+03  0.16971564025E+03 -0.15257503637E+03  0.97754216597E+03  0.90048414890E+03 0.  0.
         23    2    4    4    0    0  0.38447136828E+02  0.24275296658E+03  0.32584694177E+03  0.41800583311E+03  0.90252212949E+02 0.  0.
         23    2    4    4    0    0  0.26591193328E+03 -0.73037326328E+02 -0.47842197814E+03  0.55953633286E+03  0.90275751607E+02 0.  0.
          2    1    3    3  502    0 -0.14842738359E+03 -0.95418099944E+02  0.24912374273E+03  0.30528337850E+03  0.00000000000E+00 0. -1.
         -1    1    3    3    0  502 -0.15593168652E+03 -0.74297540310E+02  0.40217973384E+03  0.43770235740E+03  0.00000000000E+00 0.  1.
         13    1    5    5    0    0  0.33288824592E+02  0.24659697516E+03  0.29240920942E+03  0.38395489287E+03  0.00000000000E+00 0.  1.
        -13    1    5    5    0    0  0.51583122356E+01 -0.38440085819E+01  0.33437732346E+02  0.34050940244E+02  0.00000000000E+00 0. -1.
          4    1    6    6  503    0  0.10595434437E+02 -0.17241387483E+02 -0.87445334482E+01  0.22045306495E+02  0.00000000000E+00 0. -1.
         -4    1    6    6    0  503  0.25531649885E+03 -0.55795938844E+02 -0.46967744469E+03  0.53749102637E+03  0.00000000000E+00 0.  1.
<mgrwt>
<rscale>  0 0.16466591E+04</rscale>
<asrwt>0</asrwt>
<pdfrwt beam="1">  1        2 0.17071203E+00 0.16466591E+04</pdfrwt>
<pdfrwt beam="2">  1       -1 0.93984574E-01 0.16466591E+04</pdfrwt>
<totfact> 0.25694067E+01</totfact>
</mgrwt>
</event>
<event>
12    7  0.1546317E-007  0.1366573E+04  0.7818608E-02  0.8978376E-01
          2   -1    0    0  501    0  0.00000000000E+00  0.00000000000E+00  0.40191905141E+03  0.40191905141E+03  0.00000000000E+00 0. -1.
         -1   -1    0    0    0  501 -0.00000000000E+00 -0.00000000000E+00 -0.11616286212E+04  0.11616286212E+04  0.00000000000E+00 0.  1.
         24    2    1    2    0    0 -0.90478023985E+02  0.30381723308E+03 -0.46667501760E+03  0.56981105465E+03  0.80049247393E+02 0.  0.
        254    2    1    2    0    0  0.90478023985E+02 -0.30381723308E+03 -0.29303455217E+03  0.99373661794E+03  0.89507096542E+03 0.  0.
         23    2    4    4    0    0 -0.21283791967E+03 -0.41274931226E+03  0.93387824098E+02  0.48232199314E+03  0.90836361426E+02 0.  0.
         23    2    4    4    0    0  0.30331594366E+03  0.10893207918E+03 -0.38642237626E+03  0.51141462480E+03  0.91410645066E+02 0.  0.
          4    1    3    3  502    0 -0.14248244703E+02  0.33344936462E+02 -0.18206539729E+02  0.40575551182E+02  0.00000000000E+00 0. -1.
         -3    1    3    3    0  502 -0.76229779282E+02  0.27047229662E+03 -0.44846847787E+03  0.52923550347E+03  0.00000000000E+00 0.  1.
         13    1    5    5    0    0 -0.19055529529E+03 -0.31311895997E+03  0.44846041611E+02  0.36927763418E+03  0.00000000000E+00 0. -1.
        -13    1    5    5    0    0 -0.22282624385E+02 -0.99630352289E+02  0.48541782487E+02  0.11304435896E+03  0.00000000000E+00 0.  1.
          4    1    6    6  503    0  0.25081904620E+03  0.57056044961E+02 -0.26492273366E+03  0.36925552266E+03  0.00000000000E+00 0. -1.
         -4    1    6    6    0  503  0.52496897452E+02  0.51876034219E+02 -0.12149964260E+03  0.14215910214E+03  0.00000000000E+00 0.  1.
<mgrwt>
<rscale>  0 0.13665733E+04</rscale>
<asrwt>0</asrwt>
<pdfrwt beam="1">  1        2 0.61833700E-01 0.13665733E+04</pdfrwt>
<pdfrwt beam="2">  1       -1 0.17871210E+00 0.13665733E+04</pdfrwt>
<totfact> 0.18770145E+01</totfact>
</mgrwt>
</event>
<event>
12    7  0.1546317E-007  0.1810341E+04  0.7818608E-02  0.8700819E-01
          2   -1    0    0  501    0  0.00000000000E+00  0.00000000000E+00  0.51880769180E+03  0.51880769180E+03  0.00000000000E+00 0. -1.
         -1   -1    0    0    0  501 -0.00000000000E+00 -0.00000000000E+00 -0.15792632024E+04  0.15792632024E+04  0.00000000000E+00 0.  1.
         24    2    1    2    0    0  0.23722135873E+03  0.52441839338E+03 -0.81342956736E+03  0.99969307716E+03  0.80187050846E+02 0.  0.
        254    2    1    2    0    0 -0.23722135873E+03 -0.52441839338E+03 -0.24702594327E+03  0.10983778171E+04  0.90228786319E+03 0.  0.
         23    2    4    4    0    0 -0.10402812456E+03  0.96797279061E+02 -0.40389125488E+03  0.43763301874E+03  0.90570135195E+02 0.  0.
         23    2    4    4    0    0 -0.13319323417E+03 -0.62121567244E+03  0.15686531161E+03  0.66074479834E+03  0.91255757300E+02 0.  0.
          4    1    3    3  502    0  0.55326814884E+02  0.76620693441E+02 -0.96622191445E+02  0.13515781512E+03  0.00000000000E+00 0. -1.
         -3    1    3    3    0  502  0.18189454384E+03  0.44779769993E+03 -0.71680737592E+03  0.86453526204E+03  0.00000000000E+00 0.  1.
         13    1    5    5    0    0 -0.92588337274E+02  0.11451774256E+03 -0.34690995428E+03  0.37687322794E+03  0.00000000000E+00 0.  1.
        -13    1    5    5    0    0 -0.11439787281E+02 -0.17720463499E+02 -0.56981300603E+02  0.60759790800E+02  0.00000000000E+00 0. -1.
          4    1    6    6  503    0 -0.44809262120E+02 -0.68019996570E+02  0.25295086321E+02  0.85290276686E+02  0.00000000000E+00 0. -1.
         -4    1    6    6    0  503 -0.88383972051E+02 -0.55319567587E+03  0.13157022529E+03  0.57545452166E+03  0.00000000000E+00 0.  1.
<mgrwt>
<rscale>  0 0.18103413E+04</rscale>
<asrwt>0</asrwt>
<pdfrwt beam="1">  1        2 0.79816568E-01 0.18103413E+04</pdfrwt>
<pdfrwt beam="2">  1       -1 0.24296357E+00 0.18103413E+04</pdfrwt>
<totfact> 0.49280519E+00</totfact>
</mgrwt>
</event>
<event>
12    7  0.1546317E-007  0.1402980E+04  0.7818608E-02  0.8951665E-01
          2   -1    0    0  501    0  0.00000000000E+00  0.00000000000E+00  0.20435572067E+04  0.20435572067E+04  0.00000000000E+00 0. -1.
         -1   -1    0    0    0  501 -0.00000000000E+00 -0.00000000000E+00 -0.24079969463E+03  0.24079969463E+03  0.00000000000E+00 0.  1.
         24    2    1    2    0    0 -0.23342361661E+03 -0.33578310529E+03  0.52209688002E+03  0.66811070366E+03  0.80931339007E+02 0.  0.
        254    2    1    2    0    0  0.23342361661E+03  0.33578310529E+03  0.12806606321E+04  0.16162461977E+04  0.89717514367E+03 0.  0.
         23    2    4    4    0    0  0.66570131492E+02  0.43375594055E+02 -0.12123553584E+03  0.17154944952E+03  0.91750389168E+02 0.  0.
         23    2    4    4    0    0  0.16685348512E+03  0.29240751123E+03  0.14018961679E+04  0.14446967482E+04  0.92160677284E+02 0.  0.
          2    1    3    3  502    0 -0.20318045875E+03 -0.27830157691E+03  0.47937459509E+03  0.59036774044E+03  0.00000000000E+00 0. -1.
         -1    1    3    3    0  502 -0.30243157855E+02 -0.57481528376E+02  0.42722284933E+02  0.77742963228E+02  0.00000000000E+00 0.  1.
         13    1    5    5    0    0  0.21114674189E+02 -0.28655877675E+02 -0.28187367362E+02  0.45403925714E+02  0.00000000000E+00 0. -1.
        -13    1    5    5    0    0  0.45455457303E+02  0.72031471730E+02 -0.93048168481E+02  0.12614552380E+03  0.00000000000E+00 0.  1.
          3    1    6    6  503    0  0.15416498039E+02 -0.39489364455E+01  0.78321954941E+02  0.79922406975E+02  0.00000000000E+00 0. -1.
         -3    1    6    6    0  503  0.15143698708E+03  0.29635644768E+03  0.13235742130E+04  0.13647743412E+04  0.00000000000E+00 0.  1.
<mgrwt>
<rscale>  0 0.14029796E+04</rscale>
<asrwt>0</asrwt>
<pdfrwt beam="1">  1        2 0.31439340E+00 0.14029796E+04</pdfrwt>
<pdfrwt beam="2">  1       -1 0.37046108E-01 0.14029796E+04</pdfrwt>
<totfact> 0.49091783E+01</totfact>
</mgrwt>
</event>
<event>
12    7  0.1546317E-007  0.1582369E+04  0.7818608E-02  0.8831453E-01
         -1   -1    0    0    0  501 -0.00000000000E+00  0.00000000000E+00  0.11045684175E+04  0.11045684175E+04  0.00000000000E+00 0.  1.
          2   -1    0    0  501    0  0.00000000000E+00 -0.00000000000E+00 -0.56671233328E+03  0.56671233328E+03  0.00000000000E+00 0. -1.
         24    2    1    2    0    0 -0.13369665014E+03 -0.53076110152E+02  0.73481261466E+03  0.75372526562E+03  0.86373199774E+02 0.  0.
        254    2    1    2    0    0  0.13369665014E+03  0.53076110152E+02 -0.19695653041E+03  0.91755548519E+03  0.88454752603E+03 0.  0.
         23    2    4    4    0    0  0.10105761674E+03  0.86637165596E+02  0.33744963138E+03  0.37365871603E+03  0.89609943549E+02 0.  0.
         23    2    4    4    0    0  0.32639033395E+02 -0.33561055444E+02 -0.53440616179E+03  0.54389676917E+03  0.89677749785E+02 0.  0.
          2    1    3    3  502    0 -0.16405354890E+02 -0.20498003536E+01  0.30086629445E+03  0.30132020258E+03  0.00000000000E+00 0. -1.
         -1    1    3    3    0  502 -0.11729129525E+03 -0.51026309798E+02  0.43394632022E+03  0.45240506304E+03  0.00000000000E+00 0.  1.
         13    1    5    5    0    0  0.13566503257E+02  0.21876916544E+02  0.84088991775E+01  0.27080603270E+02  0.00000000000E+00 0. -1.
        -13    1    5    5    0    0  0.87491113484E+02  0.64760249052E+02  0.32904073220E+03  0.34657811276E+03  0.00000000000E+00 0.  1.
          1    1    6    6  503    0 -0.15030030062E+02  0.16504764115E+02 -0.25849795627E+03  0.25946002089E+03  0.00000000000E+00 0. -1.
         -1    1    6    6    0  503  0.47669063457E+02 -0.50065819559E+02 -0.27590820552E+03  0.28443674828E+03  0.00000000000E+00 0.  1.
<mgrwt>
<rscale>  0 0.15823685E+04</rscale>
<asrwt>0</asrwt>
<pdfrwt beam="1">  1        2 0.87186513E-01 0.15823685E+04</pdfrwt>
<pdfrwt beam="2">  1       -1 0.16993360E+00 0.15823685E+04</pdfrwt>
<totfact> 0.14358522E+01</totfact>
</mgrwt>
</event>
<event>
12    7  0.1546317E-007  0.1464227E+04  0.7818608E-02  0.8908596E-01
          2   -1    0    0  501    0  0.00000000000E+00  0.00000000000E+00  0.13990497279E+04  0.13990497279E+04  0.00000000000E+00 0. -1.
         -1   -1    0    0    0  501 -0.00000000000E+00 -0.00000000000E+00 -0.38311029598E+03  0.38311029598E+03  0.00000000000E+00 0.  1.
         24    2    1    2    0    0 -0.38098998345E+03 -0.16650152474E+03  0.13248910726E+03  0.44757848242E+03  0.99483712989E+02 0.  0.
        254    2    1    2    0    0  0.38098998345E+03  0.16650152474E+03  0.88345032462E+03  0.13345815414E+04  0.90980618232E+03 0.  0.
         23    2    4    4    0    0 -0.17500095535E+03 -0.23231867967E+03  0.33644983924E+03  0.45371634242E+03  0.89792659789E+02 0.  0.
         23    2    4    4    0    0  0.55599093880E+03  0.39882020441E+03  0.54700048538E+03  0.88086519900E+03  0.92360642713E+02 0.  0.
          4    1    3    3  502    0 -0.13823602267E+02 -0.53024335092E+01  0.30368118688E+02  0.33785061986E+02  0.00000000000E+00 0. -1.
         -3    1    3    3    0  502 -0.36716638118E+03 -0.16119909123E+03  0.10212098857E+03  0.41379342043E+03  0.00000000000E+00 0.  1.
         13    1    5    5    0    0 -0.12847730543E+02 -0.26521294440E+01 -0.24893062262E+01  0.13352700707E+02  0.00000000000E+00 0.  1.
        -13    1    5    5    0    0 -0.16215322481E+03 -0.22966655023E+03  0.33893914547E+03  0.44036364171E+03  0.00000000000E+00 0. -1.
          4    1    6    6  503    0  0.47409021578E+03  0.36743855665E+03  0.50266878220E+03  0.78259090859E+03  0.00000000000E+00 0. -1.
         -4    1    6    6    0  503  0.81900723028E+02  0.31381647757E+02  0.44331703183E+02  0.98274290410E+02  0.00000000000E+00 0.  1.
<mgrwt>
<rscale>  0 0.14642272E+04</rscale>
<asrwt>0</asrwt>
<pdfrwt beam="1">  1        2 0.21523842E+00 0.14642272E+04</pdfrwt>
<pdfrwt beam="2">  1       -1 0.58940046E-01 0.14642272E+04</pdfrwt>
<totfact> 0.46671059E+01</totfact>
</mgrwt>
</event>
<event>
12    7  0.1546317E-007  0.2798992E+04  0.7818608E-02  0.8303581E-01
          2   -1    0    0  501    0  0.00000000000E+00  0.00000000000E+00  0.16798025699E+04  0.16798025699E+04  0.00000000000E+00 0. -1.
         -1   -1    0    0    0  501 -0.00000000000E+00 -0.00000000000E+00 -0.11659635603E+04  0.11659635603E+04  0.00000000000E+00 0.  1.
         24    2    1    2    0    0  0.10156587400E+04  0.73035311907E+03  0.27100812877E+03  0.12824990275E+04  0.79874870997E+02 0.  0.
        254    2    1    2    0    0 -0.10156587400E+04 -0.73035311907E+03  0.24283088087E+03  0.15632671027E+04  0.90546056947E+03 0.  0.
         23    2    4    4    0    0 -0.42762703607E+03  0.14455342815E+03  0.20918220959E+03  0.50499593393E+03  0.86620557080E+02 0.  0.
         23    2    4    4    0    0 -0.58803170397E+03 -0.87490654721E+03  0.33648671279E+02  0.10582711687E+04  0.86964833688E+02 0.  0.
          2    1    3    3  502    0  0.93132619614E+03  0.68567754782E+03  0.23286610920E+03  0.11797240389E+04  0.00000000000E+00 0. -1.
         -1    1    3    3    0  502  0.84332543907E+02  0.44675571247E+02  0.38142019572E+02  0.10277498862E+03  0.00000000000E+00 0.  1.
         13    1    5    5    0    0 -0.24201520687E+03  0.97302462045E+02  0.16430180421E+03  0.30827619490E+03  0.00000000000E+00 0. -1.
        -13    1    5    5    0    0 -0.18561182920E+03  0.47250966100E+02  0.44880405386E+02  0.19671973903E+03  0.00000000000E+00 0.  1.
          4    1    6    6  503    0 -0.48887051161E+03 -0.69647224331E+03 -0.26865212399E+01  0.85092607212E+03  0.00000000000E+00 0. -1.
         -4    1    6    6    0  503 -0.99161192360E+02 -0.17843430390E+03  0.36335192519E+02  0.20734509663E+03  0.00000000000E+00 0.  1.
<mgrwt>
<rscale>  0 0.27989917E+04</rscale>
<asrwt>0</asrwt>
<pdfrwt beam="1">  1        2 0.25843116E+00 0.27989917E+04</pdfrwt>
<pdfrwt beam="2">  1       -1 0.17937901E+00 0.27989917E+04</pdfrwt>
<totfact> 0.20964013E+00</totfact>
</mgrwt>
</event>
<event>
12    7  0.1546317E-007  0.1745075E+04  0.7818608E-02  0.8736066E-01
          2   -1    0    0  501    0  0.00000000000E+00  0.00000000000E+00  0.27591553656E+04  0.27591553656E+04  0.00000000000E+00 0. -1.
         -1   -1    0    0    0  501 -0.00000000000E+00 -0.00000000000E+00 -0.27592570859E+03  0.27592570859E+03  0.00000000000E+00 0.  1.
         24    2    1    2    0    0 -0.93123894436E+02  0.60035940927E+03  0.58590273952E+03  0.84799293477E+03  0.81893328358E+02 0.  0.
        254    2    1    2    0    0  0.93123894436E+02 -0.60035940927E+03  0.18973269175E+04  0.21870881394E+04  0.90244203014E+03 0.  0.
         23    2    4    4    0    0 -0.18272633955E+03 -0.37000179358E+03  0.23381453877E+03  0.48300219941E+03  0.91277837817E+02 0.  0.
         23    2    4    4    0    0  0.27585023399E+03 -0.23035761569E+03  0.16635123787E+04  0.17040859400E+04  0.86472389321E+02 0.  0.
          2    1    3    3  502    0 -0.71433996920E+02  0.23189724177E+03  0.20582183900E+03  0.31818512861E+03  0.00000000000E+00 0. -1.
         -1    1    3    3    0  502 -0.21689897517E+02  0.36846216750E+03  0.38008090052E+03  0.52980780616E+03  0.00000000000E+00 0.  1.
         13    1    5    5    0    0 -0.89075776877E+02 -0.22413551625E+03  0.18178085112E+03  0.30201904162E+03  0.00000000000E+00 0.  1.
        -13    1    5    5    0    0 -0.93650562672E+02 -0.14586627733E+03  0.52033687652E+02  0.18098315779E+03  0.00000000000E+00 0. -1.
          3    1    6    6  503    0  0.87647683095E+02 -0.12850552971E+03  0.71954618806E+03  0.73616744309E+03  0.00000000000E+00 0. -1.
         -3    1    6    6    0  503  0.18820255089E+03 -0.10185208598E+03  0.94396619063E+03  0.96791849690E+03  0.00000000000E+00 0.  1.
<mgrwt>
<rscale>  0 0.17450752E+04</rscale>
<asrwt>0</asrwt>
<pdfrwt beam="1">  1        2 0.42448542E+00 0.17450752E+04</pdfrwt>
<pdfrwt beam="2">  1       -1 0.42450111E-01 0.17450752E+04</pdfrwt>
<totfact> 0.14464051E+01</totfact>
</mgrwt>
</event>
<event>
12    7  0.1546317E-007  0.1840026E+04  0.7818608E-02  0.8685299E-01
          2   -1    0    0  501    0  0.00000000000E+00  0.00000000000E+00  0.49035679871E+04  0.49035679871E+04  0.00000000000E+00 0. -1.
         -1   -1    0    0    0  501 -0.00000000000E+00 -0.00000000000E+00 -0.17261380428E+03  0.17261380428E+03  0.00000000000E+00 0.  1.
         24    2    1    2    0    0 -0.50311678318E+03 -0.62289149248E+02  0.31197080447E+04  0.31616188775E+04  0.79051927511E+02 0.  0.
        254    2    1    2    0    0  0.50311678318E+03  0.62289149248E+02  0.16112461382E+04  0.19145629138E+04  0.90134932058E+03 0.  0.
         23    2    4    4    0    0  0.19172935703E+03  0.32969241264E+02 -0.51603108566E+02  0.22008099615E+03  0.89026102001E+02 0.  0.
         23    2    4    4    0    0  0.31138742615E+03  0.29319907984E+02  0.16628492467E+04  0.16944819177E+04  0.91539968828E+02 0.  0.
          4    1    3    3  502    0 -0.30761229077E+03 -0.13162618434E+02  0.16976950365E+04  0.17253889454E+04  0.00000000000E+00 0. -1.
         -1    1    3    3    0  502 -0.19550449241E+03 -0.49126530814E+02  0.14220130082E+04  0.14362299321E+04  0.00000000000E+00 0.  1.
         13    1    5    5    0    0  0.11610188364E+03  0.51532356979E+02 -0.62295889712E+02  0.14147794555E+03  0.00000000000E+00 0. -1.
        -13    1    5    5    0    0  0.75627473387E+02 -0.18563115715E+02  0.10692781146E+02  0.78603050606E+02  0.00000000000E+00 0.  1.
          4    1    6    6  503    0  0.23117398095E+03  0.58557027068E+02  0.13030338025E+04  0.13246763474E+04  0.00000000000E+00 0. -1.
         -4    1    6    6    0  503  0.80213445198E+02 -0.29237119084E+02  0.35981544426E+03  0.36980557033E+03  0.00000000000E+00 0.  1.
<mgrwt>
<rscale>  0 0.18400256E+04</rscale>
<asrwt>0</asrwt>
<pdfrwt beam="1">  1        2 0.75439497E+00 0.18400256E+04</pdfrwt>
<pdfrwt beam="2">  1       -1 0.26555974E-01 0.18400256E+04</pdfrwt>
<totfact> 0.62821594E-01</totfact>
</mgrwt>
</event>
<event>
12    7  0.1546317E-007  0.1653858E+04  0.7818608E-02  0.8788127E-01
          2   -1    0    0  501    0  0.00000000000E+00  0.00000000000E+00  0.11034355464E+04  0.11034355464E+04  0.00000000000E+00 0. -1.
         -1   -1    0    0    0  501 -0.00000000000E+00 -0.00000000000E+00 -0.61971146504E+03  0.61971146504E+03  0.00000000000E+00 0.  1.
         24    2    1    2    0    0  0.36126628467E+03 -0.19427184662E+03  0.56441529871E+03  0.70364782547E+03  0.91108473997E+02 0.  0.
        254    2    1    2    0    0 -0.36126628467E+03  0.19427184662E+03 -0.80691217346E+02  0.10194991860E+04  0.92984549190E+03 0.  0.
         23    2    4    4    0    0 -0.13854518072E+03  0.36810517649E+03  0.32292442018E+03  0.51856348600E+03  0.99658014252E+02 0.  0.
         23    2    4    4    0    0 -0.22272110395E+03 -0.17383332986E+03 -0.40361563753E+03  0.50093569997E+03  0.90599536071E+02 0.  0.
          4    1    3    3  502    0  0.33619125407E+03 -0.20013059038E+03  0.50449934909E+03  0.63843277309E+03  0.00000000000E+00 0. -1.
         -3    1    3    3    0  502  0.25075030598E+02  0.58587437536E+01  0.59915949617E+02  0.65215052376E+02  0.00000000000E+00 0.  1.
         13    1    5    5    0    0 -0.59745630491E+00  0.51101004156E+02  0.83978630701E+02  0.98306052684E+02  0.00000000000E+00 0. -1.
        -13    1    5    5    0    0 -0.13794772442E+03  0.31700417233E+03  0.23894578948E+03  0.42025743331E+03  0.00000000000E+00 0.  1.
          1    1    6    6  503    0 -0.21029182143E+03 -0.12231011459E+03 -0.34131935874E+03  0.41914355410E+03  0.00000000000E+00 0. -1.
         -1    1    6    6    0  503 -0.12429282517E+02 -0.51523215275E+02 -0.62296278788E+02  0.81792145876E+02  0.00000000000E+00 0.  1.
<mgrwt>
<rscale>  0 0.16538581E+04</rscale>
<asrwt>0</asrwt>
<pdfrwt beam="1">  1        2 0.16975931E+00 0.16538581E+04</pdfrwt>
<pdfrwt beam="2">  1       -1 0.95340225E-01 0.16538581E+04</pdfrwt>
<totfact> 0.25086731E+01</totfact>
</mgrwt>
</event>
<event>
12    7  0.1546317E-007  0.2070741E+04  0.7818608E-02  0.8574243E-01
          2   -1    0    0  501    0  0.00000000000E+00  0.00000000000E+00  0.18943588733E+04  0.18943588733E+04  0.00000000000E+00 0. -1.
         -1   -1    0    0    0  501 -0.00000000000E+00 -0.00000000000E+00 -0.56588637260E+03  0.56588637260E+03  0.00000000000E+00 0.  1.
         24    2    1    2    0    0 -0.19032229532E+03  0.62464259319E+02  0.15145449478E+04  0.15298997679E+04  0.81378997022E+02 0.  0.
        254    2    1    2    0    0  0.19032229532E+03 -0.62464259319E+02 -0.18607244708E+03  0.93034547802E+03  0.88926677275E+03 0.  0.
         23    2    4    4    0    0  0.33159581916E+03  0.26799271593E+03 -0.31499523465E+03  0.53755361834E+03  0.89252516330E+02 0.  0.
         23    2    4    4    0    0 -0.14127352384E+03 -0.33045697524E+03  0.12892278757E+03  0.39279185968E+03  0.92218972272E+02 0.  0.
          2    1    3    3  502    0 -0.19446016509E+03  0.70205706859E+02  0.14729448491E+04  0.14873836511E+04  0.00000000000E+00 0. -1.
         -1    1    3    3    0  502  0.41378697775E+01 -0.77414475405E+01  0.41600098724E+02  0.42516116828E+02  0.00000000000E+00 0.  1.
         13    1    5    5    0    0  0.14496567755E+03  0.13383706599E+03 -0.93425817616E+02  0.21830206435E+03  0.00000000000E+00 0. -1.
        -13    1    5    5    0    0  0.18663014161E+03  0.13415564994E+03 -0.22156941703E+03  0.31925155400E+03  0.00000000000E+00 0.  1.
          2    1    6    6  503    0  0.92508393091E+01 -0.16573383009E+01  0.26897491131E+01  0.97754564322E+01  0.00000000000E+00 0. -1.
         -2    1    6    6    0  503 -0.15052436315E+03 -0.32879963694E+03  0.12623303846E+03  0.38301640324E+03  0.00000000000E+00 0.  1.
<mgrwt>
<rscale>  0 0.20707408E+04</rscale>
<asrwt>0</asrwt>
<pdfrwt beam="1">  1        2 0.29143982E+00 0.20707408E+04</pdfrwt>
<pdfrwt beam="2">  1       -1 0.87059443E-01 0.20707408E+04</pdfrwt>
<totfact> 0.10452721E+01</totfact>
</mgrwt>
</event>
<event>
12    7  0.1546317E-007  0.1435399E+04  0.7818608E-02  0.8928586E-01
          2   -1    0    0  501    0  0.00000000000E+00  0.00000000000E+00  0.65398518924E+03  0.65398518924E+03  0.00000000000E+00 0. -1.
         -1   -1    0    0    0  501 -0.00000000000E+00 -0.00000000000E+00 -0.78762083638E+03  0.78762083638E+03  0.00000000000E+00 0.  1.
         24    2    1    2    0    0 -0.23755766132E+03  0.22504286050E+03 -0.32985745054E+03  0.47152929245E+03  0.80349265394E+02 0.  0.
        254    2    1    2    0    0  0.23755766132E+03 -0.22504286050E+03  0.19622180340E+03  0.97007673317E+03  0.89189009446E+03 0.  0.
         23    2    4    4    0    0  0.61510215618E+02 -0.18804798958E+03  0.53328528562E+03  0.57728258626E+03  0.98571981459E+02 0.  0.
         23    2    4    4    0    0  0.17604744570E+03 -0.36994870924E+02 -0.33706348222E+03  0.39279414691E+03  0.91181835824E+02 0.  0.
          2    1    3    3  502    0 -0.14979052999E+03  0.13895745168E+03 -0.25809166000E+03  0.32917727931E+03  0.00000000000E+00 0. -1.
         -1    1    3    3    0  502 -0.87767131332E+02  0.86085408822E+02 -0.71765790538E+02  0.14235201314E+03  0.00000000000E+00 0.  1.
         13    1    5    5    0    0  0.22559461821E+02 -0.12209940333E+02  0.17750541865E+02  0.31194449780E+02  0.00000000000E+00 0.  1.
        -13    1    5    5    0    0  0.38950753797E+02 -0.17583804925E+03  0.51553474376E+03  0.54608813648E+03  0.00000000000E+00 0. -1.
          3    1    6    6  503    0  0.16524699177E+03 -0.39416047147E+02 -0.23414397604E+03  0.28928116872E+03  0.00000000000E+00 0. -1.
         -3    1    6    6    0  503  0.10800453930E+02  0.24211762222E+01 -0.10291950619E+03  0.10351297819E+03  0.00000000000E+00 0.  1.
<mgrwt>
<rscale>  0 0.14353987E+04</rscale>
<asrwt>0</asrwt>
<pdfrwt beam="1">  1        2 0.10061311E+00 0.14353987E+04</pdfrwt>
<pdfrwt beam="2">  1       -1 0.12117244E+00 0.14353987E+04</pdfrwt>
<totfact> 0.29925111E+01</totfact>
</mgrwt>
</event>
<event>
12    7  0.1546317E-007  0.2433195E+04  0.7818608E-02  0.8427180E-01
         -1   -1    0    0    0  501 -0.00000000000E+00  0.00000000000E+00  0.15881259269E+04  0.15881259269E+04  0.00000000000E+00 0.  1.
          2   -1    0    0  501    0  0.00000000000E+00 -0.00000000000E+00 -0.93198469346E+03  0.93198469346E+03  0.00000000000E+00 0. -1.
         24    2    1    2    0    0 -0.19645867213E+02  0.76953212771E+03  0.10177892370E+04  0.12786298163E+04  0.80209852752E+02 0.  0.
        254    2    1    2    0    0  0.19645867213E+02 -0.76953212771E+03 -0.36164800360E+03  0.12414808040E+04  0.90438910464E+03 0.  0.
         23    2    4    4    0    0  0.24553720957E+03 -0.12717201045E+03  0.20249212328E+03  0.35285009258E+03  0.83898071013E+02 0.  0.
         23    2    4    4    0    0 -0.22589134236E+03 -0.64236011726E+03 -0.56414012688E+03  0.88863071145E+03  0.88074058507E+02 0.  0.
          2    1    3    3  502    0 -0.14237879642E+02  0.39002489976E+02  0.77224523509E+02  0.87678608978E+02  0.00000000000E+00 0. -1.
         -1    1    3    3    0  502 -0.54079875711E+01  0.73052963773E+03  0.94056471351E+03  0.11909512073E+04  0.00000000000E+00 0.  1.
         13    1    5    5    0    0  0.14531946659E+03 -0.56803148623E+02  0.15934907855E+03  0.22301675699E+03  0.00000000000E+00 0.  1.
        -13    1    5    5    0    0  0.10021774298E+03 -0.70368861822E+02  0.43143044729E+02  0.12983333559E+03  0.00000000000E+00 0. -1.
          3    1    6    6  503    0 -0.10778055740E+03 -0.23692101690E+03 -0.16927161396E+03  0.31048525906E+03  0.00000000000E+00 0. -1.
         -3    1    6    6    0  503 -0.11811078496E+03 -0.40543910037E+03 -0.39486851292E+03  0.57814545239E+03  0.00000000000E+00 0.  1.
<mgrwt>
<rscale>  0 0.24331947E+04</rscale>
<asrwt>0</asrwt>
<pdfrwt beam="1">  1        2 0.14338226E+00 0.24331947E+04</pdfrwt>
<pdfrwt beam="2">  1       -1 0.24432707E+00 0.24331947E+04</pdfrwt>
<totfact> 0.21671281E+00</totfact>
</mgrwt>
</event>
<event>
12    7  0.1546317E-007  0.2585607E+04  0.7818608E-02  0.8373107E-01
          2   -1    0    0  501    0  0.00000000000E+00  0.00000000000E+00  0.17891530889E+04  0.17891530889E+04  0.00000000000E+00 0. -1.
         -1   -1    0    0    0  501 -0.00000000000E+00 -0.00000000000E+00 -0.93415162600E+03  0.93415162600E+03  0.00000000000E+00 0.  1.
         24    2    1    2    0    0  0.48504262516E+03 -0.72925672256E+03  0.11377226517E+04  0.14379906351E+04  0.79514268522E+02 0.  0.
        254    2    1    2    0    0 -0.48504262516E+03  0.72925672256E+03 -0.28272118880E+03  0.12853140798E+04  0.89722867623E+03 0.  0.
         23    2    4    4    0    0 -0.48632533752E+03  0.46739889826E+03 -0.56876595905E+03  0.88763051378E+03  0.97052299275E+02 0.  0.
         23    2    4    4    0    0  0.12827123676E+01  0.26185782429E+03  0.28604477025E+03  0.39768356600E+03  0.88087698252E+02 0.  0.
          2    1    3    3  502    0  0.43985507683E+03 -0.64877184985E+03  0.10529872722E+04  0.13126917373E+04  0.00000000000E+00 0. -1.
         -1    1    3    3    0  502  0.45187548330E+02 -0.80484872703E+02  0.84735379583E+02  0.12529889789E+03  0.00000000000E+00 0.  1.
         13    1    5    5    0    0 -0.39345665721E+03  0.33270968245E+03 -0.39746255753E+03  0.65075368499E+03  0.00000000000E+00 0. -1.
        -13    1    5    5    0    0 -0.92868680319E+02  0.13468921582E+03 -0.17130340153E+03  0.23687682878E+03  0.00000000000E+00 0.  1.
          4    1    6    6  503    0 -0.35426591008E+02  0.20320876153E+03  0.22703599938E+03  0.30674776141E+03  0.00000000000E+00 0. -1.
         -4    1    6    6    0  503  0.36709303376E+02  0.58649062759E+02  0.59008770871E+02  0.90935804590E+02  0.00000000000E+00 0.  1.
<mgrwt>
<rscale>  0 0.25856065E+04</rscale>
<asrwt>0</asrwt>
<pdfrwt beam="1">  1        2 0.27525432E+00 0.25856065E+04</pdfrwt>
<pdfrwt beam="2">  1       -1 0.14371564E+00 0.25856065E+04</pdfrwt>
<totfact> 0.34503956E+00</totfact>
</mgrwt>
</event>
<event>
12    7  0.1546317E-007  0.1261609E+04  0.7818608E-02  0.9060576E-01
          2   -1    0    0  501    0  0.00000000000E+00  0.00000000000E+00  0.17363467571E+04  0.17363467571E+04  0.00000000000E+00 0. -1.
         -1   -1    0    0    0  501 -0.00000000000E+00 -0.00000000000E+00 -0.22916760953E+03  0.22916760953E+03  0.00000000000E+00 0.  1.
         24    2    1    2    0    0  0.18383193994E+03 -0.34429691679E+02  0.72225789837E+03  0.75008351328E+03  0.77390046669E+02 0.  0.
        254    2    1    2    0    0 -0.18383193994E+03  0.34429691679E+02  0.78492124919E+03  0.12154308534E+04  0.90895060704E+03 0.  0.
         23    2    4    4    0    0 -0.15212969833E+03 -0.32677890757E+03  0.75389146101E+03  0.84016890644E+03  0.87198376236E+02 0.  0.
         23    2    4    4    0    0 -0.31702241611E+02  0.36120859925E+03  0.31029788183E+02  0.37526194691E+03  0.91553245441E+02 0.  0.
          2    1    3    3  502    0  0.18726663582E+03 -0.34612961488E+02  0.72193314638E+03  0.74662863449E+03  0.00000000000E+00 0. -1.
         -1    1    3    3    0  502 -0.34346958809E+01  0.18326980919E+00  0.32475199173E+00  0.34548787928E+01  0.00000000000E+00 0.  1.
         13    1    5    5    0    0  0.10351997612E+02 -0.39015432597E+02  0.79349974090E+02  0.89026884835E+02  0.00000000000E+00 0. -1.
        -13    1    5    5    0    0 -0.16248169594E+03 -0.28776347497E+03  0.67454148692E+03  0.75114202160E+03  0.00000000000E+00 0.  1.
          1    1    6    6  503    0 -0.43192378155E+02  0.35336001697E+03  0.40711392189E+02  0.35831034116E+03  0.00000000000E+00 0.  1.
         -1    1    6    6    0  503  0.11490136544E+02  0.78485822755E+01 -0.96816040056E+01  0.16951605755E+02  0.00000000000E+00 0. -1.
<mgrwt>
<rscale>  0 0.12616092E+04</rscale>
<asrwt>0</asrwt>
<pdfrwt beam="1">  1        2 0.26713026E+00 0.12616092E+04</pdfrwt>
<pdfrwt beam="2">  1       -1 0.35256556E-01 0.12616092E+04</pdfrwt>
<totfact> 0.80261198E+01</totfact>
</mgrwt>
</event>
<event>
12    7  0.1546317E-007  0.2656181E+04  0.7818608E-02  0.8349364E-01
          2   -1    0    0  501    0  0.00000000000E+00  0.00000000000E+00  0.22308718300E+04  0.22308718300E+04  0.00000000000E+00 0. -1.
         -1   -1    0    0    0  501 -0.00000000000E+00 -0.00000000000E+00 -0.79064367316E+03  0.79064367316E+03  0.00000000000E+00 0.  1.
         24    2    1    2    0    0  0.32395583984E+03 -0.17335264179E+03  0.19128995028E+04  0.19495758461E+04  0.81626877162E+02 0.  0.
        254    2    1    2    0    0 -0.32395583984E+03  0.17335264179E+03 -0.47267134600E+03  0.10719396571E+04  0.88917821750E+03 0.  0.
         23    2    4    4    0    0 -0.46944025178E+02 -0.30902522379E+03  0.16223846014E+02  0.32580303626E+03  0.90465876551E+02 0.  0.
         23    2    4    4    0    0 -0.27701181466E+03  0.48237786558E+03 -0.48889519202E+03  0.74613662081E+03  0.90980203704E+02 0.  0.
          2    1    3    3  502    0  0.23643032617E+03 -0.10948579252E+03  0.11586847443E+04  0.11876181098E+04  0.00000000000E+00 0. -1.
         -1    1    3    3    0  502  0.87525513668E+02 -0.63866849266E+02  0.75421475850E+03  0.76195773630E+03  0.00000000000E+00 0.  1.
         13    1    5    5    0    0 -0.60967077855E+02 -0.11177029590E+03 -0.79450512806E+00  0.12731934208E+03  0.00000000000E+00 0.  1.
        -13    1    5    5    0    0  0.14023052678E+02 -0.19725492789E+03  0.17018351142E+02  0.19848369419E+03  0.00000000000E+00 0. -1.
          2    1    6    6  503    0 -0.24277568481E+03  0.34980609717E+03 -0.35112392084E+03  0.55189885535E+03  0.00000000000E+00 0. -1.
         -2    1    6    6    0  503 -0.34236129850E+02  0.13257176841E+03 -0.13777127118E+03  0.19423776546E+03  0.00000000000E+00 0.  1.
<mgrwt>
<rscale>  0 0.26561812E+04</rscale>
<asrwt>0</asrwt>
<pdfrwt beam="1">  1        2 0.34321105E+00 0.26561812E+04</pdfrwt>
<pdfrwt beam="2">  1       -1 0.12163749E+00 0.26561812E+04</pdfrwt>
<totfact> 0.29742965E+00</totfact>
</mgrwt>
</event>
<event>
12    7  0.1546317E-007  0.1489394E+04  0.7818608E-02  0.8891537E-01
          2   -1    0    0  501    0  0.00000000000E+00  0.00000000000E+00  0.68355656466E+03  0.68355656466E+03  0.00000000000E+00 0. -1.
         -1   -1    0    0    0  501 -0.00000000000E+00 -0.00000000000E+00 -0.81130580987E+03  0.81130580987E+03  0.00000000000E+00 0.  1.
         24    2    1    2    0    0 -0.21130196393E+03 -0.42457225322E+03 -0.10425656924E+03  0.49162838083E+03  0.76934481493E+02 0.  0.
        254    2    1    2    0    0  0.21130196393E+03  0.42457225322E+03 -0.23492675969E+02  0.10032339937E+04  0.88375133501E+03 0.  0.
         23    2    4    4    0    0 -0.23702508209E+02  0.79559541300E+02  0.38974966105E+03  0.40872181217E+03  0.90869092375E+02 0.  0.
         23    2    4    4    0    0  0.23500447214E+03  0.34501271192E+03 -0.41324233702E+03  0.59451218154E+03  0.91731300978E+02 0.  0.
          4    1    3    3  502    0 -0.17861050275E+02 -0.78929315083E+02  0.39541265907E+01  0.81021534258E+02  0.00000000000E+00 0. -1.
         -3    1    3    3    0  502 -0.19344091366E+03 -0.34564293814E+03 -0.10821069583E+03  0.41060684657E+03  0.00000000000E+00 0.  1.
         13    1    5    5    0    0  0.10365789522E+02  0.28636981515E+02  0.26588175580E+02  0.40428422964E+02  0.00000000000E+00 0. -1.
        -13    1    5    5    0    0 -0.34068297731E+02  0.50922559785E+02  0.36316148547E+03  0.36829338921E+03  0.00000000000E+00 0.  1.
          3    1    6    6  503    0  0.45630423318E+02  0.23895419212E+02 -0.28863801369E+02  0.59044437680E+02  0.00000000000E+00 0. -1.
         -3    1    6    6    0  503  0.18937404882E+03  0.32111729271E+03 -0.38437853565E+03  0.53546774386E+03  0.00000000000E+00 0.  1.
<mgrwt>
<rscale>  0 0.14893937E+04</rscale>
<asrwt>0</asrwt>
<pdfrwt beam="1">  1        2 0.10516255E+00 0.14893937E+04</pdfrwt>
<pdfrwt beam="2">  1       -1 0.12481628E+00 0.14893937E+04</pdfrwt>
<totfact> 0.26201573E+01</totfact>
</mgrwt>
</event>
<event>
12    7  0.1546317E-007  0.2272616E+04  0.7818608E-02  0.8488797E-01
         -1   -1    0    0    0  501 -0.00000000000E+00  0.00000000000E+00  0.77410056191E+03  0.77410056191E+03  0.00000000000E+00 0.  1.
          2   -1    0    0  501    0  0.00000000000E+00 -0.00000000000E+00 -0.16679944088E+04  0.16679944088E+04  0.00000000000E+00 0. -1.
         24    2    1    2    0    0 -0.41219662846E+03 -0.55431946362E+03 -0.10714140774E+04  0.12773009494E+04  0.79959125794E+02 0.  0.
        254    2    1    2    0    0  0.41219662846E+03  0.55431946362E+03  0.17752023050E+03  0.11647940213E+04  0.92089931676E+03 0.  0.
         23    2    4    4    0    0  0.45021748736E+03  0.61901704983E+03 -0.17730961824E+03  0.79117248906E+03  0.92937144463E+02 0.  0.
         23    2    4    4    0    0 -0.38020858900E+02 -0.64697586215E+02  0.35482984875E+03  0.37362153225E+03  0.89763380220E+02 0.  0.
          4    1    3    3  502    0 -0.34869515235E+03 -0.42056204624E+03 -0.87027058525E+03  0.10275366833E+04  0.00000000000E+00 0. -1.
         -3    1    3    3    0  502 -0.63501476118E+02 -0.13375741738E+03 -0.20114349211E+03  0.24976426604E+03  0.00000000000E+00 0.  1.
         13    1    5    5    0    0  0.37009680843E+03  0.49946075663E+03 -0.18018238236E+03  0.64722359810E+03  0.00000000000E+00 0. -1.
        -13    1    5    5    0    0  0.80120678931E+02  0.11955629320E+03  0.28727641123E+01  0.14394889096E+03  0.00000000000E+00 0.  1.
          3    1    6    6  503    0 -0.52543992336E+02 -0.35772676974E+01  0.19203146159E+03  0.19912245030E+03  0.00000000000E+00 0. -1.
         -3    1    6    6    0  503  0.14523133435E+02 -0.61120318517E+02  0.16279838716E+03  0.17449908195E+03  0.00000000000E+00 0.  1.
<mgrwt>
<rscale>  0 0.22726156E+04</rscale>
<asrwt>0</asrwt>
<pdfrwt beam="1">  1        2 0.25661452E+00 0.22726156E+04</pdfrwt>
<pdfrwt beam="2">  1       -1 0.11909239E+00 0.22726156E+04</pdfrwt>
<totfact> 0.66683794E+00</totfact>
</mgrwt>
</event>
<event>
12    7  0.1546317E-007  0.1380724E+04  0.7818608E-02  0.8967891E-01
          2   -1    0    0  501    0  0.00000000000E+00  0.00000000000E+00  0.11261217046E+04  0.11261217046E+04  0.00000000000E+00 0. -1.
         -1   -1    0    0    0  501 -0.00000000000E+00 -0.00000000000E+00 -0.42322248434E+03  0.42322248434E+03  0.00000000000E+00 0.  1.
         24    2    1    2    0    0 -0.38686964045E+03 -0.85133767546E+02  0.25550250162E+03  0.47812120309E+03  0.80015494964E+02 0.  0.
        254    2    1    2    0    0  0.38686964045E+03  0.85133767546E+02  0.44739671861E+03  0.10712229858E+04  0.88906635548E+03 0.  0.
         23    2    4    4    0    0 -0.19028593847E+03  0.13263449709E+03 -0.98864061800E+02  0.26897268837E+03  0.93656586404E+02 0.  0.
         23    2    4    4    0    0  0.57715557892E+03 -0.47500729540E+02  0.54626078041E+03  0.80225029745E+03  0.99195856517E+02 0.  0.
          2    1    3    3  502    0 -0.34456431327E+03 -0.56706845816E+02  0.24362805043E+03  0.42578734046E+03  0.00000000000E+00 0. -1.
         -1    1    3    3    0  502 -0.42305327181E+02 -0.28426921730E+02  0.11874451193E+02  0.52333862632E+02  0.00000000000E+00 0.  1.
         13    1    5    5    0    0 -0.20593868229E+02 -0.97574724174E+01  0.64638192246E+01  0.23687478455E+02  0.00000000000E+00 0.  1.
        -13    1    5    5    0    0 -0.16969207024E+03  0.14239196950E+03 -0.10532788103E+03  0.24528520992E+03  0.00000000000E+00 0. -1.
          3    1    6    6  503    0  0.30603609576E+03 -0.17093110324E+02  0.22186672646E+03  0.37838487105E+03  0.00000000000E+00 0. -1.
         -3    1    6    6    0  503  0.27111948316E+03 -0.30407619216E+02  0.32439405395E+03  0.42386542639E+03  0.00000000000E+00 0.  1.
<mgrwt>
<rscale>  0 0.13807245E+04</rscale>
<asrwt>0</asrwt>
<pdfrwt beam="1">  1        2 0.17324949E+00 0.13807245E+04</pdfrwt>
<pdfrwt beam="2">  1       -1 0.65111152E-01 0.13807245E+04</pdfrwt>
<totfact> 0.55809800E+01</totfact>
</mgrwt>
</event>
<event>
12    7  0.1546317E-007  0.1221247E+04  0.7818608E-02  0.9094459E-01
         -1   -1    0    0    0  501 -0.00000000000E+00  0.00000000000E+00  0.28419142395E+03  0.28419142395E+03  0.00000000000E+00 0.  1.
          2   -1    0    0  501    0  0.00000000000E+00 -0.00000000000E+00 -0.13120074550E+04  0.13120074550E+04  0.00000000000E+00 0. -1.
         24    2    1    2    0    0 -0.41691989153E+02 -0.74301486054E+02 -0.49924824913E+03  0.51242625452E+03  0.77928937340E+02 0.  0.
        254    2    1    2    0    0  0.41691989153E+02  0.74301486054E+02 -0.52856778192E+03  0.10837726244E+04  0.94229521308E+03 0.  0.
         23    2    4    4    0    0  0.43490768499E+03  0.79421204790E+02 -0.44831009595E+02  0.45421163068E+03  0.94052983943E+02 0.  0.
         23    2    4    4    0    0 -0.39321569583E+03 -0.51197187361E+01 -0.48373677233E+03  0.62956099375E+03  0.87755256168E+02 0.  0.
          2    1    3    3  502    0 -0.30363459559E+02 -0.10730617723E+02 -0.32511554523E+03  0.32670660168E+03  0.00000000000E+00 0. -1.
         -1    1    3    3    0  502 -0.11328529594E+02 -0.63570868331E+02 -0.17413270390E+03  0.18571965284E+03  0.00000000000E+00 0.  1.
         13    1    5    5    0    0  0.89381376829E+02  0.16352399165E+02 -0.48414536920E+02  0.10295823846E+03  0.00000000000E+00 0. -1.
        -13    1    5    5    0    0  0.34552630816E+03  0.63068805625E+02  0.35835273257E+01  0.35125339221E+03  0.00000000000E+00 0.  1.
          4    1    6    6  503    0 -0.19772062621E+03  0.26970389900E+01 -0.31115294603E+03  0.36866906009E+03  0.00000000000E+00 0.  1.
         -4    1    6    6    0  503 -0.19549506963E+03 -0.78167577260E+01 -0.17258382630E+03  0.26089193366E+03  0.00000000000E+00 0. -1.
<mgrwt>
<rscale>  0 0.12212473E+04</rscale>
<asrwt>0</asrwt>
<pdfrwt beam="1">  1        2 0.20184730E+00 0.12212473E+04</pdfrwt>
<pdfrwt beam="2">  1       -1 0.43721757E-01 0.12212473E+04</pdfrwt>
<totfact> 0.94370842E+01</totfact>
</mgrwt>
</event>
<event>
12    7  0.1546317E-007  0.1730545E+04  0.7818608E-02  0.8744133E-01
         -1   -1    0    0    0  501 -0.00000000000E+00  0.00000000000E+00  0.14854020161E+04  0.14854020161E+04  0.00000000000E+00 0.  1.
          2   -1    0    0  501    0  0.00000000000E+00 -0.00000000000E+00 -0.50403617410E+03  0.50403617410E+03  0.00000000000E+00 0. -1.
         24    2    1    2    0    0 -0.44644978281E+03 -0.83604520449E+02  0.86213741136E+03  0.97772870366E+03  0.79783315910E+02 0.  0.
        254    2    1    2    0    0  0.44644978281E+03  0.83604520449E+02  0.11922843068E+03  0.10117094866E+04  0.89612138806E+03 0.  0.
         23    2    4    4    0    0  0.11999690052E+03 -0.17615391254E+03 -0.32382906240E+03  0.39641084929E+03  0.82745650868E+02 0.  0.
         23    2    4    4    0    0  0.32645288229E+03  0.25975843299E+03  0.44305749308E+03  0.61529863729E+03  0.90810478536E+02 0.  0.
          2    1    3    3  502    0 -0.23954277125E+03 -0.28420529567E+02  0.37889814466E+03  0.44916842029E+03  0.00000000000E+00 0. -1.
         -1    1    3    3    0  502 -0.20690701156E+03 -0.55183990882E+02  0.48323926670E+03  0.52856028337E+03  0.00000000000E+00 0.  1.
         13    1    5    5    0    0  0.19764859390E+02 -0.10128231920E+03 -0.15714859076E+03  0.18800116336E+03  0.00000000000E+00 0. -1.
        -13    1    5    5    0    0  0.10023204113E+03 -0.74871593345E+02 -0.16668047164E+03  0.20840968592E+03  0.00000000000E+00 0.  1.
          3    1    6    6  503    0  0.20823800466E+03  0.11047073829E+03  0.22619782344E+03  0.32669910611E+03  0.00000000000E+00 0. -1.
         -3    1    6    6    0  503  0.11821487763E+03  0.14928769471E+03  0.21685966964E+03  0.28859953119E+03  0.00000000000E+00 0.  1.
<mgrwt>
<rscale>  0 0.17305448E+04</rscale>
<asrwt>0</asrwt>
<pdfrwt beam="1">  1        2 0.77544027E-01 0.17305448E+04</pdfrwt>
<pdfrwt beam="2">  1       -1 0.22852339E+00 0.17305448E+04</pdfrwt>
<totfact> 0.63895411E+00</totfact>
</mgrwt>
</event>
<event>
12    7  0.1546317E-007  0.1816742E+04  0.7818608E-02  0.8697447E-01
         -1   -1    0    0    0  501 -0.00000000000E+00  0.00000000000E+00  0.18497778796E+04  0.18497778796E+04  0.00000000000E+00 0.  1.
          2   -1    0    0  501    0  0.00000000000E+00 -0.00000000000E+00 -0.44607390095E+03  0.44607390095E+03  0.00000000000E+00 0. -1.
         24    2    1    2    0    0  0.59892786092E+02  0.18865129431E+03 -0.29440884101E+03  0.36374968546E+03  0.80379172304E+02 0.  0.
        254    2    1    2    0    0 -0.59892786092E+02 -0.18865129431E+03  0.16981128196E+04  0.19321020951E+04  0.90014160047E+03 0.  0.
         23    2    4    4    0    0 -0.41659048350E+01 -0.49028710132E+03  0.55957996239E+03  0.74938848462E+03  0.89747256721E+02 0.  0.
         23    2    4    4    0    0 -0.55726881258E+02  0.30163580701E+03  0.11385328572E+04  0.11827136104E+04  0.92004195339E+02 0.  0.
          4    1    3    3  502    0  0.73889207964E+02  0.18492806695E+03 -0.27488486814E+03  0.33944026828E+03  0.00000000000E+00 0. -1.
         -3    1    3    3    0  502 -0.13996421871E+02  0.37232273623E+01 -0.19523972871E+02  0.24309417185E+02  0.00000000000E+00 0.  1.
         13    1    5    5    0    0  0.18522295953E+02 -0.45846979903E+03  0.52446982006E+03  0.69685452156E+03  0.00000000000E+00 0.  1.
        -13    1    5    5    0    0 -0.22688200788E+02 -0.31817302285E+02  0.35110142334E+02  0.52533963056E+02  0.00000000000E+00 0. -1.
          4    1    6    6  503    0  0.23047989822E+02  0.11659925354E+03  0.39933568546E+03  0.41664803545E+03  0.00000000000E+00 0. -1.
         -4    1    6    6    0  503 -0.78774871080E+02  0.18503655347E+03  0.73919717177E+03  0.76606557500E+03  0.00000000000E+00 0.  1.
<mgrwt>
<rscale>  0 0.18167417E+04</rscale>
<asrwt>0</asrwt>
<pdfrwt beam="1">  1        2 0.68626755E-01 0.18167417E+04</pdfrwt>
<pdfrwt beam="2">  1       -1 0.28458121E+00 0.18167417E+04</pdfrwt>
<totfact> 0.31492859E+00</totfact>
</mgrwt>
</event>
<event>
12    7  0.1546317E-007  0.1390944E+04  0.7818608E-02  0.8960400E-01
         -1   -1    0    0    0  501 -0.00000000000E+00  0.00000000000E+00  0.40932273538E+03  0.40932273538E+03  0.00000000000E+00 0.  1.
          2   -1    0    0  501    0  0.00000000000E+00 -0.00000000000E+00 -0.11816624336E+04  0.11816624336E+04  0.00000000000E+00 0. -1.
         24    2    1    2    0    0 -0.35497921661E+02 -0.16393579486E+03 -0.63776011138E+03  0.66449940961E+03  0.81770767583E+02 0.  0.
        254    2    1    2    0    0  0.35497921661E+02  0.16393579486E+03 -0.13457958682E+03  0.92648575934E+03  0.90118208471E+03 0.  0.
         23    2    4    4    0    0  0.35926854209E+03  0.29742531626E+03 -0.26234851718E+03  0.54295655136E+03  0.91866033526E+02 0.  0.
         23    2    4    4    0    0 -0.32377062043E+03 -0.13348952140E+03  0.12776893036E+03  0.38352920798E+03  0.90127059394E+02 0.  0.
          2    1    3    3  502    0 -0.39138150155E+02 -0.17055293220E+03 -0.62922102568E+03  0.65309968353E+03  0.00000000000E+00 0. -1.
         -1    1    3    3    0  502  0.36402284937E+01  0.66171373375E+01 -0.85390856999E+01  0.11399726077E+02  0.00000000000E+00 0.  1.
         13    1    5    5    0    0  0.14820816821E+03  0.81127654293E+02 -0.60172204077E+02  0.17935454150E+03  0.00000000000E+00 0.  1.
        -13    1    5    5    0    0  0.21106037388E+03  0.21629766196E+03 -0.20217631310E+03  0.36360200986E+03  0.00000000000E+00 0. -1.
          3    1    6    6  503    0 -0.74100738080E+02 -0.23938316117E+02  0.70259813745E+02  0.10488280979E+03  0.00000000000E+00 0. -1.
         -3    1    6    6    0  503 -0.24966988235E+03 -0.10955120528E+03  0.57509116612E+02  0.27864639819E+03  0.00000000000E+00 0.  1.
<mgrwt>
<rscale>  0 0.13909440E+04</rscale>
<asrwt>0</asrwt>
<pdfrwt beam="1">  1        2 0.18179422E+00 0.13909440E+04</pdfrwt>
<pdfrwt beam="2">  1       -1 0.62972730E-01 0.13909440E+04</pdfrwt>
<totfact> 0.55181253E+01</totfact>
</mgrwt>
</event>
<event>
12    7  0.1546317E-007  0.1689780E+04  0.7818608E-02  0.8767215E-01
          2   -1    0    0  501    0  0.00000000000E+00  0.00000000000E+00  0.14617807627E+04  0.14617807627E+04  0.00000000000E+00 0. -1.
         -1   -1    0    0    0  501 -0.00000000000E+00 -0.00000000000E+00 -0.48833506623E+03  0.48833506623E+03  0.00000000000E+00 0.  1.
         24    2    1    2    0    0 -0.45242339301E+03  0.37825436146E+03  0.45944158109E+03  0.75182393604E+03  0.79933571569E+02 0.  0.
        254    2    1    2    0    0  0.45242339301E+03 -0.37825436146E+03  0.51400411534E+03  0.11982918928E+04  0.90771137559E+03 0.  0.
         23    2    4    4    0    0 -0.77469528575E+02  0.17015605012E+03  0.35910865280E+03  0.41544622958E+03  0.93176906491E+02 0.  0.
         23    2    4    4    0    0  0.52989292158E+03 -0.54841041158E+03  0.15489546254E+03  0.78284566327E+03  0.85523332006E+02 0.  0.
          2    1    3    3  502    0 -0.19946256997E+03  0.11690220368E+03  0.18781479349E+03  0.29786882801E+03  0.00000000000E+00 0. -1.
         -1    1    3    3    0  502 -0.25296082303E+03  0.26135215777E+03  0.27162678760E+03  0.45395510803E+03  0.00000000000E+00 0.  1.
         13    1    5    5    0    0 -0.98334345674E+02  0.15293111557E+03  0.31063605646E+03  0.35993378450E+03  0.00000000000E+00 0. -1.
        -13    1    5    5    0    0  0.20864817099E+02  0.17224934548E+02  0.48472596341E+02  0.55512445080E+02  0.00000000000E+00 0.  1.
          3    1    6    6  503    0  0.45195359421E+03 -0.50599637521E+03  0.14246591539E+03  0.69324665170E+03  0.00000000000E+00 0. -1.
         -3    1    6    6    0  503  0.77939327374E+02 -0.42414036369E+02  0.12429547150E+02  0.89599011574E+02  0.00000000000E+00 0.  1.
<mgrwt>
<rscale>  0 0.16897796E+04</rscale>
<asrwt>0</asrwt>
<pdfrwt beam="1">  1        2 0.22488935E+00 0.16897796E+04</pdfrwt>
<pdfrwt beam="2">  1       -1 0.75128472E-01 0.16897796E+04</pdfrwt>
<totfact> 0.25796398E+01</totfact>
</mgrwt>
</event>
<event>
12    7  0.1546317E-007  0.1777681E+04  0.7818608E-02  0.8718259E-01
          2   -1    0    0  501    0  0.00000000000E+00  0.00000000000E+00  0.29067365677E+04  0.29067365677E+04  0.00000000000E+00 0. -1.
         -1   -1    0    0    0  501 -0.00000000000E+00 -0.00000000000E+00 -0.27179533581E+03  0.27179533581E+03  0.00000000000E+00 0.  1.
         24    2    1    2    0    0 -0.22381246815E+03 -0.91013441514E+02 -0.10933018997E+03  0.27640260450E+03  0.77909190085E+02 0.  0.
        254    2    1    2    0    0  0.22381246815E+03  0.91013441514E+02  0.27442714219E+04  0.29021292990E+04  0.91266278761E+03 0.  0.
         23    2    4    4    0    0 -0.74675669863E+02 -0.36683144119E+03  0.12714034328E+04  0.13284459149E+04  0.90333259797E+02 0.  0.
         23    2    4    4    0    0  0.29848813801E+03  0.45784488270E+03  0.14728679891E+04  0.15736833842E+04  0.91772410001E+02 0.  0.
          4    1    3    3  502    0 -0.60221753788E+02 -0.36858912124E+02 -0.70465769159E+02  0.99753013265E+02  0.00000000000E+00 0. -1.
         -3    1    3    3    0  502 -0.16359071436E+03 -0.54154529390E+02 -0.38864420815E+02  0.17664959123E+03  0.00000000000E+00 0.  1.
         13    1    5    5    0    0 -0.49920826650E+02 -0.35103861372E+03  0.11985716515E+04  0.12499176777E+04  0.00000000000E+00 0.  1.
        -13    1    5    5    0    0 -0.24754843213E+02 -0.15792827467E+02  0.72831781371E+02  0.78528237211E+02  0.00000000000E+00 0. -1.
          2    1    6    6  503    0  0.24260796823E+02  0.25835261469E+02  0.17568594909E+03  0.17922499743E+03  0.00000000000E+00 0. -1.
         -2    1    6    6    0  503  0.27422734119E+03  0.43200962123E+03  0.12971820400E+04  0.13944583867E+04  0.00000000000E+00 0.  1.
<mgrwt>
<rscale>  0 0.17776810E+04</rscale>
<asrwt>0</asrwt>
<pdfrwt beam="1">  1        2 0.44719022E+00 0.17776810E+04</pdfrwt>
<pdfrwt beam="2">  1       -1 0.41814669E-01 0.17776810E+04</pdfrwt>
<totfact> 0.12069034E+01</totfact>
</mgrwt>
</event>
<event>
12    7  0.1546317E-007  0.1172193E+04  0.7818608E-02  0.9137550E-01
          2   -1    0    0  501    0  0.00000000000E+00  0.00000000000E+00  0.65840062233E+03  0.65840062233E+03  0.00000000000E+00 0. -1.
         -1   -1    0    0    0  501 -0.00000000000E+00 -0.00000000000E+00 -0.52173279879E+03  0.52173279879E+03  0.00000000000E+00 0.  1.
         24    2    1    2    0    0  0.11168924273E+03 -0.20415052792E+03  0.30995581036E+02  0.24784395608E+03  0.79460528115E+02 0.  0.
        254    2    1    2    0    0 -0.11168924273E+03  0.20415052792E+03  0.10567224251E+03  0.93228946505E+03  0.89657408997E+03 0.  0.
         23    2    4    4    0    0  0.33202273950E+03  0.19800105018E+03 -0.13464570590E+03  0.41919433065E+03  0.90282364350E+02 0.  0.
         23    2    4    4    0    0 -0.44371198223E+03  0.61494777389E+01  0.24031794841E+03  0.51309513440E+03  0.92713328952E+02 0.  0.
          4    1    3    3  502    0  0.94762384407E+02 -0.17711077059E+03  0.54603335227E+02  0.20815777376E+03  0.00000000000E+00 0. -1.
         -3    1    3    3    0  502  0.16926858321E+02 -0.27039757330E+02 -0.23607754191E+02  0.39686182319E+02  0.00000000000E+00 0.  1.
         13    1    5    5    0    0  0.53305051880E+02  0.75618884470E+02 -0.34494773831E+02  0.98739726889E+02  0.00000000000E+00 0.  1.
        -13    1    5    5    0    0  0.27871768762E+03  0.12238216571E+03 -0.10015093207E+03  0.32045460376E+03  0.00000000000E+00 0. -1.
          3    1    6    6  503    0 -0.32550419349E+03  0.16735325928E+02  0.12949519646E+03  0.35071649095E+03  0.00000000000E+00 0. -1.
         -3    1    6    6    0  503 -0.11820778874E+03 -0.10585848189E+02  0.11082275195E+03  0.16237864345E+03  0.00000000000E+00 0.  1.
<mgrwt>
<rscale>  0 0.11721932E+04</rscale>
<asrwt>0</asrwt>
<pdfrwt beam="1">  1        2 0.10129240E+00 0.11721932E+04</pdfrwt>
<pdfrwt beam="2">  1       -1 0.80266584E-01 0.11721932E+04</pdfrwt>
<totfact> 0.77440209E+01</totfact>
</mgrwt>
</event>
<event>
12    7  0.1546317E-007  0.1762545E+04  0.7818608E-02  0.8726475E-01
          2   -1    0    0  501    0  0.00000000000E+00  0.00000000000E+00  0.17915482233E+04  0.17915482233E+04  0.00000000000E+00 0. -1.
         -1   -1    0    0    0  501 -0.00000000000E+00 -0.00000000000E+00 -0.43350292299E+03  0.43350292299E+03  0.00000000000E+00 0.  1.
         24    2    1    2    0    0  0.80616482865E+02  0.42927003411E+03 -0.10608696811E+03  0.45665121943E+03  0.80648074450E+02 0.  0.
        254    2    1    2    0    0 -0.80616482865E+02 -0.42927003411E+03  0.14641322684E+04  0.17683999268E+04  0.89038375006E+03 0.  0.
         23    2    4    4    0    0  0.80380530620E+02 -0.62507255609E+03  0.13153440067E+04  0.14611568297E+04  0.87593921908E+02 0.  0.
         23    2    4    4    0    0 -0.16099701349E+03  0.19580252198E+03  0.14878826173E+03  0.30724309709E+03  0.89452266132E+02 0.  0.
          2    1    3    3  502    0 -0.66468843572E+00  0.84528479627E+02  0.70559465429E+01  0.84825067405E+02  0.00000000000E+00 0. -1.
         -1    1    3    3    0  502  0.81281171301E+02  0.34474155448E+03 -0.11314291465E+03  0.37182615203E+03  0.00000000000E+00 0.  1.
         13    1    5    5    0    0  0.16808971468E+02 -0.12505866253E+03  0.18992479034E+03  0.22802113188E+03  0.00000000000E+00 0. -1.
        -13    1    5    5    0    0  0.63571559152E+02 -0.50001389356E+03  0.11254192163E+04  0.12331356979E+04  0.00000000000E+00 0.  1.
          3    1    6    6  503    0  0.10916800839E+02  0.19898845196E+02  0.97281616510E+01  0.24693677527E+02  0.00000000000E+00 0. -1.
         -3    1    6    6    0  503 -0.17191381432E+03  0.17590367678E+03  0.13906010008E+03  0.28254941956E+03  0.00000000000E+00 0.  1.
<mgrwt>
<rscale>  0 0.17625452E+04</rscale>
<asrwt>0</asrwt>
<pdfrwt beam="1">  1        2 0.27562280E+00 0.17625452E+04</pdfrwt>
<pdfrwt beam="2">  1       -1 0.66692758E-01 0.17625452E+04</pdfrwt>
<totfact> 0.21428016E+01</totfact>
</mgrwt>
</event>
<event>
12    7  0.1546317E-007  0.1982033E+04  0.7818608E-02  0.8615067E-01
          2   -1    0    0  501    0  0.00000000000E+00  0.00000000000E+00  0.24981451256E+04  0.24981451256E+04  0.00000000000E+00 0. -1.
         -1   -1    0    0    0  501 -0.00000000000E+00 -0.00000000000E+00 -0.39313722891E+03  0.39313722891E+03  0.00000000000E+00 0.  1.
         24    2    1    2    0    0 -0.54344262910E+03 -0.21429655731E+03  0.16479497921E+04  0.17502562639E+04  0.80034781453E+02 0.  0.
        254    2    1    2    0    0  0.54344262910E+03  0.21429655731E+03  0.45705810453E+03  0.11410260906E+04  0.86705566310E+03 0.  0.
         23    2    4    4    0    0  0.15399863591E+03 -0.16104928879E+03  0.53566116394E+03  0.58701967601E+03  0.89480524026E+02 0.  0.
         23    2    4    4    0    0  0.38944399319E+03  0.37534584610E+03 -0.78603059414E+02  0.55400641460E+03  0.90518166359E+02 0.  0.
          2    1    3    3  502    0 -0.52065354293E+03 -0.21790272468E+03  0.15482007996E+04  0.16478736072E+04  0.00000000000E+00 0. -1.
         -1    1    3    3    0  502 -0.22789086178E+02  0.36061673663E+01  0.99748992489E+02  0.10238265671E+03  0.00000000000E+00 0.  1.
         13    1    5    5    0    0  0.15046606778E+03 -0.17093038511E+03  0.49246293977E+03  0.54256518608E+03  0.00000000000E+00 0.  1.
        -13    1    5    5    0    0  0.35325681330E+01  0.98810963247E+01  0.43198224176E+02  0.44454489921E+02  0.00000000000E+00 0. -1.
          2    1    6    6  503    0  0.71661242458E+01  0.62085639523E+01 -0.16430294009E+02  0.18969822463E+02  0.00000000000E+00 0. -1.
         -2    1    6    6    0  503  0.38227786895E+03  0.36913728215E+03 -0.62172765404E+02  0.53503659213E+03  0.00000000000E+00 0.  1.
<mgrwt>
<rscale>  0 0.19820332E+04</rscale>
<asrwt>0</asrwt>
<pdfrwt beam="1">  1        2 0.38433001E+00 0.19820332E+04</pdfrwt>
<pdfrwt beam="2">  1       -1 0.60482652E-01 0.19820332E+04</pdfrwt>
<totfact> 0.10252128E+01</totfact>
</mgrwt>
</event>
<event>
12    7  0.1546317E-007  0.2410640E+04  0.7818608E-02  0.8435531E-01
          2   -1    0    0  501    0  0.00000000000E+00  0.00000000000E+00  0.11880318930E+04  0.11880318930E+04  0.00000000000E+00 0. -1.
         -1   -1    0    0    0  501 -0.00000000000E+00 -0.00000000000E+00 -0.12228596579E+04  0.12228596579E+04  0.00000000000E+00 0.  1.
         24    2    1    2    0    0 -0.49662014877E+03 -0.41752320965E+03  0.79164838109E+03  0.10265035442E+04  0.77750654607E+02 0.  0.
        254    2    1    2    0    0  0.49662014877E+03  0.41752320965E+03 -0.82647614595E+03  0.13843880067E+04  0.90139343819E+03 0.  0.
         23    2    4    4    0    0  0.73846937265E+03  0.32912032867E+03 -0.73415546191E+03  0.10957915636E+04  0.90098299067E+02 0.  0.
         23    2    4    4    0    0 -0.24184922388E+03  0.88402880984E+02 -0.92320684036E+02  0.28859644307E+03  0.91971092177E+02 0.  0.
          4    1    3    3  502    0 -0.41958257324E+03 -0.37203159931E+03  0.64463470857E+03  0.85440678494E+03  0.00000000000E+00 0. -1.
         -3    1    3    3    0  502 -0.77037575524E+02 -0.45491610343E+02  0.14701367252E+03  0.17209675930E+03  0.00000000000E+00 0.  1.
         13    1    5    5    0    0  0.19841053876E+03  0.46053810247E+02 -0.17789928122E+03  0.27043640582E+03  0.00000000000E+00 0.  1.
        -13    1    5    5    0    0  0.54005883388E+03  0.28306651842E+03 -0.55625618069E+03  0.82535515777E+03  0.00000000000E+00 0. -1.
          2    1    6    6  503    0 -0.42537139486E+02 -0.52683747739E+01  0.12569289604E+02  0.44667113736E+02  0.00000000000E+00 0. -1.
         -2    1    6    6    0  503 -0.19931208439E+03  0.93671255758E+02 -0.10488997364E+03  0.24392932934E+03  0.00000000000E+00 0.  1.
<mgrwt>
<rscale>  0 0.24106400E+04</rscale>
<asrwt>0</asrwt>
<pdfrwt beam="1">  1        2 0.18277414E+00 0.24106400E+04</pdfrwt>
<pdfrwt beam="2">  1       -1 0.18813225E+00 0.24106400E+04</pdfrwt>
<totfact> 0.35916103E+00</totfact>
</mgrwt>
</event>
<event>
12    7  0.1546317E-007  0.1449652E+04  0.7818608E-02  0.8918642E-01
         -1   -1    0    0    0  501 -0.00000000000E+00  0.00000000000E+00  0.24987751127E+03  0.24987751127E+03  0.00000000000E+00 0.  1.
          2   -1    0    0  501    0  0.00000000000E+00 -0.00000000000E+00 -0.21025211618E+04  0.21025211618E+04  0.00000000000E+00 0. -1.
         24    2    1    2    0    0  0.40179763905E+03 -0.17782215621E+03 -0.52879801241E+03  0.69218499271E+03  0.80191422310E+02 0.  0.
        254    2    1    2    0    0 -0.40179763905E+03  0.17782215621E+03 -0.13238456381E+04  0.16602136804E+04  0.90037777010E+03 0.  0.
         23    2    4    4    0    0 -0.67701742845E+03  0.18029015328E+03 -0.10124415258E+04  0.12346006881E+04  0.91344831019E+02 0.  0.
         23    2    4    4    0    0  0.27521978940E+03 -0.24679970748E+01 -0.31140411236E+03  0.42561299226E+03  0.91770771501E+02 0.  0.
          4    1    3    3  502    0  0.88553281733E+02 -0.64499955492E+02 -0.17314968299E+03  0.20489690257E+03  0.00000000000E+00 0. -1.
         -3    1    3    3    0  502  0.31324435732E+03 -0.11332220071E+03 -0.35564832943E+03  0.48728809014E+03  0.00000000000E+00 0.  1.
         13    1    5    5    0    0 -0.42265758597E+03  0.15619460286E+03 -0.62479844658E+03  0.77033063537E+03  0.00000000000E+00 0.  1.
        -13    1    5    5    0    0 -0.25435984249E+03  0.24095550421E+02 -0.38764307918E+03  0.46427005273E+03  0.00000000000E+00 0. -1.
          4    1    6    6  503    0 -0.49801985795E+01 -0.30120785438E+01 -0.22129768819E+02  0.22882343915E+02  0.00000000000E+00 0. -1.
         -4    1    6    6    0  503  0.28019998798E+03  0.54408146901E+00 -0.28927434354E+03  0.40273064835E+03  0.00000000000E+00 0.  1.
<mgrwt>
<rscale>  0 0.14496520E+04</rscale>
<asrwt>0</asrwt>
<pdfrwt beam="1">  1        2 0.32346480E+00 0.14496520E+04</pdfrwt>
<pdfrwt beam="2">  1       -1 0.38442693E-01 0.14496520E+04</pdfrwt>
<totfact> 0.42408404E+01</totfact>
</mgrwt>
</event>
<event>
12    7  0.1546317E-007  0.1760214E+04  0.7818608E-02  0.8727748E-01
          2   -1    0    0  501    0  0.00000000000E+00  0.00000000000E+00  0.54101994713E+03  0.54101994713E+03  0.00000000000E+00 0. -1.
         -1   -1    0    0    0  501 -0.00000000000E+00 -0.00000000000E+00 -0.14317192738E+04  0.14317192738E+04  0.00000000000E+00 0.  1.
         24    2    1    2    0    0 -0.19744947793E+03 -0.53221476861E+03 -0.70025581445E+03  0.90496626994E+03  0.79792780339E+02 0.  0.
        254    2    1    2    0    0  0.19744947793E+03  0.53221476861E+03 -0.19044351222E+03  0.10677729510E+04  0.88409925194E+03 0.  0.
         23    2    4    4    0    0 -0.90076378355E+02  0.42080910822E+03  0.26247360473E+03  0.51226789717E+03  0.91279492681E+02 0.  0.
         23    2    4    4    0    0  0.28752585628E+03  0.11140566039E+03 -0.45291711695E+03  0.55550505383E+03  0.91485577021E+02 0.  0.
          4    1    3    3  502    0  0.22020799984E+01 -0.31293893836E+01 -0.19955723997E+02  0.20319280364E+02  0.00000000000E+00 0. -1.
         -3    1    3    3    0  502 -0.19965155793E+03 -0.52908537923E+03 -0.68030009045E+03  0.88464698958E+03  0.00000000000E+00 0.  1.
         13    1    5    5    0    0 -0.23210456604E+02  0.26686798111E+02  0.44843600318E+02  0.57112686670E+02  0.00000000000E+00 0.  1.
        -13    1    5    5    0    0 -0.66865921751E+02  0.39412231011E+03  0.21763000442E+03  0.45515521050E+03  0.00000000000E+00 0. -1.
          2    1    6    6  503    0  0.20583211616E+03  0.43254441216E+02 -0.25270535522E+03  0.32878230379E+03  0.00000000000E+00 0. -1.
         -2    1    6    6    0  503  0.81693740124E+02  0.68151219170E+02 -0.20021176173E+03  0.22672275004E+03  0.00000000000E+00 0.  1.
<mgrwt>
<rscale>  0 0.17602144E+04</rscale>
<asrwt>0</asrwt>
<pdfrwt beam="1">  1        2 0.83233839E-01 0.17602144E+04</pdfrwt>
<pdfrwt beam="2">  1       -1 0.22026450E+00 0.17602144E+04</pdfrwt>
<totfact> 0.66570045E+00</totfact>
</mgrwt>
</event>
<event>
12    7  0.1546317E-007  0.1178568E+04  0.7818608E-02  0.9131825E-01
          2   -1    0    0  501    0  0.00000000000E+00  0.00000000000E+00  0.10416441394E+04  0.10416441394E+04  0.00000000000E+00 0. -1.
         -1   -1    0    0    0  501 -0.00000000000E+00 -0.00000000000E+00 -0.33337271276E+03  0.33337271276E+03  0.00000000000E+00 0.  1.
         24    2    1    2    0    0  0.13350672512E+03 -0.13599144538E+03 -0.67672652419E+01  0.20637956435E+03  0.78924076404E+02 0.  0.
        254    2    1    2    0    0 -0.13350672512E+03  0.13599144538E+03  0.71503869186E+03  0.11686372878E+04  0.90449713138E+03 0.  0.
         23    2    4    4    0    0 -0.85211172016E+02  0.51610640366E+03  0.42950002557E+03  0.68258895115E+03  0.88490906457E+02 0.  0.
         23    2    4    4    0    0 -0.48295553102E+02 -0.38011495828E+03  0.28553866628E+03  0.48604833664E+03  0.88830251885E+02 0.  0.
          4    1    3    3  502    0 -0.78914815764E+01  0.12583957383E+01 -0.47841774382E+01  0.93138281638E+01  0.00000000000E+00 0. -1.
         -1    1    3    3    0  502  0.14139820669E+03 -0.13724984112E+03 -0.19830878037E+01  0.19706573619E+03  0.00000000000E+00 0.  1.
         13    1    5    5    0    0 -0.37341887367E+02  0.18819982521E+03  0.10470820551E+03  0.21858041783E+03  0.00000000000E+00 0. -1.
        -13    1    5    5    0    0 -0.47869284649E+02  0.32790657845E+03  0.32479182007E+03  0.46400853331E+03  0.00000000000E+00 0.  1.
          1    1    6    6  503    0 -0.38953867352E+02 -0.36443126153E+03  0.28987568554E+03  0.46728520331E+03  0.00000000000E+00 0. -1.
         -1    1    6    6    0  503 -0.93416857497E+01 -0.15683696748E+02 -0.43370192587E+01  0.18763133331E+02  0.00000000000E+00 0.  1.
<mgrwt>
<rscale>  0 0.11785682E+04</rscale>
<asrwt>0</asrwt>
<pdfrwt beam="1">  1        2 0.16025294E+00 0.11785682E+04</pdfrwt>
<pdfrwt beam="2">  1       -1 0.51288110E-01 0.11785682E+04</pdfrwt>
<totfact> 0.10206287E+02</totfact>
</mgrwt>
</event>
<event>
12    7  0.1546317E-007  0.2473376E+04  0.7818608E-02  0.8412532E-01
         -1   -1    0    0    0  501 -0.00000000000E+00  0.00000000000E+00  0.10372460372E+04  0.10372460372E+04  0.00000000000E+00 0.  1.
          2   -1    0    0  501    0  0.00000000000E+00 -0.00000000000E+00 -0.14744785905E+04  0.14744785905E+04  0.00000000000E+00 0. -1.
         24    2    1    2    0    0  0.29299485771E+03 -0.60558822565E+03  0.65354465414E+03  0.94172669989E+03  0.84530921184E+02 0.  0.
        254    2    1    2    0    0 -0.29299485771E+03  0.60558822565E+03 -0.10907772075E+04  0.15699979279E+04  0.90692639803E+03 0.  0.
         23    2    4    4    0    0 -0.44191208121E+03  0.21353722201E+03 -0.10195159532E+04  0.11351642693E+04  0.91108214209E+02 0.  0.
         23    2    4    4    0    0  0.14891722350E+03  0.39205100365E+03 -0.71261254259E+02  0.43483365858E+03  0.90121114934E+02 0.  0.
          4    1    3    3  502    0  0.14724922953E+03 -0.21073065540E+03  0.25373196385E+03  0.36120583357E+03  0.00000000000E+00 0. -1.
         -3    1    3    3    0  502  0.14574562817E+03 -0.39485757026E+03  0.39981269028E+03  0.58052086632E+03  0.00000000000E+00 0.  1.
         13    1    5    5    0    0 -0.26135494787E+03  0.94825057568E+02 -0.49228348384E+03  0.56536822406E+03  0.00000000000E+00 0. -1.
        -13    1    5    5    0    0 -0.18055713334E+03  0.11871216444E+03 -0.52723246938E+03  0.56979604523E+03  0.00000000000E+00 0.  1.
          4    1    6    6  503    0  0.10678361923E+03  0.35496494479E+03 -0.76393894356E+02  0.37846912748E+03  0.00000000000E+00 0. -1.
         -4    1    6    6    0  503  0.42133604277E+02  0.37086058860E+02  0.51326400977E+01  0.56364531095E+02  0.00000000000E+00 0.  1.
<mgrwt>
<rscale>  0 0.24733759E+04</rscale>
<asrwt>0</asrwt>
<pdfrwt beam="1">  1        2 0.22684286E+00 0.24733759E+04</pdfrwt>
<pdfrwt beam="2">  1       -1 0.15957631E+00 0.24733759E+04</pdfrwt>
<totfact> 0.39339180E+00</totfact>
</mgrwt>
</event>
<event>
12    7  0.1546317E-007  0.1848461E+04  0.7818608E-02  0.8680945E-01
          2   -1    0    0  501    0  0.00000000000E+00  0.00000000000E+00  0.17882987844E+04  0.17882987844E+04  0.00000000000E+00 0. -1.
         -1   -1    0    0    0  501 -0.00000000000E+00 -0.00000000000E+00 -0.47766189528E+03  0.47766189528E+03  0.00000000000E+00 0.  1.
         24    2    1    2    0    0 -0.17988233693E+03 -0.59331830965E+03  0.13805098854E+03  0.64021396351E+03  0.80197081810E+02 0.  0.
        254    2    1    2    0    0  0.17988233693E+03  0.59331830965E+03  0.11725859006E+04  0.16257467162E+04  0.94005873180E+03 0.  0.
         23    2    4    4    0    0 -0.70349604920E+02  0.78793490319E+03  0.82480141124E+03  0.11464835917E+04  0.91305966347E+02 0.  0.
         23    2    4    4    0    0  0.25023194185E+03 -0.19461659354E+03  0.34778448936E+03  0.47926312449E+03  0.90815462621E+02 0.  0.
          2    1    3    3  502    0 -0.14959565547E+03 -0.37602942137E+03  0.71575539728E+02  0.41097450499E+03  0.00000000000E+00 0. -1.
         -1    1    3    3    0  502 -0.30286681458E+02 -0.21728888828E+03  0.66475448809E+02  0.22923945851E+03  0.00000000000E+00 0.  1.
         13    1    5    5    0    0 -0.26929211881E+02  0.53160208766E+03  0.49842151131E+03  0.72921187936E+03  0.00000000000E+00 0.  1.
        -13    1    5    5    0    0 -0.43420393038E+02  0.25633281553E+03  0.32637989993E+03  0.41727171235E+03  0.00000000000E+00 0. -1.
          3    1    6    6  503    0  0.29308266206E+02  0.75509772682E+01  0.30199353674E+02  0.42755031143E+02  0.00000000000E+00 0. -1.
         -3    1    6    6    0  503  0.22092367564E+03 -0.20216757081E+03  0.31758513568E+03  0.43650809334E+03  0.00000000000E+00 0.  1.
<mgrwt>
<rscale>  0 0.18484612E+04</rscale>
<asrwt>0</asrwt>
<pdfrwt beam="1">  1        2 0.27512289E+00 0.18484612E+04</pdfrwt>
<pdfrwt beam="2">  1       -1 0.73486446E-01 0.18484612E+04</pdfrwt>
<totfact> 0.17502111E+01</totfact>
</mgrwt>
</event>
<event>
12    7  0.1546317E-007  0.1429074E+04  0.7818608E-02  0.8933038E-01
         -1   -1    0    0    0  501 -0.00000000000E+00  0.00000000000E+00  0.90679000961E+03  0.90679000961E+03  0.00000000000E+00 0.  1.
          2   -1    0    0  501    0  0.00000000000E+00 -0.00000000000E+00 -0.56304417162E+03  0.56304417162E+03  0.00000000000E+00 0. -1.
         24    2    1    2    0    0 -0.92478795141E+02 -0.33605358327E+03 -0.14062205943E+03  0.38350360332E+03  0.76263436698E+02 0.  0.
        254    2    1    2    0    0  0.92478795141E+02  0.33605358327E+03  0.48436789742E+03  0.10863305779E+04  0.90775411101E+03 0.  0.
         23    2    4    4    0    0 -0.25084408320E+03  0.30807034236E+03 -0.83443706867E+02  0.41598552567E+03  0.90835100220E+02 0.  0.
         23    2    4    4    0    0  0.34332287834E+03  0.27983240918E+02  0.56781160429E+03  0.67034505224E+03  0.91097807465E+02 0.  0.
          4    1    3    3  502    0 -0.99160923543E+02 -0.23710402972E+03 -0.11143384790E+03  0.28012267335E+03  0.00000000000E+00 0. -1.
         -3    1    3    3    0  502  0.66821284018E+01 -0.98949553555E+02 -0.29188211534E+02  0.10338092997E+03  0.00000000000E+00 0.  1.
         13    1    5    5    0    0 -0.15244129476E+03  0.19293461748E+03 -0.96094936197E+02  0.26400066616E+03  0.00000000000E+00 0.  1.
        -13    1    5    5    0    0 -0.98402788439E+02  0.11513572487E+03  0.12651229330E+02  0.15198485950E+03  0.00000000000E+00 0. -1.
          3    1    6    6  503    0  0.40625015507E+01 -0.12805438306E+02  0.12660226340E+02  0.18459807692E+02  0.00000000000E+00 0. -1.
         -3    1    6    6    0  503  0.33926037679E+03  0.40788679224E+02  0.55515137795E+03  0.65188524455E+03  0.00000000000E+00 0.  1.
<mgrwt>
<rscale>  0 0.14290736E+04</rscale>
<asrwt>0</asrwt>
<pdfrwt beam="1">  1        2 0.86622180E-01 0.14290736E+04</pdfrwt>
<pdfrwt beam="2">  1       -1 0.13950616E+00 0.14290736E+04</pdfrwt>
<totfact> 0.25147583E+01</totfact>
</mgrwt>
</event>
<event>
12    7  0.1546317E-007  0.2144768E+04  0.7818608E-02  0.8541775E-01
         -1   -1    0    0    0  501 -0.00000000000E+00  0.00000000000E+00  0.67308726573E+03  0.67308726573E+03  0.00000000000E+00 0.  1.
          2   -1    0    0  501    0  0.00000000000E+00 -0.00000000000E+00 -0.17085560703E+04  0.17085560703E+04  0.00000000000E+00 0. -1.
         24    2    1    2    0    0 -0.61312696872E+03 -0.58892039526E+03 -0.10162604933E+03  0.85993432788E+03  0.80045503618E+02 0.  0.
        254    2    1    2    0    0  0.61312696872E+03  0.58892039526E+03 -0.93384275525E+03  0.15217090081E+04  0.84899004836E+03 0.  0.
         23    2    4    4    0    0  0.20683363725E+03  0.19119825179E+03  0.12105444322E+03  0.31983758473E+03  0.91131648713E+02 0.  0.
         23    2    4    4    0    0  0.40629333147E+03  0.39772214346E+03 -0.10548971985E+04  0.12018714234E+04  0.91813095393E+02 0.  0.
          2    1    3    3  502    0 -0.52804009875E+03 -0.49252095658E+03 -0.59065863189E+02  0.72449431658E+03  0.00000000000E+00 0. -1.
         -1    1    3    3    0  502 -0.85086869971E+02 -0.96399438674E+02 -0.42560186140E+02  0.13544001131E+03  0.00000000000E+00 0.  1.
         13    1    5    5    0    0 -0.79445359776E+01  0.26555305998E+01  0.10438226377E+02  0.13383723868E+02  0.00000000000E+00 0. -1.
        -13    1    5    5    0    0  0.21477817323E+03  0.18854272119E+03  0.11061621684E+03  0.30645386086E+03  0.00000000000E+00 0.  1.
          4    1    6    6  503    0  0.30593376565E+03  0.31060582008E+03 -0.88135281028E+03  0.98328745575E+03  0.00000000000E+00 0. -1.
         -4    1    6    6    0  503  0.10035956582E+03  0.87116323377E+02 -0.17354438818E+03  0.21858396766E+03  0.00000000000E+00 0.  1.
<mgrwt>
<rscale>  0 0.21447679E+04</rscale>
<asrwt>0</asrwt>
<pdfrwt beam="1">  1        2 0.26285478E+00 0.21447679E+04</pdfrwt>
<pdfrwt beam="2">  1       -1 0.10355189E+00 0.21447679E+04</pdfrwt>
<totfact> 0.89184335E+00</totfact>
</mgrwt>
</event>
<event>
12    7  0.1546317E-007  0.1656635E+04  0.7818608E-02  0.8786491E-01
          2   -1    0    0  501    0  0.00000000000E+00  0.00000000000E+00  0.56108877289E+03  0.56108877289E+03  0.00000000000E+00 0. -1.
         -1   -1    0    0    0  501 -0.00000000000E+00 -0.00000000000E+00 -0.12228193265E+04  0.12228193265E+04  0.00000000000E+00 0.  1.
         24    2    1    2    0    0 -0.38398420785E+03 -0.23917803530E+03 -0.61928062553E+03  0.77119658852E+03  0.81152206018E+02 0.  0.
        254    2    1    2    0    0  0.38398420785E+03  0.23917803530E+03 -0.42449928065E+02  0.10127115109E+04  0.90505944743E+03 0.  0.
         23    2    4    4    0    0  0.53001941428E+03  0.53564394167E+02  0.27570732929E+03  0.60684686329E+03  0.91972062181E+02 0.  0.
         23    2    4    4    0    0 -0.14603520644E+03  0.18561364113E+03 -0.31815725735E+03  0.40586464757E+03  0.87882685707E+02 0.  0.
          4    1    3    3  502    0 -0.70668196666E+01  0.65703294271E+01 -0.13078268264E+02  0.16252700384E+02  0.00000000000E+00 0. -1.
         -3    1    3    3    0  502 -0.37691738818E+03 -0.24574836472E+03 -0.60620235727E+03  0.75494388814E+03  0.00000000000E+00 0.  1.
         13    1    5    5    0    0  0.26048865831E+03  0.53035325009E+02  0.94792134176E+02  0.28222798498E+03  0.00000000000E+00 0.  1.
        -13    1    5    5    0    0  0.26953075597E+03  0.52906915859E+00  0.18091519511E+03  0.32461887831E+03  0.00000000000E+00 0. -1.
          3    1    6    6  503    0 -0.18390682584E+02 -0.73283052389E+01 -0.16907895257E+02  0.26034557527E+02  0.00000000000E+00 0.  1.
         -3    1    6    6    0  503 -0.12764452385E+03  0.19294194637E+03 -0.30124936210E+03  0.37983009004E+03  0.00000000000E+00 0. -1.
<mgrwt>
<rscale>  0 0.16566354E+04</rscale>
<asrwt>0</asrwt>
<pdfrwt beam="1">  1        2 0.86321350E-01 0.16566354E+04</pdfrwt>
<pdfrwt beam="2">  1       -1 0.18812605E+00 0.16566354E+04</pdfrwt>
<totfact> 0.10681549E+01</totfact>
</mgrwt>
</event>
<event>
12    7  0.1546317E-007  0.1620591E+04  0.7818608E-02  0.8807997E-01
         -1   -1    0    0    0  501 -0.00000000000E+00  0.00000000000E+00  0.29343887237E+04  0.29343887237E+04  0.00000000000E+00 0.  1.
          2   -1    0    0  501    0  0.00000000000E+00 -0.00000000000E+00 -0.22375323267E+03  0.22375323267E+03  0.00000000000E+00 0. -1.
         24    2    1    2    0    0 -0.24647004317E+03  0.28817361446E+03  0.17307403541E+04  0.17736371138E+04  0.80838876975E+02 0.  0.
        254    2    1    2    0    0  0.24647004317E+03 -0.28817361446E+03  0.97989513693E+03  0.13845048425E+04  0.90159173984E+03 0.  0.
         23    2    4    4    0    0  0.30800570070E+02 -0.57108041900E+03  0.76248989878E+03  0.95766179149E+03  0.92971721843E+02 0.  0.
         23    2    4    4    0    0  0.21566947310E+03  0.28290680454E+03  0.21740523815E+03  0.42684305103E+03  0.91544366043E+02 0.  0.
          4    1    3    3  502    0 -0.32132015535E+02  0.12977598981E+02  0.95132597080E+02  0.10124769392E+03  0.00000000000E+00 0. -1.
         -3    1    3    3    0  502 -0.21433802764E+03  0.27519601547E+03  0.16356077570E+04  0.16723894199E+04  0.00000000000E+00 0.  1.
         13    1    5    5    0    0  0.34914842691E+02 -0.33177845366E+03  0.37217482586E+03  0.49981005348E+03  0.00000000000E+00 0. -1.
        -13    1    5    5    0    0 -0.41142726215E+01 -0.23930196534E+03  0.39031507293E+03  0.45785173802E+03  0.00000000000E+00 0.  1.
          3    1    6    6  503    0  0.10411153757E+03  0.10628517042E+03  0.13930708228E+03  0.20381906898E+03  0.00000000000E+00 0. -1.
         -3    1    6    6    0  503  0.11155793553E+03  0.17662163412E+03  0.78098155869E+02  0.22302398205E+03  0.00000000000E+00 0.  1.
<mgrwt>
<rscale>  0 0.16205912E+04</rscale>
<asrwt>0</asrwt>
<pdfrwt beam="1">  1        2 0.34423576E-01 0.16205912E+04</pdfrwt>
<pdfrwt beam="2">  1       -1 0.45144439E+00 0.16205912E+04</pdfrwt>
<totfact> 0.53095814E-01</totfact>
</mgrwt>
</event>
<event>
12    7  0.1546317E-007  0.1815295E+04  0.7818608E-02  0.8698208E-01
         -1   -1    0    0    0  501 -0.00000000000E+00  0.00000000000E+00  0.50132433838E+03  0.50132433838E+03  0.00000000000E+00 0.  1.
          2   -1    0    0  501    0  0.00000000000E+00 -0.00000000000E+00 -0.16432952351E+04  0.16432952351E+04  0.00000000000E+00 0. -1.
         24    2    1    2    0    0 -0.28647619872E+03  0.42199254354E+03 -0.87386520843E+03  0.10149260488E+04  0.79297936647E+02 0.  0.
        254    2    1    2    0    0  0.28647619872E+03 -0.42199254354E+03 -0.26810568827E+03  0.11296935247E+04  0.97168949791E+03 0.  0.
         23    2    4    4    0    0 -0.31958971375E+03 -0.16040156549E+02  0.33710659201E+02  0.33512977900E+03  0.93705327842E+02 0.  0.
         23    2    4    4    0    0  0.60606591248E+03 -0.40595238700E+03 -0.30181634747E+03  0.79456374567E+03  0.90139933234E+02 0.  0.
          2    1    3    3  502    0 -0.28056872891E+03  0.37911991687E+03 -0.81834274571E+03  0.94452928619E+03  0.00000000000E+00 0. -1.
         -1    1    3    3    0  502 -0.59074698101E+01  0.42872626677E+02 -0.55522462719E+02  0.70396762597E+02  0.00000000000E+00 0.  1.
         13    1    5    5    0    0 -0.45040152212E+02  0.99137242754E+01  0.37328868735E+02  0.59332467345E+02  0.00000000000E+00 0.  1.
        -13    1    5    5    0    0 -0.27454956154E+03 -0.25953880824E+02 -0.36182095335E+01  0.27579731165E+03  0.00000000000E+00 0. -1.
          1    1    6    6  503    0  0.32046461805E+03 -0.24308339472E+03 -0.20711244843E+03  0.45241869381E+03  0.00000000000E+00 0.  1.
         -1    1    6    6    0  503  0.28560129443E+03 -0.16286899227E+03 -0.94703899042E+02  0.34214505187E+03  0.00000000000E+00 0. -1.
<mgrwt>
<rscale>  0 0.18152949E+04</rscale>
<asrwt>0</asrwt>
<pdfrwt beam="1">  1        2 0.25281465E+00 0.18152949E+04</pdfrwt>
<pdfrwt beam="2">  1       -1 0.77126823E-01 0.18152949E+04</pdfrwt>
<totfact> 0.19098353E+01</totfact>
</mgrwt>
</event>
<event>
12    7  0.1546317E-007  0.1468934E+04  0.7818608E-02  0.8905378E-01
          2   -1    0    0  501    0  0.00000000000E+00  0.00000000000E+00  0.12400721461E+04  0.12400721461E+04  0.00000000000E+00 0. -1.
         -1   -1    0    0    0  501 -0.00000000000E+00 -0.00000000000E+00 -0.43500836970E+03  0.43500836970E+03  0.00000000000E+00 0.  1.
         24    2    1    2    0    0 -0.24280728295E+03  0.16114208849E+03 -0.14216129185E+03  0.33436835501E+03  0.81671381740E+02 0.  0.
        254    2    1    2    0    0  0.24280728295E+03 -0.16114208849E+03  0.94722506823E+03  0.13407121608E+04  0.90296822692E+03 0.  0.
         23    2    4    4    0    0  0.46159163800E+03 -0.38372334517E+03  0.49155110074E+03  0.78119792854E+03  0.91308668914E+02 0.  0.
         23    2    4    4    0    0 -0.21878435505E+03  0.22258125668E+03  0.45567396749E+03  0.55951423223E+03  0.89489673033E+02 0.  0.
          4    1    3    3  502    0 -0.20787714201E+03  0.13061088094E+03 -0.82931922982E+02  0.25913280811E+03  0.00000000000E+00 0. -1.
         -3    1    3    3    0  502 -0.34930140940E+02  0.30531207550E+02 -0.59229368870E+02  0.75235546900E+02  0.00000000000E+00 0.  1.
         13    1    5    5    0    0  0.58361871897E+02 -0.16680469109E+02  0.64798014857E+02  0.88786985930E+02  0.00000000000E+00 0. -1.
        -13    1    5    5    0    0  0.40322976611E+03 -0.36704287606E+03  0.42675308588E+03  0.69241094261E+03  0.00000000000E+00 0.  1.
          1    1    6    6  503    0 -0.78381059259E+02  0.25402040697E+02  0.12497381988E+03  0.14969071374E+03  0.00000000000E+00 0. -1.
         -1    1    6    6    0  503 -0.14040329579E+03  0.19717921598E+03  0.33070014761E+03  0.40982351850E+03  0.00000000000E+00 0.  1.
<mgrwt>
<rscale>  0 0.14689340E+04</rscale>
<asrwt>0</asrwt>
<pdfrwt beam="1">  1        2 0.19078033E+00 0.14689340E+04</pdfrwt>
<pdfrwt beam="2">  1       -1 0.66924365E-01 0.14689340E+04</pdfrwt>
<totfact> 0.44776070E+01</totfact>
</mgrwt>
</event>
<event>
12    7  0.1546317E-007  0.1707689E+04  0.7818608E-02  0.8756991E-01
         -1   -1    0    0    0  501 -0.00000000000E+00  0.00000000000E+00  0.41381855231E+03  0.41381855231E+03  0.00000000000E+00 0.  1.
          2   -1    0    0  501    0  0.00000000000E+00 -0.00000000000E+00 -0.17617629603E+04  0.17617629603E+04  0.00000000000E+00 0. -1.
         24    2    1    2    0    0 -0.38359690399E+03  0.46688783959E+03 -0.36638145568E+03  0.71115741745E+03  0.79866525068E+02 0.  0.
        254    2    1    2    0    0  0.38359690399E+03 -0.46688783959E+03 -0.98156295226E+03  0.14644240951E+04  0.90329467040E+03 0.  0.
         23    2    4    4    0    0 -0.57041112448E+02 -0.49004671813E+03 -0.86314108283E+03  0.99835511714E+03  0.91109475850E+02 0.  0.
         23    2    4    4    0    0  0.44063801644E+03  0.23158878541E+02 -0.11842186943E+03  0.46606897797E+03  0.92186538487E+02 0.  0.
          4    1    3    3  502    0 -0.19945247285E+02  0.49002462864E+02 -0.52115316725E+02  0.74263453282E+02  0.00000000000E+00 0. -1.
         -3    1    3    3    0  502 -0.36365165670E+03  0.41788537673E+03 -0.31426613896E+03  0.63689396417E+03  0.00000000000E+00 0.  1.
         13    1    5    5    0    0 -0.76490672688E+02 -0.33397256594E+03 -0.62964811894E+03  0.71683000181E+03  0.00000000000E+00 0.  1.
        -13    1    5    5    0    0  0.19449560239E+02 -0.15607415220E+03 -0.23349296389E+03  0.28152511533E+03  0.00000000000E+00 0. -1.
          3    1    6    6  503    0  0.16196296397E+03 -0.34286783559E+02 -0.31204999063E+02  0.16846761466E+03  0.00000000000E+00 0. -1.
         -3    1    6    6    0  503  0.27867505247E+03  0.57445662100E+02 -0.87216870365E+02  0.29760136330E+03  0.00000000000E+00 0.  1.
<mgrwt>
<rscale>  0 0.17076887E+04</rscale>
<asrwt>0</asrwt>
<pdfrwt beam="1">  1        2 0.27104046E+00 0.17076887E+04</pdfrwt>
<pdfrwt beam="2">  1       -1 0.63664392E-01 0.17076887E+04</pdfrwt>
<totfact> 0.24559727E+01</totfact>
</mgrwt>
</event>
<event>
12    7  0.1546317E-007  0.1612471E+04  0.7818608E-02  0.8812923E-01
         -1   -1    0    0    0  501 -0.00000000000E+00  0.00000000000E+00  0.37440484144E+03  0.37440484144E+03  0.00000000000E+00 0.  1.
          2   -1    0    0  501    0  0.00000000000E+00 -0.00000000000E+00 -0.17361303107E+04  0.17361303107E+04  0.00000000000E+00 0. -1.
         24    2    1    2    0    0 -0.28473789307E+02  0.19687191482E+03 -0.11613142065E+04  0.11822145176E+04  0.97011194690E+02 0.  0.
        254    2    1    2    0    0  0.28473789307E+02 -0.19687191482E+03 -0.20041126277E+03  0.92832063456E+03  0.88433320574E+03 0.  0.
         23    2    4    4    0    0 -0.16940760808E+03 -0.14871615919E+03 -0.49900335969E+03  0.55511889568E+03  0.91308278246E+02 0.  0.
         23    2    4    4    0    0  0.19788139738E+03 -0.48155755626E+02  0.29859209692E+03  0.37320173888E+03  0.92985339340E+02 0.  0.
          4    1    3    3  502    0  0.18209183955E+02  0.15662639153E+03 -0.90176909349E+03  0.91545119961E+03  0.00000000000E+00 0. -1.
         -3    1    3    3    0  502 -0.46682973262E+02  0.40245523289E+02 -0.25954511303E+03  0.26676331801E+03  0.00000000000E+00 0.  1.
         13    1    5    5    0    0  0.41962102069E+01  0.81265356996E+01 -0.15850253704E+02  0.18299707786E+02  0.00000000000E+00 0.  1.
        -13    1    5    5    0    0 -0.17360381828E+03 -0.15684269489E+03 -0.48315310599E+03  0.53681918789E+03  0.00000000000E+00 0. -1.
          2    1    6    6  503    0  0.33860577508E+02  0.27121377609E+02  0.60166942334E+02  0.74176605358E+02  0.00000000000E+00 0. -1.
         -2    1    6    6    0  503  0.16402081987E+03 -0.75277133235E+02  0.23842515458E+03  0.29902513352E+03  0.00000000000E+00 0.  1.
<mgrwt>
<rscale>  0 0.16124709E+04</rscale>
<asrwt>0</asrwt>
<pdfrwt beam="1">  1        2 0.26709697E+00 0.16124709E+04</pdfrwt>
<pdfrwt beam="2">  1       -1 0.57600744E-01 0.16124709E+04</pdfrwt>
<totfact> 0.31194311E+01</totfact>
</mgrwt>
</event>
<event>
12    7  0.1546317E-007  0.1215674E+04  0.7818608E-02  0.9099247E-01
          2   -1    0    0  501    0  0.00000000000E+00  0.00000000000E+00  0.43097731787E+03  0.43097731787E+03  0.00000000000E+00 0. -1.
         -1   -1    0    0    0  501 -0.00000000000E+00 -0.00000000000E+00 -0.85727446619E+03  0.85727446619E+03  0.00000000000E+00 0.  1.
         24    2    1    2    0    0  0.71517968470E+02 -0.12966259476E+02 -0.51879353370E+03  0.52993761566E+03  0.80026259302E+02 0.  0.
        254    2    1    2    0    0 -0.71517968470E+02  0.12966259476E+02  0.92496385388E+02  0.75831416840E+03  0.74913406877E+03 0.  0.
         23    2    4    4    0    0 -0.35248689261E+03 -0.17351065472E+03  0.57966415639E+02  0.40755547408E+03  0.91588221672E+02 0.  0.
         23    2    4    4    0    0  0.28096892414E+03  0.18647691419E+03  0.34529969749E+02  0.35075869432E+03  0.90123065699E+02 0.  0.
          4    1    3    3  502    0  0.68314614878E+02 -0.29880212904E+01 -0.20768059270E+03  0.21864821852E+03  0.00000000000E+00 0. -1.
         -3    1    3    3    0  502  0.32033535914E+01 -0.99782381857E+01 -0.31111294100E+03  0.31128939714E+03  0.00000000000E+00 0.  1.
         13    1    5    5    0    0 -0.14505269630E+03 -0.95171255297E+02 -0.14974248025E+02  0.17413236529E+03  0.00000000000E+00 0. -1.
        -13    1    5    5    0    0 -0.20743419631E+03 -0.78339399419E+02  0.72940663664E+02  0.23342310878E+03  0.00000000000E+00 0.  1.
          4    1    6    6  503    0  0.22491438011E+03  0.12425363142E+03 -0.74821674286E+01  0.25706307812E+03  0.00000000000E+00 0.  1.
         -4    1    6    6    0  503  0.56054544026E+02  0.62223282770E+02  0.42012137178E+02  0.93695616198E+02  0.00000000000E+00 0. -1.
<mgrwt>
<rscale>  0 0.12156741E+04</rscale>
<asrwt>0</asrwt>
<pdfrwt beam="1">  1        2 0.66304204E-01 0.12156741E+04</pdfrwt>
<pdfrwt beam="2">  1       -1 0.13188838E+00 0.12156741E+04</pdfrwt>
<totfact> 0.40303467E+01</totfact>
</mgrwt>
</event>
<event>
12    7  0.1546317E-007  0.1308370E+04  0.7818608E-02  0.9022954E-01
          2   -1    0    0  501    0  0.00000000000E+00  0.00000000000E+00  0.32348515715E+04  0.32348515715E+04  0.00000000000E+00 0. -1.
         -1   -1    0    0    0  501 -0.00000000000E+00 -0.00000000000E+00 -0.13229596994E+03  0.13229596994E+03  0.00000000000E+00 0.  1.
         24    2    1    2    0    0 -0.29410736473E+03  0.15356534369E+03  0.90836017856E+03  0.96953179348E+03  0.69225918648E+02 0.  0.
        254    2    1    2    0    0  0.29410736473E+03 -0.15356534369E+03  0.21941954230E+04  0.23976157480E+04  0.90773689125E+03 0.  0.
         23    2    4    4    0    0  0.38790406527E+03 -0.11036128296E+01  0.21564628715E+04  0.21929307504E+04  0.90235127292E+02 0.  0.
         23    2    4    4    0    0 -0.93796700541E+02 -0.15246173086E+03  0.37732551540E+02  0.20468499756E+03  0.91813955205E+02 0.  0.
          2    1    3    3  502    0 -0.18170758692E+03  0.73797687328E+02  0.61271218502E+03  0.64333503517E+03  0.00000000000E+00 0. -1.
         -1    1    3    3    0  502 -0.11239977781E+03  0.79767656366E+02  0.29564799354E+03  0.32619675832E+03  0.00000000000E+00 0.  1.
         13    1    5    5    0    0  0.71467810410E+02 -0.18597018663E+02  0.26482281709E+03  0.27492657470E+03  0.00000000000E+00 0.  1.
        -13    1    5    5    0    0  0.31643625486E+03  0.17493405833E+02  0.18916400544E+04  0.19180041757E+04  0.00000000000E+00 0. -1.
          3    1    6    6  503    0 -0.45181754452E+02 -0.85812466393E+02  0.66194413943E+02  0.11741750620E+03  0.00000000000E+00 0. -1.
         -3    1    6    6    0  503 -0.48614946089E+02 -0.66649264471E+02 -0.28461862404E+02  0.87267491366E+02  0.00000000000E+00 0.  1.
<mgrwt>
<rscale>  0 0.13083697E+04</rscale>
<asrwt>0</asrwt>
<pdfrwt beam="1">  1        2 0.49766941E+00 0.13083697E+04</pdfrwt>
<pdfrwt beam="2">  1       -1 0.20353229E-01 0.13083697E+04</pdfrwt>
<totfact> 0.27682268E+01</totfact>
</mgrwt>
</event>
<event>
12    7  0.1546317E-007  0.2001999E+04  0.7818608E-02  0.8605686E-01
         -1   -1    0    0    0  501 -0.00000000000E+00  0.00000000000E+00  0.89709867996E+03  0.89709867996E+03  0.00000000000E+00 0.  1.
          2   -1    0    0  501    0  0.00000000000E+00 -0.00000000000E+00 -0.11169343305E+04  0.11169343305E+04  0.00000000000E+00 0. -1.
         24    2    1    2    0    0 -0.11532474369E+03  0.23122734254E+03  0.66536223958E+03  0.71826519063E+03  0.80200335246E+02 0.  0.
        254    2    1    2    0    0  0.11532474369E+03 -0.23122734254E+03 -0.88519789008E+03  0.12957678198E+04  0.91031481244E+03 0.  0.
         23    2    4    4    0    0  0.46908120535E+03  0.51529912838E+02 -0.50998561873E+03  0.70122393163E+03  0.94536563588E+02 0.  0.
         23    2    4    4    0    0 -0.35375646165E+03 -0.28275725538E+03 -0.37521227135E+03  0.59454388816E+03  0.87194533905E+02 0.  0.
          2    1    3    3  502    0 -0.69930192529E+01 -0.50588226446E+01  0.42011988674E+02  0.42889406584E+02  0.00000000000E+00 0. -1.
         -1    1    3    3    0  502 -0.10833172444E+03  0.23628616519E+03  0.62335025090E+03  0.67537578405E+03  0.00000000000E+00 0.  1.
         13    1    5    5    0    0  0.37674534002E+03  0.42441204859E+02 -0.34841982526E+03  0.51491230490E+03  0.00000000000E+00 0.  1.
        -13    1    5    5    0    0  0.92335865326E+02  0.90887079788E+01 -0.16156579347E+03  0.18631162674E+03  0.00000000000E+00 0. -1.
          1    1    6    6  503    0 -0.11370330207E+03 -0.10100068560E+03 -0.18024075464E+03  0.23583110276E+03  0.00000000000E+00 0. -1.
         -1    1    6    6    0  503 -0.24005315958E+03 -0.18175656978E+03 -0.19497151671E+03  0.35871278540E+03  0.00000000000E+00 0.  1.
<mgrwt>
<rscale>  0 0.20019993E+04</rscale>
<asrwt>0</asrwt>
<pdfrwt beam="1">  1        2 0.17183605E+00 0.20019993E+04</pdfrwt>
<pdfrwt beam="2">  1       -1 0.13801518E+00 0.20019993E+04</pdfrwt>
<totfact> 0.98034685E+00</totfact>
</mgrwt>
</event>
<event>
12    7  0.1546317E-007  0.1782266E+04  0.7818608E-02  0.8715787E-01
         -1   -1    0    0    0  501 -0.00000000000E+00  0.00000000000E+00  0.14722650763E+04  0.14722650763E+04  0.00000000000E+00 0.  1.
          2   -1    0    0  501    0  0.00000000000E+00 -0.00000000000E+00 -0.53938549260E+03  0.53938549260E+03  0.00000000000E+00 0. -1.
         24    2    1    2    0    0  0.39832543587E+03 -0.39610866803E+03  0.74195909324E+03  0.93435420315E+03  0.83362168652E+02 0.  0.
        254    2    1    2    0    0 -0.39832543587E+03  0.39610866803E+03  0.19092049046E+03  0.10772963658E+04  0.89919497121E+03 0.  0.
         23    2    4    4    0    0 -0.52253881859E+03 -0.50668539287E+02 -0.72016696742E+02  0.53690472379E+03  0.86406944187E+02 0.  0.
         23    2    4    4    0    0  0.12421338273E+03  0.44677720731E+03  0.26293718721E+03  0.54039164197E+03  0.88590771944E+02 0.  0.
          4    1    3    3  502    0  0.20871449616E+02 -0.22963817723E+02  0.15578420091E+02  0.34722348798E+02  0.00000000000E+00 0. -1.
         -3    1    3    3    0  502  0.37745398625E+03 -0.37314485030E+03  0.72638067315E+03  0.89963185435E+03  0.00000000000E+00 0.  1.
         13    1    5    5    0    0 -0.38628938846E+03 -0.73196159410E+02 -0.66083673582E+02  0.39867809233E+03  0.00000000000E+00 0.  1.
        -13    1    5    5    0    0 -0.13624943014E+03  0.22527620123E+02 -0.59330231600E+01  0.13822663146E+03  0.00000000000E+00 0. -1.
          1    1    6    6  503    0 -0.43551725857E+01  0.43586059909E+02  0.50564899872E+02  0.66899336661E+02  0.00000000000E+00 0. -1.
         -1    1    6    6    0  503  0.12856855532E+03  0.40319114740E+03  0.21237228733E+03  0.47349230531E+03  0.00000000000E+00 0.  1.
<mgrwt>
<rscale>  0 0.17822664E+04</rscale>
<asrwt>0</asrwt>
<pdfrwt beam="1">  1        2 0.82982384E-01 0.17822664E+04</pdfrwt>
<pdfrwt beam="2">  1       -1 0.22650232E+00 0.17822664E+04</pdfrwt>
<totfact> 0.60593833E+00</totfact>
</mgrwt>
</event>
<event>
12    7  0.1546317E-007  0.1924719E+04  0.7818608E-02  0.8642649E-01
          2   -1    0    0  501    0  0.00000000000E+00  0.00000000000E+00  0.11400003176E+04  0.11400003176E+04  0.00000000000E+00 0. -1.
         -1   -1    0    0    0  501 -0.00000000000E+00 -0.00000000000E+00 -0.81239944882E+03  0.81239944882E+03  0.00000000000E+00 0.  1.
         24    2    1    2    0    0 -0.39652311774E+03  0.25464799247E+03  0.72072277093E+03  0.86473531233E+03  0.79054822037E+02 0.  0.
        254    2    1    2    0    0  0.39652311774E+03 -0.25464799247E+03 -0.39312190214E+03  0.10876644541E+04  0.89799384841E+03 0.  0.
         23    2    4    4    0    0 -0.90460416070E+02 -0.12465712184E+03 -0.52804195558E+03  0.55788628310E+03  0.93200392224E+02 0.  0.
         23    2    4    4    0    0  0.48698353381E+03 -0.12999087062E+03  0.13492005344E+03  0.52977817099E+03  0.91710964420E+02 0.  0.
          2    1    3    3  502    0 -0.29097950351E+03  0.19536104274E+03  0.59248964212E+03  0.68838868709E+03  0.00000000000E+00 0. -1.
         -1    1    3    3    0  502 -0.10554361422E+03  0.59286949726E+02  0.12823312880E+03  0.17634662524E+03  0.00000000000E+00 0.  1.
         13    1    5    5    0    0 -0.34133244565E+02 -0.89502015071E+02 -0.42228987930E+03  0.43301781862E+03  0.00000000000E+00 0. -1.
        -13    1    5    5    0    0 -0.56327171505E+02 -0.35155106774E+02 -0.10575207628E+03  0.12486846447E+03  0.00000000000E+00 0.  1.
          3    1    6    6  503    0  0.39201209199E+03 -0.97480441986E+02  0.14432034643E+03  0.42895719976E+03  0.00000000000E+00 0. -1.
         -3    1    6    6    0  503  0.94971441822E+02 -0.32510428636E+02 -0.94002929896E+01  0.10082097123E+03  0.00000000000E+00 0.  1.
<mgrwt>
<rscale>  0 0.19247188E+04</rscale>
<asrwt>0</asrwt>
<pdfrwt beam="1">  1        2 0.17538466E+00 0.19247188E+04</pdfrwt>
<pdfrwt beam="2">  1       -1 0.12498453E+00 0.19247188E+04</pdfrwt>
<totfact> 0.12286683E+01</totfact>
</mgrwt>
</event>
<event>
12    7  0.1546317E-007  0.1318546E+04  0.7818608E-02  0.9014986E-01
         -1   -1    0    0    0  501 -0.00000000000E+00  0.00000000000E+00  0.19927308014E+03  0.19927308014E+03  0.00000000000E+00 0.  1.
          2   -1    0    0  501    0  0.00000000000E+00 -0.00000000000E+00 -0.21811317725E+04  0.21811317725E+04  0.00000000000E+00 0. -1.
         24    2    1    2    0    0  0.23041062303E+03  0.24984085945E+03 -0.55308580253E+03  0.65393958243E+03  0.78889557262E+02 0.  0.
        254    2    1    2    0    0 -0.23041062303E+03 -0.24984085945E+03 -0.14287728898E+04  0.17264652702E+04  0.90762373719E+03 0.  0.
         23    2    4    4    0    0  0.90814688872E+02 -0.70796722780E+02  0.84618969777E+02  0.16701213503E+03  0.86447669319E+02 0.  0.
         23    2    4    4    0    0 -0.32122531190E+03 -0.17904413667E+03 -0.15133918596E+04  0.15594531352E+04  0.79351472899E+02 0.  0.
          4    1    3    3  502    0  0.20935993920E+03  0.21914991703E+03 -0.52880687416E+03  0.60950388057E+03  0.00000000000E+00 0. -1.
         -3    1    3    3    0  502  0.21050683826E+02  0.30690942420E+02 -0.24278928377E+02  0.44435701855E+02  0.00000000000E+00 0.  1.
         13    1    5    5    0    0  0.39889104076E+02 -0.63398562896E+02  0.87853733025E+02  0.11545040843E+03  0.00000000000E+00 0.  1.
        -13    1    5    5    0    0  0.50925584796E+02 -0.73981598838E+01 -0.32347632479E+01  0.51561726598E+02  0.00000000000E+00 0. -1.
          4    1    6    6  503    0 -0.67427848670E+02 -0.49151615289E+02 -0.49159178398E+03  0.49862298196E+03  0.00000000000E+00 0.  1.
         -4    1    6    6    0  503 -0.25379746323E+03 -0.12989252138E+03 -0.10218000756E+04  0.10608301532E+04  0.00000000000E+00 0. -1.
<mgrwt>
<rscale>  0 0.13185459E+04</rscale>
<asrwt>0</asrwt>
<pdfrwt beam="1">  1        2 0.33555873E+00 0.13185459E+04</pdfrwt>
<pdfrwt beam="2">  1       -1 0.30657398E-01 0.13185459E+04</pdfrwt>
<totfact> 0.58060155E+01</totfact>
</mgrwt>
</event>
<event>
12    7  0.1546317E-007  0.1763480E+04  0.7818608E-02  0.8725965E-01
         -1   -1    0    0    0  501 -0.00000000000E+00  0.00000000000E+00  0.71565021694E+03  0.71565021694E+03  0.00000000000E+00 0.  1.
          2   -1    0    0  501    0  0.00000000000E+00 -0.00000000000E+00 -0.10863768771E+04  0.10863768771E+04  0.00000000000E+00 0. -1.
         24    2    1    2    0    0 -0.48106313103E+03 -0.37674289530E+03  0.12189118975E+03  0.62864125722E+03  0.83518997550E+02 0.  0.
        254    2    1    2    0    0  0.48106313103E+03  0.37674289530E+03 -0.49261784991E+03  0.11733858368E+04  0.87224138333E+03 0.  0.
         23    2    4    4    0    0  0.20013178288E+03 -0.14243623526E+03  0.14547383499E+03  0.29958628870E+03  0.90821231428E+02 0.  0.
         23    2    4    4    0    0  0.28093134814E+03  0.51917913056E+03 -0.63809168490E+03  0.87379954811E+03  0.88855275396E+02 0.  0.
          4    1    3    3  502    0 -0.28312347137E+02 -0.36816827506E+01  0.15281988463E+02  0.32383374742E+02  0.00000000000E+00 0. -1.
         -3    1    3    3    0  502 -0.45275078389E+03 -0.37306121255E+03  0.10660920128E+03  0.59625788248E+03  0.00000000000E+00 0.  1.
         13    1    5    5    0    0  0.16929654495E+03 -0.14720125904E+03  0.14722330022E+03  0.26833604104E+03  0.00000000000E+00 0. -1.
        -13    1    5    5    0    0  0.30835237937E+02  0.47650237856E+01 -0.17494652294E+01  0.31250247661E+02  0.00000000000E+00 0.  1.
          3    1    6    6  503    0  0.28172121495E+03  0.50228518597E+03 -0.59765775138E+03  0.82997110720E+03  0.00000000000E+00 0. -1.
         -3    1    6    6    0  503 -0.78986680659E+00  0.16893944594E+02 -0.40433933515E+02  0.43828440915E+02  0.00000000000E+00 0.  1.
<mgrwt>
<rscale>  0 0.17634805E+04</rscale>
<asrwt>0</asrwt>
<pdfrwt beam="1">  1        2 0.16713490E+00 0.17634805E+04</pdfrwt>
<pdfrwt beam="2">  1       -1 0.11010003E+00 0.17634805E+04</pdfrwt>
<totfact> 0.18271560E+01</totfact>
</mgrwt>
</event>
<event>
12    7  0.1546317E-007  0.1538368E+04  0.7818608E-02  0.8859332E-01
          2   -1    0    0  501    0  0.00000000000E+00  0.00000000000E+00  0.39178151507E+03  0.39178151507E+03  0.00000000000E+00 0. -1.
         -1   -1    0    0    0  501 -0.00000000000E+00 -0.00000000000E+00 -0.15101378606E+04  0.15101378606E+04  0.00000000000E+00 0.  1.
         24    2    1    2    0    0 -0.31424917720E+03 -0.13060290138E+03 -0.83233582012E+03  0.90363129542E+03  0.89201666916E+02 0.  0.
        254    2    1    2    0    0  0.31424917720E+03  0.13060290138E+03 -0.28602052539E+03  0.99828808023E+03  0.89384656790E+03 0.  0.
         23    2    4    4    0    0  0.47695122380E+03  0.39631993361E+03 -0.23724667545E+03  0.67033943280E+03  0.92287650806E+02 0.  0.
         23    2    4    4    0    0 -0.16270204660E+03 -0.26571703223E+03 -0.48773849939E+02  0.32794864742E+03  0.89966269917E+02 0.  0.
          2    1    3    3  502    0 -0.99704750982E+02 -0.45442481277E+02 -0.17026208960E+03  0.20247280219E+03  0.00000000000E+00 0. -1.
         -3    1    3    3    0  502 -0.21454442622E+03 -0.85160420103E+02 -0.66207373052E+03  0.70115849323E+03  0.00000000000E+00 0.  1.
         13    1    5    5    0    0  0.36812775815E+03  0.25775677791E+03 -0.19012135579E+03  0.48795771620E+03  0.00000000000E+00 0.  1.
        -13    1    5    5    0    0  0.10882346565E+03  0.13856315571E+03 -0.47125319670E+02  0.18238171660E+03  0.00000000000E+00 0. -1.
          2    1    6    6  503    0 -0.15351061498E+03 -0.23330088488E+03 -0.14146437711E+02  0.27963357004E+03  0.00000000000E+00 0.  1.
         -2    1    6    6    0  503 -0.91914316198E+01 -0.32416147358E+02 -0.34627412228E+02  0.48315077381E+02  0.00000000000E+00 0. -1.
<mgrwt>
<rscale>  0 0.15383681E+04</rscale>
<asrwt>0</asrwt>
<pdfrwt beam="1">  1        2 0.60274079E-01 0.15383681E+04</pdfrwt>
<pdfrwt beam="2">  1       -1 0.23232890E+00 0.15383681E+04</pdfrwt>
<totfact> 0.81745928E+00</totfact>
</mgrwt>
</event>
<event>
12    7  0.1546317E-007  0.1951807E+04  0.7818608E-02  0.8629490E-01
         -1   -1    0    0    0  501 -0.00000000000E+00  0.00000000000E+00  0.30057084028E+03  0.30057084028E+03  0.00000000000E+00 0.  1.
          2   -1    0    0  501    0  0.00000000000E+00 -0.00000000000E+00 -0.31685957401E+04  0.31685957401E+04  0.00000000000E+00 0. -1.
         24    2    1    2    0    0 -0.11787173461E+03  0.18550429409E+03  0.17014140587E+03  0.28943351797E+03  0.80734592262E+02 0.  0.
        254    2    1    2    0    0  0.11787173461E+03 -0.18550429409E+03 -0.30381663057E+04  0.31797330624E+04  0.91210868772E+03 0.  0.
         23    2    4    4    0    0 -0.28772983286E+03 -0.29196136550E+03 -0.21787450402E+04  0.22190564863E+04  0.96186504704E+02 0.  0.
         23    2    4    4    0    0  0.40560156747E+03  0.10645707141E+03 -0.85942126551E+03  0.96067657610E+03  0.91917531843E+02 0.  0.
          4    1    3    3  502    0 -0.42112005638E+02  0.13793718155E+03  0.96043986085E+02  0.17327589081E+03  0.00000000000E+00 0. -1.
         -3    1    3    3    0  502 -0.75759728972E+02  0.47567112546E+02  0.74097419783E+02  0.11615762716E+03  0.00000000000E+00 0.  1.
         13    1    5    5    0    0 -0.20042643346E+03 -0.23878889242E+03 -0.17980405583E+04  0.18248673211E+04  0.00000000000E+00 0.  1.
        -13    1    5    5    0    0 -0.87303399403E+02 -0.53172473086E+02 -0.38070448193E+03  0.39418916525E+03  0.00000000000E+00 0. -1.
          1    1    6    6  503    0  0.42204420041E+02  0.43267810170E+02 -0.12219249377E+03  0.13632432652E+03  0.00000000000E+00 0. -1.
         -1    1    6    6    0  503  0.36339714743E+03  0.63189261240E+02 -0.73722877174E+03  0.82435224957E+03  0.00000000000E+00 0.  1.
<mgrwt>
<rscale>  0 0.19518068E+04</rscale>
<asrwt>0</asrwt>
<pdfrwt beam="1">  1        2 0.48747628E+00 0.19518068E+04</pdfrwt>
<pdfrwt beam="2">  1       -1 0.46241667E-01 0.19518068E+04</pdfrwt>
<totfact> 0.67406263E+00</totfact>
</mgrwt>
</event>
<event>
12    7  0.1638773E-007  0.2303707E+04  0.7818608E-02  0.8476461E-01
          2   -1    0    0  501    0  0.00000000000E+00  0.00000000000E+00  0.10068478633E+04  0.10068478633E+04  0.00000000000E+00 0. -1.
         -1   -1    0    0    0  501 -0.00000000000E+00 -0.00000000000E+00 -0.13177426688E+04  0.13177426688E+04  0.00000000000E+00 0.  1.
         24    2    1    2    0    0  0.36820256488E+03 -0.30985342397E+02 -0.10415800841E+04  0.11083086819E+04  0.83221647424E+02 0.  0.
        254    2    1    2    0    0 -0.36820256488E+03  0.30985342397E+02  0.73068527854E+03  0.12162818502E+04  0.89939276321E+03 0.  0.
         23    2    4    4    0    0 -0.86739341982E+01 -0.34877092100E+03  0.67863579792E+02  0.36693623182E+03  0.91215899305E+02 0.  0.
         23    2    4    4    0    0 -0.35952863068E+03  0.37975626340E+03  0.66282169875E+03  0.84934561833E+03  0.92626773582E+02 0.  0.
          4    1    3    3  502    0 -0.10658879303E+01 -0.87057977847E+01 -0.21562718856E+02  0.23278270482E+02  0.00000000000E+00 0. -1.
         -3    1    3    3    0  502  0.36926845281E+03 -0.22279544612E+02 -0.10200173652E+04  0.10850304114E+04  0.00000000000E+00 0.  1.
         13    1    5    5    0    0  0.12127649938E+01  0.52596004651E+01  0.47461046301E+01  0.71874686186E+01  0.00000000000E+00 0. -1.
        -13    1    5    5    0    0 -0.98866991920E+01 -0.35403052147E+03  0.63117475162E+02  0.35974876320E+03  0.00000000000E+00 0.  1.
          1    1    6    6  503    0 -0.15306437001E+02 -0.22419217729E+01  0.31638537699E+02  0.35218039335E+02  0.00000000000E+00 0. -1.
         -1    1    6    6    0  503 -0.34422219368E+03  0.38199818517E+03  0.63118316105E+03  0.81412757900E+03  0.00000000000E+00 0.  1.
<mgrwt>
<rscale>  0 0.23037069E+04</rscale>
<asrwt>0</asrwt>
<pdfrwt beam="1">  1        2 0.15489967E+00 0.23037069E+04</pdfrwt>
<pdfrwt beam="2">  1       -1 0.20272964E+00 0.23037069E+04</pdfrwt>
<totfact> 0.37140840E+00</totfact>
</mgrwt>
</event>
<event>
12    7  0.1546317E-007  0.1869860E+04  0.7818608E-02  0.8670006E-01
         -1   -1    0    0    0  501 -0.00000000000E+00  0.00000000000E+00  0.31384913862E+03  0.31384913862E+03  0.00000000000E+00 0.  1.
          2   -1    0    0  501    0  0.00000000000E+00 -0.00000000000E+00 -0.27850767800E+04  0.27850767800E+04  0.00000000000E+00 0. -1.
         24    2    1    2    0    0  0.49181824802E+03  0.43232604189E+03 -0.45069235411E+03  0.79999251488E+03  0.89852268843E+02 0.  0.
        254    2    1    2    0    0 -0.49181824802E+03 -0.43232604189E+03 -0.20205352873E+04  0.22989334037E+04  0.87962546127E+03 0.  0.
         23    2    4    4    0    0 -0.50404026875E+03 -0.14117002679E+03 -0.44243965836E+03  0.69152778720E+03  0.92044881361E+02 0.  0.
         23    2    4    4    0    0  0.12222020727E+02 -0.29115601510E+03 -0.15780956289E+04  0.16074056165E+04  0.91901029355E+02 0.  0.
          4    1    3    3  502    0  0.96432327819E+02  0.47489408766E+02 -0.95592039114E+02  0.14384809952E+03  0.00000000000E+00 0. -1.
         -3    1    3    3    0  502  0.39538592020E+03  0.38483663313E+03 -0.35510031500E+03  0.65614441536E+03  0.00000000000E+00 0.  1.
         13    1    5    5    0    0 -0.30341580064E+02 -0.17721549857E+02 -0.58916671687E+01  0.35628311104E+02  0.00000000000E+00 0. -1.
        -13    1    5    5    0    0 -0.47369868869E+03 -0.12344847693E+03 -0.43654799120E+03  0.65589947609E+03  0.00000000000E+00 0.  1.
          3    1    6    6  503    0 -0.31926323587E+02 -0.46630399666E+02 -0.33237631486E+03  0.33714640587E+03  0.00000000000E+00 0. -1.
         -3    1    6    6    0  503  0.44148344314E+02 -0.24452561544E+03 -0.12457193140E+04  0.12702592107E+04  0.00000000000E+00 0.  1.
<mgrwt>
<rscale>  0 0.18698598E+04</rscale>
<asrwt>0</asrwt>
<pdfrwt beam="1">  1        2 0.42847335E+00 0.18698598E+04</pdfrwt>
<pdfrwt beam="2">  1       -1 0.48284483E-01 0.18698598E+04</pdfrwt>
<totfact> 0.10846046E+01</totfact>
</mgrwt>
</event>
<event>
12    7  0.1546317E-007  0.1482227E+04  0.7818608E-02  0.8896358E-01
          2   -1    0    0  501    0  0.00000000000E+00  0.00000000000E+00  0.17886700074E+04  0.17886700074E+04  0.00000000000E+00 0. -1.
         -1   -1    0    0    0  501 -0.00000000000E+00 -0.00000000000E+00 -0.30707146566E+03  0.30707146566E+03  0.00000000000E+00 0.  1.
         24    2    1    2    0    0  0.27994348555E+03 -0.34810900501E+03  0.27930553517E+03  0.53294162764E+03  0.80417423680E+02 0.  0.
        254    2    1    2    0    0 -0.27994348555E+03  0.34810900501E+03  0.12022930066E+04  0.15627998454E+04  0.89290909317E+03 0.  0.
         23    2    4    4    0    0 -0.23910546333E+02 -0.12274295701E+03  0.95141321760E+03  0.96396610376E+03  0.91684190857E+02 0.  0.
         23    2    4    4    0    0 -0.25603293922E+03  0.47085196202E+03  0.25087978896E+03  0.59883374163E+03  0.91688306250E+02 0.  0.
          2    1    3    3  502    0  0.26314523276E+03 -0.34257618011E+03  0.28075510892E+03  0.51519635469E+03  0.00000000000E+00 0. -1.
         -3    1    3    3    0  502  0.16798252792E+02 -0.55328249043E+01 -0.14495737524E+01  0.17745272957E+02  0.00000000000E+00 0.  1.
         13    1    5    5    0    0  0.69885956646E+01 -0.11293234731E+03  0.84998111161E+03  0.85747912256E+03  0.00000000000E+00 0.  1.
        -13    1    5    5    0    0 -0.30899141998E+02 -0.98106097052E+01  0.10143210599E+03  0.10648698120E+03  0.00000000000E+00 0. -1.
          1    1    6    6  503    0 -0.85931571950E+01  0.12603510938E+02  0.28968777813E+02  0.32739592645E+02  0.00000000000E+00 0. -1.
         -1    1    6    6    0  503 -0.24743978202E+03  0.45824845108E+03  0.22191101114E+03  0.56609414898E+03  0.00000000000E+00 0.  1.
<mgrwt>
<rscale>  0 0.14822274E+04</rscale>
<asrwt>0</asrwt>
<pdfrwt beam="1">  1        2 0.27517999E+00 0.14822274E+04</pdfrwt>
<pdfrwt beam="2">  1       -1 0.47241765E-01 0.14822274E+04</pdfrwt>
<totfact> 0.43131634E+01</totfact>
</mgrwt>
</event>
<event>
12    7  0.1546317E-007  0.2658071E+04  0.7818608E-02  0.8348739E-01
         -1   -1    0    0    0  501 -0.00000000000E+00  0.00000000000E+00  0.40188039924E+04  0.40188039924E+04  0.00000000000E+00 0.  1.
          2   -1    0    0  501    0  0.00000000000E+00 -0.00000000000E+00 -0.43951779188E+03  0.43951779188E+03  0.00000000000E+00 0. -1.
         24    2    1    2    0    0 -0.75095996569E+02  0.68971823045E+03 -0.43478815198E+01  0.69872710309E+03  0.82764813835E+02 0.  0.
        254    2    1    2    0    0  0.75095996569E+02 -0.68971823045E+03  0.35836340820E+04  0.37595946812E+04  0.90042672482E+03 0.  0.
         23    2    4    4    0    0 -0.19252380269E+03 -0.80275232022E+03  0.27089891294E+04  0.28334165555E+04  0.90280516641E+02 0.  0.
         23    2    4    4    0    0  0.26761979926E+03  0.11303408978E+03  0.87464495261E+03  0.92617812564E+03  0.91679140907E+02 0.  0.
          4    1    3    3  502    0 -0.18942498223E+02  0.51089997824E+03 -0.62688440622E+01  0.51128945267E+03  0.00000000000E+00 0. -1.
         -1    1    3    3    0  502 -0.56153498346E+02  0.17881825221E+03  0.19209625423E+01  0.18743765043E+03  0.00000000000E+00 0.  1.
         13    1    5    5    0    0 -0.18935112494E+03 -0.80341655277E+03  0.27056687077E+04  0.28287762658E+04  0.00000000000E+00 0.  1.
        -13    1    5    5    0    0 -0.31726777459E+01  0.66423254927E+00  0.33204216744E+01  0.46402897598E+01  0.00000000000E+00 0. -1.
          3    1    6    6  503    0  0.12265637002E+03  0.75222636200E+01  0.29937887049E+03  0.32361841365E+03  0.00000000000E+00 0. -1.
         -3    1    6    6    0  503  0.14496342924E+03  0.10551182616E+03  0.57526608212E+03  0.60255971199E+03  0.00000000000E+00 0.  1.
<mgrwt>
<rscale>  0 0.26580714E+04</rscale>
<asrwt>0</asrwt>
<pdfrwt beam="1">  1        2 0.67618125E-01 0.26580714E+04</pdfrwt>
<pdfrwt beam="2">  1       -1 0.61827751E+00 0.26580714E+04</pdfrwt>
<totfact> 0.26549563E-02</totfact>
</mgrwt>
</event>
<event>
12    7  0.1546317E-007  0.3958983E+04  0.7818608E-02  0.8012872E-01
          2   -1    0    0  501    0  0.00000000000E+00  0.00000000000E+00  0.14557745603E+04  0.14557745603E+04  0.00000000000E+00 0. -1.
         -1   -1    0    0    0  501 -0.00000000000E+00 -0.00000000000E+00 -0.26916168899E+04  0.26916168899E+04  0.00000000000E+00 0.  1.
         24    2    1    2    0    0 -0.15273842433E+04  0.93945409122E+03 -0.18936583437E+02  0.17950451131E+04  0.79697852892E+02 0.  0.
        254    2    1    2    0    0  0.15273842433E+04 -0.93945409122E+03 -0.12169057461E+04  0.23523463371E+04  0.91498474223E+03 0.  0.
         23    2    4    4    0    0  0.42028184001E+03 -0.74192640059E+02 -0.75164829757E+03  0.86939526995E+03  0.93443026991E+02 0.  0.
         23    2    4    4    0    0  0.11071024033E+04 -0.86526145116E+03 -0.46525744854E+03  0.14829510672E+04  0.91248363609E+02 0.  0.
          4    1    3    3  502    0 -0.12818106598E+04  0.79531828992E+03 -0.44469532877E+02  0.15091544948E+04  0.00000000000E+00 0. -1.
         -3    1    3    3    0  502 -0.24557358354E+03  0.14413580130E+03  0.25532949441E+02  0.28589061835E+03  0.00000000000E+00 0.  1.
         13    1    5    5    0    0  0.38506696156E+03 -0.63224699490E+02 -0.72677191319E+03  0.82490686827E+03  0.00000000000E+00 0.  1.
        -13    1    5    5    0    0  0.35214878449E+02 -0.10967940569E+02 -0.24876384374E+02  0.44488401680E+02  0.00000000000E+00 0. -1.
          4    1    6    6  503    0  0.30888599164E+03 -0.28574432760E+03 -0.16336344363E+03  0.45138452709E+03  0.00000000000E+00 0. -1.
         -4    1    6    6    0  503  0.79821641167E+03 -0.57951712357E+03 -0.30189400491E+03  0.10315665401E+04  0.00000000000E+00 0.  1.
<mgrwt>
<rscale>  0 0.39589834E+04</rscale>
<asrwt>0</asrwt>
<pdfrwt beam="1">  1        2 0.22396532E+00 0.39589834E+04</pdfrwt>
<pdfrwt beam="2">  1       -1 0.41409490E+00 0.39589834E+04</pdfrwt>
<totfact> 0.69372355E-02</totfact>
</mgrwt>
</event>
<event>
12    7  0.1546317E-007  0.1276163E+04  0.7818608E-02  0.9048685E-01
         -1   -1    0    0    0  501 -0.00000000000E+00  0.00000000000E+00  0.79514570473E+03  0.79514570473E+03  0.00000000000E+00 0.  1.
          2   -1    0    0  501    0  0.00000000000E+00 -0.00000000000E+00 -0.51204195299E+03  0.51204195299E+03  0.00000000000E+00 0. -1.
         24    2    1    2    0    0  0.11808471887E+03  0.24269258422E+03 -0.85146692133E+02  0.29461553007E+03  0.81881988927E+02 0.  0.
        254    2    1    2    0    0 -0.11808471887E+03 -0.24269258422E+03  0.36825044387E+03  0.10125721277E+04  0.90379767262E+03 0.  0.
         23    2    4    4    0    0 -0.28174564600E+03 -0.39745268472E+03 -0.80368952790E+02  0.50237152551E+03  0.92567464292E+02 0.  0.
         23    2    4    4    0    0  0.16366092713E+03  0.15476010050E+03  0.44861939666E+03  0.51020060214E+03  0.91157575612E+02 0.  0.
          2    1    3    3  502    0  0.23559835896E+02  0.97672599965E+02 -0.66545812482E+02  0.12051285330E+03  0.00000000000E+00 0. -1.
         -1    1    3    3    0  502  0.94524882974E+02  0.14501998426E+03 -0.18600879650E+02  0.17410267677E+03  0.00000000000E+00 0.  1.
         13    1    5    5    0    0 -0.22930554840E+03 -0.35806871148E+03 -0.93813094075E+02  0.43542523272E+03  0.00000000000E+00 0. -1.
        -13    1    5    5    0    0 -0.52440097599E+02 -0.39383973241E+02  0.13444141285E+02  0.66946292797E+02  0.00000000000E+00 0.  1.
          4    1    6    6  503    0  0.83394612266E+02  0.89998282548E+02  0.14723019205E+03  0.19165354593E+03  0.00000000000E+00 0. -1.
         -4    1    6    6    0  503  0.80266314863E+02  0.64761817951E+02  0.30138920461E+03  0.31854705621E+03  0.00000000000E+00 0.  1.
<mgrwt>
<rscale>  0 0.12761629E+04</rscale>
<asrwt>0</asrwt>
<pdfrwt beam="1">  1        2 0.78775685E-01 0.12761629E+04</pdfrwt>
<pdfrwt beam="2">  1       -1 0.12233011E+00 0.12761629E+04</pdfrwt>
<totfact> 0.39713136E+01</totfact>
</mgrwt>
</event>
<event>
12    7  0.1546317E-007  0.2560359E+04  0.7818608E-02  0.8381792E-01
          2   -1    0    0  501    0  0.00000000000E+00  0.00000000000E+00  0.27292694177E+04  0.27292694177E+04  0.00000000000E+00 0. -1.
         -1   -1    0    0    0  501 -0.00000000000E+00 -0.00000000000E+00 -0.60047574570E+03  0.60047574570E+03  0.00000000000E+00 0.  1.
         24    2    1    2    0    0 -0.10737026903E+04 -0.26446187330E+03  0.64713692226E+03  0.12837210351E+04  0.79849547661E+02 0.  0.
        254    2    1    2    0    0  0.10737026903E+04  0.26446187330E+03  0.14816567498E+04  0.20460241283E+04  0.87643052187E+03 0.  0.
         23    2    4    4    0    0  0.10066095930E+04  0.46985335371E+03  0.94714612976E+03  0.14626542063E+04  0.90810183206E+02 0.  0.
         23    2    4    4    0    0  0.67093097352E+02 -0.20539148041E+03  0.53451061999E+03  0.58336992197E+03  0.89060198947E+02 0.  0.
          2    1    3    3  502    0 -0.13881516475E+03 -0.76965219259E+01  0.87904679597E+02  0.16448744362E+03  0.00000000000E+00 0. -1.
         -1    1    3    3    0  502 -0.93488752559E+03 -0.25676535138E+03  0.55923224266E+03  0.11192335915E+04  0.00000000000E+00 0.  1.
         13    1    5    5    0    0  0.95340975856E+03  0.45958853805E+03  0.88054162658E+03  0.13767953182E+04  0.00000000000E+00 0.  1.
        -13    1    5    5    0    0  0.53199834433E+02  0.10264815658E+02  0.66604503179E+02  0.85858888112E+02  0.00000000000E+00 0. -1.
          1    1    6    6  503    0 -0.12623065346E+02 -0.41382375773E+02  0.52575703031E+02  0.68088525851E+02  0.00000000000E+00 0. -1.
         -1    1    6    6    0  503  0.79716162698E+02 -0.16400910464E+03  0.48193491696E+03  0.51528139612E+03  0.00000000000E+00 0.  1.
<mgrwt>
<rscale>  0 0.25603594E+04</rscale>
<asrwt>0</asrwt>
<pdfrwt beam="1">  1        2 0.41988760E+00 0.25603594E+04</pdfrwt>
<pdfrwt beam="2">  1       -1 0.92380886E-01 0.25603594E+04</pdfrwt>
<totfact> 0.29337689E+00</totfact>
</mgrwt>
</event>
<event>
12    7  0.1546317E-007  0.1841911E+04  0.7818608E-02  0.8684324E-01
         -1   -1    0    0    0  501 -0.00000000000E+00  0.00000000000E+00  0.21848863977E+03  0.21848863977E+03  0.00000000000E+00 0.  1.
          2   -1    0    0  501    0  0.00000000000E+00 -0.00000000000E+00 -0.38819381787E+04  0.38819381787E+04  0.00000000000E+00 0. -1.
         24    2    1    2    0    0 -0.30190539828E+02  0.46610492194E+03 -0.25278504635E+04  0.25719006925E+04  0.80498068082E+02 0.  0.
        254    2    1    2    0    0  0.30190539828E+02 -0.46610492194E+03 -0.11355990754E+04  0.15285261260E+04  0.91029752878E+03 0.  0.
         23    2    4    4    0    0 -0.83017508588E+02  0.25665974752E+03 -0.29293845585E+03  0.40896350492E+03  0.93123985681E+02 0.  0.
         23    2    4    4    0    0  0.11320804842E+03 -0.72276466946E+03 -0.84266061959E+03  0.11195626211E+04  0.90214816727E+02 0.  0.
          4    1    3    3  502    0 -0.14672086008E+02  0.13522072225E+03 -0.55425698544E+03  0.57070195352E+03  0.00000000000E+00 0. -1.
         -3    1    3    3    0  502 -0.15518453820E+02  0.33088419969E+03 -0.19735934781E+04  0.20011987390E+04  0.00000000000E+00 0.  1.
         13    1    5    5    0    0 -0.75227501098E+02  0.25067843592E+03 -0.29904379288E+03  0.39739910068E+03  0.00000000000E+00 0. -1.
        -13    1    5    5    0    0 -0.77900074901E+01  0.59813116014E+01  0.61053370331E+01  0.11564404241E+02  0.00000000000E+00 0.  1.
          1    1    6    6  503    0  0.10990726579E+03 -0.56016795275E+03 -0.60724871571E+03  0.83343790716E+03  0.00000000000E+00 0. -1.
         -1    1    6    6    0  503  0.33007826285E+01 -0.16259671672E+03 -0.23541190388E+03  0.28612471396E+03  0.00000000000E+00 0.  1.
<mgrwt>
<rscale>  0 0.18419114E+04</rscale>
<asrwt>0</asrwt>
<pdfrwt beam="1">  1        2 0.59722127E+00 0.18419114E+04</pdfrwt>
<pdfrwt beam="2">  1       -1 0.33613636E-01 0.18419114E+04</pdfrwt>
<totfact> 0.38404431E+00</totfact>
</mgrwt>
</event>
<event>
12    7  0.1546317E-007  0.1311432E+04  0.7818608E-02  0.9020548E-01
         -3   -1    0    0    0  501 -0.00000000000E+00  0.00000000000E+00  0.25086056300E+03  0.25086056300E+03  0.00000000000E+00 0.  1.
          2   -1    0    0  501    0  0.00000000000E+00 -0.00000000000E+00 -0.17139538092E+04  0.17139538092E+04  0.00000000000E+00 0. -1.
         24    2    1    2    0    0  0.16020554809E+03 -0.15993488354E+03 -0.47930114672E+01  0.24068808823E+03  0.81625965488E+02 0.  0.
        254    2    1    2    0    0 -0.16020554809E+03  0.15993488354E+03 -0.14583002348E+04  0.17241262840E+04  0.89147455592E+03 0.  0.
         23    2    4    4    0    0 -0.12583696588E+03  0.20354684743E+03  0.68449629616E+01  0.25506496455E+03  0.88005804025E+02 0.  0.
         23    2    4    4    0    0 -0.34368582216E+02 -0.43611963888E+02 -0.14651451977E+04  0.14690613194E+04  0.91692459103E+02 0.  0.
          2    1    3    3  502    0  0.42844971444E+02 -0.91191860117E+00  0.23432533382E+01  0.42918690681E+02  0.00000000000E+00 0. -1.
         -1    1    3    3    0  502  0.11736057665E+03 -0.15902296494E+03 -0.71362648054E+01  0.19776939755E+03  0.00000000000E+00 0.  1.
         13    1    5    5    0    0 -0.59472879605E+02  0.16673410722E+03 -0.10079664998E+02  0.17731013949E+03  0.00000000000E+00 0. -1.
        -13    1    5    5    0    0 -0.66364086273E+02  0.36812740212E+02  0.16924627960E+02  0.77754825061E+02  0.00000000000E+00 0.  1.
          1    1    6    6  503    0 -0.22182995881E+02 -0.38500361056E+02 -0.14397351654E+04  0.14404206711E+04  0.00000000000E+00 0. -1.
         -1    1    6    6    0  503 -0.12185586334E+02 -0.51116028329E+01 -0.25410032304E+02  0.28640648379E+02  0.00000000000E+00 0.  1.
<mgrwt>
<rscale>  0 0.13114319E+04</rscale>
<asrwt>0</asrwt>
<pdfrwt beam="1">  1        2 0.26368519E+00 0.13114319E+04</pdfrwt>
<pdfrwt beam="2">  1       -3 0.38593934E-01 0.13114319E+04</pdfrwt>
<totfact> 0.40482482E+01</totfact>
</mgrwt>
</event>
<event>
12    7  0.1546317E-007  0.2250889E+04  0.7818608E-02  0.8497541E-01
          2   -1    0    0  501    0  0.00000000000E+00  0.00000000000E+00  0.18000099877E+04  0.18000099877E+04  0.00000000000E+00 0. -1.
         -1   -1    0    0    0  501 -0.00000000000E+00 -0.00000000000E+00 -0.70367666043E+03  0.70367666043E+03  0.00000000000E+00 0.  1.
         24    2    1    2    0    0  0.15491834715E+03  0.34391876416E+02  0.14889333725E+04  0.14992923071E+04  0.75975909412E+02 0.  0.
        254    2    1    2    0    0 -0.15491834715E+03 -0.34391876416E+02 -0.39260004526E+03  0.10043943410E+04  0.91076380106E+03 0.  0.
         23    2    4    4    0    0 -0.13051571551E+03 -0.36801694845E+03  0.88729662383E+02  0.41122418461E+03  0.93603155274E+02 0.  0.
         23    2    4    4    0    0 -0.24402631639E+02  0.33362507204E+03 -0.48132970764E+03  0.59317015643E+03  0.90947071973E+02 0.  0.
          4    1    3    3  502    0  0.80820248416E+02 -0.98936903117E+01  0.49869181308E+03  0.50529528208E+03  0.00000000000E+00 0. -1.
         -1    1    3    3    0  502  0.74098098732E+02  0.44285566728E+02  0.99024155942E+03  0.99399702498E+03  0.00000000000E+00 0.  1.
         13    1    5    5    0    0 -0.75933771654E+02 -0.24307632121E+03  0.12384017927E+02  0.25496156478E+03  0.00000000000E+00 0.  1.
        -13    1    5    5    0    0 -0.54581943857E+02 -0.12494062724E+03  0.76345644456E+02  0.15626261983E+03  0.00000000000E+00 0. -1.
          4    1    6    6  503    0 -0.51044169352E+01  0.12627914615E+03 -0.26108588379E+03  0.29006605548E+03  0.00000000000E+00 0. -1.
         -4    1    6    6    0  503 -0.19298214703E+02  0.20734592588E+03 -0.22024382385E+03  0.30310410095E+03  0.00000000000E+00 0.  1.
<mgrwt>
<rscale>  0 0.22508887E+04</rscale>
<asrwt>0</asrwt>
<pdfrwt beam="1">  1        2 0.27692461E+00 0.22508887E+04</pdfrwt>
<pdfrwt beam="2">  1       -1 0.10825795E+00 0.22508887E+04</pdfrwt>
<totfact> 0.70864172E+00</totfact>
</mgrwt>
</event>
<event>
12    7  0.1546317E-007  0.1411706E+04  0.7818608E-02  0.8945389E-01
         -1   -1    0    0    0  501 -0.00000000000E+00  0.00000000000E+00  0.68082682597E+03  0.68082682597E+03  0.00000000000E+00 0.  1.
          2   -1    0    0  501    0  0.00000000000E+00 -0.00000000000E+00 -0.73179897263E+03  0.73179897263E+03  0.00000000000E+00 0. -1.
         24    2    1    2    0    0  0.19851098601E+03  0.35411310160E+03  0.33156722852E+02  0.41470186800E+03  0.77945947658E+02 0.  0.
        254    2    1    2    0    0 -0.19851098601E+03 -0.35411310160E+03 -0.84128869508E+02  0.99792393060E+03  0.90772892665E+03 0.  0.
         23    2    4    4    0    0 -0.57731402919E+02 -0.11628855719E+01 -0.45000811655E+03  0.46256543490E+03  0.90139943499E+02 0.  0.
         23    2    4    4    0    0 -0.14077958309E+03 -0.35295021603E+03  0.36587924705E+03  0.53535849570E+03  0.91369302758E+02 0.  0.
          2    1    3    3  502    0 -0.43496742515E+01  0.13195515455E+01  0.50187007037E+01  0.67711327803E+01  0.00000000000E+00 0. -1.
         -1    1    3    3    0  502  0.20286066026E+03  0.35279355006E+03  0.28138022149E+02  0.40793073522E+03  0.00000000000E+00 0.  1.
         13    1    5    5    0    0 -0.97983016398E+01  0.41036218871E+02 -0.14903273948E+03  0.15488942963E+03  0.00000000000E+00 0.  1.
        -13    1    5    5    0    0 -0.47933101279E+02 -0.42199104443E+02 -0.30097537707E+03  0.30767600527E+03  0.00000000000E+00 0. -1.
          1    1    6    6  503    0 -0.13358635644E+03 -0.34454263364E+03  0.37057710829E+03  0.52333768660E+03  0.00000000000E+00 0. -1.
         -1    1    6    6    0  503 -0.71932266478E+01 -0.84075823900E+01 -0.46978612420E+01  0.12020809103E+02  0.00000000000E+00 0.  1.
<mgrwt>
<rscale>  0 0.14117059E+04</rscale>
<asrwt>0</asrwt>
<pdfrwt beam="1">  1        2 0.11258446E+00 0.14117059E+04</pdfrwt>
<pdfrwt beam="2">  1       -1 0.10474259E+00 0.14117059E+04</pdfrwt>
<totfact> 0.36828710E+01</totfact>
</mgrwt>
</event>
<event>
12    7  0.1546317E-007  0.1738342E+04  0.7818608E-02  0.8739793E-01
          2   -1    0    0  501    0  0.00000000000E+00  0.00000000000E+00  0.16171886262E+04  0.16171886262E+04  0.00000000000E+00 0. -1.
         -3   -1    0    0    0  501 -0.00000000000E+00 -0.00000000000E+00 -0.46714312832E+03  0.46714312832E+03  0.00000000000E+00 0.  1.
         24    2    1    2    0    0 -0.22171735562E+03  0.62236325264E+02  0.11230251033E+04  0.11492749599E+04  0.81336367905E+02 0.  0.
        254    2    1    2    0    0  0.22171735562E+03 -0.62236325264E+02  0.27020394606E+02  0.93505679469E+03  0.90585272622E+03 0.  0.
         23    2    4    4    0    0 -0.14554701702E+03  0.20796081869E+03 -0.27209909317E+03  0.38226333834E+03  0.87496897449E+02 0.  0.
         23    2    4    4    0    0  0.36726437264E+03 -0.27019714395E+03  0.29911948777E+03  0.55279345635E+03  0.90656061064E+02 0.  0.
          4    1    3    3  502    0 -0.17016172921E+03  0.44856913309E+02  0.65973271011E+03  0.68279894958E+03  0.00000000000E+00 0. -1.
         -3    1    3    3    0  502 -0.51555626410E+02  0.17379411955E+02  0.46329239320E+03  0.46647601028E+03  0.00000000000E+00 0.  1.
         13    1    5    5    0    0 -0.15422738238E+03  0.17418234568E+03 -0.24685909416E+03  0.33921230430E+03  0.00000000000E+00 0. -1.
        -13    1    5    5    0    0  0.86803653612E+01  0.33778473010E+02 -0.25239999012E+02  0.43051034038E+02  0.00000000000E+00 0.  1.
          4    1    6    6  503    0  0.36222134906E+03 -0.27362451425E+03  0.30279542134E+03  0.54567366411E+03  0.00000000000E+00 0. -1.
         -4    1    6    6    0  503  0.50430235761E+01  0.34273703017E+01 -0.36759335663E+01  0.71197922412E+01  0.00000000000E+00 0.  1.
<mgrwt>
<rscale>  0 0.17383424E+04</rscale>
<asrwt>0</asrwt>
<pdfrwt beam="1">  1        2 0.24879825E+00 0.17383424E+04</pdfrwt>
<pdfrwt beam="2">  1       -3 0.71868174E-01 0.17383424E+04</pdfrwt>
<totfact> 0.12176107E+01</totfact>
</mgrwt>
</event>
<event>
12    7  0.1546317E-007  0.2094055E+04  0.7818608E-02  0.8563867E-01
         -1   -1    0    0    0  501 -0.00000000000E+00  0.00000000000E+00  0.13359956273E+04  0.13359956273E+04  0.00000000000E+00 0.  1.
          2   -1    0    0  501    0  0.00000000000E+00 -0.00000000000E+00 -0.82056162497E+03  0.82056162497E+03  0.00000000000E+00 0. -1.
         24    2    1    2    0    0  0.35811547263E+03 -0.60801937931E+03 -0.27786945124E+03  0.76252355130E+03  0.79350343461E+02 0.  0.
        254    2    1    2    0    0 -0.35811547263E+03  0.60801937931E+03  0.79330345359E+03  0.13940337010E+04  0.90336334476E+03 0.  0.
         23    2    4    4    0    0  0.29551657321E+02  0.46547855585E+03  0.84456847750E+03  0.96887953799E+03  0.88814748419E+02 0.  0.
         23    2    4    4    0    0 -0.38766712995E+03  0.14254082345E+03 -0.51265023909E+02  0.42515416299E+03  0.86742548036E+02 0.  0.
          2    1    3    3  502    0  0.12025112872E+03 -0.23428816419E+03 -0.66162602197E+02  0.27153041776E+03  0.00000000000E+00 0. -1.
         -1    1    3    3    0  502  0.23786434390E+03 -0.37373121512E+03 -0.21170684904E+03  0.49099313354E+03  0.00000000000E+00 0.  1.
         13    1    5    5    0    0  0.21627877340E+02  0.46063033137E+03  0.84059880484E+03  0.95877756438E+03  0.00000000000E+00 0. -1.
        -13    1    5    5    0    0  0.79237799812E+01  0.48482244849E+01  0.39696726629E+01  0.10101973614E+02  0.00000000000E+00 0.  1.
          1    1    6    6  503    0 -0.31290258022E+03  0.14646329535E+03 -0.27374042858E+02  0.34656725151E+03  0.00000000000E+00 0. -1.
         -1    1    6    6    0  503 -0.74764549727E+02 -0.39224718918E+01 -0.23890981052E+02  0.78586911488E+02  0.00000000000E+00 0.  1.
<mgrwt>
<rscale>  0 0.20940552E+04</rscale>
<asrwt>0</asrwt>
<pdfrwt beam="1">  1        2 0.12624025E+00 0.20940552E+04</pdfrwt>
<pdfrwt beam="2">  1       -1 0.20553779E+00 0.20940552E+04</pdfrwt>
<totfact> 0.48291542E+00</totfact>
</mgrwt>
</event>
<event>
12    7  0.1546317E-007  0.1869843E+04  0.7818608E-02  0.8670015E-01
          2   -1    0    0  501    0  0.00000000000E+00  0.00000000000E+00  0.25923392754E+04  0.25923392754E+04  0.00000000000E+00 0. -1.
         -1   -1    0    0    0  501 -0.00000000000E+00 -0.00000000000E+00 -0.33717739059E+03  0.33717739059E+03  0.00000000000E+00 0.  1.
         24    2    1    2    0    0  0.19429367292E+03 -0.40644380342E+03 -0.65737317946E+01  0.45781729883E+03  0.81282645639E+02 0.  0.
        254    2    1    2    0    0 -0.19429367292E+03  0.40644380342E+03  0.22617356166E+04  0.24716993671E+04  0.88932736690E+03 0.  0.
         23    2    4    4    0    0  0.25344061341E+03 -0.91792871126E+02  0.39944772184E+03  0.49055577362E+03  0.91806365950E+02 0.  0.
         23    2    4    4    0    0 -0.44773428634E+03  0.49823667455E+03  0.18622878947E+04  0.19811435935E+04  0.90044212560E+02 0.  0.
          2    1    3    3  502    0  0.81643314287E+01 -0.44542702471E+02  0.21014531007E+02  0.49923132560E+02  0.00000000000E+00 0. -1.
         -1    1    3    3    0  502  0.18612934150E+03 -0.36190110095E+03 -0.27588262802E+02  0.40789416627E+03  0.00000000000E+00 0.  1.
         13    1    5    5    0    0  0.19335663673E+03 -0.51135782429E+02  0.34881605277E+03  0.40208742319E+03  0.00000000000E+00 0.  1.
        -13    1    5    5    0    0  0.60083976684E+02 -0.40657088697E+02  0.50631669067E+02  0.88468350431E+02  0.00000000000E+00 0. -1.
          3    1    6    6  503    0 -0.11971752245E+02 -0.60603737252E+00  0.19060976324E+02  0.22516903685E+02  0.00000000000E+00 0. -1.
         -3    1    6    6    0  503 -0.43576253409E+03  0.49884271192E+03  0.18432269184E+04  0.19586266898E+04  0.00000000000E+00 0.  1.
<mgrwt>
<rscale>  0 0.18698430E+04</rscale>
<asrwt>0</asrwt>
<pdfrwt beam="1">  1        2 0.39882141E+00 0.18698430E+04</pdfrwt>
<pdfrwt beam="2">  1       -1 0.51873446E-01 0.18698430E+04</pdfrwt>
<totfact> 0.12310618E+01</totfact>
</mgrwt>
</event>
<event>
12    7  0.1546317E-007  0.3763226E+04  0.7818608E-02  0.8054093E-01
          2   -1    0    0  501    0  0.00000000000E+00  0.00000000000E+00  0.26925530177E+04  0.26925530177E+04  0.00000000000E+00 0. -1.
         -1   -1    0    0    0  501 -0.00000000000E+00 -0.00000000000E+00 -0.13149107964E+04  0.13149107964E+04  0.00000000000E+00 0.  1.
         24    2    1    2    0    0 -0.10192332192E+03  0.16988235845E+04  0.12167498588E+03  0.17080932101E+04  0.79922947582E+02 0.  0.
        254    2    1    2    0    0  0.10192332192E+03 -0.16988235845E+04  0.12559672354E+04  0.22993706040E+04  0.90181014825E+03 0.  0.
         23    2    4    4    0    0  0.75579516005E+02  0.77025739340E+02  0.14080604520E+03  0.20020547552E+03  0.92793654430E+02 0.  0.
         23    2    4    4    0    0  0.26343805916E+02 -0.17758493238E+04  0.11151611902E+04  0.20991651285E+04  0.92600969600E+02 0.  0.
          4    1    3    3  502    0 -0.41449654430E+02  0.26439335900E+03  0.33054540596E+02  0.26965630864E+03  0.00000000000E+00 0. -1.
         -3    1    3    3    0  502 -0.60473667491E+02  0.14344302255E+04  0.88620445280E+02  0.14384369015E+04  0.00000000000E+00 0.  1.
         13    1    5    5    0    0  0.43306018581E+02 -0.11580817067E+02  0.26705161650E+02  0.52179423416E+02  0.00000000000E+00 0.  1.
        -13    1    5    5    0    0  0.32273497424E+02  0.88606556406E+02  0.11410088355E+03  0.14802605210E+03  0.00000000000E+00 0. -1.
          2    1    6    6  503    0  0.18522736875E+02 -0.18820478441E+03  0.14769120094E+03  0.23995171075E+03  0.00000000000E+00 0. -1.
         -2    1    6    6    0  503  0.78210690405E+01 -0.15876445394E+04  0.96746998928E+03  0.18592134177E+04  0.00000000000E+00 0.  1.
<mgrwt>
<rscale>  0 0.37632258E+04</rscale>
<asrwt>0</asrwt>
<pdfrwt beam="1">  1        2 0.41423892E+00 0.37632258E+04</pdfrwt>
<pdfrwt beam="2">  1       -1 0.20229397E+00 0.37632258E+04</pdfrwt>
<totfact> 0.35565670E-01</totfact>
</mgrwt>
</event>
<event>
12    7  0.1546317E-007  0.1436753E+04  0.7818608E-02  0.8927637E-01
         -1   -1    0    0    0  501 -0.00000000000E+00  0.00000000000E+00  0.39880140802E+03  0.39880140802E+03  0.00000000000E+00 0.  1.
          2   -1    0    0  501    0  0.00000000000E+00 -0.00000000000E+00 -0.12940387312E+04  0.12940387312E+04  0.00000000000E+00 0. -1.
         24    2    1    2    0    0  0.65181548133E+02  0.19333611601E+03  0.17872827263E+03  0.28269098179E+03  0.79642374254E+02 0.  0.
        254    2    1    2    0    0 -0.65181548133E+02 -0.19333611601E+03 -0.10739655958E+04  0.14101491574E+04  0.89078115002E+03 0.  0.
         23    2    4    4    0    0 -0.46372071224E+03 -0.17509373613E+03 -0.62347406103E+03  0.80172203980E+03  0.91343357294E+02 0.  0.
         23    2    4    4    0    0  0.39853916411E+03 -0.18242379876E+02 -0.45049153477E+03  0.60842711762E+03  0.89859249956E+02 0.  0.
          2    1    3    3  502    0  0.45058578564E+02  0.37920302527E+02  0.27823489239E+02  0.65133489077E+02  0.00000000000E+00 0. -1.
         -1    1    3    3    0  502  0.20122969569E+02  0.15541581348E+03  0.15090478339E+03  0.21755749271E+03  0.00000000000E+00 0.  1.
         13    1    5    5    0    0 -0.54226326427E+02  0.56200477976E+01 -0.47724851325E+02  0.72455095398E+02  0.00000000000E+00 0. -1.
        -13    1    5    5    0    0 -0.40949438582E+03 -0.18071378393E+03 -0.57574920971E+03  0.72926694440E+03  0.00000000000E+00 0.  1.
          1    1    6    6  503    0  0.57223373104E+02  0.62154555481E+01 -0.11807395133E+03  0.13135678247E+03  0.00000000000E+00 0. -1.
         -1    1    6    6    0  503  0.34131579101E+03 -0.24457835424E+02 -0.33241758344E+03  0.47707033515E+03  0.00000000000E+00 0.  1.
<mgrwt>
<rscale>  0 0.14367525E+04</rscale>
<asrwt>0</asrwt>
<pdfrwt beam="1">  1        2 0.19908288E+00 0.14367525E+04</pdfrwt>
<pdfrwt beam="2">  1       -1 0.61354063E-01 0.14367525E+04</pdfrwt>
<totfact> 0.49683620E+01</totfact>
</mgrwt>
</event>
<event>
12    7  0.1546317E-007  0.2165019E+04  0.7818608E-02  0.8533130E-01
         -1   -1    0    0    0  501 -0.00000000000E+00  0.00000000000E+00  0.35593227199E+03  0.35593227199E+03  0.00000000000E+00 0.  1.
          2   -1    0    0  501    0  0.00000000000E+00 -0.00000000000E+00 -0.32922762015E+04  0.32922762015E+04  0.00000000000E+00 0. -1.
         24    2    1    2    0    0 -0.36529440858E+03  0.36742930376E+03 -0.24430766161E+04  0.24990268462E+04  0.89819416512E+02 0.  0.
        254    2    1    2    0    0  0.36529440858E+03 -0.36742930376E+03 -0.49326731335E+03  0.11491816272E+04  0.89936726190E+03 0.  0.
         23    2    4    4    0    0 -0.23691898147E+03 -0.30353542027E+03 -0.64181305835E+02  0.40136717393E+03  0.93338165586E+02 0.  0.
         23    2    4    4    0    0  0.60221339004E+03 -0.63893883490E+02 -0.42908600751E+03  0.74781445331E+03  0.91478189978E+02 0.  0.
          4    1    3    3  502    0 -0.29644467526E+03  0.26441091189E+03 -0.17083086119E+04  0.17538845142E+04  0.00000000000E+00 0. -1.
         -3    1    3    3    0  502 -0.68849733316E+02  0.10301839187E+03 -0.73476800425E+03  0.74514233198E+03  0.00000000000E+00 0.  1.
         13    1    5    5    0    0 -0.18423533567E+03 -0.23115417558E+03 -0.80520698881E+01  0.29570212652E+03  0.00000000000E+00 0. -1.
        -13    1    5    5    0    0 -0.52683645792E+02 -0.72381244689E+02 -0.56129235947E+02  0.10566504741E+03  0.00000000000E+00 0.  1.
          1    1    6    6  503    0  0.41507988146E+03 -0.81527001123E+02 -0.27260458866E+03  0.50324071940E+03  0.00000000000E+00 0. -1.
         -1    1    6    6    0  503  0.18713350858E+03  0.17633117633E+02 -0.15648141885E+03  0.24457373391E+03  0.00000000000E+00 0.  1.
<mgrwt>
<rscale>  0 0.21650195E+04</rscale>
<asrwt>0</asrwt>
<pdfrwt beam="1">  1        2 0.50650402E+00 0.21650195E+04</pdfrwt>
<pdfrwt beam="2">  1       -1 0.54758812E-01 0.21650195E+04</pdfrwt>
<totfact> 0.39725245E+00</totfact>
</mgrwt>
</event>
<event>
12    7  0.1546317E-007  0.2492413E+04  0.7818608E-02  0.8405693E-01
         -1   -1    0    0    0  501 -0.00000000000E+00  0.00000000000E+00  0.10278742792E+04  0.10278742792E+04  0.00000000000E+00 0.  1.
          2   -1    0    0  501    0  0.00000000000E+00 -0.00000000000E+00 -0.15109151196E+04  0.15109151196E+04  0.00000000000E+00 0. -1.
         24    2    1    2    0    0  0.88534290320E+02  0.10631123773E+03  0.87878666428E+03  0.89305352584E+03  0.78346658297E+02 0.  0.
        254    2    1    2    0    0 -0.88534290320E+02 -0.10631123773E+03 -0.13618275047E+04  0.16457358729E+04  0.91363669528E+03 0.  0.
         23    2    4    4    0    0  0.82359763498E+02 -0.28140648100E+03 -0.56547780580E+02  0.31392113623E+03  0.96830212705E+02 0.  0.
         23    2    4    4    0    0 -0.17089405382E+03  0.17509524327E+03 -0.13052797242E+04  0.13318147367E+04  0.10055949848E+03 0.  0.
          4    1    3    3  502    0  0.17024209709E+01 -0.99463188299E+01  0.23954357137E+02  0.25993051403E+02  0.00000000000E+00 0. -1.
         -3    1    3    3    0  502  0.86831869349E+02  0.11625755656E+03  0.85483230715E+03  0.86706047444E+03  0.00000000000E+00 0.  1.
         13    1    5    5    0    0 -0.19543652677E+02 -0.88281328549E+02 -0.17455814030E+02  0.92088287929E+02  0.00000000000E+00 0. -1.
        -13    1    5    5    0    0  0.10190341617E+03 -0.19312515245E+03 -0.39091966550E+02  0.22183284830E+03  0.00000000000E+00 0.  1.
          2    1    6    6  503    0  0.73418430721E+01  0.39788946752E+02 -0.22340055064E+03  0.22703495099E+03  0.00000000000E+00 0. -1.
         -2    1    6    6    0  503 -0.17823589689E+03  0.13530629652E+03 -0.10818791735E+04  0.11047797857E+04  0.00000000000E+00 0.  1.
<mgrwt>
<rscale>  0 0.24924131E+04</rscale>
<asrwt>0</asrwt>
<pdfrwt beam="1">  1        2 0.23244848E+00 0.24924131E+04</pdfrwt>
<pdfrwt beam="2">  1       -1 0.15813450E+00 0.24924131E+04</pdfrwt>
<totfact> 0.38411924E+00</totfact>
</mgrwt>
</event>
<event>
12    7  0.1546317E-007  0.2142937E+04  0.7818608E-02  0.8542562E-01
          2   -1    0    0  501    0  0.00000000000E+00  0.00000000000E+00  0.10382177462E+04  0.10382177462E+04  0.00000000000E+00 0. -1.
         -1   -1    0    0    0  501 -0.00000000000E+00 -0.00000000000E+00 -0.11057836891E+04  0.11057836891E+04  0.00000000000E+00 0.  1.
         24    2    1    2    0    0  0.61312149207E+03 -0.39654717806E+03  0.45594404081E+03  0.86475691794E+03  0.82170130285E+02 0.  0.
        254    2    1    2    0    0 -0.61312149207E+03  0.39654717806E+03 -0.52350998370E+03  0.12792445173E+04  0.91062407367E+03 0.  0.
         23    2    4    4    0    0  0.78959130102E+02 -0.20893687827E+03 -0.12781561311E+03  0.27318235490E+03  0.91665722847E+02 0.  0.
         23    2    4    4    0    0 -0.69208062217E+03  0.60548405633E+03 -0.39569437059E+03  0.10060621624E+04  0.10000254817E+03 0.  0.
          4    1    3    3  502    0  0.54185696974E+03 -0.37913222718E+03  0.41476959556E+03  0.78063053921E+03  0.00000000000E+00 0. -1.
         -3    1    3    3    0  502  0.71264522326E+02 -0.17414950875E+02  0.41174445256E+02  0.84126378732E+02  0.00000000000E+00 0.  1.
         13    1    5    5    0    0  0.90913517238E+02 -0.17225258033E+03 -0.77143146766E+02  0.20949292145E+03  0.00000000000E+00 0. -1.
        -13    1    5    5    0    0 -0.11954387136E+02 -0.36684297947E+02 -0.50672466341E+02  0.63689433447E+02  0.00000000000E+00 0.  1.
          2    1    6    6  503    0 -0.47433157262E+03  0.46649089241E+03 -0.30930211886E+03  0.73367022170E+03  0.00000000000E+00 0. -1.
         -2    1    6    6    0  503 -0.21774904955E+03  0.13899316393E+03 -0.86392251734E+02  0.27239194070E+03  0.00000000000E+00 0.  1.
<mgrwt>
<rscale>  0 0.21429365E+04</rscale>
<asrwt>0</asrwt>
<pdfrwt beam="1">  1        2 0.15972581E+00 0.21429365E+04</pdfrwt>
<pdfrwt beam="2">  1       -1 0.17012057E+00 0.21429365E+04</pdfrwt>
<totfact> 0.61242022E+00</totfact>
</mgrwt>
</event>
<event>
12    7  0.1546317E-007  0.1112626E+04  0.7818608E-02  0.9192972E-01
         -1   -1    0    0    0  501 -0.00000000000E+00  0.00000000000E+00  0.20308742215E+03  0.20308742215E+03  0.00000000000E+00 0.  1.
          2   -1    0    0  501    0  0.00000000000E+00 -0.00000000000E+00 -0.15238959883E+04  0.15238959883E+04  0.00000000000E+00 0. -1.
         24    2    1    2    0    0 -0.12801940723E+03 -0.11106472867E+03 -0.20310610851E+03  0.27615387816E+03  0.79275030919E+02 0.  0.
        254    2    1    2    0    0  0.12801940723E+03  0.11106472867E+03 -0.11177024576E+04  0.14508295323E+04  0.90935317966E+03 0.  0.
         23    2    4    4    0    0  0.14003384675E+03 -0.19852991318E+03 -0.10972303351E+04  0.11275480763E+04  0.91796794640E+02 0.  0.
         23    2    4    4    0    0 -0.12014439524E+02  0.30959464185E+03 -0.20472122580E+02  0.32328145600E+03  0.89992238399E+02 0.  0.
          2    1    3    3  502    0 -0.31556664918E+02 -0.62073229548E+02 -0.12369161164E+03  0.14194549558E+03  0.00000000000E+00 0. -1.
         -1    1    3    3    0  502 -0.96462742309E+02 -0.48991499122E+02 -0.79414496874E+02  0.13420838258E+03  0.00000000000E+00 0.  1.
         13    1    5    5    0    0 -0.11575095837E+02 -0.12547952834E+02 -0.12427069862E+03  0.12543779533E+03  0.00000000000E+00 0. -1.
        -13    1    5    5    0    0  0.15160894259E+03 -0.18598196034E+03 -0.97295963644E+03  0.10021102810E+04  0.00000000000E+00 0.  1.
          2    1    6    6  503    0 -0.68696327361E+01  0.29482498022E+03 -0.40713022547E+02  0.29770205075E+03  0.00000000000E+00 0.  1.
         -2    1    6    6    0  503 -0.51448067876E+01  0.14769661630E+02  0.20240899967E+02  0.25579405251E+02  0.00000000000E+00 0. -1.
<mgrwt>
<rscale>  0 0.11126259E+04</rscale>
<asrwt>0</asrwt>
<pdfrwt beam="1">  1        2 0.23444554E+00 0.11126259E+04</pdfrwt>
<pdfrwt beam="2">  1       -1 0.31244219E-01 0.11126259E+04</pdfrwt>
<totfact> 0.13204269E+02</totfact>
</mgrwt>
</event>
<event>
12    7  0.1546317E-007  0.1716984E+04  0.7818608E-02  0.8751736E-01
         -1   -1    0    0    0  501 -0.00000000000E+00  0.00000000000E+00  0.10115615297E+04  0.10115615297E+04  0.00000000000E+00 0.  1.
          2   -1    0    0  501    0  0.00000000000E+00 -0.00000000000E+00 -0.72858535080E+03  0.72858535080E+03  0.00000000000E+00 0. -1.
         24    2    1    2    0    0  0.29272496527E+03  0.54446162402E+03  0.21567082442E+03  0.65946080679E+03  0.79046099615E+02 0.  0.
        254    2    1    2    0    0 -0.29272496527E+03 -0.54446162402E+03  0.67305354527E+02  0.10806860737E+04  0.88386990780E+03 0.  0.
         23    2    4    4    0    0 -0.21316257145E+03 -0.81199054481E+02  0.41969703983E+03  0.48624290476E+03  0.90856969338E+02 0.  0.
         23    2    4    4    0    0 -0.79562393822E+02 -0.46326256954E+03 -0.35239168530E+03  0.59444316898E+03  0.90776640334E+02 0.  0.
          2    1    3    3  502    0  0.38107591649E+02  0.66805430559E+02  0.55943482986E+02  0.95104297390E+02  0.00000000000E+00 0. -1.
         -1    1    3    3    0  502  0.25461737362E+03  0.47765619346E+03  0.15972734143E+03  0.56435650940E+03  0.00000000000E+00 0.  1.
         13    1    5    5    0    0 -0.11417410421E+03  0.17350307228E+01  0.22965118421E+03  0.25647300601E+03  0.00000000000E+00 0. -1.
        -13    1    5    5    0    0 -0.98988467238E+02 -0.82934085203E+02  0.19004585562E+03  0.22976989875E+03  0.00000000000E+00 0.  1.
          3    1    6    6  503    0 -0.92015292823E+02 -0.45205111767E+03 -0.33383549804E+03  0.56944110042E+03  0.00000000000E+00 0. -1.
         -3    1    6    6    0  503  0.12452899000E+02 -0.11211451874E+02 -0.18556187257E+02  0.25002068557E+02  0.00000000000E+00 0.  1.
<mgrwt>
<rscale>  0 0.17169845E+04</rscale>
<asrwt>0</asrwt>
<pdfrwt beam="1">  1        2 0.11209005E+00 0.17169845E+04</pdfrwt>
<pdfrwt beam="2">  1       -1 0.15562485E+00 0.17169845E+04</pdfrwt>
<totfact> 0.13332894E+01</totfact>
</mgrwt>
</event>
<event>
12    7  0.1546317E-007  0.2251372E+04  0.7818608E-02  0.8497345E-01
          2   -1    0    0  501    0  0.00000000000E+00  0.00000000000E+00  0.18714779759E+04  0.18714779759E+04  0.00000000000E+00 0. -1.
         -1   -1    0    0    0  501 -0.00000000000E+00 -0.00000000000E+00 -0.67709511211E+03  0.67709511211E+03  0.00000000000E+00 0.  1.
         24    2    1    2    0    0  0.60795835831E+03  0.16856334965E+03 -0.29032613759E+03  0.69908013356E+03  0.79979989315E+02 0.  0.
        254    2    1    2    0    0 -0.60795835831E+03 -0.16856334965E+03  0.14847090013E+04  0.18494929544E+04  0.90456420528E+03 0.  0.
         23    2    4    4    0    0 -0.41424921969E+03 -0.50491475789E+02  0.93972637172E+02  0.43741811275E+03  0.91388969139E+02 0.  0.
         23    2    4    4    0    0 -0.19370913862E+03 -0.11807187386E+03  0.13907363642E+04  0.14120748417E+04  0.91342903701E+02 0.  0.
          4    1    3    3  502    0  0.25763987328E+03  0.65089969606E+02 -0.16551139909E+03  0.31306394183E+03  0.00000000000E+00 0. -1.
         -3    1    3    3    0  502  0.35031848503E+03  0.10347338005E+03 -0.12481473850E+03  0.38601619173E+03  0.00000000000E+00 0.  1.
         13    1    5    5    0    0 -0.19695289117E+03  0.13446888867E+02  0.16801866266E+02  0.19812511923E+03  0.00000000000E+00 0.  1.
        -13    1    5    5    0    0 -0.21729632853E+03 -0.63938364656E+02  0.77170770907E+02  0.23929299352E+03  0.00000000000E+00 0. -1.
          4    1    6    6  503    0 -0.30316671627E+02 -0.12121462019E+02  0.46144487822E+03  0.46259853659E+03  0.00000000000E+00 0. -1.
         -4    1    6    6    0  503 -0.16339246699E+03 -0.10595041184E+03  0.92929148595E+03  0.94947630507E+03  0.00000000000E+00 0.  1.
<mgrwt>
<rscale>  0 0.22513717E+04</rscale>
<asrwt>0</asrwt>
<pdfrwt beam="1">  1        2 0.28791969E+00 0.22513717E+04</pdfrwt>
<pdfrwt beam="2">  1       -1 0.10416848E+00 0.22513717E+04</pdfrwt>
<totfact> 0.70768105E+00</totfact>
</mgrwt>
</event>
<event>
12    7  0.1546317E-007  0.1473928E+04  0.7818608E-02  0.8901978E-01
         -1   -1    0    0    0  501 -0.00000000000E+00  0.00000000000E+00  0.19638830749E+03  0.19638830749E+03  0.00000000000E+00 0.  1.
          2   -1    0    0  501    0  0.00000000000E+00 -0.00000000000E+00 -0.27655223676E+04  0.27655223676E+04  0.00000000000E+00 0. -1.
         24    2    1    2    0    0 -0.16920163916E+03 -0.23698815177E+02 -0.16643413729E+04  0.16737938375E+04  0.48608398915E+02 0.  0.
        254    2    1    2    0    0  0.16920163916E+03  0.23698815177E+02 -0.90479268717E+03  0.12881168375E+04  0.90077985759E+03 0.  0.
         23    2    4    4    0    0  0.10779126544E+03  0.31998770966E+03 -0.22211673455E+02  0.35056429442E+03  0.91601718609E+02 0.  0.
         23    2    4    4    0    0  0.61410373727E+02 -0.29628889448E+03 -0.88258101371E+03  0.93755254311E+03  0.92180162326E+02 0.  0.
          4    1    3    3  502    0 -0.13899141820E+03 -0.14589655962E+02 -0.11454895114E+04  0.11539834025E+04  0.00000000000E+00 0. -1.
         -3    1    3    3    0  502 -0.30210220964E+02 -0.91091592156E+01 -0.51885186146E+03  0.51981043503E+03  0.00000000000E+00 0.  1.
         13    1    5    5    0    0  0.83833495307E+01  0.45681291707E+02 -0.35562100340E+02  0.58495503604E+02  0.00000000000E+00 0. -1.
        -13    1    5    5    0    0  0.99407915905E+02  0.27430641795E+03  0.13350426885E+02  0.29206879082E+03  0.00000000000E+00 0.  1.
          4    1    6    6  503    0  0.20708811844E+02 -0.69046504646E+02 -0.11251205724E+03  0.13362349238E+03  0.00000000000E+00 0. -1.
         -4    1    6    6    0  503  0.40701561883E+02 -0.22724238983E+03 -0.77006895647E+03  0.80392905073E+03  0.00000000000E+00 0.  1.
<mgrwt>
<rscale>  0 0.14739284E+04</rscale>
<asrwt>0</asrwt>
<pdfrwt beam="1">  1        2 0.42546496E+00 0.14739284E+04</pdfrwt>
<pdfrwt beam="2">  1       -1 0.30213587E-01 0.14739284E+04</pdfrwt>
<totfact> 0.27094237E+01</totfact>
</mgrwt>
</event>
<event>
12    7  0.1546317E-007  0.1608464E+04  0.7818608E-02  0.8815365E-01
          2   -1    0    0  501    0  0.00000000000E+00  0.00000000000E+00  0.39587742755E+03  0.39587742755E+03  0.00000000000E+00 0. -1.
         -1   -1    0    0    0  501 -0.00000000000E+00 -0.00000000000E+00 -0.16338106684E+04  0.16338106684E+04  0.00000000000E+00 0.  1.
         24    2    1    2    0    0 -0.69119318113E+01 -0.31297456226E+02  0.26414549784E+03  0.27812203790E+03  0.80942685716E+02 0.  0.
        254    2    1    2    0    0  0.69119318113E+01  0.31297456226E+02 -0.15020787387E+04  0.17515660581E+04  0.90039758603E+03 0.  0.
         23    2    4    4    0    0  0.37768659170E+03 -0.21630415482E+03 -0.74714830953E+03  0.87022408962E+03  0.98105661259E+02 0.  0.
         23    2    4    4    0    0 -0.37077465989E+03  0.24760161105E+03 -0.75493042916E+03  0.88134196843E+03  0.89795914382E+02 0.  0.
          2    1    3    3  502    0 -0.27441013724E+02 -0.31538189462E+02  0.24931409249E+03  0.25279474549E+03  0.00000000000E+00 0. -1.
         -1    1    3    3    0  502  0.20529081913E+02  0.24073323627E+00  0.14831405343E+02  0.25327292416E+02  0.00000000000E+00 0.  1.
         13    1    5    5    0    0  0.66102373314E+02  0.12034913962E+00 -0.12882915892E+03  0.14479810230E+03  0.00000000000E+00 0. -1.
        -13    1    5    5    0    0  0.31158421839E+03 -0.21642450396E+03 -0.61831915061E+03  0.72542598732E+03  0.00000000000E+00 0.  1.
          1    1    6    6  503    0 -0.78363981432E+02  0.15172058540E+02 -0.10764646241E+03  0.13401069291E+03  0.00000000000E+00 0. -1.
         -1    1    6    6    0  503 -0.29241067846E+03  0.23242955251E+03 -0.64728396675E+03  0.74733127552E+03  0.00000000000E+00 0.  1.
<mgrwt>
<rscale>  0 0.16084636E+04</rscale>
<asrwt>0</asrwt>
<pdfrwt beam="1">  1        2 0.60904218E-01 0.16084636E+04</pdfrwt>
<pdfrwt beam="2">  1       -1 0.25135549E+00 0.16084636E+04</pdfrwt>
<totfact> 0.60270555E+00</totfact>
</mgrwt>
</event>
<event>
12    7  0.1546317E-007  0.2679545E+04  0.7818608E-02  0.8341672E-01
         -1   -1    0    0    0  501 -0.00000000000E+00  0.00000000000E+00  0.10198729655E+04  0.10198729655E+04  0.00000000000E+00 0.  1.
          2   -1    0    0  501    0  0.00000000000E+00 -0.00000000000E+00 -0.17600140673E+04  0.17600140673E+04  0.00000000000E+00 0. -1.
         24    2    1    2    0    0  0.61987549994E+03  0.84307916670E+03 -0.91222316025E+03  0.13905341833E+04  0.80038140663E+02 0.  0.
        254    2    1    2    0    0 -0.61987549994E+03 -0.84307916670E+03  0.17208205849E+03  0.13893528496E+04  0.89758620142E+03 0.  0.
         23    2    4    4    0    0 -0.19889205711E+03 -0.26024922747E+03 -0.35681057066E+03  0.49224295131E+03  0.87758925454E+02 0.  0.
         23    2    4    4    0    0 -0.42098344283E+03 -0.58282993923E+03  0.52889262914E+03  0.89710989825E+03  0.90338027344E+02 0.  0.
          4    1    3    3  502    0  0.67949625067E+02  0.55599513265E+02 -0.80379995197E+02  0.11903529330E+03  0.00000000000E+00 0. -1.
         -3    1    3    3    0  502  0.55192587487E+03  0.78747965344E+03 -0.83184316505E+03  0.12714988900E+04  0.00000000000E+00 0.  1.
         13    1    5    5    0    0 -0.20116853215E+03 -0.25511184410E+03 -0.36067374678E+03  0.48542392086E+03  0.00000000000E+00 0.  1.
        -13    1    5    5    0    0  0.22764750357E+01 -0.51373833736E+01  0.38631761218E+01  0.68190304489E+01  0.00000000000E+00 0. -1.
          3    1    6    6  503    0 -0.23407749067E+03 -0.25130057263E+03  0.23256229652E+03  0.41476435624E+03  0.00000000000E+00 0. -1.
         -3    1    6    6    0  503 -0.18690595216E+03 -0.33152936660E+03  0.29633033263E+03  0.48234554202E+03  0.00000000000E+00 0.  1.
<mgrwt>
<rscale>  0 0.26795453E+04</rscale>
<asrwt>0</asrwt>
<pdfrwt beam="1">  1        2 0.27077139E+00 0.26795453E+04</pdfrwt>
<pdfrwt beam="2">  1       -1 0.15690353E+00 0.26795453E+04</pdfrwt>
<totfact> 0.28029717E+00</totfact>
</mgrwt>
</event>
<event>
12    7  0.1546317E-007  0.2182041E+04  0.7818608E-02  0.8525940E-01
         -1   -1    0    0    0  501 -0.00000000000E+00  0.00000000000E+00  0.52380287534E+03  0.52380287534E+03  0.00000000000E+00 0.  1.
          2   -1    0    0  501    0  0.00000000000E+00 -0.00000000000E+00 -0.22724691309E+04  0.22724691309E+04  0.00000000000E+00 0. -1.
         24    2    1    2    0    0 -0.30703725482E+03 -0.20931469204E+03  0.32945435186E+03  0.50292105767E+03  0.79403426456E+02 0.  0.
        254    2    1    2    0    0  0.30703725482E+03  0.20931469204E+03 -0.20781206075E+04  0.22933509486E+04  0.89598482032E+03 0.  0.
         23    2    4    4    0    0 -0.27139661529E+03  0.23555279833E+03 -0.99248465072E+03  0.10595193153E+04  0.91728697269E+02 0.  0.
         23    2    4    4    0    0  0.57843387011E+03 -0.26238106294E+02 -0.10856359567E+04  0.12338316334E+04  0.91983088635E+02 0.  0.
          4    1    3    3  502    0 -0.20820590488E+01 -0.66136299482E+01 -0.37080785445E+01  0.78628822620E+01  0.00000000000E+00 0. -1.
         -3    1    3    3    0  502 -0.30495519577E+03 -0.20270106209E+03  0.33316243040E+03  0.49505817540E+03  0.00000000000E+00 0.  1.
         13    1    5    5    0    0 -0.24043963060E+03  0.19093115118E+03 -0.91308952238E+03  0.96332673395E+03  0.00000000000E+00 0.  1.
        -13    1    5    5    0    0 -0.30956984692E+02  0.44621647155E+02 -0.79395128336E+02  0.96192581313E+02  0.00000000000E+00 0. -1.
          4    1    6    6  503    0  0.43920083089E+03 -0.51059236835E+02 -0.87075381156E+03  0.97658415708E+03  0.00000000000E+00 0. -1.
         -4    1    6    6    0  503  0.13923303923E+03  0.24821130541E+02 -0.21488214518E+03  0.25724747627E+03  0.00000000000E+00 0.  1.
<mgrwt>
<rscale>  0 0.21820411E+04</rscale>
<asrwt>0</asrwt>
<pdfrwt beam="1">  1        2 0.34961063E+00 0.21820411E+04</pdfrwt>
<pdfrwt beam="2">  1       -1 0.80585059E-01 0.21820411E+04</pdfrwt>
<totfact> 0.75187569E+00</totfact>
</mgrwt>
</event>
<event>
12    7  0.1546317E-007  0.2187739E+04  0.7818608E-02  0.8523549E-01
         -1   -1    0    0    0  501 -0.00000000000E+00  0.00000000000E+00  0.86211893328E+03  0.86211893328E+03  0.00000000000E+00 0.  1.
          2   -1    0    0  501    0  0.00000000000E+00 -0.00000000000E+00 -0.13879182874E+04  0.13879182874E+04  0.00000000000E+00 0. -1.
         24    2    1    2    0    0  0.65376624050E+03  0.60933424853E+03 -0.73595618120E+02  0.90021504866E+03  0.79197823130E+02 0.  0.
        254    2    1    2    0    0 -0.65376624050E+03 -0.60933424853E+03 -0.45220373603E+03  0.13498221720E+04  0.90489400132E+03 0.  0.
         23    2    4    4    0    0 -0.73019431038E+03 -0.76801078700E+03 -0.43413214445E+03  0.11488133662E+04  0.90978743095E+02 0.  0.
         23    2    4    4    0    0  0.76428069884E+02  0.15867653847E+03 -0.18071591581E+02  0.20100880583E+03  0.95175962678E+02 0.  0.
          4    1    3    3  502    0  0.55169595502E+03  0.50961094552E+03 -0.32645209468E+02  0.75175624526E+03  0.00000000000E+00 0. -1.
         -1    1    3    3    0  502  0.10207028548E+03  0.99723303004E+02 -0.40950408652E+02  0.14845880340E+03  0.00000000000E+00 0.  1.
         13    1    5    5    0    0 -0.34065595228E+03 -0.42068556662E+03 -0.23707323895E+03  0.59095392749E+03  0.00000000000E+00 0. -1.
        -13    1    5    5    0    0 -0.38953835810E+03 -0.34732522037E+03 -0.19705890550E+03  0.55785943873E+03  0.00000000000E+00 0.  1.
          3    1    6    6  503    0 -0.12110691996E+02  0.57741914477E+02 -0.30051721721E+02  0.66211052903E+02  0.00000000000E+00 0. -1.
         -3    1    6    6    0  503  0.88538761881E+02  0.10093462399E+03  0.11980130140E+02  0.13479775293E+03  0.00000000000E+00 0.  1.
<mgrwt>
<rscale>  0 0.21877391E+04</rscale>
<asrwt>0</asrwt>
<pdfrwt beam="1">  1        2 0.21352589E+00 0.21877391E+04</pdfrwt>
<pdfrwt beam="2">  1       -1 0.13263368E+00 0.21877391E+04</pdfrwt>
<totfact> 0.73888428E+00</totfact>
</mgrwt>
</event>
<event>
12    7  0.1546317E-007  0.1786700E+04  0.7818608E-02  0.8713404E-01
         -1   -1    0    0    0  501 -0.00000000000E+00  0.00000000000E+00  0.12341926019E+04  0.12341926019E+04  0.00000000000E+00 0.  1.
          2   -1    0    0  501    0  0.00000000000E+00 -0.00000000000E+00 -0.64663654158E+03  0.64663654158E+03  0.00000000000E+00 0. -1.
         24    2    1    2    0    0  0.74090866778E+02 -0.47769756674E+03  0.69828613822E+03  0.85308162647E+03  0.80376046040E+02 0.  0.
        254    2    1    2    0    0 -0.74090866778E+02  0.47769756674E+03 -0.11073007791E+03  0.10277475170E+04  0.90017741958E+03 0.  0.
         23    2    4    4    0    0 -0.17370287519E+03 -0.22765673669E+03 -0.28708717758E+01  0.30103027636E+03  0.92793894046E+02 0.  0.
         23    2    4    4    0    0  0.99612008412E+02  0.70535430343E+03 -0.10785920614E+03  0.72671724063E+03  0.95063630766E+02 0.  0.
          2    1    3    3  502    0  0.47485676030E+02 -0.34787809107E+03  0.44122727498E+03  0.56387548613E+03  0.00000000000E+00 0. -1.
         -1    1    3    3    0  502  0.26605190749E+02 -0.12981947568E+03  0.25705886324E+03  0.28920614034E+03  0.00000000000E+00 0.  1.
         13    1    5    5    0    0 -0.17844662087E+02  0.28476841247E+00 -0.16849562028E+02  0.24544262030E+02  0.00000000000E+00 0. -1.
        -13    1    5    5    0    0 -0.15585821310E+03 -0.22794150510E+03  0.13978690253E+02  0.27648601433E+03  0.00000000000E+00 0.  1.
          2    1    6    6  503    0 -0.14450951514E+02  0.35230723680E+02  0.20167584547E+01  0.38132678969E+02  0.00000000000E+00 0. -1.
         -2    1    6    6    0  503  0.11406295993E+03  0.67012357975E+03 -0.10987596459E+03  0.68858456166E+03  0.00000000000E+00 0.  1.
<mgrwt>
<rscale>  0 0.17866998E+04</rscale>
<asrwt>0</asrwt>
<pdfrwt beam="1">  1        2 0.99482545E-01 0.17866998E+04</pdfrwt>
<pdfrwt beam="2">  1       -1 0.18987578E+00 0.17866998E+04</pdfrwt>
<totfact> 0.86465829E+00</totfact>
</mgrwt>
</event>
<event>
12    7  0.1546317E-007  0.1409712E+04  0.7818608E-02  0.8946819E-01
         -1   -1    0    0    0  501 -0.00000000000E+00  0.00000000000E+00  0.34998013442E+03  0.34998013442E+03  0.00000000000E+00 0.  1.
          2   -1    0    0  501    0  0.00000000000E+00 -0.00000000000E+00 -0.14195711188E+04  0.14195711188E+04  0.00000000000E+00 0. -1.
         24    2    1    2    0    0 -0.40360982175E+03 -0.83947184145E+02 -0.34977335550E+03  0.54760181153E+03  0.87053580242E+02 0.  0.
        254    2    1    2    0    0  0.40360982175E+03  0.83947184145E+02 -0.71981762885E+03  0.12219494417E+04  0.89725971783E+03 0.  0.
         23    2    4    4    0    0  0.30359644131E+03  0.47431430010E+03 -0.36852852856E+03  0.67918354539E+03  0.91280652396E+02 0.  0.
         23    2    4    4    0    0  0.10001338044E+03 -0.39036711596E+03 -0.35128910029E+03  0.54276589628E+03  0.93816974444E+02 0.  0.
          4    1    3    3  502    0 -0.11296112405E+03 -0.25219244227E+02 -0.15251657627E+03  0.19146156759E+03  0.00000000000E+00 0. -1.
         -3    1    3    3    0  502 -0.29064869770E+03 -0.58727939918E+02 -0.19725677922E+03  0.35614024394E+03  0.00000000000E+00 0.  1.
         13    1    5    5    0    0  0.67710103284E+02  0.18601212312E+03 -0.13207483310E+03  0.23796833733E+03  0.00000000000E+00 0. -1.
        -13    1    5    5    0    0  0.23588633803E+03  0.28830217698E+03 -0.23645369546E+03  0.44121520805E+03  0.00000000000E+00 0.  1.
          1    1    6    6  503    0  0.29242340314E+02 -0.15160575830E+03 -0.77830062918E+02  0.17290731364E+03  0.00000000000E+00 0. -1.
         -1    1    6    6    0  503  0.70771040127E+02 -0.23876135766E+03 -0.27345903737E+03  0.36985858263E+03  0.00000000000E+00 0.  1.
<mgrwt>
<rscale>  0 0.14097116E+04</rscale>
<asrwt>0</asrwt>
<pdfrwt beam="1">  1        2 0.21839556E+00 0.14097116E+04</pdfrwt>
<pdfrwt beam="2">  1       -1 0.53843096E-01 0.14097116E+04</pdfrwt>
<totfact> 0.54418619E+01</totfact>
</mgrwt>
</event>
<event>
12    7  0.1546317E-007  0.3071889E+04  0.7818608E-02  0.8223495E-01
          2   -1    0    0  501    0  0.00000000000E+00  0.00000000000E+00  0.22868240300E+04  0.22868240300E+04  0.00000000000E+00 0. -1.
         -1   -1    0    0    0  501 -0.00000000000E+00 -0.00000000000E+00 -0.10316166026E+04  0.10316166026E+04  0.00000000000E+00 0.  1.
         24    2    1    2    0    0 -0.87251372091E+03 -0.10611337435E+04  0.90726248389E+03  0.16482664823E+04  0.79825855150E+02 0.  0.
        254    2    1    2    0    0  0.87251372091E+03  0.10611337435E+04  0.34794494356E+03  0.16701741503E+04  0.88381615386E+03 0.  0.
         23    2    4    4    0    0  0.60600645872E+03  0.11129168102E+04  0.69770753600E+02  0.12724200768E+04  0.91417938059E+02 0.  0.
         23    2    4    4    0    0  0.26650726219E+03 -0.51783066634E+02  0.27817418996E+03  0.39775407353E+03  0.84379003682E+02 0.  0.
          2    1    3    3  502    0 -0.22155176426E+03 -0.27704922535E+03  0.19352673892E+03  0.40409659265E+03  0.00000000000E+00 0. -1.
         -1    1    3    3    0  502 -0.65096195665E+03 -0.78408451820E+03  0.71373574497E+03  0.12441698897E+04  0.00000000000E+00 0.  1.
         13    1    5    5    0    0  0.31133702105E+03  0.57882632897E+03  0.81800573194E+02  0.66231562987E+03  0.00000000000E+00 0. -1.
        -13    1    5    5    0    0  0.29466943767E+03  0.53409048121E+03 -0.12029819594E+02  0.61010444694E+03  0.00000000000E+00 0.  1.
          1    1    6    6  503    0  0.24540256706E+03 -0.37373604878E+02  0.21068143134E+03  0.32558542930E+03  0.00000000000E+00 0. -1.
         -1    1    6    6    0  503  0.21104695133E+02 -0.14409461756E+02  0.67492758616E+02  0.72168644233E+02  0.00000000000E+00 0.  1.
<mgrwt>
<rscale>  0 0.30718891E+04</rscale>
<asrwt>0</asrwt>
<pdfrwt beam="1">  1        2 0.35181908E+00 0.30718891E+04</pdfrwt>
<pdfrwt beam="2">  1       -1 0.15871025E+00 0.30718891E+04</pdfrwt>
<totfact> 0.13337178E+00</totfact>
</mgrwt>
</event>
<event>
12    7  0.1546317E-007  0.1819959E+04  0.7818608E-02  0.8695757E-01
         -1   -1    0    0    0  501 -0.00000000000E+00  0.00000000000E+00  0.26713226554E+03  0.26713226554E+03  0.00000000000E+00 0.  1.
          2   -1    0    0  501    0  0.00000000000E+00 -0.00000000000E+00 -0.30998243264E+04  0.30998243264E+04  0.00000000000E+00 0. -1.
         24    2    1    2    0    0  0.34754647680E+03  0.45959768642E+02  0.14092187614E+02  0.35964064602E+03  0.79006016529E+02 0.  0.
        254    2    1    2    0    0 -0.34754647680E+03 -0.45959768642E+02 -0.28467842485E+04  0.30073159459E+04  0.90380738398E+03 0.  0.
         23    2    4    4    0    0  0.73263146164E+02 -0.39571900022E+03 -0.11270345142E+04  0.12002332458E+04  0.91608037359E+02 0.  0.
         23    2    4    4    0    0 -0.42080962297E+03  0.34975923158E+03 -0.17197497343E+04  0.18070827001E+04  0.92717191030E+02 0.  0.
          4    1    3    3  502    0  0.86343862772E+02  0.27151487079E+02 -0.27234815640E+02  0.94520902831E+02  0.00000000000E+00 0. -1.
         -3    1    3    3    0  502  0.26120261403E+03  0.18808281563E+02  0.41327003254E+02  0.26511974319E+03  0.00000000000E+00 0.  1.
         13    1    5    5    0    0  0.42370620109E+02 -0.98564002167E+02 -0.40171951702E+03  0.41579887245E+03  0.00000000000E+00 0. -1.
        -13    1    5    5    0    0  0.30892526054E+02 -0.29715499805E+03 -0.72531499714E+03  0.78443437336E+03  0.00000000000E+00 0.  1.
          4    1    6    6  503    0 -0.10040045893E+03  0.11280753114E+03 -0.36701046177E+03  0.39686580891E+03  0.00000000000E+00 0. -1.
         -4    1    6    6    0  503 -0.32040916404E+03  0.23695170044E+03 -0.13527392726E+04  0.14102168912E+04  0.00000000000E+00 0.  1.
<mgrwt>
<rscale>  0 0.18199594E+04</rscale>
<asrwt>0</asrwt>
<pdfrwt beam="1">  1        2 0.47689605E+00 0.18199594E+04</pdfrwt>
<pdfrwt beam="2">  1       -1 0.41097272E-01 0.18199594E+04</pdfrwt>
<totfact> 0.94020679E+00</totfact>
</mgrwt>
</event>
<event>
12    7  0.1546317E-007  0.1899018E+04  0.7818608E-02  0.8655345E-01
          2   -1    0    0  501    0  0.00000000000E+00  0.00000000000E+00  0.14444915288E+04  0.14444915288E+04  0.00000000000E+00 0. -1.
         -1   -1    0    0    0  501 -0.00000000000E+00 -0.00000000000E+00 -0.62414195522E+03  0.62414195522E+03  0.00000000000E+00 0.  1.
         24    2    1    2    0    0 -0.57923894943E+03  0.32548207933E+03 -0.10627297419E+02  0.66918630321E+03  0.79000154752E+02 0.  0.
        254    2    1    2    0    0  0.57923894943E+03 -0.32548207933E+03  0.83097687099E+03  0.13994471808E+04  0.90910588340E+03 0.  0.
         23    2    4    4    0    0  0.38029396832E+03  0.26016225036E+03  0.19825380333E+03  0.50998776115E+03  0.92060019204E+02 0.  0.
         23    2    4    4    0    0  0.19894498111E+03 -0.58564432969E+03  0.63272306766E+03  0.88945941966E+03  0.90781013734E+02 0.  0.
          2    1    3    3  502    0 -0.13232708541E+03  0.96076123058E+02  0.25649611698E+02  0.16552637716E+03  0.00000000000E+00 0. -1.
         -1    1    3    3    0  502 -0.44691186401E+03  0.22940595628E+03 -0.36276909117E+02  0.50365992605E+03  0.00000000000E+00 0.  1.
         13    1    5    5    0    0  0.29029648369E+03  0.15054827885E+03  0.12254734030E+03  0.34922010727E+03  0.00000000000E+00 0. -1.
        -13    1    5    5    0    0  0.89997484629E+02  0.10961397151E+03  0.75706463030E+02  0.16076765388E+03  0.00000000000E+00 0.  1.
          1    1    6    6  503    0  0.16925972582E+03 -0.56252535776E+03  0.59127646773E+03  0.83348155000E+03  0.00000000000E+00 0. -1.
         -1    1    6    6    0  503  0.29685255290E+02 -0.23118971934E+02  0.41446599933E+02  0.55977869654E+02  0.00000000000E+00 0.  1.
<mgrwt>
<rscale>  0 0.18990184E+04</rscale>
<asrwt>0</asrwt>
<pdfrwt beam="1">  1        2 0.22222946E+00 0.18990184E+04</pdfrwt>
<pdfrwt beam="2">  1       -1 0.96021840E-01 0.18990184E+04</pdfrwt>
<totfact> 0.15227172E+01</totfact>
</mgrwt>
</event>
<event>
12    7  0.1546317E-007  0.1766738E+04  0.7818608E-02  0.8724190E-01
          2   -1    0    0  501    0  0.00000000000E+00  0.00000000000E+00  0.28935649491E+04  0.28935649491E+04  0.00000000000E+00 0. -1.
         -1   -1    0    0    0  501 -0.00000000000E+00 -0.00000000000E+00 -0.26968158037E+03  0.26968158037E+03  0.00000000000E+00 0.  1.
         24    2    1    2    0    0 -0.57867594047E+02  0.56045630529E+03  0.38470332888E+03  0.68684118475E+03  0.79336203816E+02 0.  0.
        254    2    1    2    0    0  0.57867594047E+02 -0.56045630529E+03  0.22391800399E+04  0.24764053448E+04  0.89509566636E+03 0.  0.
         23    2    4    4    0    0 -0.11190668664E+02 -0.40883068358E+03  0.22488326754E+04  0.22875431240E+04  0.91309274329E+02 0.  0.
         23    2    4    4    0    0  0.69058262710E+02 -0.15162562170E+03 -0.96526354847E+01  0.18886222072E+03  0.88410362737E+02 0.  0.
          4    1    3    3  502    0  0.10697261847E+02  0.25980649300E+03  0.19171483068E+03  0.32306101826E+03  0.00000000000E+00 0. -1.
         -3    1    3    3    0  502 -0.68564855894E+02  0.30064981229E+03  0.19298849820E+03  0.36378016649E+03  0.00000000000E+00 0.  1.
         13    1    5    5    0    0 -0.46569759848E+01 -0.44032702269E+01  0.69080688073E+01  0.94232493685E+01  0.00000000000E+00 0.  1.
        -13    1    5    5    0    0 -0.65336926791E+01 -0.40442741335E+03  0.22419246066E+04  0.22781198747E+04  0.00000000000E+00 0. -1.
          1    1    6    6  503    0  0.78172753069E+02 -0.81185935085E+02  0.14958741548E+02  0.11369212517E+03  0.00000000000E+00 0. -1.
         -1    1    6    6    0  503 -0.91144903586E+01 -0.70439686619E+02 -0.24611377032E+02  0.75170095549E+02  0.00000000000E+00 0.  1.
<mgrwt>
<rscale>  0 0.17667384E+04</rscale>
<asrwt>0</asrwt>
<pdfrwt beam="1">  1        2 0.44516382E+00 0.17667384E+04</pdfrwt>
<pdfrwt beam="2">  1       -1 0.41489476E-01 0.17667384E+04</pdfrwt>
<totfact> 0.12486170E+01</totfact>
</mgrwt>
</event>
<event>
12    7  0.1546317E-007  0.1596925E+04  0.7818608E-02  0.8822439E-01
          2   -1    0    0  501    0  0.00000000000E+00  0.00000000000E+00  0.45127345885E+03  0.45127345885E+03  0.00000000000E+00 0. -1.
         -1   -1    0    0    0  501 -0.00000000000E+00 -0.00000000000E+00 -0.14127635921E+04  0.14127635921E+04  0.00000000000E+00 0.  1.
         24    2    1    2    0    0 -0.39923141657E+03 -0.12436625118E+03 -0.72262690577E+03  0.83972409838E+03  0.89967927927E+02 0.  0.
        254    2    1    2    0    0  0.39923141657E+03  0.12436625118E+03 -0.23886322748E+03  0.10243129526E+04  0.90405126788E+03 0.  0.
         23    2    4    4    0    0  0.56031840456E+03  0.36045564944E+03 -0.26697868373E+03  0.72338521751E+03  0.90130825188E+02 0.  0.
         23    2    4    4    0    0 -0.16108698798E+03 -0.23608939826E+03  0.28115456248E+02  0.30092773506E+03  0.89887714282E+02 0.  0.
          4    1    3    3  502    0 -0.84104559622E+02 -0.30425891569E+02 -0.90812406498E+02  0.12746060176E+03  0.00000000000E+00 0. -1.
         -3    1    3    3    0  502 -0.31512685695E+03 -0.93940359608E+02 -0.63181449927E+03  0.71226349662E+03  0.00000000000E+00 0.  1.
         13    1    5    5    0    0  0.55581085463E+03  0.34043652126E+03 -0.25954494961E+03  0.70155991334E+03  0.00000000000E+00 0. -1.
        -13    1    5    5    0    0  0.45075499265E+01  0.20019128176E+02 -0.74337341201E+01  0.21825304173E+02  0.00000000000E+00 0.  1.
          1    1    6    6  503    0 -0.16037417873E+03 -0.24321234640E+03  0.23213273452E+02  0.29225156751E+03  0.00000000000E+00 0. -1.
         -1    1    6    6    0  503 -0.71280925294E+00  0.71229481400E+01  0.49021827964E+01  0.86761675529E+01  0.00000000000E+00 0.  1.
<mgrwt>
<rscale>  0 0.15969254E+04</rscale>
<asrwt>0</asrwt>
<pdfrwt beam="1">  1        2 0.69426685E-01 0.15969254E+04</pdfrwt>
<pdfrwt beam="2">  1       -1 0.21734825E+00 0.15969254E+04</pdfrwt>
<totfact> 0.87166440E+00</totfact>
</mgrwt>
</event>
<event>
12    7  0.1546317E-007  0.2589350E+04  0.7818608E-02  0.8371828E-01
         -1   -1    0    0    0  501 -0.00000000000E+00  0.00000000000E+00  0.49952770023E+03  0.49952770023E+03  0.00000000000E+00 0.  1.
          2   -1    0    0  501    0  0.00000000000E+00 -0.00000000000E+00 -0.33555356458E+04  0.33555356458E+04  0.00000000000E+00 0. -1.
         24    2    1    2    0    0  0.84067242882E+03 -0.24650414752E+03 -0.23695490892E+04  0.25273146875E+04  0.71149251445E+02 0.  0.
        254    2    1    2    0    0 -0.84067242882E+03  0.24650414752E+03 -0.48645885636E+03  0.13277486586E+04  0.87107970590E+03 0.  0.
         23    2    4    4    0    0 -0.71623583850E+03  0.54069857348E+03 -0.36291929863E+03  0.97294804928E+03  0.97820067374E+02 0.  0.
         23    2    4    4    0    0 -0.12443659033E+03 -0.29419442596E+03 -0.12353955773E+03  0.35480060927E+03  0.92664042290E+02 0.  0.
          4    1    3    3  502    0  0.61512579773E+03 -0.14708854703E+03 -0.17052748053E+04  0.18187844703E+04  0.00000000000E+00 0. -1.
         -1    1    3    3    0  502  0.22554663110E+03 -0.99415600489E+02 -0.66427428389E+03  0.70853021718E+03  0.00000000000E+00 0.  1.
         13    1    5    5    0    0 -0.52987375128E+03  0.39509733387E+03 -0.21995321037E+03  0.69659709322E+03  0.00000000000E+00 0. -1.
        -13    1    5    5    0    0 -0.18636208721E+03  0.14560123961E+03 -0.14296608826E+03  0.27635095607E+03  0.00000000000E+00 0.  1.
          1    1    6    6  503    0 -0.13530693774E+03 -0.24780921891E+03 -0.89289088579E+02  0.29612483469E+03  0.00000000000E+00 0. -1.
         -1    1    6    6    0  503  0.10870347410E+02 -0.46385207051E+02 -0.34250469151E+02  0.58675774584E+02  0.00000000000E+00 0.  1.
<mgrwt>
<rscale>  0 0.25893497E+04</rscale>
<asrwt>0</asrwt>
<pdfrwt beam="1">  1        2 0.51623626E+00 0.25893497E+04</pdfrwt>
<pdfrwt beam="2">  1       -1 0.76850415E-01 0.25893497E+04</pdfrwt>
<totfact> 0.17485290E+00</totfact>
</mgrwt>
</event>
<event>
12    7  0.1708258E-007  0.1991294E+04  0.7818608E-02  0.8610702E-01
         -1   -1    0    0    0  501 -0.00000000000E+00  0.00000000000E+00  0.64952466944E+03  0.64952466944E+03  0.00000000000E+00 0.  1.
          2   -1    0    0  501    0  0.00000000000E+00 -0.00000000000E+00 -0.15262123196E+04  0.15262123196E+04  0.00000000000E+00 0. -1.
         24    2    1    2    0    0 -0.66598336916E+03 -0.16465776359E+03 -0.59235707040E+02  0.69327893423E+03  0.80503320105E+02 0.  0.
        254    2    1    2    0    0  0.66598336916E+03  0.16465776359E+03 -0.81745194317E+03  0.14824580549E+04  0.10289840513E+04 0.  0.
         23    2    4    4    0    0  0.53028870461E+03 -0.26822076364E+01 -0.10325460158E+04  0.11644730276E+04  0.92913147495E+02 0.  0.
         23    2    4    4    0    0  0.13569466455E+03  0.16733997123E+03  0.21509407258E+03  0.31798502721E+03  0.91833052420E+02 0.  0.
          2    1    3    3  502    0 -0.19868336651E+03 -0.49957536263E+02  0.19166383525E+02  0.20576244997E+03  0.00000000000E+00 0. -1.
         -1    1    3    3    0  502 -0.46730000265E+03 -0.11470022733E+03 -0.78402090565E+02  0.48751648426E+03  0.00000000000E+00 0.  1.
         13    1    5    5    0    0  0.49144206178E+03 -0.23682643157E+02 -0.97317729101E+03  0.10904816401E+04  0.00000000000E+00 0. -1.
        -13    1    5    5    0    0  0.38846642833E+02  0.21000435521E+02 -0.59368724739E+02  0.73991387530E+02  0.00000000000E+00 0.  1.
          3    1    6    6  503    0  0.73358635123E+02  0.13290222719E+03  0.18835768294E+03  0.24191549777E+03  0.00000000000E+00 0. -1.
         -3    1    6    6    0  503  0.62336029424E+02  0.34437744040E+02  0.26736389638E+02  0.76069529444E+02  0.00000000000E+00 0.  1.
<mgrwt>
<rscale>  0 0.19912936E+04</rscale>
<asrwt>0</asrwt>
<pdfrwt beam="1">  1        2 0.23480190E+00 0.19912936E+04</pdfrwt>
<pdfrwt beam="2">  1       -1 0.99926872E-01 0.19912936E+04</pdfrwt>
<totfact> 0.12407231E+01</totfact>
</mgrwt>
</event>
<event>
12    7  0.2053045E-007  0.2786064E+04  0.7818608E-02  0.8307608E-01
          2   -1    0    0  501    0  0.00000000000E+00  0.00000000000E+00  0.11505933807E+04  0.11505933807E+04  0.00000000000E+00 0. -1.
         -1   -1    0    0    0  501 -0.00000000000E+00 -0.00000000000E+00 -0.16865540269E+04  0.16865540269E+04  0.00000000000E+00 0.  1.
         24    2    1    2    0    0 -0.76070519726E+03  0.89378964496E+03 -0.64805934475E+03  0.13421784172E+04  0.62687021350E+02 0.  0.
        254    2    1    2    0    0  0.76070519726E+03 -0.89378964496E+03  0.11209869859E+03  0.14949689904E+04  0.91914843067E+03 0.  0.
         23    2    4    4    0    0  0.15918156165E+03  0.14388053324E+03  0.17316935990E+03  0.29067874868E+03  0.92011577051E+02 0.  0.
         23    2    4    4    0    0  0.60152363561E+03 -0.10376701782E+04 -0.61070661310E+02  0.12042902418E+04  0.89416317419E+02 0.  0.
          2    1    3    3  502    0 -0.61824720259E+02  0.51091830715E+02 -0.52771500339E+02  0.96007824936E+02  0.00000000000E+00 0. -1.
         -1    1    3    3    0  502 -0.69888047700E+03  0.84269781425E+03 -0.59528784441E+03  0.12461705922E+04  0.00000000000E+00 0.  1.
         13    1    5    5    0    0  0.15677664701E+03  0.15581372810E+03  0.16091091981E+03  0.27340292432E+03  0.00000000000E+00 0.  1.
        -13    1    5    5    0    0  0.24049146406E+01 -0.11933194858E+02  0.12258440092E+02  0.17275824364E+02  0.00000000000E+00 0. -1.
          1    1    6    6  503    0  0.14895334180E+02 -0.15392281739E+02 -0.12178842090E+02  0.24639754709E+02  0.00000000000E+00 0. -1.
         -1    1    6    6    0  503  0.58662830143E+03 -0.10222778965E+04 -0.48891819220E+02  0.11796504871E+04  0.00000000000E+00 0.  1.
<mgrwt>
<rscale>  0 0.27860638E+04</rscale>
<asrwt>0</asrwt>
<pdfrwt beam="1">  1        2 0.17701437E+00 0.27860638E+04</pdfrwt>
<pdfrwt beam="2">  1       -1 0.25946985E+00 0.27860638E+04</pdfrwt>
<totfact> 0.12178439E+00</totfact>
</mgrwt>
</event>
<event>
12    7  0.1546317E-007  0.1918366E+04  0.7818608E-02  0.8645768E-01
          2   -1    0    0  501    0  0.00000000000E+00  0.00000000000E+00  0.13836383708E+04  0.13836383708E+04  0.00000000000E+00 0. -1.
         -1   -1    0    0    0  501 -0.00000000000E+00 -0.00000000000E+00 -0.66493670883E+03  0.66493670883E+03  0.00000000000E+00 0.  1.
         24    2    1    2    0    0 -0.11467740926E+02  0.53136275631E+03 -0.27701396716E+03  0.60446959220E+03  0.78542103513E+02 0.  0.
        254    2    1    2    0    0  0.11467740926E+02 -0.53136275631E+03  0.99571562912E+03  0.14441054874E+04  0.90084025044E+03 0.  0.
         23    2    4    4    0    0  0.34167691209E+03 -0.26226653426E+03  0.10526056324E+03  0.45279669704E+03  0.91750833376E+02 0.  0.
         23    2    4    4    0    0 -0.33020917117E+03 -0.26909622205E+03  0.89045506589E+03  0.99130879038E+03  0.91279899602E+02 0.  0.
          2    1    3    3  502    0 -0.39040182084E+02  0.17719875409E+03 -0.80530577136E+02  0.19851626664E+03  0.00000000000E+00 0. -1.
         -3    1    3    3    0  502  0.27572441157E+02  0.35416400222E+03 -0.19648339002E+03  0.40595332556E+03  0.00000000000E+00 0.  1.
         13    1    5    5    0    0  0.23245566206E+02 -0.54610913817E+02  0.45541885572E+01  0.59526875355E+02  0.00000000000E+00 0. -1.
        -13    1    5    5    0    0  0.31843134589E+03 -0.20765562044E+03  0.10070637468E+03  0.39326982168E+03  0.00000000000E+00 0.  1.
          4    1    6    6  503    0 -0.13717002328E+03 -0.13879797332E+03  0.49914592161E+03  0.53593576457E+03  0.00000000000E+00 0. -1.
         -4    1    6    6    0  503 -0.19303914789E+03 -0.13029824873E+03  0.39130914427E+03  0.45537302581E+03  0.00000000000E+00 0.  1.
<mgrwt>
<rscale>  0 0.19183659E+04</rscale>
<asrwt>0</asrwt>
<pdfrwt beam="1">  1        2 0.21286744E+00 0.19183659E+04</pdfrwt>
<pdfrwt beam="2">  1       -1 0.10229796E+00 0.19183659E+04</pdfrwt>
<totfact> 0.14256180E+01</totfact>
</mgrwt>
</event>
<event>
12    7  0.1546317E-007  0.1110530E+04  0.7818608E-02  0.9194988E-01
         -1   -1    0    0    0  501 -0.00000000000E+00  0.00000000000E+00  0.25957953112E+03  0.25957953112E+03  0.00000000000E+00 0.  1.
          2   -1    0    0  501    0  0.00000000000E+00 -0.00000000000E+00 -0.11877650542E+04  0.11877650542E+04  0.00000000000E+00 0. -1.
         24    2    1    2    0    0  0.17275169671E+02  0.27694341227E+01 -0.42399878390E+03  0.43142558978E+03  0.77762262817E+02 0.  0.
        254    2    1    2    0    0 -0.17275169671E+02 -0.27694341227E+01 -0.50418673918E+03  0.10159189955E+04  0.88180555469E+03 0.  0.
         23    2    4    4    0    0  0.20195379302E+03  0.28490619586E+03  0.32735286673E+02  0.36209318115E+03  0.89905494191E+02 0.  0.
         23    2    4    4    0    0 -0.21922896269E+03 -0.28767562999E+03 -0.53692202586E+03  0.65382581439E+03  0.91565973720E+02 0.  0.
          2    1    3    3  502    0  0.27390282416E+02  0.13726890262E+02 -0.62361947664E+02  0.69481419125E+02  0.00000000000E+00 0. -1.
         -1    1    3    3    0  502 -0.10115112746E+02 -0.10957456139E+02 -0.36163683624E+03  0.36194417066E+03  0.00000000000E+00 0.  1.
         13    1    5    5    0    0  0.47759267433E+02  0.12867024762E+03  0.38363737602E+02  0.14250879486E+03  0.00000000000E+00 0.  1.
        -13    1    5    5    0    0  0.15419452559E+03  0.15623594824E+03 -0.56284509292E+01  0.21958438630E+03  0.00000000000E+00 0. -1.
          3    1    6    6  503    0 -0.22808772787E+03 -0.27095157069E+03 -0.50987104403E+03  0.62081176440E+03  0.00000000000E+00 0. -1.
         -3    1    6    6    0  503  0.88587651759E+01 -0.16724059292E+02 -0.27050981823E+02  0.33014049997E+02  0.00000000000E+00 0.  1.
<mgrwt>
<rscale>  0 0.11105305E+04</rscale>
<asrwt>0</asrwt>
<pdfrwt beam="1">  1        2 0.18273308E+00 0.11105305E+04</pdfrwt>
<pdfrwt beam="2">  1       -1 0.39935314E-01 0.11105305E+04</pdfrwt>
<totfact> 0.13300073E+02</totfact>
</mgrwt>
</event>
<event>
12    7  0.1546317E-007  0.2934383E+04  0.7818608E-02  0.8262720E-01
         -1   -1    0    0    0  501 -0.00000000000E+00  0.00000000000E+00  0.99025514442E+03  0.99025514442E+03  0.00000000000E+00 0.  1.
          2   -1    0    0  501    0  0.00000000000E+00 -0.00000000000E+00 -0.21738342521E+04  0.21738342521E+04  0.00000000000E+00 0. -1.
         24    2    1    2    0    0  0.97676770005E+03  0.88651118806E+03 -0.37433054494E+03  0.13734732633E+04  0.79550120540E+02 0.  0.
        254    2    1    2    0    0 -0.97676770005E+03 -0.88651118806E+03 -0.80924856275E+03  0.17906161332E+04  0.90080279413E+03 0.  0.
         23    2    4    4    0    0 -0.73448049545E+03 -0.71353081230E+03 -0.99264993939E+03  0.14289117545E+04  0.88583755425E+02 0.  0.
         23    2    4    4    0    0 -0.24228720460E+03 -0.17298037576E+03  0.18340137664E+03  0.36170437873E+03  0.92567233550E+02 0.  0.
          2    1    3    3  502    0  0.88819557592E+03  0.78610939273E+03 -0.31636330875E+03  0.12275769229E+04  0.00000000000E+00 0. -1.
         -1    1    3    3    0  502  0.88572124132E+02  0.10040179532E+03 -0.57967236190E+02  0.14589634042E+03  0.00000000000E+00 0.  1.
         13    1    5    5    0    0 -0.34661850804E+02 -0.13947972102E+02 -0.48469431440E+02  0.61198656938E+02  0.00000000000E+00 0. -1.
        -13    1    5    5    0    0 -0.69981864465E+03 -0.69958284020E+03 -0.94418050795E+03  0.13677130976E+04  0.00000000000E+00 0.  1.
          3    1    6    6  503    0 -0.81816282719E+02 -0.19605442377E+02  0.21152649996E+02  0.86750862189E+02  0.00000000000E+00 0. -1.
         -3    1    6    6    0  503 -0.16047092188E+03 -0.15337493338E+03  0.16224872665E+03  0.27495351654E+03  0.00000000000E+00 0.  1.
<mgrwt>
<rscale>  0 0.29343828E+04</rscale>
<asrwt>0</asrwt>
<pdfrwt beam="1">  1        2 0.33443603E+00 0.29343828E+04</pdfrwt>
<pdfrwt beam="2">  1       -1 0.15234695E+00 0.29343828E+04</pdfrwt>
<totfact> 0.17488342E+00</totfact>
</mgrwt>
</event>
<event>
12    7  0.1546317E-007  0.2351012E+04  0.7818608E-02  0.8458075E-01
         -1   -1    0    0    0  501 -0.00000000000E+00  0.00000000000E+00  0.14833250685E+04  0.14833250685E+04  0.00000000000E+00 0.  1.
          2   -1    0    0  501    0  0.00000000000E+00 -0.00000000000E+00 -0.93156580492E+03  0.93156580492E+03  0.00000000000E+00 0. -1.
         24    2    1    2    0    0  0.32288497266E+03 -0.26276501260E+02 -0.72673051469E+03  0.79962210516E+03  0.79455081519E+02 0.  0.
        254    2    1    2    0    0 -0.32288497266E+03  0.26276501260E+02  0.12784897783E+04  0.16152687683E+04  0.93252984966E+03 0.  0.
         23    2    4    4    0    0  0.68444362027E+02  0.14666436020E+03  0.11663882726E+04  0.11811769934E+04  0.92316964280E+02 0.  0.
         23    2    4    4    0    0 -0.39132933469E+03 -0.12038785894E+03  0.11210150565E+03  0.43409177491E+03  0.90758121957E+02 0.  0.
          4    1    3    3  502    0  0.81265481021E+02 -0.41830898410E+02 -0.20433474652E+03  0.22384501581E+03  0.00000000000E+00 0. -1.
         -1    1    3    3    0  502  0.24161949164E+03  0.15554397150E+02 -0.52239576818E+03  0.57577708935E+03  0.00000000000E+00 0.  1.
         13    1    5    5    0    0 -0.21980224990E+00  0.76683162708E+02  0.31671948726E+03  0.32587051012E+03  0.00000000000E+00 0. -1.
        -13    1    5    5    0    0  0.68664164277E+02  0.69981197496E+02  0.84966878537E+03  0.85530648325E+03  0.00000000000E+00 0.  1.
          1    1    6    6  503    0 -0.37099730757E+03 -0.13213040489E+03  0.95215372141E+02  0.40517084448E+03  0.00000000000E+00 0. -1.
         -1    1    6    6    0  503 -0.20332027121E+02  0.11742545945E+02  0.16886133510E+02  0.28920930432E+02  0.00000000000E+00 0.  1.
<mgrwt>
<rscale>  0 0.23510125E+04</rscale>
<asrwt>0</asrwt>
<pdfrwt beam="1">  1        2 0.14331782E+00 0.23510125E+04</pdfrwt>
<pdfrwt beam="2">  1       -1 0.22820386E+00 0.23510125E+04</pdfrwt>
<totfact> 0.27893736E+00</totfact>
</mgrwt>
</event>
<event>
12    7  0.1546317E-007  0.1637907E+04  0.7818608E-02  0.8797593E-01
          2   -1    0    0  501    0  0.00000000000E+00  0.00000000000E+00  0.23681818968E+04  0.23681818968E+04  0.00000000000E+00 0. -1.
         -1   -1    0    0    0  501 -0.00000000000E+00 -0.00000000000E+00 -0.28320654832E+03  0.28320654832E+03  0.00000000000E+00 0.  1.
         24    2    1    2    0    0  0.42073194185E+02  0.47065188968E+03  0.12327042934E+04  0.13223568376E+04  0.76055084771E+02 0.  0.
        254    2    1    2    0    0 -0.42073194185E+02 -0.47065188968E+03  0.85227105502E+03  0.13290316075E+04  0.90370111632E+03 0.  0.
         23    2    4    4    0    0 -0.38796390641E+02 -0.58234151401E+03  0.14718199907E+03  0.60885659650E+03  0.91744293463E+02 0.  0.
         23    2    4    4    0    0 -0.32768035443E+01  0.11168962434E+03  0.70508905594E+03  0.72017501101E+03  0.94953462571E+02 0.  0.
          4    1    3    3  502    0  0.47417376082E+02  0.17625235446E+03  0.52592331824E+03  0.55669438355E+03  0.00000000000E+00 0. -1.
         -3    1    3    3    0  502 -0.53441818965E+01  0.29439953522E+03  0.70678097521E+03  0.76566245404E+03  0.00000000000E+00 0.  1.
         13    1    5    5    0    0 -0.57187381916E+02 -0.23907875018E+03  0.42126075957E+02  0.24940659917E+03  0.00000000000E+00 0. -1.
        -13    1    5    5    0    0  0.18390991275E+02 -0.34326276384E+03  0.10505592312E+03  0.35944999733E+03  0.00000000000E+00 0.  1.
          1    1    6    6  503    0  0.43788195480E+02  0.74531514553E+02  0.39646180076E+03  0.40577618485E+03  0.00000000000E+00 0. -1.
         -1    1    6    6    0  503 -0.47064999024E+02  0.37158109784E+02  0.30862725518E+03  0.31439882617E+03  0.00000000000E+00 0.  1.
<mgrwt>
<rscale>  0 0.16379067E+04</rscale>
<asrwt>0</asrwt>
<pdfrwt beam="1">  1        2 0.36433566E+00 0.16379067E+04</pdfrwt>
<pdfrwt beam="2">  1       -1 0.43570240E-01 0.16379067E+04</pdfrwt>
<totfact> 0.23511077E+01</totfact>
</mgrwt>
</event>
<event>
12    7  0.1546317E-007  0.1717219E+04  0.7818608E-02  0.8751604E-01
         -1   -1    0    0    0  501 -0.00000000000E+00  0.00000000000E+00  0.76892955854E+03  0.76892955854E+03  0.00000000000E+00 0.  1.
          2   -1    0    0  501    0  0.00000000000E+00 -0.00000000000E+00 -0.95874886285E+03  0.95874886285E+03  0.00000000000E+00 0. -1.
         24    2    1    2    0    0  0.15655071724E+02  0.46929687916E+03 -0.47475288652E+03  0.67253656705E+03  0.80190327900E+02 0.  0.
        254    2    1    2    0    0 -0.15655071724E+02 -0.46929687916E+03  0.28493358222E+03  0.10551418543E+04  0.90091761247E+03 0.  0.
         23    2    4    4    0    0 -0.36130551444E+03 -0.12748541116E+03  0.38392886640E+03  0.55076853108E+03  0.95657699872E+02 0.  0.
         23    2    4    4    0    0  0.34565044272E+03 -0.34181146801E+03 -0.98995284181E+02  0.50437332327E+03  0.91011398866E+02 0.  0.
          2    1    3    3  502    0 -0.58630892876E+01  0.24973519334E+03 -0.30457328668E+03  0.39391233741E+03  0.00000000000E+00 0. -1.
         -1    1    3    3    0  502  0.21518161012E+02  0.21956168582E+03 -0.17017959985E+03  0.27862422964E+03  0.00000000000E+00 0.  1.
         13    1    5    5    0    0 -0.64893919809E+02 -0.15111812593E+01  0.27826306149E+02  0.70624413703E+02  0.00000000000E+00 0.  1.
        -13    1    5    5    0    0 -0.29641159463E+03 -0.12597422990E+03  0.35610256025E+03  0.48014411737E+03  0.00000000000E+00 0. -1.
          4    1    6    6  503    0  0.26162333610E+02 -0.15778072480E+02 -0.29807278349E+02  0.42683593027E+02  0.00000000000E+00 0.  1.
         -4    1    6    6    0  503  0.31948810911E+03 -0.32603339553E+03 -0.69188005832E+02  0.46168973024E+03  0.00000000000E+00 0. -1.
<mgrwt>
<rscale>  0 0.17172191E+04</rscale>
<asrwt>0</asrwt>
<pdfrwt beam="1">  1        2 0.14749982E+00 0.17172191E+04</pdfrwt>
<pdfrwt beam="2">  1       -1 0.11829686E+00 0.17172191E+04</pdfrwt>
<totfact> 0.18628258E+01</totfact>
</mgrwt>
</event>
<event>
12    7  0.1546317E-007  0.1526911E+04  0.7818608E-02  0.8866752E-01
          2   -1    0    0  501    0  0.00000000000E+00  0.00000000000E+00  0.18381881052E+04  0.18381881052E+04  0.00000000000E+00 0. -1.
         -1   -1    0    0    0  501 -0.00000000000E+00 -0.00000000000E+00 -0.31708643306E+03  0.31708643306E+03  0.00000000000E+00 0.  1.
         24    2    1    2    0    0 -0.45854740089E+03 -0.65014335127E+02  0.74851502929E+03  0.88377979090E+03  0.79368678258E+02 0.  0.
        254    2    1    2    0    0  0.45854740089E+03  0.65014335127E+02  0.77258664287E+03  0.12714947474E+04  0.89739411032E+03 0.  0.
         23    2    4    4    0    0 -0.17559517725E+03 -0.20153076627E+03  0.90602311354E+02  0.29824847944E+03  0.96410894814E+02 0.  0.
         23    2    4    4    0    0  0.63414257814E+03  0.26654510139E+03  0.68198433152E+03  0.97324626794E+03  0.94459351817E+02 0.  0.
          2    1    3    3  502    0  0.19333761474E+01 -0.31799480970E+01  0.13914553756E+01  0.39731802488E+01  0.00000000000E+00 0. -1.
         -1    1    3    3    0  502 -0.46048077704E+03 -0.61834387030E+02  0.74712357392E+03  0.87980661065E+03  0.00000000000E+00 0.  1.
         13    1    5    5    0    0 -0.16091442635E+03 -0.20531012893E+03  0.10115032996E+03  0.27978043337E+03  0.00000000000E+00 0.  1.
        -13    1    5    5    0    0 -0.14680750895E+02  0.37793626600E+01 -0.10548018603E+02  0.18468046063E+02  0.00000000000E+00 0. -1.
          2    1    6    6  503    0  0.49827638432E+01 -0.60559649078E+01  0.33775651688E+01  0.85387699905E+01  0.00000000000E+00 0. -1.
         -2    1    6    6    0  503  0.62915981430E+03  0.27260106630E+03  0.67860676635E+03  0.96470749795E+03  0.00000000000E+00 0.  1.
<mgrwt>
<rscale>  0 0.15269113E+04</rscale>
<asrwt>0</asrwt>
<pdfrwt beam="1">  1        2 0.28279816E+00 0.15269113E+04</pdfrwt>
<pdfrwt beam="2">  1       -1 0.48782529E-01 0.15269113E+04</pdfrwt>
<totfact> 0.37972522E+01</totfact>
</mgrwt>
</event>
<event>
12    7  0.1546317E-007  0.2016042E+04  0.7818608E-02  0.8599157E-01
          2   -1    0    0  501    0  0.00000000000E+00  0.00000000000E+00  0.23517178534E+04  0.23517178534E+04  0.00000000000E+00 0. -1.
         -1   -1    0    0    0  501 -0.00000000000E+00 -0.00000000000E+00 -0.43206962565E+03  0.43206962565E+03  0.00000000000E+00 0.  1.
         24    2    1    2    0    0  0.35533439912E+03  0.19303151505E+03  0.17354160427E+04  0.17835956689E+04  0.77594894795E+02 0.  0.
        254    2    1    2    0    0 -0.35533439912E+03 -0.19303151505E+03  0.18423218501E+03  0.10001918102E+04  0.89605717346E+03 0.  0.
         23    2    4    4    0    0  0.26182523210E+03 -0.27752585464E+02  0.21789468346E+03  0.35368857220E+03  0.91076093797E+02 0.  0.
         23    2    4    4    0    0 -0.61715963122E+03 -0.16527892959E+03 -0.33662498456E+02  0.64650323795E+03  0.92898535579E+02 0.  0.
          2    1    3    3  502    0  0.31008627674E+03  0.13524830317E+03  0.14134011344E+04  0.14533232157E+04  0.00000000000E+00 0. -1.
         -1    1    3    3    0  502  0.45248122375E+02  0.57783211876E+02  0.32201490827E+03  0.33027245314E+03  0.00000000000E+00 0.  1.
         13    1    5    5    0    0  0.86883075141E+02  0.28089664081E+02  0.46396641814E+02  0.10242239182E+03  0.00000000000E+00 0.  1.
        -13    1    5    5    0    0  0.17494215696E+03 -0.55842249545E+02  0.17149804165E+03  0.25126618038E+03  0.00000000000E+00 0. -1.
          3    1    6    6  503    0 -0.33480032743E+03 -0.41730384711E+02 -0.20659917431E+02  0.33802295254E+03  0.00000000000E+00 0. -1.
         -3    1    6    6    0  503 -0.28235930379E+03 -0.12354854487E+03 -0.13002581025E+02  0.30848028542E+03  0.00000000000E+00 0.  1.
<mgrwt>
<rscale>  0 0.20160415E+04</rscale>
<asrwt>0</asrwt>
<pdfrwt beam="1">  1        2 0.36180274E+00 0.20160415E+04</pdfrwt>
<pdfrwt beam="2">  1       -1 0.66472251E-01 0.20160415E+04</pdfrwt>
<totfact> 0.10263914E+01</totfact>
</mgrwt>
</event>
<event>
12    7  0.1546317E-007  0.3965206E+04  0.7818608E-02  0.8011603E-01
         -1   -1    0    0    0  501 -0.00000000000E+00  0.00000000000E+00  0.10861580386E+04  0.10861580386E+04  0.00000000000E+00 0.  1.
          2   -1    0    0  501    0  0.00000000000E+00 -0.00000000000E+00 -0.36189157176E+04  0.36189157176E+04  0.00000000000E+00 0. -1.
         24    2    1    2    0    0 -0.12871345444E+04 -0.12767164024E+04 -0.61770438105E+03  0.19168790567E+04  0.78399667954E+02 0.  0.
        254    2    1    2    0    0  0.12871345444E+04  0.12767164024E+04 -0.19150532980E+04  0.27881946995E+04  0.90547249583E+03 0.  0.
         23    2    4    4    0    0  0.77717927886E+03  0.42477561355E+03 -0.14176402628E+04  0.16740158179E+04  0.90460436556E+02 0.  0.
         23    2    4    4    0    0  0.50995526555E+03  0.85194078885E+03 -0.49741303520E+03  0.11141788816E+04  0.90096459655E+02 0.  0.
          4    1    3    3  502    0 -0.19688565546E+03 -0.20151684629E+03 -0.12604006049E+03  0.30864072562E+03  0.00000000000E+00 0. -1.
         -3    1    3    3    0  502 -0.10902488890E+04 -0.10751995561E+04 -0.49166432056E+03  0.16082383310E+04  0.00000000000E+00 0.  1.
         13    1    5    5    0    0  0.64548041936E+03  0.31375836885E+03 -0.11243797633E+04  0.13339112181E+04  0.00000000000E+00 0.  1.
        -13    1    5    5    0    0  0.13169885950E+03  0.11101724470E+03 -0.29326049956E+03  0.34010459982E+03  0.00000000000E+00 0. -1.
          4    1    6    6  503    0  0.30439093512E+03  0.57559949231E+03 -0.35358666674E+03  0.74094004334E+03  0.00000000000E+00 0. -1.
         -4    1    6    6    0  503  0.20556433043E+03  0.27634129654E+03 -0.14382636846E+03  0.37323883826E+03  0.00000000000E+00 0.  1.
<mgrwt>
<rscale>  0 0.39652059E+04</rscale>
<asrwt>0</asrwt>
<pdfrwt beam="1">  1        2 0.55675627E+00 0.39652059E+04</pdfrwt>
<pdfrwt beam="2">  1       -1 0.16710124E+00 0.39652059E+04</pdfrwt>
<totfact> 0.15491887E-01</totfact>
</mgrwt>
</event>
<event>
12    7  0.1546317E-007  0.2057306E+04  0.7818608E-02  0.8580287E-01
         -1   -1    0    0    0  501 -0.00000000000E+00  0.00000000000E+00  0.11738119007E+04  0.11738119007E+04  0.00000000000E+00 0.  1.
          2   -1    0    0  501    0  0.00000000000E+00 -0.00000000000E+00 -0.90144551249E+03  0.90144551249E+03  0.00000000000E+00 0. -1.
         24    2    1    2    0    0  0.61659246246E+03 -0.85926132422E+02  0.66508405316E+03  0.91455707207E+03  0.80673882506E+02 0.  0.
        254    2    1    2    0    0 -0.61659246246E+03  0.85926132422E+02 -0.39271766499E+03  0.11607003411E+04  0.89745671339E+03 0.  0.
         23    2    4    4    0    0  0.68982046800E+02  0.20125962977E+03 -0.39684057341E+03  0.45946346509E+03  0.91434532253E+02 0.  0.
         23    2    4    4    0    0 -0.68557450926E+03 -0.11533349734E+03  0.41229084231E+01  0.70123687600E+03  0.91662067018E+02 0.  0.
          2    1    3    3  502    0  0.46293875981E+01 -0.44536471446E+01  0.22760252771E+02  0.23649425123E+02  0.00000000000E+00 0. -1.
         -1    1    3    3    0  502  0.61196307486E+03 -0.81472485277E+02  0.64232380039E+03  0.89090764695E+03  0.00000000000E+00 0.  1.
         13    1    5    5    0    0  0.76050175174E+01  0.10251966992E+02  0.20807018568E+01  0.12933230024E+02  0.00000000000E+00 0.  1.
        -13    1    5    5    0    0  0.61377029282E+02  0.19100766277E+03 -0.39892127527E+03  0.44653023506E+03  0.00000000000E+00 0. -1.
          4    1    6    6  503    0 -0.67488325498E+03 -0.12551264736E+03  0.35721936285E+01  0.68646456068E+03  0.00000000000E+00 0. -1.
         -4    1    6    6    0  503 -0.10691254279E+02  0.10179150017E+02  0.55071479460E+00  0.14772315320E+02  0.00000000000E+00 0.  1.
<mgrwt>
<rscale>  0 0.20573065E+04</rscale>
<asrwt>0</asrwt>
<pdfrwt beam="1">  1        2 0.13868393E+00 0.20573065E+04</pdfrwt>
<pdfrwt beam="2">  1       -1 0.18058645E+00 0.20573065E+04</pdfrwt>
<totfact> 0.63613363E+00</totfact>
</mgrwt>
</event>
<event>
12    7  0.1546317E-007  0.2159684E+04  0.7818608E-02  0.8535398E-01
          2   -1    0    0  501    0  0.00000000000E+00  0.00000000000E+00  0.21259643295E+04  0.21259643295E+04  0.00000000000E+00 0. -1.
         -1   -1    0    0    0  501 -0.00000000000E+00 -0.00000000000E+00 -0.54848478577E+03  0.54848478577E+03  0.00000000000E+00 0.  1.
         24    2    1    2    0    0 -0.58145182454E+02  0.81166620294E+03  0.20384860296E+03  0.84251136761E+03  0.78027331029E+02 0.  0.
        254    2    1    2    0    0  0.58145182454E+02 -0.81166620294E+03  0.13736309408E+04  0.18319377477E+04  0.89830454895E+03 0.  0.
         23    2    4    4    0    0 -0.35864237379E+03 -0.41924017922E+03  0.98891398864E+03  0.11362051136E+04  0.92868202761E+02 0.  0.
         23    2    4    4    0    0  0.41678755625E+03 -0.39242602372E+03  0.38471695216E+03  0.69573263410E+03  0.91250828684E+02 0.  0.
          4    1    3    3  502    0 -0.59788902740E+02  0.51942174716E+03  0.16139631985E+03  0.54719506245E+03  0.00000000000E+00 0. -1.
         -3    1    3    3    0  502  0.16437202859E+01  0.29224445579E+03  0.42452283119E+02  0.29531630517E+03  0.00000000000E+00 0.  1.
         13    1    5    5    0    0 -0.32088375075E+03 -0.38629245114E+03  0.94230766938E+03  0.10677696302E+04  0.00000000000E+00 0.  1.
        -13    1    5    5    0    0 -0.37758623040E+02 -0.32947728075E+02  0.46606319267E+02  0.68435483448E+02  0.00000000000E+00 0. -1.
          1    1    6    6  503    0  0.36050883507E+03 -0.29013852082E+03  0.30020760938E+03  0.55160818537E+03  0.00000000000E+00 0. -1.
         -1    1    6    6    0  503  0.56278721174E+02 -0.10228750290E+03  0.84509342783E+02  0.14412444874E+03  0.00000000000E+00 0.  1.
<mgrwt>
<rscale>  0 0.21596843E+04</rscale>
<asrwt>0</asrwt>
<pdfrwt beam="1">  1        2 0.32707143E+00 0.21596843E+04</pdfrwt>
<pdfrwt beam="2">  1       -1 0.84382276E-01 0.21596843E+04</pdfrwt>
<totfact> 0.82495725E+00</totfact>
</mgrwt>
</event>
<event>
12    7  0.1546317E-007  0.2062760E+04  0.7818608E-02  0.8577828E-01
          2   -1    0    0  501    0  0.00000000000E+00  0.00000000000E+00  0.90806047753E+03  0.90806047753E+03  0.00000000000E+00 0. -1.
         -1   -1    0    0    0  501 -0.00000000000E+00 -0.00000000000E+00 -0.11714467705E+04  0.11714467705E+04  0.00000000000E+00 0.  1.
         24    2    1    2    0    0 -0.40124638139E+03 -0.18925293440E+03 -0.82187545585E+03  0.93733254448E+03  0.79358063524E+02 0.  0.
        254    2    1    2    0    0  0.40124638139E+03  0.18925293440E+03  0.55848916287E+03  0.11421747036E+04  0.89209729103E+03 0.  0.
         23    2    4    4    0    0  0.11636558125E+03  0.43556696023E+02  0.74446072105E+03  0.76117088588E+03  0.98596237568E+02 0.  0.
         23    2    4    4    0    0  0.28488080014E+03  0.14569623838E+03 -0.18597155818E+03  0.38100381768E+03  0.90520851038E+02 0.  0.
          2    1    3    3  502    0 -0.68550359114E+02 -0.38956813612E+01 -0.15139791435E+03  0.16623975619E+03  0.00000000000E+00 0. -1.
         -1    1    3    3    0  502 -0.33269602228E+03 -0.18535725304E+03 -0.67047754150E+03  0.77109278829E+03  0.00000000000E+00 0.  1.
         13    1    5    5    0    0  0.13209788158E+01  0.28669837363E+02  0.31545949631E+03  0.31676236894E+03  0.00000000000E+00 0. -1.
        -13    1    5    5    0    0  0.11504460244E+03  0.14886858659E+02  0.42900122473E+03  0.44440851694E+03  0.00000000000E+00 0.  1.
          4    1    6    6  503    0  0.23904970909E+00 -0.71071070780E+01  0.18002481310E+01  0.73354624336E+01  0.00000000000E+00 0. -1.
         -4    1    6    6    0  503  0.28464175043E+03  0.15280334546E+03 -0.18777180631E+03  0.37366835525E+03  0.00000000000E+00 0.  1.
<mgrwt>
<rscale>  0 0.20627598E+04</rscale>
<asrwt>0</asrwt>
<pdfrwt beam="1">  1        2 0.13970161E+00 0.20627598E+04</pdfrwt>
<pdfrwt beam="2">  1       -1 0.18022258E+00 0.20627598E+04</pdfrwt>
<totfact> 0.63312636E+00</totfact>
</mgrwt>
</event>
<event>
12    7  0.1546317E-007  0.3566527E+04  0.7818608E-02  0.8098202E-01
         -3   -1    0    0    0  501 -0.00000000000E+00  0.00000000000E+00  0.17979448377E+04  0.17979448377E+04  0.00000000000E+00 0.  1.
          2   -1    0    0  501    0  0.00000000000E+00 -0.00000000000E+00 -0.17687020777E+04  0.17687020777E+04  0.00000000000E+00 0. -1.
         24    2    1    2    0    0 -0.13784723040E+04 -0.93477810128E+03 -0.10524321815E+03  0.16707372081E+04  0.79313882394E+02 0.  0.
        254    2    1    2    0    0  0.13784723040E+04  0.93477810128E+03  0.13448597814E+03  0.18959097073E+04  0.89576288621E+03 0.  0.
         23    2    4    4    0    0  0.82507026731E+03  0.57901614308E+03  0.50937658162E+03  0.11332299323E+04  0.93514371459E+02 0.  0.
         23    2    4    4    0    0  0.55340203671E+03  0.35576195820E+03 -0.37489060348E+03  0.76267977497E+03  0.91198078001E+02 0.  0.
          4    1    3    3  502    0 -0.12622577299E+04 -0.85937850004E+03 -0.11821010187E+03  0.15316003432E+04  0.00000000000E+00 0. -1.
         -3    1    3    3    0  502 -0.11621457412E+03 -0.75399601241E+02  0.12966883719E+02  0.13913686491E+03  0.00000000000E+00 0.  1.
         13    1    5    5    0    0  0.38325908117E+03  0.30128412775E+03  0.28919214880E+03  0.56682602963E+03  0.00000000000E+00 0. -1.
        -13    1    5    5    0    0  0.44181118614E+03  0.27773201533E+03  0.22018443282E+03  0.56640390270E+03  0.00000000000E+00 0.  1.
          3    1    6    6  503    0  0.42628722241E+03  0.25066724656E+03 -0.31921497227E+03  0.58860263592E+03  0.00000000000E+00 0. -1.
         -3    1    6    6    0  503  0.12711481429E+03  0.10509471164E+03 -0.55675631209E+02  0.17407713904E+03  0.00000000000E+00 0.  1.
<mgrwt>
<rscale>  0 0.35665270E+04</rscale>
<asrwt>0</asrwt>
<pdfrwt beam="1">  1        2 0.27210801E+00 0.35665270E+04</pdfrwt>
<pdfrwt beam="2">  1       -3 0.27660690E+00 0.35665270E+04</pdfrwt>
<totfact> 0.23762112E-01</totfact>
</mgrwt>
</event>
<event>
12    7  0.1546317E-007  0.1277611E+04  0.7818608E-02  0.9047511E-01
          2   -1    0    0  501    0  0.00000000000E+00  0.00000000000E+00  0.17246624080E+04  0.17246624080E+04  0.00000000000E+00 0. -1.
         -1   -1    0    0    0  501 -0.00000000000E+00 -0.00000000000E+00 -0.23660989661E+03  0.23660989661E+03  0.00000000000E+00 0.  1.
         24    2    1    2    0    0  0.27636985526E+03  0.10599694960E+03  0.20132427930E+03  0.36661691018E+03  0.79125490037E+02 0.  0.
        254    2    1    2    0    0 -0.27636985526E+03 -0.10599694960E+03  0.12867282321E+04  0.15946553944E+04  0.89422627644E+03 0.  0.
         23    2    4    4    0    0 -0.42974664062E+03 -0.63286191480E+02  0.19098501342E+03  0.48341395667E+03  0.92338837972E+02 0.  0.
         23    2    4    4    0    0  0.15337678536E+03 -0.42710758123E+02  0.10957432186E+04  0.11112414377E+04  0.94104646976E+02 0.  0.
          2    1    3    3  502    0  0.13433860274E+02  0.28112269612E+02  0.30105747450E+02  0.43325792943E+02  0.00000000000E+00 0. -1.
         -1    1    3    3    0  502  0.26293599499E+03  0.77884679991E+02  0.17121853185E+03  0.32329111724E+03  0.00000000000E+00 0.  1.
         13    1    5    5    0    0 -0.12273350894E+02 -0.19337285922E+02  0.18048721207E+01  0.22974406029E+02  0.00000000000E+00 0. -1.
        -13    1    5    5    0    0 -0.41747328973E+03 -0.43948905558E+02  0.18918014130E+03  0.46043955064E+03  0.00000000000E+00 0.  1.
          1    1    6    6  503    0  0.71751180016E+02  0.16735158491E+02  0.65223488466E+03  0.65638299958E+03  0.00000000000E+00 0. -1.
         -1    1    6    6    0  503  0.81625605343E+02 -0.59445916613E+02  0.44350833397E+03  0.45485843814E+03  0.00000000000E+00 0.  1.
<mgrwt>
<rscale>  0 0.12776106E+04</rscale>
<asrwt>0</asrwt>
<pdfrwt beam="1">  1        2 0.26533267E+00 0.12776106E+04</pdfrwt>
<pdfrwt beam="2">  1       -1 0.36401524E-01 0.12776106E+04</pdfrwt>
<totfact> 0.76828464E+01</totfact>
</mgrwt>
</event>
<event>
12    7  0.1546317E-007  0.1463643E+04  0.7818608E-02  0.8908996E-01
          2   -1    0    0  501    0  0.00000000000E+00  0.00000000000E+00  0.34264568661E+04  0.34264568661E+04  0.00000000000E+00 0. -1.
         -3   -1    0    0    0  501 -0.00000000000E+00 -0.00000000000E+00 -0.15630221303E+03  0.15630221303E+03  0.00000000000E+00 0.  1.
         24    2    1    2    0    0 -0.23718071480E+03  0.99880403245E+02  0.12158820010E+03  0.29586035635E+03  0.80739541923E+02 0.  0.
        254    2    1    2    0    0  0.23718071480E+03 -0.99880403245E+02  0.31485664529E+04  0.32868987227E+04  0.90774540410E+03 0.  0.
         23    2    4    4    0    0  0.10658242208E+03 -0.26324515011E+03  0.27927537858E+03  0.40858051873E+03  0.91024620049E+02 0.  0.
         23    2    4    4    0    0  0.13059829272E+03  0.16336474686E+03  0.28692910743E+04  0.28783182040E+04  0.90224495906E+02 0.  0.
          4    1    3    3  502    0  0.35698196694E+01 -0.22909836250E+01  0.11215406850E+02  0.11990728470E+02  0.00000000000E+00 0. -1.
         -3    1    3    3    0  502 -0.24075053447E+03  0.10217138687E+03  0.11037279325E+03  0.28386962788E+03  0.00000000000E+00 0.  1.
         13    1    5    5    0    0  0.15743279351E+02  0.40130321945E+00  0.32902945295E+02  0.36477605432E+02  0.00000000000E+00 0.  1.
        -13    1    5    5    0    0  0.90839142728E+02 -0.26364645333E+03  0.24637243329E+03  0.37210291330E+03  0.00000000000E+00 0. -1.
          1    1    6    6  503    0  0.11989464792E+03  0.17023878100E+03  0.28086246305E+04  0.28163324172E+04  0.00000000000E+00 0. -1.
         -1    1    6    6    0  503  0.10703644801E+02 -0.68740341370E+01  0.60666443856E+02  0.61985786818E+02  0.00000000000E+00 0.  1.
<mgrwt>
<rscale>  0 0.14636431E+04</rscale>
<asrwt>0</asrwt>
<pdfrwt beam="1">  1        2 0.52714715E+00 0.14636431E+04</pdfrwt>
<pdfrwt beam="2">  1       -3 0.24046497E-01 0.14636431E+04</pdfrwt>
<totfact> 0.96188365E+00</totfact>
</mgrwt>
</event>
<event>
12    7  0.1546317E-007  0.1375113E+04  0.7818608E-02  0.8972033E-01
          2   -1    0    0  501    0  0.00000000000E+00  0.00000000000E+00  0.38004604013E+04  0.38004604013E+04  0.00000000000E+00 0. -1.
         -1   -1    0    0    0  501 -0.00000000000E+00 -0.00000000000E+00 -0.12438857888E+03  0.12438857888E+03  0.00000000000E+00 0.  1.
         24    2    1    2    0    0 -0.14347941021E+03  0.30046412795E+03  0.10392736120E+04  0.10943240268E+04  0.81181289699E+02 0.  0.
        254    2    1    2    0    0  0.14347941021E+03 -0.30046412795E+03  0.26367982104E+04  0.28305249533E+04  0.97380782273E+03 0.  0.
         23    2    4    4    0    0 -0.39384948582E+02 -0.44913171117E+03  0.25027113702E+04  0.25447252488E+04  0.93765244372E+02 0.  0.
         23    2    4    4    0    0  0.18286435879E+03  0.14866758322E+03  0.13408684020E+03  0.28579970454E+03  0.90336960226E+02 0.  0.
          2    1    3    3  502    0 -0.17794905186E+02  0.66947053835E+02  0.32766636804E+03  0.33490866727E+03  0.00000000000E+00 0. -1.
         -1    1    3    3    0  502 -0.12568450502E+03  0.23351707411E+03  0.71160724396E+03  0.75941535957E+03  0.00000000000E+00 0.  1.
         13    1    5    5    0    0 -0.29771761831E+02 -0.61843507158E+02  0.26605949112E+03  0.27477014029E+03  0.00000000000E+00 0.  1.
        -13    1    5    5    0    0 -0.96131867504E+01 -0.38728820401E+03  0.22366518791E+04  0.22699551085E+04  0.00000000000E+00 0. -1.
          3    1    6    6  503    0  0.12728829393E+03  0.14742350827E+03  0.88623282315E+02  0.21398618350E+03  0.00000000000E+00 0. -1.
         -3    1    6    6    0  503  0.55576064866E+02  0.12440749530E+01  0.45463557887E+02  0.71813521040E+02  0.00000000000E+00 0.  1.
<mgrwt>
<rscale>  0 0.13751129E+04</rscale>
<asrwt>0</asrwt>
<pdfrwt beam="1">  1        2 0.58468613E+00 0.13751129E+04</pdfrwt>
<pdfrwt beam="2">  1       -1 0.19136707E-01 0.13751129E+04</pdfrwt>
<totfact> 0.12297726E+01</totfact>
</mgrwt>
</event>
<event>
12    7  0.1546317E-007  0.1144868E+04  0.7818608E-02  0.9162531E-01
         -1   -1    0    0    0  501 -0.00000000000E+00  0.00000000000E+00  0.18781640224E+03  0.18781640224E+03  0.00000000000E+00 0.  1.
          2   -1    0    0  501    0  0.00000000000E+00 -0.00000000000E+00 -0.17446855800E+04  0.17446855800E+04  0.00000000000E+00 0. -1.
         24    2    1    2    0    0  0.17845513922E+03 -0.56689992562E+02 -0.43120886453E+03  0.47623977245E+03  0.76179026287E+02 0.  0.
        254    2    1    2    0    0 -0.17845513922E+03  0.56689992562E+02 -0.11256603133E+04  0.14562622098E+04  0.90472564401E+03 0.  0.
         23    2    4    4    0    0 -0.27266956238E+03 -0.62076047609E+02  0.20996480795E+02  0.29611745535E+03  0.95092424619E+02 0.  0.
         23    2    4    4    0    0  0.94214423164E+02  0.11876604017E+03 -0.11466567941E+04  0.11601447545E+04  0.90179366413E+02 0.  0.
          2    1    3    3  502    0  0.13339408937E+03 -0.75506181616E+02 -0.33069586064E+03  0.36449268688E+03  0.00000000000E+00 0. -1.
         -1    1    3    3    0  502  0.45061049855E+02  0.18816189054E+02 -0.10051300388E+03  0.11174708557E+03  0.00000000000E+00 0.  1.
         13    1    5    5    0    0 -0.11919679574E+02  0.50124861184E+01  0.23546246794E+02  0.26863162812E+02  0.00000000000E+00 0. -1.
        -13    1    5    5    0    0 -0.26074988281E+03 -0.67088533727E+02 -0.25497659986E+01  0.26925429254E+03  0.00000000000E+00 0.  1.
          2    1    6    6  503    0  0.14562808441E+02  0.41270966528E+01 -0.41584190827E+03  0.41611729234E+03  0.00000000000E+00 0. -1.
         -2    1    6    6    0  503  0.79651614723E+02  0.11463894352E+03 -0.73081488580E+03  0.74402746213E+03  0.00000000000E+00 0.  1.
<mgrwt>
<rscale>  0 0.11448678E+04</rscale>
<asrwt>0</asrwt>
<pdfrwt beam="1">  1        2 0.26841315E+00 0.11448678E+04</pdfrwt>
<pdfrwt beam="2">  1       -1 0.28894833E-01 0.11448678E+04</pdfrwt>
<totfact> 0.11387136E+02</totfact>
</mgrwt>
</event>
<event>
12    7  0.1546317E-007  0.2477047E+04  0.7818608E-02  0.8411209E-01
          2   -1    0    0  501    0  0.00000000000E+00  0.00000000000E+00  0.11155928618E+04  0.11155928618E+04  0.00000000000E+00 0. -1.
         -1   -1    0    0    0  501 -0.00000000000E+00 -0.00000000000E+00 -0.13749997678E+04  0.13749997678E+04  0.00000000000E+00 0.  1.
         24    2    1    2    0    0 -0.90736349413E+02  0.70441965173E+03 -0.91564236844E+03  0.11613303669E+04  0.76466615865E+02 0.  0.
        254    2    1    2    0    0  0.90736349413E+02 -0.70441965173E+03  0.65623546247E+03  0.13292622627E+04  0.91205978415E+03 0.  0.
         23    2    4    4    0    0  0.37581636374E+03 -0.62968764675E+03  0.70016219307E+03  0.10178562439E+04  0.89776193033E+02 0.  0.
         23    2    4    4    0    0 -0.28508001432E+03 -0.74732004979E+02 -0.43926730597E+02  0.31140601880E+03  0.90491235741E+02 0.  0.
          2    1    3    3  502    0 -0.75371953072E+01  0.17437350446E+02 -0.47331190245E+02  0.51001098749E+02  0.00000000000E+00 0. -1.
         -1    1    3    3    0  502 -0.83199154106E+02  0.68698230128E+03 -0.86831117819E+03  0.11103292681E+04  0.00000000000E+00 0.  1.
         13    1    5    5    0    0  0.20751141813E+03 -0.26333159781E+03  0.33354634940E+03  0.47292460948E+03  0.00000000000E+00 0. -1.
        -13    1    5    5    0    0  0.16830494561E+03 -0.36635604894E+03  0.36661584367E+03  0.54493163437E+03  0.00000000000E+00 0.  1.
          4    1    6    6  503    0 -0.15377060149E+03 -0.71198072191E+02  0.92210922026E+01  0.16970442512E+03  0.00000000000E+00 0. -1.
         -4    1    6    6    0  503 -0.13130941284E+03 -0.35339327879E+01 -0.53147822800E+02  0.14170159367E+03  0.00000000000E+00 0.  1.
<mgrwt>
<rscale>  0 0.24770466E+04</rscale>
<asrwt>0</asrwt>
<pdfrwt beam="1">  1        2 0.17162967E+00 0.24770466E+04</pdfrwt>
<pdfrwt beam="2">  1       -1 0.21153843E+00 0.24770466E+04</pdfrwt>
<totfact> 0.27240219E+00</totfact>
</mgrwt>
</event>
<event>
12    7  0.1546317E-007  0.3086837E+04  0.7818608E-02  0.8219360E-01
          2   -1    0    0  501    0  0.00000000000E+00  0.00000000000E+00  0.11882497287E+04  0.11882497287E+04  0.00000000000E+00 0. -1.
         -1   -1    0    0    0  501 -0.00000000000E+00 -0.00000000000E+00 -0.20047480716E+04  0.20047480716E+04  0.00000000000E+00 0.  1.
         24    2    1    2    0    0  0.42336575919E+03 -0.50655226571E+03  0.91617991297E+03  0.11320285429E+04  0.79178438134E+02 0.  0.
        254    2    1    2    0    0 -0.42336575919E+03  0.50655226571E+03 -0.17326782559E+04  0.20609692575E+04  0.89977029179E+03 0.  0.
         23    2    4    4    0    0 -0.66889160134E+03  0.37491289316E+03 -0.14984123829E+04  0.16857332739E+04  0.92094242820E+02 0.  0.
         23    2    4    4    0    0  0.24552584216E+03  0.13163937254E+03 -0.23426587292E+03  0.37523598358E+03  0.91157449435E+02 0.  0.
          2    1    3    3  502    0  0.18934136826E+03 -0.21163738687E+03  0.33004790737E+03  0.43539884981E+03  0.00000000000E+00 0. -1.
         -1    1    3    3    0  502  0.23402439093E+03 -0.29491487884E+03  0.58613200560E+03  0.69662969309E+03  0.00000000000E+00 0.  1.
         13    1    5    5    0    0 -0.65147583840E+03  0.36837583207E+03 -0.14845591408E+04  0.16625394324E+04  0.00000000000E+00 0.  1.
        -13    1    5    5    0    0 -0.17415762948E+02  0.65370610981E+01 -0.13853242149E+02  0.23193841530E+02  0.00000000000E+00 0. -1.
          3    1    6    6  503    0  0.10291520061E+03  0.96892393547E+02 -0.80527781724E+02  0.16267881876E+03  0.00000000000E+00 0.  1.
         -3    1    6    6    0  503  0.14261064154E+03  0.34746978998E+02 -0.15373809119E+03  0.21255716481E+03  0.00000000000E+00 0. -1.
<mgrwt>
<rscale>  0 0.30868374E+04</rscale>
<asrwt>0</asrwt>
<pdfrwt beam="1">  1        2 0.18280765E+00 0.30868374E+04</pdfrwt>
<pdfrwt beam="2">  1       -1 0.30842278E+00 0.30868374E+04</pdfrwt>
<totfact> 0.54264600E-01</totfact>
</mgrwt>
</event>
<event>
12    7  0.1546317E-007  0.1176618E+04  0.7818608E-02  0.9133573E-01
         -1   -1    0    0    0  501 -0.00000000000E+00  0.00000000000E+00  0.22649035517E+03  0.22649035517E+03  0.00000000000E+00 0.  1.
          2   -1    0    0  501    0  0.00000000000E+00 -0.00000000000E+00 -0.15281321231E+04  0.15281321231E+04  0.00000000000E+00 0. -1.
         24    2    1    2    0    0  0.17747499032E+02  0.68154200692E+02 -0.61917993195E+03  0.62832955807E+03  0.80338512631E+02 0.  0.
        254    2    1    2    0    0 -0.17747499032E+02 -0.68154200692E+02 -0.68246183594E+03  0.11262929202E+04  0.89320860704E+03 0.  0.
         23    2    4    4    0    0 -0.20286463542E+03 -0.42347877133E+03 -0.43582522467E+03  0.64699092680E+03  0.90362065270E+02 0.  0.
         23    2    4    4    0    0  0.18511713639E+03  0.35532457064E+03 -0.24663661128E+03  0.47930199336E+03  0.91525286856E+02 0.  0.
          4    1    3    3  502    0  0.10155769506E+02  0.67709932005E+02 -0.61646387144E+03  0.62025436664E+03  0.00000000000E+00 0. -1.
         -3    1    3    3    0  502  0.75917295262E+01  0.44426868723E+00 -0.27160605158E+01  0.80751914275E+01  0.00000000000E+00 0.  1.
         13    1    5    5    0    0 -0.14015742059E+03 -0.36958246689E+03 -0.36780367059E+03  0.53992114469E+03  0.00000000000E+00 0. -1.
        -13    1    5    5    0    0 -0.62707214827E+02 -0.53896304437E+02 -0.68021554079E+02  0.10706978212E+03  0.00000000000E+00 0.  1.
          2    1    6    6  503    0  0.18725373887E+03  0.33472422764E+03 -0.25068389204E+03  0.45819939438E+03  0.00000000000E+00 0. -1.
         -2    1    6    6    0  503 -0.21366024845E+01  0.20600343003E+02  0.40472807598E+01  0.21102598977E+02  0.00000000000E+00 0.  1.
<mgrwt>
<rscale>  0 0.11766175E+04</rscale>
<asrwt>0</asrwt>
<pdfrwt beam="1">  1        2 0.23509725E+00 0.11766175E+04</pdfrwt>
<pdfrwt beam="2">  1       -1 0.34844670E-01 0.11766175E+04</pdfrwt>
<totfact> 0.10773029E+02</totfact>
</mgrwt>
</event>
<event>
12    7  0.1546317E-007  0.3935607E+04  0.7818608E-02  0.8017664E-01
         -1   -1    0    0    0  501 -0.00000000000E+00  0.00000000000E+00  0.25130637741E+04  0.25130637741E+04  0.00000000000E+00 0.  1.
          2   -1    0    0  501    0  0.00000000000E+00 -0.00000000000E+00 -0.15408485672E+04  0.15408485672E+04  0.00000000000E+00 0. -1.
         24    2    1    2    0    0  0.15717916450E+04  0.95285081287E+03  0.12447159847E+03  0.18438974526E+04  0.77530575470E+02 0.  0.
        254    2    1    2    0    0 -0.15717916450E+04 -0.95285081287E+03  0.84774360842E+03  0.22100148888E+04  0.88715440386E+03 0.  0.
         23    2    4    4    0    0 -0.72434759120E+03 -0.15974195529E+03  0.72192962743E+03  0.10390590291E+04  0.90908491357E+02 0.  0.
         23    2    4    4    0    0 -0.84744405376E+03 -0.79310885758E+03  0.12581398099E+03  0.11709558597E+04  0.90140908195E+02 0.  0.
          2    1    3    3  502    0  0.62394680416E+03  0.38899584301E+03  0.12871199113E+02  0.73538632573E+03  0.00000000000E+00 0. -1.
         -1    1    3    3    0  502  0.94784484080E+03  0.56385496986E+03  0.11160039936E+03  0.11085111269E+04  0.00000000000E+00 0.  1.
         13    1    5    5    0    0  0.18060479985E+01 -0.43384789765E+01  0.49003103352E+01  0.67894956060E+01  0.00000000000E+00 0. -1.
        -13    1    5    5    0    0 -0.72615363920E+03 -0.15540347631E+03  0.71702931710E+03  0.10322695335E+04  0.00000000000E+00 0.  1.
          2    1    6    6  503    0 -0.38302857028E+03 -0.36296692053E+03  0.12206779673E+02  0.52783034823E+03  0.00000000000E+00 0. -1.
         -2    1    6    6    0  503 -0.46441548348E+03 -0.43014193705E+03  0.11360720132E+03  0.64312551147E+03  0.00000000000E+00 0.  1.
<mgrwt>
<rscale>  0 0.39356071E+04</rscale>
<asrwt>0</asrwt>
<pdfrwt beam="1">  1        2 0.23705363E+00 0.39356071E+04</pdfrwt>
<pdfrwt beam="2">  1       -1 0.38662520E+00 0.39356071E+04</pdfrwt>
<totfact> 0.95856623E-02</totfact>
</mgrwt>
</event>
<event>
12    7  0.1546317E-007  0.1520397E+04  0.7818608E-02  0.8871001E-01
          2   -1    0    0  501    0  0.00000000000E+00  0.00000000000E+00  0.13895224003E+04  0.13895224003E+04  0.00000000000E+00 0. -1.
         -1   -1    0    0    0  501 -0.00000000000E+00 -0.00000000000E+00 -0.41589971462E+03  0.41589971462E+03  0.00000000000E+00 0.  1.
         24    2    1    2    0    0  0.35471357392E+03 -0.14187694826E+03  0.69622133671E+03  0.79779960251E+03  0.76218554847E+02 0.  0.
        254    2    1    2    0    0 -0.35471357392E+03  0.14187694826E+03  0.27740134897E+03  0.10076225124E+04  0.89016899022E+03 0.  0.
         23    2    4    4    0    0 -0.58255115351E+03  0.17535939035E+03 -0.26217784483E+02  0.61575930548E+03  0.91407810511E+02 0.  0.
         23    2    4    4    0    0  0.22783757959E+03 -0.33482442090E+02  0.30361913345E+03  0.39186320694E+03  0.91329941169E+02 0.  0.
          4    1    3    3  502    0  0.78120363013E+02 -0.15971928551E+02  0.94156830816E+02  0.12338315285E+03  0.00000000000E+00 0. -1.
         -3    1    3    3    0  502  0.27659321090E+03 -0.12590501971E+03  0.60206450590E+03  0.67441644966E+03  0.00000000000E+00 0.  1.
         13    1    5    5    0    0 -0.49635989456E+03  0.17929981144E+03 -0.35705788000E+02  0.52895791006E+03  0.00000000000E+00 0. -1.
        -13    1    5    5    0    0 -0.86191258941E+02 -0.39404210872E+01  0.94880035168E+01  0.86801395420E+02  0.00000000000E+00 0.  1.
          4    1    6    6  503    0  0.11252132113E+03 -0.45271478393E+02  0.21146291705E+03  0.24377678263E+03  0.00000000000E+00 0. -1.
         -4    1    6    6    0  503  0.11531625846E+03  0.11789036303E+02  0.92156216408E+02  0.14808642431E+03  0.00000000000E+00 0.  1.
<mgrwt>
<rscale>  0 0.15203973E+04</rscale>
<asrwt>0</asrwt>
<pdfrwt beam="1">  1        2 0.21377267E+00 0.15203973E+04</pdfrwt>
<pdfrwt beam="2">  1       -1 0.63984572E-01 0.15203973E+04</pdfrwt>
<totfact> 0.39960754E+01</totfact>
</mgrwt>
</event>
<event>
12    7  0.1546317E-007  0.2416772E+04  0.7818608E-02  0.8433251E-01
         -1   -1    0    0    0  501 -0.00000000000E+00  0.00000000000E+00  0.52243477682E+03  0.52243477682E+03  0.00000000000E+00 0.  1.
          2   -1    0    0  501    0  0.00000000000E+00 -0.00000000000E+00 -0.27949838922E+04  0.27949838922E+04  0.00000000000E+00 0. -1.
         24    2    1    2    0    0 -0.46221161037E+03  0.25852030929E+03 -0.21650640371E+04  0.22303379883E+04  0.80205575525E+02 0.  0.
        254    2    1    2    0    0  0.46221161037E+03 -0.25852030929E+03 -0.10748507827E+03  0.10870806807E+04  0.94324919358E+03 0.  0.
         23    2    4    4    0    0  0.31166663906E+03  0.19275729603E+03  0.27718882107E+03  0.46879876589E+03  0.92990167763E+02 0.  0.
         23    2    4    4    0    0  0.15054497131E+03 -0.45127760531E+03 -0.38467389934E+03  0.61828191479E+03  0.89349045237E+02 0.  0.
          2    1    3    3  502    0 -0.39547957378E+03  0.25023473095E+03 -0.18635086624E+04  0.19213760820E+04  0.00000000000E+00 0. -1.
         -1    1    3    3    0  502 -0.66732036593E+02  0.82855783401E+01 -0.30155537469E+03  0.30896190626E+03  0.00000000000E+00 0.  1.
         13    1    5    5    0    0  0.22050830590E+03  0.17834094520E+03  0.23000169687E+03  0.36514406235E+03  0.00000000000E+00 0. -1.
        -13    1    5    5    0    0  0.91158333162E+02  0.14416350822E+02  0.47187124197E+02  0.10365470354E+03  0.00000000000E+00 0.  1.
          2    1    6    6  503    0  0.11301143696E+03 -0.20755587394E+03 -0.16724636425E+03  0.28952093542E+03  0.00000000000E+00 0.  1.
         -2    1    6    6    0  503  0.37533534344E+02 -0.24372173137E+03 -0.21742753509E+03  0.32876097937E+03  0.00000000000E+00 0. -1.
<mgrwt>
<rscale>  0 0.24167721E+04</rscale>
<asrwt>0</asrwt>
<pdfrwt beam="1">  1        2 0.42999751E+00 0.24167721E+04</pdfrwt>
<pdfrwt beam="2">  1       -1 0.80374583E-01 0.24167721E+04</pdfrwt>
<totfact> 0.36738092E+00</totfact>
</mgrwt>
</event>
<event>
12    7  0.1546317E-007  0.2226043E+04  0.7818608E-02  0.8507666E-01
         -1   -1    0    0    0  501 -0.00000000000E+00  0.00000000000E+00  0.48786462850E+03  0.48786462850E+03  0.00000000000E+00 0.  1.
          2   -1    0    0  501    0  0.00000000000E+00 -0.00000000000E+00 -0.25392633325E+04  0.25392633325E+04  0.00000000000E+00 0. -1.
         24    2    1    2    0    0 -0.86326174200E+03 -0.88441449356E+02 -0.40516952639E+03  0.96090442221E+03  0.78308609730E+02 0.  0.
        254    2    1    2    0    0  0.86326174200E+03  0.88441449356E+02 -0.16462291776E+04  0.20662235388E+04  0.89786774186E+03 0.  0.
         23    2    4    4    0    0  0.31406086264E+03 -0.33436510150E+03 -0.10421642350E+04  0.11423122435E+04  0.91305653287E+02 0.  0.
         23    2    4    4    0    0  0.54920087936E+03  0.42280655086E+03 -0.60406494266E+03  0.92391129536E+03  0.91272347424E+02 0.  0.
          2    1    3    3  502    0 -0.75380258568E+03 -0.71396050975E+02 -0.32406702006E+03  0.82361105369E+03  0.00000000000E+00 0. -1.
         -1    1    3    3    0  502 -0.10945915632E+03 -0.17045398381E+02 -0.81102506328E+02  0.13729336852E+03  0.00000000000E+00 0.  1.
         13    1    5    5    0    0  0.16406003598E+03 -0.23766035669E+03 -0.61896079098E+03  0.68301581337E+03  0.00000000000E+00 0.  1.
        -13    1    5    5    0    0  0.15000082666E+03 -0.96704744808E+02 -0.42320344401E+03  0.45929643009E+03  0.00000000000E+00 0. -1.
          3    1    6    6  503    0  0.28751910338E+02  0.30955143093E+01 -0.13815729465E+02  0.32048852360E+02  0.00000000000E+00 0. -1.
         -3    1    6    6    0  503  0.52044896902E+03  0.41971103655E+03 -0.59024921319E+03  0.89186244300E+03  0.00000000000E+00 0.  1.
<mgrwt>
<rscale>  0 0.22260429E+04</rscale>
<asrwt>0</asrwt>
<pdfrwt beam="1">  1        2 0.39065589E+00 0.22260429E+04</pdfrwt>
<pdfrwt beam="2">  1       -1 0.75056098E-01 0.22260429E+04</pdfrwt>
<totfact> 0.61197957E+00</totfact>
</mgrwt>
</event>
<event>
12    7  0.1546317E-007  0.3476442E+04  0.7818608E-02  0.8119396E-01
          2   -1    0    0  501    0  0.00000000000E+00  0.00000000000E+00  0.32271073593E+04  0.32271073593E+04  0.00000000000E+00 0. -1.
         -1   -1    0    0    0  501 -0.00000000000E+00 -0.00000000000E+00 -0.93626041676E+03  0.93626041676E+03  0.00000000000E+00 0.  1.
         24    2    1    2    0    0 -0.19829724127E+03  0.15934656123E+04  0.81949862356E+03  0.18051539703E+04  0.92457606845E+02 0.  0.
        254    2    1    2    0    0  0.19829724127E+03 -0.15934656123E+04  0.14713483190E+04  0.23582138057E+04  0.90435171490E+03 0.  0.
         23    2    4    4    0    0 -0.32048171214E+03 -0.46820208000E+03  0.65327800729E+03  0.87016982396E+03  0.92204404372E+02 0.  0.
         23    2    4    4    0    0  0.51877895341E+03 -0.11252635323E+04  0.81807031167E+03  0.14880439818E+04  0.98418682981E+02 0.  0.
          2    1    3    3  502    0  0.43580734339E+01  0.13732728612E+03  0.54003123004E+02  0.14762829543E+03  0.00000000000E+00 0. -1.
         -1    1    3    3    0  502 -0.20265531470E+03  0.14561383262E+04  0.76549550056E+03  0.16575256749E+04  0.00000000000E+00 0.  1.
         13    1    5    5    0    0 -0.32242713648E+03 -0.46406546650E+03  0.65519341185E+03  0.86521351264E+03  0.00000000000E+00 0. -1.
        -13    1    5    5    0    0  0.19454243402E+01 -0.41366135063E+01 -0.19154045639E+01  0.49563113106E+01  0.00000000000E+00 0.  1.
          2    1    6    6  503    0  0.49983874926E+03 -0.10435764241E+04  0.78310791849E+03  0.13971930934E+04  0.00000000000E+00 0. -1.
         -2    1    6    6    0  503  0.18940204146E+02 -0.81687108217E+02  0.34962393180E+02  0.90850888376E+02  0.00000000000E+00 0.  1.
<mgrwt>
<rscale>  0 0.34764424E+04</rscale>
<asrwt>0</asrwt>
<pdfrwt beam="1">  1        2 0.49647805E+00 0.34764424E+04</pdfrwt>
<pdfrwt beam="2">  1       -1 0.14404007E+00 0.34764424E+04</pdfrwt>
<totfact> 0.45201314E-01</totfact>
</mgrwt>
</event>
<event>
12    7  0.1658453E-007  0.2413592E+04  0.7818608E-02  0.8434433E-01
          2   -1    0    0  501    0  0.00000000000E+00  0.00000000000E+00  0.11499333223E+04  0.11499333223E+04  0.00000000000E+00 0. -1.
         -1   -1    0    0    0  501 -0.00000000000E+00 -0.00000000000E+00 -0.12664700426E+04  0.12664700426E+04  0.00000000000E+00 0.  1.
         24    2    1    2    0    0 -0.68957952361E+03 -0.30194784332E+02  0.72636853019E+03  0.10051711413E+04  0.79537017968E+02 0.  0.
        254    2    1    2    0    0  0.68957952361E+03  0.30194784332E+02 -0.84290525043E+03  0.14112322236E+04  0.89702591007E+03 0.  0.
         23    2    4    4    0    0 -0.11341574999E+03 -0.11879813114E+03 -0.47217927951E+03  0.50991782152E+03  0.10043298462E+03 0.  0.
         23    2    4    4    0    0  0.80299527359E+03  0.14899291547E+03 -0.37072597093E+03  0.90131440208E+03  0.89048344224E+02 0.  0.
          2    1    3    3  502    0 -0.63616831571E+03 -0.47099849605E+02  0.65317633825E+03  0.91299937053E+03  0.00000000000E+00 0. -1.
         -1    1    3    3    0  502 -0.53411207896E+02  0.16905065273E+02  0.73192191941E+02  0.92171770743E+02  0.00000000000E+00 0.  1.
         13    1    5    5    0    0 -0.16696886907E+02 -0.52365714475E+02 -0.60029545977E+02  0.81391034365E+02  0.00000000000E+00 0. -1.
        -13    1    5    5    0    0 -0.96718863079E+02 -0.66432416664E+02 -0.41214973353E+03  0.42852678715E+03  0.00000000000E+00 0.  1.
          1    1    6    6  503    0  0.21854291887E+03  0.12029884521E+02 -0.12992345334E+03  0.25453060570E+03  0.00000000000E+00 0. -1.
         -1    1    6    6    0  503  0.58445235472E+03  0.13696303095E+03 -0.24080251759E+03  0.64678379638E+03  0.00000000000E+00 0.  1.
<mgrwt>
<rscale>  0 0.24135916E+04</rscale>
<asrwt>0</asrwt>
<pdfrwt beam="1">  1        2 0.17691282E+00 0.24135916E+04</pdfrwt>
<pdfrwt beam="2">  1       -1 0.19484154E+00 0.24135916E+04</pdfrwt>
<totfact> 0.33976466E+00</totfact>
</mgrwt>
</event>
<event>
12    7  0.1546317E-007  0.1476006E+04  0.7818608E-02  0.8900567E-01
          2   -1    0    0  501    0  0.00000000000E+00  0.00000000000E+00  0.16216329241E+04  0.16216329241E+04  0.00000000000E+00 0. -1.
         -1   -1    0    0    0  501 -0.00000000000E+00 -0.00000000000E+00 -0.33586433995E+03  0.33586433995E+03  0.00000000000E+00 0.  1.
         24    2    1    2    0    0 -0.16976484760E+03 -0.14236379038E+03 -0.12514332685E+03  0.26777414873E+03  0.83394185550E+02 0.  0.
        254    2    1    2    0    0  0.16976484760E+03  0.14236379038E+03  0.14109119110E+04  0.16897231153E+04  0.90299736077E+03 0.  0.
         23    2    4    4    0    0  0.38865506002E+03 -0.25051891530E+03  0.72136545020E+03  0.86160654120E+03  0.90472296809E+02 0.  0.
         23    2    4    4    0    0 -0.21889021242E+03  0.39288270568E+03  0.68954646083E+03  0.82811657415E+03  0.89626967083E+02 0.  0.
          2    1    3    3  502    0  0.93664203228E+01 -0.79471113785E+01 -0.10610142451E+02  0.16231498136E+02  0.00000000000E+00 0. -1.
         -1    1    3    3    0  502 -0.17913126792E+03 -0.13441667900E+03 -0.11453318440E+03  0.25154265060E+03  0.00000000000E+00 0.  1.
         13    1    5    5    0    0  0.19530348555E+03 -0.74335149834E+02  0.34227150057E+03  0.40102237602E+03  0.00000000000E+00 0.  1.
        -13    1    5    5    0    0  0.19335157447E+03 -0.17618376546E+03  0.37909394963E+03  0.46058416518E+03  0.00000000000E+00 0. -1.
          3    1    6    6  503    0 -0.22396702304E+03  0.38201172360E+03  0.64787535431E+03  0.78475261013E+03  0.00000000000E+00 0. -1.
         -3    1    6    6    0  503  0.50768106244E+01  0.10870982080E+02  0.41671106516E+02  0.43363964023E+02  0.00000000000E+00 0.  1.
<mgrwt>
<rscale>  0 0.14760063E+04</rscale>
<asrwt>0</asrwt>
<pdfrwt beam="1">  1        2 0.24948198E+00 0.14760063E+04</pdfrwt>
<pdfrwt beam="2">  1       -1 0.51671438E-01 0.14760063E+04</pdfrwt>
<totfact> 0.45076358E+01</totfact>
</mgrwt>
</event>
<event>
12    7  0.1546317E-007  0.1888311E+04  0.7818608E-02  0.8660697E-01
          2   -1    0    0  501    0  0.00000000000E+00  0.00000000000E+00  0.13180979572E+04  0.13180979572E+04  0.00000000000E+00 0. -1.
         -1   -1    0    0    0  501 -0.00000000000E+00 -0.00000000000E+00 -0.67629989860E+03  0.67629989860E+03  0.00000000000E+00 0.  1.
         24    2    1    2    0    0 -0.13302349870E+03  0.61555193059E+03  0.63563635890E+03  0.89885614459E+03  0.85494780317E+02 0.  0.
        254    2    1    2    0    0  0.13302349870E+03 -0.61555193059E+03  0.61616997274E+01  0.10955417112E+04  0.89642302741E+03 0.  0.
         23    2    4    4    0    0 -0.87417728726E+02 -0.40813444749E+03  0.40350745457E+03  0.58795827500E+03  0.93064927474E+02 0.  0.
         23    2    4    4    0    0  0.22044122743E+03 -0.20741748310E+03 -0.39734575484E+03  0.50758343624E+03  0.90227206582E+02 0.  0.
          4    1    3    3  502    0 -0.11919014712E+03  0.58511231725E+03  0.57158347576E+03  0.82660170865E+03  0.00000000000E+00 0. -1.
         -3    1    3    3    0  502 -0.13833351579E+02  0.30439613334E+02  0.64052883137E+02  0.72254435947E+02  0.00000000000E+00 0.  1.
         13    1    5    5    0    0 -0.82569523583E+02 -0.22695114444E+03  0.18597812776E+03  0.30481537394E+03  0.00000000000E+00 0.  1.
        -13    1    5    5    0    0 -0.48482051430E+01 -0.18118330305E+03  0.21752932681E+03  0.28314290106E+03  0.00000000000E+00 0. -1.
          1    1    6    6  503    0  0.18778189793E+03 -0.15185187231E+03 -0.35874084402E+03  0.43245349517E+03  0.00000000000E+00 0. -1.
         -1    1    6    6    0  503  0.32659329496E+02 -0.55565610795E+02 -0.38604910826E+02  0.75129941075E+02  0.00000000000E+00 0.  1.
<mgrwt>
<rscale>  0 0.18883109E+04</rscale>
<asrwt>0</asrwt>
<pdfrwt beam="1">  1        2 0.20278430E+00 0.18883109E+04</pdfrwt>
<pdfrwt beam="2">  1       -1 0.10404614E+00 0.18883109E+04</pdfrwt>
<totfact> 0.14994912E+01</totfact>
</mgrwt>
</event>
<event>
12    7  0.1546317E-007  0.1459114E+04  0.7818608E-02  0.8912107E-01
          2   -1    0    0  501    0  0.00000000000E+00  0.00000000000E+00  0.29970301595E+03  0.29970301595E+03  0.00000000000E+00 0. -1.
         -1   -1    0    0    0  501 -0.00000000000E+00 -0.00000000000E+00 -0.17759351630E+04  0.17759351630E+04  0.00000000000E+00 0.  1.
         24    2    1    2    0    0  0.38520511833E+03 -0.82407141397E+02 -0.13920413542E+03  0.42549685363E+03  0.80596904345E+02 0.  0.
        254    2    1    2    0    0 -0.38520511833E+03  0.82407141397E+02 -0.13370280116E+04  0.16501413253E+04  0.88326019353E+03 0.  0.
         23    2    4    4    0    0 -0.12942586567E+03  0.46706928959E+03 -0.62773885013E+03  0.79863282939E+03  0.94093337810E+02 0.  0.
         23    2    4    4    0    0 -0.25577925266E+03 -0.38466214820E+03 -0.70928916149E+03  0.85150849592E+03  0.92669356720E+02 0.  0.
          4    1    3    3  502    0  0.34144818760E+03 -0.52078836455E+02 -0.13883552343E+03  0.37225578919E+03  0.00000000000E+00 0. -1.
         -3    1    3    3    0  502  0.43756930735E+02 -0.30328304941E+02 -0.36861198811E+00  0.53241064441E+02  0.00000000000E+00 0.  1.
         13    1    5    5    0    0 -0.51683382708E+02  0.60598543732E+02 -0.92445294826E+02  0.12202249008E+03  0.00000000000E+00 0.  1.
        -13    1    5    5    0    0 -0.77742482967E+02  0.40647074586E+03 -0.53529355531E+03  0.67661033930E+03  0.00000000000E+00 0. -1.
          1    1    6    6  503    0 -0.12659017293E+03 -0.23700627687E+03 -0.47680979456E+03  0.54730670318E+03  0.00000000000E+00 0. -1.
         -1    1    6    6    0  503 -0.12918907973E+03 -0.14765587133E+03 -0.23247936692E+03  0.30420179274E+03  0.00000000000E+00 0.  1.
<mgrwt>
<rscale>  0 0.14591136E+04</rscale>
<asrwt>0</asrwt>
<pdfrwt beam="1">  1        2 0.46108156E-01 0.14591136E+04</pdfrwt>
<pdfrwt beam="2">  1       -1 0.27322080E+00 0.14591136E+04</pdfrwt>
<totfact> 0.60166933E+00</totfact>
</mgrwt>
</event>
<event>
12    7  0.1546317E-007  0.1235327E+04  0.7818608E-02  0.9082484E-01
         -1   -1    0    0    0  501 -0.00000000000E+00  0.00000000000E+00  0.45847629071E+03  0.45847629071E+03  0.00000000000E+00 0.  1.
          2   -1    0    0  501    0  0.00000000000E+00 -0.00000000000E+00 -0.83212235694E+03  0.83212235694E+03  0.00000000000E+00 0. -1.
         24    2    1    2    0    0 -0.25389404630E+03 -0.82694415771E+02  0.15737328854E+01  0.27838300595E+03  0.78702402907E+02 0.  0.
        254    2    1    2    0    0  0.25389404630E+03  0.82694415771E+02 -0.37521979912E+03  0.10122156417E+04  0.90138230207E+03 0.  0.
         23    2    4    4    0    0  0.26284183326E+03 -0.30668210962E+03 -0.44281625905E+03  0.60619097942E+03  0.90782809938E+02 0.  0.
         23    2    4    4    0    0 -0.89477869627E+01  0.38937652539E+03  0.67596459933E+02  0.40602466227E+03  0.92696297460E+02 0.  0.
          2    1    3    3  502    0 -0.92358175812E+02 -0.56285912920E+02 -0.28758348550E+02  0.11191594723E+03  0.00000000000E+00 0. -1.
         -1    1    3    3    0  502 -0.16153587049E+03 -0.26408502850E+02  0.30332081436E+02  0.16646705873E+03  0.00000000000E+00 0.  1.
         13    1    5    5    0    0  0.14343924444E+03 -0.22997023526E+03 -0.31053071919E+03  0.41217769653E+03  0.00000000000E+00 0.  1.
        -13    1    5    5    0    0  0.11940258882E+03 -0.76711874359E+02 -0.13228553986E+03  0.19401328289E+03  0.00000000000E+00 0. -1.
          1    1    6    6  503    0 -0.36250677245E+02  0.17518121357E+03 -0.27883077172E+01  0.17891434780E+03  0.00000000000E+00 0. -1.
         -1    1    6    6    0  503  0.27302890282E+02  0.21419531182E+03  0.70384767650E+02  0.22711031447E+03  0.00000000000E+00 0.  1.
<mgrwt>
<rscale>  0 0.12353273E+04</rscale>
<asrwt>0</asrwt>
<pdfrwt beam="1">  1        2 0.12801882E+00 0.12353273E+04</pdfrwt>
<pdfrwt beam="2">  1       -1 0.70534815E-01 0.12353273E+04</pdfrwt>
<totfact> 0.74593637E+01</totfact>
</mgrwt>
</event>
<event>
12    7  0.1546317E-007  0.3964557E+04  0.7818608E-02  0.8011735E-01
         -1   -1    0    0    0  501 -0.00000000000E+00  0.00000000000E+00  0.13461606676E+04  0.13461606676E+04  0.00000000000E+00 0.  1.
          2   -1    0    0  501    0  0.00000000000E+00 -0.00000000000E+00 -0.29189895821E+04  0.29189895821E+04  0.00000000000E+00 0. -1.
         24    2    1    2    0    0  0.82278532030E+03  0.15907589579E+04 -0.14463872589E+03  0.17985076885E+04  0.78865704316E+02 0.  0.
        254    2    1    2    0    0 -0.82278532030E+03 -0.15907589579E+04 -0.14281901886E+04  0.24666425611E+04  0.91493637156E+03 0.  0.
         23    2    4    4    0    0  0.10582937563E+03  0.15701591037E+01 -0.21994281781E+03  0.26069037683E+03  0.91554941509E+02 0.  0.
         23    2    4    4    0    0 -0.92861469593E+03 -0.15923291170E+04 -0.12082473708E+04  0.22059521843E+04  0.92336666495E+02 0.  0.
          2    1    3    3  502    0  0.66309448735E+03  0.13305160678E+04 -0.10033012839E+03  0.14899776644E+04  0.00000000000E+00 0. -1.
         -1    1    3    3    0  502  0.15969083294E+03  0.26024289012E+03 -0.44308597500E+02  0.30853002414E+03  0.00000000000E+00 0.  1.
         13    1    5    5    0    0  0.29843037437E+02  0.39655374628E+02 -0.11767302796E+03  0.12771099064E+03  0.00000000000E+00 0.  1.
        -13    1    5    5    0    0  0.75986338195E+02 -0.38085215524E+02 -0.10226978985E+03  0.13297938619E+03  0.00000000000E+00 0. -1.
          1    1    6    6  503    0 -0.29656927823E+03 -0.46536302684E+03 -0.31868836682E+03  0.63724277845E+03  0.00000000000E+00 0. -1.
         -1    1    6    6    0  503 -0.63204541770E+03 -0.11269660901E+04 -0.88955900398E+03  0.15687094058E+04  0.00000000000E+00 0.  1.
<mgrwt>
<rscale>  0 0.39645575E+04</rscale>
<asrwt>0</asrwt>
<pdfrwt beam="1">  1        2 0.44907532E+00 0.39645575E+04</pdfrwt>
<pdfrwt beam="2">  1       -1 0.20710164E+00 0.39645575E+04</pdfrwt>
<totfact> 0.23628863E-01</totfact>
</mgrwt>
</event>
<event>
12    7  0.1546317E-007  0.1749208E+04  0.7818608E-02  0.8733786E-01
          2   -1    0    0  501    0  0.00000000000E+00  0.00000000000E+00  0.20550557576E+04  0.20550557576E+04  0.00000000000E+00 0. -1.
         -1   -1    0    0    0  501 -0.00000000000E+00 -0.00000000000E+00 -0.37221972828E+03  0.37221972828E+03  0.00000000000E+00 0.  1.
         24    2    1    2    0    0  0.25695696231E+03 -0.55145350323E+03  0.34386640106E+03  0.70312402420E+03  0.77533508388E+02 0.  0.
        254    2    1    2    0    0 -0.25695696231E+03  0.55145350323E+03  0.13389696282E+04  0.17241514616E+04  0.89985040461E+03 0.  0.
         23    2    4    4    0    0 -0.14085323962E+03  0.79063633638E+02 -0.93818614785E+02  0.20759971568E+03  0.90581544444E+02 0.  0.
         23    2    4    4    0    0 -0.11610372269E+03  0.47238986959E+03  0.14327882430E+04  0.15165517460E+04  0.10205285674E+03 0.  0.
          2    1    3    3  502    0  0.34476897891E+02 -0.65001220782E+02  0.14663648238E+02  0.75025580777E+02  0.00000000000E+00 0. -1.
         -1    1    3    3    0  502  0.22248006442E+03 -0.48645228245E+03  0.32920275282E+03  0.62809844342E+03  0.00000000000E+00 0.  1.
         13    1    5    5    0    0 -0.20386381562E+02 -0.18836478565E+02 -0.26584519936E+02  0.38433763518E+02  0.00000000000E+00 0. -1.
        -13    1    5    5    0    0 -0.12046685806E+03  0.97900112203E+02 -0.67234094848E+02  0.16916595216E+03  0.00000000000E+00 0.  1.
          4    1    6    6  503    0 -0.53602369632E+02  0.35442411472E+03  0.94085227286E+03  0.10068230562E+04  0.00000000000E+00 0. -1.
         -4    1    6    6    0  503 -0.62501353053E+02  0.11796575488E+03  0.49193597014E+03  0.50972868977E+03  0.00000000000E+00 0.  1.
<mgrwt>
<rscale>  0 0.17492082E+04</rscale>
<asrwt>0</asrwt>
<pdfrwt beam="1">  1        2 0.31616242E+00 0.17492082E+04</pdfrwt>
<pdfrwt beam="2">  1       -1 0.57264575E-01 0.17492082E+04</pdfrwt>
<totfact> 0.20755894E+01</totfact>
</mgrwt>
</event>
<event>
12    7  0.1546317E-007  0.1509908E+04  0.7818608E-02  0.8877891E-01
         -1   -1    0    0    0  501 -0.00000000000E+00  0.00000000000E+00  0.44109840331E+03  0.44109840331E+03  0.00000000000E+00 0.  1.
          2   -1    0    0  501    0  0.00000000000E+00 -0.00000000000E+00 -0.12921285685E+04  0.12921285685E+04  0.00000000000E+00 0. -1.
         24    2    1    2    0    0  0.38441931708E+03  0.18933987451E+03 -0.32717678334E+02  0.43716289628E+03  0.80082157716E+02 0.  0.
        254    2    1    2    0    0 -0.38441931708E+03 -0.18933987451E+03 -0.81831248682E+03  0.12960640755E+04  0.90913088292E+03 0.  0.
         23    2    4    4    0    0 -0.71397579092E+02 -0.33943011397E+03  0.44814388832E+02  0.36127754805E+03  0.90568872736E+02 0.  0.
         23    2    4    4    0    0 -0.31302173799E+03  0.15009023946E+03 -0.86312687565E+03  0.93478652745E+03  0.91258752925E+02 0.  0.
          2    1    3    3  502    0  0.75557422464E+00 -0.45204000732E+01 -0.44282959005E+01  0.63729674260E+01  0.00000000000E+00 0. -1.
         -3    1    3    3    0  502  0.38366374286E+03  0.19386027459E+03 -0.28289382434E+02  0.43078992886E+03  0.00000000000E+00 0.  1.
         13    1    5    5    0    0 -0.71803318794E+02 -0.33588980331E+03  0.28590188532E+02  0.34466661491E+03  0.00000000000E+00 0.  1.
        -13    1    5    5    0    0  0.40573970193E+00 -0.35403106630E+01  0.16224200300E+02  0.16610933137E+02  0.00000000000E+00 0. -1.
          1    1    6    6  503    0  0.59133737100E+01  0.11715866138E+00 -0.22591776699E+02  0.23353160155E+02  0.00000000000E+00 0. -1.
         -1    1    6    6    0  503 -0.31893511170E+03  0.14997308080E+03 -0.84053509895E+03  0.91143336729E+03  0.00000000000E+00 0.  1.
<mgrwt>
<rscale>  0 0.15099084E+04</rscale>
<asrwt>0</asrwt>
<pdfrwt beam="1">  1        2 0.19878900E+00 0.15099084E+04</pdfrwt>
<pdfrwt beam="2">  1       -1 0.67861295E-01 0.15099084E+04</pdfrwt>
<totfact> 0.40432233E+01</totfact>
</mgrwt>
</event>
<event>
12    7  0.1546317E-007  0.1930492E+04  0.7818608E-02  0.8639826E-01
          2   -1    0    0  501    0  0.00000000000E+00  0.00000000000E+00  0.65080343377E+03  0.65080343377E+03  0.00000000000E+00 0. -1.
         -1   -1    0    0    0  501 -0.00000000000E+00 -0.00000000000E+00 -0.14316141948E+04  0.14316141948E+04  0.00000000000E+00 0.  1.
         24    2    1    2    0    0  0.13355752174E+03  0.74357057183E+03 -0.32754799537E+03  0.82728131138E+03  0.79824006203E+02 0.  0.
        254    2    1    2    0    0 -0.13355752174E+03 -0.74357057183E+03 -0.45326276563E+03  0.12551363172E+04  0.89397160640E+03 0.  0.
         23    2    4    4    0    0 -0.17369632277E+03  0.12009564020E+03  0.69741159161E+02  0.24056123956E+03  0.91719710873E+02 0.  0.
         23    2    4    4    0    0  0.40138801022E+02 -0.86366621203E+03 -0.52300392479E+03  0.10145750776E+04  0.91099031748E+02 0.  0.
          2    1    3    3  502    0  0.13260914666E+03  0.73059277418E+03 -0.33221085337E+03  0.81345868891E+03  0.00000000000E+00 0. -1.
         -1    1    3    3    0  502  0.94837508610E+00  0.12977797652E+02  0.46628579949E+01  0.13822622468E+02  0.00000000000E+00 0.  1.
         13    1    5    5    0    0 -0.17072163066E+03  0.10894019787E+03  0.37035092438E+02  0.20587724488E+03  0.00000000000E+00 0.  1.
        -13    1    5    5    0    0 -0.29746921041E+01  0.11155442325E+02  0.32706066723E+02  0.34683994682E+02  0.00000000000E+00 0. -1.
          3    1    6    6  503    0 -0.81458784020E+01 -0.16000180615E+03 -0.13544658033E+03  0.20979206236E+03  0.00000000000E+00 0. -1.
         -3    1    6    6    0  503  0.48284679424E+02 -0.70366440588E+03 -0.38755734446E+03  0.80478301524E+03  0.00000000000E+00 0.  1.
<mgrwt>
<rscale>  0 0.19304916E+04</rscale>
<asrwt>0</asrwt>
<pdfrwt beam="1">  1        2 0.10012361E+00 0.19304916E+04</pdfrwt>
<pdfrwt beam="2">  1       -1 0.22024833E+00 0.19304916E+04</pdfrwt>
<totfact> 0.52497532E+00</totfact>
</mgrwt>
</event>
<event>
12    7  0.1546317E-007  0.1540061E+04  0.7818608E-02  0.8858241E-01
          2   -1    0    0  501    0  0.00000000000E+00  0.00000000000E+00  0.23676998957E+04  0.23676998957E+04  0.00000000000E+00 0. -1.
         -1   -1    0    0    0  501 -0.00000000000E+00 -0.00000000000E+00 -0.25043158008E+03  0.25043158008E+03  0.00000000000E+00 0.  1.
         24    2    1    2    0    0  0.10970516924E+03  0.29816059580E+03  0.13812784867E+04  0.14196000414E+04  0.79994091728E+02 0.  0.
        254    2    1    2    0    0 -0.10970516924E+03 -0.29816059580E+03  0.73598982891E+03  0.11985314344E+04  0.89098911657E+03 0.  0.
         23    2    4    4    0    0 -0.45208089718E+03 -0.31600627754E+03  0.60009838298E+03  0.82081583085E+03  0.96868229460E+02 0.  0.
         23    2    4    4    0    0  0.34237572794E+03  0.17845681747E+02  0.13589144593E+03  0.37771560351E+03  0.81627107120E+02 0.  0.
          4    1    3    3  502    0  0.10413957206E+03  0.29305783518E+03  0.13751321293E+04  0.14098639361E+04  0.00000000000E+00 0. -1.
         -3    1    3    3    0  502  0.55655971721E+01  0.51027606191E+01  0.61463574160E+01  0.97361053458E+01  0.00000000000E+00 0.  1.
         13    1    5    5    0    0 -0.14670103404E+03 -0.69314258350E+02  0.12696322392E+03  0.20602262018E+03  0.00000000000E+00 0. -1.
        -13    1    5    5    0    0 -0.30537986314E+03 -0.24669201919E+03  0.47313515906E+03  0.61479321067E+03  0.00000000000E+00 0.  1.
          4    1    6    6  503    0  0.37686496300E+02  0.24959955867E+02  0.33283417441E+02  0.56134278982E+02  0.00000000000E+00 0. -1.
         -4    1    6    6    0  503  0.30468923164E+03 -0.71142741196E+01  0.10260802849E+03  0.32158132453E+03  0.00000000000E+00 0.  1.
<mgrwt>
<rscale>  0 0.15400608E+04</rscale>
<asrwt>0</asrwt>
<pdfrwt beam="1">  1        2 0.36426151E+00 0.15400608E+04</pdfrwt>
<pdfrwt beam="2">  1       -1 0.38527937E-01 0.15400608E+04</pdfrwt>
<totfact> 0.29737606E+01</totfact>
</mgrwt>
</event>
<event>
12    7  0.1546317E-007  0.1384990E+04  0.7818608E-02  0.8964756E-01
          2   -1    0    0  501    0  0.00000000000E+00  0.00000000000E+00  0.19423551583E+04  0.19423551583E+04  0.00000000000E+00 0. -1.
         -1   -1    0    0    0  501 -0.00000000000E+00 -0.00000000000E+00 -0.24689070463E+03  0.24689070463E+03  0.00000000000E+00 0.  1.
         24    2    1    2    0    0  0.19619904085E+03 -0.29787217628E+03  0.74276191095E+03  0.82784080703E+03  0.80020299963E+02 0.  0.
        254    2    1    2    0    0 -0.19619904085E+03  0.29787217628E+03  0.95270254272E+03  0.13614050559E+04  0.90474288847E+03 0.  0.
         23    2    4    4    0    0 -0.31353468810E+03 -0.69856070644E+02  0.90099473536E+03  0.96086167753E+03  0.90993290726E+02 0.  0.
         23    2    4    4    0    0  0.11733564725E+03  0.36772824693E+03  0.51707807360E+02  0.40054337835E+03  0.93646051135E+02 0.  0.
          4    1    3    3  502    0  0.97312257717E+02 -0.14677010616E+03  0.45753052627E+03  0.49025026469E+03  0.00000000000E+00 0. -1.
         -3    1    3    3    0  502  0.98886783130E+02 -0.15110207012E+03  0.28523138468E+03  0.33759054234E+03  0.00000000000E+00 0.  1.
         13    1    5    5    0    0 -0.63731877852E+02 -0.37125802530E+02  0.30526439067E+03  0.31404844479E+03  0.00000000000E+00 0.  1.
        -13    1    5    5    0    0 -0.24980281025E+03 -0.32730268114E+02  0.59573034469E+03  0.64681323274E+03  0.00000000000E+00 0. -1.
          1    1    6    6  503    0  0.77351915588E+02  0.28488648134E+03  0.37056661751E+00  0.29520122529E+03  0.00000000000E+00 0. -1.
         -1    1    6    6    0  503  0.39983731663E+02  0.82841765589E+02  0.51337240742E+02  0.10534215306E+03  0.00000000000E+00 0.  1.
<mgrwt>
<rscale>  0 0.13849902E+04</rscale>
<asrwt>0</asrwt>
<pdfrwt beam="1">  1        2 0.29882386E+00 0.13849902E+04</pdfrwt>
<pdfrwt beam="2">  1       -1 0.37983187E-01 0.13849902E+04</pdfrwt>
<totfact> 0.53468013E+01</totfact>
</mgrwt>
</event>
<event>
12    7  0.1546317E-007  0.1543488E+04  0.7818608E-02  0.8856038E-01
         -1   -1    0    0    0  501 -0.00000000000E+00  0.00000000000E+00  0.65993897848E+03  0.65993897848E+03  0.00000000000E+00 0.  1.
          2   -1    0    0  501    0  0.00000000000E+00 -0.00000000000E+00 -0.90249054535E+03  0.90249054535E+03  0.00000000000E+00 0. -1.
         24    2    1    2    0    0  0.45681874751E+03  0.23785580697E+03  0.50505453340E+01  0.52123597417E+03  0.80016746828E+02 0.  0.
        254    2    1    2    0    0 -0.45681874751E+03 -0.23785580697E+03 -0.24760211221E+03  0.10411935497E+04  0.87035535783E+03 0.  0.
         23    2    4    4    0    0 -0.53254307006E+02 -0.18321057278E+03  0.29100675965E+03  0.36000657481E+03  0.92291194339E+02 0.  0.
         23    2    4    4    0    0 -0.40356444051E+03 -0.54645234185E+02 -0.53860887186E+03  0.68118697485E+03  0.89809902532E+02 0.  0.
          4    1    3    3  502    0  0.57356856416E+01  0.53760965618E+01  0.11257907417E+02  0.13731022665E+02  0.00000000000E+00 0. -1.
         -3    1    3    3    0  502  0.45108306187E+03  0.23247971041E+03 -0.62073620831E+01  0.50750495151E+03  0.00000000000E+00 0.  1.
         13    1    5    5    0    0 -0.71824199930E+02 -0.97853525953E+02  0.19929531554E+03  0.23335091822E+03  0.00000000000E+00 0.  1.
        -13    1    5    5    0    0  0.18569892925E+02 -0.85357046831E+02  0.91711444113E+02  0.12665565660E+03  0.00000000000E+00 0. -1.
          4    1    6    6  503    0 -0.67686566803E+02  0.19707007271E+02 -0.65491873096E+02  0.96223816713E+02  0.00000000000E+00 0. -1.
         -4    1    6    6    0  503 -0.33587787370E+03 -0.74352241457E+02 -0.47311699877E+03  0.58496315813E+03  0.00000000000E+00 0.  1.
<mgrwt>
<rscale>  0 0.15434879E+04</rscale>
<asrwt>0</asrwt>
<pdfrwt beam="1">  1        2 0.13884470E+00 0.15434879E+04</pdfrwt>
<pdfrwt beam="2">  1       -1 0.10152907E+00 0.15434879E+04</pdfrwt>
<totfact> 0.29556424E+01</totfact>
</mgrwt>
</event>
<event>
12    7  0.1546317E-007  0.2328130E+04  0.7818608E-02  0.8466912E-01
          2   -1    0    0  501    0  0.00000000000E+00  0.00000000000E+00  0.16693769742E+04  0.16693769742E+04  0.00000000000E+00 0. -1.
         -1   -1    0    0    0  501 -0.00000000000E+00 -0.00000000000E+00 -0.81170830943E+03  0.81170830943E+03  0.00000000000E+00 0.  1.
         24    2    1    2    0    0  0.34993598021E+03  0.45147197388E+02  0.13485469012E+04  0.13962235501E+04  0.79799733671E+02 0.  0.
        254    2    1    2    0    0 -0.34993598021E+03 -0.45147197388E+02 -0.49087823645E+03  0.10848617335E+04  0.90081633983E+03 0.  0.
         23    2    4    4    0    0  0.13663804158E+03 -0.12994554183E+03  0.15915102803E+03  0.26334081625E+03  0.91997486554E+02 0.  0.
         23    2    4    4    0    0 -0.48657402179E+03  0.84798344441E+02 -0.65002926448E+03  0.82152091725E+03  0.91725323077E+02 0.  0.
          2    1    3    3  502    0  0.31575732764E+03  0.51913173031E+02  0.12791876888E+04  0.13186048729E+04  0.00000000000E+00 0. -1.
         -1    1    3    3    0  502  0.34178652570E+02 -0.67659756433E+01  0.69359212368E+02  0.77618677251E+02  0.00000000000E+00 0.  1.
         13    1    5    5    0    0  0.14612328184E+03 -0.97204198752E+02  0.13759808604E+03  0.22301099307E+03  0.00000000000E+00 0.  1.
        -13    1    5    5    0    0 -0.94852402547E+01 -0.32741343077E+02  0.21552941992E+02  0.40329823179E+02  0.00000000000E+00 0. -1.
          1    1    6    6  503    0 -0.33190262409E+03  0.96678656517E+02 -0.41830012062E+03  0.54266113313E+03  0.00000000000E+00 0.  1.
         -1    1    6    6    0  503 -0.15467139770E+03 -0.11880312077E+02 -0.23172914386E+03  0.27885978411E+03  0.00000000000E+00 0. -1.
<mgrwt>
<rscale>  0 0.23281299E+04</rscale>
<asrwt>0</asrwt>
<pdfrwt beam="1">  1        2 0.25682723E+00 0.23281299E+04</pdfrwt>
<pdfrwt beam="2">  1       -1 0.12487820E+00 0.23281299E+04</pdfrwt>
<totfact> 0.58937588E+00</totfact>
</mgrwt>
</event>
<event>
12    7  0.1546317E-007  0.2349948E+04  0.7818608E-02  0.8458484E-01
          2   -1    0    0  501    0  0.00000000000E+00  0.00000000000E+00  0.12668289946E+04  0.12668289946E+04  0.00000000000E+00 0. -1.
         -1   -1    0    0    0  501 -0.00000000000E+00 -0.00000000000E+00 -0.10897788945E+04  0.10897788945E+04  0.00000000000E+00 0.  1.
         24    2    1    2    0    0  0.24888075382E+03 -0.21511937764E+03 -0.86919118754E+03  0.93278311153E+03  0.79831299617E+02 0.  0.
        254    2    1    2    0    0 -0.24888075382E+03  0.21511937764E+03  0.10462412877E+04  0.14238247775E+04  0.90798578665E+03 0.  0.
         23    2    4    4    0    0  0.24106589034E+03 -0.18504696825E+03  0.25770479915E+03  0.40866296483E+03  0.90766245776E+02 0.  0.
         23    2    4    4    0    0 -0.48994664417E+03  0.40016634589E+03  0.78853648851E+03  0.10151618127E+04  0.92643907887E+02 0.  0.
          4    1    3    3  502    0 -0.41990234551E+01  0.14783712416E+01 -0.22188149734E+02  0.22630319665E+02  0.00000000000E+00 0. -1.
         -3    1    3    3    0  502  0.25307977728E+03 -0.21659774888E+03 -0.84700303781E+03  0.91015279187E+03  0.00000000000E+00 0.  1.
         13    1    5    5    0    0  0.17125875617E+03 -0.12618489089E+03  0.12238960994E+03  0.24542087294E+03  0.00000000000E+00 0. -1.
        -13    1    5    5    0    0  0.69807134170E+02 -0.58862077367E+02  0.13531518922E+03  0.16324209189E+03  0.00000000000E+00 0.  1.
          4    1    6    6  503    0 -0.47970418998E+03  0.40366251970E+03  0.76375455179E+03  0.98811970685E+03  0.00000000000E+00 0.  1.
         -4    1    6    6    0  503 -0.10242454185E+02 -0.34961738081E+01  0.24781936723E+02  0.27042105812E+02  0.00000000000E+00 0. -1.
<mgrwt>
<rscale>  0 0.23499477E+04</rscale>
<asrwt>0</asrwt>
<pdfrwt beam="1">  1        2 0.19489677E+00 0.23499477E+04</pdfrwt>
<pdfrwt beam="2">  1       -1 0.16765829E+00 0.23499477E+04</pdfrwt>
<totfact> 0.45555802E+00</totfact>
</mgrwt>
</event>
<event>
12    7  0.1546317E-007  0.2467082E+04  0.7818608E-02  0.8414807E-01
         -1   -1    0    0    0  501 -0.00000000000E+00  0.00000000000E+00  0.68240194002E+03  0.68240194002E+03  0.00000000000E+00 0.  1.
          2   -1    0    0  501    0  0.00000000000E+00 -0.00000000000E+00 -0.22298060849E+04  0.22298060849E+04  0.00000000000E+00 0. -1.
         24    2    1    2    0    0  0.95256198712E+03  0.24492272008E-01 -0.13183227071E+04  0.16283572244E+04  0.78728331855E+02 0.  0.
        254    2    1    2    0    0 -0.95256198712E+03 -0.24492272008E-01 -0.22908143770E+03  0.12838508005E+04  0.82971093330E+03 0.  0.
         23    2    4    4    0    0 -0.61547267055E+01  0.31129291806E+01 -0.31551936238E+03  0.32867713524E+03  0.91807517151E+02 0.  0.
         23    2    4    4    0    0 -0.94640726042E+03 -0.31374214526E+01  0.86437924683E+02  0.95517366522E+03  0.95857550097E+02 0.  0.
          2    1    3    3  502    0  0.13278436103E+03  0.24276089796E+02 -0.20853746769E+03  0.24841274223E+03  0.00000000000E+00 0. -1.
         -1    1    3    3    0  502  0.81977762609E+03 -0.24251597524E+02 -0.11097852394E+04  0.13799444822E+04  0.00000000000E+00 0.  1.
         13    1    5    5    0    0 -0.39049464276E+02 -0.17382543684E+02 -0.24017377831E+03  0.24394765273E+03  0.00000000000E+00 0.  1.
        -13    1    5    5    0    0  0.32894737571E+02  0.20495472865E+02 -0.75345584074E+02  0.84729482515E+02  0.00000000000E+00 0. -1.
          2    1    6    6  503    0 -0.27035554109E+03 -0.20038195496E+02 -0.14173750912E+02  0.27146738864E+03  0.00000000000E+00 0. -1.
         -2    1    6    6    0  503 -0.67605171932E+03  0.16900774044E+02  0.10061167560E+03  0.68370627658E+03  0.00000000000E+00 0.  1.
<mgrwt>
<rscale>  0 0.24670825E+04</rscale>
<asrwt>0</asrwt>
<pdfrwt beam="1">  1        2 0.34304709E+00 0.24670825E+04</pdfrwt>
<pdfrwt beam="2">  1       -1 0.10498491E+00 0.24670825E+04</pdfrwt>
<totfact> 0.43037419E+00</totfact>
</mgrwt>
</event>
<event>
12    7  0.1546317E-007  0.1673303E+04  0.7818608E-02  0.8776739E-01
          2   -1    0    0  501    0  0.00000000000E+00  0.00000000000E+00  0.15839978766E+04  0.15839978766E+04  0.00000000000E+00 0. -1.
         -1   -1    0    0    0  501 -0.00000000000E+00 -0.00000000000E+00 -0.44191065085E+03  0.44191065085E+03  0.00000000000E+00 0.  1.
         24    2    1    2    0    0 -0.55902181698E+03 -0.88625521935E+02  0.44666585926E+03  0.72520264083E+03  0.77772780811E+02 0.  0.
        254    2    1    2    0    0  0.55902181698E+03  0.88625521935E+02  0.69542136651E+03  0.13007058866E+04  0.94226591339E+03 0.  0.
         23    2    4    4    0    0  0.14921997368E+02 -0.32205514804E+03  0.46706432605E+03  0.57485685791E+03  0.91482993168E+02 0.  0.
         23    2    4    4    0    0  0.54409981962E+03  0.41068066997E+03  0.22835704046E+03  0.72584902872E+03  0.10003323537E+03 0.  0.
          4    1    3    3  502    0 -0.45970955339E+03 -0.50808116009E+02  0.38869136778E+03  0.60414842342E+03  0.00000000000E+00 0. -1.
         -3    1    3    3    0  502 -0.99312263588E+02 -0.37817405926E+02  0.57974491482E+02  0.12105421741E+03  0.00000000000E+00 0.  1.
         13    1    5    5    0    0 -0.35837789735E+02 -0.19538613312E+03  0.28011411202E+03  0.34340064639E+03  0.00000000000E+00 0. -1.
        -13    1    5    5    0    0  0.50759787102E+02 -0.12666901492E+03  0.18695021403E+03  0.23145621153E+03  0.00000000000E+00 0.  1.
          2    1    6    6  503    0  0.57761049453E+02  0.22570589552E+02  0.46776164154E+02  0.77677409069E+02  0.00000000000E+00 0. -1.
         -2    1    6    6    0  503  0.48633877016E+03  0.38811008042E+03  0.18158087631E+03  0.64817161966E+03  0.00000000000E+00 0.  1.
<mgrwt>
<rscale>  0 0.16733028E+04</rscale>
<asrwt>0</asrwt>
<pdfrwt beam="1">  1        2 0.24369198E+00 0.16733028E+04</pdfrwt>
<pdfrwt beam="2">  1       -1 0.67986255E-01 0.16733028E+04</pdfrwt>
<totfact> 0.27091111E+01</totfact>
</mgrwt>
</event>
<event>
12    7  0.1546317E-007  0.1598601E+04  0.7818608E-02  0.8821408E-01
         -1   -1    0    0    0  501 -0.00000000000E+00  0.00000000000E+00  0.28308790559E+03  0.28308790559E+03  0.00000000000E+00 0.  1.
          2   -1    0    0  501    0  0.00000000000E+00 -0.00000000000E+00 -0.22568296958E+04  0.22568296958E+04  0.00000000000E+00 0. -1.
         24    2    1    2    0    0 -0.17960529065E+03 -0.47288506124E+03 -0.43582999441E+03  0.67256324556E+03  0.80716749682E+02 0.  0.
        254    2    1    2    0    0  0.17960529065E+03  0.47288506124E+03 -0.15379117958E+04  0.18673543558E+04  0.93057039335E+03 0.  0.
         23    2    4    4    0    0  0.18687604091E+03  0.19640836193E+03  0.16754730348E+02  0.28570600048E+03  0.88590622630E+02 0.  0.
         23    2    4    4    0    0 -0.72707502516E+01  0.27647669931E+03 -0.15546665261E+04  0.15816483553E+04  0.90173629101E+02 0.  0.
          2    1    3    3  502    0 -0.11279342567E+03 -0.27774671959E+03 -0.30853743293E+03  0.43018710422E+03  0.00000000000E+00 0. -1.
         -1    1    3    3    0  502 -0.66811864983E+02 -0.19513834165E+03 -0.12729256148E+03  0.24237614134E+03  0.00000000000E+00 0.  1.
         13    1    5    5    0    0  0.16421213727E+03  0.20114474512E+03  0.49345714981E+01  0.25970980827E+03  0.00000000000E+00 0. -1.
        -13    1    5    5    0    0  0.22663903637E+02 -0.47363831930E+01  0.11820158850E+02  0.25996192203E+02  0.00000000000E+00 0.  1.
          2    1    6    6  503    0  0.93371212226E+01  0.19072538010E+03 -0.82704860862E+03  0.84880666436E+03  0.00000000000E+00 0. -1.
         -2    1    6    6    0  503 -0.16607871474E+02  0.85751319215E+02 -0.72761791753E+03  0.73284169099E+03  0.00000000000E+00 0.  1.
<mgrwt>
<rscale>  0 0.15986009E+04</rscale>
<asrwt>0</asrwt>
<pdfrwt beam="1">  1        2 0.34720457E+00 0.15986009E+04</pdfrwt>
<pdfrwt beam="2">  1       -1 0.43551985E-01 0.15986009E+04</pdfrwt>
<totfact> 0.27296595E+01</totfact>
</mgrwt>
</event>
<event>
12    7  0.1546317E-007  0.1499260E+04  0.7818608E-02  0.8884945E-01
         -1   -1    0    0    0  501 -0.00000000000E+00  0.00000000000E+00  0.65134349129E+03  0.65134349129E+03  0.00000000000E+00 0.  1.
          2   -1    0    0  501    0  0.00000000000E+00 -0.00000000000E+00 -0.86274737605E+03  0.86274737605E+03  0.00000000000E+00 0. -1.
         24    2    1    2    0    0  0.57053304598E+02  0.12342026902E+03  0.38590731712E+03  0.41698925680E+03  0.80423507207E+02 0.  0.
        254    2    1    2    0    0 -0.57053304598E+02 -0.12342026902E+03 -0.59731120187E+03  0.10971016105E+04  0.91014483990E+03 0.  0.
         23    2    4    4    0    0 -0.45045714696E+03 -0.56943211515E+02 -0.48902634349E+03  0.67347023281E+03  0.90891249746E+02 0.  0.
         23    2    4    4    0    0  0.39340384236E+03 -0.66477057506E+02 -0.10828485839E+03  0.42363137773E+03  0.92477842117E+02 0.  0.
          4    1    3    3  502    0  0.35064338216E+02  0.10648816188E+03  0.20223423535E+03  0.23123131791E+03  0.00000000000E+00 0. -1.
         -3    1    3    3    0  502  0.21988966381E+02  0.16932107142E+02  0.18367308177E+03  0.18575793889E+03  0.00000000000E+00 0.  1.
         13    1    5    5    0    0 -0.52007014157E+02  0.57216897445E+01 -0.23052905468E+02  0.57174327330E+02  0.00000000000E+00 0. -1.
        -13    1    5    5    0    0 -0.39845013280E+03 -0.62664901259E+02 -0.46597343802E+03  0.61629590548E+03  0.00000000000E+00 0.  1.
          3    1    6    6  503    0  0.36283655628E+03 -0.63136713458E+02 -0.12463369346E+03  0.38880608110E+03  0.00000000000E+00 0. -1.
         -3    1    6    6    0  503  0.30567286082E+02 -0.33403440484E+01  0.16348835073E+02  0.34825296625E+02  0.00000000000E+00 0.  1.
<mgrwt>
<rscale>  0 0.14992597E+04</rscale>
<asrwt>0</asrwt>
<pdfrwt beam="1">  1        2 0.13273037E+00 0.14992597E+04</pdfrwt>
<pdfrwt beam="2">  1       -1 0.10020669E+00 0.14992597E+04</pdfrwt>
<totfact> 0.32545921E+01</totfact>
</mgrwt>
</event>
<event>
12    7  0.1546317E-007  0.2095432E+04  0.7818608E-02  0.8563258E-01
         -1   -1    0    0    0  501 -0.00000000000E+00  0.00000000000E+00  0.55473871413E+04  0.55473871413E+04  0.00000000000E+00 0.  1.
          2   -1    0    0  501    0  0.00000000000E+00 -0.00000000000E+00 -0.19787859555E+03  0.19787859555E+03  0.00000000000E+00 0. -1.
         24    2    1    2    0    0 -0.34051806705E+03 -0.33300503279E+03  0.24845218540E+03  0.54308543400E+03  0.79802220210E+02 0.  0.
        254    2    1    2    0    0  0.34051806705E+03  0.33300503279E+03  0.51010563603E+04  0.52021803028E+04  0.90280618399E+03 0.  0.
         23    2    4    4    0    0  0.82173706208E+02 -0.21436771138E+02  0.41383372174E+04  0.41402988943E+04  0.95015555259E+02 0.  0.
         23    2    4    4    0    0  0.25834436084E+03  0.35444180393E+03  0.96271914288E+03  0.10618814085E+04  0.91614281129E+02 0.  0.
          4    1    3    3  502    0 -0.25299509434E+03 -0.21408512858E+03  0.13949047328E+03  0.35957829770E+03  0.00000000000E+00 0. -1.
         -3    1    3    3    0  502 -0.87522972708E+02 -0.11891990421E+03  0.10896171211E+03  0.18350713630E+03  0.00000000000E+00 0.  1.
         13    1    5    5    0    0  0.97743620464E+02 -0.36694671363E+02  0.36161143478E+04  0.36176212199E+04  0.00000000000E+00 0. -1.
        -13    1    5    5    0    0 -0.15569914256E+02  0.15257900224E+02  0.52222286964E+03  0.52267767441E+03  0.00000000000E+00 0.  1.
          3    1    6    6  503    0  0.17551877115E+03  0.17361975869E+03  0.47927778486E+03  0.53912693746E+03  0.00000000000E+00 0. -1.
         -3    1    6    6    0  503  0.82825589687E+02  0.18082204524E+03  0.48344135803E+03  0.52275447105E+03  0.00000000000E+00 0.  1.
<mgrwt>
<rscale>  0 0.20954323E+04</rscale>
<asrwt>0</asrwt>
<pdfrwt beam="1">  1        2 0.30442865E-01 0.20954323E+04</pdfrwt>
<pdfrwt beam="2">  1       -1 0.85344406E+00 0.20954323E+04</pdfrwt>
<totfact> 0.52423208E-03</totfact>
</mgrwt>
</event>
<event>
12    7  0.1546317E-007  0.1606382E+04  0.7818608E-02  0.8816637E-01
         -1   -1    0    0    0  501 -0.00000000000E+00  0.00000000000E+00  0.31321595930E+03  0.31321595930E+03  0.00000000000E+00 0.  1.
          2   -1    0    0  501    0  0.00000000000E+00 -0.00000000000E+00 -0.20596515276E+04  0.20596515276E+04  0.00000000000E+00 0. -1.
         24    2    1    2    0    0 -0.42865689457E+03  0.10239759270E+03 -0.13216187534E+03  0.46727575278E+03  0.81534456447E+02 0.  0.
        254    2    1    2    0    0  0.42865689457E+03 -0.10239759270E+03 -0.16142736930E+04  0.19055917342E+04  0.91168432099E+03 0.  0.
         23    2    4    4    0    0  0.51784492924E+02 -0.40445407794E+03 -0.33673263806E+03  0.53660676862E+03  0.91067116615E+02 0.  0.
         23    2    4    4    0    0  0.37687240165E+03  0.30205648524E+03 -0.12775410549E+04  0.13689849655E+04  0.93475993836E+02 0.  0.
          2    1    3    3  502    0 -0.40694172543E+03  0.98905569528E+02 -0.14329357461E+03  0.44262504233E+03  0.00000000000E+00 0. -1.
         -1    1    3    3    0  502 -0.21715169145E+02  0.34920231742E+01  0.11131699270E+02  0.24650710446E+02  0.00000000000E+00 0.  1.
         13    1    5    5    0    0 -0.24747810671E+02 -0.15180511033E+03 -0.12536038682E+03  0.19842497887E+03  0.00000000000E+00 0. -1.
        -13    1    5    5    0    0  0.76532303595E+02 -0.25264896761E+03 -0.21137225125E+03  0.33818178976E+03  0.00000000000E+00 0.  1.
          3    1    6    6  503    0  0.31156080592E+03  0.24701893826E+03 -0.93644156914E+03  0.10173550531E+04  0.00000000000E+00 0. -1.
         -3    1    6    6    0  503  0.65311595726E+02  0.55037546978E+02 -0.34109948581E+03  0.35162991245E+03  0.00000000000E+00 0.  1.
<mgrwt>
<rscale>  0 0.16063819E+04</rscale>
<asrwt>0</asrwt>
<pdfrwt beam="1">  1        2 0.31686948E+00 0.16063819E+04</pdfrwt>
<pdfrwt beam="2">  1       -1 0.48187068E-01 0.16063819E+04</pdfrwt>
<totfact> 0.29100628E+01</totfact>
</mgrwt>
</event>
<event>
12    7  0.1546317E-007  0.3836121E+04  0.7818608E-02  0.8038448E-01
          2   -1    0    0  501    0  0.00000000000E+00  0.00000000000E+00  0.26393916886E+04  0.26393916886E+04  0.00000000000E+00 0. -1.
         -1   -1    0    0    0  501 -0.00000000000E+00 -0.00000000000E+00 -0.13938648742E+04  0.13938648742E+04  0.00000000000E+00 0.  1.
         24    2    1    2    0    0  0.16216490075E+04 -0.76681310640E+03  0.74098386593E+03  0.19424564244E+04  0.79574036832E+02 0.  0.
        254    2    1    2    0    0 -0.16216490075E+04  0.76681310640E+03  0.50454294842E+03  0.20908001384E+04  0.94822665442E+03 0.  0.
         23    2    4    4    0    0 -0.25136566179E+03  0.54604997781E+03  0.32163180425E+03  0.68787068819E+03  0.91453769653E+02 0.  0.
         23    2    4    4    0    0 -0.13702833458E+04  0.22076312859E+03  0.18291114417E+03  0.14029294502E+04  0.91333175908E+02 0.  0.
          2    1    3    3  502    0  0.11545198413E+04 -0.51512270368E+03  0.49659207294E+03  0.13582603398E+04  0.00000000000E+00 0. -1.
         -1    1    3    3    0  502  0.46712916628E+03 -0.25169040272E+03  0.24439179299E+03  0.58419608463E+03  0.00000000000E+00 0.  1.
         13    1    5    5    0    0 -0.15425804948E+03  0.37564321786E+03  0.17122452938E+03  0.44070535783E+03  0.00000000000E+00 0.  1.
        -13    1    5    5    0    0 -0.97107612309E+02  0.17040675995E+03  0.15040727487E+03  0.24716533037E+03  0.00000000000E+00 0. -1.
          4    1    6    6  503    0 -0.30103105257E+03  0.16378180242E+02  0.60154823915E+02  0.30741916375E+03  0.00000000000E+00 0. -1.
         -4    1    6    6    0  503 -0.10692522932E+04  0.20438494835E+03  0.12275632026E+03  0.10955102865E+04  0.00000000000E+00 0.  1.
<mgrwt>
<rscale>  0 0.38361206E+04</rscale>
<asrwt>0</asrwt>
<pdfrwt beam="1">  1        2 0.40606026E+00 0.38361206E+04</pdfrwt>
<pdfrwt beam="2">  1       -1 0.21444075E+00 0.38361206E+04</pdfrwt>
<totfact> 0.31428579E-01</totfact>
</mgrwt>
</event>
<event>
12    7  0.1546317E-007  0.1223218E+04  0.7818608E-02  0.9092773E-01
          2   -1    0    0  501    0  0.00000000000E+00  0.00000000000E+00  0.13386025042E+04  0.13386025042E+04  0.00000000000E+00 0. -1.
         -1   -1    0    0    0  501 -0.00000000000E+00 -0.00000000000E+00 -0.27944484222E+03  0.27944484222E+03  0.00000000000E+00 0.  1.
         24    2    1    2    0    0  0.63345754548E+02  0.26105594761E+03  0.27643758643E+03  0.39359179726E+03  0.79585622336E+02 0.  0.
        254    2    1    2    0    0 -0.63345754548E+02 -0.26105594761E+03  0.78272007554E+03  0.12244555491E+04  0.90248422855E+03 0.  0.
         23    2    4    4    0    0 -0.64047438870E+02 -0.24474336835E+03  0.97439276732E+03  0.10116959723E+04  0.10042950087E+03 0.  0.
         23    2    4    4    0    0  0.70168432141E+00 -0.16312579260E+02 -0.19167269178E+03  0.21275957682E+03  0.90893476960E+02 0.  0.
          4    1    3    3  502    0 -0.55777576927E+01  0.92774613355E+01 -0.29605516750E+01  0.11222634982E+02  0.00000000000E+00 0. -1.
         -3    1    3    3    0  502  0.68923512241E+02  0.25177848627E+03  0.27939813810E+03  0.38236916228E+03  0.00000000000E+00 0.  1.
         13    1    5    5    0    0 -0.36149553164E+02 -0.13210334910E+03  0.70799966493E+03  0.72112523918E+03  0.00000000000E+00 0.  1.
        -13    1    5    5    0    0 -0.27897885705E+02 -0.11264001925E+03  0.26639310239E+03  0.29057073315E+03  0.00000000000E+00 0. -1.
          3    1    6    6  503    0 -0.22413749112E+01  0.29693110798E+02 -0.14160104831E+03  0.14469817370E+03  0.00000000000E+00 0. -1.
         -3    1    6    6    0  503  0.29430592326E+01 -0.46005690058E+02 -0.50071643471E+02  0.68061403124E+02  0.00000000000E+00 0.  1.
<mgrwt>
<rscale>  0 0.12232180E+04</rscale>
<asrwt>0</asrwt>
<pdfrwt beam="1">  1        2 0.20593884E+00 0.12232180E+04</pdfrwt>
<pdfrwt beam="2">  1       -1 0.42991515E-01 0.12232180E+04</pdfrwt>
<totfact> 0.93951183E+01</totfact>
</mgrwt>
</event>
<event>
12    7  0.1546317E-007  0.1415331E+04  0.7818608E-02  0.8942796E-01
          2   -1    0    0  501    0  0.00000000000E+00  0.00000000000E+00  0.14250029467E+04  0.14250029467E+04  0.00000000000E+00 0. -1.
         -1   -1    0    0    0  501 -0.00000000000E+00 -0.00000000000E+00 -0.35143098113E+03  0.35143098113E+03  0.00000000000E+00 0.  1.
         24    2    1    2    0    0 -0.23156557143E+03  0.16635337211E+03 -0.55712832979E+02  0.30234141483E+03  0.83727851258E+02 0.  0.
        254    2    1    2    0    0  0.23156557143E+03 -0.16635337211E+03  0.11292847985E+04  0.14740925130E+04  0.90353114076E+03 0.  0.
         23    2    4    4    0    0  0.16367868912E+03  0.27445456562E+03  0.90999105256E+03  0.96879070680E+03  0.91409496143E+02 0.  0.
         23    2    4    4    0    0  0.67886882314E+02 -0.44080793773E+03  0.21929374597E+03  0.50530180617E+03  0.91213494287E+02 0.  0.
          4    1    3    3  502    0 -0.10749332735E+03  0.44720528464E+02  0.93756124011E+01  0.11680172601E+03  0.00000000000E+00 0. -1.
         -3    1    3    3    0  502 -0.12407224409E+03  0.12163284365E+03 -0.65088445380E+02  0.18553968882E+03  0.00000000000E+00 0.  1.
         13    1    5    5    0    0  0.12115218465E+03  0.11585784223E+03  0.48729594501E+03  0.51532342221E+03  0.00000000000E+00 0.  1.
        -13    1    5    5    0    0  0.42526504475E+02  0.15859672339E+03  0.42269510755E+03  0.45346728459E+03  0.00000000000E+00 0. -1.
          1    1    6    6  503    0  0.82658122614E+02 -0.27451261744E+03  0.15879831658E+03  0.32772922927E+03  0.00000000000E+00 0. -1.
         -1    1    6    6    0  503 -0.14771240300E+02 -0.16629532029E+03  0.60495429392E+02  0.17757257690E+03  0.00000000000E+00 0.  1.
<mgrwt>
<rscale>  0 0.14153306E+04</rscale>
<asrwt>0</asrwt>
<pdfrwt beam="1">  1        2 0.21923122E+00 0.14153306E+04</pdfrwt>
<pdfrwt beam="2">  1       -1 0.54066306E-01 0.14153306E+04</pdfrwt>
<totfact> 0.53578343E+01</totfact>
</mgrwt>
</event>
<event>
12    7  0.1546317E-007  0.2350994E+04  0.7818608E-02  0.8458082E-01
         -3   -1    0    0    0  501 -0.00000000000E+00  0.00000000000E+00  0.94019224156E+03  0.94019224156E+03  0.00000000000E+00 0.  1.
          4   -1    0    0  501    0  0.00000000000E+00 -0.00000000000E+00 -0.14696916531E+04  0.14696916531E+04  0.00000000000E+00 0. -1.
         24    2    1    2    0    0 -0.10124829439E+03 -0.66037131865E+03  0.52853096176E+03  0.85566828259E+03  0.80509233553E+02 0.  0.
        254    2    1    2    0    0  0.10124829439E+03  0.66037131865E+03 -0.10580303733E+04  0.15542156120E+04  0.92185487052E+03 0.  0.
         23    2    4    4    0    0  0.88007096406E+02  0.34199545607E+03 -0.11528680451E+04  0.12096629499E+04  0.97332327490E+02 0.  0.
         23    2    4    4    0    0  0.13241197986E+02  0.31837586258E+03  0.94837671811E+02  0.34455266215E+03  0.90464544448E+02 0.  0.
          2    1    3    3  502    0 -0.14091580030E+02 -0.21103066372E+02  0.77623666460E+01  0.26536133365E+02  0.00000000000E+00 0. -1.
         -1    1    3    3    0  502 -0.87156714362E+02 -0.63926825227E+03  0.52076859512E+03  0.82913214923E+03  0.00000000000E+00 0.  1.
         13    1    5    5    0    0  0.77417399346E+02  0.34552279090E+03 -0.10984085242E+04  0.11540713751E+04  0.00000000000E+00 0. -1.
        -13    1    5    5    0    0  0.10589697060E+02 -0.35273348311E+01 -0.54459520828E+02  0.55591574754E+02  0.00000000000E+00 0.  1.
          1    1    6    6  503    0  0.52047937669E+02  0.19656803401E+03  0.61455981038E+02  0.21242602810E+03  0.00000000000E+00 0. -1.
         -1    1    6    6    0  503 -0.38806739682E+02  0.12180782856E+03  0.33381690773E+02  0.13212663404E+03  0.00000000000E+00 0.  1.
<mgrwt>
<rscale>  0 0.23509936E+04</rscale>
<asrwt>0</asrwt>
<pdfrwt beam="1">  1        4 0.22610641E+00 0.23509936E+04</pdfrwt>
<pdfrwt beam="2">  1       -3 0.14464496E+00 0.23509936E+04</pdfrwt>
<totfact> 0.64992937E-02</totfact>
</mgrwt>
</event>
<event>
12    7  0.1546317E-007  0.2296615E+04  0.7818608E-02  0.8479257E-01
          2   -1    0    0  501    0  0.00000000000E+00  0.00000000000E+00  0.27021590274E+04  0.27021590274E+04  0.00000000000E+00 0. -1.
         -1   -1    0    0    0  501 -0.00000000000E+00 -0.00000000000E+00 -0.48798376482E+03  0.48798376482E+03  0.00000000000E+00 0.  1.
         24    2    1    2    0    0  0.52394355534E+03 -0.34891858168E+03 -0.91116937680E+02  0.64074349615E+03  0.77388020432E+02 0.  0.
        254    2    1    2    0    0 -0.52394355534E+03  0.34891858168E+03  0.23052922003E+04  0.25493992961E+04  0.88814616838E+03 0.  0.
         23    2    4    4    0    0 -0.70348186277E+03  0.20918631518E+03  0.21091724283E+04  0.22351149424E+04  0.92113125978E+02 0.  0.
         23    2    4    4    0    0  0.17953830744E+03  0.13973226650E+03  0.19611977205E+03  0.31428435370E+03  0.92480159236E+02 0.  0.
          4    1    3    3  502    0  0.14185083211E+03 -0.62693422083E+02 -0.42863034037E+02  0.16090171979E+03  0.00000000000E+00 0. -1.
         -3    1    3    3    0  502  0.38209272322E+03 -0.28622515960E+03 -0.48253903643E+02  0.47984177636E+03  0.00000000000E+00 0.  1.
         13    1    5    5    0    0 -0.36612911419E+03  0.12486938887E+03  0.97893323226E+03  0.10525935425E+04  0.00000000000E+00 0. -1.
        -13    1    5    5    0    0 -0.33735274858E+03  0.84316926317E+02  0.11302391960E+04  0.11825213999E+04  0.00000000000E+00 0.  1.
          2    1    6    6  503    0 -0.76889540888E+01  0.12497222914E+02  0.30344562896E+02  0.33705980076E+02  0.00000000000E+00 0. -1.
         -2    1    6    6    0  503  0.18722726153E+03  0.12723504358E+03  0.16577520916E+03  0.28057837362E+03  0.00000000000E+00 0.  1.
<mgrwt>
<rscale>  0 0.22966147E+04</rscale>
<asrwt>0</asrwt>
<pdfrwt beam="1">  1        2 0.41571676E+00 0.22966147E+04</pdfrwt>
<pdfrwt beam="2">  1       -1 0.75074427E-01 0.22966147E+04</pdfrwt>
<totfact> 0.48749643E+00</totfact>
</mgrwt>
</event>
<event>
12    7  0.1546317E-007  0.1677903E+04  0.7818608E-02  0.8774068E-01
          2   -1    0    0  501    0  0.00000000000E+00  0.00000000000E+00  0.19595556553E+04  0.19595556553E+04  0.00000000000E+00 0. -1.
         -1   -1    0    0    0  501 -0.00000000000E+00 -0.00000000000E+00 -0.35918320957E+03  0.35918320957E+03  0.00000000000E+00 0.  1.
         24    2    1    2    0    0 -0.74335271607E+02 -0.46829101371E+03  0.83698584774E+02  0.48814038533E+03  0.80332910892E+02 0.  0.
        254    2    1    2    0    0  0.74335271607E+02  0.46829101371E+03  0.15166738609E+04  0.18305984795E+04  0.90882835928E+03 0.  0.
         23    2    4    4    0    0  0.21493575308E+03  0.55370615886E+03  0.45962562615E+03  0.75659812956E+03  0.91635828828E+02 0.  0.
         23    2    4    4    0    0 -0.14060048147E+03 -0.85415145155E+02  0.10570482348E+04  0.10740003500E+04  0.95192114346E+02 0.  0.
          4    1    3    3  502    0 -0.78454709304E+02 -0.46484305344E+03  0.74190230485E+02  0.47721944223E+03  0.00000000000E+00 0. -1.
         -3    1    3    3    0  502  0.41194376976E+01 -0.34479602728E+01  0.95083542895E+01  0.10920943104E+02  0.00000000000E+00 0.  1.
         13    1    5    5    0    0  0.20507971631E+03  0.54894945086E+03  0.43551773438E+03  0.73012251479E+03  0.00000000000E+00 0. -1.
        -13    1    5    5    0    0  0.98560367649E+01  0.47567080002E+01  0.24107891773E+02  0.26475614770E+02  0.00000000000E+00 0.  1.
          4    1    6    6  503    0 -0.90550842414E+02 -0.92665241467E+02  0.58085521995E+03  0.59512947212E+03  0.00000000000E+00 0. -1.
         -4    1    6    6    0  503 -0.50049639055E+02  0.72500963122E+01  0.47619301484E+03  0.47887087785E+03  0.00000000000E+00 0.  1.
<mgrwt>
<rscale>  0 0.16779028E+04</rscale>
<asrwt>0</asrwt>
<pdfrwt beam="1">  1        2 0.30147009E+00 0.16779028E+04</pdfrwt>
<pdfrwt beam="2">  1       -1 0.55258956E-01 0.16779028E+04</pdfrwt>
<totfact> 0.25293569E+01</totfact>
</mgrwt>
</event>
<event>
12    7  0.1546317E-007  0.3262631E+04  0.7818608E-02  0.8172469E-01
         -1   -1    0    0    0  501 -0.00000000000E+00  0.00000000000E+00  0.16060051578E+04  0.16060051578E+04  0.00000000000E+00 0.  1.
          2   -1    0    0  501    0  0.00000000000E+00 -0.00000000000E+00 -0.16570251438E+04  0.16570251438E+04  0.00000000000E+00 0. -1.
         24    2    1    2    0    0  0.47297508512E+03  0.40806850371E+03  0.13538774573E+04  0.14932601387E+04  0.81340873227E+02 0.  0.
        254    2    1    2    0    0 -0.47297508512E+03 -0.40806850371E+03 -0.14048974432E+04  0.17697701629E+04  0.87642699004E+03 0.  0.
         23    2    4    4    0    0 -0.37708617062E+03  0.12047976303E+03 -0.21483554706E+03  0.46085766604E+03  0.97601858034E+02 0.  0.
         23    2    4    4    0    0 -0.95888914497E+02 -0.52854826674E+03 -0.11900618961E+04  0.13089124969E+04  0.91905678419E+02 0.  0.
          2    1    3    3  502    0  0.14343128737E+03  0.16816912904E+03  0.52281088875E+03  0.56761308614E+03  0.00000000000E+00 0. -1.
         -1    1    3    3    0  502  0.32954379775E+03  0.23989937467E+03  0.83106656850E+03  0.92564705254E+03  0.00000000000E+00 0.  1.
         13    1    5    5    0    0 -0.28914745469E+03  0.10434772603E+03 -0.11855998146E+03  0.32947104225E+03  0.00000000000E+00 0.  1.
        -13    1    5    5    0    0 -0.87938715937E+02  0.16132037005E+02 -0.96275565604E+02  0.13138662379E+03  0.00000000000E+00 0. -1.
          2    1    6    6  503    0 -0.15562042470E+02 -0.32107776092E+03 -0.66298319408E+03  0.73680378756E+03  0.00000000000E+00 0. -1.
         -2    1    6    6    0  503 -0.80326872027E+02 -0.20747050582E+03 -0.52707870202E+03  0.57210870931E+03  0.00000000000E+00 0.  1.
<mgrwt>
<rscale>  0 0.32626314E+04</rscale>
<asrwt>0</asrwt>
<pdfrwt beam="1">  1        2 0.25492695E+00 0.32626314E+04</pdfrwt>
<pdfrwt beam="2">  1       -1 0.24707772E+00 0.32626314E+04</pdfrwt>
<totfact> 0.71992662E-01</totfact>
</mgrwt>
</event>
<event>
12    7  0.1546317E-007  0.1497977E+04  0.7818608E-02  0.8885799E-01
          2   -1    0    0  501    0  0.00000000000E+00  0.00000000000E+00  0.17729820821E+04  0.17729820821E+04  0.00000000000E+00 0. -1.
         -1   -1    0    0    0  501 -0.00000000000E+00 -0.00000000000E+00 -0.31640690764E+03  0.31640690764E+03  0.00000000000E+00 0.  1.
         24    2    1    2    0    0  0.36440686661E+03 -0.13017601423E+03  0.81174205658E+02  0.40382593658E+03  0.82146066688E+02 0.  0.
        254    2    1    2    0    0 -0.36440686661E+03  0.13017601423E+03  0.13754009688E+04  0.16855630532E+04  0.89423532814E+03 0.  0.
         23    2    4    4    0    0 -0.22317414091E+03 -0.10080460513E+02  0.14360895045E+04  0.14564667012E+04  0.95046693027E+02 0.  0.
         23    2    4    4    0    0 -0.14123272570E+03  0.14025647474E+03 -0.60688535677E+02  0.22909635200E+03  0.95830468132E+02 0.  0.
          2    1    3    3  502    0  0.11063267632E+03 -0.40194766759E+02 -0.13347393705E+02  0.11846248885E+03  0.00000000000E+00 0. -1.
         -1    1    3    3    0  502  0.25377419029E+03 -0.89981247471E+02  0.94521599363E+02  0.28536344773E+03  0.00000000000E+00 0.  1.
         13    1    5    5    0    0  0.27608842702E+01  0.14582409877E+02  0.11746559928E+03  0.11839947709E+03  0.00000000000E+00 0. -1.
        -13    1    5    5    0    0 -0.22593502518E+03 -0.24662870390E+02  0.13186239052E+04  0.13380672241E+04  0.00000000000E+00 0.  1.
          3    1    6    6  503    0 -0.10599490659E+02 -0.14487233899E+02 -0.90619357246E+01  0.20108401910E+02  0.00000000000E+00 0. -1.
         -3    1    6    6    0  503 -0.13063323504E+03  0.15474370864E+03 -0.51626599952E+02  0.20898795010E+03  0.00000000000E+00 0.  1.
<mgrwt>
<rscale>  0 0.14979770E+04</rscale>
<asrwt>0</asrwt>
<pdfrwt beam="1">  1        2 0.27276647E+00 0.14979770E+04</pdfrwt>
<pdfrwt beam="2">  1       -1 0.48677987E-01 0.14979770E+04</pdfrwt>
<totfact> 0.41532012E+01</totfact>
</mgrwt>
</event>
<event>
12    7  0.1546317E-007  0.1473813E+04  0.7818608E-02  0.8902056E-01
          2   -1    0    0  501    0  0.00000000000E+00  0.00000000000E+00  0.85027515141E+03  0.85027515141E+03  0.00000000000E+00 0. -1.
         -1   -1    0    0    0  501 -0.00000000000E+00 -0.00000000000E+00 -0.63865313681E+03  0.63865313681E+03  0.00000000000E+00 0.  1.
         24    2    1    2    0    0 -0.24886620629E+03 -0.34442278812E+03  0.24858885243E+03  0.49867958278E+03  0.79520205735E+02 0.  0.
        254    2    1    2    0    0  0.24886620629E+03  0.34442278812E+03 -0.36966837841E+02  0.99024870544E+03  0.89368031527E+03 0.  0.
         23    2    4    4    0    0  0.46735581861E+03 -0.68904606807E+01 -0.22721944514E+03  0.52653899947E+03  0.84532254690E+02 0.  0.
         23    2    4    4    0    0 -0.21848961231E+03  0.35131324880E+03  0.19025260730E+03  0.46370970596E+03  0.87589539021E+02 0.  0.
          2    1    3    3  502    0 -0.19636601126E+03 -0.29983788582E+03  0.23467909476E+03  0.42841177116E+03  0.00000000000E+00 0. -1.
         -1    1    3    3    0  502 -0.52500195033E+02 -0.44584902299E+02  0.13909757669E+02  0.70267811620E+02  0.00000000000E+00 0.  1.
         13    1    5    5    0    0  0.30044154660E+03 -0.34358161520E+02 -0.11493438409E+03  0.32350505225E+03  0.00000000000E+00 0. -1.
        -13    1    5    5    0    0  0.16691427200E+03  0.27467700839E+02 -0.11228506105E+03  0.20303394722E+03  0.00000000000E+00 0.  1.
          2    1    6    6  503    0 -0.20954287652E+03  0.28110608596E+03  0.17246400213E+03  0.39073351621E+03  0.00000000000E+00 0. -1.
         -2    1    6    6    0  503 -0.89467357889E+01  0.70207162846E+02  0.17788605178E+02  0.72976189749E+02  0.00000000000E+00 0.  1.
<mgrwt>
<rscale>  0 0.14738126E+04</rscale>
<asrwt>0</asrwt>
<pdfrwt beam="1">  1        2 0.13081156E+00 0.14738126E+04</pdfrwt>
<pdfrwt beam="2">  1       -1 0.98254329E-01 0.14738126E+04</pdfrwt>
<totfact> 0.34796764E+01</totfact>
</mgrwt>
</event>
<event>
12    7  0.1546317E-007  0.1990531E+04  0.7818608E-02  0.8611061E-01
         -1   -1    0    0    0  501 -0.00000000000E+00  0.00000000000E+00  0.44151936913E+03  0.44151936913E+03  0.00000000000E+00 0.  1.
          2   -1    0    0  501    0  0.00000000000E+00 -0.00000000000E+00 -0.22435109225E+04  0.22435109225E+04  0.00000000000E+00 0. -1.
         24    2    1    2    0    0 -0.12189381998E+03 -0.33314117020E+03  0.23069210294E+03  0.43048899981E+03  0.79125153842E+02 0.  0.
        254    2    1    2    0    0  0.12189381998E+03  0.33314117020E+03 -0.20326836563E+04  0.22545412918E+04  0.90846708651E+03 0.  0.
         23    2    4    4    0    0 -0.23909289786E+03  0.10027672638E+02 -0.12705683932E+03  0.28614627892E+03  0.92034148533E+02 0.  0.
         23    2    4    4    0    0  0.36098671784E+03  0.32311349756E+03 -0.19056268170E+04  0.19683950129E+04  0.91932684189E+02 0.  0.
          4    1    3    3  502    0 -0.89965196660E+02 -0.16865293230E+03  0.15735341505E+03  0.24758361297E+03  0.00000000000E+00 0. -1.
         -1    1    3    3    0  502 -0.31928623324E+02 -0.16448823790E+03  0.73338687884E+02  0.18290538684E+03  0.00000000000E+00 0.  1.
         13    1    5    5    0    0 -0.75883561826E+02  0.45553377452E+02 -0.55238047527E+02  0.10432960772E+03  0.00000000000E+00 0. -1.
        -13    1    5    5    0    0 -0.16320933603E+03 -0.35525704814E+02 -0.71818791790E+02  0.18181667120E+03  0.00000000000E+00 0.  1.
          2    1    6    6  503    0  0.11070485831E+02 -0.32734219110E+00 -0.15004340389E+02  0.18649210170E+02  0.00000000000E+00 0. -1.
         -2    1    6    6    0  503  0.34991623201E+03  0.32344083975E+03 -0.18906224766E+04  0.19497458028E+04  0.00000000000E+00 0.  1.
<mgrwt>
<rscale>  0 0.19905311E+04</rscale>
<asrwt>0</asrwt>
<pdfrwt beam="1">  1        2 0.34515552E+00 0.19905311E+04</pdfrwt>
<pdfrwt beam="2">  1       -1 0.67926058E-01 0.19905311E+04</pdfrwt>
<totfact> 0.11336582E+01</totfact>
</mgrwt>
</event>
<event>
12    7  0.1546317E-007  0.2241862E+04  0.7818608E-02  0.8501203E-01
          2   -1    0    0  501    0  0.00000000000E+00  0.00000000000E+00  0.36458674039E+04  0.36458674039E+04  0.00000000000E+00 0. -1.
         -1   -1    0    0    0  501 -0.00000000000E+00 -0.00000000000E+00 -0.34463310253E+03  0.34463310253E+03  0.00000000000E+00 0.  1.
         24    2    1    2    0    0  0.92264394769E+03 -0.16144241765E+03  0.13351685006E+04  0.16329362441E+04  0.80438448014E+02 0.  0.
        254    2    1    2    0    0 -0.92264394769E+03  0.16144241765E+03  0.19660658007E+04  0.23575642623E+04  0.90297231935E+03 0.  0.
         23    2    4    4    0    0 -0.10050776530E+04  0.29862621722E+02  0.19238316783E+04  0.21727009425E+04  0.91805196668E+02 0.  0.
         23    2    4    4    0    0  0.82433705273E+02  0.13157979593E+03  0.42234122401E+02  0.18486331982E+03  0.91006414379E+02 0.  0.
          2    1    3    3  502    0  0.32780865787E+03 -0.46917970123E+02  0.40886543323E+03  0.52614708456E+03  0.00000000000E+00 0. -1.
         -1    1    3    3    0  502  0.59483528982E+03 -0.11452444753E+03  0.92630306739E+03  0.11067891596E+04  0.00000000000E+00 0.  1.
         13    1    5    5    0    0 -0.11378953774E+03  0.30087658665E+01  0.28690739089E+03  0.30866318620E+03  0.00000000000E+00 0. -1.
        -13    1    5    5    0    0 -0.89128811523E+03  0.26853855856E+02  0.16369242874E+04  0.18640377563E+04  0.00000000000E+00 0.  1.
          2    1    6    6  503    0  0.67638472994E+01 -0.13402305902E+02 -0.27184200982E+01  0.15256514727E+02  0.00000000000E+00 0. -1.
         -2    1    6    6    0  503  0.75669857974E+02  0.14498210183E+03  0.44952542499E+02  0.16960680509E+03  0.00000000000E+00 0.  1.
<mgrwt>
<rscale>  0 0.22418623E+04</rscale>
<asrwt>0</asrwt>
<pdfrwt beam="1">  1        2 0.56090265E+00 0.22418623E+04</pdfrwt>
<pdfrwt beam="2">  1       -1 0.53020480E-01 0.22418623E+04</pdfrwt>
<totfact> 0.23871977E+00</totfact>
</mgrwt>
</event>
<event>
12    7  0.1546317E-007  0.1081832E+04  0.7818608E-02  0.9223083E-01
          2   -1    0    0  501    0  0.00000000000E+00  0.00000000000E+00  0.10856939939E+04  0.10856939939E+04  0.00000000000E+00 0. -1.
         -1   -1    0    0    0  501 -0.00000000000E+00 -0.00000000000E+00 -0.26949585619E+03  0.26949585619E+03  0.00000000000E+00 0.  1.
         24    2    1    2    0    0 -0.14228071830E+03 -0.15100511884E+02  0.76792875879E+02  0.18154310750E+03  0.81172198667E+02 0.  0.
        254    2    1    2    0    0  0.14228071830E+03  0.15100511884E+02  0.73940526183E+03  0.11736467426E+04  0.90014149272E+03 0.  0.
         23    2    4    4    0    0  0.21327587942E+03 -0.34509021304E+03  0.67020207615E+03  0.78874347320E+03  0.91496381106E+02 0.  0.
         23    2    4    4    0    0 -0.70995161113E+02  0.36019072492E+03  0.69203185672E+02  0.38490326939E+03  0.92648662471E+02 0.  0.
          4    1    3    3  502    0 -0.11571457964E+03 -0.44592918962E+02  0.65651642942E+02  0.14031582443E+03  0.00000000000E+00 0. -1.
         -3    1    3    3    0  502 -0.26566138659E+02  0.29492407078E+02  0.11141232937E+02  0.41227283077E+02  0.00000000000E+00 0.  1.
         13    1    5    5    0    0  0.19531144774E+03 -0.24394278033E+03  0.52274394578E+03  0.60902863195E+03  0.00000000000E+00 0. -1.
        -13    1    5    5    0    0  0.17964431677E+02 -0.10114743271E+03  0.14745813038E+03  0.17971484124E+03  0.00000000000E+00 0.  1.
          2    1    6    6  503    0 -0.86509918381E+02  0.21879755477E+03  0.28805434368E+02  0.23703605001E+03  0.00000000000E+00 0. -1.
         -2    1    6    6    0  503  0.15514757267E+02  0.14139317015E+03  0.40397751304E+02  0.14786721939E+03  0.00000000000E+00 0.  1.
<mgrwt>
<rscale>  0 0.10818318E+04</rscale>
<asrwt>0</asrwt>
<pdfrwt beam="1">  1        2 0.16702984E+00 0.10818318E+04</pdfrwt>
<pdfrwt beam="2">  1       -1 0.41460902E-01 0.10818318E+04</pdfrwt>
<totfact> 0.14356610E+02</totfact>
</mgrwt>
</event>
<event>
12    7  0.1546317E-007  0.2418554E+04  0.7818608E-02  0.8432590E-01
         -1   -1    0    0    0  501 -0.00000000000E+00  0.00000000000E+00  0.17335027833E+04  0.17335027833E+04  0.00000000000E+00 0.  1.
          2   -1    0    0  501    0  0.00000000000E+00 -0.00000000000E+00 -0.84358125690E+03  0.84358125690E+03  0.00000000000E+00 0. -1.
         24    2    1    2    0    0  0.41693712218E+03  0.94597949542E+03  0.23433563029E+03  0.10629622420E+04  0.79131351160E+02 0.  0.
        254    2    1    2    0    0 -0.41693712218E+03 -0.94597949542E+03  0.65558589607E+03  0.15141217981E+04  0.89109942367E+03 0.  0.
         23    2    4    4    0    0 -0.11568440443E+03  0.85011148222E+02  0.35668251627E+03  0.39536762393E+03  0.92105178387E+02 0.  0.
         23    2    4    4    0    0 -0.30125271775E+03 -0.10309906436E+04  0.29890337980E+03  0.11187541742E+04  0.92589225259E+02 0.  0.
          2    1    3    3  502    0  0.14801462673E+03  0.37995633791E+03  0.57288303781E+02  0.41177311495E+03  0.00000000000E+00 0. -1.
         -1    1    3    3    0  502  0.26892249545E+03  0.56602315751E+03  0.17704732650E+03  0.65118912707E+03  0.00000000000E+00 0.  1.
         13    1    5    5    0    0 -0.57195586351E+02 -0.12277620302E+01  0.19326865933E+03  0.20155797473E+03  0.00000000000E+00 0. -1.
        -13    1    5    5    0    0 -0.58488818077E+02  0.86238910252E+02  0.16341385694E+03  0.19380964920E+03  0.00000000000E+00 0.  1.
          1    1    6    6  503    0 -0.19324093099E+03 -0.51351156294E+03  0.13087254083E+03  0.56406010728E+03  0.00000000000E+00 0. -1.
         -1    1    6    6    0  503 -0.10801178675E+03 -0.51747908071E+03  0.16803083897E+03  0.55469406693E+03  0.00000000000E+00 0.  1.
<mgrwt>
<rscale>  0 0.24185537E+04</rscale>
<asrwt>0</asrwt>
<pdfrwt beam="1">  1        2 0.12978173E+00 0.24185537E+04</pdfrwt>
<pdfrwt beam="2">  1       -1 0.26669273E+00 0.24185537E+04</pdfrwt>
<totfact> 0.17828158E+00</totfact>
</mgrwt>
</event>
<event>
12    7  0.1691726E-007  0.1685351E+04  0.7818608E-02  0.8769764E-01
         -1   -1    0    0    0  501 -0.00000000000E+00  0.00000000000E+00  0.37373469106E+03  0.37373469106E+03  0.00000000000E+00 0.  1.
          2   -1    0    0  501    0  0.00000000000E+00 -0.00000000000E+00 -0.19000161251E+04  0.19000161251E+04  0.00000000000E+00 0. -1.
         24    2    1    2    0    0  0.64235595910E+02 -0.52467023105E+03 -0.93494000228E+03  0.10770835535E+04  0.81185652426E+02 0.  0.
        254    2    1    2    0    0 -0.64235595910E+02  0.52467023105E+03 -0.59134143174E+03  0.11966672627E+04  0.89605958816E+03 0.  0.
         23    2    4    4    0    0 -0.86958750575E+02 -0.20533329980E+03  0.17348255118E+02  0.24148811545E+03  0.91060197886E+02 0.  0.
         23    2    4    4    0    0  0.22723154665E+02  0.73000353084E+03 -0.60868968685E+03  0.95517914722E+03  0.91883467516E+02 0.  0.
          4    1    3    3  502    0  0.45522082730E+02 -0.44628407918E+03 -0.72940372349E+03  0.85631275314E+03  0.00000000000E+00 0. -1.
         -3    1    3    3    0  502  0.18713513180E+02 -0.78386151870E+02 -0.20553627878E+03  0.22077080033E+03  0.00000000000E+00 0.  1.
         13    1    5    5    0    0 -0.10360306372E+02 -0.10300090014E+03 -0.25603207820E+02  0.10663979383E+03  0.00000000000E+00 0. -1.
        -13    1    5    5    0    0 -0.76598444203E+02 -0.10233239966E+03  0.42951462938E+02  0.13484832162E+03  0.00000000000E+00 0.  1.
          2    1    6    6  503    0  0.12684114196E+02  0.52601890185E+03 -0.38302234896E+03  0.65081709540E+03  0.00000000000E+00 0. -1.
         -2    1    6    6    0  503  0.10039040469E+02  0.20398462899E+03 -0.22566733790E+03  0.30436205183E+03  0.00000000000E+00 0.  1.
<mgrwt>
<rscale>  0 0.16853509E+04</rscale>
<asrwt>0</asrwt>
<pdfrwt beam="1">  1        2 0.29231017E+00 0.16853509E+04</pdfrwt>
<pdfrwt beam="2">  1       -1 0.57497644E-01 0.16853509E+04</pdfrwt>
<totfact> 0.25241720E+01</totfact>
</mgrwt>
</event>
<event>
12    7  0.1546317E-007  0.1862773E+04  0.7818608E-02  0.8673612E-01
         -1   -1    0    0    0  501 -0.00000000000E+00  0.00000000000E+00  0.36971273988E+03  0.36971273988E+03  0.00000000000E+00 0.  1.
          2   -1    0    0  501    0  0.00000000000E+00 -0.00000000000E+00 -0.23463632370E+04  0.23463632370E+04  0.00000000000E+00 0. -1.
         24    2    1    2    0    0  0.43336070538E+03  0.30797825544E+03 -0.14506573968E+04  0.15470411607E+04  0.79229812527E+02 0.  0.
        254    2    1    2    0    0 -0.43336070538E+03 -0.30797825544E+03 -0.52599310033E+03  0.11690348162E+04  0.89851074179E+03 0.  0.
         23    2    4    4    0    0 -0.40354933482E+03 -0.58469453011E+03 -0.50106472230E+03  0.87421702167E+03  0.92031439521E+02 0.  0.
         23    2    4    4    0    0 -0.29811370556E+02  0.27671627467E+03 -0.24928378029E+02  0.29481779453E+03  0.93997305592E+02 0.  0.
          4    1    3    3  502    0  0.22097730968E+03  0.12120313144E+03 -0.76070733142E+03  0.80137183289E+03  0.00000000000E+00 0. -1.
         -3    1    3    3    0  502  0.21238339570E+03  0.18677512400E+03 -0.68995006534E+03  0.74566932777E+03  0.00000000000E+00 0.  1.
         13    1    5    5    0    0 -0.21819384591E+03 -0.36884174135E+03 -0.25955932336E+03  0.50102278082E+03  0.00000000000E+00 0. -1.
        -13    1    5    5    0    0 -0.18535548891E+03 -0.21585278876E+03 -0.24150539894E+03  0.37319424085E+03  0.00000000000E+00 0.  1.
          4    1    6    6  503    0  0.20943595933E+02  0.19202485199E+03 -0.75040514988E+00  0.19316506180E+03  0.00000000000E+00 0. -1.
         -4    1    6    6    0  503 -0.50754966488E+02  0.84691422679E+02 -0.24177972879E+02  0.10165273273E+03  0.00000000000E+00 0.  1.
<mgrwt>
<rscale>  0 0.18627725E+04</rscale>
<asrwt>0</asrwt>
<pdfrwt beam="1">  1        2 0.36097895E+00 0.18627725E+04</pdfrwt>
<pdfrwt beam="2">  1       -1 0.56878884E-01 0.18627725E+04</pdfrwt>
<totfact> 0.14285663E+01</totfact>
</mgrwt>
</event>
<event>
12    7  0.1546317E-007  0.2350717E+04  0.7818608E-02  0.8458188E-01
          2   -1    0    0  501    0  0.00000000000E+00  0.00000000000E+00  0.22990605491E+04  0.22990605491E+04  0.00000000000E+00 0. -1.
         -1   -1    0    0    0  501 -0.00000000000E+00 -0.00000000000E+00 -0.60088337121E+03  0.60088337121E+03  0.00000000000E+00 0.  1.
         24    2    1    2    0    0  0.15359254019E+02  0.80562181991E+03  0.10361185860E+02  0.80983644061E+03  0.80406983273E+02 0.  0.
        254    2    1    2    0    0 -0.15359254019E+02 -0.80562181991E+03  0.16878159921E+04  0.20901074797E+04  0.93304020833E+03 0.  0.
         23    2    4    4    0    0 -0.12565976881E+03 -0.96559960983E+03  0.11342956503E+04  0.14977829981E+04  0.92489475407E+02 0.  0.
         23    2    4    4    0    0  0.11030051479E+03  0.15997778992E+03  0.55352034172E+03  0.59232448161E+03  0.81880559288E+02 0.  0.
          2    1    3    3  502    0 -0.28225673122E+01  0.36662556062E+02  0.17285129273E+02  0.40631091509E+02  0.00000000000E+00 0. -1.
         -1    1    3    3    0  502  0.18181821331E+02  0.76895926385E+03 -0.69239434124E+01  0.76920534910E+03  0.00000000000E+00 0.  1.
         13    1    5    5    0    0 -0.13532459448E+03 -0.93723207816E+03  0.10852597681E+04  0.14403143679E+04  0.00000000000E+00 0. -1.
        -13    1    5    5    0    0  0.96648256688E+01 -0.28367531673E+02  0.49035882270E+02  0.57468630212E+02  0.00000000000E+00 0.  1.
          3    1    6    6  503    0  0.60422262709E+02  0.14751134594E+03  0.42370682768E+03  0.45270069895E+03  0.00000000000E+00 0. -1.
         -3    1    6    6    0  503  0.49878252078E+02  0.12466443977E+02  0.12981351404E+03  0.13962378266E+03  0.00000000000E+00 0.  1.
<mgrwt>
<rscale>  0 0.23507167E+04</rscale>
<asrwt>0</asrwt>
<pdfrwt beam="1">  1        2 0.35370162E+00 0.23507167E+04</pdfrwt>
<pdfrwt beam="2">  1       -1 0.92443597E-01 0.23507167E+04</pdfrwt>
<totfact> 0.53065778E+00</totfact>
</mgrwt>
</event>
<event>
12    7  0.1546317E-007  0.1631893E+04  0.7818608E-02  0.8801191E-01
         -1   -1    0    0    0  501 -0.00000000000E+00  0.00000000000E+00  0.44980221763E+03  0.44980221763E+03  0.00000000000E+00 0.  1.
          2   -1    0    0  501    0  0.00000000000E+00 -0.00000000000E+00 -0.14801359850E+04  0.14801359850E+04  0.00000000000E+00 0. -1.
         24    2    1    2    0    0  0.15169272513E+02 -0.53147301773E+03 -0.16892162191E+03  0.56666336194E+03  0.99394044163E+02 0.  0.
        254    2    1    2    0    0 -0.15169272513E+02  0.53147301773E+03 -0.86141214547E+03  0.13632748407E+04  0.91312306481E+03 0.  0.
         23    2    4    4    0    0 -0.13063627329E+02  0.57316808853E+03 -0.91700099466E+02  0.58743664491E+03  0.89334133875E+02 0.  0.
         23    2    4    4    0    0 -0.21056451844E+01 -0.41695070797E+02 -0.76971204600E+03  0.77583819578E+03  0.87894024815E+02 0.  0.
          4    1    3    3  502    0 -0.12559200762E+02 -0.13754640176E+03 -0.25377565325E+01  0.13814190663E+03  0.00000000000E+00 0. -1.
         -3    1    3    3    0  502  0.27728473275E+02 -0.39392661598E+03 -0.16638386538E+03  0.42852145531E+03  0.00000000000E+00 0.  1.
         13    1    5    5    0    0 -0.17312169275E+02  0.40472553327E+03 -0.10479954418E+03  0.41843208881E+03  0.00000000000E+00 0.  1.
        -13    1    5    5    0    0  0.42485419464E+01  0.16844255526E+03  0.13099444715E+02  0.16900455610E+03  0.00000000000E+00 0. -1.
          1    1    6    6  503    0 -0.44175225885E+02 -0.28360364948E+02 -0.46322568049E+03  0.46619072486E+03  0.00000000000E+00 0. -1.
         -1    1    6    6    0  503  0.42069580700E+02 -0.13334705850E+02 -0.30648636551E+03  0.30964747091E+03  0.00000000000E+00 0.  1.
<mgrwt>
<rscale>  0 0.16318927E+04</rscale>
<asrwt>0</asrwt>
<pdfrwt beam="1">  1        2 0.22771323E+00 0.16318927E+04</pdfrwt>
<pdfrwt beam="2">  1       -1 0.69200340E-01 0.16318927E+04</pdfrwt>
<totfact> 0.29997628E+01</totfact>
</mgrwt>
</event>
<event>
12    7  0.1546317E-007  0.1934897E+04  0.7818608E-02  0.8637678E-01
          2   -1    0    0  501    0  0.00000000000E+00  0.00000000000E+00  0.14528654079E+04  0.14528654079E+04  0.00000000000E+00 0. -1.
         -1   -1    0    0    0  501 -0.00000000000E+00 -0.00000000000E+00 -0.64421457060E+03  0.64421457060E+03  0.00000000000E+00 0.  1.
         24    2    1    2    0    0  0.50064832817E+03 -0.44117506318E+03  0.70454376627E+03  0.97416203074E+03  0.85589477483E+02 0.  0.
        254    2    1    2    0    0 -0.50064832817E+03  0.44117506318E+03  0.10410707105E+03  0.11229179478E+04  0.89711886078E+03 0.  0.
         23    2    4    4    0    0 -0.50845063432E+02 -0.23888528922E+03  0.15287542839E+03  0.30170792062E+03  0.89472738178E+02 0.  0.
         23    2    4    4    0    0 -0.44980326474E+03  0.68006035240E+03 -0.48768357341E+02  0.82121002718E+03  0.84867521344E+02 0.  0.
          4    1    3    3  502    0  0.49864341686E+03 -0.44476679550E+03  0.69682662966E+03  0.96541706601E+03  0.00000000000E+00 0. -1.
         -3    1    3    3    0  502  0.20049113145E+01  0.35917323157E+01  0.77171366166E+01  0.87449647207E+01  0.00000000000E+00 0.  1.
         13    1    5    5    0    0  0.13588333375E+02 -0.12424784464E+03  0.99608471150E+02  0.15982495808E+03  0.00000000000E+00 0.  1.
        -13    1    5    5    0    0 -0.64433396807E+02 -0.11463744458E+03  0.53266957240E+02  0.14188296253E+03  0.00000000000E+00 0. -1.
          4    1    6    6  503    0 -0.15685255609E+03  0.28759634372E+03  0.11386423387E+02  0.32778656457E+03  0.00000000000E+00 0. -1.
         -4    1    6    6    0  503 -0.29295070865E+03  0.39246400868E+03 -0.60154780728E+02  0.49342346261E+03  0.00000000000E+00 0.  1.
<mgrwt>
<rscale>  0 0.19348975E+04</rscale>
<asrwt>0</asrwt>
<pdfrwt beam="1">  1        2 0.22351775E+00 0.19348975E+04</pdfrwt>
<pdfrwt beam="2">  1       -1 0.99109934E-01 0.19348975E+04</pdfrwt>
<totfact> 0.13976390E+01</totfact>
</mgrwt>
</event>
<event>
12    7  0.1546317E-007  0.2057517E+04  0.7818608E-02  0.8580192E-01
         -1   -1    0    0    0  501 -0.00000000000E+00  0.00000000000E+00  0.15200060687E+04  0.15200060687E+04  0.00000000000E+00 0.  1.
          2   -1    0    0  501    0  0.00000000000E+00 -0.00000000000E+00 -0.69627612549E+03  0.69627612549E+03  0.00000000000E+00 0. -1.
         24    2    1    2    0    0  0.21744330808E+03  0.66990335069E+02 -0.53321639545E+03  0.58557261685E+03  0.82500109143E+02 0.  0.
        254    2    1    2    0    0 -0.21744330808E+03 -0.66990335069E+02  0.13569463387E+04  0.16307095774E+04  0.87529484313E+03 0.  0.
         23    2    4    4    0    0  0.80903787782E+02  0.21622601974E+03  0.11201193963E+04  0.11472646969E+04  0.90827905334E+02 0.  0.
         23    2    4    4    0    0 -0.29834709586E+03 -0.28321635481E+03  0.23682694242E+03  0.48344488045E+03  0.91703099966E+02 0.  0.
          4    1    3    3  502    0  0.20897846057E+03  0.50705327739E+02 -0.43040250849E+03  0.48113339788E+03  0.00000000000E+00 0. -1.
         -3    1    3    3    0  502  0.84648475095E+01  0.16285007330E+02 -0.10281388696E+03  0.10443921897E+03  0.00000000000E+00 0.  1.
         13    1    5    5    0    0  0.12374201712E+02  0.15067849292E+02  0.24935958550E+02  0.31653798810E+02  0.00000000000E+00 0. -1.
        -13    1    5    5    0    0  0.68529586070E+02  0.20115817045E+03  0.10951834377E+04  0.11156108981E+04  0.00000000000E+00 0.  1.
          3    1    6    6  503    0 -0.58743954859E+02 -0.65629476894E+02  0.10939774789E+02  0.88756741391E+02  0.00000000000E+00 0. -1.
         -3    1    6    6    0  503 -0.23960314100E+03 -0.21758687791E+03  0.22588716763E+03  0.39468813906E+03  0.00000000000E+00 0.  1.
<mgrwt>
<rscale>  0 0.20575169E+04</rscale>
<asrwt>0</asrwt>
<pdfrwt beam="1">  1        2 0.10711940E+00 0.20575169E+04</pdfrwt>
<pdfrwt beam="2">  1       -1 0.23384709E+00 0.20575169E+04</pdfrwt>
<totfact> 0.38756129E+00</totfact>
</mgrwt>
</event>
<event>
12    7  0.1546317E-007  0.1568677E+04  0.7818608E-02  0.8840026E-01
         -1   -1    0    0    0  501 -0.00000000000E+00  0.00000000000E+00  0.80231300876E+03  0.80231300876E+03  0.00000000000E+00 0.  1.
          2   -1    0    0  501    0  0.00000000000E+00 -0.00000000000E+00 -0.76676638850E+03  0.76676638850E+03  0.00000000000E+00 0. -1.
         24    2    1    2    0    0 -0.26550428114E+02  0.42171350299E+03 -0.29839327127E+03  0.52360027510E+03  0.81064788335E+02 0.  0.
        254    2    1    2    0    0  0.26550428114E+02 -0.42171350299E+03  0.33393989153E+03  0.10454791222E+04  0.89608232874E+03 0.  0.
         23    2    4    4    0    0 -0.56681525697E+02  0.12237904580E+03  0.44757689368E+03  0.47621894494E+03  0.90939438961E+02 0.  0.
         23    2    4    4    0    0  0.83231953811E+02 -0.54409254879E+03 -0.11363700215E+03  0.56926017723E+03  0.90440706197E+02 0.  0.
          4    1    3    3  502    0  0.18475470084E+02  0.28777316505E+03 -0.21292336703E+03  0.35845654931E+03  0.00000000000E+00 0. -1.
         -3    1    3    3    0  502 -0.45025898197E+02  0.13394033794E+03 -0.85469904240E+02  0.16514372578E+03  0.00000000000E+00 0.  1.
         13    1    5    5    0    0  0.44728636214E+01  0.94751508623E+02  0.28356230739E+03  0.29900741976E+03  0.00000000000E+00 0. -1.
        -13    1    5    5    0    0 -0.61154389319E+02  0.27627537175E+02  0.16401458628E+03  0.17721152518E+03  0.00000000000E+00 0.  1.
          4    1    6    6  503    0  0.57740278287E+02 -0.47654224150E+03 -0.12533061146E+03  0.49611914884E+03  0.00000000000E+00 0. -1.
         -4    1    6    6    0  503  0.25491675523E+02 -0.67550307283E+02  0.11693609311E+02  0.73141028389E+02  0.00000000000E+00 0.  1.
<mgrwt>
<rscale>  0 0.15686767E+04</rscale>
<asrwt>0</asrwt>
<pdfrwt beam="1">  1        2 0.11796406E+00 0.15686767E+04</pdfrwt>
<pdfrwt beam="2">  1       -1 0.12343277E+00 0.15686767E+04</pdfrwt>
<totfact> 0.23096877E+01</totfact>
</mgrwt>
</event>
<event>
12    7  0.1546317E-007  0.1783016E+04  0.7818608E-02  0.8715384E-01
          4   -1    0    0  501    0  0.00000000000E+00  0.00000000000E+00  0.57535217568E+03  0.57535217568E+03  0.00000000000E+00 0. -1.
         -3   -1    0    0    0  501 -0.00000000000E+00 -0.00000000000E+00 -0.13813906501E+04  0.13813906501E+04  0.00000000000E+00 0.  1.
         24    2    1    2    0    0  0.47729664161E+03  0.41006876895E+03 -0.92050589991E+02  0.64100956897E+03  0.80321087061E+02 0.  0.
        254    2    1    2    0    0 -0.47729664161E+03 -0.41006876895E+03 -0.71398788444E+03  0.13157332568E+04  0.90851902819E+03 0.  0.
         23    2    4    4    0    0  0.21905980692E+03  0.77325788381E+02 -0.18944685725E+03  0.31280120742E+03  0.89375651534E+02 0.  0.
         23    2    4    4    0    0 -0.69635644853E+03 -0.48739455733E+03 -0.52454102719E+03  0.10029320494E+04  0.90904612376E+02 0.  0.
          2    1    3    3  502    0  0.45584948615E+03  0.36630769509E+03 -0.76044124928E+02  0.58971415995E+03  0.00000000000E+00 0. -1.
         -1    1    3    3    0  502  0.21447155464E+02  0.43761073860E+02 -0.16006465063E+02  0.51295409022E+02  0.00000000000E+00 0.  1.
         13    1    5    5    0    0  0.13042360842E+03  0.67865736863E+02 -0.67577166505E+02  0.16181084421E+03  0.00000000000E+00 0.  1.
        -13    1    5    5    0    0  0.88636198505E+02  0.94600515176E+01 -0.12186969075E+03  0.15099036321E+03  0.00000000000E+00 0. -1.
          2    1    6    6  503    0 -0.43364750550E+03 -0.28665219769E+03 -0.27061094442E+03  0.58604600904E+03  0.00000000000E+00 0. -1.
         -2    1    6    6    0  503 -0.26270894303E+03 -0.20074235965E+03 -0.25393008277E+03  0.41688604035E+03  0.00000000000E+00 0.  1.
<mgrwt>
<rscale>  0 0.17830156E+04</rscale>
<asrwt>0</asrwt>
<pdfrwt beam="1">  1        4 0.88515721E-01 0.17830156E+04</pdfrwt>
<pdfrwt beam="2">  1       -3 0.21252163E+00 0.17830156E+04</pdfrwt>
<totfact> 0.29122891E-01</totfact>
</mgrwt>
</event>
<event>
12    7  0.1546317E-007  0.1370876E+04  0.7818608E-02  0.8975174E-01
          2   -1    0    0  501    0  0.00000000000E+00  0.00000000000E+00  0.30526464418E+04  0.30526464418E+04  0.00000000000E+00 0. -1.
         -1   -1    0    0    0  501 -0.00000000000E+00 -0.00000000000E+00 -0.15390756470E+03  0.15390756470E+03  0.00000000000E+00 0.  1.
         24    2    1    2    0    0 -0.15827023807E+03  0.12975179077E+03  0.78479098958E+02  0.23218383912E+03  0.76585708269E+02 0.  0.
        254    2    1    2    0    0  0.15827023807E+03 -0.12975179077E+03  0.28202597782E+04  0.29743701674E+04  0.92256581386E+03 0.  0.
         23    2    4    4    0    0 -0.17041411101E+03  0.20178140030E+03  0.20506187937E+04  0.20701523714E+04  0.10361805358E+03 0.  0.
         23    2    4    4    0    0  0.32868434909E+03 -0.33153319107E+03  0.76964098447E+03  0.90421779599E+03  0.85527302682E+02 0.  0.
          4    1    3    3  502    0 -0.12709044882E+02  0.27529879295E+02  0.40011100586E+02  0.50202611943E+02  0.00000000000E+00 0. -1.
         -1    1    3    3    0  502 -0.14556119319E+03  0.10222191147E+03  0.38467998372E+02  0.18198122718E+03  0.00000000000E+00 0.  1.
         13    1    5    5    0    0 -0.99133906685E+02  0.82583673034E+02  0.13320922421E+04  0.13383263189E+04  0.00000000000E+00 0.  1.
        -13    1    5    5    0    0 -0.71280204329E+02  0.11919772727E+03  0.71852655160E+03  0.73182605247E+03  0.00000000000E+00 0. -1.
          2    1    6    6  503    0  0.15937417089E+02 -0.19398058627E+01  0.55624638747E+02  0.57895289498E+02  0.00000000000E+00 0. -1.
         -2    1    6    6    0  503  0.31274693200E+03 -0.32959338520E+03  0.71401634572E+03  0.84632250649E+03  0.00000000000E+00 0.  1.
<mgrwt>
<rscale>  0 0.13708762E+04</rscale>
<asrwt>0</asrwt>
<pdfrwt beam="1">  1        2 0.46963787E+00 0.13708762E+04</pdfrwt>
<pdfrwt beam="2">  1       -1 0.23678089E-01 0.13708762E+04</pdfrwt>
<totfact> 0.27835139E+01</totfact>
</mgrwt>
</event>
<event>
12    7  0.1546317E-007  0.2126492E+04  0.7818608E-02  0.8549662E-01
         -1   -1    0    0    0  501 -0.00000000000E+00  0.00000000000E+00  0.29619956059E+04  0.29619956059E+04  0.00000000000E+00 0.  1.
          2   -1    0    0  501    0  0.00000000000E+00 -0.00000000000E+00 -0.38166560173E+03  0.38166560173E+03  0.00000000000E+00 0. -1.
         24    2    1    2    0    0 -0.14973458981E+03 -0.71869181074E+03  0.31636050887E+03  0.80339361803E+03  0.80118460513E+02 0.  0.
        254    2    1    2    0    0  0.14973458981E+03  0.71869181074E+03  0.22639694953E+04  0.25402675896E+04  0.88795449482E+03 0.  0.
         23    2    4    4    0    0  0.29970245124E+03  0.78166546642E+03  0.12364109109E+04  0.14960108995E+04  0.92272477973E+02 0.  0.
         23    2    4    4    0    0 -0.14996786144E+03 -0.62973655683E+02  0.10275585844E+04  0.10442566901E+04  0.90218344155E+02 0.  0.
          4    1    3    3  502    0 -0.12386810090E+03 -0.59286967094E+03  0.22653869979E+03  0.64665101534E+03  0.00000000000E+00 0. -1.
         -3    1    3    3    0  502 -0.25866488910E+02 -0.12582213980E+03  0.89821809075E+02  0.15674260269E+03  0.00000000000E+00 0.  1.
         13    1    5    5    0    0  0.16680411503E+03  0.37061654688E+03  0.52858862544E+03  0.66677295428E+03  0.00000000000E+00 0.  1.
        -13    1    5    5    0    0  0.13289833622E+03  0.41104891954E+03  0.70782228545E+03  0.82923794523E+03  0.00000000000E+00 0. -1.
          2    1    6    6  503    0 -0.12882798690E+03 -0.83192997115E+02  0.92425733995E+03  0.93689346002E+03  0.00000000000E+00 0. -1.
         -2    1    6    6    0  503 -0.21139874539E+02  0.20219341432E+02  0.10330124449E+03  0.10736323010E+03  0.00000000000E+00 0.  1.
<mgrwt>
<rscale>  0 0.21264918E+04</rscale>
<asrwt>0</asrwt>
<pdfrwt beam="1">  1        2 0.58717787E-01 0.21264918E+04</pdfrwt>
<pdfrwt beam="2">  1       -1 0.45569162E+00 0.21264918E+04</pdfrwt>
<totfact> 0.26041197E-01</totfact>
</mgrwt>
</event>
<event>
12    7  0.1546317E-007  0.1747970E+04  0.7818608E-02  0.8734469E-01
          2   -1    0    0  501    0  0.00000000000E+00  0.00000000000E+00  0.21208441798E+04  0.21208441798E+04  0.00000000000E+00 0. -1.
         -1   -1    0    0    0  501 -0.00000000000E+00 -0.00000000000E+00 -0.36016295352E+03  0.36016295352E+03  0.00000000000E+00 0.  1.
         24    2    1    2    0    0  0.23680481779E+03 -0.21763520461E+03  0.14221619311E+04  0.14602564887E+04  0.79767477946E+02 0.  0.
        254    2    1    2    0    0 -0.23680481779E+03  0.21763520461E+03  0.33851929523E+03  0.10207506446E+04  0.90768659861E+03 0.  0.
         23    2    4    4    0    0 -0.18407616443E+03  0.25064264939E+03  0.63038435943E+03  0.70864443332E+03  0.89926193378E+02 0.  0.
         23    2    4    4    0    0 -0.52728653369E+02 -0.33007444789E+02 -0.29186506420E+03  0.31210621133E+03  0.91407161374E+02 0.  0.
          4    1    3    3  502    0  0.15198720501E+03 -0.11859661237E+03  0.10000941908E+04  0.10185056001E+04  0.00000000000E+00 0. -1.
         -3    1    3    3    0  502  0.84817612785E+02 -0.99038592234E+02  0.42206774026E+03  0.44175088858E+03  0.00000000000E+00 0.  1.
         13    1    5    5    0    0 -0.43655598040E+02  0.10939384533E+02  0.70746496583E+02  0.83848364044E+02  0.00000000000E+00 0.  1.
        -13    1    5    5    0    0 -0.14042056639E+03  0.23970326486E+03  0.55963786285E+03  0.62479606927E+03  0.00000000000E+00 0. -1.
          4    1    6    6  503    0 -0.15371793539E+02 -0.44379626378E+02 -0.56261373732E+02  0.73288371849E+02  0.00000000000E+00 0. -1.
         -4    1    6    6    0  503 -0.37356859830E+02  0.11372181589E+02 -0.23560369047E+03  0.23881783948E+03  0.00000000000E+00 0.  1.
<mgrwt>
<rscale>  0 0.17479697E+04</rscale>
<asrwt>0</asrwt>
<pdfrwt beam="1">  1        2 0.32628371E+00 0.17479697E+04</pdfrwt>
<pdfrwt beam="2">  1       -1 0.55409686E-01 0.17479697E+04</pdfrwt>
<totfact> 0.20341575E+01</totfact>
</mgrwt>
</event>
<event>
12    7  0.1546317E-007  0.1859723E+04  0.7818608E-02  0.8675169E-01
         -1   -1    0    0    0  501 -0.00000000000E+00  0.00000000000E+00  0.53701208433E+03  0.53701208433E+03  0.00000000000E+00 0.  1.
          2   -1    0    0  501    0  0.00000000000E+00 -0.00000000000E+00 -0.16100986958E+04  0.16100986958E+04  0.00000000000E+00 0. -1.
         24    2    1    2    0    0  0.59437484126E+03 -0.36951313347E+03 -0.47385383588E+03  0.84888780113E+03  0.79067271441E+02 0.  0.
        254    2    1    2    0    0 -0.59437484126E+03  0.36951313347E+03 -0.59923277559E+03  0.12982229790E+04  0.91459366722E+03 0.  0.
         23    2    4    4    0    0  0.27181953842E+02  0.50155158362E+03 -0.24735530875E+03  0.56699525957E+03  0.89476957715E+02 0.  0.
         23    2    4    4    0    0 -0.62155679510E+03 -0.13203845016E+03 -0.35187746684E+03  0.73122771942E+03  0.84316215046E+02 0.  0.
          2    1    3    3  502    0  0.41512917455E+03 -0.22156634711E+03 -0.29214843443E+03  0.55387235486E+03  0.00000000000E+00 0. -1.
         -1    1    3    3    0  502  0.17924566670E+03 -0.14794678635E+03 -0.18170540145E+03  0.29501544627E+03  0.00000000000E+00 0.  1.
         13    1    5    5    0    0 -0.18279084762E+02  0.76072896068E+02 -0.65570314138E+02  0.10208171507E+03  0.00000000000E+00 0. -1.
        -13    1    5    5    0    0  0.45461038603E+02  0.42547868756E+03 -0.18178499461E+03  0.46491354450E+03  0.00000000000E+00 0.  1.
          3    1    6    6  503    0 -0.49463587921E+03 -0.86807627062E+02 -0.24248828412E+03  0.55767444360E+03  0.00000000000E+00 0. -1.
         -3    1    6    6    0  503 -0.12692091589E+03 -0.45230823097E+02 -0.10938918272E+03  0.17355327581E+03  0.00000000000E+00 0.  1.
<mgrwt>
<rscale>  0 0.18597231E+04</rscale>
<asrwt>0</asrwt>
<pdfrwt beam="1">  1        2 0.24770749E+00 0.18597231E+04</pdfrwt>
<pdfrwt beam="2">  1       -1 0.82617244E-01 0.18597231E+04</pdfrwt>
<totfact> 0.17153697E+01</totfact>
</mgrwt>
</event>
<event>
12    7  0.1546317E-007  0.1629365E+04  0.7818608E-02  0.8802708E-01
          2   -1    0    0  501    0  0.00000000000E+00  0.00000000000E+00  0.12005832806E+04  0.12005832806E+04  0.00000000000E+00 0. -1.
         -1   -1    0    0    0  501 -0.00000000000E+00 -0.00000000000E+00 -0.55282096551E+03  0.55282096551E+03  0.00000000000E+00 0.  1.
         24    2    1    2    0    0  0.54956819582E+03 -0.57698198274E+02  0.33855223320E+03  0.65295366637E+03  0.79853565196E+02 0.  0.
        254    2    1    2    0    0 -0.54956819582E+03  0.57698198274E+02  0.30921008188E+03  0.11004505797E+04  0.90001462196E+03 0.  0.
         23    2    4    4    0    0 -0.26561612428E+02  0.30007374772E+03 -0.15865410969E+03  0.35253865132E+03  0.91447257076E+02 0.  0.
         23    2    4    4    0    0 -0.52300658340E+03 -0.24237554944E+03  0.46786419157E+03  0.74791192841E+03  0.90518272553E+02 0.  0.
          2    1    3    3  502    0  0.47681358460E+03 -0.22327805210E+02  0.28519232547E+03  0.55604351255E+03  0.00000000000E+00 0. -1.
         -1    1    3    3    0  502  0.72754611227E+02 -0.35370393064E+02  0.53359907728E+02  0.96910153818E+02  0.00000000000E+00 0.  1.
         13    1    5    5    0    0  0.21524267919E+02  0.70260115422E+02 -0.70238488708E+02  0.10165246295E+03  0.00000000000E+00 0. -1.
        -13    1    5    5    0    0 -0.48085880347E+02  0.22981363230E+03 -0.88415620980E+02  0.25088618836E+03  0.00000000000E+00 0.  1.
          1    1    6    6  503    0 -0.91513406988E+02 -0.67246543764E+01  0.78541627064E+02  0.12078373987E+03  0.00000000000E+00 0. -1.
         -1    1    6    6    0  503 -0.43149317641E+03 -0.23565089507E+03  0.38932256451E+03  0.62712818854E+03  0.00000000000E+00 0.  1.
<mgrwt>
<rscale>  0 0.16293650E+04</rscale>
<asrwt>0</asrwt>
<pdfrwt beam="1">  1        2 0.18470512E+00 0.16293650E+04</pdfrwt>
<pdfrwt beam="2">  1       -1 0.85049380E-01 0.16293650E+04</pdfrwt>
<totfact> 0.28236225E+01</totfact>
</mgrwt>
</event>
<event>
12    7  0.1546317E-007  0.1297923E+04  0.7818608E-02  0.9031214E-01
         -1   -1    0    0    0  501 -0.00000000000E+00  0.00000000000E+00  0.13822626223E+03  0.13822626223E+03  0.00000000000E+00 0.  1.
          2   -1    0    0  501    0  0.00000000000E+00 -0.00000000000E+00 -0.30468239625E+04  0.30468239625E+04  0.00000000000E+00 0. -1.
         24    2    1    2    0    0  0.30214262023E+03  0.23381716065E+02 -0.49682568572E+03  0.58887578505E+03  0.90011447189E+02 0.  0.
        254    2    1    2    0    0 -0.30214262023E+03 -0.23381716065E+02 -0.24117720145E+04  0.25961744397E+04  0.91194331154E+03 0.  0.
         23    2    4    4    0    0  0.17119781716E+03  0.23040848298E+03 -0.15362603318E+04  0.15652949537E+04  0.87496990880E+02 0.  0.
         23    2    4    4    0    0 -0.47334043738E+03 -0.25379019905E+03 -0.87551168272E+03  0.10308794859E+04  0.87927089989E+02 0.  0.
          2    1    3    3  502    0  0.16937827366E+03  0.44687335514E+02 -0.33862515940E+03  0.38125182770E+03  0.00000000000E+00 0. -1.
         -1    1    3    3    0  502  0.13276434657E+03 -0.21305619449E+02 -0.15820052631E+03  0.20762395735E+03  0.00000000000E+00 0.  1.
         13    1    5    5    0    0  0.14032701260E+03  0.16805371845E+03 -0.13223886406E+04  0.13403900326E+04  0.00000000000E+00 0. -1.
        -13    1    5    5    0    0  0.30870804560E+02  0.62354764536E+02 -0.21387169118E+03  0.22490492107E+03  0.00000000000E+00 0.  1.
          4    1    6    6  503    0 -0.31402365141E+03 -0.17355864687E+03 -0.50290495202E+03  0.61777572655E+03  0.00000000000E+00 0. -1.
         -4    1    6    6    0  503 -0.15931678597E+03 -0.80231552180E+02 -0.37260673070E+03  0.41310375939E+03  0.00000000000E+00 0.  1.
<mgrwt>
<rscale>  0 0.12979231E+04</rscale>
<asrwt>0</asrwt>
<pdfrwt beam="1">  1        2 0.46874215E+00 0.12979231E+04</pdfrwt>
<pdfrwt beam="2">  1       -1 0.21265579E-01 0.12979231E+04</pdfrwt>
<totfact> 0.33921409E+01</totfact>
</mgrwt>
</event>
<event>
12    7  0.1546317E-007  0.1773020E+04  0.7818608E-02  0.8720780E-01
          2   -1    0    0  501    0  0.00000000000E+00  0.00000000000E+00  0.12350185319E+04  0.12350185319E+04  0.00000000000E+00 0. -1.
         -1   -1    0    0    0  501 -0.00000000000E+00 -0.00000000000E+00 -0.63634650753E+03  0.63634650753E+03  0.00000000000E+00 0.  1.
         24    2    1    2    0    0  0.23171109458E+03  0.57836634359E+03  0.28354340711E+03  0.68896833352E+03  0.77992577375E+02 0.  0.
        254    2    1    2    0    0 -0.23171109458E+03 -0.57836634359E+03  0.31512861723E+03  0.11823967059E+04  0.95423176740E+03 0.  0.
         23    2    4    4    0    0  0.19932589728E+03 -0.15043718616E+03 -0.23789251026E+03  0.35653748415E+03  0.90354694749E+02 0.  0.
         23    2    4    4    0    0 -0.43103699186E+03 -0.42792915743E+03  0.55302112749E+03  0.82585922172E+03  0.85409803429E+02 0.  0.
          2    1    3    3  502    0  0.41863045811E+02  0.93924119205E+02  0.79893359059E+02  0.13021982796E+03  0.00000000000E+00 0. -1.
         -1    1    3    3    0  502  0.18984804877E+03  0.48444222439E+03  0.20365004805E+03  0.55874850555E+03  0.00000000000E+00 0.  1.
         13    1    5    5    0    0  0.19396862371E+03 -0.15732484895E+03 -0.24119933202E+03  0.34720606684E+03  0.00000000000E+00 0. -1.
        -13    1    5    5    0    0  0.53572735736E+01  0.68876627946E+01  0.33068217651E+01  0.93314173147E+01  0.00000000000E+00 0.  1.
          3    1    6    6  503    0 -0.40977593123E+03 -0.39895898363E+03  0.48910718646E+03  0.75253599534E+03  0.00000000000E+00 0. -1.
         -3    1    6    6    0  503 -0.21261060632E+02 -0.28970173799E+02  0.63913941032E+02  0.73323226384E+02  0.00000000000E+00 0.  1.
<mgrwt>
<rscale>  0 0.17730197E+04</rscale>
<asrwt>0</asrwt>
<pdfrwt beam="1">  1        2 0.19000285E+00 0.17730197E+04</pdfrwt>
<pdfrwt beam="2">  1       -1 0.97899463E-01 0.17730197E+04</pdfrwt>
<totfact> 0.19483089E+01</totfact>
</mgrwt>
</event>
<event>
12    7  0.1546317E-007  0.1178554E+04  0.7818608E-02  0.9131838E-01
          2   -1    0    0  501    0  0.00000000000E+00  0.00000000000E+00  0.21568463889E+04  0.21568463889E+04  0.00000000000E+00 0. -1.
         -1   -1    0    0    0  501 -0.00000000000E+00 -0.00000000000E+00 -0.16099770080E+03  0.16099770080E+03  0.00000000000E+00 0.  1.
         24    2    1    2    0    0  0.21601682481E+03  0.50330593198E+02  0.59788767194E+03  0.64272257867E+03  0.80163630549E+02 0.  0.
        254    2    1    2    0    0 -0.21601682481E+03 -0.50330593198E+02  0.13979610162E+04  0.16751215111E+04  0.89584632434E+03 0.  0.
         23    2    4    4    0    0 -0.29497929690E+03  0.62016133646E+01  0.14835336969E+04  0.15148326476E+04  0.82428604324E+02 0.  0.
         23    2    4    4    0    0  0.78962472084E+02 -0.56532206562E+02 -0.85572680717E+02  0.16028886345E+03  0.94545616954E+02 0.  0.
          4    1    3    3  502    0  0.17531894749E+03  0.57944417867E+01  0.43662110967E+03  0.47054043642E+03  0.00000000000E+00 0. -1.
         -3    1    3    3    0  502  0.40697877321E+02  0.44536151411E+02  0.16126656228E+03  0.17218214225E+03  0.00000000000E+00 0.  1.
         13    1    5    5    0    0 -0.32188090410E+02  0.27170579182E+02  0.23901478450E+03  0.24269812679E+03  0.00000000000E+00 0.  1.
        -13    1    5    5    0    0 -0.26279120649E+03 -0.20968965818E+02  0.12445189124E+04  0.12721345208E+04  0.00000000000E+00 0. -1.
          2    1    6    6  503    0  0.91225133816E+02 -0.62073897069E+02 -0.47908700106E+02  0.12029313066E+03  0.00000000000E+00 0. -1.
         -2    1    6    6    0  503 -0.12262661732E+02  0.55416905070E+01 -0.37663980611E+02  0.39995732796E+02  0.00000000000E+00 0.  1.
<mgrwt>
<rscale>  0 0.11785539E+04</rscale>
<asrwt>0</asrwt>
<pdfrwt beam="1">  1        2 0.33182250E+00 0.11785539E+04</pdfrwt>
<pdfrwt beam="2">  1       -1 0.24768879E-01 0.11785539E+04</pdfrwt>
<totfact> 0.87718637E+01</totfact>
</mgrwt>
</event>
<event>
12    7  0.1546317E-007  0.1927931E+04  0.7818608E-02  0.8641077E-01
         -1   -1    0    0    0  501 -0.00000000000E+00  0.00000000000E+00  0.25710602783E+03  0.25710602783E+03  0.00000000000E+00 0.  1.
          2   -1    0    0  501    0  0.00000000000E+00 -0.00000000000E+00 -0.36141865058E+04  0.36141865058E+04  0.00000000000E+00 0. -1.
         24    2    1    2    0    0  0.22614470454E+03 -0.57397780092E+03 -0.44341959356E+03  0.76414462058E+03  0.81878702188E+02 0.  0.
        254    2    1    2    0    0 -0.22614470454E+03  0.57397780092E+03 -0.29136608844E+04  0.31071479130E+04  0.88563901274E+03 0.  0.
         23    2    4    4    0    0 -0.48885670744E+03  0.45417840208E+03 -0.12870654347E+04  0.14526550978E+04  0.91708771267E+02 0.  0.
         23    2    4    4    0    0  0.26271200290E+03  0.11979939883E+03 -0.16265954497E+04  0.16544928152E+04  0.90356107509E+02 0.  0.
          2    1    3    3  502    0  0.45372536277E+02 -0.10878096943E+03 -0.12669922640E+03  0.17304525515E+03  0.00000000000E+00 0. -1.
         -1    1    3    3    0  502  0.18077216827E+03 -0.46519683148E+03 -0.31672036716E+03  0.59109936543E+03  0.00000000000E+00 0.  1.
         13    1    5    5    0    0 -0.35588013842E+03  0.38217651487E+03 -0.10091533251E+04  0.11362658118E+04  0.00000000000E+00 0.  1.
        -13    1    5    5    0    0 -0.13297656902E+03  0.72001887208E+02 -0.27791210957E+03  0.31638928603E+03  0.00000000000E+00 0. -1.
          3    1    6    6  503    0  0.68199310027E+02  0.57708664335E+02 -0.32825790103E+03  0.34019800913E+03  0.00000000000E+00 0. -1.
         -3    1    6    6    0  503  0.19451269287E+03  0.62090734499E+02 -0.12983375486E+04  0.13142948060E+04  0.00000000000E+00 0.  1.
<mgrwt>
<rscale>  0 0.19279306E+04</rscale>
<asrwt>0</asrwt>
<pdfrwt beam="1">  1        2 0.55602865E+00 0.19279306E+04</pdfrwt>
<pdfrwt beam="2">  1       -1 0.39554777E-01 0.19279306E+04</pdfrwt>
<totfact> 0.44933048E+00</totfact>
</mgrwt>
</event>
<event>
12    7  0.1546317E-007  0.1616682E+04  0.7818608E-02  0.8810365E-01
         -1   -1    0    0    0  501 -0.00000000000E+00  0.00000000000E+00  0.31341490316E+03  0.31341490316E+03  0.00000000000E+00 0.  1.
          2   -1    0    0  501    0  0.00000000000E+00 -0.00000000000E+00 -0.20848239823E+04  0.20848239823E+04  0.00000000000E+00 0. -1.
         24    2    1    2    0    0 -0.19225434151E+03 -0.32437119077E+03 -0.12138237557E+04  0.12734844478E+04  0.78842423414E+02 0.  0.
        254    2    1    2    0    0  0.19225434151E+03  0.32437119077E+03 -0.55758532350E+03  0.11247544377E+04  0.90110640377E+03 0.  0.
         23    2    4    4    0    0  0.34899867757E+03  0.40145390475E+02 -0.67682620758E+03  0.76775271504E+03  0.89099870204E+02 0.  0.
         23    2    4    4    0    0 -0.15674433606E+03  0.28422580029E+03  0.11924088408E+03  0.35700172265E+03  0.88762318050E+02 0.  0.
          2    1    3    3  502    0 -0.39193997424E+02 -0.11790893583E+03 -0.48536301652E+03  0.50101491433E+03  0.00000000000E+00 0. -1.
         -1    1    3    3    0  502 -0.15306034409E+03 -0.20646225494E+03 -0.72846073916E+03  0.77246953348E+03  0.00000000000E+00 0.  1.
         13    1    5    5    0    0  0.31196691350E+03  0.62090479899E+01 -0.57475561941E+03  0.65399230075E+03  0.00000000000E+00 0. -1.
        -13    1    5    5    0    0  0.37031764067E+02  0.33936342485E+02 -0.10207058817E+03  0.11376041430E+03  0.00000000000E+00 0.  1.
          2    1    6    6  503    0 -0.13765460482E+03  0.28450701165E+03  0.10451649778E+03  0.33289146612E+03  0.00000000000E+00 0. -1.
         -2    1    6    6    0  503 -0.19089731233E+02 -0.28121135864E+00  0.14724386295E+02  0.24110256534E+02  0.00000000000E+00 0.  1.
<mgrwt>
<rscale>  0 0.16166817E+04</rscale>
<asrwt>0</asrwt>
<pdfrwt beam="1">  1        2 0.32074217E+00 0.16166817E+04</pdfrwt>
<pdfrwt beam="2">  1       -1 0.48217675E-01 0.16166817E+04</pdfrwt>
<totfact> 0.28118442E+01</totfact>
</mgrwt>
</event>
<event>
12    7  0.1546317E-007  0.1448624E+04  0.7818608E-02  0.8919355E-01
         -1   -1    0    0    0  501 -0.00000000000E+00  0.00000000000E+00  0.25239164472E+03  0.25239164472E+03  0.00000000000E+00 0.  1.
          2   -1    0    0  501    0  0.00000000000E+00 -0.00000000000E+00 -0.20786256670E+04  0.20786256670E+04  0.00000000000E+00 0. -1.
         24    2    1    2    0    0  0.27650473164E+03 -0.35273530260E+02 -0.11180663533E+04  0.11546863828E+04  0.74358481162E+02 0.  0.
        254    2    1    2    0    0 -0.27650473164E+03  0.35273530260E+02 -0.70816766895E+03  0.11763309289E+04  0.89696929621E+03 0.  0.
         23    2    4    4    0    0  0.10573161616E+03  0.20650806849E+03  0.95414012459E+02  0.26587192435E+03  0.88086828626E+02 0.  0.
         23    2    4    4    0    0 -0.38223634780E+03 -0.17123453823E+03 -0.80358168141E+03  0.91045900453E+03  0.88125975548E+02 0.  0.
          4    1    3    3  502    0  0.26630450555E+03 -0.42752734370E+02 -0.99285046333E+03  0.10288332851E+04  0.00000000000E+00 0. -1.
         -3    1    3    3    0  502  0.10200226093E+02  0.74792041101E+01 -0.12521588997E+03  0.12585309773E+03  0.00000000000E+00 0.  1.
         13    1    5    5    0    0  0.10081888884E+03  0.21436265943E+03  0.97836104389E+02  0.25629612058E+03  0.00000000000E+00 0. -1.
        -13    1    5    5    0    0  0.49127273171E+01 -0.78545909369E+01 -0.24220919298E+01  0.95758037676E+01  0.00000000000E+00 0.  1.
          4    1    6    6  503    0 -0.19289811531E+03 -0.12426082086E+03 -0.49150108138E+03  0.54242395549E+03  0.00000000000E+00 0. -1.
         -4    1    6    6    0  503 -0.18933823249E+03 -0.46973717371E+02 -0.31208060003E+03  0.36803504904E+03  0.00000000000E+00 0.  1.
<mgrwt>
<rscale>  0 0.14486238E+04</rscale>
<asrwt>0</asrwt>
<pdfrwt beam="1">  1        2 0.31978856E+00 0.14486238E+04</pdfrwt>
<pdfrwt beam="2">  1       -1 0.38829485E-01 0.14486238E+04</pdfrwt>
<totfact> 0.42942136E+01</totfact>
</mgrwt>
</event>
<event>
12    7  0.1546317E-007  0.2584082E+04  0.7818608E-02  0.8373628E-01
         -1   -1    0    0    0  501 -0.00000000000E+00  0.00000000000E+00  0.44914252096E+03  0.44914252096E+03  0.00000000000E+00 0.  1.
          2   -1    0    0  501    0  0.00000000000E+00 -0.00000000000E+00 -0.37167934299E+04  0.37167934299E+04  0.00000000000E+00 0. -1.
         24    2    1    2    0    0 -0.13035086950E+03  0.10704652365E+04 -0.86202698310E+03  0.13821808279E+04  0.66679453411E+02 0.  0.
        254    2    1    2    0    0  0.13035086950E+03 -0.10704652365E+04 -0.24056239259E+04  0.27837551230E+04  0.89407994075E+03 0.  0.
         23    2    4    4    0    0  0.27455714823E+03 -0.27712054743E+02 -0.25216834117E+03  0.38507514294E+03  0.92435965948E+02 0.  0.
         23    2    4    4    0    0 -0.14420627873E+03 -0.10427531818E+04 -0.21534555847E+04  0.23986799801E+04  0.90360625341E+02 0.  0.
          2    1    3    3  502    0 -0.40510313003E+02  0.39911001770E+03 -0.28110162008E+03  0.48984488616E+03  0.00000000000E+00 0. -1.
         -1    1    3    3    0  502 -0.89840556496E+02  0.67135521884E+03 -0.58092536302E+03  0.89233594171E+03  0.00000000000E+00 0.  1.
         13    1    5    5    0    0  0.22206096945E+02  0.21547741771E+02 -0.46350083313E+02  0.55729221600E+02  0.00000000000E+00 0. -1.
        -13    1    5    5    0    0  0.25235105129E+03 -0.49259796514E+02 -0.20581825786E+03  0.32934592134E+03  0.00000000000E+00 0.  1.
          1    1    6    6  503    0 -0.86301513859E+02 -0.69076829359E+03 -0.13265323926E+04  0.14980977857E+04  0.00000000000E+00 0. -1.
         -1    1    6    6    0  503 -0.57904764872E+02 -0.35198488821E+03 -0.82692319204E+03  0.90058219440E+03  0.00000000000E+00 0.  1.
<mgrwt>
<rscale>  0 0.25840820E+04</rscale>
<asrwt>0</asrwt>
<pdfrwt beam="1">  1        2 0.57181438E+00 0.25840820E+04</pdfrwt>
<pdfrwt beam="2">  1       -1 0.69098848E-01 0.25840820E+04</pdfrwt>
<totfact> 0.12121668E+00</totfact>
</mgrwt>
</event>
<event>
12    7  0.1546317E-007  0.1385853E+04  0.7818608E-02  0.8964123E-01
          2   -1    0    0  501    0  0.00000000000E+00  0.00000000000E+00  0.41508435655E+03  0.41508435655E+03  0.00000000000E+00 0. -1.
         -1   -1    0    0    0  501 -0.00000000000E+00 -0.00000000000E+00 -0.11567455600E+04  0.11567455600E+04  0.00000000000E+00 0.  1.
         24    2    1    2    0    0 -0.24002242141E+03 -0.19449658273E+03  0.59585143431E+02  0.32572484719E+03  0.84300671920E+02 0.  0.
        254    2    1    2    0    0  0.24002242141E+03  0.19449658273E+03 -0.80124634686E+03  0.12461050694E+04  0.90296315098E+03 0.  0.
         23    2    4    4    0    0  0.14032770139E+03 -0.23854018366E+03 -0.73107780405E+03  0.78712972993E+03  0.92223495760E+02 0.  0.
         23    2    4    4    0    0  0.99694720021E+02  0.43303676639E+03 -0.70168542819E+02  0.45897533943E+03  0.90966255053E+02 0.  0.
          2    1    3    3  502    0 -0.11379942184E+03 -0.12151225387E+03  0.67644301394E+02  0.17969776782E+03  0.00000000000E+00 0. -1.
         -1    1    3    3    0  502 -0.12622299957E+03 -0.72984328860E+02 -0.80591579631E+01  0.14602707936E+03  0.00000000000E+00 0.  1.
         13    1    5    5    0    0  0.43237781548E+02 -0.75157624795E+02 -0.12634900769E+03  0.15323917927E+03  0.00000000000E+00 0. -1.
        -13    1    5    5    0    0  0.97089919838E+02 -0.16338255887E+03 -0.60472879635E+03  0.63389055066E+03  0.00000000000E+00 0.  1.
          4    1    6    6  503    0  0.36443952481E+02  0.14623155714E+03 -0.67838537030E+02  0.16526916556E+03  0.00000000000E+00 0. -1.
         -4    1    6    6    0  503  0.63250767541E+02  0.28680520924E+03 -0.23300057885E+01  0.29370617387E+03  0.00000000000E+00 0.  1.
<mgrwt>
<rscale>  0 0.13858528E+04</rscale>
<asrwt>0</asrwt>
<pdfrwt beam="1">  1        2 0.63859132E-01 0.13858528E+04</pdfrwt>
<pdfrwt beam="2">  1       -1 0.17796085E+00 0.13858528E+04</pdfrwt>
<totfact> 0.18297032E+01</totfact>
</mgrwt>
</event>
<event>
12    7  0.1546317E-007  0.1471900E+04  0.7818608E-02  0.8903357E-01
          2   -1    0    0  501    0  0.00000000000E+00  0.00000000000E+00  0.14097585319E+04  0.14097585319E+04  0.00000000000E+00 0. -1.
         -1   -1    0    0    0  501 -0.00000000000E+00 -0.00000000000E+00 -0.38419526620E+03  0.38419526620E+03  0.00000000000E+00 0.  1.
         24    2    1    2    0    0 -0.22987464493E+03 -0.36698833291E+03  0.46729794744E+03  0.64203265055E+03  0.79471779971E+02 0.  0.
        254    2    1    2    0    0  0.22987464493E+03  0.36698833291E+03  0.55826531828E+03  0.11519211476E+04  0.90980183323E+03 0.  0.
         23    2    4    4    0    0 -0.28788044569E+03  0.48082474144E+01  0.38655151159E+03  0.49064385287E+03  0.91711771292E+02 0.  0.
         23    2    4    4    0    0  0.51775509062E+03  0.36218008550E+03  0.17171380669E+03  0.66127729471E+03  0.92505572217E+02 0.  0.
          4    1    3    3  502    0 -0.91885407462E+02 -0.17823109014E+03  0.16385082215E+03  0.25895239237E+03  0.00000000000E+00 0. -1.
         -3    1    3    3    0  502 -0.13798923747E+03 -0.18875724278E+03  0.30344712528E+03  0.38308025817E+03  0.00000000000E+00 0.  1.
         13    1    5    5    0    0 -0.26986885860E+03  0.22196743718E+02  0.31801910187E+03  0.41768175137E+03  0.00000000000E+00 0. -1.
        -13    1    5    5    0    0 -0.18011587086E+02 -0.17388496303E+02  0.68532409716E+02  0.72962101495E+02  0.00000000000E+00 0.  1.
          2    1    6    6  503    0  0.52087982270E+03  0.36202696479E+03  0.16758590560E+03  0.65609781945E+03  0.00000000000E+00 0. -1.
         -2    1    6    6    0  503 -0.31247320778E+01  0.15312070911E+00  0.41279010959E+01  0.51794752599E+01  0.00000000000E+00 0.  1.
<mgrwt>
<rscale>  0 0.14719002E+04</rscale>
<asrwt>0</asrwt>
<pdfrwt beam="1">  1        2 0.21688593E+00 0.14719002E+04</pdfrwt>
<pdfrwt beam="2">  1       -1 0.59106965E-01 0.14719002E+04</pdfrwt>
<totfact> 0.45733557E+01</totfact>
</mgrwt>
</event>
<event>
12    7  0.1546317E-007  0.1196300E+04  0.7818608E-02  0.9116101E-01
         -1   -1    0    0    0  501 -0.00000000000E+00  0.00000000000E+00  0.16931635359E+03  0.16931635359E+03  0.00000000000E+00 0.  1.
          2   -1    0    0  501    0  0.00000000000E+00 -0.00000000000E+00 -0.21131070874E+04  0.21131070874E+04  0.00000000000E+00 0. -1.
         24    2    1    2    0    0 -0.86923036206E+01  0.28112557754E+02 -0.94357488315E+03  0.94746795065E+03  0.80598296143E+02 0.  0.
        254    2    1    2    0    0  0.86923036206E+01 -0.28112557754E+02 -0.10002158507E+04  0.13349554903E+04  0.88363371442E+03 0.  0.
         23    2    4    4    0    0  0.20461272509E+00 -0.21959973023E+03  0.66631327112E+02  0.24725405437E+03  0.92036678922E+02 0.  0.
         23    2    4    4    0    0  0.84876908955E+01  0.19148717248E+03 -0.10668471778E+04  0.10877014360E+04  0.90510413672E+02 0.  0.
          4    1    3    3  502    0 -0.39304991479E+01  0.52676167503E+02 -0.79897948870E+03  0.80072370442E+03  0.00000000000E+00 0. -1.
         -3    1    3    3    0  502 -0.47618044727E+01 -0.24563609749E+02 -0.14459539445E+03  0.14674424623E+03  0.00000000000E+00 0.  1.
         13    1    5    5    0    0  0.28111984544E+02 -0.16849861635E+03  0.18718811482E+02  0.17185011286E+03  0.00000000000E+00 0.  1.
        -13    1    5    5    0    0 -0.27907371819E+02 -0.51101113883E+02  0.47912515629E+02  0.75403941514E+02  0.00000000000E+00 0. -1.
          4    1    6    6  503    0  0.15769945329E+02 -0.40371996254E+01 -0.77037099022E+02  0.78738204083E+02  0.00000000000E+00 0. -1.
         -4    1    6    6    0  503 -0.72822544336E+01  0.19552437210E+03 -0.98981007875E+03  0.10089632319E+04  0.00000000000E+00 0.  1.
<mgrwt>
<rscale>  0 0.11963003E+04</rscale>
<asrwt>0</asrwt>
<pdfrwt beam="1">  1        2 0.32509340E+00 0.11963003E+04</pdfrwt>
<pdfrwt beam="2">  1       -1 0.26048670E-01 0.11963003E+04</pdfrwt>
<totfact> 0.84958539E+01</totfact>
</mgrwt>
</event>
<event>
12    7  0.1546317E-007  0.1199757E+04  0.7818608E-02  0.9113069E-01
          2   -1    0    0  501    0  0.00000000000E+00  0.00000000000E+00  0.30733879388E+04  0.30733879388E+04  0.00000000000E+00 0. -1.
         -1   -1    0    0    0  501 -0.00000000000E+00 -0.00000000000E+00 -0.11708711556E+03  0.11708711556E+03  0.00000000000E+00 0.  1.
         24    2    1    2    0    0 -0.25251749837E+03 -0.94618729171E+02  0.64137676900E+03  0.70015824802E+03  0.78355737292E+02 0.  0.
        254    2    1    2    0    0  0.25251749837E+03  0.94618729171E+02  0.23149240542E+04  0.24903168063E+04  0.87754579832E+03 0.  0.
         23    2    4    4    0    0  0.36976664676E+03 -0.30688928686E+03  0.12293226865E+04  0.13232308735E+04  0.93793760862E+02 0.  0.
         23    2    4    4    0    0 -0.11724914839E+03  0.40150801603E+03  0.10856013677E+04  0.11670859328E+04  0.92753411160E+02 0.  0.
          4    1    3    3  502    0 -0.21856364670E+03 -0.93375884789E+02  0.48465628128E+03  0.53979703084E+03  0.00000000000E+00 0. -1.
         -3    1    3    3    0  502 -0.33953851675E+02 -0.12428443827E+01  0.15672048771E+03  0.16036121718E+03  0.00000000000E+00 0.  1.
         13    1    5    5    0    0  0.49833458996E+02 -0.69227538813E+02  0.30372220991E+03  0.31547267165E+03  0.00000000000E+00 0. -1.
        -13    1    5    5    0    0  0.31993318776E+03 -0.23766174804E+03  0.92560047658E+03  0.10077582018E+04  0.00000000000E+00 0.  1.
          3    1    6    6  503    0 -0.29710007058E+02  0.41480620971E+02  0.75054205600E+02  0.90754945946E+02  0.00000000000E+00 0. -1.
         -3    1    6    6    0  503 -0.87539141332E+02  0.36002739506E+03  0.10105471621E+04  0.10763309869E+04  0.00000000000E+00 0.  1.
<mgrwt>
<rscale>  0 0.11997569E+04</rscale>
<asrwt>0</asrwt>
<pdfrwt beam="1">  1        2 0.47282885E+00 0.11997569E+04</pdfrwt>
<pdfrwt beam="2">  1       -1 0.18013405E-01 0.11997569E+04</pdfrwt>
<totfact> 0.43520474E+01</totfact>
</mgrwt>
</event>
<event>
12    7  0.1546317E-007  0.3333657E+04  0.7818608E-02  0.8154384E-01
         -1   -1    0    0    0  501 -0.00000000000E+00  0.00000000000E+00  0.10937460003E+04  0.10937460003E+04  0.00000000000E+00 0.  1.
          2   -1    0    0  501    0  0.00000000000E+00 -0.00000000000E+00 -0.25401849560E+04  0.25401849560E+04  0.00000000000E+00 0. -1.
         24    2    1    2    0    0 -0.24931972770E+03  0.26460811200E+03 -0.23061684631E+04  0.23359653998E+04  0.78381053165E+02 0.  0.
        254    2    1    2    0    0  0.24931972770E+03 -0.26460811200E+03  0.85972950746E+03  0.12979655565E+04  0.90188800872E+03 0.  0.
         23    2    4    4    0    0  0.45043647730E+02 -0.43982635965E+03  0.66548622522E+02  0.45547189548E+03  0.86889421483E+02 0.  0.
         23    2    4    4    0    0  0.20427607997E+03  0.17521824765E+03  0.79318088493E+03  0.84249366101E+03  0.90716599675E+02 0.  0.
          4    1    3    3  502    0 -0.24165620124E+03  0.26841590839E+03 -0.22801123516E+04  0.23085400485E+04  0.00000000000E+00 0. -1.
         -3    1    3    3    0  502 -0.76635264578E+01 -0.38077963917E+01 -0.26056111470E+02  0.27425351339E+02  0.00000000000E+00 0.  1.
         13    1    5    5    0    0  0.20733783565E+02 -0.32100808132E+03  0.10451043054E+02  0.32184670630E+03  0.00000000000E+00 0.  1.
        -13    1    5    5    0    0  0.24309864164E+02 -0.11881827833E+03  0.56097579468E+02  0.13362518918E+03  0.00000000000E+00 0. -1.
          3    1    6    6  503    0  0.24673899172E+02  0.68106228486E+02  0.15896559175E+03  0.17469206913E+03  0.00000000000E+00 0. -1.
         -3    1    6    6    0  503  0.17960218080E+03  0.10711201916E+03  0.63421529319E+03  0.66780159187E+03  0.00000000000E+00 0.  1.
<mgrwt>
<rscale>  0 0.33336569E+04</rscale>
<asrwt>0</asrwt>
<pdfrwt beam="1">  1        2 0.39079768E+00 0.33336569E+04</pdfrwt>
<pdfrwt beam="2">  1       -1 0.16826862E+00 0.33336569E+04</pdfrwt>
<totfact> 0.79103851E-01</totfact>
</mgrwt>
</event>
<event>
12    7  0.1546317E-007  0.2131930E+04  0.7818608E-02  0.8547307E-01
         -1   -1    0    0    0  501 -0.00000000000E+00  0.00000000000E+00  0.37201415880E+03  0.37201415880E+03  0.00000000000E+00 0.  1.
          2   -1    0    0  501    0  0.00000000000E+00 -0.00000000000E+00 -0.30544042271E+04  0.30544042271E+04  0.00000000000E+00 0. -1.
         24    2    1    2    0    0  0.65438984387E+03 -0.13155514454E+03 -0.20112533266E+04  0.21211797378E+04  0.93438281510E+02 0.  0.
        254    2    1    2    0    0 -0.65438984387E+03  0.13155514454E+03 -0.67113674172E+03  0.13052386481E+04  0.89871607233E+03 0.  0.
         23    2    4    4    0    0 -0.42395431258E+03 -0.22819212228E+02 -0.85473262638E+03  0.95864001315E+03  0.90359485493E+02 0.  0.
         23    2    4    4    0    0 -0.23043553129E+03  0.15437435677E+03  0.18359588466E+03  0.34659863497E+03  0.97422732399E+02 0.  0.
          4    1    3    3  502    0  0.59630667627E+03 -0.13628877517E+03 -0.18925158039E+04  0.19889123536E+04  0.00000000000E+00 0. -1.
         -3    1    3    3    0  502  0.58083167609E+02  0.47336306307E+01 -0.11873752274E+03  0.13226738421E+03  0.00000000000E+00 0.  1.
         13    1    5    5    0    0 -0.69305593030E+01  0.13718099713E+02 -0.26890956873E+02  0.30973254164E+02  0.00000000000E+00 0. -1.
        -13    1    5    5    0    0 -0.41702375328E+03 -0.36537311941E+02 -0.82784166951E+03  0.92766675899E+03  0.00000000000E+00 0.  1.
          2    1    6    6  503    0 -0.21485343256E+02 -0.11377077041E+02  0.30741455681E+02  0.39193047269E+02  0.00000000000E+00 0. -1.
         -2    1    6    6    0  503 -0.20895018804E+03  0.16575143381E+03  0.15285442898E+03  0.30740558770E+03  0.00000000000E+00 0.  1.
<mgrwt>
<rscale>  0 0.21319302E+04</rscale>
<asrwt>0</asrwt>
<pdfrwt beam="1">  1        2 0.46990834E+00 0.21319302E+04</pdfrwt>
<pdfrwt beam="2">  1       -1 0.57232948E-01 0.21319302E+04</pdfrwt>
<totfact> 0.52119463E+00</totfact>
</mgrwt>
</event>
<event>
12    7  0.1546317E-007  0.1784212E+04  0.7818608E-02  0.8714741E-01
         -1   -1    0    0    0  501 -0.00000000000E+00  0.00000000000E+00  0.47258907515E+03  0.47258907515E+03  0.00000000000E+00 0.  1.
          2   -1    0    0  501    0  0.00000000000E+00 -0.00000000000E+00 -0.16840276219E+04  0.16840276219E+04  0.00000000000E+00 0. -1.
         24    2    1    2    0    0  0.26836044103E+02 -0.23556730127E+03 -0.12180696418E+04  0.12435306698E+04  0.80391217871E+02 0.  0.
        254    2    1    2    0    0 -0.26836044103E+02  0.23556730127E+03  0.66310950016E+01  0.91308602723E+03  0.88174259000E+03 0.  0.
         23    2    4    4    0    0 -0.27513811991E+03 -0.21824571888E+03  0.10528689193E+03  0.37767675517E+03  0.90676474052E+02 0.  0.
         23    2    4    4    0    0  0.24830207580E+03  0.45381302015E+03 -0.98655796926E+02  0.53540927206E+03  0.96591636467E+02 0.  0.
          4    1    3    3  502    0  0.21968702387E+02 -0.21068082836E+03 -0.11715793795E+04  0.11905743479E+04  0.00000000000E+00 0. -1.
         -3    1    3    3    0  502  0.48673417161E+01 -0.24886472915E+02 -0.46490262220E+02  0.52956321916E+02  0.00000000000E+00 0.  1.
         13    1    5    5    0    0 -0.10887148289E+03 -0.13916500543E+03  0.70859425423E+02  0.19037057728E+03  0.00000000000E+00 0.  1.
        -13    1    5    5    0    0 -0.16626663702E+03 -0.79080713453E+02  0.34427466504E+02  0.18730617789E+03  0.00000000000E+00 0. -1.
          1    1    6    6  503    0  0.97757348345E+02  0.22899404655E+03 -0.89831570922E+02  0.26469696569E+03  0.00000000000E+00 0.  1.
         -1    1    6    6    0  503  0.15054472746E+03  0.22481897360E+03 -0.88242260034E+01  0.27071230637E+03  0.00000000000E+00 0. -1.
<mgrwt>
<rscale>  0 0.17842119E+04</rscale>
<asrwt>0</asrwt>
<pdfrwt beam="1">  1        2 0.25908117E+00 0.17842119E+04</pdfrwt>
<pdfrwt beam="2">  1       -1 0.72706011E-01 0.17842119E+04</pdfrwt>
<totfact> 0.20560041E+01</totfact>
</mgrwt>
</event>
<event>
12    7  0.1546317E-007  0.3741263E+04  0.7818608E-02  0.8058878E-01
          2   -1    0    0  501    0  0.00000000000E+00  0.00000000000E+00  0.49022809741E+04  0.49022809741E+04  0.00000000000E+00 0. -1.
         -1   -1    0    0    0  501 -0.00000000000E+00 -0.00000000000E+00 -0.71380284442E+03  0.71380284442E+03  0.00000000000E+00 0.  1.
         24    2    1    2    0    0  0.17441704896E+04  0.15480002629E+03  0.22483611040E+04  0.28509736680E+04  0.82640525646E+02 0.  0.
        254    2    1    2    0    0 -0.17441704896E+04 -0.15480002629E+03  0.19401170257E+04  0.27651101506E+04  0.90315354547E+03 0.  0.
         23    2    4    4    0    0 -0.11686912191E+04  0.12116323517E+03  0.17172974064E+04  0.20827717327E+04  0.91148304881E+02 0.  0.
         23    2    4    4    0    0 -0.57547927053E+03 -0.27596326146E+03  0.22281961930E+03  0.68233841790E+03  0.92763254112E+02 0.  0.
          4    1    3    3  502    0  0.17364319033E+04  0.15068358296E+03  0.22433869104E+04  0.28408953038E+04  0.00000000000E+00 0. -1.
         -3    1    3    3    0  502  0.77385862665E+01  0.41164433378E+01  0.49741935860E+01  0.10078364202E+02  0.00000000000E+00 0.  1.
         13    1    5    5    0    0 -0.78281285479E+03  0.40664482611E+02  0.11690645276E+04  0.14075373656E+04  0.00000000000E+00 0. -1.
        -13    1    5    5    0    0 -0.38587836426E+03  0.80498752555E+02  0.54823287876E+03  0.67523436711E+03  0.00000000000E+00 0.  1.
          2    1    6    6  503    0 -0.41755785534E+03 -0.22518150023E+03  0.12844762553E+03  0.49148760219E+03  0.00000000000E+00 0. -1.
         -2    1    6    6    0  503 -0.15792141519E+03 -0.50781761227E+02  0.94371993772E+02  0.19085081571E+03  0.00000000000E+00 0.  1.
<mgrwt>
<rscale>  0 0.37412629E+04</rscale>
<asrwt>0</asrwt>
<pdfrwt beam="1">  1        2 0.75419705E+00 0.37412629E+04</pdfrwt>
<pdfrwt beam="2">  1       -1 0.10981583E+00 0.37412629E+04</pdfrwt>
<totfact> 0.31417153E-02</totfact>
</mgrwt>
</event>
<event>
12    7  0.1546317E-007  0.1588691E+04  0.7818608E-02  0.8827526E-01
         -1   -1    0    0    0  501 -0.00000000000E+00  0.00000000000E+00  0.51647524928E+03  0.51647524928E+03  0.00000000000E+00 0.  1.
          2   -1    0    0  501    0  0.00000000000E+00 -0.00000000000E+00 -0.12217135920E+04  0.12217135920E+04  0.00000000000E+00 0. -1.
         24    2    1    2    0    0 -0.11545641928E+03  0.41292842750E+03 -0.59833429945E+03  0.74040559260E+03  0.79727264242E+02 0.  0.
        254    2    1    2    0    0  0.11545641928E+03 -0.41292842750E+03 -0.10690404330E+03  0.99778324872E+03  0.89459648219E+03 0.  0.
         23    2    4    4    0    0  0.47600824796E+02  0.97028689054E+02 -0.38318541112E+03  0.40689314752E+03  0.83967667479E+02 0.  0.
         23    2    4    4    0    0  0.67855594488E+02 -0.50995711656E+03  0.27628136782E+03  0.59089010119E+03  0.90327598503E+02 0.  0.
          4    1    3    3  502    0 -0.11296201552E+03  0.35892143731E+03 -0.55773139531E+03  0.67279218517E+03  0.00000000000E+00 0. -1.
         -3    1    3    3    0  502 -0.24944037632E+01  0.54006990199E+02 -0.40602904144E+02  0.67613407438E+02  0.00000000000E+00 0.  1.
         13    1    5    5    0    0  0.65081535639E+02  0.43191527650E+02 -0.18577318824E+03  0.20152615664E+03  0.00000000000E+00 0. -1.
        -13    1    5    5    0    0 -0.17480710843E+02  0.53837161404E+02 -0.19741222289E+03  0.20536699088E+03  0.00000000000E+00 0.  1.
          3    1    6    6  503    0  0.13941111844E+01 -0.28248708353E+03  0.11940454826E+03  0.30668932497E+03  0.00000000000E+00 0. -1.
         -3    1    6    6    0  503  0.66461483304E+02 -0.22747003303E+03  0.15687681956E+03  0.28420077622E+03  0.00000000000E+00 0.  1.
<mgrwt>
<rscale>  0 0.15886911E+04</rscale>
<asrwt>0</asrwt>
<pdfrwt beam="1">  1        2 0.18795594E+00 0.15886911E+04</pdfrwt>
<pdfrwt beam="2">  1       -1 0.79457732E-01 0.15886911E+04</pdfrwt>
<totfact> 0.31843574E+01</totfact>
</mgrwt>
</event>
<event>
12    7  0.1546317E-007  0.1667679E+04  0.7818608E-02  0.8780016E-01
          2   -1    0    0  501    0  0.00000000000E+00  0.00000000000E+00  0.79907349591E+03  0.79907349591E+03  0.00000000000E+00 0. -1.
         -1   -1    0    0    0  501 -0.00000000000E+00 -0.00000000000E+00 -0.87011799747E+03  0.87011799747E+03  0.00000000000E+00 0.  1.
         24    2    1    2    0    0  0.65841666007E+02 -0.30286412320E+03  0.47096940886E+03  0.56940747349E+03  0.79692438044E+02 0.  0.
        254    2    1    2    0    0 -0.65841666007E+02  0.30286412320E+03 -0.54201391042E+03  0.10997840199E+04  0.90536402026E+03 0.  0.
         23    2    4    4    0    0 -0.18089803283E+03 -0.25016901589E+03 -0.16329314393E+02  0.32311450198E+03  0.93955841148E+02 0.  0.
         23    2    4    4    0    0  0.11505636682E+03  0.55303313909E+03 -0.52568459603E+03  0.77666951790E+03  0.88247521533E+02 0.  0.
          4    1    3    3  502    0  0.80516105582E+02 -0.23177442775E+03  0.33458352456E+03  0.41490765662E+03  0.00000000000E+00 0. -1.
         -3    1    3    3    0  502 -0.14674439575E+02 -0.71089695446E+02  0.13638588430E+03  0.15449981687E+03  0.00000000000E+00 0.  1.
         13    1    5    5    0    0 -0.85993773243E+02 -0.80589847614E+02  0.33452442451E+02  0.12251007502E+03  0.00000000000E+00 0.  1.
        -13    1    5    5    0    0 -0.94904259590E+02 -0.16957916828E+03 -0.49781756844E+02  0.20060442696E+03  0.00000000000E+00 0. -1.
          2    1    6    6  503    0  0.10267761450E+03  0.31704499651E+03 -0.34045554664E+03  0.47641389733E+03  0.00000000000E+00 0.  1.
         -2    1    6    6    0  503  0.12378752329E+02  0.23598814258E+03 -0.18522904938E+03  0.30025562057E+03  0.00000000000E+00 0. -1.
<mgrwt>
<rscale>  0 0.16676789E+04</rscale>
<asrwt>0</asrwt>
<pdfrwt beam="1">  1        2 0.12293438E+00 0.16676789E+04</pdfrwt>
<pdfrwt beam="2">  1       -1 0.13386431E+00 0.16676789E+04</pdfrwt>
<totfact> 0.17688738E+01</totfact>
</mgrwt>
</event>
<event>
12    7  0.1546317E-007  0.1452966E+04  0.7818608E-02  0.8916347E-01
         -1   -1    0    0    0  501 -0.00000000000E+00  0.00000000000E+00  0.20783165673E+03  0.20783165673E+03  0.00000000000E+00 0.  1.
          2   -1    0    0  501    0  0.00000000000E+00 -0.00000000000E+00 -0.25394485016E+04  0.25394485016E+04  0.00000000000E+00 0. -1.
         24    2    1    2    0    0  0.23085244485E+03 -0.35115711637E+03 -0.42378850918E+03  0.60222430580E+03  0.80456462170E+02 0.  0.
        254    2    1    2    0    0 -0.23085244485E+03  0.35115711637E+03 -0.19078283357E+04  0.21450558526E+04  0.88591843890E+03 0.  0.
         23    2    4    4    0    0 -0.39060430118E+03 -0.71250555832E+02 -0.41028780590E+03  0.57827766612E+03  0.91763901674E+02 0.  0.
         23    2    4    4    0    0  0.15975185633E+03  0.42240767220E+03 -0.14975405298E+04  0.15667781865E+04  0.90649599880E+02 0.  0.
          4    1    3    3  502    0  0.77482226744E+02 -0.11053766872E+03 -0.19145327073E+03  0.23425718034E+03  0.00000000000E+00 0. -1.
         -3    1    3    3    0  502  0.15337021811E+03 -0.24061944765E+03 -0.23233523845E+03  0.36796712546E+03  0.00000000000E+00 0.  1.
         13    1    5    5    0    0 -0.78281803222E+02 -0.51879844570E+02 -0.10916326362E+03  0.14400061497E+03  0.00000000000E+00 0. -1.
        -13    1    5    5    0    0 -0.31232249796E+03 -0.19370711263E+02 -0.30112454228E+03  0.43427705114E+03  0.00000000000E+00 0.  1.
          4    1    6    6  503    0 -0.11363435687E+02  0.27361024440E+02 -0.80262965069E+02  0.85556395966E+02  0.00000000000E+00 0. -1.
         -4    1    6    6    0  503  0.17111529202E+03  0.39504664776E+03 -0.14172775648E+04  0.14812217905E+04  0.00000000000E+00 0.  1.
<mgrwt>
<rscale>  0 0.14529663E+04</rscale>
<asrwt>0</asrwt>
<pdfrwt beam="1">  1        2 0.39068439E+00 0.14529663E+04</pdfrwt>
<pdfrwt beam="2">  1       -1 0.31974101E-01 0.14529663E+04</pdfrwt>
<totfact> 0.33362139E+01</totfact>
</mgrwt>
</event>
<event>
12    7  0.1546317E-007  0.1350514E+04  0.7818608E-02  0.8990439E-01
          2   -1    0    0  501    0  0.00000000000E+00  0.00000000000E+00  0.77520474241E+03  0.77520474241E+03  0.00000000000E+00 0. -1.
         -1   -1    0    0    0  501 -0.00000000000E+00 -0.00000000000E+00 -0.58819581975E+03  0.58819581975E+03  0.00000000000E+00 0.  1.
         24    2    1    2    0    0 -0.29661974986E+03  0.17887098425E+03  0.29352437875E+03  0.46067750579E+03  0.78032675248E+02 0.  0.
        254    2    1    2    0    0  0.29661974986E+03 -0.17887098425E+03 -0.10651545609E+03  0.90272305637E+03  0.82679215593E+03 0.  0.
         23    2    4    4    0    0  0.12175025149E+03 -0.39468081747E+03  0.21047740673E+03  0.47147813618E+03  0.85993155183E+02 0.  0.
         23    2    4    4    0    0  0.17486949837E+03  0.21580983322E+03 -0.31699286282E+03  0.43124492019E+03  0.91293376188E+02 0.  0.
          4    1    3    3  502    0 -0.28263418587E+03  0.15278258194E+03  0.28598862813E+03  0.43013264906E+03  0.00000000000E+00 0. -1.
         -1    1    3    3    0  502 -0.13985563986E+02  0.26088402312E+02  0.75357506201E+01  0.30544856729E+02  0.00000000000E+00 0.  1.
         13    1    5    5    0    0  0.85856264509E+02 -0.13671217170E+03  0.80439861912E+02  0.18036653634E+03  0.00000000000E+00 0.  1.
        -13    1    5    5    0    0  0.35893986980E+02 -0.25796864577E+03  0.13003754482E+03  0.29111159984E+03  0.00000000000E+00 0. -1.
          2    1    6    6  503    0  0.10781575934E+03  0.66053581138E+02 -0.11414601671E+03  0.17034267426E+03  0.00000000000E+00 0. -1.
         -2    1    6    6    0  503  0.67053739033E+02  0.14975625208E+03 -0.20284684610E+03  0.26090224593E+03  0.00000000000E+00 0.  1.
<mgrwt>
<rscale>  0 0.13505143E+04</rscale>
<asrwt>0</asrwt>
<pdfrwt beam="1">  1        2 0.11926227E+00 0.13505143E+04</pdfrwt>
<pdfrwt beam="2">  1       -1 0.90491665E-01 0.13505143E+04</pdfrwt>
<totfact> 0.47823765E+01</totfact>
</mgrwt>
</event>
<event>
12    7  0.1546317E-007  0.1530655E+04  0.7818608E-02  0.8864320E-01
          2   -1    0    0  501    0  0.00000000000E+00  0.00000000000E+00  0.12975311995E+04  0.12975311995E+04  0.00000000000E+00 0. -1.
         -1   -1    0    0    0  501 -0.00000000000E+00 -0.00000000000E+00 -0.45141573126E+03  0.45141573126E+03  0.00000000000E+00 0.  1.
         24    2    1    2    0    0 -0.41026993698E+03 -0.28635370013E+03  0.31284584405E+03  0.59544863617E+03  0.79791562252E+02 0.  0.
        254    2    1    2    0    0  0.41026993698E+03  0.28635370013E+03  0.53326962418E+03  0.11534982946E+04  0.89211095765E+03 0.  0.
         23    2    4    4    0    0  0.15084579242E+01  0.34519907622E+03 -0.11891875094E+03  0.37607412684E+03  0.90141011131E+02 0.  0.
         23    2    4    4    0    0  0.40876147906E+03 -0.58845376085E+02  0.65218837511E+03  0.77742416774E+03  0.92140842755E+02 0.  0.
          4    1    3    3  502    0 -0.36296089753E+03 -0.27292101052E+03  0.30113836416E+03  0.54489522432E+03  0.00000000000E+00 0. -1.
         -3    1    3    3    0  502 -0.47309039451E+02 -0.13432689617E+02  0.11707479882E+02  0.50553411846E+02  0.00000000000E+00 0.  1.
         13    1    5    5    0    0  0.32375459671E+02  0.48496469461E+02 -0.23690040346E+02  0.62938827052E+02  0.00000000000E+00 0.  1.
        -13    1    5    5    0    0 -0.30867001746E+02  0.29670260676E+03 -0.95228710593E+02  0.31313529979E+03  0.00000000000E+00 0. -1.
          1    1    6    6  503    0  0.37956044099E+03 -0.46637163582E+02  0.63538557952E+03  0.74159017527E+03  0.00000000000E+00 0. -1.
         -1    1    6    6    0  503  0.29201038068E+02 -0.12208212503E+02  0.16802795596E+02  0.35833992474E+02  0.00000000000E+00 0.  1.
<mgrwt>
<rscale>  0 0.15306548E+04</rscale>
<asrwt>0</asrwt>
<pdfrwt beam="1">  1        2 0.19962018E+00 0.15306548E+04</pdfrwt>
<pdfrwt beam="2">  1       -1 0.69448575E-01 0.15306548E+04</pdfrwt>
<totfact> 0.38223855E+01</totfact>
</mgrwt>
</event>
<event>
12    7  0.1546317E-007  0.2698022E+04  0.7818608E-02  0.8335647E-01
         -1   -1    0    0    0  501 -0.00000000000E+00  0.00000000000E+00  0.54541697166E+03  0.54541697166E+03  0.00000000000E+00 0.  1.
          2   -1    0    0  501    0  0.00000000000E+00 -0.00000000000E+00 -0.33365867979E+04  0.33365867979E+04  0.00000000000E+00 0. -1.
         24    2    1    2    0    0 -0.66044377149E+03 -0.68733932908E+03 -0.22649568236E+04  0.24586439112E+04  0.79241029683E+02 0.  0.
        254    2    1    2    0    0  0.66044377149E+03  0.68733932908E+03 -0.52621300262E+03  0.14233598583E+04  0.91675069326E+03 0.  0.
         23    2    4    4    0    0 -0.10720370356E+03 -0.11293501793E+03 -0.18768320691E+03  0.26038832057E+03  0.91269595156E+02 0.  0.
         23    2    4    4    0    0  0.76764747505E+03  0.80027434701E+03 -0.33852979571E+03  0.11629715378E+04  0.90436157798E+02 0.  0.
          4    1    3    3  502    0 -0.50358054898E+03 -0.56663459693E+03 -0.18277623791E+04  0.19787327890E+04  0.00000000000E+00 0. -1.
         -3    1    3    3    0  502 -0.15686322251E+03 -0.12070473215E+03 -0.43719444450E+03  0.47991112223E+03  0.00000000000E+00 0.  1.
         13    1    5    5    0    0 -0.84555037233E+02 -0.92459472905E+02 -0.80460658655E+02  0.14890341179E+03  0.00000000000E+00 0.  1.
        -13    1    5    5    0    0 -0.22648666326E+02 -0.20475545024E+02 -0.10722254826E+03  0.11148490878E+03  0.00000000000E+00 0. -1.
          4    1    6    6  503    0  0.40468783727E+03  0.47225218681E+03 -0.15986363908E+03  0.64214543266E+03  0.00000000000E+00 0. -1.
         -4    1    6    6    0  503  0.36295963778E+03  0.32802216020E+03 -0.17866615663E+03  0.52082610511E+03  0.00000000000E+00 0.  1.
<mgrwt>
<rscale>  0 0.26980223E+04</rscale>
<asrwt>0</asrwt>
<pdfrwt beam="1">  1        2 0.51332105E+00 0.26980223E+04</pdfrwt>
<pdfrwt beam="2">  1       -1 0.83910303E-01 0.26980223E+04</pdfrwt>
<totfact> 0.14782447E+00</totfact>
</mgrwt>
</event>
<event>
12    7  0.1546317E-007  0.2610337E+04  0.7818608E-02  0.8364699E-01
         -1   -1    0    0    0  501 -0.00000000000E+00  0.00000000000E+00  0.21099992204E+04  0.21099992204E+04  0.00000000000E+00 0.  1.
          2   -1    0    0  501    0  0.00000000000E+00 -0.00000000000E+00 -0.80732944175E+03  0.80732944175E+03  0.00000000000E+00 0. -1.
         24    2    1    2    0    0 -0.88328778420E+03  0.49881271008E+03  0.11795878166E+04  0.15578204182E+04  0.79784765419E+02 0.  0.
        254    2    1    2    0    0  0.88328778420E+03 -0.49881271008E+03  0.12308196205E+03  0.13595082440E+04  0.89671738387E+03 0.  0.
         23    2    4    4    0    0  0.48683708413E+02  0.19485598921E+03 -0.10786811838E+03  0.24620659635E+03  0.92968796542E+02 0.  0.
         23    2    4    4    0    0  0.83460407578E+03 -0.69366869929E+03  0.23095008042E+03  0.11133016476E+04  0.91446110943E+02 0.  0.
          4    1    3    3  502    0 -0.25958550005E+03  0.13112489023E+03  0.39063354933E+03  0.48700404366E+03  0.00000000000E+00 0. -1.
         -1    1    3    3    0  502 -0.62370228414E+03  0.36768781985E+03  0.78895426722E+03  0.10708163745E+04  0.00000000000E+00 0.  1.
         13    1    5    5    0    0  0.54452096901E+02  0.82062681436E+02 -0.86885740888E+02  0.13133334120E+03  0.00000000000E+00 0. -1.
        -13    1    5    5    0    0 -0.57683884875E+01  0.11279330778E+03 -0.20982377487E+02  0.11487325515E+03  0.00000000000E+00 0.  1.
          2    1    6    6  503    0  0.65944661577E+03 -0.59380689109E+03  0.18364468744E+03  0.90620187276E+03  0.00000000000E+00 0. -1.
         -2    1    6    6    0  503  0.17515746001E+03 -0.99861808198E+02  0.47305392981E+02  0.20709977484E+03  0.00000000000E+00 0.  1.
<mgrwt>
<rscale>  0 0.26103368E+04</rscale>
<asrwt>0</asrwt>
<pdfrwt beam="1">  1        2 0.12420453E+00 0.26103368E+04</pdfrwt>
<pdfrwt beam="2">  1       -1 0.32461526E+00 0.26103368E+04</pdfrwt>
<totfact> 0.78317072E-01</totfact>
</mgrwt>
</event>
<event>
12    7  0.1546317E-007  0.1435614E+04  0.7818608E-02  0.8928435E-01
         -1   -1    0    0    0  501 -0.00000000000E+00  0.00000000000E+00  0.78463203539E+03  0.78463203539E+03  0.00000000000E+00 0.  1.
          2   -1    0    0  501    0  0.00000000000E+00 -0.00000000000E+00 -0.65667324386E+03  0.65667324386E+03  0.00000000000E+00 0. -1.
         24    2    1    2    0    0  0.17010408679E+03  0.23907368327E+03 -0.29576099921E+03  0.42420213367E+03  0.79882758952E+02 0.  0.
        254    2    1    2    0    0 -0.17010408679E+03 -0.23907368327E+03  0.42371979074E+03  0.10171031456E+04  0.87685159594E+03 0.  0.
         23    2    4    4    0    0 -0.25531075285E+03  0.28046565826E+03  0.18519546434E+03  0.43186217465E+03  0.91449504636E+02 0.  0.
         23    2    4    4    0    0  0.85206666058E+02 -0.51953934153E+03  0.23852432639E+03  0.58524097093E+03  0.91825031630E+02 0.  0.
          2    1    3    3  502    0  0.14501126584E+03  0.13942315053E+03 -0.18903822282E+03  0.27604806069E+03  0.00000000000E+00 0. -1.
         -1    1    3    3    0  502  0.25092820952E+02  0.99650532743E+02 -0.10672277640E+03  0.14815407298E+03  0.00000000000E+00 0.  1.
         13    1    5    5    0    0 -0.25847066507E+03  0.25071864478E+03  0.16796233967E+03  0.39733898763E+03  0.00000000000E+00 0. -1.
        -13    1    5    5    0    0  0.31599122239E+01  0.29747013473E+02  0.17233124671E+02  0.34523187016E+02  0.00000000000E+00 0.  1.
          1    1    6    6  503    0  0.90102492936E+02 -0.37579822169E+03  0.20543157213E+03  0.43765842102E+03  0.00000000000E+00 0. -1.
         -1    1    6    6    0  503 -0.48958268777E+01 -0.14374111984E+03  0.33092754260E+02  0.14758254991E+03  0.00000000000E+00 0.  1.
<mgrwt>
<rscale>  0 0.14356140E+04</rscale>
<asrwt>0</asrwt>
<pdfrwt beam="1">  1        2 0.10102665E+00 0.14356140E+04</pdfrwt>
<pdfrwt beam="2">  1       -1 0.12071262E+00 0.14356140E+04</pdfrwt>
<totfact> 0.30052138E+01</totfact>
</mgrwt>
</event>
<event>
12    7  0.1546317E-007  0.2091063E+04  0.7818608E-02  0.8565190E-01
          2   -1    0    0  501    0  0.00000000000E+00  0.00000000000E+00  0.60684773021E+03  0.60684773021E+03  0.00000000000E+00 0. -1.
         -1   -1    0    0    0  501 -0.00000000000E+00 -0.00000000000E+00 -0.18013351608E+04  0.18013351608E+04  0.00000000000E+00 0.  1.
         24    2    1    2    0    0  0.37720012887E+03 -0.68559491247E+02 -0.12895677790E+04  0.13476971034E+04  0.79511539014E+02 0.  0.
        254    2    1    2    0    0 -0.37720012887E+03  0.68559491247E+02  0.95080348428E+02  0.10604857876E+04  0.98417960350E+03 0.  0.
         23    2    4    4    0    0 -0.69310348218E+03  0.40643833361E+02  0.17644053355E+03  0.72236889840E+03  0.92958083550E+02 0.  0.
         23    2    4    4    0    0  0.31590335331E+03  0.27915657886E+02 -0.81360185126E+02  0.33811688918E+03  0.84435409857E+02 0.  0.
          2    1    3    3  502    0  0.74301756799E+02  0.17747909782E+02 -0.23538403900E+03  0.24746996824E+03  0.00000000000E+00 0. -1.
         -1    1    3    3    0  502  0.30289837207E+03 -0.86307401029E+02 -0.10541837400E+04  0.11002271352E+04  0.00000000000E+00 0.  1.
         13    1    5    5    0    0 -0.46465910533E+02  0.17357092138E+02  0.33080939024E+02  0.59621288277E+02  0.00000000000E+00 0.  1.
        -13    1    5    5    0    0 -0.64663757165E+03  0.23286741223E+02  0.14335959453E+03  0.66274761012E+03  0.00000000000E+00 0. -1.
          4    1    6    6  503    0  0.26799753440E+03  0.12906228816E+02 -0.36476997208E+02  0.27077632931E+03  0.00000000000E+00 0. -1.
         -4    1    6    6    0  503  0.47905818904E+02  0.15009429070E+02 -0.44883187918E+02  0.67340559869E+02  0.00000000000E+00 0.  1.
<mgrwt>
<rscale>  0 0.20910630E+04</rscale>
<asrwt>0</asrwt>
<pdfrwt beam="1">  1        2 0.93361189E-01 0.20910630E+04</pdfrwt>
<pdfrwt beam="2">  1       -1 0.27712849E+00 0.20910630E+04</pdfrwt>
<totfact> 0.23932832E+00</totfact>
</mgrwt>
</event>
<event>
12    7  0.1546317E-007  0.1784165E+04  0.7818608E-02  0.8714766E-01
          2   -1    0    0  501    0  0.00000000000E+00  0.00000000000E+00  0.17834902919E+04  0.17834902919E+04  0.00000000000E+00 0. -1.
         -1   -1    0    0    0  501 -0.00000000000E+00 -0.00000000000E+00 -0.44620980732E+03  0.44620980732E+03  0.00000000000E+00 0.  1.
         24    2    1    2    0    0  0.15047760581E+03 -0.32841538903E+03 -0.19178323464E+03  0.41751751629E+03  0.83904050674E+02 0.  0.
        254    2    1    2    0    0 -0.15047760581E+03  0.32841538903E+03  0.15290637192E+04  0.18121825829E+04  0.90303359781E+03 0.  0.
         23    2    4    4    0    0  0.97751149561E+02  0.56710815498E+03  0.11647368717E+04  0.13023540684E+04  0.91362970452E+02 0.  0.
         23    2    4    4    0    0 -0.24822875537E+03 -0.23869276595E+03  0.36432684749E+03  0.50982851453E+03  0.92732469600E+02 0.  0.
          4    1    3    3  502    0  0.34222014108E+02 -0.30177419615E+02 -0.26120128181E+01  0.45701701448E+02  0.00000000000E+00 0. -1.
         -3    1    3    3    0  502  0.11625559170E+03 -0.29823796942E+03 -0.18917122182E+03  0.37181581485E+03  0.00000000000E+00 0.  1.
         13    1    5    5    0    0  0.83678231420E+02  0.52295525188E+03  0.10046692826E+04  0.11357132601E+04  0.00000000000E+00 0. -1.
        -13    1    5    5    0    0  0.14072918140E+02  0.44152903102E+02  0.16006758912E+03  0.16664080822E+03  0.00000000000E+00 0.  1.
          2    1    6    6  503    0 -0.19833153043E+03 -0.18080011052E+03  0.33184363105E+03  0.42678363534E+03  0.00000000000E+00 0. -1.
         -2    1    6    6    0  503 -0.49897224941E+02 -0.57892655428E+02  0.32483216439E+02  0.83044879189E+02  0.00000000000E+00 0.  1.
<mgrwt>
<rscale>  0 0.17841646E+04</rscale>
<asrwt>0</asrwt>
<pdfrwt beam="1">  1        2 0.27438312E+00 0.17841646E+04</pdfrwt>
<pdfrwt beam="2">  1       -1 0.68647664E-01 0.17841646E+04</pdfrwt>
<totfact> 0.20375625E+01</totfact>
</mgrwt>
</event>
<event>
12    7  0.1546317E-007  0.1901242E+04  0.7818608E-02  0.8654238E-01
          2   -1    0    0  501    0  0.00000000000E+00  0.00000000000E+00  0.47860501365E+03  0.47860501365E+03  0.00000000000E+00 0. -1.
         -1   -1    0    0    0  501 -0.00000000000E+00 -0.00000000000E+00 -0.18881546301E+04  0.18881546301E+04  0.00000000000E+00 0.  1.
         24    2    1    2    0    0 -0.30008640614E+03 -0.26131830739E+03  0.22082771521E+03  0.46201138146E+03  0.79690199332E+02 0.  0.
        254    2    1    2    0    0  0.30008640614E+03  0.26131830739E+03 -0.16303773317E+04  0.19047482623E+04  0.90088655790E+03 0.  0.
         23    2    4    4    0    0  0.30618981196E+03 -0.25490368888E+03 -0.10277974555E+04  0.11060022178E+04  0.90250788392E+02 0.  0.
         23    2    4    4    0    0 -0.61034058232E+01  0.51622199627E+03 -0.60257987620E+03  0.79874604448E+03  0.91489536976E+02 0.  0.
          4    1    3    3  502    0 -0.91572655913E+02 -0.12961340123E+03  0.97663796973E+02  0.18634216465E+03  0.00000000000E+00 0. -1.
         -3    1    3    3    0  502 -0.20851375023E+03 -0.13170490616E+03  0.12316391824E+03  0.27566921681E+03  0.00000000000E+00 0.  1.
         13    1    5    5    0    0  0.28275789437E+03 -0.19410400540E+03 -0.88038214482E+03  0.94482861550E+03  0.00000000000E+00 0. -1.
        -13    1    5    5    0    0  0.23431917595E+02 -0.60799683484E+02 -0.14741531067E+03  0.16117360234E+03  0.00000000000E+00 0.  1.
          2    1    6    6  503    0  0.51622974491E+01  0.48459163008E+03 -0.52647737452E+03  0.71556559667E+03  0.00000000000E+00 0. -1.
         -2    1    6    6    0  503 -0.11265703272E+02  0.31630366187E+02 -0.76102501681E+02  0.83180447808E+02  0.00000000000E+00 0.  1.
<mgrwt>
<rscale>  0 0.19012420E+04</rscale>
<asrwt>0</asrwt>
<pdfrwt beam="1">  1        2 0.73631541E-01 0.19012420E+04</pdfrwt>
<pdfrwt beam="2">  1       -1 0.29048533E+00 0.19012420E+04</pdfrwt>
<totfact> 0.26406625E+00</totfact>
</mgrwt>
</event>
<event>
12    7  0.1546317E-007  0.1394123E+04  0.7818608E-02  0.8958084E-01
         -1   -1    0    0    0  501 -0.00000000000E+00  0.00000000000E+00  0.30443332713E+03  0.30443332713E+03  0.00000000000E+00 0.  1.
          2   -1    0    0  501    0  0.00000000000E+00 -0.00000000000E+00 -0.15960630564E+04  0.15960630564E+04  0.00000000000E+00 0. -1.
         24    2    1    2    0    0 -0.89296260689E+02 -0.72763206191E+02  0.14363960340E+03  0.19985752445E+03  0.77732799172E+02 0.  0.
        254    2    1    2    0    0  0.89296260689E+02  0.72763206191E+02 -0.14352693327E+04  0.17006388591E+04  0.90493434315E+03 0.  0.
         23    2    4    4    0    0  0.18203600661E+03 -0.36730491770E+03 -0.91027655952E+03  0.10024805806E+04  0.91180531723E+02 0.  0.
         23    2    4    4    0    0 -0.92739745923E+02  0.44006812389E+03 -0.52499277315E+03  0.69815827851E+03  0.97708524969E+02 0.  0.
          4    1    3    3  502    0 -0.48373238207E+02 -0.83081592951E+02  0.90872544985E+02  0.13228885325E+03  0.00000000000E+00 0. -1.
         -3    1    3    3    0  502 -0.40923022482E+02  0.10318386760E+02  0.52767058411E+02  0.67568671200E+02  0.00000000000E+00 0.  1.
         13    1    5    5    0    0  0.12716462235E+03 -0.32986997721E+03 -0.76609833583E+03  0.84373674994E+03  0.00000000000E+00 0. -1.
        -13    1    5    5    0    0  0.54871384260E+02 -0.37434940491E+02 -0.14417822369E+03  0.15874383064E+03  0.00000000000E+00 0.  1.
          3    1    6    6  503    0 -0.11020310620E+03  0.36662338191E+03 -0.41344727678E+03  0.56346790455E+03  0.00000000000E+00 0. -1.
         -3    1    6    6    0  503  0.17463360279E+02  0.73444741981E+02 -0.11154549637E+03  0.13469037396E+03  0.00000000000E+00 0.  1.
<mgrwt>
<rscale>  0 0.13941231E+04</rscale>
<asrwt>0</asrwt>
<pdfrwt beam="1">  1        2 0.24554815E+00 0.13941231E+04</pdfrwt>
<pdfrwt beam="2">  1       -1 0.46835898E-01 0.13941231E+04</pdfrwt>
<totfact> 0.56489425E+01</totfact>
</mgrwt>
</event>
<event>
12    7  0.1546317E-007  0.2790482E+04  0.7818608E-02  0.8306229E-01
          2   -1    0    0  501    0  0.00000000000E+00  0.00000000000E+00  0.28882124207E+04  0.28882124207E+04  0.00000000000E+00 0. -1.
         -1   -1    0    0    0  501 -0.00000000000E+00 -0.00000000000E+00 -0.67401472724E+03  0.67401472724E+03  0.00000000000E+00 0.  1.
         24    2    1    2    0    0  0.68236568008E+03  0.84704478715E+03  0.17914183563E+04  0.20972758251E+04  0.79236143318E+02 0.  0.
        254    2    1    2    0    0 -0.68236568008E+03 -0.84704478715E+03  0.42277933714E+03  0.14649513228E+04  0.88556886666E+03 0.  0.
         23    2    4    4    0    0  0.13548867130E+03 -0.19944094828E+03  0.32366352501E+03  0.41343435605E+03  0.89643836607E+02 0.  0.
         23    2    4    4    0    0 -0.81785435137E+03 -0.64760383887E+03  0.99115812131E+02  0.10515169668E+04  0.87106343346E+02 0.  0.
          4    1    3    3  502    0  0.25627923930E+03  0.34671654030E+03  0.77653243003E+03  0.88819706299E+03  0.00000000000E+00 0. -1.
         -3    1    3    3    0  502  0.42608644077E+03  0.50032824685E+03  0.10148859263E+04  0.12090787621E+04  0.00000000000E+00 0.  1.
         13    1    5    5    0    0  0.53985515542E+02 -0.71101504005E+02  0.55345667081E+02  0.10503810082E+03  0.00000000000E+00 0.  1.
        -13    1    5    5    0    0  0.81503155754E+02 -0.12833944427E+03  0.26831785793E+03  0.30839625523E+03  0.00000000000E+00 0. -1.
          4    1    6    6  503    0 -0.71893392424E+03 -0.57369892388E+03  0.11530832144E+03  0.92698028657E+03  0.00000000000E+00 0. -1.
         -4    1    6    6    0  503 -0.98920427132E+02 -0.73904914990E+02 -0.16192509307E+02  0.12453668022E+03  0.00000000000E+00 0.  1.
<mgrwt>
<rscale>  0 0.27904822E+04</rscale>
<asrwt>0</asrwt>
<pdfrwt beam="1">  1        2 0.44434037E+00 0.27904822E+04</pdfrwt>
<pdfrwt beam="2">  1       -1 0.10369458E+00 0.27904822E+04</pdfrwt>
<totfact> 0.17716887E+00</totfact>
</mgrwt>
</event>
<event>
12    7  0.1546317E-007  0.1763799E+04  0.7818608E-02  0.8725791E-01
          4   -1    0    0  501    0  0.00000000000E+00  0.00000000000E+00  0.74276971206E+03  0.74276971206E+03  0.00000000000E+00 0. -1.
         -3   -1    0    0    0  501 -0.00000000000E+00 -0.00000000000E+00 -0.10470900473E+04  0.10470900473E+04  0.00000000000E+00 0.  1.
         24    2    1    2    0    0 -0.16795932888E+03  0.46648697981E+03  0.31049033819E+03  0.59042784439E+03  0.79877098253E+02 0.  0.
        254    2    1    2    0    0  0.16795932888E+03 -0.46648697981E+03 -0.61481067341E+03  0.11994319149E+04  0.90267619663E+03 0.  0.
         23    2    4    4    0    0 -0.11359913156E+03 -0.61614540969E+03 -0.58983306034E+03  0.86549184043E+03  0.92914789957E+02 0.  0.
         23    2    4    4    0    0  0.28155846044E+03  0.14965842988E+03 -0.24977613066E+02  0.33394007452E+03  0.96017081474E+02 0.  0.
          2    1    3    3  502    0 -0.48973361608E+02  0.25215402461E+03  0.16687161144E+03  0.30631058907E+03  0.00000000000E+00 0. -1.
         -1    1    3    3    0  502 -0.11898596727E+03  0.21433295520E+03  0.14361872676E+03  0.28411725532E+03  0.00000000000E+00 0.  1.
         13    1    5    5    0    0 -0.66050314601E+01 -0.28738343612E+03 -0.25727338261E+03  0.38577514072E+03  0.00000000000E+00 0.  1.
        -13    1    5    5    0    0 -0.10699410010E+03 -0.32876197357E+03 -0.33255967773E+03  0.47971669971E+03  0.00000000000E+00 0. -1.
          1    1    6    6  503    0  0.14374313620E+03  0.12060033910E+03 -0.41380079176E+02  0.19214276449E+03  0.00000000000E+00 0. -1.
         -1    1    6    6    0  503  0.13781532424E+03  0.29058090785E+02  0.16402466110E+02  0.14179731003E+03  0.00000000000E+00 0.  1.
<mgrwt>
<rscale>  0 0.17637991E+04</rscale>
<asrwt>0</asrwt>
<pdfrwt beam="1">  1        4 0.11427226E+00 0.17637991E+04</pdfrwt>
<pdfrwt beam="2">  1       -3 0.16109077E+00 0.17637991E+04</pdfrwt>
<totfact> 0.34598969E-01</totfact>
</mgrwt>
</event>
<event>
12    7  0.1546317E-007  0.1916380E+04  0.7818608E-02  0.8646746E-01
          2   -1    0    0  501    0  0.00000000000E+00  0.00000000000E+00  0.17581703286E+04  0.17581703286E+04  0.00000000000E+00 0. -1.
         -1   -1    0    0    0  501 -0.00000000000E+00 -0.00000000000E+00 -0.52220640212E+03  0.52220640212E+03  0.00000000000E+00 0.  1.
         24    2    1    2    0    0 -0.24131004939E+02 -0.18287593921E+03  0.13357900948E+04  0.13508344345E+04  0.79953595620E+02 0.  0.
        254    2    1    2    0    0  0.24131004939E+02  0.18287593921E+03 -0.99826168366E+02  0.92954229619E+03  0.90557037384E+03 0.  0.
         23    2    4    4    0    0 -0.74960534265E+02  0.55965257170E+01  0.38108718098E+03  0.39914140093E+03  0.91847785112E+02 0.  0.
         23    2    4    4    0    0  0.99091539204E+02  0.17727941349E+03 -0.48091334934E+03  0.53040089527E+03  0.93810108907E+02 0.  0.
          2    1    3    3  502    0 -0.49429171030E+02 -0.14562655459E+03  0.94084828998E+03  0.95333406585E+03  0.00000000000E+00 0. -1.
         -1    1    3    3    0  502  0.25298166091E+02 -0.37249384626E+02  0.39494180484E+03  0.39750036864E+03  0.00000000000E+00 0.  1.
         13    1    5    5    0    0 -0.33847734807E+02 -0.42301338328E+02  0.20668633217E+03  0.21366869748E+03  0.00000000000E+00 0.  1.
        -13    1    5    5    0    0 -0.41112799457E+02  0.47897864045E+02  0.17440084880E+03  0.18547270344E+03  0.00000000000E+00 0. -1.
          3    1    6    6  503    0  0.10204651114E+03  0.13137313937E+03 -0.43358107316E+03  0.46439739361E+03  0.00000000000E+00 0. -1.
         -3    1    6    6    0  503 -0.29549719331E+01  0.45906274124E+02 -0.47332276179E+02  0.66003501660E+02  0.00000000000E+00 0.  1.
<mgrwt>
<rscale>  0 0.19163797E+04</rscale>
<asrwt>0</asrwt>
<pdfrwt beam="1">  1        2 0.27048774E+00 0.19163797E+04</pdfrwt>
<pdfrwt beam="2">  1       -1 0.80339447E-01 0.19163797E+04</pdfrwt>
<totfact> 0.14989806E+01</totfact>
</mgrwt>
</event>
<event>
12    7  0.1550143E-007  0.3679714E+04  0.7818608E-02  0.8072472E-01
         -1   -1    0    0    0  501 -0.00000000000E+00  0.00000000000E+00  0.13061500699E+04  0.13061500699E+04  0.00000000000E+00 0.  1.
          2   -1    0    0  501    0  0.00000000000E+00 -0.00000000000E+00 -0.25916422096E+04  0.25916422096E+04  0.00000000000E+00 0. -1.
         24    2    1    2    0    0  0.56153572819E+03 -0.10431880971E+04 -0.19376234155E+04  0.22726340277E+04  0.83169364913E+02 0.  0.
        254    2    1    2    0    0 -0.56153572819E+03  0.10431880971E+04  0.65213127584E+03  0.16251582519E+04  0.90127707334E+03 0.  0.
         23    2    4    4    0    0 -0.67919905033E+03  0.34073247252E+03  0.27060650310E+03  0.81201192403E+03  0.93410478277E+02 0.  0.
         23    2    4    4    0    0  0.11766332214E+03  0.70245562456E+03  0.38152477274E+03  0.81314632789E+03  0.91417922131E+02 0.  0.
          4    1    3    3  502    0  0.51847385489E+03 -0.97228106040E+03 -0.17580106181E+04  0.20747884066E+04  0.00000000000E+00 0. -1.
         -3    1    3    3    0  502  0.43061873303E+02 -0.70907036680E+02 -0.17961279744E+03  0.19784562109E+03  0.00000000000E+00 0.  1.
         13    1    5    5    0    0 -0.64609317665E+03  0.34442183927E+03  0.26173855012E+03  0.77754090883E+03  0.00000000000E+00 0. -1.
        -13    1    5    5    0    0 -0.33105873684E+02 -0.36893667521E+01  0.88679529761E+01  0.34471015207E+02  0.00000000000E+00 0.  1.
          1    1    6    6  503    0  0.90701762849E+02  0.63788287291E+03  0.31741663324E+03  0.71824417045E+03  0.00000000000E+00 0. -1.
         -1    1    6    6    0  503  0.26961559291E+02  0.64572751653E+02  0.64108139496E+02  0.94902157432E+02  0.00000000000E+00 0.  1.
<mgrwt>
<rscale>  0 0.36797139E+04</rscale>
<asrwt>0</asrwt>
<pdfrwt beam="1">  1        2 0.39871418E+00 0.36797139E+04</pdfrwt>
<pdfrwt beam="2">  1       -1 0.20094617E+00 0.36797139E+04</pdfrwt>
<totfact> 0.41978753E-01</totfact>
</mgrwt>
</event>
<event>
12    7  0.1546317E-007  0.1226711E+04  0.7818608E-02  0.9089793E-01
          2   -1    0    0  501    0  0.00000000000E+00  0.00000000000E+00  0.88433153271E+03  0.88433153271E+03  0.00000000000E+00 0. -1.
         -1   -1    0    0    0  501 -0.00000000000E+00 -0.00000000000E+00 -0.42541142056E+03  0.42541142056E+03  0.00000000000E+00 0.  1.
         24    2    1    2    0    0  0.11204595242E+03  0.10813983766E+03 -0.15334968592E+03  0.23327266271E+03  0.81556661591E+02 0.  0.
        254    2    1    2    0    0 -0.11204595242E+03 -0.10813983766E+03  0.61226979807E+03  0.10764702906E+04  0.87158789625E+03 0.  0.
         23    2    4    4    0    0 -0.35749083312E+03  0.22917681871E+03  0.18356636521E+03  0.47114282141E+03  0.89203350460E+02 0.  0.
         23    2    4    4    0    0  0.24544488070E+03 -0.33731665637E+03  0.42870343287E+03  0.60532746915E+03  0.92784672401E+02 0.  0.
          4    1    3    3  502    0  0.35243003377E+02  0.89478949060E+02 -0.74724420612E+02  0.12178789204E+03  0.00000000000E+00 0. -1.
         -3    1    3    3    0  502  0.76802949042E+02  0.18660888602E+02 -0.78625265313E+02  0.11148477067E+03  0.00000000000E+00 0.  1.
         13    1    5    5    0    0 -0.28717372441E+03  0.21920994724E+03  0.16803768583E+03  0.39844499347E+03  0.00000000000E+00 0.  1.
        -13    1    5    5    0    0 -0.70317108711E+02  0.99668714675E+01  0.15528679373E+02  0.72697827941E+02  0.00000000000E+00 0. -1.
          2    1    6    6  503    0  0.97030504109E+02 -0.64081366417E+02  0.10996289053E+03  0.16004117453E+03  0.00000000000E+00 0. -1.
         -2    1    6    6    0  503  0.14841437659E+03 -0.27323528995E+03  0.31874054233E+03  0.44528629463E+03  0.00000000000E+00 0.  1.
<mgrwt>
<rscale>  0 0.12267106E+04</rscale>
<asrwt>0</asrwt>
<pdfrwt beam="1">  1        2 0.13605100E+00 0.12267106E+04</pdfrwt>
<pdfrwt beam="2">  1       -1 0.65447911E-01 0.12267106E+04</pdfrwt>
<totfact> 0.79961094E+01</totfact>
</mgrwt>
</event>
<event>
12    7  0.1546317E-007  0.2216105E+04  0.7818608E-02  0.8511755E-01
         -1   -1    0    0    0  501 -0.00000000000E+00  0.00000000000E+00  0.14711756373E+04  0.14711756373E+04  0.00000000000E+00 0.  1.
          2   -1    0    0  501    0  0.00000000000E+00 -0.00000000000E+00 -0.83455702308E+03  0.83455702308E+03  0.00000000000E+00 0. -1.
         24    2    1    2    0    0  0.39176523667E+03  0.21039630576E+03  0.10987951940E+04  0.11881597641E+04  0.81401109269E+02 0.  0.
        254    2    1    2    0    0 -0.39176523667E+03 -0.21039630576E+03 -0.46217657978E+03  0.11175728963E+04  0.91521329832E+03 0.  0.
         23    2    4    4    0    0 -0.28726558674E+03 -0.32707644612E+03  0.15735440597E+03  0.47159757310E+03  0.90240472834E+02 0.  0.
         23    2    4    4    0    0 -0.10449964993E+03  0.11668014036E+03 -0.61953098575E+03  0.64597532316E+03  0.94504200145E+02 0.  0.
          2    1    3    3  502    0  0.43754700363E+02  0.49602658955E+02  0.21116580524E+03  0.22128238719E+03  0.00000000000E+00 0. -1.
         -1    1    3    3    0  502  0.34801053631E+03  0.16079364680E+03  0.88762938873E+03  0.96687737691E+03  0.00000000000E+00 0.  1.
         13    1    5    5    0    0 -0.42535578912E+02 -0.11105174171E+02  0.25089459332E+02  0.50617006394E+02  0.00000000000E+00 0.  1.
        -13    1    5    5    0    0 -0.24473000783E+03 -0.31597127195E+03  0.13226494664E+03  0.42098056670E+03  0.00000000000E+00 0. -1.
          2    1    6    6  503    0  0.40995254531E+01  0.59131123015E+02 -0.22999275729E+03  0.23750781929E+03  0.00000000000E+00 0.  1.
         -2    1    6    6    0  503 -0.10859917538E+03  0.57549017347E+02 -0.38953822845E+03  0.40846750387E+03  0.00000000000E+00 0. -1.
<mgrwt>
<rscale>  0 0.22161047E+04</rscale>
<asrwt>0</asrwt>
<pdfrwt beam="1">  1        2 0.12839339E+00 0.22161047E+04</pdfrwt>
<pdfrwt beam="2">  1       -1 0.22633471E+00 0.22161047E+04</pdfrwt>
<totfact> 0.33830505E+00</totfact>
</mgrwt>
</event>
<event>
12    7  0.1546317E-007  0.1883741E+04  0.7818608E-02  0.8662992E-01
         -1   -1    0    0    0  501 -0.00000000000E+00  0.00000000000E+00  0.50442208440E+03  0.50442208440E+03  0.00000000000E+00 0.  1.
          2   -1    0    0  501    0  0.00000000000E+00 -0.00000000000E+00 -0.17586856257E+04  0.17586856257E+04  0.00000000000E+00 0. -1.
         24    2    1    2    0    0  0.19780562062E+03 -0.61502436668E+03 -0.79494315233E+02  0.65597135764E+03  0.81222168988E+02 0.  0.
        254    2    1    2    0    0 -0.19780562062E+03  0.61502436668E+03 -0.11747692260E+04  0.16071363524E+04  0.88624064773E+03 0.  0.
         23    2    4    4    0    0 -0.37260820926E+03 -0.60306260101E+02 -0.49502438034E+03  0.62896198460E+03  0.89834950453E+02 0.  0.
         23    2    4    4    0    0  0.17480258864E+03  0.67533062678E+03 -0.67974484568E+03  0.97817436781E+03  0.90247649012E+02 0.  0.
          4    1    3    3  502    0  0.30428216791E+02 -0.21046499097E+03 -0.39940907452E+02  0.21637158984E+03  0.00000000000E+00 0. -1.
         -3    1    3    3    0  502  0.16737740383E+03 -0.40455937571E+03 -0.39553407781E+02  0.43959976781E+03  0.00000000000E+00 0.  1.
         13    1    5    5    0    0 -0.28860213231E+03 -0.74850080190E+01 -0.37350379941E+03  0.47207235070E+03  0.00000000000E+00 0. -1.
        -13    1    5    5    0    0 -0.84006076954E+02 -0.52821252082E+02 -0.12152058094E+03  0.15688963391E+03  0.00000000000E+00 0.  1.
          4    1    6    6  503    0  0.12051792155E+03  0.29020138022E+03 -0.31629616130E+03  0.44585274715E+03  0.00000000000E+00 0. -1.
         -4    1    6    6    0  503  0.54284667098E+02  0.38512924656E+03 -0.36344868438E+03  0.53232162066E+03  0.00000000000E+00 0.  1.
<mgrwt>
<rscale>  0 0.18837408E+04</rscale>
<asrwt>0</asrwt>
<pdfrwt beam="1">  1        2 0.27056702E+00 0.18837408E+04</pdfrwt>
<pdfrwt beam="2">  1       -1 0.77603397E-01 0.18837408E+04</pdfrwt>
<totfact> 0.16167094E+01</totfact>
</mgrwt>
</event>
<event>
12    7  0.1546317E-007  0.2946674E+04  0.7818608E-02  0.8259124E-01
          2   -1    0    0  501    0  0.00000000000E+00  0.00000000000E+00  0.41989750852E+04  0.41989750852E+04  0.00000000000E+00 0. -1.
         -1   -1    0    0    0  501 -0.00000000000E+00 -0.00000000000E+00 -0.51696480483E+03  0.51696480483E+03  0.00000000000E+00 0.  1.
         24    2    1    2    0    0 -0.68798634260E+02 -0.13152592730E+04  0.20407329748E+04  0.24301227377E+04  0.79153259305E+02 0.  0.
        254    2    1    2    0    0  0.68798634260E+02  0.13152592730E+04  0.16412773056E+04  0.22858171523E+04  0.89248453932E+03 0.  0.
         23    2    4    4    0    0 -0.90425750959E+02 -0.59191288254E+02  0.40174158564E+03  0.42599271215E+03  0.91613667829E+02 0.  0.
         23    2    4    4    0    0  0.15922438522E+03  0.13744505612E+04  0.12395357199E+04  0.18598244402E+04  0.89618062973E+02 0.  0.
          4    1    3    3  502    0  0.22703741493E+00 -0.22678793733E+03  0.30291439941E+03  0.37840448389E+03  0.00000000000E+00 0. -1.
         -1    1    3    3    0  502 -0.69025671675E+02 -0.10884713357E+04  0.17378185754E+04  0.20517182538E+04  0.00000000000E+00 0.  1.
         13    1    5    5    0    0 -0.62734571548E+02 -0.73246888414E+02  0.20187578938E+03  0.22372878105E+03  0.00000000000E+00 0. -1.
        -13    1    5    5    0    0 -0.27691179411E+02  0.14055600160E+02  0.19986579626E+03  0.20226393111E+03  0.00000000000E+00 0.  1.
          1    1    6    6  503    0  0.16921672268E+03  0.12701268781E+04  0.11572091446E+04  0.17265542534E+04  0.00000000000E+00 0. -1.
         -1    1    6    6    0  503 -0.99923374661E+01  0.10432368318E+03  0.82326575314E+02  0.13327018678E+03  0.00000000000E+00 0.  1.
<mgrwt>
<rscale>  0 0.29466743E+04</rscale>
<asrwt>0</asrwt>
<pdfrwt beam="1">  1        2 0.64599614E+00 0.29466743E+04</pdfrwt>
<pdfrwt beam="2">  1       -1 0.79533050E-01 0.29466743E+04</pdfrwt>
<totfact> 0.35946251E-01</totfact>
</mgrwt>
</event>
<event>
12    7  0.1546317E-007  0.1638269E+04  0.7818608E-02  0.8797377E-01
          2   -1    0    0  501    0  0.00000000000E+00  0.00000000000E+00  0.77464143235E+03  0.77464143235E+03  0.00000000000E+00 0. -1.
         -1   -1    0    0    0  501 -0.00000000000E+00 -0.00000000000E+00 -0.86618343639E+03  0.86618343639E+03  0.00000000000E+00 0.  1.
         24    2    1    2    0    0  0.48231949363E+03 -0.16730261185E+03 -0.27465579952E+03  0.58583221080E+03  0.84506290475E+02 0.  0.
        254    2    1    2    0    0 -0.48231949363E+03  0.16730261185E+03  0.18311379548E+03  0.10549926579E+04  0.90490695010E+03 0.  0.
         23    2    4    4    0    0 -0.27766828404E+03  0.53014625431E+03  0.48291755224E+02  0.60777781571E+03  0.94377183247E+02 0.  0.
         23    2    4    4    0    0 -0.20465120959E+03 -0.36284364246E+03  0.13482204026E+03  0.44721484224E+03  0.91030248356E+02 0.  0.
          4    1    3    3  502    0  0.10564180938E+03 -0.51858368331E+02 -0.27837428796E+02  0.12093140493E+03  0.00000000000E+00 0. -1.
         -3    1    3    3    0  502  0.37667768425E+03 -0.11544424352E+03 -0.24681837073E+03  0.46490080587E+03  0.00000000000E+00 0.  1.
         13    1    5    5    0    0 -0.25453745910E+03  0.46393028117E+03  0.13164494854E+02  0.52933347504E+03  0.00000000000E+00 0. -1.
        -13    1    5    5    0    0 -0.23130824942E+02  0.66215973140E+02  0.35127260370E+02  0.78444340666E+02  0.00000000000E+00 0.  1.
          3    1    6    6  503    0 -0.32053154519E+02 -0.11661332365E+03  0.69560524553E+02  0.13951608705E+03  0.00000000000E+00 0. -1.
         -3    1    6    6    0  503 -0.17259805507E+03 -0.24623031881E+03  0.65261515707E+02  0.30769875519E+03  0.00000000000E+00 0.  1.
<mgrwt>
<rscale>  0 0.16382693E+04</rscale>
<asrwt>0</asrwt>
<pdfrwt beam="1">  1        2 0.11917560E+00 0.16382693E+04</pdfrwt>
<pdfrwt beam="2">  1       -1 0.13325899E+00 0.16382693E+04</pdfrwt>
<totfact> 0.18690729E+01</totfact>
</mgrwt>
</event>
<event>
12    7  0.1546317E-007  0.1089413E+04  0.7818608E-02  0.9215573E-01
          2   -1    0    0  501    0  0.00000000000E+00  0.00000000000E+00  0.25189004286E+04  0.25189004286E+04  0.00000000000E+00 0. -1.
         -1   -1    0    0    0  501 -0.00000000000E+00 -0.00000000000E+00 -0.11779148937E+03  0.11779148937E+03  0.00000000000E+00 0.  1.
         24    2    1    2    0    0 -0.93041433393E+02  0.51972575726E+02  0.66456218343E+03  0.67771548942E+03  0.79356990797E+02 0.  0.
        254    2    1    2    0    0  0.93041433393E+02 -0.51972575726E+02  0.17365467558E+04  0.19589764285E+04  0.90035335043E+03 0.  0.
         23    2    4    4    0    0  0.14626137876E+03  0.27043868161E+03  0.18633528666E+03  0.37204405926E+03  0.95741691815E+02 0.  0.
         23    2    4    4    0    0 -0.53219945366E+02 -0.32241125734E+03  0.15502114691E+04  0.15869323693E+04  0.91746194667E+02 0.  0.
          4    1    3    3  502    0 -0.99265918289E+02  0.23197650899E+02  0.55399276463E+03  0.56329373936E+03  0.00000000000E+00 0. -1.
         -3    1    3    3    0  502  0.62244848957E+01  0.28774924826E+02  0.11056941880E+03  0.11442175006E+03  0.00000000000E+00 0.  1.
         13    1    5    5    0    0  0.94912749732E+01 -0.74877684131E+01  0.94147589802E+01  0.15322815116E+02  0.00000000000E+00 0.  1.
        -13    1    5    5    0    0  0.13677010379E+03  0.27792645002E+03  0.17692052768E+03  0.35672124415E+03  0.00000000000E+00 0. -1.
          2    1    6    6  503    0 -0.40184456469E+02 -0.28240288373E+03  0.11642696284E+04  0.11987034441E+04  0.00000000000E+00 0. -1.
         -2    1    6    6    0  503 -0.13035488897E+02 -0.40008373607E+02  0.38594184069E+03  0.38822892515E+03  0.00000000000E+00 0.  1.
<mgrwt>
<rscale>  0 0.10894127E+04</rscale>
<asrwt>0</asrwt>
<pdfrwt beam="1">  1        2 0.38752310E+00 0.10894127E+04</pdfrwt>
<pdfrwt beam="2">  1       -1 0.18121770E-01 0.10894127E+04</pdfrwt>
<totfact> 0.93492334E+01</totfact>
</mgrwt>
</event>
<event>
12    7  0.1546317E-007  0.1348123E+04  0.7818608E-02  0.8992250E-01
         -1   -1    0    0    0  501 -0.00000000000E+00  0.00000000000E+00  0.39038617565E+03  0.39038617565E+03  0.00000000000E+00 0.  1.
          2   -1    0    0  501    0  0.00000000000E+00 -0.00000000000E+00 -0.11638698464E+04  0.11638698464E+04  0.00000000000E+00 0. -1.
         24    2    1    2    0    0 -0.15826714548E+03  0.20815447765E+03 -0.52075022339E+03  0.58812722699E+03  0.79599397375E+02 0.  0.
        254    2    1    2    0    0  0.15826714548E+03 -0.20815447765E+03 -0.25273344732E+03  0.96612879501E+03  0.89507199557E+03 0.  0.
         23    2    4    4    0    0 -0.75186786209E+02 -0.14132605469E+03 -0.54538385593E+03  0.57568882360E+03  0.91367197335E+02 0.  0.
         23    2    4    4    0    0  0.23345393168E+03 -0.66828422966E+02  0.29265040861E+03  0.39043997142E+03  0.88500470544E+02 0.  0.
          2    1    3    3  502    0 -0.15626092213E+03  0.19229801924E+03 -0.51432828542E+03  0.57090243402E+03  0.00000000000E+00 0. -1.
         -1    1    3    3    0  502 -0.20062233484E+01  0.15856458412E+02 -0.64219379669E+01  0.17224792966E+02  0.00000000000E+00 0.  1.
         13    1    5    5    0    0 -0.11283175726E+02 -0.10225948348E+03 -0.23749639555E+03  0.25882204295E+03  0.00000000000E+00 0. -1.
        -13    1    5    5    0    0 -0.63903610483E+02 -0.39066571207E+02 -0.30788746038E+03  0.31686678065E+03  0.00000000000E+00 0.  1.
          2    1    6    6  503    0  0.15946249124E+03 -0.15968984232E+01  0.17092441625E+03  0.23376482256E+03  0.00000000000E+00 0. -1.
         -2    1    6    6    0  503  0.73991440446E+02 -0.65231524542E+02  0.12172599236E+03  0.15667514886E+03  0.00000000000E+00 0.  1.
<mgrwt>
<rscale>  0 0.13481227E+04</rscale>
<asrwt>0</asrwt>
<pdfrwt beam="1">  1        2 0.17905689E+00 0.13481227E+04</pdfrwt>
<pdfrwt beam="2">  1       -1 0.60059414E-01 0.13481227E+04</pdfrwt>
<totfact> 0.62352439E+01</totfact>
</mgrwt>
</event>
<event>
12    7  0.1701108E-007  0.2030836E+04  0.7818608E-02  0.8592338E-01
          2   -1    0    0  501    0  0.00000000000E+00  0.00000000000E+00  0.16288811885E+04  0.16288811885E+04  0.00000000000E+00 0. -1.
         -1   -1    0    0    0  501 -0.00000000000E+00 -0.00000000000E+00 -0.63299505069E+03  0.63299505069E+03  0.00000000000E+00 0.  1.
         24    2    1    2    0    0 -0.54990194116E+03 -0.56038417837E+03  0.16100068920E+03  0.80551025925E+03  0.80641078729E+02 0.  0.
        254    2    1    2    0    0  0.54990194116E+03  0.56038417837E+03  0.83488544860E+03  0.14563659799E+04  0.89863540045E+03 0.  0.
         23    2    4    4    0    0 -0.15903789045E+03 -0.21192683599E+02 -0.35909046189E+02  0.18852708131E+03  0.92254107504E+02 0.  0.
         23    2    4    4    0    0  0.70893983161E+03  0.58157686197E+03  0.87079449479E+03  0.12678388986E+04  0.91132263628E+02 0.  0.
          2    1    3    3  502    0 -0.15569094199E+03 -0.17437306153E+03  0.12277834146E+02  0.23408626447E+03  0.00000000000E+00 0. -1.
         -1    1    3    3    0  502 -0.39421099917E+03 -0.38601111684E+03  0.14872285505E+03  0.57142399478E+03  0.00000000000E+00 0.  1.
         13    1    5    5    0    0 -0.16053198106E+03  0.10123393231E+01 -0.41018904938E+02  0.16569276489E+03  0.00000000000E+00 0. -1.
        -13    1    5    5    0    0  0.14940906147E+01 -0.22205022922E+02  0.51098587489E+01  0.22834316415E+02  0.00000000000E+00 0.  1.
          3    1    6    6  503    0  0.59471345897E+03  0.47956166440E+03  0.67655369773E+03  0.10204843919E+04  0.00000000000E+00 0. -1.
         -3    1    6    6    0  503  0.11422637264E+03  0.10201519757E+03  0.19424079705E+03  0.24735450669E+03  0.00000000000E+00 0.  1.
<mgrwt>
<rscale>  0 0.20308360E+04</rscale>
<asrwt>0</asrwt>
<pdfrwt beam="1">  1        2 0.25059711E+00 0.20308360E+04</pdfrwt>
<pdfrwt beam="2">  1       -1 0.97383854E-01 0.20308360E+04</pdfrwt>
<totfact> 0.11483602E+01</totfact>
</mgrwt>
</event>
<event>
12    7  0.1546317E-007  0.1683303E+04  0.7818608E-02  0.8770945E-01
          2   -1    0    0  501    0  0.00000000000E+00  0.00000000000E+00  0.23933294968E+04  0.23933294968E+04  0.00000000000E+00 0. -1.
         -1   -1    0    0    0  501 -0.00000000000E+00 -0.00000000000E+00 -0.29597969056E+03  0.29597969056E+03  0.00000000000E+00 0.  1.
         24    2    1    2    0    0  0.23947362497E+03 -0.16744797544E+03 -0.87184565255E+02  0.31545865060E+03  0.80787191338E+02 0.  0.
        254    2    1    2    0    0 -0.23947362497E+03  0.16744797544E+03  0.21845343714E+04  0.23738505367E+04  0.88181035893E+03 0.  0.
         23    2    4    4    0    0 -0.85750933445E+02 -0.21754173180E+03  0.17445855823E+04  0.17625804573E+04  0.91833473390E+02 0.  0.
         23    2    4    4    0    0 -0.15372269152E+03  0.38498970724E+03  0.43994878913E+03  0.61127007940E+03  0.90820880553E+02 0.  0.
          2    1    3    3  502    0  0.10896932688E+01 -0.24218702503E+02 -0.13546272940E+02  0.27771108961E+02  0.00000000000E+00 0. -1.
         -3    1    3    3    0  502  0.23838393170E+03 -0.14322927294E+03 -0.73638292315E+02  0.28768754164E+03  0.00000000000E+00 0.  1.
         13    1    5    5    0    0 -0.36529238600E+01 -0.13029691572E+03  0.82750257911E+03  0.83770588427E+03  0.00000000000E+00 0.  1.
        -13    1    5    5    0    0 -0.82098009585E+02 -0.87244816076E+02  0.91708300320E+03  0.92487457305E+03  0.00000000000E+00 0. -1.
          3    1    6    6  503    0 -0.94908525295E+02  0.33129572598E+03  0.35167168933E+03  0.49237938960E+03  0.00000000000E+00 0. -1.
         -3    1    6    6    0  503 -0.58814166226E+02  0.53693981262E+02  0.88277099798E+02  0.11889068980E+03  0.00000000000E+00 0.  1.
<mgrwt>
<rscale>  0 0.16833026E+04</rscale>
<asrwt>0</asrwt>
<pdfrwt beam="1">  1        2 0.36820452E+00 0.16833026E+04</pdfrwt>
<pdfrwt beam="2">  1       -1 0.45535339E-01 0.16833026E+04</pdfrwt>
<totfact> 0.20870528E+01</totfact>
</mgrwt>
</event>
<event>
12    7  0.1546317E-007  0.1846459E+04  0.7818608E-02  0.8681976E-01
         -1   -1    0    0    0  501 -0.00000000000E+00  0.00000000000E+00  0.41091262058E+03  0.41091262058E+03  0.00000000000E+00 0.  1.
          2   -1    0    0  501    0  0.00000000000E+00 -0.00000000000E+00 -0.20742923515E+04  0.20742923515E+04  0.00000000000E+00 0. -1.
         24    2    1    2    0    0 -0.10623667733E+03 -0.25100222893E+03  0.23441327723E+03  0.36805468116E+03  0.78906991111E+02 0.  0.
        254    2    1    2    0    0  0.10623667733E+03  0.25100222893E+03 -0.18977930081E+04  0.21171502909E+04  0.89800818591E+03 0.  0.
         23    2    4    4    0    0  0.39930546826E+03  0.26392308253E+03 -0.16539081551E+04  0.17243844282E+04  0.94811498031E+02 0.  0.
         23    2    4    4    0    0 -0.29306879094E+03 -0.12920853598E+02 -0.24388485305E+03  0.39276586273E+03  0.93428778751E+02 0.  0.
          4    1    3    3  502    0 -0.28200858707E+02 -0.23703338712E+02  0.62590299007E+02  0.72627007564E+02  0.00000000000E+00 0. -1.
         -3    1    3    3    0  502 -0.78035818620E+02 -0.22729889022E+03  0.17182297822E+03  0.29542767360E+03  0.00000000000E+00 0.  1.
         13    1    5    5    0    0  0.60122178459E+02  0.50980613817E+02 -0.41285207527E+03  0.42031004673E+03  0.00000000000E+00 0. -1.
        -13    1    5    5    0    0  0.33918328980E+03  0.21294246871E+03 -0.12410560798E+04  0.13040743814E+04  0.00000000000E+00 0.  1.
          3    1    6    6  503    0 -0.83728509796E+02  0.19078670192E+02 -0.11953722141E+03  0.14718561856E+03  0.00000000000E+00 0. -1.
         -3    1    6    6    0  503 -0.20934028114E+03 -0.31999523790E+02 -0.12434763164E+03  0.24558024417E+03  0.00000000000E+00 0.  1.
<mgrwt>
<rscale>  0 0.18464592E+04</rscale>
<asrwt>0</asrwt>
<pdfrwt beam="1">  1        2 0.31912190E+00 0.18464592E+04</pdfrwt>
<pdfrwt beam="2">  1       -1 0.63217326E-01 0.18464592E+04</pdfrwt>
<totfact> 0.16509639E+01</totfact>
</mgrwt>
</event>
<event>
12    7  0.1546317E-007  0.1783846E+04  0.7818608E-02  0.8714937E-01
          2   -1    0    0  501    0  0.00000000000E+00  0.00000000000E+00  0.25473598923E+04  0.25473598923E+04  0.00000000000E+00 0. -1.
         -1   -1    0    0    0  501 -0.00000000000E+00 -0.00000000000E+00 -0.31229473340E+03  0.31229473340E+03  0.00000000000E+00 0.  1.
         24    2    1    2    0    0 -0.24369650334E+03 -0.44962987456E+02 -0.14845242291E+03  0.29952601125E+03  0.79171039961E+02 0.  0.
        254    2    1    2    0    0  0.24369650334E+03  0.44962987456E+02  0.23835175818E+04  0.25601286144E+04  0.90093995570E+03 0.  0.
         23    2    4    4    0    0  0.26747248898E+03  0.30549542861E+03  0.21731767821E+04  0.22126111229E+04  0.89898084714E+02 0.  0.
         23    2    4    4    0    0 -0.23775985640E+02 -0.26053244116E+03  0.21034079974E+03  0.34751749159E+03  0.89903862752E+02 0.  0.
          2    1    3    3  502    0 -0.45887837905E+02  0.18295160762E+02 -0.11389143834E+02  0.50696342789E+02  0.00000000000E+00 0. -1.
         -1    1    3    3    0  502 -0.19780866544E+03 -0.63258148219E+02 -0.13706327907E+03  0.24882966846E+03  0.00000000000E+00 0.  1.
         13    1    5    5    0    0  0.26483621086E+03  0.27195136377E+03  0.20536714632E+04  0.20884592985E+04  0.00000000000E+00 0.  1.
        -13    1    5    5    0    0  0.26362781242E+01  0.33544064842E+02  0.11950531884E+03  0.12415182431E+03  0.00000000000E+00 0. -1.
          1    1    6    6  503    0 -0.12187344661E+02 -0.25153394025E+03  0.16804469441E+03  0.30274886257E+03  0.00000000000E+00 0.  1.
         -1    1    6    6    0  503 -0.11588640979E+02 -0.89985009035E+01  0.42296105326E+02  0.44768629016E+02  0.00000000000E+00 0. -1.
<mgrwt>
<rscale>  0 0.17838465E+04</rscale>
<asrwt>0</asrwt>
<pdfrwt beam="1">  1        2 0.39190151E+00 0.17838465E+04</pdfrwt>
<pdfrwt beam="2">  1       -1 0.48045345E-01 0.17838465E+04</pdfrwt>
<totfact> 0.15247159E+01</totfact>
</mgrwt>
</event>
<event>
12    7  0.1546317E-007  0.4346045E+04  0.7818608E-02  0.7938158E-01
         -1   -1    0    0    0  501 -0.00000000000E+00  0.00000000000E+00  0.12372467053E+04  0.12372467053E+04  0.00000000000E+00 0.  1.
          2   -1    0    0  501    0  0.00000000000E+00 -0.00000000000E+00 -0.38165603622E+04  0.38165603622E+04  0.00000000000E+00 0. -1.
         24    2    1    2    0    0 -0.77813359166E+03 -0.13064119014E+04  0.41280988656E+03  0.15776783438E+04  0.80330637661E+02 0.  0.
        254    2    1    2    0    0  0.77813359166E+03  0.13064119014E+04 -0.29921235435E+04  0.34761287237E+04  0.90468981497E+03 0.  0.
         23    2    4    4    0    0 -0.14747997442E+03  0.37849798132E+03 -0.10680999847E+04  0.11463472162E+04  0.90902684826E+02 0.  0.
         23    2    4    4    0    0  0.92561356608E+03  0.92791392012E+03 -0.19240235587E+04  0.23297815074E+04  0.90722107443E+02 0.  0.
          4    1    3    3  502    0 -0.94970939610E+02 -0.21519234985E+03  0.58390761963E+02  0.24235657178E+03  0.00000000000E+00 0. -1.
         -3    1    3    3    0  502 -0.68316265205E+03 -0.10912195516E+04  0.35441912460E+03  0.13353217720E+04  0.00000000000E+00 0.  1.
         13    1    5    5    0    0 -0.70536858572E+01  0.27404872589E+02 -0.28716423683E+02  0.40316429839E+02  0.00000000000E+00 0. -1.
        -13    1    5    5    0    0 -0.14042628856E+03  0.35109310873E+03 -0.10393835610E+04  0.11060307864E+04  0.00000000000E+00 0.  1.
          2    1    6    6  503    0  0.72215676673E+02  0.52140719043E+02 -0.16464517388E+03  0.18719452935E+03  0.00000000000E+00 0. -1.
         -2    1    6    6    0  503  0.85339788941E+03  0.87577320107E+03 -0.17593783849E+04  0.21425869781E+04  0.00000000000E+00 0.  1.
<mgrwt>
<rscale>  0 0.43460450E+04</rscale>
<asrwt>0</asrwt>
<pdfrwt beam="1">  1        2 0.58716313E+00 0.43460450E+04</pdfrwt>
<pdfrwt beam="2">  1       -1 0.19034565E+00 0.43460450E+04</pdfrwt>
<totfact> 0.72731323E-02</totfact>
</mgrwt>
</event>
<event>
12    7  0.1546317E-007  0.1540837E+04  0.7818608E-02  0.8857742E-01
          2   -1    0    0  501    0  0.00000000000E+00  0.00000000000E+00  0.32330096114E+04  0.32330096114E+04  0.00000000000E+00 0. -1.
         -1   -1    0    0    0  501 -0.00000000000E+00 -0.00000000000E+00 -0.18358879105E+03  0.18358879105E+03  0.00000000000E+00 0.  1.
         24    2    1    2    0    0  0.35474621256E+03 -0.30451527680E+03  0.40933038994E+03  0.62628804658E+03  0.78172373770E+02 0.  0.
        254    2    1    2    0    0 -0.35474621256E+03  0.30451527680E+03  0.26400904304E+04  0.27903103559E+04  0.77277420524E+03 0.  0.
         23    2    4    4    0    0 -0.17916755821E+03  0.39646103531E+03  0.64525519727E+03  0.78351280972E+03  0.90860810943E+02 0.  0.
         23    2    4    4    0    0 -0.17557865435E+03 -0.91945758513E+02  0.19948352331E+04  0.20067975462E+04  0.92665514157E+02 0.  0.
          4    1    3    3  502    0  0.27114468759E+02 -0.32409952074E+02  0.69904556668E+02  0.81683820017E+02  0.00000000000E+00 0. -1.
         -3    1    3    3    0  502  0.32763174381E+03 -0.27210532472E+03  0.33942583328E+03  0.54460422656E+03  0.00000000000E+00 0.  1.
         13    1    5    5    0    0 -0.17649342488E+03  0.40159331602E+03  0.63693909252E+03  0.77338123075E+03  0.00000000000E+00 0. -1.
        -13    1    5    5    0    0 -0.26741333310E+01 -0.51322807071E+01  0.83161047464E+01  0.10131578973E+02  0.00000000000E+00 0.  1.
          1    1    6    6  503    0 -0.86747647737E+02 -0.79266813610E+02  0.14364548627E+04  0.14412532583E+04  0.00000000000E+00 0. -1.
         -1    1    6    6    0  503 -0.88831006616E+02 -0.12678944904E+02  0.55838037048E+03  0.56554428785E+03  0.00000000000E+00 0.  1.
<mgrwt>
<rscale>  0 0.15408366E+04</rscale>
<asrwt>0</asrwt>
<pdfrwt beam="1">  1        2 0.49738605E+00 0.15408366E+04</pdfrwt>
<pdfrwt beam="2">  1       -1 0.28244432E-01 0.15408366E+04</pdfrwt>
<totfact> 0.15491425E+01</totfact>
</mgrwt>
</event>
<event>
12    7  0.1546317E-007  0.3151869E+04  0.7818608E-02  0.8201645E-01
         -1   -1    0    0    0  501 -0.00000000000E+00  0.00000000000E+00  0.11237564416E+04  0.11237564416E+04  0.00000000000E+00 0.  1.
          2   -1    0    0  501    0  0.00000000000E+00 -0.00000000000E+00 -0.22100602746E+04  0.22100602746E+04  0.00000000000E+00 0. -1.
         24    2    1    2    0    0 -0.49212184581E+03  0.10970038212E+03 -0.19470295244E+04  0.20132738466E+04  0.90163894239E+02 0.  0.
        254    2    1    2    0    0  0.49212184581E+03 -0.10970038212E+03  0.86072569134E+03  0.13205428696E+04  0.86531304728E+03 0.  0.
         23    2    4    4    0    0  0.46702400774E+03  0.18751645234E+03  0.86795312547E+03  0.10073069671E+04  0.89726553076E+02 0.  0.
         23    2    4    4    0    0  0.25097838073E+02 -0.29721683446E+03 -0.72274341311E+01  0.31323590247E+03  0.95376866334E+02 0.  0.
          4    1    3    3  502    0 -0.41539744522E+03  0.63339127191E+02 -0.16725709257E+04  0.17245464285E+04  0.00000000000E+00 0. -1.
         -3    1    3    3    0  502 -0.76724400587E+02  0.46361254924E+02 -0.27445859862E+03  0.28872741809E+03  0.00000000000E+00 0.  1.
         13    1    5    5    0    0  0.78813272916E+02  0.45672217957E+02  0.22761126063E+03  0.24516192495E+03  0.00000000000E+00 0.  1.
        -13    1    5    5    0    0  0.38821073482E+03  0.14184423439E+03  0.64034186484E+03  0.76214504218E+03  0.00000000000E+00 0. -1.
          4    1    6    6  503    0 -0.26238387226E+02 -0.17232777050E+03  0.20103258451E+02  0.17546924075E+03  0.00000000000E+00 0. -1.
         -4    1    6    6    0  503  0.51336225299E+02 -0.12488906396E+03 -0.27330692582E+02  0.13776666172E+03  0.00000000000E+00 0.  1.
<mgrwt>
<rscale>  0 0.31518690E+04</rscale>
<asrwt>0</asrwt>
<pdfrwt beam="1">  1        2 0.34000927E+00 0.31518690E+04</pdfrwt>
<pdfrwt beam="2">  1       -1 0.17288561E+00 0.31518690E+04</pdfrwt>
<totfact> 0.11481805E+00</totfact>
</mgrwt>
</event>
<event>
12    7  0.1546317E-007  0.1754609E+04  0.7818608E-02  0.8730817E-01
          2   -1    0    0  501    0  0.00000000000E+00  0.00000000000E+00  0.22092137581E+04  0.22092137581E+04  0.00000000000E+00 0. -1.
         -1   -1    0    0    0  501 -0.00000000000E+00 -0.00000000000E+00 -0.34838775721E+03  0.34838775721E+03  0.00000000000E+00 0.  1.
         24    2    1    2    0    0  0.40383795122E+03 -0.38255005076E+03  0.90331873207E+03  0.10642107446E+04  0.84440185944E+02 0.  0.
        254    2    1    2    0    0 -0.40383795122E+03  0.38255005076E+03  0.95750726880E+03  0.14933907707E+04  0.10019811336E+04 0.  0.
         23    2    4    4    0    0 -0.26595844582E+03  0.68317941113E+03  0.40344233422E+03  0.84178504963E+03  0.91478686319E+02 0.  0.
         23    2    4    4    0    0 -0.13787950539E+03 -0.30062936037E+03  0.55406493459E+03  0.65160572107E+03  0.90627223673E+02 0.  0.
          2    1    3    3  502    0  0.93531608604E+02 -0.87221998322E+02  0.28065823763E+03  0.30842322407E+03  0.00000000000E+00 0. -1.
         -1    1    3    3    0  502  0.31030634261E+03 -0.29532805244E+03  0.62266049444E+03  0.75578752051E+03  0.00000000000E+00 0.  1.
         13    1    5    5    0    0 -0.10731988357E+03  0.31611046015E+03  0.23295269404E+03  0.40707534694E+03  0.00000000000E+00 0. -1.
        -13    1    5    5    0    0 -0.15863856225E+03  0.36706895098E+03  0.17048964017E+03  0.43470970269E+03  0.00000000000E+00 0.  1.
          4    1    6    6  503    0 -0.26271678421E+02 -0.76992025087E+01  0.27547373960E+02  0.38837309619E+02  0.00000000000E+00 0. -1.
         -4    1    6    6    0  503 -0.11160782697E+03 -0.29293015786E+03  0.52651756063E+03  0.61276841145E+03  0.00000000000E+00 0.  1.
<mgrwt>
<rscale>  0 0.17546088E+04</rscale>
<asrwt>0</asrwt>
<pdfrwt beam="1">  1        2 0.33987903E+00 0.17546088E+04</pdfrwt>
<pdfrwt beam="2">  1       -1 0.53598118E-01 0.17546088E+04</pdfrwt>
<totfact> 0.19345908E+01</totfact>
</mgrwt>
</event>
<event>
12    7  0.1546317E-007  0.2058216E+04  0.7818608E-02  0.8579876E-01
         -1   -1    0    0    0  501 -0.00000000000E+00  0.00000000000E+00  0.32717984324E+03  0.32717984324E+03  0.00000000000E+00 0.  1.
          2   -1    0    0  501    0  0.00000000000E+00 -0.00000000000E+00 -0.32369446285E+04  0.32369446285E+04  0.00000000000E+00 0. -1.
         24    2    1    2    0    0  0.34946000759E+03 -0.27301117622E+03 -0.24131563779E+04  0.24552781207E+04  0.91703581571E+02 0.  0.
        254    2    1    2    0    0 -0.34946000759E+03  0.27301117622E+03 -0.49660840737E+03  0.11088463510E+04  0.88671467821E+03 0.  0.
         23    2    4    4    0    0  0.19420844051E+03 -0.38341344917E+02  0.99148375987E+02  0.23925399085E+03  0.90692307179E+02 0.  0.
         23    2    4    4    0    0 -0.54366844810E+03  0.31135252113E+03 -0.59575678336E+03  0.86959236013E+03  0.93535843421E+02 0.  0.
          4    1    3    3  502    0  0.21891469758E+03 -0.11537059580E+03 -0.13888481225E+04  0.14107207827E+04  0.00000000000E+00 0. -1.
         -3    1    3    3    0  502  0.13054531001E+03 -0.15764058042E+03 -0.10243082553E+04  0.10445573380E+04  0.00000000000E+00 0.  1.
         13    1    5    5    0    0  0.19875536874E+02 -0.38279732212E+02  0.24565667171E+02  0.49637152092E+02  0.00000000000E+00 0.  1.
        -13    1    5    5    0    0  0.17433290364E+03 -0.61612704693E-01  0.74582708816E+02  0.18961683876E+03  0.00000000000E+00 0. -1.
          4    1    6    6  503    0 -0.48789498187E+03  0.26079425276E+03 -0.48525401855E+03  0.73588492180E+03  0.00000000000E+00 0. -1.
         -4    1    6    6    0  503 -0.55773466230E+02  0.50558268373E+02 -0.11050276480E+03  0.13370743833E+03  0.00000000000E+00 0.  1.
<mgrwt>
<rscale>  0 0.20582158E+04</rscale>
<asrwt>0</asrwt>
<pdfrwt beam="1">  1        2 0.49799147E+00 0.20582158E+04</pdfrwt>
<pdfrwt beam="2">  1       -1 0.50335361E-01 0.20582158E+04</pdfrwt>
<totfact> 0.51315795E+00</totfact>
</mgrwt>
</event>
<event>
12    7  0.1546317E-007  0.1482061E+04  0.7818608E-02  0.8896471E-01
          2   -1    0    0  501    0  0.00000000000E+00  0.00000000000E+00  0.14460866766E+04  0.14460866766E+04  0.00000000000E+00 0. -1.
         -1   -1    0    0    0  501 -0.00000000000E+00 -0.00000000000E+00 -0.37973242088E+03  0.37973242088E+03  0.00000000000E+00 0.  1.
         24    2    1    2    0    0 -0.23342521221E+03  0.24029872941E+03  0.74284686532E+03  0.81872620646E+03  0.79122226802E+02 0.  0.
        254    2    1    2    0    0  0.23342521221E+03 -0.24029872941E+03  0.32350739036E+03  0.10070928910E+04  0.89294358747E+03 0.  0.
         23    2    4    4    0    0 -0.32110660378E+03 -0.15341331752E+03  0.21977300200E+03  0.42917592450E+03  0.96159787756E+02 0.  0.
         23    2    4    4    0    0  0.55453181599E+03 -0.86885411894E+02  0.10373438835E+03  0.57791696648E+03  0.90402362078E+02 0.  0.
          4    1    3    3  502    0 -0.22041918194E+03  0.19230909862E+03  0.66301697803E+03  0.72467849308E+03  0.00000000000E+00 0. -1.
         -3    1    3    3    0  502 -0.13006030275E+02  0.47989630789E+02  0.79829887289E+02  0.94047713377E+02  0.00000000000E+00 0.  1.
         13    1    5    5    0    0 -0.70652465985E+02 -0.77178459909E+02  0.84498425010E+02  0.13449263717E+03  0.00000000000E+00 0.  1.
        -13    1    5    5    0    0 -0.25045413779E+03 -0.76234857607E+02  0.13527457699E+03  0.29468328733E+03  0.00000000000E+00 0. -1.
          1    1    6    6  503    0 -0.35123773436E+01  0.74490759456E+00  0.13198202467E+01  0.38253898378E+01  0.00000000000E+00 0. -1.
         -1    1    6    6    0  503  0.55804419334E+03 -0.87630319489E+02  0.10241456811E+03  0.57409157664E+03  0.00000000000E+00 0.  1.
<mgrwt>
<rscale>  0 0.14820607E+04</rscale>
<asrwt>0</asrwt>
<pdfrwt beam="1">  1        2 0.22247487E+00 0.14820607E+04</pdfrwt>
<pdfrwt beam="2">  1       -1 0.58420373E-01 0.14820607E+04</pdfrwt>
<totfact> 0.44582043E+01</totfact>
</mgrwt>
</event>
<event>
12    7  0.1546317E-007  0.3336899E+04  0.7818608E-02  0.8153569E-01
         -1   -1    0    0    0  501 -0.00000000000E+00  0.00000000000E+00  0.81965010630E+03  0.81965010630E+03  0.00000000000E+00 0.  1.
          2   -1    0    0  501    0  0.00000000000E+00 -0.00000000000E+00 -0.33962340253E+04  0.33962340253E+04  0.00000000000E+00 0. -1.
         24    2    1    2    0    0  0.17185093875E+03  0.74004062783E+03  0.51016869390E+03  0.91862742141E+03  0.80071013140E+02 0.  0.
        254    2    1    2    0    0 -0.17185093875E+03 -0.74004062783E+03 -0.30867526129E+04  0.32972567102E+04  0.87559536524E+03 0.  0.
         23    2    4    4    0    0 -0.32201277172E+03 -0.45710773499E+03 -0.76465283804E+03  0.95140808620E+03  0.88564537090E+02 0.  0.
         23    2    4    4    0    0  0.15016183297E+03 -0.28293289284E+03 -0.23220997748E+04  0.23458486240E+04  0.90877963882E+02 0.  0.
          4    1    3    3  502    0  0.12537000500E+02  0.15632003298E+02  0.34219450980E+01  0.20328443544E+02  0.00000000000E+00 0. -1.
         -3    1    3    3    0  502  0.15931393825E+03  0.72440862453E+03  0.50674674881E+03  0.89829897787E+03  0.00000000000E+00 0.  1.
         13    1    5    5    0    0 -0.19441921837E+01 -0.15024630208E+02 -0.48710771764E+01  0.15913729575E+02  0.00000000000E+00 0. -1.
        -13    1    5    5    0    0 -0.32006857953E+03 -0.44208310478E+03 -0.75978176086E+03  0.93549435662E+03  0.00000000000E+00 0.  1.
          2    1    6    6  503    0  0.64993117255E+02 -0.18257941864E+03 -0.16166348440E+04  0.16282099276E+04  0.00000000000E+00 0. -1.
         -2    1    6    6    0  503  0.85168715713E+02 -0.10035347420E+03 -0.70546493084E+03  0.71763869640E+03  0.00000000000E+00 0.  1.
<mgrwt>
<rscale>  0 0.33368989E+04</rscale>
<asrwt>0</asrwt>
<pdfrwt beam="1">  1        2 0.52249755E+00 0.33368989E+04</pdfrwt>
<pdfrwt beam="2">  1       -1 0.12610002E+00 0.33368989E+04</pdfrwt>
<totfact> 0.49582995E-01</totfact>
</mgrwt>
</event>
<event>
12    7  0.1546317E-007  0.2745529E+04  0.7818608E-02  0.8320382E-01
         -1   -1    0    0    0  501 -0.00000000000E+00  0.00000000000E+00  0.58835814628E+03  0.58835814628E+03  0.00000000000E+00 0.  1.
          2   -1    0    0  501    0  0.00000000000E+00 -0.00000000000E+00 -0.32029501090E+04  0.32029501090E+04  0.00000000000E+00 0. -1.
         24    2    1    2    0    0 -0.10448349851E+04 -0.32973632201E+03 -0.19392795153E+04  0.22288913048E+04  0.82129300379E+02 0.  0.
        254    2    1    2    0    0  0.10448349851E+04  0.32973632201E+03 -0.67531244739E+03  0.15624169505E+04  0.88582935010E+03 0.  0.
         23    2    4    4    0    0  0.10399271652E+04  0.51876562375E+03 -0.44303292882E+03  0.12477113938E+04  0.99695862139E+02 0.  0.
         23    2    4    4    0    0  0.49078198180E+01 -0.18902930174E+03 -0.23227951857E+03  0.31470555664E+03  0.96590108301E+02 0.  0.
          4    1    3    3  502    0 -0.10137802218E+04 -0.33297166844E+03 -0.18731765790E+04  0.21557854639E+04  0.00000000000E+00 0. -1.
         -3    1    3    3    0  502 -0.31054763236E+02  0.32353464316E+01 -0.66102936266E+02  0.73105840869E+02  0.00000000000E+00 0.  1.
         13    1    5    5    0    0  0.69274470325E+02  0.24908045659E+02 -0.47694465465E+01  0.73770662175E+02  0.00000000000E+00 0. -1.
        -13    1    5    5    0    0  0.97065269491E+03  0.49385757809E+03 -0.43826348228E+03  0.11739407317E+04  0.00000000000E+00 0.  1.
          2    1    6    6  503    0 -0.74302821177E+01 -0.86299432215E+02 -0.17778690733E+03  0.19776497544E+03  0.00000000000E+00 0. -1.
         -2    1    6    6    0  503  0.12338101936E+02 -0.10272986952E+03 -0.54492611240E+02  0.11694058120E+03  0.00000000000E+00 0.  1.
<mgrwt>
<rscale>  0 0.27455286E+04</rscale>
<asrwt>0</asrwt>
<pdfrwt beam="1">  1        2 0.49276155E+00 0.27455286E+04</pdfrwt>
<pdfrwt beam="2">  1       -1 0.90516639E-01 0.27455286E+04</pdfrwt>
<totfact> 0.15293975E+00</totfact>
</mgrwt>
</event>
<event>
12    7  0.1546317E-007  0.2480150E+04  0.7818608E-02  0.8410091E-01
          2   -1    0    0  501    0  0.00000000000E+00  0.00000000000E+00  0.22304346612E+04  0.22304346612E+04  0.00000000000E+00 0. -1.
         -1   -1    0    0    0  501 -0.00000000000E+00 -0.00000000000E+00 -0.68945592566E+03  0.68945592566E+03  0.00000000000E+00 0.  1.
         24    2    1    2    0    0  0.62224709437E+03 -0.41287157300E+03  0.15793559038E+04  0.17488111539E+04  0.79504710282E+02 0.  0.
        254    2    1    2    0    0 -0.62224709437E+03  0.41287157300E+03 -0.38377168236E+02  0.11710794330E+04  0.90127678824E+03 0.  0.
         23    2    4    4    0    0 -0.79165558249E+03  0.48555805065E+03  0.74202576746E+02  0.93645293007E+03  0.94619691444E+02 0.  0.
         23    2    4    4    0    0  0.16940848812E+03 -0.72686477650E+02 -0.11257974498E+03  0.23462650289E+03  0.91612428182E+02 0.  0.
          4    1    3    3  502    0  0.59583831392E+03 -0.37239794979E+03  0.14804163289E+04  0.16386994954E+04  0.00000000000E+00 0. -1.
         -3    1    3    3    0  502  0.26408780448E+02 -0.40473623211E+02  0.98939574847E+02  0.11011165847E+03  0.00000000000E+00 0.  1.
         13    1    5    5    0    0 -0.22967100737E+03  0.15185122133E+03  0.64498750348E+02  0.28278552622E+03  0.00000000000E+00 0. -1.
        -13    1    5    5    0    0 -0.56198457512E+03  0.33370682933E+03  0.97038263978E+01  0.65366740385E+03  0.00000000000E+00 0.  1.
          2    1    6    6  503    0  0.38599455965E+02 -0.41820654928E+00  0.11615989134E+02  0.40311587677E+02  0.00000000000E+00 0.  1.
         -2    1    6    6    0  503  0.13080903216E+03 -0.72268271101E+02 -0.12419573412E+03  0.19431491521E+03  0.00000000000E+00 0. -1.
<mgrwt>
<rscale>  0 0.24801503E+04</rscale>
<asrwt>0</asrwt>
<pdfrwt beam="1">  1        2 0.34314379E+00 0.24801503E+04</pdfrwt>
<pdfrwt beam="2">  1       -1 0.10607014E+00 0.24801503E+04</pdfrwt>
<totfact> 0.41935385E+00</totfact>
</mgrwt>
</event>
<event>
12    7  0.1546317E-007  0.1477347E+04  0.7818608E-02  0.8899658E-01
         -1   -1    0    0    0  501 -0.00000000000E+00  0.00000000000E+00  0.85044435386E+03  0.85044435386E+03  0.00000000000E+00 0.  1.
          2   -1    0    0  501    0  0.00000000000E+00 -0.00000000000E+00 -0.64159191941E+03  0.64159191941E+03  0.00000000000E+00 0. -1.
         24    2    1    2    0    0  0.19462678841E+03 -0.31782415461E+03  0.34183457097E+03  0.51197832855E+03  0.79869612343E+02 0.  0.
        254    2    1    2    0    0 -0.19462678841E+03  0.31782415461E+03 -0.13298213652E+03  0.98005794471E+03  0.89662564448E+03 0.  0.
         23    2    4    4    0    0  0.30100122973E+02 -0.22348239035E+03  0.18666649707E+03  0.30618671894E+03  0.89752601789E+02 0.  0.
         23    2    4    4    0    0 -0.22472691138E+03  0.54130654496E+03 -0.31964863359E+03  0.67387122577E+03  0.91718153352E+02 0.  0.
          2    1    3    3  502    0  0.90666219248E+02 -0.17788861087E+03  0.13280186152E+03  0.23979377726E+03  0.00000000000E+00 0. -1.
         -1    1    3    3    0  502  0.10396056916E+03 -0.13993554375E+03  0.20903270944E+03  0.27218455129E+03  0.00000000000E+00 0.  1.
         13    1    5    5    0    0  0.52371148634E+02 -0.19274743491E+03  0.17733851281E+03  0.26710158929E+03  0.00000000000E+00 0.  1.
        -13    1    5    5    0    0 -0.22271025660E+02 -0.30734955431E+02  0.93279842617E+01  0.39085129650E+02  0.00000000000E+00 0. -1.
          3    1    6    6  503    0 -0.13657924206E+03  0.26093026748E+03 -0.20282496217E+03  0.35759818110E+03  0.00000000000E+00 0. -1.
         -3    1    6    6    0  503 -0.88147669321E+02  0.28037627748E+03 -0.11682367141E+03  0.31627304467E+03  0.00000000000E+00 0.  1.
<mgrwt>
<rscale>  0 0.14773466E+04</rscale>
<asrwt>0</asrwt>
<pdfrwt beam="1">  1        2 0.98706448E-01 0.14773466E+04</pdfrwt>
<pdfrwt beam="2">  1       -1 0.13083759E+00 0.14773466E+04</pdfrwt>
<totfact> 0.25215061E+01</totfact>
</mgrwt>
</event>
<event>
12    7  0.1546317E-007  0.3307259E+04  0.7818608E-02  0.8161051E-01
          2   -1    0    0  501    0  0.00000000000E+00  0.00000000000E+00  0.16807292604E+04  0.16807292604E+04  0.00000000000E+00 0. -1.
         -1   -1    0    0    0  501 -0.00000000000E+00 -0.00000000000E+00 -0.16269670355E+04  0.16269670355E+04  0.00000000000E+00 0.  1.
         24    2    1    2    0    0 -0.95911442863E+02  0.12751383596E+03  0.15468054548E+04  0.15569252452E+04  0.77138323302E+02 0.  0.
        254    2    1    2    0    0  0.95911442863E+02 -0.12751383596E+03 -0.14930432299E+04  0.17507710506E+04  0.90031239132E+03 0.  0.
         23    2    4    4    0    0  0.46074746207E+03 -0.76081899311E+02 -0.51322662695E+03  0.69994746796E+03  0.91914134331E+02 0.  0.
         23    2    4    4    0    0 -0.36483601921E+03 -0.51431936652E+02 -0.97981660299E+03  0.10508235826E+04  0.91864363784E+02 0.  0.
          4    1    3    3  502    0 -0.20477000818E+02  0.69552229408E+02  0.93055714557E+03  0.93337742706E+03  0.00000000000E+00 0. -1.
         -3    1    3    3    0  502 -0.75434442045E+02  0.57961606555E+02  0.61624830925E+03  0.62354781816E+03  0.00000000000E+00 0.  1.
         13    1    5    5    0    0  0.39685701596E+02  0.16854673256E+02 -0.31320923619E+02  0.53291980430E+02  0.00000000000E+00 0.  1.
        -13    1    5    5    0    0  0.42106176048E+03 -0.92936572567E+02 -0.48190570333E+03  0.64665548753E+03  0.00000000000E+00 0. -1.
          4    1    6    6  503    0 -0.31681884465E+03 -0.31081745156E+02 -0.74286736563E+03  0.80820305501E+03  0.00000000000E+00 0. -1.
         -4    1    6    6    0  503 -0.48017174561E+02 -0.20350191497E+02 -0.23694923736E+03  0.24262052764E+03  0.00000000000E+00 0.  1.
<mgrwt>
<rscale>  0 0.33072594E+04</rscale>
<asrwt>0</asrwt>
<pdfrwt beam="1">  1        2 0.25857373E+00 0.33072594E+04</pdfrwt>
<pdfrwt beam="2">  1       -1 0.25030262E+00 0.33072594E+04</pdfrwt>
<totfact> 0.66278850E-01</totfact>
</mgrwt>
</event>
<event>
12    7  0.1546317E-007  0.1853049E+04  0.7818608E-02  0.8678586E-01
         -1   -1    0    0    0  501 -0.00000000000E+00  0.00000000000E+00  0.12977600218E+04  0.12977600218E+04  0.00000000000E+00 0.  1.
          2   -1    0    0  501    0  0.00000000000E+00 -0.00000000000E+00 -0.66148433548E+03  0.66148433548E+03  0.00000000000E+00 0. -1.
         24    2    1    2    0    0  0.27714027667E+03 -0.37347872145E+02  0.89037127052E+03  0.93654069712E+03  0.78395672636E+02 0.  0.
        254    2    1    2    0    0 -0.27714027667E+03  0.37347872145E+02 -0.25409558425E+03  0.10227036601E+04  0.95034552347E+03 0.  0.
         23    2    4    4    0    0 -0.15206796634E+03 -0.35897113048E+03 -0.40651381834E+03  0.57055758512E+03  0.91090803755E+02 0.  0.
         23    2    4    4    0    0 -0.12507231033E+03  0.39631900263E+03  0.15241823409E+03  0.45214607500E+03  0.92157042063E+02 0.  0.
          2    1    3    3  502    0  0.15703934775E+03 -0.49056402101E+00  0.38517548196E+03  0.41595883126E+03  0.00000000000E+00 0. -1.
         -1    1    3    3    0  502  0.12010092892E+03 -0.36857308124E+02  0.50519578856E+03  0.52058186587E+03  0.00000000000E+00 0.  1.
         13    1    5    5    0    0 -0.82227019015E+01  0.39759816573E+01 -0.15594265615E+02  0.18072143669E+02  0.00000000000E+00 0.  1.
        -13    1    5    5    0    0 -0.14384526444E+03 -0.36294711214E+03 -0.39091955272E+03  0.55248544145E+03  0.00000000000E+00 0. -1.
          2    1    6    6  503    0 -0.85627912933E+02  0.19435345162E+03  0.11967043763E+03  0.24377534180E+03  0.00000000000E+00 0. -1.
         -2    1    6    6    0  503 -0.39444397399E+02  0.20196555101E+03  0.32747796459E+02  0.20837073320E+03  0.00000000000E+00 0.  1.
<mgrwt>
<rscale>  0 0.18530493E+04</rscale>
<asrwt>0</asrwt>
<pdfrwt beam="1">  1        2 0.10176682E+00 0.18530493E+04</pdfrwt>
<pdfrwt beam="2">  1       -1 0.19965539E+00 0.18530493E+04</pdfrwt>
<totfact> 0.71459175E+00</totfact>
</mgrwt>
</event>
<event>
12    7  0.1546317E-007  0.2092414E+04  0.7818608E-02  0.8564592E-01
          2   -1    0    0  501    0  0.00000000000E+00  0.00000000000E+00  0.99941957755E+03  0.99941957755E+03  0.00000000000E+00 0. -1.
         -1   -1    0    0    0  501 -0.00000000000E+00 -0.00000000000E+00 -0.10951852658E+04  0.10951852658E+04  0.00000000000E+00 0.  1.
         24    2    1    2    0    0 -0.13227575516E+03  0.46689866705E+03 -0.73836058137E+03  0.88896070437E+03  0.97895582628E+02 0.  0.
        254    2    1    2    0    0  0.13227575516E+03 -0.46689866705E+03  0.64259489308E+03  0.12056441390E+04  0.89730616439E+03 0.  0.
         23    2    4    4    0    0 -0.15424254992E+03  0.16517883967E+03  0.39341547285E+03  0.46266788656E+03  0.90614710170E+02 0.  0.
         23    2    4    4    0    0  0.28651830508E+03 -0.63207750672E+03  0.24917942023E+03  0.74297625246E+03  0.91151602326E+02 0.  0.
          2    1    3    3  502    0 -0.17126153507E+02  0.16426089613E+02 -0.12155859395E+02  0.26662454342E+02  0.00000000000E+00 0. -1.
         -1    1    3    3    0  502 -0.11514960165E+03  0.45047257744E+03 -0.72620472197E+03  0.86229825003E+03  0.00000000000E+00 0.  1.
         13    1    5    5    0    0 -0.10888918978E+03  0.71577154344E+02  0.27966823583E+03  0.30853600569E+03  0.00000000000E+00 0. -1.
        -13    1    5    5    0    0 -0.45353360145E+02  0.93601685325E+02  0.11374723701E+03  0.15413188087E+03  0.00000000000E+00 0.  1.
          4    1    6    6  503    0  0.27810746798E+03 -0.61365814099E+03  0.25725051671E+03  0.72117813756E+03  0.00000000000E+00 0. -1.
         -4    1    6    6    0  503  0.84108370990E+01 -0.18419365732E+02 -0.80710964839E+01  0.21798114899E+02  0.00000000000E+00 0.  1.
<mgrwt>
<rscale>  0 0.20924145E+04</rscale>
<asrwt>0</asrwt>
<pdfrwt beam="1">  1        2 0.15375686E+00 0.20924145E+04</pdfrwt>
<pdfrwt beam="2">  1       -1 0.16849004E+00 0.20924145E+04</pdfrwt>
<totfact> 0.66940098E+00</totfact>
</mgrwt>
</event>
<event>
12    7  0.1546317E-007  0.1960788E+04  0.7818608E-02  0.8625176E-01
          2   -1    0    0  501    0  0.00000000000E+00  0.00000000000E+00  0.94627122959E+03  0.94627122959E+03  0.00000000000E+00 0. -1.
         -1   -1    0    0    0  501 -0.00000000000E+00 -0.00000000000E+00 -0.10157475171E+04  0.10157475171E+04  0.00000000000E+00 0.  1.
         24    2    1    2    0    0  0.12020076341E+03  0.70898181523E+03 -0.30348007358E+03  0.78455668648E+03  0.79533649354E+02 0.  0.
        254    2    1    2    0    0 -0.12020076341E+03 -0.70898181523E+03  0.23400378606E+03  0.11774620602E+04  0.90252739212E+03 0.  0.
         23    2    4    4    0    0 -0.20578468097E+03 -0.83348361387E+03 -0.25925334841E+02  0.86382729597E+03  0.92104314584E+02 0.  0.
         23    2    4    4    0    0  0.85583917560E+02  0.12450179864E+03  0.25992912090E+03  0.31363476426E+03  0.89321400851E+02 0.  0.
          4    1    3    3  502    0  0.40114858203E+02  0.39333241266E+03 -0.13413799771E+03  0.41750759410E+03  0.00000000000E+00 0. -1.
         -3    1    3    3    0  502  0.80085905211E+02  0.31564940257E+03 -0.16934207587E+03  0.36704909238E+03  0.00000000000E+00 0.  1.
         13    1    5    5    0    0 -0.64529302294E+02 -0.37986129397E+03 -0.47565142206E+02  0.38822812400E+03  0.00000000000E+00 0.  1.
        -13    1    5    5    0    0 -0.14125537868E+03 -0.45362231990E+03  0.21639807365E+02  0.47559917197E+03  0.00000000000E+00 0. -1.
          1    1    6    6  503    0  0.62202498821E+02  0.11870115901E+03  0.15020588253E+03  0.20129809526E+03  0.00000000000E+00 0. -1.
         -1    1    6    6    0  503  0.23381418739E+02  0.58006396268E+01  0.10972323837E+03  0.11233666899E+03  0.00000000000E+00 0.  1.
<mgrwt>
<rscale>  0 0.19607883E+04</rscale>
<asrwt>0</asrwt>
<pdfrwt beam="1">  1        2 0.14558019E+00 0.19607883E+04</pdfrwt>
<pdfrwt beam="2">  1       -1 0.15626885E+00 0.19607883E+04</pdfrwt>
<totfact> 0.90597064E+00</totfact>
</mgrwt>
</event>
<event>
12    7  0.1546317E-007  0.4000337E+04  0.7818608E-02  0.8004479E-01
          2   -1    0    0  501    0  0.00000000000E+00  0.00000000000E+00  0.21681652137E+04  0.21681652137E+04  0.00000000000E+00 0. -1.
         -1   -1    0    0    0  501 -0.00000000000E+00 -0.00000000000E+00 -0.18451890268E+04  0.18451890268E+04  0.00000000000E+00 0.  1.
         24    2    1    2    0    0  0.56542415783E+03  0.87812310730E+03 -0.14367201574E+04  0.17780383360E+04  0.80317146000E+02 0.  0.
        254    2    1    2    0    0 -0.56542415783E+03 -0.87812310730E+03  0.17596963443E+04  0.22353159044E+04  0.89961174885E+03 0.  0.
         23    2    4    4    0    0 -0.60287263502E+03 -0.57962837802E+03  0.17249538232E+04  0.19191642391E+04  0.91110997860E+02 0.  0.
         23    2    4    4    0    0  0.37448477187E+02 -0.29849472928E+03  0.34742521141E+02  0.31615166534E+03  0.90792845939E+02 0.  0.
          2    1    3    3  502    0  0.12155482427E+03  0.13680600902E+03 -0.27130212916E+03  0.32725571759E+03  0.00000000000E+00 0. -1.
         -1    1    3    3    0  502  0.44386933356E+03  0.74131709827E+03 -0.11654180282E+04  0.14507826184E+04  0.00000000000E+00 0.  1.
         13    1    5    5    0    0 -0.12792595924E+03 -0.75118977878E+02  0.29939344655E+03  0.33413223090E+03  0.00000000000E+00 0. -1.
        -13    1    5    5    0    0 -0.47494667577E+03 -0.50450940014E+03  0.14255603766E+04  0.15850320082E+04  0.00000000000E+00 0.  1.
          3    1    6    6  503    0  0.16281505171E+02 -0.26358824173E+02  0.30038822875E+02  0.43153283793E+02  0.00000000000E+00 0. -1.
         -3    1    6    6    0  503  0.21166972017E+02 -0.27213590510E+03  0.47036982657E+01  0.27299838155E+03  0.00000000000E+00 0.  1.
<mgrwt>
<rscale>  0 0.40003373E+04</rscale>
<asrwt>0</asrwt>
<pdfrwt beam="1">  1        2 0.33356388E+00 0.40003373E+04</pdfrwt>
<pdfrwt beam="2">  1       -1 0.28387523E+00 0.40003373E+04</pdfrwt>
<totfact> 0.20282434E-01</totfact>
</mgrwt>
</event>
<event>
12    7  0.1546317E-007  0.1480109E+04  0.7818608E-02  0.8897789E-01
          2   -1    0    0  501    0  0.00000000000E+00  0.00000000000E+00  0.69524455409E+03  0.69524455409E+03  0.00000000000E+00 0. -1.
         -1   -1    0    0    0  501 -0.00000000000E+00 -0.00000000000E+00 -0.78775303208E+03  0.78775303208E+03  0.00000000000E+00 0.  1.
         24    2    1    2    0    0  0.32863851065E+03 -0.16230564331E+03  0.26063584585E+03  0.45686614720E+03  0.80307159019E+02 0.  0.
        254    2    1    2    0    0 -0.32863851065E+03  0.16230564331E+03 -0.35314432384E+03  0.10261314390E+04  0.89100416612E+03 0.  0.
         23    2    4    4    0    0 -0.56402963371E+03  0.85481970938E+02 -0.46255260581E+03  0.74053054167E+03  0.94836569590E+02 0.  0.
         23    2    4    4    0    0  0.23539112307E+03  0.76823672368E+02  0.10940828198E+03  0.28560089730E+03  0.91032098279E+02 0.  0.
          4    1    3    3  502    0  0.30505011383E+03 -0.14081930177E+03  0.26019569577E+03  0.42495581864E+03  0.00000000000E+00 0. -1.
         -3    1    3    3    0  502  0.23588396819E+02 -0.21486341533E+02  0.44015007929E+00  0.31910328564E+02  0.00000000000E+00 0.  1.
         13    1    5    5    0    0 -0.13140539056E+03  0.39778986106E+01 -0.15636281343E+03  0.20428541252E+03  0.00000000000E+00 0.  1.
        -13    1    5    5    0    0 -0.43262424315E+03  0.81504072327E+02 -0.30618979239E+03  0.53624512914E+03  0.00000000000E+00 0. -1.
          4    1    6    6  503    0  0.85296348733E+02 -0.13111606379E+02  0.17878712420E+02  0.88130753355E+02  0.00000000000E+00 0. -1.
         -4    1    6    6    0  503  0.15009477433E+03  0.89935278747E+02  0.91529569556E+02  0.19747014394E+03  0.00000000000E+00 0.  1.
<mgrwt>
<rscale>  0 0.14801095E+04</rscale>
<asrwt>0</asrwt>
<pdfrwt beam="1">  1        2 0.10696070E+00 0.14801095E+04</pdfrwt>
<pdfrwt beam="2">  1       -1 0.12119277E+00 0.14801095E+04</pdfrwt>
<totfact> 0.27606959E+01</totfact>
</mgrwt>
</event>
<event>
12    7  0.1546317E-007  0.1195840E+04  0.7818608E-02  0.9116505E-01
         -1   -1    0    0    0  501 -0.00000000000E+00  0.00000000000E+00  0.46316168619E+03  0.46316168619E+03  0.00000000000E+00 0.  1.
          2   -1    0    0  501    0  0.00000000000E+00 -0.00000000000E+00 -0.77188683793E+03  0.77188683793E+03  0.00000000000E+00 0. -1.
         24    2    1    2    0    0  0.97420340899E+02 -0.19391588770E+03 -0.23872456579E+03  0.33223402727E+03  0.79346935905E+02 0.  0.
        254    2    1    2    0    0 -0.97420340899E+02  0.19391588770E+03 -0.70000585945E+02  0.90281449686E+03  0.87354441180E+03 0.  0.
         23    2    4    4    0    0 -0.37258950570E+03  0.39205296412E+03 -0.20946411000E+02  0.54899958783E+03  0.91833157742E+02 0.  0.
         23    2    4    4    0    0  0.27516916480E+03 -0.19813707643E+03 -0.49054174945E+02  0.35381490904E+03  0.88330671138E+02 0.  0.
          4    1    3    3  502    0  0.29048986372E+02 -0.13808703149E+03 -0.16594734283E+03  0.21783110996E+03  0.00000000000E+00 0. -1.
         -3    1    3    3    0  502  0.68371354527E+02 -0.55828856205E+02 -0.72777222967E+02  0.11440291731E+03  0.00000000000E+00 0.  1.
         13    1    5    5    0    0 -0.31009654355E+02  0.79741960209E+02  0.22007942159E+01  0.85587512970E+02  0.00000000000E+00 0.  1.
        -13    1    5    5    0    0 -0.34157985135E+03  0.31231100392E+03 -0.23147205216E+02  0.46341207486E+03  0.00000000000E+00 0. -1.
          2    1    6    6  503    0  0.26718945944E+03 -0.17461308240E+03 -0.26536920443E+02  0.32028759565E+03  0.00000000000E+00 0. -1.
         -2    1    6    6    0  503  0.79797053645E+01 -0.23523994024E+02 -0.22517254502E+02  0.33527313386E+02  0.00000000000E+00 0.  1.
<mgrwt>
<rscale>  0 0.11958401E+04</rscale>
<asrwt>0</asrwt>
<pdfrwt beam="1">  1        2 0.11875182E+00 0.11958401E+04</pdfrwt>
<pdfrwt beam="2">  1       -1 0.71255644E-01 0.11958401E+04</pdfrwt>
<totfact> 0.80980912E+01</totfact>
</mgrwt>
</event>
<event>
12    7  0.1546317E-007  0.1988277E+04  0.7818608E-02  0.8612121E-01
         -1   -1    0    0    0  501 -0.00000000000E+00  0.00000000000E+00  0.10676064213E+04  0.10676064213E+04  0.00000000000E+00 0.  1.
          2   -1    0    0  501    0  0.00000000000E+00 -0.00000000000E+00 -0.92572592953E+03  0.92572592953E+03  0.00000000000E+00 0. -1.
         24    2    1    2    0    0  0.24356964111E+03  0.72596115685E+03  0.23709980367E+03  0.80550507953E+03  0.79223386192E+02 0.  0.
        254    2    1    2    0    0 -0.24356964111E+03 -0.72596115685E+03 -0.95219311901E+02  0.11878272713E+04  0.90306208965E+03 0.  0.
         23    2    4    4    0    0 -0.59546832439E+02  0.73144575141E+02  0.25860194160E+03  0.28999504905E+03  0.91248069272E+02 0.  0.
         23    2    4    4    0    0 -0.18402280868E+03 -0.79910573199E+03 -0.35382125350E+03  0.89783222225E+03  0.92080697634E+02 0.  0.
          2    1    3    3  502    0  0.24621972680E+02  0.11496048259E+03  0.10479151085E+02  0.11803375240E+03  0.00000000000E+00 0. -1.
         -1    1    3    3    0  502  0.21894766843E+03  0.61100067425E+03  0.22662065259E+03  0.68747132713E+03  0.00000000000E+00 0.  1.
         13    1    5    5    0    0 -0.77635606447E+02  0.76498704014E+02  0.24115125020E+03  0.26463798778E+03  0.00000000000E+00 0. -1.
        -13    1    5    5    0    0  0.18088774009E+02 -0.33541288728E+01  0.17450691402E+02  0.25357061266E+02  0.00000000000E+00 0.  1.
          4    1    6    6  503    0 -0.65370216385E+02 -0.12897986492E+03 -0.64712439839E+02  0.15841960300E+03  0.00000000000E+00 0.  1.
         -4    1    6    6    0  503 -0.11865259229E+03 -0.67012586707E+03 -0.28910881366E+03  0.73941261925E+03  0.00000000000E+00 0. -1.
<mgrwt>
<rscale>  0 0.19882766E+04</rscale>
<asrwt>0</asrwt>
<pdfrwt beam="1">  1        2 0.14241937E+00 0.19882766E+04</pdfrwt>
<pdfrwt beam="2">  1       -1 0.16424714E+00 0.19882766E+04</pdfrwt>
<totfact> 0.81158633E+00</totfact>
</mgrwt>
</event>
<event>
12    7  0.1546317E-007  0.1163703E+04  0.7818608E-02  0.9145235E-01
         -1   -1    0    0    0  501 -0.00000000000E+00  0.00000000000E+00  0.96109646189E+02  0.96109646189E+02  0.00000000000E+00 0.  1.
          2   -1    0    0  501    0  0.00000000000E+00 -0.00000000000E+00 -0.35225486186E+04  0.35225486186E+04  0.00000000000E+00 0. -1.
         24    2    1    2    0    0 -0.10188401755E+03 -0.28461548891E+02 -0.86328898981E+02  0.15833880537E+03  0.80175343396E+02 0.  0.
        254    2    1    2    0    0  0.10188401755E+03  0.28461548891E+02 -0.33401100735E+04  0.34603194594E+04  0.89793376472E+03 0.  0.
         23    2    4    4    0    0 -0.43032334183E+02 -0.84557186276E+02 -0.32218171177E+04  0.32244984058E+04  0.91009500787E+02 0.  0.
         23    2    4    4    0    0  0.14491635174E+03  0.11301873517E+03 -0.11829295571E+03  0.23582105365E+03  0.88568405630E+02 0.  0.
          2    1    3    3  502    0  0.83340340547E+01 -0.12502909883E+02  0.33001104044E+01  0.15384069937E+02  0.00000000000E+00 0. -1.
         -1    1    3    3    0  502 -0.11021805161E+03 -0.15958639008E+02 -0.89629009386E+02  0.14295473543E+03  0.00000000000E+00 0.  1.
         13    1    5    5    0    0  0.23052240327E+02 -0.51276718253E+02 -0.11747395153E+04  0.11760840261E+04  0.00000000000E+00 0. -1.
        -13    1    5    5    0    0 -0.66084574511E+02 -0.33280468022E+02 -0.20470776024E+04  0.20484143797E+04  0.00000000000E+00 0.  1.
          1    1    6    6  503    0  0.13231961044E+03  0.10302244759E+03 -0.64495117711E+02  0.17967115579E+03  0.00000000000E+00 0. -1.
         -1    1    6    6    0  503  0.12596741295E+02  0.99962875787E+01 -0.53797837999E+02  0.56149897863E+02  0.00000000000E+00 0.  1.
<mgrwt>
<rscale>  0 0.11637025E+04</rscale>
<asrwt>0</asrwt>
<pdfrwt beam="1">  1        2 0.54193064E+00 0.11637025E+04</pdfrwt>
<pdfrwt beam="2">  1       -1 0.14786097E-01 0.11637025E+04</pdfrwt>
<totfact> 0.30598891E+01</totfact>
</mgrwt>
</event>
<event>
12    7  0.1546317E-007  0.2508883E+04  0.7818608E-02  0.8399828E-01
         -1   -1    0    0    0  501 -0.00000000000E+00  0.00000000000E+00  0.81412081663E+03  0.81412081663E+03  0.00000000000E+00 0.  1.
          2   -1    0    0  501    0  0.00000000000E+00 -0.00000000000E+00 -0.19329121640E+04  0.19329121640E+04  0.00000000000E+00 0. -1.
         24    2    1    2    0    0  0.36453466766E+03  0.36410920552E+03 -0.15406427552E+04  0.16265588555E+04  0.81563310185E+02 0.  0.
        254    2    1    2    0    0 -0.36453466766E+03 -0.36410920552E+03  0.42185140781E+03  0.11204741252E+04  0.90113407302E+03 0.  0.
         23    2    4    4    0    0 -0.55693643946E+03 -0.45865277478E+03  0.11634447696E+03  0.73645931039E+03  0.91080805515E+02 0.  0.
         23    2    4    4    0    0  0.19240177181E+03  0.94543569264E+02  0.30550693086E+03  0.38401481483E+03  0.90421042486E+02 0.  0.
          4    1    3    3  502    0  0.30397081633E+03  0.30213064109E+03 -0.11730644045E+04  0.12489040310E+04  0.00000000000E+00 0. -1.
         -3    1    3    3    0  502  0.60563851325E+02  0.61978564427E+02 -0.36757835074E+03  0.37765482450E+03  0.00000000000E+00 0.  1.
         13    1    5    5    0    0 -0.20327737896E+03 -0.21001892085E+03  0.77632549105E+02  0.30241767903E+03  0.00000000000E+00 0.  1.
        -13    1    5    5    0    0 -0.35365906051E+03 -0.24863385394E+03  0.38711927851E+02  0.43404163137E+03  0.00000000000E+00 0. -1.
          2    1    6    6  503    0  0.42642541138E+02  0.61128850199E+02  0.65905331032E+02  0.99491885598E+02  0.00000000000E+00 0.  1.
         -2    1    6    6    0  503  0.14975923067E+03  0.33414719065E+02  0.23960159982E+03  0.28452292923E+03  0.00000000000E+00 0. -1.
<mgrwt>
<rscale>  0 0.25088834E+04</rscale>
<asrwt>0</asrwt>
<pdfrwt beam="1">  1        2 0.29737110E+00 0.25088834E+04</pdfrwt>
<pdfrwt beam="2">  1       -1 0.12524936E+00 0.25088834E+04</pdfrwt>
<totfact> 0.41116721E+00</totfact>
</mgrwt>
</event>
<event>
12    7  0.1546317E-007  0.1916183E+04  0.7818608E-02  0.8646843E-01
          2   -1    0    0  501    0  0.00000000000E+00  0.00000000000E+00  0.36131099051E+03  0.36131099051E+03  0.00000000000E+00 0. -1.
         -1   -1    0    0    0  501 -0.00000000000E+00 -0.00000000000E+00 -0.25405784558E+04  0.25405784558E+04  0.00000000000E+00 0.  1.
         24    2    1    2    0    0  0.66671601194E+03 -0.31058223750E+03 -0.61436209364E+03  0.96191283132E+03  0.82848935592E+02 0.  0.
        254    2    1    2    0    0 -0.66671601194E+03  0.31058223750E+03 -0.15649053717E+04  0.19399766150E+04  0.87955038381E+03 0.  0.
         23    2    4    4    0    0 -0.38008564316E+03 -0.28244929731E+03 -0.65790096535E+03  0.81547475491E+03  0.89009516289E+02 0.  0.
         23    2    4    4    0    0 -0.28663036877E+03  0.59303153482E+03 -0.90700440631E+03  0.11245018601E+04  0.89465472055E+02 0.  0.
          2    1    3    3  502    0  0.83405631090E+02 -0.22380872678E+02 -0.45186570878E+02  0.97463987950E+02  0.00000000000E+00 0. -1.
         -1    1    3    3    0  502  0.58331038085E+03 -0.28820136483E+03 -0.56917552276E+03  0.86444884337E+03  0.00000000000E+00 0.  1.
         13    1    5    5    0    0 -0.22926299078E+03 -0.17416290273E+03 -0.47098220378E+03  0.55201310846E+03  0.00000000000E+00 0. -1.
        -13    1    5    5    0    0 -0.15082265238E+03 -0.10828639459E+03 -0.18691876157E+03  0.26346164645E+03  0.00000000000E+00 0.  1.
          2    1    6    6  503    0 -0.28407964143E+03  0.53536777094E+03 -0.84386660656E+03  0.10389565643E+04  0.00000000000E+00 0. -1.
         -2    1    6    6    0  503 -0.25507273429E+01  0.57663763878E+02 -0.63137799752E+02  0.85545295792E+02  0.00000000000E+00 0.  1.
<mgrwt>
<rscale>  0 0.19161826E+04</rscale>
<asrwt>0</asrwt>
<pdfrwt beam="1">  1        2 0.55586305E-01 0.19161826E+04</pdfrwt>
<pdfrwt beam="2">  1       -1 0.39085823E+00 0.19161826E+04</pdfrwt>
<totfact> 0.78937348E-01</totfact>
</mgrwt>
</event>
<event>
12    7  0.1546317E-007  0.2190501E+04  0.7818608E-02  0.8522392E-01
          2   -1    0    0  501    0  0.00000000000E+00  0.00000000000E+00  0.80491662974E+03  0.80491662974E+03  0.00000000000E+00 0. -1.
         -1   -1    0    0    0  501 -0.00000000000E+00 -0.00000000000E+00 -0.14903082291E+04  0.14903082291E+04  0.00000000000E+00 0.  1.
         24    2    1    2    0    0  0.93557853583E+02  0.73773749747E+03  0.25553298519E+03  0.79022897950E+03  0.78454103663E+02 0.  0.
        254    2    1    2    0    0 -0.93557853583E+02 -0.73773749747E+03 -0.94092458454E+03  0.15049958793E+04  0.90921055639E+03 0.  0.
         23    2    4    4    0    0 -0.19979377008E+03 -0.37575108085E+03  0.52539683464E+02  0.43834241093E+03  0.90979258941E+02 0.  0.
         23    2    4    4    0    0  0.10623591650E+03 -0.36198641663E+03 -0.99346426800E+03  0.10666534684E+04  0.91968114419E+02 0.  0.
          2    1    3    3  502    0  0.76826628501E+02  0.71514508075E+03  0.24086122951E+03  0.75851759983E+03  0.00000000000E+00 0. -1.
         -1    1    3    3    0  502  0.16731225082E+02  0.22592416723E+02  0.14671755682E+02  0.31711379676E+02  0.00000000000E+00 0.  1.
         13    1    5    5    0    0 -0.12636715667E+03 -0.23271297055E+03  0.76840957949E+02  0.27573269259E+03  0.00000000000E+00 0. -1.
        -13    1    5    5    0    0 -0.73426613414E+02 -0.14303811030E+03 -0.24301274485E+02  0.16260971833E+03  0.00000000000E+00 0.  1.
          4    1    6    6  503    0  0.42178820222E+02 -0.20901796064E+03 -0.44118005378E+03  0.49000755157E+03  0.00000000000E+00 0. -1.
         -4    1    6    6    0  503  0.64057096277E+02 -0.15296845599E+03 -0.55228421423E+03  0.57664591683E+03  0.00000000000E+00 0.  1.
<mgrwt>
<rscale>  0 0.21905012E+04</rscale>
<asrwt>0</asrwt>
<pdfrwt beam="1">  1        2 0.12383333E+00 0.21905012E+04</pdfrwt>
<pdfrwt beam="2">  1       -1 0.22927819E+00 0.21905012E+04</pdfrwt>
<totfact> 0.34029644E+00</totfact>
</mgrwt>
</event>
<event>
12    7  0.1546317E-007  0.2619062E+04  0.7818608E-02  0.8361755E-01
         -1   -1    0    0    0  501 -0.00000000000E+00  0.00000000000E+00  0.10797046294E+04  0.10797046294E+04  0.00000000000E+00 0.  1.
          2   -1    0    0  501    0  0.00000000000E+00 -0.00000000000E+00 -0.15882782752E+04  0.15882782752E+04  0.00000000000E+00 0. -1.
         24    2    1    2    0    0 -0.82108165576E+03  0.41110410931E+03  0.48575163994E+03  0.10418598274E+04  0.79596294143E+02 0.  0.
        254    2    1    2    0    0  0.82108165576E+03 -0.41110410931E+03 -0.99432528574E+03  0.16261230772E+04  0.90133890089E+03 0.  0.
         23    2    4    4    0    0  0.81520179365E+03  0.26120181620E+02 -0.50641292105E+03  0.96437541158E+03  0.91266968770E+02 0.  0.
         23    2    4    4    0    0  0.58798621046E+01 -0.43722429093E+03 -0.48791236469E+03  0.66174766563E+03  0.93015289034E+02 0.  0.
          4    1    3    3  502    0 -0.15687836801E+03  0.52507363521E+02  0.65448820099E+02  0.17790838549E+03  0.00000000000E+00 0. -1.
         -1    1    3    3    0  502 -0.66420328774E+03  0.35859674579E+03  0.42030281985E+03  0.86395144187E+03  0.00000000000E+00 0.  1.
         13    1    5    5    0    0  0.70057641361E+02 -0.99574948659E+01 -0.19079437692E+02  0.73288810604E+02  0.00000000000E+00 0. -1.
        -13    1    5    5    0    0  0.74514415229E+03  0.36077676486E+02 -0.48733348336E+03  0.89108660097E+03  0.00000000000E+00 0.  1.
          1    1    6    6  503    0 -0.33540628414E+02 -0.10982907509E+03 -0.15765475295E+03  0.19504466314E+03  0.00000000000E+00 0. -1.
         -1    1    6    6    0  503  0.39420490518E+02 -0.32739521584E+03 -0.33025761174E+03  0.46670300250E+03  0.00000000000E+00 0.  1.
<mgrwt>
<rscale>  0 0.26190620E+04</rscale>
<asrwt>0</asrwt>
<pdfrwt beam="1">  1        2 0.24435050E+00 0.26190620E+04</pdfrwt>
<pdfrwt beam="2">  1       -1 0.16610840E+00 0.26190620E+04</pdfrwt>
<totfact> 0.29938733E+00</totfact>
</mgrwt>
</event>
<event>
12    7  0.1720174E-007  0.2463979E+04  0.7818608E-02  0.8415932E-01
         -1   -1    0    0    0  501 -0.00000000000E+00  0.00000000000E+00  0.13181098726E+04  0.13181098726E+04  0.00000000000E+00 0.  1.
          2   -1    0    0  501    0  0.00000000000E+00 -0.00000000000E+00 -0.11514962487E+04  0.11514962487E+04  0.00000000000E+00 0. -1.
         24    2    1    2    0    0 -0.65562955390E+03  0.44582363452E+03 -0.64043553735E+03  0.10223379800E+04  0.80052749976E+02 0.  0.
        254    2    1    2    0    0  0.65562955390E+03 -0.44582363452E+03  0.80704916126E+03  0.14472681414E+04  0.90257847269E+03 0.  0.
         23    2    4    4    0    0  0.42638248510E+03 -0.65210546768E+03  0.28610356899E+03  0.83505830417E+03  0.91779924783E+02 0.  0.
         23    2    4    4    0    0  0.22924706879E+03  0.20628183316E+03  0.52094559226E+03  0.61220983722E+03  0.91160086956E+02 0.  0.
          4    1    3    3  502    0 -0.50048127920E+03  0.33397747824E+03 -0.44083070807E+03  0.74589153366E+03  0.00000000000E+00 0. -1.
         -3    1    3    3    0  502 -0.15514827470E+03  0.11184615628E+03 -0.19960482928E+03  0.27644644633E+03  0.00000000000E+00 0.  1.
         13    1    5    5    0    0  0.23473105593E+03 -0.40153994616E+03  0.21124829065E+03  0.51084130342E+03  0.00000000000E+00 0.  1.
        -13    1    5    5    0    0  0.19165142917E+03 -0.25056552152E+03  0.74855278348E+02  0.32421700075E+03  0.00000000000E+00 0. -1.
          4    1    6    6  503    0  0.18002586652E+03  0.15975657463E+03  0.46791161415E+03  0.52618699567E+03  0.00000000000E+00 0. -1.
         -4    1    6    6    0  503  0.49221202273E+02  0.46525258535E+02  0.53033978109E+02  0.86022841554E+02  0.00000000000E+00 0.  1.
<mgrwt>
<rscale>  0 0.24639794E+04</rscale>
<asrwt>0</asrwt>
<pdfrwt beam="1">  1        2 0.17715327E+00 0.24639794E+04</pdfrwt>
<pdfrwt beam="2">  1       -1 0.20278613E+00 0.24639794E+04</pdfrwt>
<totfact> 0.29745957E+00</totfact>
</mgrwt>
</event>
<event>
12    7  0.1546317E-007  0.1914243E+04  0.7818608E-02  0.8647799E-01
          2   -1    0    0  501    0  0.00000000000E+00  0.00000000000E+00  0.32212570698E+04  0.32212570698E+04  0.00000000000E+00 0. -1.
         -1   -1    0    0    0  501 -0.00000000000E+00 -0.00000000000E+00 -0.28438633207E+03  0.28438633207E+03  0.00000000000E+00 0.  1.
         24    2    1    2    0    0 -0.68933167838E+03  0.75355703556E+02  0.65300649476E+03  0.95594896749E+03  0.81020376209E+02 0.  0.
        254    2    1    2    0    0  0.68933167838E+03 -0.75355703556E+02  0.22838642430E+04  0.25496944344E+04  0.89668789638E+03 0.  0.
         23    2    4    4    0    0  0.86904793799E+03 -0.10110499739E+03  0.21034820995E+04  0.22799712519E+04  0.90362756086E+02 0.  0.
         23    2    4    4    0    0 -0.17971625960E+03  0.25749293830E+02  0.18038214350E+03  0.26972318248E+03  0.85158190291E+02 0.  0.
          2    1    3    3  502    0 -0.60033231972E+03  0.63372158751E+02  0.60262929370E+03  0.85298123674E+03  0.00000000000E+00 0. -1.
         -1    1    3    3    0  502 -0.88999358666E+02  0.11983544805E+02  0.50377201059E+02  0.10296773075E+03  0.00000000000E+00 0.  1.
         13    1    5    5    0    0  0.31569401602E+02  0.12481442891E+02  0.67861464085E+02  0.75878797051E+02  0.00000000000E+00 0. -1.
        -13    1    5    5    0    0  0.83747853639E+03 -0.11358644028E+03  0.20356206354E+04  0.22040924549E+04  0.00000000000E+00 0.  1.
          1    1    6    6  503    0 -0.67829286646E+02 -0.31528459587E+02  0.69806560704E+02  0.10231232481E+03  0.00000000000E+00 0. -1.
         -1    1    6    6    0  503 -0.11188697296E+03  0.57277753418E+02  0.11057558280E+03  0.16741085767E+03  0.00000000000E+00 0.  1.
<mgrwt>
<rscale>  0 0.19142429E+04</rscale>
<asrwt>0</asrwt>
<pdfrwt beam="1">  1        2 0.49557799E+00 0.19142429E+04</pdfrwt>
<pdfrwt beam="2">  1       -1 0.43751746E-01 0.19142429E+04</pdfrwt>
<totfact> 0.69330638E+00</totfact>
</mgrwt>
</event>
<event>
12    7  0.1546317E-007  0.2942762E+04  0.7818608E-02  0.8260267E-01
          2   -1    0    0  501    0  0.00000000000E+00  0.00000000000E+00  0.10696047571E+04  0.10696047571E+04  0.00000000000E+00 0. -1.
         -1   -1    0    0    0  501 -0.00000000000E+00 -0.00000000000E+00 -0.20240771090E+04  0.20240771090E+04  0.00000000000E+00 0.  1.
         24    2    1    2    0    0 -0.53897467983E+03  0.41154631738E+03 -0.16464620580E+04  0.17823350220E+04  0.77567684009E+02 0.  0.
        254    2    1    2    0    0  0.53897467983E+03 -0.41154631738E+03  0.69198970607E+03  0.13113468441E+04  0.88369492211E+03 0.  0.
         23    2    4    4    0    0 -0.22129510478E+03 -0.40228252203E+02  0.26481201774E+03  0.35899383381E+03  0.90340092440E+02 0.  0.
         23    2    4    4    0    0  0.76026978461E+03 -0.37131806518E+03  0.42717768833E+03  0.95235301028E+03  0.92780536060E+02 0.  0.
          2    1    3    3  502    0 -0.10372090235E+03  0.81123390948E+02 -0.40651588080E+03  0.42731041585E+03  0.00000000000E+00 0. -1.
         -1    1    3    3    0  502 -0.43525377748E+03  0.33042292643E+03 -0.12399461772E+04  0.13550246062E+04  0.00000000000E+00 0.  1.
         13    1    5    5    0    0 -0.19355714527E+03 -0.12330829614E+02  0.25120942051E+03  0.31736822587E+03  0.00000000000E+00 0.  1.
        -13    1    5    5    0    0 -0.27737959508E+02 -0.27897422588E+02  0.13602597236E+02  0.41625607939E+02  0.00000000000E+00 0. -1.
          2    1    6    6  503    0  0.97871322245E+02 -0.68430580062E+02  0.91049766340E+02  0.15017190135E+03  0.00000000000E+00 0. -1.
         -2    1    6    6    0  503  0.66239846236E+03 -0.30288748511E+03  0.33612792199E+03  0.80218110893E+03  0.00000000000E+00 0.  1.
<mgrwt>
<rscale>  0 0.29427623E+04</rscale>
<asrwt>0</asrwt>
<pdfrwt beam="1">  1        2 0.16455458E+00 0.29427623E+04</pdfrwt>
<pdfrwt beam="2">  1       -1 0.31139648E+00 0.29427623E+04</pdfrwt>
<totfact> 0.62096525E-01</totfact>
</mgrwt>
</event>
<event>
12    7  0.1546317E-007  0.1439934E+04  0.7818608E-02  0.8925409E-01
          2   -1    0    0  501    0  0.00000000000E+00  0.00000000000E+00  0.85828603329E+03  0.85828603329E+03  0.00000000000E+00 0. -1.
         -1   -1    0    0    0  501 -0.00000000000E+00 -0.00000000000E+00 -0.60393875431E+03  0.60393875431E+03  0.00000000000E+00 0.  1.
         24    2    1    2    0    0 -0.34747922461E+03  0.22331887782E+03  0.21900327674E+03  0.47420184502E+03  0.79321005260E+02 0.  0.
        254    2    1    2    0    0  0.34747922461E+03 -0.22331887782E+03  0.35344002240E+02  0.98802294257E+03  0.89684279772E+03 0.  0.
         23    2    4    4    0    0  0.63268359935E+03 -0.15936541811E+03  0.12161979100E+03  0.67040405286E+03  0.94680236387E+02 0.  0.
         23    2    4    4    0    0 -0.28520437474E+03 -0.63953459711E+02 -0.86275788760E+02  0.31761888971E+03  0.89479980977E+02 0.  0.
          4    1    3    3  502    0 -0.32555879523E+03  0.19557416919E+03  0.21985466632E+03  0.43883238157E+03  0.00000000000E+00 0. -1.
         -3    1    3    3    0  502 -0.21920429375E+02  0.27744708629E+02 -0.85138958307E+00  0.35369463456E+02  0.00000000000E+00 0.  1.
         13    1    5    5    0    0  0.19362472202E+03 -0.42346249681E+02 -0.64790933727E+01  0.19830712668E+03  0.00000000000E+00 0.  1.
        -13    1    5    5    0    0  0.43905887732E+03 -0.11701916843E+03  0.12809888437E+03  0.47209692618E+03  0.00000000000E+00 0. -1.
          1    1    6    6  503    0  0.21978888194E+00  0.87269344510E+01  0.39425965565E+01  0.95787138840E+01  0.00000000000E+00 0. -1.
         -1    1    6    6    0  503 -0.28542416362E+03 -0.72680394162E+02 -0.90218385316E+02  0.30804017582E+03  0.00000000000E+00 0.  1.
<mgrwt>
<rscale>  0 0.14399336E+04</rscale>
<asrwt>0</asrwt>
<pdfrwt beam="1">  1        2 0.13204401E+00 0.14399336E+04</pdfrwt>
<pdfrwt beam="2">  1       -1 0.92913655E-01 0.14399336E+04</pdfrwt>
<totfact> 0.39060036E+01</totfact>
</mgrwt>
</event>
<event>
12    7  0.1546317E-007  0.1865703E+04  0.7818608E-02  0.8672119E-01
         -1   -1    0    0    0  501 -0.00000000000E+00  0.00000000000E+00  0.89379988016E+03  0.89379988016E+03  0.00000000000E+00 0.  1.
          2   -1    0    0  501    0  0.00000000000E+00 -0.00000000000E+00 -0.97360961629E+03  0.97360961629E+03  0.00000000000E+00 0. -1.
         24    2    1    2    0    0 -0.53029400276E+03  0.40205963075E+03  0.21424838959E+03  0.70359028616E+03  0.79203802311E+02 0.  0.
        254    2    1    2    0    0  0.53029400276E+03 -0.40205963075E+03 -0.29405812572E+03  0.11638192103E+04  0.90837288429E+03 0.  0.
         23    2    4    4    0    0  0.62299178811E+03 -0.20185776175E+03  0.13315551531E+03  0.67439425064E+03  0.90619479160E+02 0.  0.
         23    2    4    4    0    0 -0.92697785353E+02 -0.20020186899E+03 -0.42721364102E+03  0.48942495966E+03  0.91387243664E+02 0.  0.
          4    1    3    3  502    0 -0.19930565940E+02  0.35228627345E+02  0.23313694860E+02  0.46709870599E+02  0.00000000000E+00 0. -1.
         -1    1    3    3    0  502 -0.51036343682E+03  0.36683100340E+03  0.19093469473E+03  0.65688041556E+03  0.00000000000E+00 0.  1.
         13    1    5    5    0    0  0.73628505010E+02 -0.49217201137E+02 -0.13316839475E+01  0.88573489374E+02  0.00000000000E+00 0.  1.
        -13    1    5    5    0    0  0.54936328310E+03 -0.15264056062E+03  0.13448719925E+03  0.58582076126E+03  0.00000000000E+00 0. -1.
          3    1    6    6  503    0 -0.56233847057E+02 -0.73627113089E+02 -0.26341768422E+03  0.27923480030E+03  0.00000000000E+00 0. -1.
         -3    1    6    6    0  503 -0.36463938296E+02 -0.12657475590E+03 -0.16379595680E+03  0.21019015936E+03  0.00000000000E+00 0.  1.
<mgrwt>
<rscale>  0 0.18657033E+04</rscale>
<asrwt>0</asrwt>
<pdfrwt beam="1">  1        2 0.14978610E+00 0.18657033E+04</pdfrwt>
<pdfrwt beam="2">  1       -1 0.13750767E+00 0.18657033E+04</pdfrwt>
<totfact> 0.12332147E+01</totfact>
</mgrwt>
</event>
<event>
12    7  0.1546317E-007  0.1603719E+04  0.7818608E-02  0.8818267E-01
         -1   -1    0    0    0  501 -0.00000000000E+00  0.00000000000E+00  0.65450962200E+03  0.65450962200E+03  0.00000000000E+00 0.  1.
          2   -1    0    0  501    0  0.00000000000E+00 -0.00000000000E+00 -0.98238216823E+03  0.98238216823E+03  0.00000000000E+00 0. -1.
         24    2    1    2    0    0 -0.16038371157E+03 -0.49723395184E+03  0.53846183242E+02  0.53085738994E+03  0.77107841422E+02 0.  0.
        254    2    1    2    0    0  0.16038371157E+03  0.49723395184E+03 -0.38171872947E+03  0.11060344003E+04  0.89701637021E+03 0.  0.
         23    2    4    4    0    0  0.12685654129E+03  0.44865999875E+03  0.19703791979E+03  0.51528009250E+03  0.96443016067E+02 0.  0.
         23    2    4    4    0    0  0.33527170275E+02  0.48573953088E+02 -0.57875664925E+03  0.59075430780E+03  0.10270293598E+03 0.  0.
          2    1    3    3  502    0 -0.54817707090E+02 -0.10165695693E+03 -0.12222839643E+02  0.11614006936E+03  0.00000000000E+00 0. -1.
         -1    1    3    3    0  502 -0.10556600448E+03 -0.39557699491E+03  0.66069022884E+02  0.41471732058E+03  0.00000000000E+00 0.  1.
         13    1    5    5    0    0 -0.47339890789E+01  0.96018836536E+02  0.66496010893E+02  0.11689203175E+03  0.00000000000E+00 0. -1.
        -13    1    5    5    0    0  0.13159053037E+03  0.35264116221E+03  0.13054190889E+03  0.39838806075E+03  0.00000000000E+00 0.  1.
          4    1    6    6  503    0  0.35204372552E+02  0.31639381175E+02 -0.56934213467E+03  0.57130627915E+03  0.00000000000E+00 0.  1.
         -4    1    6    6    0  503 -0.16772022774E+01  0.16934571913E+02 -0.94145145890E+01  0.19448028648E+02  0.00000000000E+00 0. -1.
<mgrwt>
<rscale>  0 0.16037189E+04</rscale>
<asrwt>0</asrwt>
<pdfrwt beam="1">  1        2 0.15113572E+00 0.16037189E+04</pdfrwt>
<pdfrwt beam="2">  1       -1 0.10069379E+00 0.16037189E+04</pdfrwt>
<totfact> 0.26538940E+01</totfact>
</mgrwt>
</event>
<event>
12    7  0.1546317E-007  0.2198229E+04  0.7818608E-02  0.8519165E-01
          2   -1    0    0  501    0  0.00000000000E+00  0.00000000000E+00  0.13114684764E+04  0.13114684764E+04  0.00000000000E+00 0. -1.
         -1   -1    0    0    0  501 -0.00000000000E+00 -0.00000000000E+00 -0.92114529982E+03  0.92114529982E+03  0.00000000000E+00 0.  1.
         24    2    1    2    0    0  0.76892689455E+03 -0.30934933362E+02 -0.33795747174E+03  0.84436653946E+03  0.80833538787E+02 0.  0.
        254    2    1    2    0    0 -0.76892689455E+03  0.30934933362E+02  0.72828064835E+03  0.13882472368E+04  0.89701290318E+03 0.  0.
         23    2    4    4    0    0 -0.45900400017E+03 -0.22847629205E+03 -0.32919381073E+02  0.52130854017E+03  0.88276951692E+02 0.  0.
         23    2    4    4    0    0 -0.30992289437E+03  0.25941122541E+03  0.76120002942E+03  0.86693869663E+03  0.93866046056E+02 0.  0.
          4    1    3    3  502    0  0.17925591623E+03 -0.41539727048E+02 -0.82221184427E+02  0.20154045647E+03  0.00000000000E+00 0. -1.
         -3    1    3    3    0  502  0.58967097832E+03  0.10604793685E+02 -0.25573628731E+03  0.64282608299E+03  0.00000000000E+00 0.  1.
         13    1    5    5    0    0 -0.23694138256E+02  0.38702794080E+00 -0.17145941473E+02  0.29249705764E+02  0.00000000000E+00 0.  1.
        -13    1    5    5    0    0 -0.43530986192E+03 -0.22886331999E+03 -0.15773439600E+02  0.49205883441E+03  0.00000000000E+00 0. -1.
          4    1    6    6  503    0 -0.26843671456E+03  0.18779174494E+03  0.55105374806E+03  0.64108052727E+03  0.00000000000E+00 0. -1.
         -4    1    6    6    0  503 -0.41486179812E+02  0.71619480466E+02  0.21014628137E+03  0.22585816937E+03  0.00000000000E+00 0.  1.
<mgrwt>
<rscale>  0 0.21982293E+04</rscale>
<asrwt>0</asrwt>
<pdfrwt beam="1">  1        2 0.20176438E+00 0.21982293E+04</pdfrwt>
<pdfrwt beam="2">  1       -1 0.14171466E+00 0.21982293E+04</pdfrwt>
<totfact> 0.68859696E+00</totfact>
</mgrwt>
</event>
<event>
12    7  0.1546317E-007  0.3852182E+04  0.7818608E-02  0.8035049E-01
          2   -1    0    0  501    0  0.00000000000E+00  0.00000000000E+00  0.13673027335E+04  0.13673027335E+04  0.00000000000E+00 0. -1.
         -1   -1    0    0    0  501 -0.00000000000E+00 -0.00000000000E+00 -0.27132446674E+04  0.27132446674E+04  0.00000000000E+00 0.  1.
         24    2    1    2    0    0 -0.10644100072E+04 -0.25752024488E+02 -0.22018711979E+04  0.24470233892E+04  0.77813014349E+02 0.  0.
        254    2    1    2    0    0  0.10644100072E+04  0.25752024488E+02  0.85592926396E+03  0.16335240117E+04  0.89563048278E+03 0.  0.
         23    2    4    4    0    0  0.50056130839E+03 -0.92530408980E+02  0.90901437905E+03  0.10458891346E+04  0.91942593255E+02 0.  0.
         23    2    4    4    0    0  0.56384869878E+03  0.11828243347E+03 -0.53085115095E+02  0.58763487710E+03  0.10286219011E+03 0.  0.
          4    1    3    3  502    0 -0.73858944177E+02 -0.21701828048E+02 -0.16273809319E+03  0.18002722003E+03  0.00000000000E+00 0. -1.
         -1    1    3    3    0  502 -0.99055106300E+03 -0.40501964400E+01 -0.20391331047E+04  0.22669961692E+04  0.00000000000E+00 0.  1.
         13    1    5    5    0    0  0.26298492706E+03 -0.35609266234E+02  0.38356069531E+03  0.46642030261E+03  0.00000000000E+00 0. -1.
        -13    1    5    5    0    0  0.23757638133E+03 -0.56921142745E+02  0.52545368374E+03  0.57946883196E+03  0.00000000000E+00 0.  1.
          4    1    6    6  503    0  0.42795466145E+03  0.13392586309E+03 -0.38630239749E+02  0.45008179755E+03  0.00000000000E+00 0. -1.
         -4    1    6    6    0  503  0.13589403733E+03 -0.15643429624E+02 -0.14454875346E+02  0.13755307955E+03  0.00000000000E+00 0.  1.
<mgrwt>
<rscale>  0 0.38521822E+04</rscale>
<asrwt>0</asrwt>
<pdfrwt beam="1">  1        2 0.21035427E+00 0.38521822E+04</pdfrwt>
<pdfrwt beam="2">  1       -1 0.41742225E+00 0.38521822E+04</pdfrwt>
<totfact> 0.74585855E-02</totfact>
</mgrwt>
</event>
<event>
12    7  0.1546317E-007  0.1915248E+04  0.7818608E-02  0.8647304E-01
          2   -1    0    0  501    0  0.00000000000E+00  0.00000000000E+00  0.61919066114E+03  0.61919066114E+03  0.00000000000E+00 0. -1.
         -1   -1    0    0    0  501 -0.00000000000E+00 -0.00000000000E+00 -0.14810354365E+04  0.14810354365E+04  0.00000000000E+00 0.  1.
         24    2    1    2    0    0  0.34836450570E+03  0.56953837136E+03  0.63103477392E+02  0.67513739008E+03  0.78081120223E+02 0.  0.
        254    2    1    2    0    0 -0.34836450570E+03 -0.56953837136E+03 -0.92494825276E+03  0.14250887076E+04  0.85417607602E+03 0.  0.
         23    2    4    4    0    0 -0.53010564293E+03 -0.89437537280E+02 -0.35292842220E+03  0.65068494022E+03  0.99102747157E+02 0.  0.
         23    2    4    4    0    0  0.18174113723E+03 -0.48010083408E+03 -0.57201983056E+03  0.77440376734E+03  0.94698766975E+02 0.  0.
          4    1    3    3  502    0  0.25639602229E+03  0.43762365175E+03  0.79887491705E+02  0.51345437202E+03  0.00000000000E+00 0. -1.
         -3    1    3    3    0  502  0.91968483409E+02  0.13191471961E+03 -0.16784014312E+02  0.16168301806E+03  0.00000000000E+00 0.  1.
         13    1    5    5    0    0 -0.19267450241E+03 -0.78643720726E+02 -0.11615178705E+03  0.23832653298E+03  0.00000000000E+00 0. -1.
        -13    1    5    5    0    0 -0.33743114052E+03 -0.10793816554E+02 -0.23677663514E+03  0.41235840724E+03  0.00000000000E+00 0.  1.
          3    1    6    6  503    0  0.39225174618E+02 -0.10694194879E+03 -0.19093288001E+03  0.22232984371E+03  0.00000000000E+00 0. -1.
         -3    1    6    6    0  503  0.14251596261E+03 -0.37315888529E+03 -0.38108695055E+03  0.55207392363E+03  0.00000000000E+00 0.  1.
<mgrwt>
<rscale>  0 0.19152476E+04</rscale>
<asrwt>0</asrwt>
<pdfrwt beam="1">  1        2 0.95260102E-01 0.19152476E+04</pdfrwt>
<pdfrwt beam="2">  1       -1 0.22785160E+00 0.19152476E+04</pdfrwt>
<totfact> 0.49731660E+00</totfact>
</mgrwt>
</event>
<event>
12    7  0.1546317E-007  0.1700114E+04  0.7818608E-02  0.8761299E-01
          2   -1    0    0  501    0  0.00000000000E+00  0.00000000000E+00  0.11554998187E+04  0.11554998187E+04  0.00000000000E+00 0. -1.
         -1   -1    0    0    0  501 -0.00000000000E+00 -0.00000000000E+00 -0.62535457177E+03  0.62535457177E+03  0.00000000000E+00 0.  1.
         24    2    1    2    0    0 -0.24391455218E+03  0.38517724325E+03  0.61699449768E+03  0.77130628440E+03  0.79845830843E+02 0.  0.
        254    2    1    2    0    0  0.24391455218E+03 -0.38517724325E+03 -0.86849250790E+02  0.10095481060E+04  0.89654267524E+03 0.  0.
         23    2    4    4    0    0  0.40418737653E+03 -0.33988078065E+02  0.25293188839E+03  0.48668465957E+03  0.91459241755E+02 0.  0.
         23    2    4    4    0    0 -0.16027282434E+03 -0.35118916519E+03 -0.33978113918E+03  0.52286344645E+03  0.94412674578E+02 0.  0.
          4    1    3    3  502    0 -0.22522384565E+03  0.35560884857E+03  0.59860545749E+03  0.73178680472E+03  0.00000000000E+00 0. -1.
         -3    1    3    3    0  502 -0.18690706534E+02  0.29568394684E+02  0.18389040189E+02  0.39519479678E+02  0.00000000000E+00 0.  1.
         13    1    5    5    0    0  0.33352918728E+03 -0.51184076014E+02  0.17507493672E+03  0.38014834193E+03  0.00000000000E+00 0. -1.
        -13    1    5    5    0    0  0.70658189252E+02  0.17195997949E+02  0.77856951669E+02  0.10653631764E+03  0.00000000000E+00 0.  1.
          2    1    6    6  503    0 -0.11792416935E+03 -0.15412870702E+03 -0.14195960346E+03  0.24044603773E+03  0.00000000000E+00 0. -1.
         -2    1    6    6    0  503 -0.42348654990E+02 -0.19706045817E+03 -0.19782153571E+03  0.28241740872E+03  0.00000000000E+00 0.  1.
<mgrwt>
<rscale>  0 0.17001142E+04</rscale>
<asrwt>0</asrwt>
<pdfrwt beam="1">  1        2 0.17776920E+00 0.17001142E+04</pdfrwt>
<pdfrwt beam="2">  1       -1 0.96208396E-01 0.17001142E+04</pdfrwt>
<totfact> 0.22754989E+01</totfact>
</mgrwt>
</event>
<event>
12    7  0.1546317E-007  0.3117965E+04  0.7818608E-02  0.8210825E-01
          2   -1    0    0  501    0  0.00000000000E+00  0.00000000000E+00  0.19812320934E+04  0.19812320934E+04  0.00000000000E+00 0. -1.
         -1   -1    0    0    0  501 -0.00000000000E+00 -0.00000000000E+00 -0.12267246315E+04  0.12267246315E+04  0.00000000000E+00 0.  1.
         24    2    1    2    0    0 -0.42532466715E+03 -0.54960913592E+03  0.16302286125E+04  0.17742834352E+04  0.86400836560E+02 0.  0.
        254    2    1    2    0    0  0.42532466715E+03  0.54960913592E+03 -0.87572115059E+03  0.14336732897E+04  0.89753010719E+03 0.  0.
         23    2    4    4    0    0  0.47379810280E+03 -0.86489377696E+02 -0.38104322146E+03  0.62100254186E+03  0.92114959203E+02 0.  0.
         23    2    4    4    0    0 -0.48473435646E+02  0.63609851361E+03 -0.49467792913E+03  0.81267074786E+03  0.93576160828E+02 0.  0.
          4    1    3    3  502    0 -0.25439767051E+03 -0.36548528735E+03  0.95142181401E+03  0.10504766243E+04  0.00000000000E+00 0. -1.
         -3    1    3    3    0  502 -0.17092699665E+03 -0.18412384857E+03  0.67880679853E+03  0.72380681092E+03  0.00000000000E+00 0.  1.
         13    1    5    5    0    0  0.18715445466E+02  0.67405448050E+01  0.44785580508E+00  0.19897321882E+02  0.00000000000E+00 0.  1.
        -13    1    5    5    0    0  0.45508265733E+03 -0.93229922501E+02 -0.38149107727E+03  0.60110521998E+03  0.00000000000E+00 0. -1.
          3    1    6    6  503    0 -0.29543922304E+02  0.52694617468E+03 -0.36283517029E+03  0.64046426532E+03  0.00000000000E+00 0. -1.
         -3    1    6    6    0  503 -0.18929513342E+02  0.10915233894E+03 -0.13184275884E+03  0.17220648254E+03  0.00000000000E+00 0.  1.
<mgrwt>
<rscale>  0 0.31179649E+04</rscale>
<asrwt>0</asrwt>
<pdfrwt beam="1">  1        2 0.30480494E+00 0.31179649E+04</pdfrwt>
<pdfrwt beam="2">  1       -1 0.18872687E+00 0.31179649E+04</pdfrwt>
<totfact> 0.11905121E+00</totfact>
</mgrwt>
</event>
<event>
12    7  0.1546317E-007  0.2479405E+04  0.7818608E-02  0.8410359E-01
          2   -1    0    0  501    0  0.00000000000E+00  0.00000000000E+00  0.30347212818E+04  0.30347212818E+04  0.00000000000E+00 0. -1.
         -1   -1    0    0    0  501 -0.00000000000E+00 -0.00000000000E+00 -0.50642629533E+03  0.50642629533E+03  0.00000000000E+00 0.  1.
         24    2    1    2    0    0 -0.18970683326E+03 -0.10352438077E+04  0.14179235475E+04  0.17676258211E+04  0.79217629667E+02 0.  0.
        254    2    1    2    0    0  0.18970683326E+03  0.10352438077E+04  0.11103714390E+04  0.17735217560E+04  0.89707093521E+03 0.  0.
         23    2    4    4    0    0  0.26708970818E+03  0.77987668180E+03  0.12171423195E+04  0.14728641645E+04  0.91372151448E+02 0.  0.
         23    2    4    4    0    0 -0.77382874917E+02  0.25536712588E+03 -0.10677088058E+03  0.30065759155E+03  0.88286398176E+02 0.  0.
          2    1    3    3  502    0 -0.56833488229E+02 -0.38889465544E+03  0.58977187590E+03  0.70873123539E+03  0.00000000000E+00 0. -1.
         -1    1    3    3    0  502 -0.13287334503E+03 -0.64634915224E+03  0.82815167162E+03  0.10588945857E+04  0.00000000000E+00 0.  1.
         13    1    5    5    0    0  0.29368172811E+02  0.10901647794E+03  0.22618769082E+03  0.25280022452E+03  0.00000000000E+00 0.  1.
        -13    1    5    5    0    0  0.23772153536E+03  0.67086020386E+03  0.99095462871E+03  0.12200639400E+04  0.00000000000E+00 0. -1.
          3    1    6    6  503    0 -0.26318637278E+02  0.15092619709E+03 -0.17741141346E+02  0.15422754532E+03  0.00000000000E+00 0.  1.
         -3    1    6    6    0  503 -0.51064237639E+02  0.10444092879E+03 -0.89029739230E+02  0.14643004623E+03  0.00000000000E+00 0. -1.
<mgrwt>
<rscale>  0 0.24794053E+04</rscale>
<asrwt>0</asrwt>
<pdfrwt beam="1">  1        2 0.46688019E+00 0.24794053E+04</pdfrwt>
<pdfrwt beam="2">  1       -1 0.77911739E-01 0.24794053E+04</pdfrwt>
<totfact> 0.27766323E+00</totfact>
</mgrwt>
</event>
<event>
12    7  0.1546317E-007  0.1785997E+04  0.7818608E-02  0.8713782E-01
          2   -1    0    0  501    0  0.00000000000E+00  0.00000000000E+00  0.37867927564E+04  0.37867927564E+04  0.00000000000E+00 0. -1.
         -1   -1    0    0    0  501 -0.00000000000E+00 -0.00000000000E+00 -0.21058609670E+03  0.21058609670E+03  0.00000000000E+00 0.  1.
         24    2    1    2    0    0  0.49258069190E+03 -0.16287328512E+03  0.42428519257E+03  0.67496387883E+03  0.79967918879E+02 0.  0.
        254    2    1    2    0    0 -0.49258069190E+03  0.16287328512E+03  0.31519214671E+04  0.33224149743E+04  0.91360214605E+03 0.  0.
         23    2    4    4    0    0 -0.69973617326E+03  0.31639179465E+02  0.27738451854E+04  0.28623584217E+04  0.90812287764E+02 0.  0.
         23    2    4    4    0    0  0.20715548135E+03  0.13123410566E+03  0.37807628170E+03  0.46005655258E+03  0.92598989478E+02 0.  0.
          4    1    3    3  502    0  0.21993898733E+03 -0.61595620644E+02  0.23638579910E+03  0.32870263864E+03  0.00000000000E+00 0. -1.
         -3    1    3    3    0  502  0.27264170457E+03 -0.10127766448E+03  0.18789939347E+03  0.34626124019E+03  0.00000000000E+00 0.  1.
         13    1    5    5    0    0 -0.37228020433E+03  0.41326577745E+02  0.13240870842E+04  0.13760476166E+04  0.00000000000E+00 0.  1.
        -13    1    5    5    0    0 -0.32745596893E+03 -0.96873982797E+01  0.14497581012E+04  0.14863108051E+04  0.00000000000E+00 0. -1.
          1    1    6    6  503    0  0.13584890076E+03  0.13330847969E+03  0.26258795713E+03  0.32431236459E+03  0.00000000000E+00 0. -1.
         -1    1    6    6    0  503  0.71306580598E+02 -0.20743740337E+01  0.11548832456E+03  0.13574418799E+03  0.00000000000E+00 0.  1.
<mgrwt>
<rscale>  0 0.17859965E+04</rscale>
<asrwt>0</asrwt>
<pdfrwt beam="1">  1        2 0.58258345E+00 0.17859965E+04</pdfrwt>
<pdfrwt beam="2">  1       -1 0.32397864E-01 0.17859965E+04</pdfrwt>
<totfact> 0.48749603E+00</totfact>
</mgrwt>
</event>
<event>
12    7  0.1546317E-007  0.1330674E+04  0.7818608E-02  0.9005588E-01
         -1   -1    0    0    0  501 -0.00000000000E+00  0.00000000000E+00  0.39667640044E+03  0.39667640044E+03  0.00000000000E+00 0.  1.
          2   -1    0    0  501    0  0.00000000000E+00 -0.00000000000E+00 -0.11159554722E+04  0.11159554722E+04  0.00000000000E+00 0. -1.
         24    2    1    2    0    0 -0.22370914133E+03  0.13684654628E+03  0.54180241124E+02  0.27972944203E+03  0.80872152570E+02 0.  0.
        254    2    1    2    0    0  0.22370914133E+03 -0.13684654628E+03 -0.77345931283E+03  0.12329024306E+04  0.92359966303E+03 0.  0.
         23    2    4    4    0    0  0.53886056881E+03 -0.40895207310E+02 -0.68870226618E+03  0.88060036195E+03  0.95409933565E+02 0.  0.
         23    2    4    4    0    0 -0.31515142747E+03 -0.95951338974E+02 -0.84757046652E+02  0.35230206862E+03  0.91683743970E+02 0.  0.
          4    1    3    3  502    0 -0.36100488898E+02 -0.80371214122E+01  0.12585144396E+02  0.39066948675E+02  0.00000000000E+00 0. -1.
         -3    1    3    3    0  502 -0.18760865244E+03  0.14488366770E+03  0.41595096728E+02  0.24066249335E+03  0.00000000000E+00 0.  1.
         13    1    5    5    0    0  0.12638480462E+01 -0.16815777257E+00 -0.27166031914E+02  0.27195934970E+02  0.00000000000E+00 0. -1.
        -13    1    5    5    0    0  0.53759672076E+03 -0.40727049538E+02 -0.66153623427E+03  0.85340442698E+03  0.00000000000E+00 0.  1.
          3    1    6    6  503    0 -0.35719980094E+02 -0.12915911533E+02 -0.43727571446E+02  0.57920965575E+02  0.00000000000E+00 0. -1.
         -3    1    6    6    0  503 -0.27943144738E+03 -0.83035427441E+02 -0.41029475207E+02  0.29438110305E+03  0.00000000000E+00 0.  1.
<mgrwt>
<rscale>  0 0.13306738E+04</rscale>
<asrwt>0</asrwt>
<pdfrwt beam="1">  1        2 0.17168546E+00 0.13306738E+04</pdfrwt>
<pdfrwt beam="2">  1       -1 0.61027139E-01 0.13306738E+04</pdfrwt>
<totfact> 0.64694490E+01</totfact>
</mgrwt>
</event>
<event>
12    7  0.1546317E-007  0.1388341E+04  0.7818608E-02  0.8962301E-01
          2   -1    0    0  501    0  0.00000000000E+00  0.00000000000E+00  0.42783460278E+03  0.42783460278E+03  0.00000000000E+00 0. -1.
         -1   -1    0    0    0  501 -0.00000000000E+00 -0.00000000000E+00 -0.11263064841E+04  0.11263064841E+04  0.00000000000E+00 0.  1.
         24    2    1    2    0    0  0.13006692077E+02  0.10215404278E+03 -0.62923107668E+03  0.64236381483E+03  0.78069842116E+02 0.  0.
        254    2    1    2    0    0 -0.13006692077E+02 -0.10215404278E+03 -0.69240804638E+02  0.91177727205E+03  0.90329335340E+03 0.  0.
         23    2    4    4    0    0 -0.43365854667E+03 -0.42750985392E+02  0.80014878634E+02  0.45225099991E+03  0.90781078797E+02 0.  0.
         23    2    4    4    0    0  0.42065185459E+03 -0.59403057387E+02 -0.14925568327E+03  0.45952627213E+03  0.91708395412E+02 0.  0.
          4    1    3    3  502    0 -0.39619099756E+01  0.42781160138E+01 -0.52044917359E+00  0.58540477129E+01  0.00000000000E+00 0. -1.
         -1    1    3    3    0  502  0.16968602053E+02  0.97875926766E+02 -0.62871062751E+03  0.63650976712E+03  0.00000000000E+00 0.  1.
         13    1    5    5    0    0 -0.17785304702E+03  0.14066444845E+02  0.48683198803E+00  0.17840910350E+03  0.00000000000E+00 0. -1.
        -13    1    5    5    0    0 -0.25580549965E+03 -0.56817430237E+02  0.79528046646E+02  0.27384189642E+03  0.00000000000E+00 0.  1.
          1    1    6    6  503    0  0.80747103802E+02  0.28483506657E+01  0.53172274853E+01  0.80972098787E+02  0.00000000000E+00 0. -1.
         -1    1    6    6    0  503  0.33990475079E+03 -0.62251408053E+02 -0.15457291076E+03  0.37855417334E+03  0.00000000000E+00 0.  1.
<mgrwt>
<rscale>  0 0.13883413E+04</rscale>
<asrwt>0</asrwt>
<pdfrwt beam="1">  1        2 0.65820708E-01 0.13883413E+04</pdfrwt>
<pdfrwt beam="2">  1       -1 0.17327792E+00 0.13883413E+04</pdfrwt>
<totfact> 0.19114875E+01</totfact>
</mgrwt>
</event>
<event>
12    7  0.1546317E-007  0.2597623E+04  0.7818608E-02  0.8369009E-01
          2   -1    0    0  501    0  0.00000000000E+00  0.00000000000E+00  0.21468714409E+04  0.21468714409E+04  0.00000000000E+00 0. -1.
         -1   -1    0    0    0  501 -0.00000000000E+00 -0.00000000000E+00 -0.78575351296E+03  0.78575351296E+03  0.00000000000E+00 0.  1.
         24    2    1    2    0    0 -0.86077217033E+02  0.24585619162E+03 -0.65683711736E+03  0.71139944498E+03  0.82459792164E+02 0.  0.
        254    2    1    2    0    0  0.86077217033E+02 -0.24585619162E+03  0.20179550453E+04  0.22212255089E+04  0.89098015814E+03 0.  0.
         23    2    4    4    0    0  0.98866910163E+02 -0.35818012315E+02  0.19851653419E+04  0.19901013484E+04  0.92543752443E+02 0.  0.
         23    2    4    4    0    0 -0.12789693130E+02 -0.21003817930E+03  0.32789703320E+02  0.23112416045E+03  0.89797549428E+02 0.  0.
          2    1    3    3  502    0 -0.24760130981E+02  0.94568038683E+01 -0.40101132540E+02  0.48068659816E+02  0.00000000000E+00 0. -1.
         -1    1    3    3    0  502 -0.61317086053E+02  0.23639938775E+03 -0.61673598482E+03  0.66333078516E+03  0.00000000000E+00 0.  1.
         13    1    5    5    0    0 -0.17815633171E+02 -0.10078027928E+02  0.32089848660E+03  0.32155062142E+03  0.00000000000E+00 0.  1.
        -13    1    5    5    0    0  0.11668254333E+03 -0.25739984387E+02  0.16642668553E+04  0.16685507270E+04  0.00000000000E+00 0. -1.
          1    1    6    6  503    0  0.15842128626E+02 -0.19456599882E+03  0.20290484126E+02  0.19626157210E+03  0.00000000000E+00 0. -1.
         -1    1    6    6    0  503 -0.28631821756E+02 -0.15472180483E+02  0.12499219194E+02  0.34862588349E+02  0.00000000000E+00 0.  1.
<mgrwt>
<rscale>  0 0.25976234E+04</rscale>
<asrwt>0</asrwt>
<pdfrwt beam="1">  1        2 0.33028791E+00 0.25976234E+04</pdfrwt>
<pdfrwt beam="2">  1       -1 0.12088516E+00 0.25976234E+04</pdfrwt>
<totfact> 0.33842614E+00</totfact>
</mgrwt>
</event>
<event>
12    7  0.1546317E-007  0.1295617E+04  0.7818608E-02  0.9033048E-01
         -1   -1    0    0    0  501 -0.00000000000E+00  0.00000000000E+00  0.36514854088E+03  0.36514854088E+03  0.00000000000E+00 0.  1.
          2   -1    0    0  501    0  0.00000000000E+00 -0.00000000000E+00 -0.11492743962E+04  0.11492743962E+04  0.00000000000E+00 0. -1.
         24    2    1    2    0    0 -0.94168024937E+02  0.17539375832E+03 -0.52575758429E+03  0.56743167978E+03  0.76987573000E+02 0.  0.
        254    2    1    2    0    0  0.94168024937E+02 -0.17539375832E+03 -0.25836827099E+03  0.94699125725E+03  0.88904875597E+03 0.  0.
         23    2    4    4    0    0 -0.22308255442E+03 -0.42421466261E+03 -0.71899441461E+02  0.49315229701E+03  0.91135900162E+02 0.  0.
         23    2    4    4    0    0  0.31725057936E+03  0.24882090429E+03 -0.18646882953E+03  0.45383896025E+03  0.92948399319E+02 0.  0.
          4    1    3    3  502    0 -0.87013449825E+02  0.17746735639E+03 -0.52362009609E+03  0.55968205980E+03  0.00000000000E+00 0. -1.
         -3    1    3    3    0  502 -0.71545751116E+01 -0.20735980692E+01 -0.21374882040E+01  0.77496199779E+01  0.00000000000E+00 0.  1.
         13    1    5    5    0    0 -0.22674952232E+03 -0.42660237916E+03 -0.69306445554E+02  0.48806589635E+03  0.00000000000E+00 0. -1.
        -13    1    5    5    0    0  0.36669679010E+01  0.23877165499E+01 -0.25929959076E+01  0.50864006613E+01  0.00000000000E+00 0.  1.
          1    1    6    6  503    0  0.74018491938E+02  0.95227017114E+02 -0.89776163625E+02  0.15035518445E+03  0.00000000000E+00 0. -1.
         -1    1    6    6    0  503  0.24323208742E+03  0.15359388718E+03 -0.96692665902E+02  0.30348377579E+03  0.00000000000E+00 0.  1.
<mgrwt>
<rscale>  0 0.12956170E+04</rscale>
<asrwt>0</asrwt>
<pdfrwt beam="1">  1        2 0.17681144E+00 0.12956170E+04</pdfrwt>
<pdfrwt beam="2">  1       -1 0.56176700E-01 0.12956170E+04</pdfrwt>
<totfact> 0.72839249E+01</totfact>
</mgrwt>
</event>
<event>
12    7  0.1546317E-007  0.1232338E+04  0.7818608E-02  0.9085013E-01
          2   -1    0    0  501    0  0.00000000000E+00  0.00000000000E+00  0.10068559359E+04  0.10068559359E+04  0.00000000000E+00 0. -1.
         -1   -1    0    0    0  501 -0.00000000000E+00 -0.00000000000E+00 -0.37707915743E+03  0.37707915743E+03  0.00000000000E+00 0.  1.
         24    2    1    2    0    0  0.14961994861E+03 -0.74918942596E+02  0.40639816608E+03  0.44668766709E+03  0.79821209884E+02 0.  0.
        254    2    1    2    0    0 -0.14961994861E+03  0.74918942596E+02  0.22337861240E+03  0.93724742625E+03  0.89472663789E+03 0.  0.
         23    2    4    4    0    0 -0.82864216192E+02 -0.36648842325E+03  0.28084673396E+03  0.47793073818E+03  0.91447579637E+02 0.  0.
         23    2    4    4    0    0 -0.66755732417E+02  0.44140736585E+03 -0.57468121561E+02  0.45931668807E+03  0.91501062897E+02 0.  0.
          2    1    3    3  502    0  0.15343395403E+03 -0.51774209355E+02  0.35564847819E+03  0.39077920497E+03  0.00000000000E+00 0. -1.
         -1    1    3    3    0  502 -0.38140054156E+01 -0.23144733241E+02  0.50749687896E+02  0.55908462111E+02  0.00000000000E+00 0.  1.
         13    1    5    5    0    0 -0.16151086933E+02 -0.13688795393E+03  0.15610720330E+03  0.20825135885E+03  0.00000000000E+00 0. -1.
        -13    1    5    5    0    0 -0.66713129259E+02 -0.22960046932E+03  0.12473953065E+03  0.26967937933E+03  0.00000000000E+00 0.  1.
          4    1    6    6  503    0 -0.73031245316E+02  0.31812238734E+03 -0.84821564693E+01  0.32650783007E+03  0.00000000000E+00 0. -1.
         -4    1    6    6    0  503  0.62755128985E+01  0.12328497851E+03 -0.48985965092E+02  0.13280885800E+03  0.00000000000E+00 0.  1.
<mgrwt>
<rscale>  0 0.12323382E+04</rscale>
<asrwt>0</asrwt>
<pdfrwt beam="1">  1        2 0.15490091E+00 0.12323382E+04</pdfrwt>
<pdfrwt beam="2">  1       -1 0.58012178E-01 0.12323382E+04</pdfrwt>
<totfact> 0.84304623E+01</totfact>
</mgrwt>
</event>
<event>
12    7  0.1546317E-007  0.2823638E+04  0.7818608E-02  0.8295967E-01
          2   -1    0    0  501    0  0.00000000000E+00  0.00000000000E+00  0.35995221852E+04  0.35995221852E+04  0.00000000000E+00 0. -1.
         -1   -1    0    0    0  501 -0.00000000000E+00 -0.00000000000E+00 -0.55374949228E+03  0.55374949228E+03  0.00000000000E+00 0.  1.
         24    2    1    2    0    0 -0.12127816183E+04 -0.11577105062E+03  0.12563988178E+04  0.17532162348E+04  0.10481882761E+03 0.  0.
        254    2    1    2    0    0  0.12127816183E+04  0.11577105062E+03  0.17893738751E+04  0.24000554428E+04  0.10364193521E+04 0.  0.
         23    2    4    4    0    0  0.40271737851E+03  0.19546683745E+03  0.14378618591E+04  0.15087202043E+04  0.91658919485E+02 0.  0.
         23    2    4    4    0    0  0.81006423977E+03 -0.79695786829E+02  0.35151201608E+03  0.89133523850E+03  0.91445715886E+02 0.  0.
          4    1    3    3  502    0 -0.23530291924E+02 -0.17242258176E+02  0.36196969284E+02  0.46488608178E+02  0.00000000000E+00 0. -1.
         -3    1    3    3    0  502 -0.11892513264E+04 -0.98528792442E+02  0.12202018485E+04  0.17067276266E+04  0.00000000000E+00 0.  1.
         13    1    5    5    0    0  0.39627851776E+02  0.52098128262E+02  0.24589008582E+03  0.25445336686E+03  0.00000000000E+00 0. -1.
        -13    1    5    5    0    0  0.36308952673E+03  0.14336870918E+03  0.11919717732E+04  0.12542668374E+04  0.00000000000E+00 0.  1.
          2    1    6    6  503    0  0.73053768959E+03 -0.83771664235E+02  0.34255893029E+03  0.81120258158E+03  0.00000000000E+00 0.  1.
         -2    1    6    6    0  503  0.79526550174E+02  0.40758774057E+01  0.89530857870E+01  0.80132656915E+02  0.00000000000E+00 0. -1.
<mgrwt>
<rscale>  0 0.28236385E+04</rscale>
<asrwt>0</asrwt>
<pdfrwt beam="1">  1        2 0.55377263E+00 0.28236385E+04</pdfrwt>
<pdfrwt beam="2">  1       -1 0.85192232E-01 0.28236385E+04</pdfrwt>
<totfact> 0.92894562E-01</totfact>
</mgrwt>
</event>
<event>
12    7  0.1546317E-007  0.1075767E+04  0.7818608E-02  0.9229138E-01
         -1   -1    0    0    0  501 -0.00000000000E+00  0.00000000000E+00  0.31315294274E+03  0.31315294274E+03  0.00000000000E+00 0.  1.
          2   -1    0    0  501    0  0.00000000000E+00 -0.00000000000E+00 -0.92388983278E+03  0.92388983278E+03  0.00000000000E+00 0. -1.
         24    2    1    2    0    0 -0.62674740841E+02  0.77058888637E+02 -0.15655326758E+03  0.20269809665E+03  0.81923118456E+02 0.  0.
        254    2    1    2    0    0  0.62674740841E+02 -0.77058888637E+02 -0.45418362246E+03  0.10343446789E+04  0.92396967285E+03 0.  0.
         23    2    4    4    0    0 -0.35974532642E+03 -0.21649256936E+03 -0.59783278676E+02  0.43302947566E+03  0.87491450522E+02 0.  0.
         23    2    4    4    0    0  0.42242006726E+03  0.13943368072E+03 -0.39440034378E+03  0.60131520321E+03  0.90265596414E+02 0.  0.
          4    1    3    3  502    0 -0.92671480719E+00  0.50207107598E+02 -0.10975969233E+03  0.12070129459E+03  0.00000000000E+00 0. -1.
         -3    1    3    3    0  502 -0.61748026034E+02  0.26851781039E+02 -0.46793575244E+02  0.81996802061E+02  0.00000000000E+00 0.  1.
         13    1    5    5    0    0 -0.10998232716E+03 -0.33461674740E+02 -0.43628691735E+02  0.12296039487E+03  0.00000000000E+00 0. -1.
        -13    1    5    5    0    0 -0.24976299926E+03 -0.18303089462E+03 -0.16154586941E+02  0.31006908079E+03  0.00000000000E+00 0.  1.
          1    1    6    6  503    0  0.61359696189E+02  0.29227847934E+02 -0.23025871816E+02  0.71759808975E+02  0.00000000000E+00 0. -1.
         -1    1    6    6    0  503  0.36106037107E+03  0.11020583279E+03 -0.37137447197E+03  0.52955539424E+03  0.00000000000E+00 0.  1.
<mgrwt>
<rscale>  0 0.10757673E+04</rscale>
<asrwt>0</asrwt>
<pdfrwt beam="1">  1        2 0.14213690E+00 0.10757673E+04</pdfrwt>
<pdfrwt beam="2">  1       -1 0.48177376E-01 0.10757673E+04</pdfrwt>
<totfact> 0.13798364E+02</totfact>
</mgrwt>
</event>
<event>
12    7  0.1546317E-007  0.1434092E+04  0.7818608E-02  0.8929504E-01
         -1   -1    0    0    0  501 -0.00000000000E+00  0.00000000000E+00  0.31663390783E+03  0.31663390783E+03  0.00000000000E+00 0.  1.
          2   -1    0    0  501    0  0.00000000000E+00 -0.00000000000E+00 -0.16238159979E+04  0.16238159979E+04  0.00000000000E+00 0. -1.
         24    2    1    2    0    0 -0.37626324562E+03  0.33213773679E+02 -0.16152506290E+03  0.41855641721E+03  0.80137030624E+02 0.  0.
        254    2    1    2    0    0  0.37626324562E+03 -0.33213773679E+02 -0.11456570272E+04  0.15218934885E+04  0.92787530505E+03 0.  0.
         23    2    4    4    0    0  0.89337678877E+02 -0.43318801084E+02  0.14434861388E+03  0.19722761948E+03  0.90578541389E+02 0.  0.
         23    2    4    4    0    0  0.28692556675E+03  0.10105027406E+02 -0.12900056411E+04  0.13246658690E+04  0.90535728900E+02 0.  0.
          2    1    3    3  502    0 -0.15747260332E+03 -0.22607238384E+02 -0.50300522244E+02  0.16684978442E+03  0.00000000000E+00 0. -1.
         -1    1    3    3    0  502 -0.21879064230E+03  0.55821012063E+02 -0.11122454066E+03  0.25170663279E+03  0.00000000000E+00 0.  1.
         13    1    5    5    0    0  0.12580607960E+02  0.24649709395E+02  0.53539326241E+02  0.60268891845E+02  0.00000000000E+00 0. -1.
        -13    1    5    5    0    0  0.76757070917E+02 -0.67968510479E+02  0.90809287642E+02  0.13695872763E+03  0.00000000000E+00 0.  1.
          1    1    6    6  503    0  0.50208871106E+02  0.32750549550E+02 -0.18924713324E+03  0.19851449990E+03  0.00000000000E+00 0. -1.
         -1    1    6    6    0  503  0.23671669564E+03 -0.22645522144E+02 -0.11007585078E+04  0.11261513691E+04  0.00000000000E+00 0.  1.
<mgrwt>
<rscale>  0 0.14340923E+04</rscale>
<asrwt>0</asrwt>
<pdfrwt beam="1">  1        2 0.24981784E+00 0.14340923E+04</pdfrwt>
<pdfrwt beam="2">  1       -1 0.48712909E-01 0.14340923E+04</pdfrwt>
<totfact> 0.50457217E+01</totfact>
</mgrwt>
</event>
<event>
12    7  0.1546317E-007  0.2304485E+04  0.7818608E-02  0.8476155E-01
          2   -1    0    0  501    0  0.00000000000E+00  0.00000000000E+00  0.23483574238E+04  0.23483574238E+04  0.00000000000E+00 0. -1.
         -1   -1    0    0    0  501 -0.00000000000E+00 -0.00000000000E+00 -0.56535816790E+03  0.56535816790E+03  0.00000000000E+00 0.  1.
         24    2    1    2    0    0 -0.74444387967E+03  0.62889791245E+03  0.66473982622E+03  0.11824344814E+04  0.81012295164E+02 0.  0.
        254    2    1    2    0    0  0.74444387967E+03 -0.62889791245E+03  0.11182594297E+04  0.17312811103E+04  0.89281625020E+03 0.  0.
         23    2    4    4    0    0  0.87908523355E+03 -0.28118738610E+03  0.68890240021E+03  0.11555127365E+04  0.93626776231E+02 0.  0.
         23    2    4    4    0    0 -0.13464135389E+03 -0.34771052635E+03  0.42935702951E+03  0.57576837385E+03  0.90171266093E+02 0.  0.
          4    1    3    3  502    0 -0.22617654062E+02  0.37116209794E+02  0.41431063613E+02  0.60047517325E+02  0.00000000000E+00 0. -1.
         -1    1    3    3    0  502 -0.72182622560E+03  0.59178170266E+03  0.62330876261E+03  0.11223869641E+04  0.00000000000E+00 0.  1.
         13    1    5    5    0    0  0.79336037889E+03 -0.22306420212E+03  0.61098658605E+03  0.10259059106E+04  0.00000000000E+00 0.  1.
        -13    1    5    5    0    0  0.85724854662E+02 -0.58123183980E+02  0.77915814160E+02  0.12960682590E+03  0.00000000000E+00 0. -1.
          4    1    6    6  503    0 -0.15416778065E+02 -0.10874531316E+03  0.17720172684E+03  0.20847942867E+03  0.00000000000E+00 0. -1.
         -4    1    6    6    0  503 -0.11922457582E+03 -0.23896521318E+03  0.25215530266E+03  0.36728894518E+03  0.00000000000E+00 0.  1.
<mgrwt>
<rscale>  0 0.23044852E+04</rscale>
<asrwt>0</asrwt>
<pdfrwt beam="1">  1        2 0.36128575E+00 0.23044852E+04</pdfrwt>
<pdfrwt beam="2">  1       -1 0.86978181E-01 0.23044852E+04</pdfrwt>
<totfact> 0.57131188E+00</totfact>
</mgrwt>
</event>
<event>
12    7  0.1546317E-007  0.1692470E+04  0.7818608E-02  0.8765670E-01
          2   -1    0    0  501    0  0.00000000000E+00  0.00000000000E+00  0.14639381052E+04  0.14639381052E+04  0.00000000000E+00 0. -1.
         -1   -1    0    0    0  501 -0.00000000000E+00 -0.00000000000E+00 -0.48916964234E+03  0.48916964234E+03  0.00000000000E+00 0.  1.
         24    2    1    2    0    0  0.22934202271E+03 -0.41361926764E+02  0.99552826174E+03  0.10257143404E+04  0.81882939890E+02 0.  0.
        254    2    1    2    0    0 -0.22934202271E+03  0.41361926764E+02 -0.20759798851E+02  0.92739340715E+03  0.89739567082E+03 0.  0.
         23    2    4    4    0    0 -0.17892127040E+03  0.42399076319E+03 -0.17935679576E+03  0.50202779233E+03  0.89900254797E+02 0.  0.
         23    2    4    4    0    0 -0.50420752311E+02 -0.38262883643E+03  0.15859699691E+03  0.42536561482E+03  0.82679018541E+02 0.  0.
          4    1    3    3  502    0  0.19358687603E+03 -0.61987853795E+02  0.87547629896E+03  0.89876421971E+03  0.00000000000E+00 0. -1.
         -3    1    3    3    0  502  0.35755146682E+02  0.20625927031E+02  0.12005196278E+03  0.12695012071E+03  0.00000000000E+00 0.  1.
         13    1    5    5    0    0 -0.11263300623E+03  0.35658364193E+03 -0.13468335908E+03  0.39746408013E+03  0.00000000000E+00 0. -1.
        -13    1    5    5    0    0 -0.66288264168E+02  0.67407121267E+02 -0.44673436686E+02  0.10456371220E+03  0.00000000000E+00 0.  1.
          1    1    6    6  503    0 -0.35483881095E+02 -0.36320963812E+03  0.16428871605E+03  0.40021385441E+03  0.00000000000E+00 0. -1.
         -1    1    6    6    0  503 -0.14936871216E+02 -0.19419198313E+02 -0.56917191396E+01  0.25151760408E+02  0.00000000000E+00 0.  1.
<mgrwt>
<rscale>  0 0.16924705E+04</rscale>
<asrwt>0</asrwt>
<pdfrwt beam="1">  1        2 0.22522125E+00 0.16924705E+04</pdfrwt>
<pdfrwt beam="2">  1       -1 0.75256869E-01 0.16924705E+04</pdfrwt>
<totfact> 0.25626298E+01</totfact>
</mgrwt>
</event>
<event>
12    7  0.1546317E-007  0.1409225E+04  0.7818608E-02  0.8947168E-01
          2   -1    0    0  501    0  0.00000000000E+00  0.00000000000E+00  0.61580985818E+03  0.61580985818E+03  0.00000000000E+00 0. -1.
         -1   -1    0    0    0  501 -0.00000000000E+00 -0.00000000000E+00 -0.80622075033E+03  0.80622075033E+03  0.00000000000E+00 0.  1.
         24    2    1    2    0    0 -0.40156562942E+02  0.45322158589E+02  0.35318027579E+03  0.36678047046E+03  0.78262115310E+02 0.  0.
        254    2    1    2    0    0  0.40156562942E+02 -0.45322158589E+02 -0.54359116795E+03  0.10552501381E+04  0.90243827954E+03 0.  0.
         23    2    4    4    0    0 -0.28641800462E+03  0.20220537268E+03  0.70028653261E+01  0.36272124873E+03  0.92711261695E+02 0.  0.
         23    2    4    4    0    0  0.32657456756E+03 -0.24752753127E+03 -0.55059403327E+03  0.69252888933E+03  0.92312762726E+02 0.  0.
          4    1    3    3  502    0 -0.55838731315E+02  0.21673456459E+02  0.30532603498E+03  0.31114577012E+03  0.00000000000E+00 0. -1.
         -3    1    3    3    0  502  0.15682168373E+02  0.23648702130E+02  0.47854240816E+02  0.55634700335E+02  0.00000000000E+00 0.  1.
         13    1    5    5    0    0 -0.71974981405E+02  0.97741428688E+02 -0.18667367851E+02  0.12280983451E+03  0.00000000000E+00 0. -1.
        -13    1    5    5    0    0 -0.21444302322E+03  0.10446394399E+03  0.25670233178E+02  0.23991141422E+03  0.00000000000E+00 0.  1.
          2    1    6    6  503    0  0.12886839793E+03 -0.13704000394E+03 -0.19510227719E+03  0.27102015650E+03  0.00000000000E+00 0. -1.
         -2    1    6    6    0  503  0.19770616963E+03 -0.11048752733E+03 -0.35549175608E+03  0.42150873283E+03  0.00000000000E+00 0.  1.
<mgrwt>
<rscale>  0 0.14092249E+04</rscale>
<asrwt>0</asrwt>
<pdfrwt beam="1">  1        2 0.94739978E-01 0.14092249E+04</pdfrwt>
<pdfrwt beam="2">  1       -1 0.12403396E+00 0.14092249E+04</pdfrwt>
<totfact> 0.30480221E+01</totfact>
</mgrwt>
</event>
<event>
12    7  0.1546317E-007  0.1159659E+04  0.7818608E-02  0.9148919E-01
         -1   -1    0    0    0  501 -0.00000000000E+00  0.00000000000E+00  0.23687913737E+04  0.23687913737E+04  0.00000000000E+00 0.  1.
          2   -1    0    0  501    0  0.00000000000E+00 -0.00000000000E+00 -0.14192988147E+03  0.14192988147E+03  0.00000000000E+00 0. -1.
         24    2    1    2    0    0  0.58738981124E+02  0.14385741049E+03  0.65625789358E+03  0.67913743329E+03  0.80050034077E+02 0.  0.
        254    2    1    2    0    0 -0.58738981124E+02 -0.14385741049E+03  0.15706035986E+04  0.18315838218E+04  0.92938603926E+03 0.  0.
         23    2    4    4    0    0  0.11865353614E+02  0.36075706803E+03  0.37319535433E+03  0.52712368088E+03  0.91094202357E+02 0.  0.
         23    2    4    4    0    0 -0.70604334739E+02 -0.50461447852E+03  0.11974082443E+04  0.13044601410E+04  0.90603597317E+02 0.  0.
          4    1    3    3  502    0  0.17118470658E+01  0.29371510528E+02  0.28399231931E+03  0.28551226502E+03  0.00000000000E+00 0. -1.
         -3    1    3    3    0  502  0.57027134059E+02  0.11448589996E+03  0.37226557427E+03  0.39362516827E+03  0.00000000000E+00 0.  1.
         13    1    5    5    0    0  0.18005029927E+02  0.21337547579E+03  0.28055288152E+03  0.35293511316E+03  0.00000000000E+00 0.  1.
        -13    1    5    5    0    0 -0.61396763129E+01  0.14738159224E+03  0.92642472806E+02  0.17418856772E+03  0.00000000000E+00 0. -1.
          4    1    6    6  503    0 -0.39937773772E+02 -0.39375800998E+03  0.10073218787E+04  0.10822835874E+04  0.00000000000E+00 0. -1.
         -4    1    6    6    0  503 -0.30666560967E+02 -0.11085646853E+03  0.19008636556E+03  0.22217655356E+03  0.00000000000E+00 0.  1.
<mgrwt>
<rscale>  0 0.11596591E+04</rscale>
<asrwt>0</asrwt>
<pdfrwt beam="1">  1        2 0.21835368E-01 0.11596591E+04</pdfrwt>
<pdfrwt beam="2">  1       -1 0.36442941E+00 0.11596591E+04</pdfrwt>
<totfact> 0.36844563E+00</totfact>
</mgrwt>
</event>
<event>
12    7  0.1546317E-007  0.2900118E+04  0.7818608E-02  0.8272842E-01
         -1   -1    0    0    0  501 -0.00000000000E+00  0.00000000000E+00  0.15345674540E+04  0.15345674540E+04  0.00000000000E+00 0.  1.
          2   -1    0    0  501    0  0.00000000000E+00 -0.00000000000E+00 -0.13702042650E+04  0.13702042650E+04  0.00000000000E+00 0. -1.
         24    2    1    2    0    0  0.56667995278E+03  0.11490740745E+04  0.34865413009E+03  0.13301455601E+04  0.78931052230E+02 0.  0.
        254    2    1    2    0    0 -0.56667995278E+03 -0.11490740745E+04 -0.18429094110E+03  0.15746261589E+04  0.89665321715E+03 0.  0.
         23    2    4    4    0    0  0.20078086182E+03 -0.28996430658E+03 -0.20809889596E+03  0.41907145912E+03  0.89013952760E+02 0.  0.
         23    2    4    4    0    0 -0.76746081461E+03 -0.85910976794E+03  0.23807954859E+02  0.11555546998E+04  0.87602227281E+02 0.  0.
          2    1    3    3  502    0  0.44925689867E+02  0.13963047462E+03  0.53442565162E+02  0.15611244289E+03  0.00000000000E+00 0. -1.
         -1    1    3    3    0  502  0.52175426292E+03  0.10094435999E+04  0.29521156493E+03  0.11740331172E+04  0.00000000000E+00 0.  1.
         13    1    5    5    0    0  0.19852273994E+03 -0.23035272500E+03 -0.17461574354E+03  0.35066267848E+03  0.00000000000E+00 0.  1.
        -13    1    5    5    0    0  0.22581218839E+01 -0.59611581573E+02 -0.33483152427E+02  0.68408780640E+02  0.00000000000E+00 0. -1.
          2    1    6    6  503    0 -0.62678184124E+03 -0.65056879616E+03  0.30763856298E+02  0.90390356228E+03  0.00000000000E+00 0.  1.
         -2    1    6    6    0  503 -0.14067897336E+03 -0.20854097179E+03 -0.69559014384E+01  0.25165113754E+03  0.00000000000E+00 0. -1.
<mgrwt>
<rscale>  0 0.29001178E+04</rscale>
<asrwt>0</asrwt>
<pdfrwt beam="1">  1        2 0.21080066E+00 0.29001178E+04</pdfrwt>
<pdfrwt beam="2">  1       -1 0.23608730E+00 0.29001178E+04</pdfrwt>
<totfact> 0.12729503E+00</totfact>
</mgrwt>
</event>
<event>
12    7  0.1546317E-007  0.1515854E+04  0.7818608E-02  0.8873978E-01
          2   -1    0    0  501    0  0.00000000000E+00  0.00000000000E+00  0.14867875088E+03  0.14867875088E+03  0.00000000000E+00 0. -1.
         -1   -1    0    0    0  501 -0.00000000000E+00 -0.00000000000E+00 -0.38637198360E+04  0.38637198360E+04  0.00000000000E+00 0.  1.
         24    2    1    2    0    0  0.22555702513E+03  0.19289687330E+03 -0.24297974299E+03  0.39297373807E+03  0.85463606227E+02 0.  0.
        254    2    1    2    0    0 -0.22555702513E+03 -0.19289687330E+03 -0.34720613421E+04  0.36194248488E+04  0.97823366194E+03 0.  0.
         23    2    4    4    0    0 -0.38501706906E+03  0.21256225476E+03 -0.26179698178E+04  0.26562413414E+04  0.91821791214E+02 0.  0.
         23    2    4    4    0    0  0.15946004394E+03 -0.40545912807E+03 -0.85409152430E+03  0.96318350736E+03  0.91790668501E+02 0.  0.
          4    1    3    3  502    0  0.43035875719E+02  0.33073059602E+02 -0.73456944671E+01  0.54771097283E+02  0.00000000000E+00 0. -1.
         -3    1    3    3    0  502  0.18252114941E+03  0.15982381370E+03 -0.23563404853E+03  0.33820264078E+03  0.00000000000E+00 0.  1.
         13    1    5    5    0    0 -0.16794153920E+03  0.84281591937E+02 -0.13907283488E+04  0.14033649160E+04  0.00000000000E+00 0.  1.
        -13    1    5    5    0    0 -0.21707552986E+03  0.12828066283E+03 -0.12272414690E+04  0.12528764254E+04  0.00000000000E+00 0. -1.
          2    1    6    6  503    0  0.20525244496E+01 -0.60358393067E+02 -0.72068149791E+02  0.94027478348E+02  0.00000000000E+00 0.  1.
         -2    1    6    6    0  503  0.15740751949E+03 -0.34510073500E+03 -0.78202337451E+03  0.86915602901E+03  0.00000000000E+00 0. -1.
<mgrwt>
<rscale>  0 0.15158536E+04</rscale>
<asrwt>0</asrwt>
<pdfrwt beam="1">  1        2 0.22873655E-01 0.15158536E+04</pdfrwt>
<pdfrwt beam="2">  1       -1 0.59441840E+00 0.15158536E+04</pdfrwt>
<totfact> 0.12219480E-01</totfact>
</mgrwt>
</event>
<event>
12    7  0.1546317E-007  0.1336412E+04  0.7818608E-02  0.9001179E-01
         -1   -1    0    0    0  501 -0.00000000000E+00  0.00000000000E+00  0.60166199009E+03  0.60166199009E+03  0.00000000000E+00 0.  1.
          2   -1    0    0  501    0  0.00000000000E+00 -0.00000000000E+00 -0.74210926920E+03  0.74210926920E+03  0.00000000000E+00 0. -1.
         24    2    1    2    0    0  0.66092988169E+02 -0.14757345644E+03 -0.35458968916E+03  0.39770320909E+03  0.79295565603E+02 0.  0.
        254    2    1    2    0    0 -0.66092988169E+02  0.14757345644E+03  0.21414241005E+03  0.94606805020E+03  0.90721638857E+03 0.  0.
         23    2    4    4    0    0 -0.15516678710E+03 -0.15387219257E+03  0.47315015802E+03  0.52896496078E+03  0.90440445780E+02 0.  0.
         23    2    4    4    0    0  0.89073798926E+02  0.30144564901E+03 -0.25900774797E+03  0.41710308942E+03  0.89924149891E+02 0.  0.
          4    1    3    3  502    0 -0.19783343544E+01 -0.13875840468E+02 -0.10911404314E+03  0.11001057752E+03  0.00000000000E+00 0. -1.
         -3    1    3    3    0  502  0.68071322523E+02 -0.13369761598E+03 -0.24547564602E+03  0.28769263157E+03  0.00000000000E+00 0.  1.
         13    1    5    5    0    0 -0.10066362266E+02 -0.26585103428E+01 -0.11044192668E+01  0.10469912532E+02  0.00000000000E+00 0. -1.
        -13    1    5    5    0    0 -0.14510042483E+03 -0.15121368223E+03  0.47425457729E+03  0.51849504824E+03  0.00000000000E+00 0.  1.
          4    1    6    6  503    0  0.90410037880E+02  0.23802354746E+03 -0.16399270122E+03  0.30285770610E+03  0.00000000000E+00 0. -1.
         -4    1    6    6    0  503 -0.13362389536E+01  0.63422101552E+02 -0.95015046752E+02  0.11424538332E+03  0.00000000000E+00 0.  1.
<mgrwt>
<rscale>  0 0.13364115E+04</rscale>
<asrwt>0</asrwt>
<pdfrwt beam="1">  1        2 0.11417066E+00 0.13364115E+04</pdfrwt>
<pdfrwt beam="2">  1       -1 0.92563383E-01 0.13364115E+04</pdfrwt>
<totfact> 0.48198563E+01</totfact>
</mgrwt>
</event>
<event>
12    7  0.1546317E-007  0.1435280E+04  0.7818608E-02  0.8928670E-01
         -1   -1    0    0    0  501 -0.00000000000E+00  0.00000000000E+00  0.80641942943E+03  0.80641942943E+03  0.00000000000E+00 0.  1.
          2   -1    0    0  501    0  0.00000000000E+00 -0.00000000000E+00 -0.63863402359E+03  0.63863402359E+03  0.00000000000E+00 0. -1.
         24    2    1    2    0    0  0.22741167816E+03 -0.25996040534E+03 -0.21168677182E+03  0.41269637279E+03  0.78813216150E+02 0.  0.
        254    2    1    2    0    0 -0.22741167816E+03  0.25996040534E+03  0.37947217766E+03  0.10323570802E+04  0.89580495856E+03 0.  0.
         23    2    4    4    0    0 -0.18837377382E+03  0.22175383009E+03  0.66293353188E+03  0.72928817510E+03  0.87868850103E+02 0.  0.
         23    2    4    4    0    0 -0.39037904340E+02  0.38206575256E+02 -0.28346135422E+03  0.30306890514E+03  0.92286085387E+02 0.  0.
          2    1    3    3  502    0  0.17984762198E+03 -0.23097533001E+03 -0.14778151142E+03  0.32792399321E+03  0.00000000000E+00 0. -1.
         -1    1    3    3    0  502  0.47564056186E+02 -0.28985075330E+02 -0.63905260402E+02  0.84772379581E+02  0.00000000000E+00 0.  1.
         13    1    5    5    0    0 -0.84909064750E+02  0.10526330471E+03  0.41484435774E+03  0.43633215988E+03  0.00000000000E+00 0.  1.
        -13    1    5    5    0    0 -0.10346470907E+03  0.11649052537E+03  0.24808917415E+03  0.29295601522E+03  0.00000000000E+00 0. -1.
          4    1    6    6  503    0 -0.68531499062E+01  0.36238018060E+02 -0.29934757314E+02  0.47499992758E+02  0.00000000000E+00 0. -1.
         -4    1    6    6    0  503 -0.32184754434E+02  0.19685571960E+01 -0.25352659691E+03  0.25556891238E+03  0.00000000000E+00 0.  1.
<mgrwt>
<rscale>  0 0.14352796E+04</rscale>
<asrwt>0</asrwt>
<pdfrwt beam="1">  1        2 0.98251389E-01 0.14352796E+04</pdfrwt>
<pdfrwt beam="2">  1       -1 0.12406453E+00 0.14352796E+04</pdfrwt>
<totfact> 0.29072423E+01</totfact>
</mgrwt>
</event>
<event>
12    7  0.1546317E-007  0.1122766E+04  0.7818608E-02  0.9183282E-01
         -1   -1    0    0    0  501 -0.00000000000E+00  0.00000000000E+00  0.34570584167E+03  0.34570584167E+03  0.00000000000E+00 0.  1.
          2   -1    0    0  501    0  0.00000000000E+00 -0.00000000000E+00 -0.91161590887E+03  0.91161590887E+03  0.00000000000E+00 0. -1.
         24    2    1    2    0    0 -0.16325705865E+03 -0.79459205389E+01 -0.20002468945E+03  0.26921240330E+03  0.75825041042E+02 0.  0.
        254    2    1    2    0    0  0.16325705865E+03  0.79459205389E+01 -0.36588537775E+03  0.98810934724E+03  0.90320095638E+03 0.  0.
         23    2    4    4    0    0 -0.23036937155E+03  0.24470435596E+03 -0.38495201354E+03  0.51927790949E+03  0.92256302681E+02 0.  0.
         23    2    4    4    0    0  0.39362643020E+03 -0.23675843542E+03  0.19066635794E+02  0.46883143775E+03  0.91886109567E+02 0.  0.
          2    1    3    3  502    0 -0.13743778163E+03 -0.26666361527E+01 -0.20020960700E+03  0.24285827452E+03  0.00000000000E+00 0. -1.
         -1    1    3    3    0  502 -0.25819277017E+02 -0.52792843862E+01  0.18491754692E+00  0.26354128781E+02  0.00000000000E+00 0.  1.
         13    1    5    5    0    0 -0.15542805451E+02 -0.42203892580E+01 -0.51257676192E+01  0.16901596980E+02  0.00000000000E+00 0.  1.
        -13    1    5    5    0    0 -0.21482656610E+03  0.24892474522E+03 -0.37982624592E+03  0.50237631251E+03  0.00000000000E+00 0. -1.
          3    1    6    6  503    0  0.30451987689E+03 -0.15299966542E+03 -0.17336185067E+02  0.34123569033E+03  0.00000000000E+00 0. -1.
         -3    1    6    6    0  503  0.89106553303E+02 -0.83758769999E+02  0.36402820861E+02  0.12759574742E+03  0.00000000000E+00 0.  1.
<mgrwt>
<rscale>  0 0.11227661E+04</rscale>
<asrwt>0</asrwt>
<pdfrwt beam="1">  1        2 0.14024860E+00 0.11227661E+04</pdfrwt>
<pdfrwt beam="2">  1       -1 0.53185514E-01 0.11227661E+04</pdfrwt>
<totfact> 0.11612560E+02</totfact>
</mgrwt>
</event>
<event>
12    7  0.1546317E-007  0.1973844E+04  0.7818608E-02  0.8618948E-01
         -1   -1    0    0    0  501 -0.00000000000E+00  0.00000000000E+00  0.36627709400E+03  0.36627709400E+03  0.00000000000E+00 0.  1.
          2   -1    0    0  501    0  0.00000000000E+00 -0.00000000000E+00 -0.26592313350E+04  0.26592313350E+04  0.00000000000E+00 0. -1.
         24    2    1    2    0    0  0.53413276527E+03 -0.55280311402E+03 -0.66383772083E+03  0.10187452420E+04  0.79197567193E+02 0.  0.
        254    2    1    2    0    0 -0.53413276527E+03  0.55280311402E+03 -0.16291165201E+04  0.20067631870E+04  0.88441435914E+03 0.  0.
         23    2    4    4    0    0  0.20257104783E+03 -0.27833880376E+02 -0.39342937949E+03  0.45266718217E+03  0.91165491578E+02 0.  0.
         23    2    4    4    0    0 -0.73670381311E+03  0.58063699440E+03 -0.12356871407E+04  0.15540960048E+04  0.91759768486E+02 0.  0.
          2    1    3    3  502    0  0.42298787943E+03 -0.42255031366E+03 -0.47309266113E+03  0.76241994972E+03  0.00000000000E+00 0. -1.
         -1    1    3    3    0  502  0.11114488584E+03 -0.13025280036E+03 -0.19074505970E+03  0.25632529226E+03  0.00000000000E+00 0.  1.
         13    1    5    5    0    0  0.13851979026E+03  0.76825411485E+01 -0.18156375223E+03  0.22849978087E+03  0.00000000000E+00 0. -1.
        -13    1    5    5    0    0  0.64051257570E+02 -0.35516421525E+02 -0.21186562726E+03  0.22416740130E+03  0.00000000000E+00 0.  1.
          4    1    6    6  503    0 -0.29848040452E+02  0.10148573359E+02 -0.65854709019E+02  0.73011928888E+02  0.00000000000E+00 0. -1.
         -4    1    6    6    0  503 -0.70685577265E+03  0.57048842104E+03 -0.11698324316E+04  0.14810840759E+04  0.00000000000E+00 0.  1.
<mgrwt>
<rscale>  0 0.19738445E+04</rscale>
<asrwt>0</asrwt>
<pdfrwt beam="1">  1        2 0.40911251E+00 0.19738445E+04</pdfrwt>
<pdfrwt beam="2">  1       -1 0.56350323E-01 0.19738445E+04</pdfrwt>
<totfact> 0.94939202E+00</totfact>
</mgrwt>
</event>
<event>
12    7  0.1546317E-007  0.1362001E+04  0.7818608E-02  0.8981793E-01
         -1   -1    0    0    0  501 -0.00000000000E+00  0.00000000000E+00  0.57508409623E+03  0.57508409623E+03  0.00000000000E+00 0.  1.
          2   -1    0    0  501    0  0.00000000000E+00 -0.00000000000E+00 -0.80642422424E+03  0.80642422424E+03  0.00000000000E+00 0. -1.
         24    2    1    2    0    0 -0.11186657409E+03 -0.28243818774E+02 -0.42942627254E+03  0.44912562081E+03  0.63206455536E+02 0.  0.
        254    2    1    2    0    0  0.11186657409E+03  0.28243818774E+02  0.19808614452E+03  0.93238269966E+03  0.90376298567E+03 0.  0.
         23    2    4    4    0    0  0.15501053245E+03  0.41050116525E+03  0.28012976279E+03  0.52862657268E+03  0.91836253742E+02 0.  0.
         23    2    4    4    0    0 -0.43143958360E+02 -0.38225734648E+03 -0.82043618266E+02  0.40375612697E+03  0.91136023023E+02 0.  0.
          2    1    3    3  502    0 -0.56256249404E+02  0.48833208624E+01 -0.28945998879E+03  0.29491642465E+03  0.00000000000E+00 0. -1.
         -1    1    3    3    0  502 -0.55610324691E+02 -0.33127139636E+02 -0.13996628376E+03  0.15420919616E+03  0.00000000000E+00 0.  1.
         13    1    5    5    0    0  0.38924098848E+02  0.39927821480E+02  0.61363552951E+02  0.82914425946E+02  0.00000000000E+00 0.  1.
        -13    1    5    5    0    0  0.11608643361E+03  0.37057334377E+03  0.21876620984E+03  0.44571214674E+03  0.00000000000E+00 0. -1.
          4    1    6    6  503    0 -0.12948282660E+01 -0.80503107077E+02  0.19126225731E+02  0.82754089567E+02  0.00000000000E+00 0.  1.
         -4    1    6    6    0  503 -0.41849130094E+02 -0.30175423940E+03 -0.10116984400E+03  0.32100203741E+03  0.00000000000E+00 0. -1.
<mgrwt>
<rscale>  0 0.13620011E+04</rscale>
<asrwt>0</asrwt>
<pdfrwt beam="1">  1        2 0.12406526E+00 0.13620011E+04</pdfrwt>
<pdfrwt beam="2">  1       -1 0.88474477E-01 0.13620011E+04</pdfrwt>
<totfact> 0.47651059E+01</totfact>
</mgrwt>
</event>
<event>
12    7  0.1546317E-007  0.2175458E+04  0.7818608E-02  0.8528713E-01
          2   -1    0    0  501    0  0.00000000000E+00  0.00000000000E+00  0.79397461671E+03  0.79397461671E+03  0.00000000000E+00 0. -1.
         -1   -1    0    0    0  501 -0.00000000000E+00 -0.00000000000E+00 -0.14901664282E+04  0.14901664282E+04  0.00000000000E+00 0.  1.
         24    2    1    2    0    0 -0.50424387778E+03  0.31801057027E+03  0.41694925937E+03  0.73201268278E+03  0.81260517975E+02 0.  0.
        254    2    1    2    0    0  0.50424387778E+03 -0.31801057027E+03 -0.11131410709E+04  0.15521283622E+04  0.90256678303E+03 0.  0.
         23    2    4    4    0    0  0.33412481569E+03  0.19801647498E+03 -0.12013271252E+03  0.41655506021E+03  0.90754243700E+02 0.  0.
         23    2    4    4    0    0  0.17011906209E+03 -0.51602704525E+03 -0.99300835837E+03  0.11355733019E+04  0.90756363841E+02 0.  0.
          4    1    3    3  502    0 -0.49632842263E+03  0.31288732653E+03  0.39274707751E+03  0.70603870227E+03  0.00000000000E+00 0. -1.
         -3    1    3    3    0  502 -0.79154551484E+01  0.51232437352E+01  0.24202181858E+02  0.25973980505E+02  0.00000000000E+00 0.  1.
         13    1    5    5    0    0  0.26154994656E+02  0.21287033806E+02  0.14638738076E+02  0.36762946103E+02  0.00000000000E+00 0.  1.
        -13    1    5    5    0    0  0.30796982103E+03  0.17672944118E+03 -0.13477145060E+03  0.37979211411E+03  0.00000000000E+00 0. -1.
          2    1    6    6  503    0  0.15382669866E+03 -0.50130996894E+03 -0.97543541528E+03  0.11074513929E+04  0.00000000000E+00 0. -1.
         -2    1    6    6    0  503  0.16292363432E+02 -0.14717076308E+02 -0.17572943091E+02  0.28121909077E+02  0.00000000000E+00 0.  1.
<mgrwt>
<rscale>  0 0.21754579E+04</rscale>
<asrwt>0</asrwt>
<pdfrwt beam="1">  1        2 0.12214994E+00 0.21754579E+04</pdfrwt>
<pdfrwt beam="2">  1       -1 0.22925637E+00 0.21754579E+04</pdfrwt>
<totfact> 0.34712042E+00</totfact>
</mgrwt>
</event>
<event>
12    7  0.1546317E-007  0.1162854E+04  0.7818608E-02  0.9146006E-01
          2   -1    0    0  501    0  0.00000000000E+00  0.00000000000E+00  0.99304635266E+03  0.99304635266E+03  0.00000000000E+00 0. -1.
         -1   -1    0    0    0  501 -0.00000000000E+00 -0.00000000000E+00 -0.34042469493E+03  0.34042469493E+03  0.00000000000E+00 0.  1.
         24    2    1    2    0    0  0.30162400738E+02 -0.15899253317E+03 -0.42695996538E+02  0.18505110622E+03  0.78946613429E+02 0.  0.
        254    2    1    2    0    0 -0.30162400738E+02  0.15899253317E+03  0.69531765427E+03  0.11484199414E+04  0.89956285237E+03 0.  0.
         23    2    4    4    0    0  0.23087990060E+03  0.28976412252E+03  0.74492004044E+03  0.83746736293E+03  0.95796357564E+02 0.  0.
         23    2    4    4    0    0 -0.26104230134E+03 -0.13077158936E+03 -0.49602386166E+02  0.31095257844E+03  0.94798827284E+02 0.  0.
          2    1    3    3  502    0 -0.37467421408E+01 -0.13113897379E+01  0.13642652557E+02  0.14208440748E+02  0.00000000000E+00 0. -1.
         -1    1    3    3    0  502  0.33909142879E+02 -0.15768114343E+03 -0.56338649094E+02  0.17084266547E+03  0.00000000000E+00 0.  1.
         13    1    5    5    0    0  0.11130137451E+03  0.86654765269E+02  0.21062918783E+03  0.25349891336E+03  0.00000000000E+00 0. -1.
        -13    1    5    5    0    0  0.11957852609E+03  0.20310935725E+03  0.53429085261E+03  0.58396844957E+03  0.00000000000E+00 0.  1.
          4    1    6    6  503    0 -0.58866773772E+01  0.10509859139E+02  0.68837045264E+01  0.13874274672E+02  0.00000000000E+00 0. -1.
         -4    1    6    6    0  503 -0.25515562396E+03 -0.14128144850E+03 -0.56486090692E+02  0.29707830377E+03  0.00000000000E+00 0.  1.
<mgrwt>
<rscale>  0 0.11628542E+04</rscale>
<asrwt>0</asrwt>
<pdfrwt beam="1">  1        2 0.15277636E+00 0.11628542E+04</pdfrwt>
<pdfrwt beam="2">  1       -1 0.52373030E-01 0.11628542E+04</pdfrwt>
<totfact> 0.10542932E+02</totfact>
</mgrwt>
</event>
<event>
12    7  0.1546317E-007  0.1457020E+04  0.7818608E-02  0.8913548E-01
          2   -1    0    0  501    0  0.00000000000E+00  0.00000000000E+00  0.59921030981E+03  0.59921030981E+03  0.00000000000E+00 0. -1.
         -1   -1    0    0    0  501 -0.00000000000E+00 -0.00000000000E+00 -0.88571041828E+03  0.88571041828E+03  0.00000000000E+00 0.  1.
         24    2    1    2    0    0 -0.41025660397E+03 -0.18296627742E+03 -0.18218568585E+03  0.49116234866E+03  0.79130833659E+02 0.  0.
        254    2    1    2    0    0  0.41025660397E+03  0.18296627742E+03 -0.10431442262E+03  0.99375837944E+03  0.88027670545E+03 0.  0.
         23    2    4    4    0    0  0.63247166416E+03  0.20641944705E+03 -0.24563248387E+03  0.71482872343E+03  0.89528725083E+02 0.  0.
         23    2    4    4    0    0 -0.22221506019E+03 -0.23453169628E+02  0.14131806125E+03  0.27892965601E+03  0.88889675570E+02 0.  0.
          4    1    3    3  502    0 -0.25786285019E+03 -0.78750589423E+02 -0.86095720896E+02  0.28303246810E+03  0.00000000000E+00 0. -1.
         -3    1    3    3    0  502 -0.15239375378E+03 -0.10421568800E+03 -0.96089964952E+02  0.20812988056E+03  0.00000000000E+00 0.  1.
         13    1    5    5    0    0  0.52687910598E+03  0.19355615296E+03 -0.17833867133E+03  0.58895692403E+03  0.00000000000E+00 0. -1.
        -13    1    5    5    0    0  0.10559255818E+03  0.12863294093E+02 -0.67293812539E+02  0.12587179940E+03  0.00000000000E+00 0.  1.
          1    1    6    6  503    0 -0.14504840628E+03 -0.26797795551E+02  0.13741221235E+03  0.20159186024E+03  0.00000000000E+00 0. -1.
         -1    1    6    6    0  503 -0.77166653914E+02  0.33446259227E+01  0.39058488961E+01  0.77337795769E+02  0.00000000000E+00 0.  1.
<mgrwt>
<rscale>  0 0.14570200E+04</rscale>
<asrwt>0</asrwt>
<pdfrwt beam="1">  1        2 0.92186202E-01 0.14570200E+04</pdfrwt>
<pdfrwt beam="2">  1       -1 0.13626314E+00 0.14570200E+04</pdfrwt>
<totfact> 0.24750080E+01</totfact>
</mgrwt>
</event>
<event>
12    7  0.1546317E-007  0.1569970E+04  0.7818608E-02  0.8839212E-01
         -1   -1    0    0    0  501 -0.00000000000E+00  0.00000000000E+00  0.77492945186E+03  0.77492945186E+03  0.00000000000E+00 0.  1.
          2   -1    0    0  501    0  0.00000000000E+00 -0.00000000000E+00 -0.79517067283E+03  0.79517067283E+03  0.00000000000E+00 0. -1.
         24    2    1    2    0    0 -0.10582196090E+03 -0.47407258085E+03 -0.22193495612E+03  0.54098662322E+03  0.86419340637E+02 0.  0.
        254    2    1    2    0    0  0.10582196090E+03  0.47407258085E+03  0.20169373515E+03  0.10291135015E+04  0.88456268109E+03 0.  0.
         23    2    4    4    0    0  0.35644600541E+03  0.60047235690E+03  0.77450039366E+02  0.70877982048E+03  0.93538864396E+02 0.  0.
         23    2    4    4    0    0 -0.25062404451E+03 -0.12639977605E+03  0.12424369579E+03  0.32033368098E+03  0.91585239833E+02 0.  0.
          4    1    3    3  502    0 -0.63570630767E+02 -0.37377074582E+03 -0.13773670363E+03  0.40338219477E+03  0.00000000000E+00 0. -1.
         -3    1    3    3    0  502 -0.42251330131E+02 -0.10030183503E+03 -0.84198252494E+02  0.13760442846E+03  0.00000000000E+00 0.  1.
         13    1    5    5    0    0  0.22832903071E+03  0.39423071163E+03  0.57358715703E+01  0.45561485981E+03  0.00000000000E+00 0.  1.
        -13    1    5    5    0    0  0.12811697469E+03  0.20624164527E+03  0.71714167795E+02  0.25316496067E+03  0.00000000000E+00 0. -1.
          1    1    6    6  503    0 -0.93672501953E+02 -0.88835063736E+01  0.13235672997E+02  0.95019142005E+02  0.00000000000E+00 0. -1.
         -1    1    6    6    0  503 -0.15695154256E+03 -0.11751626968E+03  0.11100802279E+03  0.22531453898E+03  0.00000000000E+00 0.  1.
<mgrwt>
<rscale>  0 0.15699696E+04</rscale>
<asrwt>0</asrwt>
<pdfrwt beam="1">  1        2 0.12233395E+00 0.15699696E+04</pdfrwt>
<pdfrwt beam="2">  1       -1 0.11921992E+00 0.15699696E+04</pdfrwt>
<totfact> 0.23976182E+01</totfact>
</mgrwt>
</event>
<event>
12    7  0.1546317E-007  0.1338819E+04  0.7818608E-02  0.8999335E-01
          2   -1    0    0  501    0  0.00000000000E+00  0.00000000000E+00  0.92364699379E+03  0.92364699379E+03  0.00000000000E+00 0. -1.
         -1   -1    0    0    0  501 -0.00000000000E+00 -0.00000000000E+00 -0.48515186139E+03  0.48515186139E+03  0.00000000000E+00 0.  1.
         24    2    1    2    0    0  0.19964166375E+03  0.30132364444E+03  0.13683983281E+03  0.39458291573E+03  0.79484620791E+02 0.  0.
        254    2    1    2    0    0 -0.19964166375E+03 -0.30132364444E+03  0.30165529959E+03  0.10142159395E+04  0.89832361623E+03 0.  0.
         23    2    4    4    0    0 -0.36976010458E+03 -0.47166713881E+03 -0.15921593175E+02  0.60667186770E+03  0.92762239978E+02 0.  0.
         23    2    4    4    0    0  0.17011844083E+03  0.17034349437E+03  0.31757689276E+03  0.40754407175E+03  0.85322316047E+02 0.  0.
          4    1    3    3  502    0  0.15463681581E+03  0.26699627426E+03  0.13792880340E+03  0.33797027988E+03  0.00000000000E+00 0. -1.
         -3    1    3    3    0  502  0.45004847939E+02  0.34327370179E+02 -0.10889705947E+01  0.56612635854E+02  0.00000000000E+00 0.  1.
         13    1    5    5    0    0 -0.19562664821E+03 -0.18989064809E+03 -0.35068175595E+02  0.27487819241E+03  0.00000000000E+00 0. -1.
        -13    1    5    5    0    0 -0.17413345637E+03 -0.28177649072E+03  0.19146582420E+02  0.33179367530E+03  0.00000000000E+00 0.  1.
          1    1    6    6  503    0 -0.89980001462E+01  0.14651815864E+02  0.31073792732E+02  0.35513663702E+02  0.00000000000E+00 0. -1.
         -1    1    6    6    0  503  0.17911644098E+03  0.15569167850E+03  0.28650310003E+03  0.37203040805E+03  0.00000000000E+00 0.  1.
<mgrwt>
<rscale>  0 0.13388190E+04</rscale>
<asrwt>0</asrwt>
<pdfrwt beam="1">  1        2 0.14209954E+00 0.13388190E+04</pdfrwt>
<pdfrwt beam="2">  1       -1 0.74638748E-01 0.13388190E+04</pdfrwt>
<totfact> 0.56964188E+01</totfact>
</mgrwt>
</event>
<event>
12    7  0.1546317E-007  0.2065349E+04  0.7818608E-02  0.8576663E-01
         -1   -1    0    0    0  501 -0.00000000000E+00  0.00000000000E+00  0.70180121533E+03  0.70180121533E+03  0.00000000000E+00 0.  1.
          2   -1    0    0  501    0  0.00000000000E+00 -0.00000000000E+00 -0.15195420035E+04  0.15195420035E+04  0.00000000000E+00 0. -1.
         24    2    1    2    0    0  0.77684470193E+03  0.27030293843E+03 -0.50480625803E+03  0.96836202693E+03  0.79651036487E+02 0.  0.
        254    2    1    2    0    0 -0.77684470193E+03 -0.27030293843E+03 -0.31293453011E+03  0.12529811919E+04  0.89189824396E+03 0.  0.
         23    2    4    4    0    0  0.47559972304E+01 -0.28994295107E+03  0.15054857484E+03  0.33942652018E+03  0.91956265859E+02 0.  0.
         23    2    4    4    0    0 -0.78160069916E+03  0.19640012640E+02 -0.46348310495E+03  0.91355467168E+03  0.92087819774E+02 0.  0.
          2    1    3    3  502    0  0.62960704950E+03  0.23097743276E+03 -0.44391471382E+03  0.80424864586E+03  0.00000000000E+00 0. -1.
         -1    1    3    3    0  502  0.14723765243E+03  0.39325505670E+02 -0.60891544208E+02  0.16411338107E+03  0.00000000000E+00 0.  1.
         13    1    5    5    0    0 -0.11439539396E+02 -0.28762466167E+03  0.14254413411E+03  0.32121276318E+03  0.00000000000E+00 0.  1.
        -13    1    5    5    0    0  0.16195536627E+02 -0.23182893926E+01  0.80044407357E+01  0.18213756994E+02  0.00000000000E+00 0. -1.
          2    1    6    6  503    0 -0.14165080531E+02 -0.11058747140E+02 -0.35317781516E+01  0.18314443799E+02  0.00000000000E+00 0. -1.
         -2    1    6    6    0  503 -0.76743561863E+03  0.30698759780E+02 -0.45995132680E+03  0.89524022789E+03  0.00000000000E+00 0.  1.
<mgrwt>
<rscale>  0 0.20653488E+04</rscale>
<asrwt>0</asrwt>
<pdfrwt beam="1">  1        2 0.23377569E+00 0.20653488E+04</pdfrwt>
<pdfrwt beam="2">  1       -1 0.10796942E+00 0.20653488E+04</pdfrwt>
<totfact> 0.10391340E+01</totfact>
</mgrwt>
</event>
<event>
12    7  0.1546317E-007  0.1338204E+04  0.7818608E-02  0.8999806E-01
          2   -1    0    0  501    0  0.00000000000E+00  0.00000000000E+00  0.11693139364E+04  0.11693139364E+04  0.00000000000E+00 0. -1.
         -1   -1    0    0    0  501 -0.00000000000E+00 -0.00000000000E+00 -0.38287175441E+03  0.38287175441E+03  0.00000000000E+00 0.  1.
         24    2    1    2    0    0 -0.20591900917E+03  0.59631152852E+02  0.56396039952E+03  0.60865760939E+03  0.80338287961E+02 0.  0.
        254    2    1    2    0    0  0.20591900917E+03 -0.59631152852E+02  0.22248178250E+03  0.94352808146E+03  0.89150916104E+03 0.  0.
         23    2    4    4    0    0  0.48383438599E+03  0.17767404772E+03  0.21777061203E+03  0.56694454533E+03  0.91314279922E+02 0.  0.
         23    2    4    4    0    0 -0.27791537681E+03 -0.23730520057E+03  0.47111704701E+01  0.37658353613E+03  0.90786836450E+02 0.  0.
          2    1    3    3  502    0 -0.15295485040E+03  0.75120796879E+02  0.46664119743E+03  0.49678197181E+03  0.00000000000E+00 0. -1.
         -1    1    3    3    0  502 -0.52964158777E+02 -0.15489644026E+02  0.97319202090E+02  0.11187563757E+03  0.00000000000E+00 0.  1.
         13    1    5    5    0    0  0.17873056805E+03  0.48906054275E+02  0.12328260577E+03  0.22256464001E+03  0.00000000000E+00 0. -1.
        -13    1    5    5    0    0  0.30510381794E+03  0.12876799344E+03  0.94488006257E+02  0.34437990531E+03  0.00000000000E+00 0.  1.
          1    1    6    6  503    0 -0.24435363363E+03 -0.17902631677E+03  0.30733228033E+02  0.30447274372E+03  0.00000000000E+00 0.  1.
         -1    1    6    6    0  503 -0.33561743183E+02 -0.58278883796E+02 -0.26022057563E+02  0.72110792408E+02  0.00000000000E+00 0. -1.
<mgrwt>
<rscale>  0 0.13382037E+04</rscale>
<asrwt>0</asrwt>
<pdfrwt beam="1">  1        2 0.17989445E+00 0.13382037E+04</pdfrwt>
<pdfrwt beam="2">  1       -1 0.58903347E-01 0.13382037E+04</pdfrwt>
<totfact> 0.64349913E+01</totfact>
</mgrwt>
</event>
<event>
12    7  0.1546317E-007  0.1350988E+04  0.7818608E-02  0.8990080E-01
         -1   -1    0    0    0  501 -0.00000000000E+00  0.00000000000E+00  0.54941481679E+03  0.54941481679E+03  0.00000000000E+00 0.  1.
          2   -1    0    0  501    0  0.00000000000E+00 -0.00000000000E+00 -0.83050628764E+03  0.83050628764E+03  0.00000000000E+00 0. -1.
         24    2    1    2    0    0  0.86391341309E+02  0.31908145837E+03  0.76034906302E+02  0.34861043618E+03  0.80445561136E+02 0.  0.
        254    2    1    2    0    0 -0.86391341309E+02 -0.31908145837E+03 -0.35712637715E+03  0.10313106682E+04  0.90927773768E+03 0.  0.
         23    2    4    4    0    0 -0.48439032883E+03 -0.14702879139E+03 -0.12124375899E+03  0.52869316670E+03  0.92547065139E+02 0.  0.
         23    2    4    4    0    0  0.39799898752E+03 -0.17205266699E+03 -0.23588261816E+03  0.50261750154E+03  0.94754572545E+02 0.  0.
          4    1    3    3  502    0 -0.13711558763E+02  0.27174552038E+02 -0.13286193217E+01  0.30466840195E+02  0.00000000000E+00 0. -1.
         -3    1    3    3    0  502  0.10010290007E+03  0.29190690634E+03  0.77363525624E+02  0.31814359599E+03  0.00000000000E+00 0.  1.
         13    1    5    5    0    0 -0.17300800971E+03 -0.60092254464E+02 -0.89505639783E+02  0.20384825244E+03  0.00000000000E+00 0.  1.
        -13    1    5    5    0    0 -0.31138231912E+03 -0.86936536923E+02 -0.31738119207E+02  0.32484491426E+03  0.00000000000E+00 0. -1.
          3    1    6    6  503    0  0.40185076814E+03 -0.16558033164E+03 -0.22508597154E+03  0.48945334881E+03  0.00000000000E+00 0.  1.
         -3    1    6    6    0  503 -0.38517806178E+01 -0.64723353470E+01 -0.10796646619E+02  0.13164152726E+02  0.00000000000E+00 0. -1.
<mgrwt>
<rscale>  0 0.13509885E+04</rscale>
<asrwt>0</asrwt>
<pdfrwt beam="1">  1        2 0.12777020E+00 0.13509885E+04</pdfrwt>
<pdfrwt beam="2">  1       -1 0.84525356E-01 0.13509885E+04</pdfrwt>
<totfact> 0.50635296E+01</totfact>
</mgrwt>
</event>
<event>
12    7  0.1546317E-007  0.2677726E+04  0.7818608E-02  0.8342268E-01
         -1   -1    0    0    0  501 -0.00000000000E+00  0.00000000000E+00  0.93766325301E+03  0.93766325301E+03  0.00000000000E+00 0.  1.
          2   -1    0    0  501    0  0.00000000000E+00 -0.00000000000E+00 -0.19117249531E+04  0.19117249531E+04  0.00000000000E+00 0. -1.
         24    2    1    2    0    0  0.98115270396E+03  0.98481208414E+02  0.26682788601E+03  0.10248232691E+04  0.81892827748E+02 0.  0.
        254    2    1    2    0    0 -0.98115270396E+03 -0.98481208414E+02 -0.12408895861E+04  0.18245649370E+04  0.90380919866E+03 0.  0.
         23    2    4    4    0    0 -0.10881461384E+04 -0.14169319798E+03 -0.12629315079E+04  0.16762358818E+04  0.10311041012E+03 0.  0.
         23    2    4    4    0    0  0.10699343446E+03  0.43211989562E+02  0.22041921853E+02  0.14832905523E+03  0.90558220213E+02 0.  0.
          4    1    3    3  502    0  0.55024533243E+03  0.70859147047E+02  0.18882469988E+03  0.58604241473E+03  0.00000000000E+00 0. -1.
         -3    1    3    3    0  502  0.43090737152E+03  0.27622061367E+02  0.78003186137E+02  0.43878085436E+03  0.00000000000E+00 0.  1.
         13    1    5    5    0    0 -0.18460348748E+03 -0.38126801842E+02 -0.16463996751E+03  0.25027668591E+03  0.00000000000E+00 0.  1.
        -13    1    5    5    0    0 -0.90354265093E+03 -0.10356639613E+03 -0.10982915404E+04  0.14259591959E+04  0.00000000000E+00 0. -1.
          4    1    6    6  503    0  0.84617783491E+02 -0.94416570571E+01  0.30614352716E+02  0.90479570971E+02  0.00000000000E+00 0. -1.
         -4    1    6    6    0  503  0.22375650969E+02  0.52653646619E+02 -0.85724308629E+01  0.57849484263E+02  0.00000000000E+00 0.  1.
<mgrwt>
<rscale>  0 0.26777261E+04</rscale>
<asrwt>0</asrwt>
<pdfrwt beam="1">  1        2 0.29411153E+00 0.26777261E+04</pdfrwt>
<pdfrwt beam="2">  1       -1 0.14425589E+00 0.26777261E+04</pdfrwt>
<totfact> 0.28977427E+00</totfact>
</mgrwt>
</event>
<event>
12    7  0.1546317E-007  0.1778710E+04  0.7818608E-02  0.8717704E-01
         -1   -1    0    0    0  501 -0.00000000000E+00  0.00000000000E+00  0.86972648856E+03  0.86972648856E+03  0.00000000000E+00 0.  1.
          2   -1    0    0  501    0  0.00000000000E+00 -0.00000000000E+00 -0.90942610322E+03  0.90942610322E+03  0.00000000000E+00 0. -1.
         24    2    1    2    0    0 -0.28256884956E+03 -0.41228713224E+03 -0.43840158644E+03  0.66980373898E+03  0.81334270791E+02 0.  0.
        254    2    1    2    0    0  0.28256884956E+03  0.41228713224E+03  0.39870197177E+03  0.11093488528E+04  0.90656813354E+03 0.  0.
         23    2    4    4    0    0  0.51414645355E+03  0.53760615808E+03  0.35802078617E+03  0.83070358985E+03  0.92318004522E+02 0.  0.
         23    2    4    4    0    0 -0.23157760399E+03 -0.12531902584E+03  0.40681185603E+02  0.27864526295E+03  0.81579279209E+02 0.  0.
          2    1    3    3  502    0 -0.20078621837E+03 -0.30554186420E+03 -0.27108384137E+03  0.45514545512E+03  0.00000000000E+00 0. -1.
         -1    1    3    3    0  502 -0.81782631193E+02 -0.10674526804E+03 -0.16731774507E+03  0.21465828386E+03  0.00000000000E+00 0.  1.
         13    1    5    5    0    0  0.51035964020E+03  0.51129154274E+03  0.35118072167E+03  0.80325207954E+03  0.00000000000E+00 0.  1.
        -13    1    5    5    0    0  0.37868133524E+01  0.26314615338E+02  0.68400645052E+01  0.27451510308E+02  0.00000000000E+00 0. -1.
          4    1    6    6  503    0  0.46216010635E+01 -0.12126184117E+01  0.86875665152E+01  0.99148097187E+01  0.00000000000E+00 0. -1.
         -4    1    6    6    0  503 -0.23619920505E+03 -0.12410640742E+03  0.31993619088E+02  0.26873045323E+03  0.00000000000E+00 0.  1.
<mgrwt>
<rscale>  0 0.17787096E+04</rscale>
<asrwt>0</asrwt>
<pdfrwt beam="1">  1        2 0.13991171E+00 0.17787096E+04</pdfrwt>
<pdfrwt beam="2">  1       -1 0.13380408E+00 0.17787096E+04</pdfrwt>
<totfact> 0.14696770E+01</totfact>
</mgrwt>
</event>
<event>
12    7  0.1546317E-007  0.1776676E+04  0.7818608E-02  0.8718802E-01
          2   -1    0    0  501    0  0.00000000000E+00  0.00000000000E+00  0.18577432779E+04  0.18577432779E+04  0.00000000000E+00 0. -1.
         -1   -1    0    0    0  501 -0.00000000000E+00 -0.00000000000E+00 -0.42478637680E+03  0.42478637680E+03  0.00000000000E+00 0.  1.
         24    2    1    2    0    0  0.16456011938E+03 -0.92137860558E+02 -0.27212468056E+03  0.34025779902E+03  0.78448134332E+02 0.  0.
        254    2    1    2    0    0 -0.16456011938E+03  0.92137860558E+02  0.17050815817E+04  0.19422718557E+04  0.91079489625E+03 0.  0.
         23    2    4    4    0    0  0.51496081145E+02  0.45950974840E+03  0.10977372668E+04  0.11948266381E+04  0.93715168712E+02 0.  0.
         23    2    4    4    0    0 -0.21605620053E+03 -0.36737188784E+03  0.60734431489E+03  0.74744521765E+03  0.90359563981E+02 0.  0.
          4    1    3    3  502    0  0.15766370797E+02  0.33159571569E+01 -0.69562304315E+02  0.71403698795E+02  0.00000000000E+00 0. -1.
         -3    1    3    3    0  502  0.14879374859E+03 -0.95453817715E+02 -0.20256237625E+03  0.26885410022E+03  0.00000000000E+00 0.  1.
         13    1    5    5    0    0  0.75932116828E+02  0.35310449858E+03  0.80177377669E+03  0.87936889999E+03  0.00000000000E+00 0.  1.
        -13    1    5    5    0    0 -0.24436035682E+02  0.10640524982E+03  0.29596349012E+03  0.31545773808E+03  0.00000000000E+00 0. -1.
          3    1    6    6  503    0 -0.52380026437E+02 -0.17706000120E+03  0.25511685843E+03  0.31492621778E+03  0.00000000000E+00 0. -1.
         -3    1    6    6    0  503 -0.16367617409E+03 -0.19031188664E+03  0.35222745646E+03  0.43251899987E+03  0.00000000000E+00 0.  1.
<mgrwt>
<rscale>  0 0.17766756E+04</rscale>
<asrwt>0</asrwt>
<pdfrwt beam="1">  1        2 0.28580665E+00 0.17766756E+04</pdfrwt>
<pdfrwt beam="2">  1       -1 0.65351751E-01 0.17766756E+04</pdfrwt>
<totfact> 0.20493287E+01</totfact>
</mgrwt>
</event>
<event>
12    7  0.2835772E-007  0.1994627E+04  0.7818608E-02  0.8609137E-01
         -1   -1    0    0    0  501 -0.00000000000E+00  0.00000000000E+00  0.35598304404E+03  0.35598304404E+03  0.00000000000E+00 0.  1.
          2   -1    0    0  501    0  0.00000000000E+00 -0.00000000000E+00 -0.27940491513E+04  0.27940491513E+04  0.00000000000E+00 0. -1.
         24    2    1    2    0    0  0.64960869772E+03 -0.20049407704E+03 -0.33449869804E+03  0.76204834985E+03  0.81479895880E+02 0.  0.
        254    2    1    2    0    0 -0.64960869772E+03  0.20049407704E+03 -0.21035674092E+04  0.23879838455E+04  0.90292949121E+03 0.  0.
         23    2    4    4    0    0 -0.58330486367E+03 -0.26037412588E+03 -0.13627155670E+04  0.15082524491E+04  0.98956982140E+02 0.  0.
         23    2    4    4    0    0 -0.66303834054E+02  0.46086820292E+03 -0.74085184226E+03  0.87973139641E+03  0.90940523305E+02 0.  0.
          4    1    3    3  502    0  0.10782022646E+03 -0.11496038597E+02 -0.30259867977E+02  0.11257450754E+03  0.00000000000E+00 0. -1.
         -3    1    3    3    0  502  0.54178847126E+03 -0.18899803844E+03 -0.30423883007E+03  0.64947384231E+03  0.00000000000E+00 0.  1.
         13    1    5    5    0    0 -0.91163636538E+02 -0.31035048101E+02 -0.29657033123E+03  0.31181395768E+03  0.00000000000E+00 0. -1.
        -13    1    5    5    0    0 -0.49214122713E+03 -0.22933907778E+03 -0.10661452357E+04  0.11964384914E+04  0.00000000000E+00 0.  1.
          3    1    6    6  503    0 -0.20945611355E+02  0.59352977164E+02 -0.54437608849E+02  0.83216271188E+02  0.00000000000E+00 0. -1.
         -3    1    6    6    0  503 -0.45358222699E+02  0.40151522575E+03 -0.68641423341E+03  0.79651512522E+03  0.00000000000E+00 0.  1.
<mgrwt>
<rscale>  0 0.19946269E+04</rscale>
<asrwt>0</asrwt>
<pdfrwt beam="1">  1        2 0.42985372E+00 0.19946269E+04</pdfrwt>
<pdfrwt beam="2">  1       -1 0.54766622E-01 0.19946269E+04</pdfrwt>
<totfact> 0.83228073E+00</totfact>
</mgrwt>
</event>
<event>
12    7  0.1546317E-007  0.1326517E+04  0.7818608E-02  0.9008797E-01
         -1   -1    0    0    0  501 -0.00000000000E+00  0.00000000000E+00  0.26023396671E+03  0.26023396671E+03  0.00000000000E+00 0.  1.
          2   -1    0    0  501    0  0.00000000000E+00 -0.00000000000E+00 -0.16904480956E+04  0.16904480956E+04  0.00000000000E+00 0. -1.
         24    2    1    2    0    0 -0.27042720088E+03  0.22409803819E+03 -0.46903017508E+03  0.59331642204E+03  0.93189429816E+02 0.  0.
        254    2    1    2    0    0  0.27042720088E+03 -0.22409803819E+03 -0.96118395381E+03  0.13573656403E+04  0.89174889213E+03 0.  0.
         23    2    4    4    0    0 -0.28442468704E+03  0.84416024458E+02 -0.39176329293E+03  0.49992825942E+03  0.91794984052E+02 0.  0.
         23    2    4    4    0    0  0.55485188793E+03 -0.30851406264E+03 -0.56942066089E+03  0.85743738084E+03  0.88979933931E+02 0.  0.
          2    1    3    3  502    0 -0.23925480228E+03  0.21072270271E+03 -0.45721274116E+03  0.55739609662E+03  0.00000000000E+00 0. -1.
         -1    1    3    3    0  502 -0.31172398599E+02  0.13375335474E+02 -0.11817433923E+02  0.35920325416E+02  0.00000000000E+00 0.  1.
         13    1    5    5    0    0 -0.27537406069E+03  0.58974043833E+02 -0.33949112963E+03  0.44109300408E+03  0.00000000000E+00 0. -1.
        -13    1    5    5    0    0 -0.90506263497E+01  0.25441980625E+02 -0.52272163299E+02  0.58835255344E+02  0.00000000000E+00 0.  1.
          2    1    6    6  503    0  0.31741249409E+03 -0.18478318246E+03 -0.27052123615E+03  0.45615485872E+03  0.00000000000E+00 0. -1.
         -2    1    6    6    0  503  0.23743939383E+03 -0.12373088019E+03 -0.29889942474E+03  0.40128252213E+03  0.00000000000E+00 0.  1.
<mgrwt>
<rscale>  0 0.13265173E+04</rscale>
<asrwt>0</asrwt>
<pdfrwt beam="1">  1        2 0.26006894E+00 0.13265173E+04</pdfrwt>
<pdfrwt beam="2">  1       -1 0.40035994E-01 0.13265173E+04</pdfrwt>
<totfact> 0.67284614E+01</totfact>
</mgrwt>
</event>
<event>
12    7  0.1546317E-007  0.1177228E+04  0.7818608E-02  0.9133025E-01
         -1   -1    0    0    0  501 -0.00000000000E+00  0.00000000000E+00  0.42251081780E+03  0.42251081780E+03  0.00000000000E+00 0.  1.
          2   -1    0    0  501    0  0.00000000000E+00 -0.00000000000E+00 -0.82001822684E+03  0.82001822684E+03  0.00000000000E+00 0. -1.
         24    2    1    2    0    0  0.36696552980E+02  0.50851257454E+02  0.15981111394E+03  0.18932793628E+03  0.79830996069E+02 0.  0.
        254    2    1    2    0    0 -0.36696552980E+02 -0.50851257454E+02 -0.55731852298E+03  0.10532011084E+04  0.89145731878E+03 0.  0.
         23    2    4    4    0    0  0.13707374466E+03 -0.43127177517E+03 -0.33670460256E+03  0.57149025623E+03  0.91905212294E+02 0.  0.
         23    2    4    4    0    0 -0.17377029764E+03  0.38042051771E+03 -0.22061392042E+03  0.48171085214E+03  0.91972585830E+02 0.  0.
          2    1    3    3  502    0  0.17835420643E+02 -0.34572423395E+01 -0.13520758640E+01  0.18217652517E+02  0.00000000000E+00 0. -1.
         -1    1    3    3    0  502  0.18861132337E+02  0.54308499793E+02  0.16116318980E+03  0.17111028377E+03  0.00000000000E+00 0.  1.
         13    1    5    5    0    0  0.99398873860E+02 -0.35046132669E+03 -0.22347185219E+03  0.42736746056E+03  0.00000000000E+00 0.  1.
        -13    1    5    5    0    0  0.37674870795E+02 -0.80810448480E+02 -0.11323275037E+03  0.14412279566E+03  0.00000000000E+00 0. -1.
          3    1    6    6  503    0 -0.92027158959E+02  0.10104453752E+03 -0.81012809132E+02  0.15887753709E+03  0.00000000000E+00 0. -1.
         -3    1    6    6    0  503 -0.81743138676E+02  0.27937598019E+03 -0.13960111129E+03  0.32283331504E+03  0.00000000000E+00 0.  1.
<mgrwt>
<rscale>  0 0.11772282E+04</rscale>
<asrwt>0</asrwt>
<pdfrwt beam="1">  1        2 0.12615665E+00 0.11772282E+04</pdfrwt>
<pdfrwt beam="2">  1       -1 0.65001665E-01 0.11772282E+04</pdfrwt>
<totfact> 0.90217181E+01</totfact>
</mgrwt>
</event>
<event>
12    7  0.1546317E-007  0.2139534E+04  0.7818608E-02  0.8544026E-01
          2   -1    0    0  501    0  0.00000000000E+00  0.00000000000E+00  0.29149919636E+04  0.29149919636E+04  0.00000000000E+00 0. -1.
         -1   -1    0    0    0  501 -0.00000000000E+00 -0.00000000000E+00 -0.39259156985E+03  0.39259156985E+03  0.00000000000E+00 0.  1.
         24    2    1    2    0    0  0.90148406036E+02  0.27315867133E+03 -0.24322905570E+03  0.38496737883E+03  0.79354359663E+02 0.  0.
        254    2    1    2    0    0 -0.90148406036E+02 -0.27315867133E+03  0.27656294494E+04  0.29226161546E+04  0.90013140192E+03 0.  0.
         23    2    4    4    0    0 -0.11709127468E+03 -0.26064670759E+03  0.21246594761E+03  0.36761968499E+03  0.91407773794E+02 0.  0.
         23    2    4    4    0    0  0.26942868641E+02 -0.12511963736E+02  0.25531635018E+04  0.25549964696E+04  0.92090310651E+02 0.  0.
          2    1    3    3  502    0  0.23765608622E+02  0.29868367164E+02 -0.58120269894E+01  0.38609625327E+02  0.00000000000E+00 0. -1.
         -1    1    3    3    0  502  0.66382797415E+02  0.24329030416E+03 -0.23741702871E+03  0.34635775351E+03  0.00000000000E+00 0.  1.
         13    1    5    5    0    0 -0.12825813821E+03 -0.20528891109E+03  0.18590729424E+03  0.30521338287E+03  0.00000000000E+00 0. -1.
        -13    1    5    5    0    0  0.11166863530E+02 -0.55357796497E+02  0.26558653377E+02  0.62406302112E+02  0.00000000000E+00 0.  1.
          1    1    6    6  503    0  0.47246676179E+02 -0.37072563906E+02  0.12481391428E+04  0.12495831078E+04  0.00000000000E+00 0. -1.
         -1    1    6    6    0  503 -0.20303807538E+02  0.24560600170E+02  0.13050243590E+04  0.13054133618E+04  0.00000000000E+00 0.  1.
<mgrwt>
<rscale>  0 0.21395338E+04</rscale>
<asrwt>0</asrwt>
<pdfrwt beam="1">  1        2 0.44846029E+00 0.21395338E+04</pdfrwt>
<pdfrwt beam="2">  1       -1 0.60398705E-01 0.21395338E+04</pdfrwt>
<totfact> 0.57220816E+00</totfact>
</mgrwt>
</event>
<event>
12    7  0.1546317E-007  0.1799847E+04  0.7818608E-02  0.8706381E-01
          2   -1    0    0  501    0  0.00000000000E+00  0.00000000000E+00  0.18115864387E+04  0.18115864387E+04  0.00000000000E+00 0. -1.
         -1   -1    0    0    0  501 -0.00000000000E+00 -0.00000000000E+00 -0.44704577275E+03  0.44704577275E+03  0.00000000000E+00 0.  1.
         24    2    1    2    0    0  0.32253470924E+02  0.80768906984E+02  0.13529785877E+04  0.13581741497E+04  0.80759269232E+02 0.  0.
        254    2    1    2    0    0 -0.32253470924E+02 -0.80768906984E+02  0.11562078311E+02  0.90045806175E+03  0.89617360851E+03 0.  0.
         23    2    4    4    0    0  0.20162046263E+03  0.28700100257E+03 -0.19313533869E+03  0.41061806363E+03  0.91024989439E+02 0.  0.
         23    2    4    4    0    0 -0.23387393356E+03 -0.36776990955E+03  0.20469741700E+03  0.48983999812E+03  0.89947029191E+02 0.  0.
          4    1    3    3  502    0  0.29540389960E+02  0.89005987569E+02  0.13341766670E+04  0.13374685339E+04  0.00000000000E+00 0. -1.
         -3    1    3    3    0  502  0.27130809641E+01 -0.82370805845E+01  0.18801920649E+02  0.20705615783E+02  0.00000000000E+00 0.  1.
         13    1    5    5    0    0 -0.36146628390E+01  0.40153221705E+02 -0.12219345475E+02  0.42126706548E+02  0.00000000000E+00 0. -1.
        -13    1    5    5    0    0  0.20523512547E+03  0.24684778087E+03 -0.18091599321E+03  0.36849135708E+03  0.00000000000E+00 0.  1.
          2    1    6    6  503    0 -0.21900854931E+03 -0.36752821274E+03  0.20613456700E+03  0.47490334969E+03  0.00000000000E+00 0.  1.
         -2    1    6    6    0  503 -0.14865384249E+02 -0.24169681534E+00 -0.14371500081E+01  0.14936648432E+02  0.00000000000E+00 0. -1.
<mgrwt>
<rscale>  0 0.17998467E+04</rscale>
<asrwt>0</asrwt>
<pdfrwt beam="1">  1        2 0.27870560E+00 0.17998467E+04</pdfrwt>
<pdfrwt beam="2">  1       -1 0.68776274E-01 0.17998467E+04</pdfrwt>
<totfact> 0.19556320E+01</totfact>
</mgrwt>
</event>
<event>
12    7  0.1546317E-007  0.1147831E+04  0.7818608E-02  0.9159787E-01
         -1   -1    0    0    0  501 -0.00000000000E+00  0.00000000000E+00  0.66118338860E+02  0.66118338860E+02  0.00000000000E+00 0.  1.
          2   -1    0    0  501    0  0.00000000000E+00 -0.00000000000E+00 -0.49816561661E+04  0.49816561661E+04  0.00000000000E+00 0. -1.
         24    2    1    2    0    0  0.96274502541E+02 -0.15512318927E+03 -0.19516238156E+04  0.19617703195E+04  0.79845383656E+02 0.  0.
        254    2    1    2    0    0 -0.96274502541E+02  0.15512318927E+03 -0.29639140117E+04  0.30860041855E+04  0.83982354123E+03 0.  0.
         23    2    4    4    0    0 -0.32669528351E+03  0.36834736176E+03 -0.21720888778E+04  0.22293494555E+04  0.98078102742E+02 0.  0.
         23    2    4    4    0    0  0.23042078096E+03 -0.21322417249E+03 -0.79182513383E+03  0.85665472998E+03  0.91170169445E+02 0.  0.
          2    1    3    3  502    0  0.92005554950E+01  0.89883398614E+01 -0.17021941408E+03  0.17070468478E+03  0.00000000000E+00 0. -1.
         -1    1    3    3    0  502  0.87073947046E+02 -0.16411152913E+03 -0.17814044015E+04  0.17910656347E+04  0.00000000000E+00 0.  1.
         13    1    5    5    0    0 -0.10968558643E+03  0.19255432618E+03 -0.10362358680E+04  0.10596663959E+04  0.00000000000E+00 0. -1.
        -13    1    5    5    0    0 -0.21700969708E+03  0.17579303558E+03 -0.11358530098E+04  0.11696830596E+04  0.00000000000E+00 0.  1.
          1    1    6    6  503    0  0.57063687018E+02 -0.68027055868E+02 -0.13138772787E+03  0.15857704670E+03  0.00000000000E+00 0. -1.
         -1    1    6    6    0  503  0.17335709395E+03 -0.14519711662E+03 -0.66043740597E+03  0.69807768328E+03  0.00000000000E+00 0.  1.
<mgrwt>
<rscale>  0 0.11478307E+04</rscale>
<asrwt>0</asrwt>
<pdfrwt beam="1">  1        2 0.76640855E+00 0.11478307E+04</pdfrwt>
<pdfrwt beam="2">  1       -1 0.10172053E-01 0.11478307E+04</pdfrwt>
<totfact> 0.27297683E+00</totfact>
</mgrwt>
</event>
<event>
12    7  0.1546317E-007  0.1425851E+04  0.7818608E-02  0.8935316E-01
         -1   -1    0    0    0  501 -0.00000000000E+00  0.00000000000E+00  0.24545560247E+03  0.24545560247E+03  0.00000000000E+00 0.  1.
          2   -1    0    0  501    0  0.00000000000E+00 -0.00000000000E+00 -0.20706903323E+04  0.20706903323E+04  0.00000000000E+00 0. -1.
         24    2    1    2    0    0  0.28227322750E+03 -0.32001517091E+03 -0.55561437836E+03  0.70491586741E+03  0.78173896533E+02 0.  0.
        254    2    1    2    0    0 -0.28227322750E+03  0.32001517091E+03 -0.12696203514E+04  0.16112300673E+04  0.89556608273E+03 0.  0.
         23    2    4    4    0    0 -0.20631295772E+02  0.49836785989E+03 -0.11575382599E+04  0.12634699632E+04  0.87551988611E+02 0.  0.
         23    2    4    4    0    0 -0.26164193173E+03 -0.17835268898E+03 -0.11208209155E+03  0.34776010412E+03  0.90047280162E+02 0.  0.
          2    1    3    3  502    0  0.98043463899E+02 -0.13930704537E+03 -0.16800768307E+03  0.23926043399E+03  0.00000000000E+00 0. -1.
         -1    1    3    3    0  502  0.18422976360E+03 -0.18070812555E+03 -0.38760669529E+03  0.46565543342E+03  0.00000000000E+00 0.  1.
         13    1    5    5    0    0 -0.36114609863E+02  0.48370293648E+03 -0.11053038709E+04  0.12070498924E+04  0.00000000000E+00 0. -1.
        -13    1    5    5    0    0  0.15483314092E+02  0.14664923411E+02 -0.52234388986E+02  0.56420070778E+02  0.00000000000E+00 0.  1.
          4    1    6    6  503    0 -0.26324289122E+03 -0.18321857726E+03 -0.10217826423E+03  0.33660995902E+03  0.00000000000E+00 0. -1.
         -4    1    6    6    0  503  0.16009594918E+01  0.48658882807E+01 -0.99038273214E+01  0.11150145096E+02  0.00000000000E+00 0.  1.
<mgrwt>
<rscale>  0 0.14258507E+04</rscale>
<asrwt>0</asrwt>
<pdfrwt beam="1">  1        2 0.31856775E+00 0.14258507E+04</pdfrwt>
<pdfrwt beam="2">  1       -1 0.37762399E-01 0.14258507E+04</pdfrwt>
<totfact> 0.45717265E+01</totfact>
</mgrwt>
</event>
<event>
12    7  0.1546317E-007  0.1365922E+04  0.7818608E-02  0.8978862E-01
         -1   -1    0    0    0  501 -0.00000000000E+00  0.00000000000E+00  0.35246782223E+03  0.35246782223E+03  0.00000000000E+00 0.  1.
          2   -1    0    0  501    0  0.00000000000E+00 -0.00000000000E+00 -0.13233421549E+04  0.13233421549E+04  0.00000000000E+00 0. -1.
         24    2    1    2    0    0  0.74428282209E+02 -0.37240128817E+03 -0.20189524820E+03  0.43756065144E+03  0.80469521081E+02 0.  0.
        254    2    1    2    0    0 -0.74428282209E+02  0.37240128817E+03 -0.76897908451E+03  0.12382493257E+04  0.89314627673E+03 0.  0.
         23    2    4    4    0    0  0.34547535740E+03  0.11798229381E+03 -0.75860286717E+02  0.38397385915E+03  0.91695677008E+02 0.  0.
         23    2    4    4    0    0 -0.41990363961E+03  0.25441899435E+03 -0.69311879780E+03  0.85427546658E+03  0.91240417047E+02 0.  0.
          4    1    3    3  502    0  0.83978237518E+02 -0.36676752928E+03 -0.19078627796E+03  0.42186510732E+03  0.00000000000E+00 0. -1.
         -3    1    3    3    0  502 -0.95499553087E+01 -0.56337588820E+01 -0.11108970241E+02  0.15695544124E+02  0.00000000000E+00 0.  1.
         13    1    5    5    0    0  0.10742180184E+03  0.81987305013E+02 -0.17697916116E+02  0.13628858327E+03  0.00000000000E+00 0. -1.
        -13    1    5    5    0    0  0.23805355556E+03  0.35994988801E+02 -0.58162370601E+02  0.24768527588E+03  0.00000000000E+00 0.  1.
          1    1    6    6  503    0 -0.15824679430E+03  0.13792997946E+03 -0.24732220135E+03  0.32439944269E+03  0.00000000000E+00 0. -1.
         -1    1    6    6    0  503 -0.26165684532E+03  0.11648901489E+03 -0.44579659645E+03  0.52987602389E+03  0.00000000000E+00 0.  1.
<mgrwt>
<rscale>  0 0.13659217E+04</rscale>
<asrwt>0</asrwt>
<pdfrwt beam="1">  1        2 0.20359110E+00 0.13659217E+04</pdfrwt>
<pdfrwt beam="2">  1       -1 0.54225820E-01 0.13659217E+04</pdfrwt>
<totfact> 0.61184857E+01</totfact>
</mgrwt>
</event>
<event>
12    7  0.1546317E-007  0.1945595E+04  0.7818608E-02  0.8632488E-01
          2   -1    0    0  501    0  0.00000000000E+00  0.00000000000E+00  0.27497924940E+04  0.27497924940E+04  0.00000000000E+00 0. -1.
         -1   -1    0    0    0  501 -0.00000000000E+00 -0.00000000000E+00 -0.34414785142E+03  0.34414785142E+03  0.00000000000E+00 0.  1.
         24    2    1    2    0    0 -0.31371152837E+03 -0.70377759823E+03  0.10452820439E+04  0.13010366163E+04  0.79774024641E+02 0.  0.
        254    2    1    2    0    0  0.31371152837E+03  0.70377759823E+03  0.13603625987E+04  0.17929037291E+04  0.87761013609E+03 0.  0.
         23    2    4    4    0    0  0.14179875749E+03  0.49569375572E+03  0.14106200513E+04  0.15045390880E+04  0.89273461829E+02 0.  0.
         23    2    4    4    0    0  0.17191277088E+03  0.20808384251E+03 -0.50257452619E+02  0.28836464109E+03  0.88178616363E+02 0.  0.
          4    1    3    3  502    0 -0.10864778258E+03 -0.17204199779E+03  0.24307106250E+03  0.31699579034E+03  0.00000000000E+00 0. -1.
         -3    1    3    3    0  502 -0.20506374579E+03 -0.53173560044E+03  0.80221098136E+03  0.98404082600E+03  0.00000000000E+00 0.  1.
         13    1    5    5    0    0  0.13254822141E+01  0.76538993883E+01  0.33932679544E+01  0.84766353205E+01  0.00000000000E+00 0. -1.
        -13    1    5    5    0    0  0.14047327528E+03  0.48803985633E+03  0.14072267834E+04  0.14960624527E+04  0.00000000000E+00 0.  1.
          3    1    6    6  503    0  0.52933562249E+01 -0.88721840170E+01 -0.67599528829E+00  0.10353368485E+02  0.00000000000E+00 0. -1.
         -3    1    6    6    0  503  0.16661941465E+03  0.21695602652E+03 -0.49581457331E+02  0.27801127260E+03  0.00000000000E+00 0.  1.
<mgrwt>
<rscale>  0 0.19455952E+04</rscale>
<asrwt>0</asrwt>
<pdfrwt beam="1">  1        2 0.42304499E+00 0.19455952E+04</pdfrwt>
<pdfrwt beam="2">  1       -1 0.52945825E-01 0.19455952E+04</pdfrwt>
<totfact> 0.94871818E+00</totfact>
</mgrwt>
</event>
<event>
12    7  0.1546317E-007  0.1159797E+04  0.7818608E-02  0.9148793E-01
         -1   -1    0    0    0  501 -0.00000000000E+00  0.00000000000E+00  0.12017760919E+03  0.12017760919E+03  0.00000000000E+00 0.  1.
          2   -1    0    0  501    0  0.00000000000E+00 -0.00000000000E+00 -0.27982093435E+04  0.27982093435E+04  0.00000000000E+00 0. -1.
         24    2    1    2    0    0  0.14540293754E+02 -0.12464927913E+02  0.93609821224E+01  0.84090727491E+02  0.81343886638E+02 0.  0.
        254    2    1    2    0    0 -0.14540293754E+02  0.12464927913E+02 -0.26873927165E+04  0.28342962252E+04  0.90043805187E+03 0.  0.
         23    2    4    4    0    0  0.58232007164E+02 -0.13574611687E+02  0.30922119433E+02  0.11337174013E+03  0.91223556440E+02 0.  0.
         23    2    4    4    0    0 -0.72772300918E+02  0.26039539600E+02 -0.27183148359E+04  0.27209244851E+04  0.90667751282E+02 0.  0.
          4    1    3    3  502    0 -0.33897519282E+02 -0.41861708622E+01  0.71837067447E+01  0.34902313427E+02  0.00000000000E+00 0. -1.
         -3    1    3    3    0  502  0.48437813036E+02 -0.82787570510E+01  0.21772753777E+01  0.49188414064E+02  0.00000000000E+00 0.  1.
         13    1    5    5    0    0 -0.23269316556E+02  0.11338885938E+01  0.18241133606E+02  0.29588608476E+02  0.00000000000E+00 0. -1.
        -13    1    5    5    0    0  0.81501323720E+02 -0.14708500280E+02  0.12680985827E+02  0.83783131656E+02  0.00000000000E+00 0.  1.
          4    1    6    6  503    0 -0.34182074579E+02  0.49323473915E+02 -0.87338863660E+03  0.87544784530E+03  0.00000000000E+00 0. -1.
         -4    1    6    6    0  503 -0.38590226339E+02 -0.23283934315E+02 -0.18449261993E+04  0.18454766398E+04  0.00000000000E+00 0.  1.
<mgrwt>
<rscale>  0 0.11597967E+04</rscale>
<asrwt>0</asrwt>
<pdfrwt beam="1">  1        2 0.43049371E+00 0.11597967E+04</pdfrwt>
<pdfrwt beam="2">  1       -1 0.18488864E-01 0.11597967E+04</pdfrwt>
<totfact> 0.61664559E+01</totfact>
</mgrwt>
</event>
<event>
12    7  0.1836055E-007  0.2168917E+04  0.7818608E-02  0.8531478E-01
         -1   -1    0    0    0  501 -0.00000000000E+00  0.00000000000E+00  0.49628347615E+03  0.49628347615E+03  0.00000000000E+00 0.  1.
          2   -1    0    0  501    0  0.00000000000E+00 -0.00000000000E+00 -0.23697151198E+04  0.23697151198E+04  0.00000000000E+00 0. -1.
         24    2    1    2    0    0  0.31339838619E+03 -0.43039161911E+03 -0.17096852608E+04  0.17924441045E+04  0.79854132607E+02 0.  0.
        254    2    1    2    0    0 -0.31339838619E+03  0.43039161911E+03 -0.16374638283E+03  0.10735544914E+04  0.91774226987E+03 0.  0.
         23    2    4    4    0    0 -0.61649073258E+03  0.30361365390E+03 -0.22001699061E+03  0.72761413140E+03  0.93663087010E+02 0.  0.
         23    2    4    4    0    0  0.30309234639E+03  0.12677796521E+03  0.56270607782E+02  0.34594036003E+03  0.92578229052E+02 0.  0.
          2    1    3    3  502    0  0.23374684020E+03 -0.25636192435E+03 -0.10911836813E+04  0.11450069205E+04  0.00000000000E+00 0. -1.
         -1    1    3    3    0  502  0.79651545986E+02 -0.17402969476E+03 -0.61850157950E+03  0.64743718404E+03  0.00000000000E+00 0.  1.
         13    1    5    5    0    0 -0.55609569369E+03  0.29996851770E+03 -0.18831648169E+03  0.65930768950E+03  0.00000000000E+00 0. -1.
        -13    1    5    5    0    0 -0.60395038883E+02  0.36451362027E+01 -0.31700508920E+02  0.68306441902E+02  0.00000000000E+00 0.  1.
          1    1    6    6  503    0  0.16776575828E+03  0.26467196379E+02  0.51290376854E+02  0.17741636027E+03  0.00000000000E+00 0. -1.
         -1    1    6    6    0  503  0.13532658811E+03  0.10031076883E+03  0.49802309274E+01  0.16852399976E+03  0.00000000000E+00 0.  1.
<mgrwt>
<rscale>  0 0.21689172E+04</rscale>
<asrwt>0</asrwt>
<pdfrwt beam="1">  1        2 0.36457156E+00 0.21689172E+04</pdfrwt>
<pdfrwt beam="2">  1       -1 0.76351303E-01 0.21689172E+04</pdfrwt>
<totfact> 0.74307939E+00</totfact>
</mgrwt>
</event>
<event>
12    7  0.1546317E-007  0.3241745E+04  0.7818608E-02  0.8177879E-01
         -1   -1    0    0    0  501 -0.00000000000E+00  0.00000000000E+00  0.11703230943E+04  0.11703230943E+04  0.00000000000E+00 0.  1.
          2   -1    0    0  501    0  0.00000000000E+00 -0.00000000000E+00 -0.22448736426E+04  0.22448736426E+04  0.00000000000E+00 0. -1.
         24    2    1    2    0    0 -0.88957398015E+03 -0.46518285693E+03  0.67028836146E+03  0.12097031062E+04  0.79738078012E+02 0.  0.
        254    2    1    2    0    0  0.88957398015E+03  0.46518285693E+03 -0.17448389098E+04  0.22054936307E+04  0.90111174518E+03 0.  0.
         23    2    4    4    0    0 -0.14525494014E+02 -0.72135981482E+02  0.46962261627E+02  0.12566330467E+03  0.90394813584E+02 0.  0.
         23    2    4    4    0    0  0.90409947417E+03  0.53731883842E+03 -0.17918011714E+04  0.20798303260E+04  0.95054477970E+02 0.  0.
          2    1    3    3  502    0 -0.35281864140E+03 -0.14142530656E+03  0.26030665968E+03  0.46069693740E+03  0.00000000000E+00 0. -1.
         -1    1    3    3    0  502 -0.53675533875E+03 -0.32375755037E+03  0.40998170178E+03  0.74900616880E+03  0.00000000000E+00 0.  1.
         13    1    5    5    0    0 -0.24540886440E+02  0.14962110953E+02  0.89316750882E+01  0.30098084513E+02  0.00000000000E+00 0.  1.
        -13    1    5    5    0    0  0.10015392426E+02 -0.87098092435E+02  0.38030586539E+02  0.95565220158E+02  0.00000000000E+00 0. -1.
          4    1    6    6  503    0  0.40212887056E+02  0.12120140836E+02 -0.45020851029E+02  0.61569888149E+02  0.00000000000E+00 0. -1.
         -4    1    6    6    0  503  0.86388658711E+03  0.52519869758E+03 -0.17467803204E+04  0.20182604379E+04  0.00000000000E+00 0.  1.
<mgrwt>
<rscale>  0 0.32417449E+04</rscale>
<asrwt>0</asrwt>
<pdfrwt beam="1">  1        2 0.34536517E+00 0.32417449E+04</pdfrwt>
<pdfrwt beam="2">  1       -1 0.18004971E+00 0.32417449E+04</pdfrwt>
<totfact> 0.96640677E-01</totfact>
</mgrwt>
</event>
<event>
12    7  0.1546317E-007  0.2843474E+04  0.7818608E-02  0.8289897E-01
         -1   -1    0    0    0  501 -0.00000000000E+00  0.00000000000E+00  0.71475525236E+03  0.71475525236E+03  0.00000000000E+00 0.  1.
          2   -1    0    0  501    0  0.00000000000E+00 -0.00000000000E+00 -0.28280123114E+04  0.28280123114E+04  0.00000000000E+00 0. -1.
         24    2    1    2    0    0  0.11011975964E+04  0.51373214090E+02 -0.17588236944E+04  0.20772941214E+04  0.80091981510E+02 0.  0.
        254    2    1    2    0    0 -0.11011975964E+04 -0.51373214090E+02 -0.35443336465E+03  0.14654734423E+04  0.89817261526E+03 0.  0.
         23    2    4    4    0    0 -0.11951945815E+04  0.10490734460E+03 -0.37519916645E+03  0.12603539115E+04  0.90674853797E+02 0.  0.
         23    2    4    4    0    0  0.93996985126E+02 -0.15628055869E+03  0.20765801801E+02  0.20511953083E+03  0.91562859103E+02 0.  0.
          4    1    3    3  502    0  0.11382084903E+03  0.73367898101E+01 -0.13971962542E+03  0.18036237936E+03  0.00000000000E+00 0. -1.
         -3    1    3    3    0  502  0.98737674736E+03  0.44036424280E+02 -0.16191040690E+04  0.18969317421E+04  0.00000000000E+00 0.  1.
         13    1    5    5    0    0 -0.11557691106E+04  0.11292149082E+03 -0.37432815218E+03  0.12201127266E+04  0.00000000000E+00 0. -1.
        -13    1    5    5    0    0 -0.39425470905E+02 -0.80141462174E+01 -0.87101426566E+00  0.40241184892E+02  0.00000000000E+00 0.  1.
          3    1    6    6  503    0  0.64857215829E+02 -0.14790276128E+03 -0.10150264075E+02  0.16181691228E+03  0.00000000000E+00 0. -1.
         -3    1    6    6    0  503  0.29139769297E+02 -0.83777974094E+01  0.30916065876E+02  0.43302618551E+02  0.00000000000E+00 0.  1.
<mgrwt>
<rscale>  0 0.28434744E+04</rscale>
<asrwt>0</asrwt>
<pdfrwt beam="1">  1        2 0.43507881E+00 0.28434744E+04</pdfrwt>
<pdfrwt beam="2">  1       -1 0.10996235E+00 0.28434744E+04</pdfrwt>
<totfact> 0.16730121E+00</totfact>
</mgrwt>
</event>
<event>
12    7  0.1546317E-007  0.1358273E+04  0.7818608E-02  0.8984589E-01
          2   -1    0    0  501    0  0.00000000000E+00  0.00000000000E+00  0.36923820670E+04  0.36923820670E+04  0.00000000000E+00 0. -1.
         -1   -1    0    0    0  501 -0.00000000000E+00 -0.00000000000E+00 -0.12491301496E+03  0.12491301496E+03  0.00000000000E+00 0.  1.
         24    2    1    2    0    0 -0.29765730151E+03 -0.11951729776E+03  0.47234120589E+03  0.57652007639E+03  0.79905757585E+02 0.  0.
        254    2    1    2    0    0  0.29765730151E+03  0.11951729776E+03  0.30951278461E+04  0.32407750055E+04  0.90549544396E+03 0.  0.
         23    2    4    4    0    0  0.36576637330E+03  0.40402136299E+03  0.12018171619E+04  0.13228302043E+04  0.92178941660E+02 0.  0.
         23    2    4    4    0    0 -0.68109071791E+02 -0.28450406522E+03  0.18933106842E+04  0.19179448012E+04  0.91134541382E+02 0.  0.
          2    1    3    3  502    0 -0.36984546891E+02 -0.47326792758E+02  0.87620718635E+02  0.10623122119E+03  0.00000000000E+00 0. -1.
         -1    1    3    3    0  502 -0.26067275462E+03 -0.72190505006E+02  0.38472048725E+03  0.47028885520E+03  0.00000000000E+00 0.  1.
         13    1    5    5    0    0  0.12177549898E+03  0.12629323838E+03  0.29022869185E+03  0.33913411474E+03  0.00000000000E+00 0.  1.
        -13    1    5    5    0    0  0.24399087432E+03  0.27772812461E+03  0.91158847002E+03  0.98369608957E+03  0.00000000000E+00 0. -1.
          1    1    6    6  503    0 -0.42556470959E+02 -0.40223408129E+02  0.28131818189E+03  0.28734803852E+03  0.00000000000E+00 0. -1.
         -1    1    6    6    0  503 -0.25552600832E+02 -0.24428065710E+03  0.16119925024E+04  0.16305967627E+04  0.00000000000E+00 0.  1.
<mgrwt>
<rscale>  0 0.13582733E+04</rscale>
<asrwt>0</asrwt>
<pdfrwt beam="1">  1        2 0.56805870E+00 0.13582733E+04</pdfrwt>
<pdfrwt beam="2">  1       -1 0.19217390E-01 0.13582733E+04</pdfrwt>
<totfact> 0.14706541E+01</totfact>
</mgrwt>
</event>
<event>
12    7  0.1546317E-007  0.1207563E+04  0.7818608E-02  0.9106262E-01
          2   -1    0    0  501    0  0.00000000000E+00  0.00000000000E+00  0.20365932424E+04  0.20365932424E+04  0.00000000000E+00 0. -1.
         -1   -1    0    0    0  501 -0.00000000000E+00 -0.00000000000E+00 -0.17900098361E+03  0.17900098361E+03  0.00000000000E+00 0.  1.
         24    2    1    2    0    0 -0.94489325281E+01 -0.22110808599E+03  0.71520032038E+03  0.75314622025E+03  0.82095449313E+02 0.  0.
        254    2    1    2    0    0  0.94489325281E+01  0.22110808599E+03  0.11423919384E+04  0.14624480058E+04  0.88584240168E+03 0.  0.
         23    2    4    4    0    0  0.41506221412E+03  0.68275694363E+02  0.35211198995E+03  0.55569217743E+03  0.88728409018E+02 0.  0.
         23    2    4    4    0    0 -0.40561328159E+03  0.15283239163E+03  0.79027994850E+03  0.90675582836E+03  0.98913402178E+02 0.  0.
          4    1    3    3  502    0 -0.36113765873E+02 -0.14566269071E+03  0.54131343774E+03  0.56173130715E+03  0.00000000000E+00 0. -1.
         -1    1    3    3    0  502  0.26664833345E+02 -0.75445395283E+02  0.17388688264E+03  0.19141491311E+03  0.00000000000E+00 0.  1.
         13    1    5    5    0    0  0.50117038515E+02 -0.14989603073E+02  0.22548097143E+02  0.56963342902E+02  0.00000000000E+00 0. -1.
        -13    1    5    5    0    0  0.36494517561E+03  0.83265297436E+02  0.32956389280E+03  0.49872883453E+03  0.00000000000E+00 0.  1.
          3    1    6    6  503    0 -0.10595142120E+03 -0.32848589953E+01  0.21108956044E+03  0.23621028022E+03  0.00000000000E+00 0. -1.
         -3    1    6    6    0  503 -0.29966186039E+03  0.15611725062E+03  0.57919038806E+03  0.67054554815E+03  0.00000000000E+00 0.  1.
<mgrwt>
<rscale>  0 0.12075632E+04</rscale>
<asrwt>0</asrwt>
<pdfrwt beam="1">  1        2 0.31332202E+00 0.12075632E+04</pdfrwt>
<pdfrwt beam="2">  1       -1 0.27538614E-01 0.12075632E+04</pdfrwt>
<totfact> 0.85013272E+01</totfact>
</mgrwt>
</event>
<event>
12    7  0.1546317E-007  0.1893024E+04  0.7818608E-02  0.8658337E-01
         -1   -1    0    0    0  501 -0.00000000000E+00  0.00000000000E+00  0.45655523248E+03  0.45655523248E+03  0.00000000000E+00 0.  1.
          2   -1    0    0  501    0  0.00000000000E+00 -0.00000000000E+00 -0.19622702387E+04  0.19622702387E+04  0.00000000000E+00 0. -1.
         24    2    1    2    0    0 -0.33722765319E+03 -0.44871773797E+03  0.10708317206E+02  0.56661828241E+03  0.76625788453E+02 0.  0.
        254    2    1    2    0    0  0.33722765319E+03  0.44871773797E+03 -0.15164233234E+04  0.18522071888E+04  0.90336132076E+03 0.  0.
         23    2    4    4    0    0  0.16019561702E+03  0.55948778392E+03 -0.15126495285E+04  0.16232177927E+04  0.89655956844E+02 0.  0.
         23    2    4    4    0    0  0.17703203617E+03 -0.11077004594E+03 -0.37737949428E+01  0.22898939602E+03  0.93869894290E+02 0.  0.
          4    1    3    3  502    0 -0.21316262212E+03 -0.23574550059E+03  0.30860235329E+02  0.31932209232E+03  0.00000000000E+00 0. -1.
         -3    1    3    3    0  502 -0.12406503107E+03 -0.21297223738E+03 -0.20151918123E+02  0.24729619009E+03  0.00000000000E+00 0.  1.
         13    1    5    5    0    0  0.86600013922E+02  0.43682000674E+03 -0.11718748263E+04  0.12536354690E+04  0.00000000000E+00 0. -1.
        -13    1    5    5    0    0  0.73595603094E+02  0.12266777717E+03 -0.34077470217E+03  0.36958232370E+03  0.00000000000E+00 0.  1.
          3    1    6    6  503    0  0.16751671689E+03 -0.87351176654E+02 -0.31431518620E+02  0.19152028316E+03  0.00000000000E+00 0. -1.
         -3    1    6    6    0  503  0.95153192874E+01 -0.23418869286E+02  0.27657723677E+02  0.37469112864E+02  0.00000000000E+00 0.  1.
<mgrwt>
<rscale>  0 0.18930238E+04</rscale>
<asrwt>0</asrwt>
<pdfrwt beam="1">  1        2 0.30188773E+00 0.18930238E+04</pdfrwt>
<pdfrwt beam="2">  1       -1 0.70239265E-01 0.18930238E+04</pdfrwt>
<totfact> 0.15329449E+01</totfact>
</mgrwt>
</event>
<event>
12    7  0.1546317E-007  0.1639495E+04  0.7818608E-02  0.8796645E-01
          2   -1    0    0  501    0  0.00000000000E+00  0.00000000000E+00  0.22072636592E+04  0.22072636592E+04  0.00000000000E+00 0. -1.
         -1   -1    0    0    0  501 -0.00000000000E+00 -0.00000000000E+00 -0.30444315616E+03  0.30444315616E+03  0.00000000000E+00 0.  1.
         24    2    1    2    0    0 -0.32165733194E+03  0.38302333718E+03  0.25181833107E+03  0.56578015661E+03  0.80773744113E+02 0.  0.
        254    2    1    2    0    0  0.32165733194E+03 -0.38302333718E+03  0.16510021720E+04  0.19459266588E+04  0.90036219011E+03 0.  0.
         23    2    4    4    0    0  0.19000106141E+03 -0.78399458313E+02 -0.32938530163E+02  0.22713443044E+03  0.90874772732E+02 0.  0.
         23    2    4    4    0    0  0.13165627053E+03 -0.30462387887E+03  0.16839407022E+04  0.17187922283E+04  0.91985622018E+02 0.  0.
          4    1    3    3  502    0 -0.13443941837E+03  0.14285729754E+03  0.14158165155E+03  0.24192463439E+03  0.00000000000E+00 0. -1.
         -3    1    3    3    0  502 -0.18721791357E+03  0.24016603964E+03  0.11023667952E+03  0.32385552222E+03  0.00000000000E+00 0.  1.
         13    1    5    5    0    0  0.17692551594E+03 -0.90702720838E+02 -0.47034433819E+02  0.20430824683E+03  0.00000000000E+00 0. -1.
        -13    1    5    5    0    0  0.13075545473E+02  0.12303262526E+02  0.14095903656E+02  0.22826183607E+02  0.00000000000E+00 0.  1.
          2    1    6    6  503    0  0.11523238996E+03 -0.18091357855E+03  0.12000201355E+04  0.12190391922E+04  0.00000000000E+00 0. -1.
         -2    1    6    6    0  503  0.16423880565E+02 -0.12371030032E+03  0.48392056668E+03  0.49975303612E+03  0.00000000000E+00 0.  1.
<mgrwt>
<rscale>  0 0.16394954E+04</rscale>
<asrwt>0</asrwt>
<pdfrwt beam="1">  1        2 0.33957901E+00 0.16394954E+04</pdfrwt>
<pdfrwt beam="2">  1       -1 0.46837410E-01 0.16394954E+04</pdfrwt>
<totfact> 0.25320690E+01</totfact>
</mgrwt>
</event>
<event>
12    7  0.1546317E-007  0.2011418E+04  0.7818608E-02  0.8601301E-01
          2   -1    0    0  501    0  0.00000000000E+00  0.00000000000E+00  0.18663785935E+04  0.18663785935E+04  0.00000000000E+00 0. -1.
         -1   -1    0    0    0  501 -0.00000000000E+00 -0.00000000000E+00 -0.54193207710E+03  0.54193207710E+03  0.00000000000E+00 0.  1.
         24    2    1    2    0    0  0.65350929635E+03  0.43532590267E+03  0.72708570273E+03  0.10731502359E+04  0.80092245453E+02 0.  0.
        254    2    1    2    0    0 -0.65350929635E+03 -0.43532590267E+03  0.59736081371E+03  0.13351604347E+04  0.89957234436E+03 0.  0.
         23    2    4    4    0    0 -0.62210264987E+03 -0.10319983261E+03 -0.84425788296E+01  0.63744614049E+03  0.92759864512E+02 0.  0.
         23    2    4    4    0    0 -0.31406646482E+02 -0.33212607006E+03  0.60580339253E+03  0.69771429423E+03  0.92267990682E+02 0.  0.
          2    1    3    3  502    0  0.24905006625E+03  0.19685054812E+03  0.25336137379E+03  0.40616260231E+03  0.00000000000E+00 0. -1.
         -1    1    3    3    0  502  0.40445923010E+03  0.23847535455E+03  0.47372432895E+03  0.66698763360E+03  0.00000000000E+00 0.  1.
         13    1    5    5    0    0 -0.20404759066E+03  0.45380761008E+01 -0.23650505077E+02  0.20546376756E+03  0.00000000000E+00 0.  1.
        -13    1    5    5    0    0 -0.41805505921E+03 -0.10773790871E+03  0.15207926247E+02  0.43198237294E+03  0.00000000000E+00 0. -1.
          4    1    6    6  503    0  0.29847995227E+02 -0.65864374474E+02  0.11062859878E+03  0.13216544749E+03  0.00000000000E+00 0. -1.
         -4    1    6    6    0  503 -0.61254641709E+02 -0.26626169558E+03  0.49517479376E+03  0.56554884673E+03  0.00000000000E+00 0.  1.
<mgrwt>
<rscale>  0 0.20114178E+04</rscale>
<asrwt>0</asrwt>
<pdfrwt beam="1">  1        2 0.28713517E+00 0.20114178E+04</pdfrwt>
<pdfrwt beam="2">  1       -1 0.83374167E-01 0.20114178E+04</pdfrwt>
<totfact> 0.11959719E+01</totfact>
</mgrwt>
</event>
<event>
12    7  0.1546317E-007  0.1262645E+04  0.7818608E-02  0.9059724E-01
          2   -1    0    0  501    0  0.00000000000E+00  0.00000000000E+00  0.49220426119E+03  0.49220426119E+03  0.00000000000E+00 0. -1.
         -1   -1    0    0    0  501 -0.00000000000E+00 -0.00000000000E+00 -0.80976097910E+03  0.80976097910E+03  0.00000000000E+00 0.  1.
         24    2    1    2    0    0 -0.26616771653E+02 -0.99679079161E+02  0.20978381299E+03  0.25432954974E+03  0.10014939002E+03 0.  0.
        254    2    1    2    0    0  0.26616771653E+02  0.99679079161E+02 -0.52734053090E+03  0.10476356906E+04  0.89933760805E+03 0.  0.
         23    2    4    4    0    0 -0.10156101896E+01 -0.39232539720E+03 -0.26460129088E+03  0.48178575388E+03  0.90462261513E+02 0.  0.
         23    2    4    4    0    0  0.27632381842E+02  0.49200447636E+03 -0.26273924002E+03  0.56584993667E+03  0.91226582239E+02 0.  0.
          2    1    3    3  502    0 -0.47888563764E+00 -0.11094119985E+03  0.18874850012E+03  0.21893874818E+03  0.00000000000E+00 0. -1.
         -1    1    3    3    0  502 -0.26137886015E+02  0.11262120687E+02  0.21035312872E+02  0.35390801564E+02  0.00000000000E+00 0.  1.
         13    1    5    5    0    0 -0.35754019336E+02 -0.13478506613E+03 -0.63675593168E+02  0.15329691815E+03  0.00000000000E+00 0. -1.
        -13    1    5    5    0    0  0.34738409146E+02 -0.25754033107E+03 -0.20092569772E+03  0.32848883573E+03  0.00000000000E+00 0.  1.
          4    1    6    6  503    0 -0.36194749069E+01  0.28920737601E+02  0.56670280613E+01  0.29692168480E+02  0.00000000000E+00 0.  1.
         -4    1    6    6    0  503  0.31251856749E+02  0.46308373876E+03 -0.26840626808E+03  0.53615776819E+03  0.00000000000E+00 0. -1.
<mgrwt>
<rscale>  0 0.12626445E+04</rscale>
<asrwt>0</asrwt>
<pdfrwt beam="1">  1        2 0.75723733E-01 0.12626445E+04</pdfrwt>
<pdfrwt beam="2">  1       -1 0.12457861E+00 0.12626445E+04</pdfrwt>
<totfact> 0.39789592E+01</totfact>
</mgrwt>
</event>
<event>
12    7  0.1546317E-007  0.1946719E+04  0.7818608E-02  0.8631944E-01
         -1   -1    0    0    0  501 -0.00000000000E+00  0.00000000000E+00  0.51586153277E+03  0.51586153277E+03  0.00000000000E+00 0.  1.
          2   -1    0    0  501    0  0.00000000000E+00 -0.00000000000E+00 -0.18365952476E+04  0.18365952476E+04  0.00000000000E+00 0. -1.
         24    2    1    2    0    0 -0.55911763820E+03  0.23584481058E+02  0.10297288118E+03  0.57432084107E+03  0.77924663179E+02 0.  0.
        254    2    1    2    0    0  0.55911763820E+03 -0.23584481058E+02 -0.14237065960E+04  0.17781359393E+04  0.90645363147E+03 0.  0.
         23    2    4    4    0    0  0.59573719049E+03 -0.12716804147E+03 -0.37814098676E+03  0.72276849328E+03  0.91264330984E+02 0.  0.
         23    2    4    4    0    0 -0.36619552281E+02  0.10358356041E+03 -0.10455656093E+04  0.10553674460E+04  0.92317155863E+02 0.  0.
          2    1    3    3  502    0 -0.15461383425E+03  0.17359162671E+02 -0.48016922181E+01  0.15565935410E+03  0.00000000000E+00 0. -1.
         -1    1    3    3    0  502 -0.40450380395E+03  0.62253183875E+01  0.10777457340E+03  0.41866148697E+03  0.00000000000E+00 0.  1.
         13    1    5    5    0    0  0.33866466508E+03 -0.62260947395E+02 -0.16128836792E+03  0.38024218410E+03  0.00000000000E+00 0. -1.
        -13    1    5    5    0    0  0.25707252540E+03 -0.64907094073E+02 -0.21685261884E+03  0.34252630917E+03  0.00000000000E+00 0.  1.
          1    1    6    6  503    0  0.13541636488E+02  0.77561054876E+02 -0.77339257033E+03  0.77738996713E+03  0.00000000000E+00 0. -1.
         -1    1    6    6    0  503 -0.50161188769E+02  0.26022505534E+02 -0.27217303895E+03  0.27797747891E+03  0.00000000000E+00 0.  1.
<mgrwt>
<rscale>  0 0.19467191E+04</rscale>
<asrwt>0</asrwt>
<pdfrwt beam="1">  1        2 0.28255312E+00 0.19467191E+04</pdfrwt>
<pdfrwt beam="2">  1       -1 0.79363313E-01 0.19467191E+04</pdfrwt>
<totfact> 0.13882120E+01</totfact>
</mgrwt>
</event>
<event>
12    7  0.1546317E-007  0.1119721E+04  0.7818608E-02  0.9186181E-01
         -1   -1    0    0    0  501 -0.00000000000E+00  0.00000000000E+00  0.12755654537E+03  0.12755654537E+03  0.00000000000E+00 0.  1.
          2   -1    0    0  501    0  0.00000000000E+00 -0.00000000000E+00 -0.24572941219E+04  0.24572941219E+04  0.00000000000E+00 0. -1.
         24    2    1    2    0    0 -0.50878537967E+02 -0.13266419069E+03 -0.24614886657E+03  0.29523285180E+03  0.79904687904E+02 0.  0.
        254    2    1    2    0    0  0.50878537967E+02  0.13266419069E+03 -0.20835887100E+04  0.22896178155E+04  0.93851980027E+03 0.  0.
         23    2    4    4    0    0  0.20983765112E+03  0.21737831443E+03 -0.20593210333E+04  0.20833210789E+04  0.90213236457E+02 0.  0.
         23    2    4    4    0    0 -0.15895911316E+03 -0.84714123733E+02 -0.24267676686E+02  0.20629673663E+03  0.97595804189E+02 0.  0.
          4    1    3    3  502    0 -0.26517147169E+02 -0.14524763699E+02 -0.10646062936E+03  0.11067065310E+03  0.00000000000E+00 0. -1.
         -3    1    3    3    0  502 -0.24361390798E+02 -0.11813942699E+03 -0.13968823721E+03  0.18456219869E+03  0.00000000000E+00 0.  1.
         13    1    5    5    0    0  0.20712102657E+03  0.17239356362E+03 -0.17095843225E+04  0.17306926983E+04  0.00000000000E+00 0. -1.
        -13    1    5    5    0    0  0.27166245562E+01  0.44984750802E+02 -0.34973671082E+03  0.35262838052E+03  0.00000000000E+00 0.  1.
          2    1    6    6  503    0 -0.12164923193E+03 -0.10415808842E+03 -0.55389760897E+01  0.16024394924E+03  0.00000000000E+00 0. -1.
         -2    1    6    6    0  503 -0.37309881226E+02  0.19443964686E+02 -0.18728700597E+02  0.46052787384E+02  0.00000000000E+00 0.  1.
<mgrwt>
<rscale>  0 0.11197213E+04</rscale>
<asrwt>0</asrwt>
<pdfrwt beam="1">  1        2 0.37804524E+00 0.11197213E+04</pdfrwt>
<pdfrwt beam="2">  1       -1 0.19624084E-01 0.11197213E+04</pdfrwt>
<totfact> 0.88562130E+01</totfact>
</mgrwt>
</event>
<event>
12    7  0.1546317E-007  0.2254923E+04  0.7818608E-02  0.8495909E-01
          2   -1    0    0  501    0  0.00000000000E+00  0.00000000000E+00  0.61679824510E+03  0.61679824510E+03  0.00000000000E+00 0. -1.
         -1   -1    0    0    0  501 -0.00000000000E+00 -0.00000000000E+00 -0.20609158212E+04  0.20609158212E+04  0.00000000000E+00 0.  1.
         24    2    1    2    0    0 -0.13171818452E+03 -0.12276670385E+03  0.49500194693E+03  0.53279789685E+03  0.80158141888E+02 0.  0.
        254    2    1    2    0    0  0.13171818452E+03  0.12276670385E+03 -0.19391195230E+04  0.21449161694E+04  0.89892130118E+03 0.  0.
         23    2    4    4    0    0 -0.31295748211E+03  0.23223798010E+03 -0.55771319524E+03  0.68661594411E+03  0.92306996280E+02 0.  0.
         23    2    4    4    0    0  0.44467566663E+03 -0.10947127624E+03 -0.13814063278E+04  0.14583002253E+04  0.92928445443E+02 0.  0.
          4    1    3    3  502    0 -0.95096106354E+02 -0.38855663174E+02  0.21655561962E+03  0.23968597871E+03  0.00000000000E+00 0. -1.
         -3    1    3    3    0  502 -0.36622078167E+02 -0.83911040678E+02  0.27844632731E+03  0.29311191813E+03  0.00000000000E+00 0.  1.
         13    1    5    5    0    0 -0.12200036062E+02  0.30567062378E+02 -0.20564987455E+02  0.38808567242E+02  0.00000000000E+00 0.  1.
        -13    1    5    5    0    0 -0.30075744604E+03  0.20167091772E+03 -0.53714820778E+03  0.64780737687E+03  0.00000000000E+00 0. -1.
          1    1    6    6  503    0  0.35571587764E+03 -0.58220144514E+02 -0.98726821469E+03  0.10510099422E+04  0.00000000000E+00 0. -1.
         -1    1    6    6    0  503  0.88959788988E+02 -0.51251131730E+02 -0.39413811308E+03  0.40729028315E+03  0.00000000000E+00 0.  1.
<mgrwt>
<rscale>  0 0.22549228E+04</rscale>
<asrwt>0</asrwt>
<pdfrwt beam="1">  1        2 0.94892040E-01 0.22549228E+04</pdfrwt>
<pdfrwt beam="2">  1       -1 0.31706396E+00 0.22549228E+04</pdfrwt>
<totfact> 0.12746915E+00</totfact>
</mgrwt>
</event>
<event>
12    7  0.1546317E-007  0.1434139E+04  0.7818608E-02  0.8929471E-01
         -1   -1    0    0    0  501 -0.00000000000E+00  0.00000000000E+00  0.27644875371E+03  0.27644875371E+03  0.00000000000E+00 0.  1.
          2   -1    0    0  501    0  0.00000000000E+00 -0.00000000000E+00 -0.18599774788E+04  0.18599774788E+04  0.00000000000E+00 0. -1.
         24    2    1    2    0    0 -0.37395368194E+03 -0.48109114365E+02 -0.77382653918E+03  0.86460020331E+03  0.81056497025E+02 0.  0.
        254    2    1    2    0    0  0.37395368194E+03  0.48109114365E+02 -0.80970218589E+03  0.12718260292E+04  0.90541039068E+03 0.  0.
         23    2    4    4    0    0  0.32761825840E+02 -0.39692664439E+03 -0.40002585523E+03  0.57144388057E+03  0.88900649785E+02 0.  0.
         23    2    4    4    0    0  0.34119185610E+03  0.44503575875E+03 -0.40967633066E+03  0.70038214860E+03  0.90728986256E+02 0.  0.
          2    1    3    3  502    0 -0.34615451179E+03 -0.22109278501E+02 -0.68024024991E+03  0.76356961951E+03  0.00000000000E+00 0. -1.
         -1    1    3    3    0  502 -0.27799170145E+02 -0.25999835864E+02 -0.93586289267E+02  0.10103058381E+03  0.00000000000E+00 0.  1.
         13    1    5    5    0    0  0.35914890673E+02 -0.27159537683E+03 -0.32608188993E+03  0.42589121502E+03  0.00000000000E+00 0. -1.
        -13    1    5    5    0    0 -0.31530648333E+01 -0.12533126756E+03 -0.73943965296E+02  0.14555266555E+03  0.00000000000E+00 0.  1.
          3    1    6    6  503    0  0.28534822269E+02  0.88966062731E+02 -0.54220775750E+02  0.10802355726E+03  0.00000000000E+00 0. -1.
         -3    1    6    6    0  503  0.31265703383E+03  0.35606969602E+03 -0.35545555491E+03  0.59235859135E+03  0.00000000000E+00 0.  1.
<mgrwt>
<rscale>  0 0.14341387E+04</rscale>
<asrwt>0</asrwt>
<pdfrwt beam="1">  1        2 0.28615038E+00 0.14341387E+04</pdfrwt>
<pdfrwt beam="2">  1       -1 0.42530578E-01 0.14341387E+04</pdfrwt>
<totfact> 0.48093189E+01</totfact>
</mgrwt>
</event>
<event>
12    7  0.1546317E-007  0.1478803E+04  0.7818608E-02  0.8898673E-01
          2   -1    0    0  501    0  0.00000000000E+00  0.00000000000E+00  0.10835971563E+04  0.10835971563E+04  0.00000000000E+00 0. -1.
         -1   -1    0    0    0  501 -0.00000000000E+00 -0.00000000000E+00 -0.50453640032E+03  0.50453640032E+03  0.00000000000E+00 0.  1.
         24    2    1    2    0    0 -0.42906219803E+03  0.19029195596E+02  0.36302700677E+03  0.56726624863E+03  0.74470860911E+02 0.  0.
        254    2    1    2    0    0  0.42906219803E+03 -0.19029195596E+02  0.21603374919E+03  0.10208673080E+04  0.90057925782E+03 0.  0.
         23    2    4    4    0    0 -0.10912465377E+03 -0.14862506261E+03  0.38193687858E+03  0.43480753802E+03  0.95834318473E+02 0.  0.
         23    2    4    4    0    0  0.53818685180E+03  0.12959586702E+03 -0.16590312939E+03  0.58605976995E+03  0.97478353548E+02 0.  0.
          2    1    3    3  502    0 -0.42108186261E+03  0.23064909767E+02  0.33724670318E+03  0.53997894763E+03  0.00000000000E+00 0. -1.
         -1    1    3    3    0  502 -0.79803354196E+01 -0.40357141716E+01  0.25780303594E+02  0.27287300997E+02  0.00000000000E+00 0.  1.
         13    1    5    5    0    0  0.54342427726E+01 -0.53129175481E+02  0.14833057350E+03  0.15765214656E+03  0.00000000000E+00 0. -1.
        -13    1    5    5    0    0 -0.11455889654E+03 -0.95495887132E+02  0.23360630509E+03  0.27715539145E+03  0.00000000000E+00 0.  1.
          4    1    6    6  503    0  0.22498900645E+03  0.29759508828E+02 -0.24692380797E+02  0.22828796520E+03  0.00000000000E+00 0. -1.
         -4    1    6    6    0  503  0.31319784535E+03  0.99836358189E+02 -0.14121074860E+03  0.35777180475E+03  0.00000000000E+00 0.  1.
<mgrwt>
<rscale>  0 0.14788025E+04</rscale>
<asrwt>0</asrwt>
<pdfrwt beam="1">  1        2 0.16670725E+00 0.14788025E+04</pdfrwt>
<pdfrwt beam="2">  1       -1 0.77620985E-01 0.14788025E+04</pdfrwt>
<totfact> 0.40950208E+01</totfact>
</mgrwt>
</event>
<event>
12    7  0.1546317E-007  0.2458533E+04  0.7818608E-02  0.8417909E-01
         -1   -1    0    0    0  501 -0.00000000000E+00  0.00000000000E+00  0.50694360664E+03  0.50694360664E+03  0.00000000000E+00 0.  1.
          2   -1    0    0  501    0  0.00000000000E+00 -0.00000000000E+00 -0.29807971668E+04  0.29807971668E+04  0.00000000000E+00 0. -1.
         24    2    1    2    0    0  0.39392649956E+03 -0.84019472185E+03 -0.34203781418E+03  0.99222013202E+03  0.80035406986E+02 0.  0.
        254    2    1    2    0    0 -0.39392649956E+03  0.84019472185E+03 -0.21318157460E+04  0.24955206415E+04  0.90657577692E+03 0.  0.
         23    2    4    4    0    0 -0.16747838196E+01  0.62189177390E+02  0.67595337872E+02  0.12806708324E+03  0.89228635657E+02 0.  0.
         23    2    4    4    0    0 -0.39225171575E+03  0.77800554446E+03 -0.21994110839E+04  0.23674535582E+04  0.90957125538E+02 0.  0.
          2    1    3    3  502    0  0.10350793843E+03 -0.31076133322E+03 -0.12025967361E+03  0.34892533390E+03  0.00000000000E+00 0. -1.
         -1    1    3    3    0  502  0.29041856114E+03 -0.52943338863E+03 -0.22177814057E+03  0.64329479812E+03  0.00000000000E+00 0.  1.
         13    1    5    5    0    0  0.10239379401E+02  0.60270087053E+02  0.86329053991E+02  0.10578295632E+03  0.00000000000E+00 0. -1.
        -13    1    5    5    0    0 -0.11914163220E+02  0.19190903368E+01 -0.18733716119E+02  0.22284126920E+02  0.00000000000E+00 0.  1.
          3    1    6    6  503    0 -0.36874557907E+03  0.76216192182E+03 -0.21055836773E+04  0.22694375336E+04  0.00000000000E+00 0. -1.
         -3    1    6    6    0  503 -0.23506136677E+02  0.15843622640E+02 -0.93827406629E+02  0.98016024581E+02  0.00000000000E+00 0.  1.
<mgrwt>
<rscale>  0 0.24585329E+04</rscale>
<asrwt>0</asrwt>
<pdfrwt beam="1">  1        2 0.45858418E+00 0.24585329E+04</pdfrwt>
<pdfrwt beam="2">  1       -1 0.77991324E-01 0.24585329E+04</pdfrwt>
<totfact> 0.30006293E+00</totfact>
</mgrwt>
</event>
<event>
12    7  0.1546317E-007  0.2172781E+04  0.7818608E-02  0.8529843E-01
          2   -1    0    0  501    0  0.00000000000E+00  0.00000000000E+00  0.14151239003E+04  0.14151239003E+04  0.00000000000E+00 0. -1.
         -1   -1    0    0    0  501 -0.00000000000E+00 -0.00000000000E+00 -0.83402206834E+03  0.83402206834E+03  0.00000000000E+00 0.  1.
         24    2    1    2    0    0  0.42697095588E+03  0.22016820197E+03 -0.54084529784E+03  0.72750972581E+03  0.77320958580E+02 0.  0.
        254    2    1    2    0    0 -0.42697095588E+03 -0.22016820197E+03  0.11219471298E+04  0.15216362429E+04  0.90875368452E+03 0.  0.
         23    2    4    4    0    0 -0.43066750664E+03 -0.14789690158E+03  0.76920473131E+02  0.47021522453E+03  0.88530240162E+02 0.  0.
         23    2    4    4    0    0  0.36965507598E+01 -0.72271300394E+02  0.10450266567E+04  0.10514210183E+04  0.90380524608E+02 0.  0.
          2    1    3    3  502    0  0.10261067681E+03  0.72633182572E+02 -0.99869895178E+02  0.16055692501E+03  0.00000000000E+00 0. -1.
         -1    1    3    3    0  502  0.32436027907E+03  0.14753501940E+03 -0.44097540266E+03  0.56695280080E+03  0.00000000000E+00 0.  1.
         13    1    5    5    0    0 -0.79493507401E+02  0.47523059657E+01 -0.70378534868E-01  0.79635463733E+02  0.00000000000E+00 0. -1.
        -13    1    5    5    0    0 -0.35117399924E+03 -0.15264920754E+03  0.76990851666E+02  0.39057976080E+03  0.00000000000E+00 0.  1.
          2    1    6    6  503    0 -0.42141589567E+00 -0.76699999827E+02  0.45909442025E+03  0.46545757516E+03  0.00000000000E+00 0. -1.
         -2    1    6    6    0  503  0.41179666555E+01  0.44286994328E+01  0.58593223645E+03  0.58596344318E+03  0.00000000000E+00 0.  1.
<mgrwt>
<rscale>  0 0.21727812E+04</rscale>
<asrwt>0</asrwt>
<pdfrwt beam="1">  1        2 0.21771137E+00 0.21727812E+04</pdfrwt>
<pdfrwt beam="2">  1       -1 0.12831109E+00 0.21727812E+04</pdfrwt>
<totfact> 0.77615420E+00</totfact>
</mgrwt>
</event>
<event>
12    7  0.1546317E-007  0.3213084E+04  0.7818608E-02  0.8185370E-01
         -1   -1    0    0    0  501 -0.00000000000E+00  0.00000000000E+00  0.32446203044E+04  0.32446203044E+04  0.00000000000E+00 0.  1.
          2   -1    0    0  501    0  0.00000000000E+00 -0.00000000000E+00 -0.79546359906E+03  0.79546359906E+03  0.00000000000E+00 0. -1.
         24    2    1    2    0    0  0.13720208358E+04 -0.36687736297E+03  0.63216011047E+03  0.15566194051E+04  0.79983709665E+02 0.  0.
        254    2    1    2    0    0 -0.13720208358E+04  0.36687736297E+03  0.18169965948E+04  0.24834644983E+04  0.92145489058E+03 0.  0.
         23    2    4    4    0    0 -0.83320352404E+03  0.69454045305E+02  0.39095183113E+03  0.92760096552E+03  0.92456693069E+02 0.  0.
         23    2    4    4    0    0 -0.53881731176E+03  0.29742331766E+03  0.14260447637E+04  0.15558635328E+04  0.91230144159E+02 0.  0.
          4    1    3    3  502    0  0.11043210851E+04 -0.30444088451E+03  0.47602829651E+03  0.12404887143E+04  0.00000000000E+00 0. -1.
         -3    1    3    3    0  502  0.26769975065E+03 -0.62436478452E+02  0.15613181396E+03  0.31613069081E+03  0.00000000000E+00 0.  1.
         13    1    5    5    0    0 -0.52103558243E+03  0.43965033400E+02  0.19454174298E+03  0.55790455463E+03  0.00000000000E+00 0.  1.
        -13    1    5    5    0    0 -0.31216794161E+03  0.25489011905E+02  0.19641008815E+03  0.36969641089E+03  0.00000000000E+00 0. -1.
          4    1    6    6  503    0 -0.38622042426E+03  0.25553408299E+03  0.10970548719E+04  0.11907952282E+04  0.00000000000E+00 0. -1.
         -4    1    6    6    0  503 -0.15259688750E+03  0.41889234669E+02  0.32898989183E+03  0.36506830454E+03  0.00000000000E+00 0.  1.
<mgrwt>
<rscale>  0 0.32130841E+04</rscale>
<asrwt>0</asrwt>
<pdfrwt beam="1">  1        2 0.12237902E+00 0.32130841E+04</pdfrwt>
<pdfrwt beam="2">  1       -1 0.49917235E+00 0.32130841E+04</pdfrwt>
<totfact> 0.50100058E-02</totfact>
</mgrwt>
</event>
<event>
12    7  0.1546317E-007  0.1735704E+04  0.7818608E-02  0.8741259E-01
         -1   -1    0    0    0  501 -0.00000000000E+00  0.00000000000E+00  0.57900313985E+03  0.57900313985E+03  0.00000000000E+00 0.  1.
          2   -1    0    0  501    0  0.00000000000E+00 -0.00000000000E+00 -0.13007990535E+04  0.13007990535E+04  0.00000000000E+00 0. -1.
         24    2    1    2    0    0  0.94623354698E+02 -0.56028334795E+03 -0.57338942401E+03  0.81121091175E+03  0.80104322851E+02 0.  0.
        254    2    1    2    0    0 -0.94623354698E+02  0.56028334795E+03 -0.14840648960E+03  0.10685912815E+04  0.89274398996E+03 0.  0.
         23    2    4    4    0    0 -0.44283132480E+03  0.27851268278E+03 -0.26956825176E+03  0.59590146807E+03  0.93608870273E+02 0.  0.
         23    2    4    4    0    0  0.34820797010E+03  0.28177066516E+03  0.12116176216E+03  0.47268981348E+03  0.90066580782E+02 0.  0.
          2    1    3    3  502    0  0.36630285311E+02 -0.42575839571E+03 -0.42927571888E+03  0.60571415051E+03  0.00000000000E+00 0. -1.
         -1    1    3    3    0  502  0.57993069386E+02 -0.13452495224E+03 -0.14411370513E+03  0.20549676124E+03  0.00000000000E+00 0.  1.
         13    1    5    5    0    0 -0.62089805550E+01  0.28969517911E+01 -0.22457794547E+02  0.23479699852E+02  0.00000000000E+00 0.  1.
        -13    1    5    5    0    0 -0.43662234424E+03  0.27561573099E+03 -0.24711045721E+03  0.57242176821E+03  0.00000000000E+00 0. -1.
          1    1    6    6  503    0  0.16229451424E+03  0.95452042338E+02  0.86524048687E+02  0.20721248211E+03  0.00000000000E+00 0.  1.
         -1    1    6    6    0  503  0.18591345586E+03  0.18631862283E+03  0.34637713473E+02  0.26547733138E+03  0.00000000000E+00 0. -1.
<mgrwt>
<rscale>  0 0.17357036E+04</rscale>
<asrwt>0</asrwt>
<pdfrwt beam="1">  1        2 0.20012293E+00 0.17357036E+04</pdfrwt>
<pdfrwt beam="2">  1       -1 0.89077407E-01 0.17357036E+04</pdfrwt>
<totfact> 0.22075508E+01</totfact>
</mgrwt>
</event>
<event>
12    7  0.1546317E-007  0.3049777E+04  0.7818608E-02  0.8229658E-01
         -1   -1    0    0    0  501 -0.00000000000E+00  0.00000000000E+00  0.12911169975E+04  0.12911169975E+04  0.00000000000E+00 0.  1.
          2   -1    0    0  501    0  0.00000000000E+00 -0.00000000000E+00 -0.18009870637E+04  0.18009870637E+04  0.00000000000E+00 0. -1.
         24    2    1    2    0    0  0.66517721846E+03  0.20562690950E+03 -0.14607810950E+04  0.16201755787E+04  0.79651369209E+02 0.  0.
        254    2    1    2    0    0 -0.66517721846E+03 -0.20562690950E+03  0.95091102873E+03  0.14719284825E+04  0.88181546548E+03 0.  0.
         23    2    4    4    0    0 -0.14000222887E+03  0.22477183400E+03 -0.23795567299E+02  0.28062186945E+03  0.89774178600E+02 0.  0.
         23    2    4    4    0    0 -0.52517498959E+03 -0.43039874350E+03  0.97470659603E+03  0.11913066130E+04  0.90036936042E+02 0.  0.
          2    1    3    3  502    0  0.39538927817E+03  0.94241241117E+02 -0.78285810561E+03  0.88208894469E+03  0.00000000000E+00 0. -1.
         -1    1    3    3    0  502  0.26978794028E+03  0.11138566838E+03 -0.67792298937E+03  0.73808663405E+03  0.00000000000E+00 0.  1.
         13    1    5    5    0    0 -0.31393574971E+02  0.51469703219E+02 -0.44674106062E+02  0.75036408838E+02  0.00000000000E+00 0. -1.
        -13    1    5    5    0    0 -0.10860865390E+03  0.17330213078E+03  0.20878538762E+02  0.20558546061E+03  0.00000000000E+00 0.  1.
          3    1    6    6  503    0 -0.48161423077E+03 -0.38129510705E+03  0.91799640121E+03  0.11045612788E+04  0.00000000000E+00 0. -1.
         -3    1    6    6    0  503 -0.43560758815E+02 -0.49103636448E+02  0.56710194826E+02  0.86745334273E+02  0.00000000000E+00 0.  1.
<mgrwt>
<rscale>  0 0.30497770E+04</rscale>
<asrwt>0</asrwt>
<pdfrwt beam="1">  1        2 0.27707493E+00 0.30497770E+04</pdfrwt>
<pdfrwt beam="2">  1       -1 0.19863339E+00 0.30497770E+04</pdfrwt>
<totfact> 0.12860182E+00</totfact>
</mgrwt>
</event>
<event>
12    7  0.1546317E-007  0.1655533E+04  0.7818608E-02  0.8787140E-01
          2   -1    0    0  501    0  0.00000000000E+00  0.00000000000E+00  0.84558125329E+03  0.84558125329E+03  0.00000000000E+00 0. -1.
         -1   -1    0    0    0  501 -0.00000000000E+00 -0.00000000000E+00 -0.81032717609E+03  0.81032717609E+03  0.00000000000E+00 0.  1.
         24    2    1    2    0    0 -0.29137068542E+03 -0.35819970158E+03  0.34018182613E+03  0.57911543276E+03  0.80293879590E+02 0.  0.
        254    2    1    2    0    0  0.29137068542E+03  0.35819970158E+03 -0.30492774893E+03  0.10767929966E+04  0.92374148058E+03 0.  0.
         23    2    4    4    0    0 -0.43265207347E+02  0.19388376329E+03 -0.57054970838E+03  0.61008363326E+03  0.84925131813E+02 0.  0.
         23    2    4    4    0    0  0.33463589277E+03  0.16431593829E+03  0.26562195944E+03  0.46670936335E+03  0.91003825158E+02 0.  0.
          4    1    3    3  502    0 -0.27638074519E+03 -0.32165178877E+03  0.28383980948E+03  0.51030503327E+03  0.00000000000E+00 0. -1.
         -3    1    3    3    0  502 -0.14989940234E+02 -0.36547912811E+02  0.56342016647E+02  0.68810399497E+02  0.00000000000E+00 0.  1.
         13    1    5    5    0    0  0.20196991879E+02  0.94930657237E+02 -0.29331287065E+03  0.30895337553E+03  0.00000000000E+00 0. -1.
        -13    1    5    5    0    0 -0.63462199227E+02  0.98953106053E+02 -0.27723683773E+03  0.30113025773E+03  0.00000000000E+00 0.  1.
          4    1    6    6  503    0  0.31968219289E+03  0.16125629186E+03  0.27251575709E+03  0.44996125831E+03  0.00000000000E+00 0. -1.
         -4    1    6    6    0  503  0.14953699883E+02  0.30596464345E+01 -0.68937976504E+01  0.16748105043E+02  0.00000000000E+00 0.  1.
<mgrwt>
<rscale>  0 0.16555331E+04</rscale>
<asrwt>0</asrwt>
<pdfrwt beam="1">  1        2 0.13008942E+00 0.16555331E+04</pdfrwt>
<pdfrwt beam="2">  1       -1 0.12466572E+00 0.16555331E+04</pdfrwt>
<totfact> 0.19631879E+01</totfact>
</mgrwt>
</event>
<event>
12    7  0.1546317E-007  0.2284764E+04  0.7818608E-02  0.8483953E-01
         -1   -1    0    0    0  501 -0.00000000000E+00  0.00000000000E+00  0.11482170790E+04  0.11482170790E+04  0.00000000000E+00 0.  1.
          2   -1    0    0  501    0  0.00000000000E+00 -0.00000000000E+00 -0.11365764188E+04  0.11365764188E+04  0.00000000000E+00 0. -1.
         24    2    1    2    0    0  0.24951972017E+03 -0.83464243774E+03 -0.40873357245E+03  0.96565101361E+03  0.80812481807E+02 0.  0.
        254    2    1    2    0    0 -0.24951972017E+03  0.83464243774E+03  0.42037423268E+03  0.13191424843E+04  0.89695836505E+03 0.  0.
         23    2    4    4    0    0 -0.12663011325E+03 -0.14917977429E+03 -0.40897095824E+02  0.22189050206E+03  0.96296582596E+02 0.  0.
         23    2    4    4    0    0 -0.12288960692E+03  0.98382221202E+03  0.46127132850E+03  0.10972519822E+04  0.90458131529E+02 0.  0.
          4    1    3    3  502    0  0.23188746174E+03 -0.81906125650E+03 -0.40003753741E+03  0.94056534496E+03  0.00000000000E+00 0. -1.
         -3    1    3    3    0  502  0.17632258431E+02 -0.15581181241E+02 -0.86960350419E+01  0.25085668651E+02  0.00000000000E+00 0.  1.
         13    1    5    5    0    0 -0.74549673365E+02 -0.17665189883E+02 -0.15932081950E+02  0.78253076410E+02  0.00000000000E+00 0. -1.
        -13    1    5    5    0    0 -0.52080439887E+02 -0.13151458440E+03 -0.24965013874E+02  0.14363742565E+03  0.00000000000E+00 0.  1.
          2    1    6    6  503    0 -0.55968574398E+02  0.17878952733E+03  0.74337164186E+02  0.20155443529E+03  0.00000000000E+00 0. -1.
         -2    1    6    6    0  503 -0.66921032524E+02  0.80503268469E+03  0.38693416432E+03  0.89569754690E+03  0.00000000000E+00 0.  1.
<mgrwt>
<rscale>  0 0.22847638E+04</rscale>
<asrwt>0</asrwt>
<pdfrwt beam="1">  1        2 0.17485791E+00 0.22847638E+04</pdfrwt>
<pdfrwt beam="2">  1       -1 0.17664878E+00 0.22847638E+04</pdfrwt>
<totfact> 0.47109454E+00</totfact>
</mgrwt>
</event>
<event>
12    7  0.1546317E-007  0.1713766E+04  0.7818608E-02  0.8753552E-01
         -1   -1    0    0    0  501 -0.00000000000E+00  0.00000000000E+00  0.80875067885E+03  0.80875067885E+03  0.00000000000E+00 0.  1.
          2   -1    0    0  501    0  0.00000000000E+00 -0.00000000000E+00 -0.90787983626E+03  0.90787983626E+03  0.00000000000E+00 0. -1.
         24    2    1    2    0    0 -0.11656926659E+03 -0.53862639734E+02  0.56863368317E+03  0.58819911208E+03  0.78385916771E+02 0.  0.
        254    2    1    2    0    0  0.11656926659E+03  0.53862639734E+02 -0.66776284058E+03  0.11284314030E+04  0.90053353198E+03 0.  0.
         23    2    4    4    0    0  0.22715033658E+03 -0.13264793783E+03  0.12256221782E+03  0.30486165895E+03  0.93415111419E+02 0.  0.
         23    2    4    4    0    0 -0.11058106999E+03  0.18651057756E+03 -0.79032505840E+03  0.82356974408E+03  0.81480407718E+02 0.  0.
          4    1    3    3  502    0 -0.40242529921E+02  0.13801553526E+02  0.25128239000E+03  0.25485835991E+03  0.00000000000E+00 0. -1.
         -3    1    3    3    0  502 -0.76326736668E+02 -0.67664193260E+02  0.31735129317E+03  0.33334075217E+03  0.00000000000E+00 0.  1.
         13    1    5    5    0    0  0.44679137277E+01  0.26012264120E+00  0.28732672981E+02  0.29079140522E+02  0.00000000000E+00 0. -1.
        -13    1    5    5    0    0  0.22268242286E+03 -0.13290806047E+03  0.93829544843E+02  0.27578251843E+03  0.00000000000E+00 0.  1.
          3    1    6    6  503    0 -0.87286634045E+02  0.67490824173E+02 -0.37130220889E+03  0.38734906500E+03  0.00000000000E+00 0.  1.
         -3    1    6    6    0  503 -0.23294435950E+02  0.11901975339E+03 -0.41902284951E+03  0.43622067907E+03  0.00000000000E+00 0. -1.
<mgrwt>
<rscale>  0 0.17137660E+04</rscale>
<asrwt>0</asrwt>
<pdfrwt beam="1">  1        2 0.13967382E+00 0.17137660E+04</pdfrwt>
<pdfrwt beam="2">  1       -1 0.12442318E+00 0.17137660E+04</pdfrwt>
<totfact> 0.17789503E+01</totfact>
</mgrwt>
</event>
<event>
12    7  0.1546317E-007  0.1253166E+04  0.7818608E-02  0.9067552E-01
          2   -1    0    0  501    0  0.00000000000E+00  0.00000000000E+00  0.47325133673E+03  0.47325133673E+03  0.00000000000E+00 0. -1.
         -1   -1    0    0    0  501 -0.00000000000E+00 -0.00000000000E+00 -0.82959330096E+03  0.82959330096E+03  0.00000000000E+00 0.  1.
         24    2    1    2    0    0 -0.11677972496E+03  0.22157889322E+03  0.56153988407E+02  0.27785128863E+03  0.10636427077E+03 0.  0.
        254    2    1    2    0    0  0.11677972496E+03 -0.22157889322E+03 -0.41249595264E+03  0.10249933491E+04  0.90428078858E+03 0.  0.
         23    2    4    4    0    0  0.25303380227E+03  0.22937844152E+03  0.51468683643E+02  0.35725749751E+03  0.91341773596E+02 0.  0.
         23    2    4    4    0    0 -0.13625407731E+03 -0.45095733474E+03 -0.46396463628E+03  0.66773585155E+03  0.93168086768E+02 0.  0.
          4    1    3    3  502    0 -0.11506631563E+03  0.16165230116E+03  0.41162490504E+01  0.19846578287E+03  0.00000000000E+00 0. -1.
         -3    1    3    3    0  502 -0.17134093264E+01  0.59926592057E+02  0.52037739357E+02  0.79385505758E+02  0.00000000000E+00 0.  1.
         13    1    5    5    0    0  0.22068313286E+03  0.19830205820E+03  0.11081315485E+02  0.29689652570E+03  0.00000000000E+00 0. -1.
        -13    1    5    5    0    0  0.32350669408E+02  0.31076383313E+02  0.40387368158E+02  0.60360971809E+02  0.00000000000E+00 0.  1.
          3    1    6    6  503    0 -0.88315969977E+02 -0.19386431578E+03 -0.15798851039E+03  0.26522340187E+03  0.00000000000E+00 0. -1.
         -3    1    6    6    0  503 -0.47938107335E+02 -0.25709301896E+03 -0.30597612590E+03  0.40251244968E+03  0.00000000000E+00 0.  1.
<mgrwt>
<rscale>  0 0.12531658E+04</rscale>
<asrwt>0</asrwt>
<pdfrwt beam="1">  1        2 0.72807898E-01 0.12531658E+04</pdfrwt>
<pdfrwt beam="2">  1       -1 0.12762974E+00 0.12531658E+04</pdfrwt>
<totfact> 0.39225376E+01</totfact>
</mgrwt>
</event>
<event>
12    7  0.1546317E-007  0.3141875E+04  0.7818608E-02  0.8204339E-01
         -3   -1    0    0    0  501 -0.00000000000E+00  0.00000000000E+00  0.11138739728E+04  0.11138739728E+04  0.00000000000E+00 0.  1.
          2   -1    0    0  501    0  0.00000000000E+00 -0.00000000000E+00 -0.22155512781E+04  0.22155512781E+04  0.00000000000E+00 0. -1.
         24    2    1    2    0    0 -0.10772671032E+04  0.33585475304E+03 -0.14571845633E+04  0.18448884799E+04  0.83209524237E+02 0.  0.
        254    2    1    2    0    0  0.10772671032E+04 -0.33585475304E+03  0.35550725811E+03  0.14845367710E+04  0.89675034823E+03 0.  0.
         23    2    4    4    0    0  0.11228678096E+04 -0.50766259046E+03  0.25489844618E+03  0.12616515543E+04  0.90763445544E+02 0.  0.
         23    2    4    4    0    0 -0.45600706381E+02  0.17180783742E+03  0.10060881193E+03  0.22288521669E+03  0.89209468994E+02 0.  0.
          2    1    3    3  502    0 -0.96012426090E+03  0.28972720514E+03 -0.13321208493E+04  0.16674310801E+04  0.00000000000E+00 0. -1.
         -1    1    3    3    0  502 -0.11714284230E+03  0.46127547899E+02 -0.12506371401E+03  0.17745739979E+03  0.00000000000E+00 0.  1.
         13    1    5    5    0    0  0.30014794972E+03 -0.12820191117E+03  0.27497454602E+02  0.32753722194E+03  0.00000000000E+00 0.  1.
        -13    1    5    5    0    0  0.82271985987E+03 -0.37946067929E+03  0.22740099158E+03  0.93411433235E+03  0.00000000000E+00 0. -1.
          2    1    6    6  503    0 -0.52863137847E+02  0.12594556648E+03  0.32414540496E+02  0.14038340178E+03  0.00000000000E+00 0. -1.
         -2    1    6    6    0  503  0.72624314658E+01  0.45862270936E+02  0.68194271438E+02  0.82501814909E+02  0.00000000000E+00 0.  1.
<mgrwt>
<rscale>  0 0.31418752E+04</rscale>
<asrwt>0</asrwt>
<pdfrwt beam="1">  1        2 0.34085404E+00 0.31418752E+04</pdfrwt>
<pdfrwt beam="2">  1       -3 0.17136523E+00 0.31418752E+04</pdfrwt>
<totfact> 0.61468957E-01</totfact>
</mgrwt>
</event>
<event>
12    7  0.1546317E-007  0.1536865E+04  0.7818608E-02  0.8860302E-01
          2   -1    0    0  501    0  0.00000000000E+00  0.00000000000E+00  0.19157966810E+04  0.19157966810E+04  0.00000000000E+00 0. -1.
         -1   -1    0    0    0  501 -0.00000000000E+00 -0.00000000000E+00 -0.30822081321E+03  0.30822081321E+03  0.00000000000E+00 0.  1.
         24    2    1    2    0    0 -0.34574532822E+03  0.27230778113E+02  0.16589632882E+02  0.35653876634E+03  0.81014373539E+02 0.  0.
        254    2    1    2    0    0  0.34574532822E+03 -0.27230778113E+02  0.15909862349E+04  0.18674787279E+04  0.91430752599E+03 0.  0.
         23    2    4    4    0    0  0.11917419421E+03 -0.18073711482E+03  0.15595945762E+04  0.15770668938E+04  0.89086206045E+02 0.  0.
         23    2    4    4    0    0  0.22657113401E+03  0.15350633670E+03  0.31391658735E+02  0.29041183411E+03  0.91950655113E+02 0.  0.
          2    1    3    3  502    0 -0.78703792380E+02  0.27549255576E+02 -0.23189334796E+02  0.86550526665E+02  0.00000000000E+00 0. -1.
         -1    1    3    3    0  502 -0.26704153585E+03 -0.31847746322E+00  0.39778967678E+02  0.26998823968E+03  0.00000000000E+00 0.  1.
         13    1    5    5    0    0 -0.10416307249E+02 -0.45693015201E+02  0.29671453388E+03  0.30039285229E+03  0.00000000000E+00 0. -1.
        -13    1    5    5    0    0  0.12959050146E+03 -0.13504409961E+03  0.12628800423E+04  0.12766740415E+04  0.00000000000E+00 0.  1.
          2    1    6    6  503    0  0.86651052916E+01  0.27791672632E+02 -0.17738474711E+02  0.34089802031E+02  0.00000000000E+00 0.  1.
         -2    1    6    6    0  503  0.21790602872E+03  0.12571466407E+03  0.49130133447E+02  0.25632203208E+03  0.00000000000E+00 0. -1.
<mgrwt>
<rscale>  0 0.15368649E+04</rscale>
<asrwt>0</asrwt>
<pdfrwt beam="1">  1        2 0.29473794E+00 0.15368649E+04</pdfrwt>
<pdfrwt beam="2">  1       -1 0.47418588E-01 0.15368649E+04</pdfrwt>
<totfact> 0.36257901E+01</totfact>
</mgrwt>
</event>
<event>
12    7  0.1546317E-007  0.2482386E+04  0.7818608E-02  0.8409288E-01
         -1   -1    0    0    0  501 -0.00000000000E+00  0.00000000000E+00  0.12835359428E+04  0.12835359428E+04  0.00000000000E+00 0.  1.
          2   -1    0    0  501    0  0.00000000000E+00 -0.00000000000E+00 -0.12002471288E+04  0.12002471288E+04  0.00000000000E+00 0. -1.
         24    2    1    2    0    0 -0.92352428249E+03  0.53687951956E+03  0.17821804025E+03  0.10858414045E+04  0.78442124431E+02 0.  0.
        254    2    1    2    0    0  0.92352428249E+03 -0.53687951956E+03 -0.94929226262E+02  0.13979416672E+04  0.89671212106E+03 0.  0.
         23    2    4    4    0    0  0.12422957520E+03 -0.54228911212E+03  0.93616237021E+02  0.57151146613E+03  0.91383191086E+02 0.  0.
         23    2    4    4    0    0  0.79929470729E+03  0.54095925535E+01 -0.18854546328E+03  0.82643020108E+03  0.92391518721E+02 0.  0.
          4    1    3    3  502    0 -0.65938804608E+02  0.18384610368E+02  0.31829960776E+01  0.68527741212E+02  0.00000000000E+00 0. -1.
         -3    1    3    3    0  502 -0.85758547788E+03  0.51849490920E+03  0.17503504417E+03  0.10173136632E+04  0.00000000000E+00 0.  1.
         13    1    5    5    0    0  0.13110596984E+03 -0.51842619280E+03  0.10369842024E+03  0.54470896364E+03  0.00000000000E+00 0. -1.
        -13    1    5    5    0    0 -0.68763946412E+01 -0.23862919315E+02 -0.10082183215E+02  0.26802502492E+02  0.00000000000E+00 0.  1.
          3    1    6    6  503    0  0.61574194214E+03 -0.96861534027E-01 -0.18435164193E+03  0.64274697710E+03  0.00000000000E+00 0. -1.
         -3    1    6    6    0  503  0.18355276516E+03  0.55064540875E+01 -0.41938213480E+01  0.18368322398E+03  0.00000000000E+00 0.  1.
<mgrwt>
<rscale>  0 0.24823862E+04</rscale>
<asrwt>0</asrwt>
<pdfrwt beam="1">  1        2 0.18465340E+00 0.24823862E+04</pdfrwt>
<pdfrwt beam="2">  1       -1 0.19746707E+00 0.24823862E+04</pdfrwt>
<totfact> 0.30203792E+00</totfact>
</mgrwt>
</event>
<event>
12    7  0.1546317E-007  0.1413009E+04  0.7818608E-02  0.8944456E-01
         -1   -1    0    0    0  501 -0.00000000000E+00  0.00000000000E+00  0.10679369567E+04  0.10679369567E+04  0.00000000000E+00 0.  1.
          2   -1    0    0  501    0  0.00000000000E+00 -0.00000000000E+00 -0.46739489479E+03  0.46739489479E+03  0.00000000000E+00 0. -1.
         24    2    1    2    0    0 -0.14354607667E+03 -0.27713398260E+03 -0.10364363943E+03  0.33809368258E+03  0.78464092228E+02 0.  0.
        254    2    1    2    0    0  0.14354607667E+03  0.27713398260E+03  0.70418570132E+03  0.11972381689E+04  0.91656587907E+03 0.  0.
         23    2    4    4    0    0  0.68962802178E+02  0.60369433480E+03  0.51099982827E+03  0.79912202754E+03  0.90953133358E+02 0.  0.
         23    2    4    4    0    0  0.74583274489E+02 -0.32656035220E+03  0.19318587306E+03  0.39811614135E+03  0.94717221225E+02 0.  0.
          2    1    3    3  502    0 -0.12677784215E+03 -0.24486495272E+03 -0.11675286479E+03  0.29943730190E+03  0.00000000000E+00 0. -1.
         -1    1    3    3    0  502 -0.16768234517E+02 -0.32269029878E+02  0.13109225358E+02  0.38656380684E+02  0.00000000000E+00 0.  1.
         13    1    5    5    0    0  0.44866514381E+02  0.10407317372E+03  0.78462928852E+02  0.13784288449E+03  0.00000000000E+00 0. -1.
        -13    1    5    5    0    0  0.24096287797E+02  0.49962116107E+03  0.43253689941E+03  0.66127914305E+03  0.00000000000E+00 0.  1.
          4    1    6    6  503    0 -0.15681586920E+02 -0.48463548901E+02  0.68207209053E+01  0.51392119766E+02  0.00000000000E+00 0. -1.
         -4    1    6    6    0  503  0.90264861409E+02 -0.27809680330E+03  0.18636515215E+03  0.34672402159E+03  0.00000000000E+00 0.  1.
<mgrwt>
<rscale>  0 0.14130085E+04</rscale>
<asrwt>0</asrwt>
<pdfrwt beam="1">  1        2 0.71906907E-01 0.14130085E+04</pdfrwt>
<pdfrwt beam="2">  1       -1 0.16429799E+00 0.14130085E+04</pdfrwt>
<totfact> 0.20083567E+01</totfact>
</mgrwt>
</event>
<event>
12    7  0.1546317E-007  0.2052820E+04  0.7818608E-02  0.8582316E-01
         -1   -1    0    0    0  501 -0.00000000000E+00  0.00000000000E+00  0.63833304881E+03  0.63833304881E+03  0.00000000000E+00 0.  1.
          2   -1    0    0  501    0  0.00000000000E+00 -0.00000000000E+00 -0.16504191157E+04  0.16504191157E+04  0.00000000000E+00 0. -1.
         24    2    1    2    0    0 -0.78093309190E+03  0.20322383926E+03 -0.23798424029E+03  0.84505332061E+03  0.79512220285E+02 0.  0.
        254    2    1    2    0    0  0.78093309190E+03 -0.20322383926E+03 -0.77410182660E+03  0.14436988439E+04  0.91316827094E+03 0.  0.
         23    2    4    4    0    0  0.28166293181E+03  0.10822035542E+03 -0.78822120218E+03  0.84883243350E+03  0.90433313056E+02 0.  0.
         23    2    4    4    0    0  0.49927016009E+03 -0.31144419469E+03  0.14119375575E+02  0.59486641040E+03  0.86014593511E+02 0.  0.
          4    1    3    3  502    0 -0.47337908461E+02  0.50515148071E+01 -0.33239297862E+02  0.58062434514E+02  0.00000000000E+00 0. -1.
         -1    1    3    3    0  502 -0.73359518344E+03  0.19817232446E+03 -0.20474494243E+03  0.78699088610E+03  0.00000000000E+00 0.  1.
         13    1    5    5    0    0  0.71459724080E+02  0.27018891272E+02 -0.32296032959E+03  0.33187329983E+03  0.00000000000E+00 0.  1.
        -13    1    5    5    0    0  0.21020320773E+03  0.81201464152E+02 -0.46526087259E+03  0.51695913367E+03  0.00000000000E+00 0. -1.
          3    1    6    6  503    0  0.44509010456E+03 -0.26855900169E+03  0.39308483005E+02  0.52131976310E+03  0.00000000000E+00 0. -1.
         -3    1    6    6    0  503  0.54180055526E+02 -0.42885193000E+02 -0.25189107429E+02  0.73546647297E+02  0.00000000000E+00 0.  1.
<mgrwt>
<rscale>  0 0.20528196E+04</rscale>
<asrwt>0</asrwt>
<pdfrwt beam="1">  1        2 0.25391064E+00 0.20528196E+04</pdfrwt>
<pdfrwt beam="2">  1       -1 0.98205083E-01 0.20528196E+04</pdfrwt>
<totfact> 0.10938752E+01</totfact>
</mgrwt>
</event>
<event>
12    7  0.1546317E-007  0.1794280E+04  0.7818608E-02  0.8709347E-01
         -1   -1    0    0    0  501 -0.00000000000E+00  0.00000000000E+00  0.57722272107E+03  0.57722272107E+03  0.00000000000E+00 0.  1.
          2   -1    0    0  501    0  0.00000000000E+00 -0.00000000000E+00 -0.13943660068E+04  0.13943660068E+04  0.00000000000E+00 0. -1.
         24    2    1    2    0    0 -0.65312455221E+01  0.29710381799E+03  0.32336811414E+03  0.44605075046E+03  0.77980759875E+02 0.  0.
        254    2    1    2    0    0  0.65312455221E+01 -0.29710381799E+03 -0.11405113999E+04  0.15255379774E+04  0.96860029498E+03 0.  0.
         23    2    4    4    0    0 -0.38091377249E+03  0.12931516140E+03 -0.60858589126E+03  0.73546666960E+03  0.93363386853E+02 0.  0.
         23    2    4    4    0    0  0.38744501802E+03 -0.42641897939E+03 -0.53192550860E+03  0.79007130780E+03  0.96546034259E+02 0.  0.
          4    1    3    3  502    0 -0.16322596013E+02  0.15909139440E+02  0.99646246964E+01  0.24876125174E+02  0.00000000000E+00 0. -1.
         -3    1    3    3    0  502  0.97913504905E+01  0.28119467855E+03  0.31340348944E+03  0.42117462529E+03  0.00000000000E+00 0.  1.
         13    1    5    5    0    0 -0.19903010576E+02  0.20702570682E+02 -0.89013006357E+02  0.93530965800E+02  0.00000000000E+00 0.  1.
        -13    1    5    5    0    0 -0.36101076192E+03  0.10861259072E+03 -0.51957288491E+03  0.64193570380E+03  0.00000000000E+00 0. -1.
          1    1    6    6  503    0  0.21590581500E+03 -0.23183165416E+03 -0.35649302363E+03  0.47691562432E+03  0.00000000000E+00 0. -1.
         -1    1    6    6    0  503  0.17153920301E+03 -0.19458732523E+03 -0.17543248497E+03  0.31315568348E+03  0.00000000000E+00 0.  1.
<mgrwt>
<rscale>  0 0.17942795E+04</rscale>
<asrwt>0</asrwt>
<pdfrwt beam="1">  1        2 0.21451785E+00 0.17942795E+04</pdfrwt>
<pdfrwt beam="2">  1       -1 0.88803496E-01 0.17942795E+04</pdfrwt>
<totfact> 0.19525434E+01</totfact>
</mgrwt>
</event>
<event>
12    7  0.1546317E-007  0.3553540E+04  0.7818608E-02  0.8101218E-01
         -1   -1    0    0    0  501 -0.00000000000E+00  0.00000000000E+00  0.12485711437E+04  0.12485711437E+04  0.00000000000E+00 0.  1.
          2   -1    0    0  501    0  0.00000000000E+00 -0.00000000000E+00 -0.25284193108E+04  0.25284193108E+04  0.00000000000E+00 0. -1.
         24    2    1    2    0    0 -0.30188922804E+03 -0.15593888997E+04 -0.10857559866E+04  0.19256409611E+04  0.79976259489E+02 0.  0.
        254    2    1    2    0    0  0.30188922804E+03  0.15593888997E+04 -0.19409218046E+03  0.18513494934E+04  0.93112422670E+03 0.  0.
         23    2    4    4    0    0 -0.28986057904E+03  0.59821307000E+03  0.10681548967E+03  0.67953216789E+03  0.92067290421E+02 0.  0.
         23    2    4    4    0    0  0.59174980707E+03  0.96117582971E+03 -0.30090767013E+03  0.11718173255E+04  0.92647766092E+02 0.  0.
          2    1    3    3  502    0 -0.16930944518E+03 -0.73109348726E+03 -0.54803712552E+03  0.92925134721E+03  0.00000000000E+00 0. -1.
         -1    1    3    3    0  502 -0.13257978285E+03 -0.82829541246E+03 -0.53771886111E+03  0.99638961392E+03  0.00000000000E+00 0.  1.
         13    1    5    5    0    0 -0.28438396480E+03  0.53856338932E+03  0.11258416948E+03  0.61935446956E+03  0.00000000000E+00 0.  1.
        -13    1    5    5    0    0 -0.54766142322E+01  0.59649680689E+02 -0.57686798107E+01  0.60177698332E+02  0.00000000000E+00 0. -1.
          3    1    6    6  503    0  0.18261460357E+03  0.38178352744E+03 -0.10849542541E+03  0.43689588302E+03  0.00000000000E+00 0. -1.
         -3    1    6    6    0  503  0.40913520350E+03  0.57939230227E+03 -0.19241224472E+03  0.73492144246E+03  0.00000000000E+00 0.  1.
<mgrwt>
<rscale>  0 0.35535399E+04</rscale>
<asrwt>0</asrwt>
<pdfrwt beam="1">  1        2 0.38898759E+00 0.35535399E+04</pdfrwt>
<pdfrwt beam="2">  1       -1 0.19208787E+00 0.35535399E+04</pdfrwt>
<totfact> 0.53220554E-01</totfact>
</mgrwt>
</event>
<event>
12    7  0.1546317E-007  0.1422004E+04  0.7818608E-02  0.8938043E-01
         -1   -1    0    0    0  501 -0.00000000000E+00  0.00000000000E+00  0.34045907157E+03  0.34045907157E+03  0.00000000000E+00 0.  1.
          2   -1    0    0  501    0  0.00000000000E+00 -0.00000000000E+00 -0.14848301445E+04  0.14848301445E+04  0.00000000000E+00 0. -1.
         24    2    1    2    0    0 -0.41158016159E+03  0.99349140262E+02 -0.43113546075E+03  0.61066478989E+03  0.88120480084E+02 0.  0.
        254    2    1    2    0    0  0.41158016159E+03 -0.99349140262E+02 -0.71323561217E+03  0.12146244262E+04  0.88732123671E+03 0.  0.
         23    2    4    4    0    0 -0.24461666519E+03 -0.55133812918E+02 -0.39885544194E+03  0.48002026329E+03  0.91960531650E+02 0.  0.
         23    2    4    4    0    0  0.65619682678E+03 -0.44215327344E+02 -0.31438017023E+03  0.73460416290E+03  0.90879668031E+02 0.  0.
          2    1    3    3  502    0 -0.38254828801E+03  0.10075506405E+03 -0.42563112994E+03  0.58108229569E+03  0.00000000000E+00 0. -1.
         -1    1    3    3    0  502 -0.29031873579E+02 -0.14059237921E+01 -0.55043308070E+01  0.29582494196E+02  0.00000000000E+00 0.  1.
         13    1    5    5    0    0 -0.20600120388E+03 -0.60079585749E+02 -0.38081820332E+03  0.43711389432E+03  0.00000000000E+00 0. -1.
        -13    1    5    5    0    0 -0.38615461308E+02  0.49457728309E+01 -0.18037238622E+02  0.42906368968E+02  0.00000000000E+00 0.  1.
          3    1    6    6  503    0  0.42123823810E+03  0.82528413874E+01 -0.17331656498E+03  0.45557479553E+03  0.00000000000E+00 0. -1.
         -3    1    6    6    0  503  0.23495858868E+03 -0.52468168731E+02 -0.14106360525E+03  0.27902936736E+03  0.00000000000E+00 0.  1.
<mgrwt>
<rscale>  0 0.14220041E+04</rscale>
<asrwt>0</asrwt>
<pdfrwt beam="1">  1        2 0.22843541E+00 0.14220041E+04</pdfrwt>
<pdfrwt beam="2">  1       -1 0.52378319E-01 0.14220041E+04</pdfrwt>
<totfact> 0.52639839E+01</totfact>
</mgrwt>
</event>
<event>
12    7  0.1546317E-007  0.1913495E+04  0.7818608E-02  0.8648168E-01
          2   -1    0    0  501    0  0.00000000000E+00  0.00000000000E+00  0.78900108689E+03  0.78900108689E+03  0.00000000000E+00 0. -1.
         -1   -1    0    0    0  501 -0.00000000000E+00 -0.00000000000E+00 -0.11601580196E+04  0.11601580196E+04  0.00000000000E+00 0.  1.
         24    2    1    2    0    0 -0.72044623234E+03  0.18472585967E+03 -0.10956192130E+03  0.75601333114E+03  0.79911984967E+02 0.  0.
        254    2    1    2    0    0  0.72044623234E+03 -0.18472585967E+03 -0.26159501144E+03  0.11931457754E+04  0.89554367530E+03 0.  0.
         23    2    4    4    0    0  0.88842730900E+03  0.68525420262E+01 -0.19723015168E+03  0.91477189312E+03  0.92508610444E+02 0.  0.
         23    2    4    4    0    0 -0.16798107665E+03 -0.19157840169E+03 -0.64364859766E+02  0.27837388226E+03  0.91810985410E+02 0.  0.
          4    1    3    3  502    0 -0.89827783801E+02  0.35998238860E+02  0.95277040906E+01  0.97240326454E+02  0.00000000000E+00 0. -1.
         -3    1    3    3    0  502 -0.63061844854E+03  0.14872762081E+03 -0.11908962539E+03  0.65877300469E+03  0.00000000000E+00 0.  1.
         13    1    5    5    0    0  0.58704924921E+03 -0.36532263730E+02 -0.11419067646E+03  0.59916686981E+03  0.00000000000E+00 0. -1.
        -13    1    5    5    0    0  0.30137805979E+03  0.43384805756E+02 -0.83039475220E+02  0.31560502331E+03  0.00000000000E+00 0.  1.
          3    1    6    6  503    0 -0.92348951282E+02 -0.38657870237E+02 -0.19890580129E+02  0.10207053890E+03  0.00000000000E+00 0. -1.
         -3    1    6    6    0  503 -0.75632125372E+02 -0.15292053146E+03 -0.44474279637E+02  0.17630334336E+03  0.00000000000E+00 0.  1.
<mgrwt>
<rscale>  0 0.19134952E+04</rscale>
<asrwt>0</asrwt>
<pdfrwt beam="1">  1        2 0.12138478E+00 0.19134952E+04</pdfrwt>
<pdfrwt beam="2">  1       -1 0.17848585E+00 0.19134952E+04</pdfrwt>
<totfact> 0.79949570E+00</totfact>
</mgrwt>
</event>
<event>
12    7  0.1546317E-007  0.1614449E+04  0.7818608E-02  0.8811720E-01
          2   -1    0    0  501    0  0.00000000000E+00  0.00000000000E+00  0.83641461234E+03  0.83641461234E+03  0.00000000000E+00 0. -1.
         -1   -1    0    0    0  501 -0.00000000000E+00 -0.00000000000E+00 -0.77905325078E+03  0.77905325078E+03  0.00000000000E+00 0.  1.
         24    2    1    2    0    0 -0.21405181805E+03 -0.46181109994E+03  0.13969623438E+02  0.51702266464E+03  0.89608105293E+02 0.  0.
        254    2    1    2    0    0  0.21405181805E+03  0.46181109994E+03  0.43391738119E+02  0.10984451985E+04  0.97242549241E+03 0.  0.
         23    2    4    4    0    0  0.43510894651E+03 -0.12485104417E+03 -0.20322818630E+02  0.46171337150E+03  0.88648981343E+02 0.  0.
         23    2    4    4    0    0 -0.22105712847E+03  0.58666214411E+03  0.63714556749E+02  0.63673182698E+03  0.91264173514E+02 0.  0.
          4    1    3    3  502    0 -0.20506598648E+03 -0.46282631838E+03  0.19182293797E+02  0.50658485981E+03  0.00000000000E+00 0. -1.
         -3    1    3    3    0  502 -0.89858315601E+01  0.10152184371E+01 -0.52126703597E+01  0.10437804826E+02  0.00000000000E+00 0.  1.
         13    1    5    5    0    0  0.36615449973E+03 -0.13404431051E+03 -0.31777680728E+02  0.39121198326E+03  0.00000000000E+00 0.  1.
        -13    1    5    5    0    0  0.68954446789E+02  0.91932663429E+01  0.11454862099E+02  0.70501388240E+02  0.00000000000E+00 0. -1.
          3    1    6    6  503    0 -0.11505892541E+03  0.18814216249E+03  0.87519330569E+01  0.22070936988E+03  0.00000000000E+00 0. -1.
         -3    1    6    6    0  503 -0.10599820306E+03  0.39851998163E+03  0.54962623692E+02  0.41602245710E+03  0.00000000000E+00 0.  1.
<mgrwt>
<rscale>  0 0.16144492E+04</rscale>
<asrwt>0</asrwt>
<pdfrwt beam="1">  1        2 0.12867917E+00 0.16144492E+04</pdfrwt>
<pdfrwt beam="2">  1       -1 0.11985435E+00 0.16144492E+04</pdfrwt>
<totfact> 0.22032449E+01</totfact>
</mgrwt>
</event>
<event>
12    7  0.1546317E-007  0.1832887E+04  0.7818608E-02  0.8689004E-01
         -1   -1    0    0    0  501 -0.00000000000E+00  0.00000000000E+00  0.23051258325E+03  0.23051258325E+03  0.00000000000E+00 0.  1.
          2   -1    0    0  501    0  0.00000000000E+00 -0.00000000000E+00 -0.36434820605E+04  0.36434820605E+04  0.00000000000E+00 0. -1.
         24    2    1    2    0    0 -0.28462548511E+03  0.34119174574E+03 -0.24223757647E+04  0.24641384924E+04  0.81551765319E+02 0.  0.
        254    2    1    2    0    0  0.28462548511E+03 -0.34119174574E+03 -0.99059371261E+03  0.14098561514E+04  0.89944148777E+03 0.  0.
         23    2    4    4    0    0 -0.59181371881E+02 -0.41860924285E+03 -0.94993592688E+03  0.10435448428E+04  0.88721140182E+02 0.  0.
         23    2    4    4    0    0  0.34380685699E+03  0.77417497110E+02 -0.40657785737E+02  0.36631130859E+03  0.91292362715E+02 0.  0.
          2    1    3    3  502    0 -0.28361695691E+03  0.33319100761E+03 -0.22844066081E+04  0.23259338720E+04  0.00000000000E+00 0. -1.
         -1    1    3    3    0  502 -0.10085281952E+01  0.80007381335E+01 -0.13796915657E+03  0.13820462042E+03  0.00000000000E+00 0.  1.
         13    1    5    5    0    0 -0.23089407435E+02 -0.37341900304E+03 -0.81979875432E+03  0.90113532288E+03  0.00000000000E+00 0. -1.
        -13    1    5    5    0    0 -0.36091964446E+02 -0.45190239813E+02 -0.13013717256E+03  0.14240951988E+03  0.00000000000E+00 0.  1.
          2    1    6    6  503    0  0.20570337241E+02  0.21243535995E+02  0.15612895180E+02  0.33439334498E+02  0.00000000000E+00 0.  1.
         -2    1    6    6    0  503  0.32323651975E+03  0.56173961115E+02 -0.56270680917E+02  0.33287197409E+03  0.00000000000E+00 0. -1.
<mgrwt>
<rscale>  0 0.18328868E+04</rscale>
<asrwt>0</asrwt>
<pdfrwt beam="1">  1        2 0.56053565E+00 0.18328868E+04</pdfrwt>
<pdfrwt beam="2">  1       -1 0.35463478E-01 0.18328868E+04</pdfrwt>
<totfact> 0.52651399E+00</totfact>
</mgrwt>
</event>
<event>
12    7  0.1546317E-007  0.1576486E+04  0.7818608E-02  0.8835125E-01
          2   -1    0    0  501    0  0.00000000000E+00  0.00000000000E+00  0.83167544364E+03  0.83167544364E+03  0.00000000000E+00 0. -1.
         -1   -1    0    0    0  501 -0.00000000000E+00 -0.00000000000E+00 -0.74707825429E+03  0.74707825429E+03  0.00000000000E+00 0.  1.
         24    2    1    2    0    0 -0.40960865535E+03 -0.15474542730E+03  0.32350057838E+03  0.55034652525E+03  0.80642890744E+02 0.  0.
        254    2    1    2    0    0  0.40960865535E+03  0.15474542730E+03 -0.23890338903E+03  0.10284071727E+04  0.89934480913E+03 0.  0.
         23    2    4    4    0    0  0.39107549592E+03  0.18542786085E+03  0.26451044250E+03  0.51530478333E+03  0.90827916602E+02 0.  0.
         23    2    4    4    0    0  0.18533159430E+02 -0.30682433554E+02 -0.50341383153E+03  0.51310238935E+03  0.92540188321E+02 0.  0.
          4    1    3    3  502    0 -0.11740786801E+03 -0.33152061027E+02  0.13506767347E+03  0.18200808509E+03  0.00000000000E+00 0. -1.
         -3    1    3    3    0  502 -0.29220078734E+03 -0.12159336627E+03  0.18843290491E+03  0.36833844016E+03  0.00000000000E+00 0.  1.
         13    1    5    5    0    0  0.18703620664E+03  0.11401862201E+03  0.17880243376E+03  0.28275979042E+03  0.00000000000E+00 0. -1.
        -13    1    5    5    0    0  0.20403928928E+03  0.71409238840E+02  0.85708008740E+02  0.23254499291E+03  0.00000000000E+00 0.  1.
          4    1    6    6  503    0  0.33749012351E+02 -0.49642684085E+02 -0.20254800327E+03  0.21125597162E+03  0.00000000000E+00 0. -1.
         -4    1    6    6    0  503 -0.15215852921E+02  0.18960250531E+02 -0.30086582826E+03  0.30184641773E+03  0.00000000000E+00 0.  1.
<mgrwt>
<rscale>  0 0.15764855E+04</rscale>
<asrwt>0</asrwt>
<pdfrwt beam="1">  1        2 0.12795007E+00 0.15764855E+04</pdfrwt>
<pdfrwt beam="2">  1       -1 0.11493512E+00 0.15764855E+04</pdfrwt>
<totfact> 0.24650349E+01</totfact>
</mgrwt>
</event>
<event>
12    7  0.1546317E-007  0.1703169E+04  0.7818608E-02  0.8759559E-01
          2   -1    0    0  501    0  0.00000000000E+00  0.00000000000E+00  0.10422564004E+04  0.10422564004E+04  0.00000000000E+00 0. -1.
         -1   -1    0    0    0  501 -0.00000000000E+00 -0.00000000000E+00 -0.69579447673E+03  0.69579447673E+03  0.00000000000E+00 0.  1.
         24    2    1    2    0    0  0.83688795613E+02 -0.59033213865E+03 -0.21835565845E+01  0.60155260129E+03  0.79780422232E+02 0.  0.
        254    2    1    2    0    0 -0.83688795613E+02  0.59033213865E+03  0.34864548028E+03  0.11364982759E+04  0.90254019949E+03 0.  0.
         23    2    4    4    0    0  0.31246365063E+03  0.88632727560E+02 -0.96294044961E+02  0.35154373991E+03  0.93921055254E+02 0.  0.
         23    2    4    4    0    0 -0.39615244624E+03  0.50169941109E+03  0.44493952524E+03  0.78495453595E+03  0.97690238193E+02 0.  0.
          2    1    3    3  502    0 -0.49890807203E+01 -0.11864851754E+01 -0.26452606503E+01  0.57702753325E+01  0.00000000000E+00 0. -1.
         -1    1    3    3    0  502  0.88677876334E+02 -0.58914565347E+03  0.46170406583E+00  0.59578232596E+03  0.00000000000E+00 0.  1.
         13    1    5    5    0    0  0.22394826468E+03  0.10357479745E+03 -0.85479338092E+02  0.26112694453E+03  0.00000000000E+00 0.  1.
        -13    1    5    5    0    0  0.88515385952E+02 -0.14942069894E+02 -0.10814706869E+02  0.90416795384E+02  0.00000000000E+00 0. -1.
          4    1    6    6  503    0 -0.18929706304E+02  0.66227355889E-01  0.10764218918E+02  0.21776284709E+02  0.00000000000E+00 0. -1.
         -4    1    6    6    0  503 -0.37722273994E+03  0.50163318373E+03  0.43417530633E+03  0.76317825124E+03  0.00000000000E+00 0.  1.
<mgrwt>
<rscale>  0 0.17031691E+04</rscale>
<asrwt>0</asrwt>
<pdfrwt beam="1">  1        2 0.16034714E+00 0.17031691E+04</pdfrwt>
<pdfrwt beam="2">  1       -1 0.10704530E+00 0.17031691E+04</pdfrwt>
<totfact> 0.20910337E+01</totfact>
</mgrwt>
</event>
<event>
12    7  0.1546317E-007  0.1221919E+04  0.7818608E-02  0.9093885E-01
          2   -1    0    0  501    0  0.00000000000E+00  0.00000000000E+00  0.50790367467E+03  0.50790367467E+03  0.00000000000E+00 0. -1.
         -1   -1    0    0    0  501 -0.00000000000E+00 -0.00000000000E+00 -0.73492539948E+03  0.73492539948E+03  0.00000000000E+00 0.  1.
         24    2    1    2    0    0  0.21839614748E+03 -0.12023317486E+03  0.16244981858E+03  0.30790452046E+03  0.79135052881E+02 0.  0.
        254    2    1    2    0    0 -0.21839614748E+03  0.12023317486E+03 -0.38947154339E+03  0.93492455369E+03  0.81255334866E+03 0.  0.
         23    2    4    4    0    0 -0.25723877753E+03  0.43824375351E+03 -0.20792763763E+03  0.55586913110E+03  0.86759508239E+02 0.  0.
         23    2    4    4    0    0  0.38842630050E+02 -0.31801057866E+03 -0.18154390577E+03  0.37905542259E+03  0.89918549966E+02 0.  0.
          2    1    3    3  502    0  0.18840110965E+03 -0.10263069454E+03  0.16824887672E+03  0.27264578137E+03  0.00000000000E+00 0. -1.
         -1    1    3    3    0  502  0.29995037822E+02 -0.17602480314E+02 -0.57990581353E+01  0.35258739092E+02  0.00000000000E+00 0.  1.
         13    1    5    5    0    0 -0.17470839747E+03  0.35436032058E+03 -0.13543731128E+03  0.41765718745E+03  0.00000000000E+00 0. -1.
        -13    1    5    5    0    0 -0.82530380058E+02  0.83883432936E+02 -0.72490326352E+02  0.13821194365E+03  0.00000000000E+00 0.  1.
          3    1    6    6  503    0  0.53695050338E+02 -0.31065844539E+03 -0.17822232615E+03  0.36215331790E+03  0.00000000000E+00 0. -1.
         -3    1    6    6    0  503 -0.14852420288E+02 -0.73521332619E+01 -0.33215796148E+01  0.16902104693E+02  0.00000000000E+00 0.  1.
<mgrwt>
<rscale>  0 0.12219187E+04</rscale>
<asrwt>0</asrwt>
<pdfrwt beam="1">  1        2 0.78139027E-01 0.12219187E+04</pdfrwt>
<pdfrwt beam="2">  1       -1 0.11306545E+00 0.12219187E+04</pdfrwt>
<totfact> 0.48725691E+01</totfact>
</mgrwt>
</event>
<event>
12    7  0.1546317E-007  0.2507500E+04  0.7818608E-02  0.8400319E-01
          2   -1    0    0  501    0  0.00000000000E+00  0.00000000000E+00  0.19418664848E+04  0.19418664848E+04  0.00000000000E+00 0. -1.
         -1   -1    0    0    0  501 -0.00000000000E+00 -0.00000000000E+00 -0.80947319439E+03  0.80947319439E+03  0.00000000000E+00 0.  1.
         24    2    1    2    0    0 -0.42227698306E+03 -0.81470298760E+03  0.11401563318E+04  0.14657330361E+04  0.79737466797E+02 0.  0.
        254    2    1    2    0    0  0.42227698306E+03  0.81470298760E+03 -0.77630414486E+01  0.12856066431E+04  0.90036957273E+03 0.  0.
         23    2    4    4    0    0 -0.15058447683E+03  0.42428086629E+03 -0.27769963551E+03  0.53660140135E+03  0.90188902910E+02 0.  0.
         23    2    4    4    0    0  0.57286145989E+03  0.39042212131E+03  0.26993659406E+03  0.74900524173E+03  0.86852762141E+02 0.  0.
          2    1    3    3  502    0 -0.40583293063E+03 -0.73628820377E+03  0.10310943185E+04  0.13304045175E+04  0.00000000000E+00 0. -1.
         -1    1    3    3    0  502 -0.16444052432E+02 -0.78414783831E+02  0.10906201334E+03  0.13532851857E+03  0.00000000000E+00 0.  1.
         13    1    5    5    0    0 -0.10753960423E+02  0.11956078722E+03 -0.43718294737E+02  0.12775648242E+03  0.00000000000E+00 0.  1.
        -13    1    5    5    0    0 -0.13983051641E+03  0.30472007907E+03 -0.23398134078E+03  0.40884491893E+03  0.00000000000E+00 0. -1.
          3    1    6    6  503    0  0.54146065611E+03  0.38389888592E+03  0.24204126810E+03  0.70649980339E+03  0.00000000000E+00 0. -1.
         -3    1    6    6    0  503  0.31400803773E+02  0.65232353919E+01  0.27895325968E+02  0.42505438339E+02  0.00000000000E+00 0.  1.
<mgrwt>
<rscale>  0 0.25074998E+04</rscale>
<asrwt>0</asrwt>
<pdfrwt beam="1">  1        2 0.29874869E+00 0.25074998E+04</pdfrwt>
<pdfrwt beam="2">  1       -1 0.12453434E+00 0.25074998E+04</pdfrwt>
<totfact> 0.41236364E+00</totfact>
</mgrwt>
</event>
<event>
12    7  0.1546317E-007  0.2324838E+04  0.7818608E-02  0.8468192E-01
         -1   -1    0    0    0  501 -0.00000000000E+00  0.00000000000E+00  0.41427268341E+03  0.41427268341E+03  0.00000000000E+00 0.  1.
          2   -1    0    0  501    0  0.00000000000E+00 -0.00000000000E+00 -0.32616629477E+04  0.32616629477E+04  0.00000000000E+00 0. -1.
         24    2    1    2    0    0 -0.63761071447E+03  0.39270393374E+03 -0.19751778938E+03  0.77856191571E+03  0.79884771342E+02 0.  0.
        254    2    1    2    0    0  0.63761071447E+03 -0.39270393374E+03 -0.26498724749E+04  0.28973737154E+04  0.90121390948E+03 0.  0.
         23    2    4    4    0    0  0.28107341271E+03 -0.22930995415E+03 -0.21930272408E+03  0.43367489558E+03  0.91623751642E+02 0.  0.
         23    2    4    4    0    0  0.35653730176E+03 -0.16339397959E+03 -0.24305697508E+04  0.24636988198E+04  0.91247580949E+02 0.  0.
          4    1    3    3  502    0 -0.61521267107E+03  0.38108244113E+03 -0.17452866575E+03  0.74442643206E+03  0.00000000000E+00 0. -1.
         -3    1    3    3    0  502 -0.22398043398E+02  0.11621492610E+02 -0.22989123633E+02  0.34135483649E+02  0.00000000000E+00 0.  1.
         13    1    5    5    0    0  0.91941294231E+02 -0.25837730932E+02 -0.69012476917E+02  0.11782831534E+03  0.00000000000E+00 0.  1.
        -13    1    5    5    0    0  0.18913211848E+03 -0.20347222322E+03 -0.15029024716E+03  0.31584658024E+03  0.00000000000E+00 0. -1.
          3    1    6    6  503    0  0.23886350247E+03 -0.10285078220E+03 -0.18530968583E+04  0.18712568029E+04  0.00000000000E+00 0. -1.
         -3    1    6    6    0  503  0.11767379929E+03 -0.60543197387E+02 -0.57747289247E+03  0.59244201685E+03  0.00000000000E+00 0.  1.
<mgrwt>
<rscale>  0 0.23248379E+04</rscale>
<asrwt>0</asrwt>
<pdfrwt beam="1">  1        2 0.50179430E+00 0.23248379E+04</pdfrwt>
<pdfrwt beam="2">  1       -1 0.63734258E-01 0.23248379E+04</pdfrwt>
<totfact> 0.30399922E+00</totfact>
</mgrwt>
</event>
<event>
12    7  0.1786041E-007  0.1735487E+04  0.7818608E-02  0.8741380E-01
         -1   -1    0    0    0  501 -0.00000000000E+00  0.00000000000E+00  0.47996690597E+03  0.47996690597E+03  0.00000000000E+00 0.  1.
          2   -1    0    0  501    0  0.00000000000E+00 -0.00000000000E+00 -0.15688136733E+04  0.15688136733E+04  0.00000000000E+00 0. -1.
         24    2    1    2    0    0 -0.23501104549E+03 -0.14840183967E+02  0.29763242931E+03  0.38701002603E+03  0.75771199728E+02 0.  0.
        254    2    1    2    0    0  0.23501104549E+03  0.14840183967E+02 -0.13864791967E+04  0.16617705533E+04  0.88527192794E+03 0.  0.
         23    2    4    4    0    0  0.53083763433E+03 -0.11045686298E+03 -0.63769577156E+03  0.84199200576E+03  0.91133572877E+02 0.  0.
         23    2    4    4    0    0 -0.29582658884E+03  0.12529704694E+03 -0.74878342511E+03  0.81977854752E+03  0.90263661620E+02 0.  0.
          2    1    3    3  502    0 -0.32982421750E+01  0.75405703782E+01  0.35456561585E+02  0.36399263214E+02  0.00000000000E+00 0. -1.
         -1    1    3    3    0  502 -0.23171280331E+03 -0.22380754345E+02  0.26217586772E+03  0.35061076281E+03  0.00000000000E+00 0.  1.
         13    1    5    5    0    0  0.92402210640E+02 -0.55691992568E+02 -0.13102122837E+03  0.16972427301E+03  0.00000000000E+00 0. -1.
        -13    1    5    5    0    0  0.43843542369E+03 -0.54764870409E+02 -0.50667454319E+03  0.67226773275E+03  0.00000000000E+00 0.  1.
          1    1    6    6  503    0 -0.83874295968E+01 -0.11891227477E+02 -0.44659387934E+02  0.46970322511E+02  0.00000000000E+00 0. -1.
         -1    1    6    6    0  503 -0.28743915925E+03  0.13718827442E+03 -0.70412403718E+03  0.77280822501E+03  0.00000000000E+00 0.  1.
<mgrwt>
<rscale>  0 0.17354868E+04</rscale>
<asrwt>0</asrwt>
<pdfrwt beam="1">  1        2 0.24135595E+00 0.17354868E+04</pdfrwt>
<pdfrwt beam="2">  1       -1 0.73841063E-01 0.17354868E+04</pdfrwt>
<totfact> 0.23184042E+01</totfact>
</mgrwt>
</event>
<event>
12    7  0.1546317E-007  0.1434239E+04  0.7818608E-02  0.8929401E-01
         -1   -1    0    0    0  501 -0.00000000000E+00  0.00000000000E+00  0.22436006096E+03  0.22436006096E+03  0.00000000000E+00 0.  1.
          2   -1    0    0  501    0  0.00000000000E+00 -0.00000000000E+00 -0.22921193593E+04  0.22921193593E+04  0.00000000000E+00 0. -1.
         24    2    1    2    0    0  0.27329832292E+03 -0.27589656589E+03 -0.92496229896E+03  0.10059494593E+04  0.74620183789E+02 0.  0.
        254    2    1    2    0    0 -0.27329832292E+03  0.27589656589E+03 -0.11427969994E+04  0.15105299609E+04  0.90824274990E+03 0.  0.
         23    2    4    4    0    0 -0.27921371422E+03  0.36102852686E+03 -0.11903368944E+03  0.47909417662E+03  0.84025683219E+02 0.  0.
         23    2    4    4    0    0  0.59153912911E+01 -0.85131960968E+02 -0.10237633099E+04  0.10314357843E+04  0.92119594989E+02 0.  0.
          2    1    3    3  502    0  0.27496290020E+03 -0.26338840108E+03 -0.87200767304E+03  0.95151217972E+03  0.00000000000E+00 0. -1.
         -1    1    3    3    0  502 -0.16645772736E+01 -0.12508164804E+02 -0.52954625918E+02  0.54437279602E+02  0.00000000000E+00 0.  1.
         13    1    5    5    0    0 -0.10299135912E+03  0.10692682804E+03 -0.20411483888E+01  0.14847468773E+03  0.00000000000E+00 0. -1.
        -13    1    5    5    0    0 -0.17622235510E+03  0.25410169881E+03 -0.11699254105E+03  0.33061948890E+03  0.00000000000E+00 0.  1.
          4    1    6    6  503    0  0.31513963265E+02  0.42515959668E+01 -0.21344502326E+03  0.21580079681E+03  0.00000000000E+00 0. -1.
         -4    1    6    6    0  503 -0.25598571974E+02 -0.89383556935E+02 -0.81031828668E+03  0.81563498752E+03  0.00000000000E+00 0.  1.
<mgrwt>
<rscale>  0 0.14342385E+04</rscale>
<asrwt>0</asrwt>
<pdfrwt beam="1">  1        2 0.35263372E+00 0.14342385E+04</pdfrwt>
<pdfrwt beam="2">  1       -1 0.34516936E-01 0.14342385E+04</pdfrwt>
<totfact> 0.40373662E+01</totfact>
</mgrwt>
</event>
<event>
12    7  0.1546317E-007  0.2949085E+04  0.7818608E-02  0.8258421E-01
          2   -1    0    0  501    0  0.00000000000E+00  0.00000000000E+00  0.26641550453E+04  0.26641550453E+04  0.00000000000E+00 0. -1.
         -1   -1    0    0    0  501 -0.00000000000E+00 -0.00000000000E+00 -0.81612215084E+03  0.81612215084E+03  0.00000000000E+00 0.  1.
         24    2    1    2    0    0 -0.23768172397E+03 -0.94315280087E+03 -0.25089565831E+03  0.10077745254E+04  0.81431289669E+02 0.  0.
        254    2    1    2    0    0  0.23768172397E+03  0.94315280087E+03  0.20989285527E+04  0.24725026707E+04  0.87277636288E+03 0.  0.
         23    2    4    4    0    0  0.80215474041E+01  0.45691066248E+03  0.21906634152E+03  0.51511695309E+03  0.92323965798E+02 0.  0.
         23    2    4    4    0    0  0.22966017656E+03  0.48624213839E+03  0.18798622112E+04  0.19573857177E+04  0.91113668705E+02 0.  0.
          4    1    3    3  502    0 -0.11066438890E+03 -0.59983464695E+03 -0.15331724370E+03  0.62893114716E+03  0.00000000000E+00 0. -1.
         -3    1    3    3    0  502 -0.12701733507E+03 -0.34331815392E+03 -0.97578414616E+02  0.37884337821E+03  0.00000000000E+00 0.  1.
         13    1    5    5    0    0  0.43639087851E+02  0.32839702228E+03  0.13674321047E+03  0.35839598190E+03  0.00000000000E+00 0.  1.
        -13    1    5    5    0    0 -0.35617540447E+02  0.12851364020E+03  0.82323131043E+02  0.15672097118E+03  0.00000000000E+00 0. -1.
          1    1    6    6  503    0 -0.70196986114E+01  0.35205711057E+02  0.11274493222E+03  0.11832217882E+03  0.00000000000E+00 0. -1.
         -1    1    6    6    0  503  0.23667987518E+03  0.45103642733E+03  0.17671172790E+04  0.18390635388E+04  0.00000000000E+00 0.  1.
<mgrwt>
<rscale>  0 0.29490852E+04</rscale>
<asrwt>0</asrwt>
<pdfrwt beam="1">  1        2 0.40987000E+00 0.29490852E+04</pdfrwt>
<pdfrwt beam="2">  1       -1 0.12555726E+00 0.29490852E+04</pdfrwt>
<totfact> 0.15074993E+00</totfact>
</mgrwt>
</event>
<event>
12    7  0.1546317E-007  0.1575094E+04  0.7818608E-02  0.8835996E-01
         -1   -1    0    0    0  501 -0.00000000000E+00  0.00000000000E+00  0.52158823391E+03  0.52158823391E+03  0.00000000000E+00 0.  1.
          2   -1    0    0  501    0  0.00000000000E+00 -0.00000000000E+00 -0.11891188372E+04  0.11891188372E+04  0.00000000000E+00 0. -1.
         24    2    1    2    0    0 -0.12254467518E+03  0.43627510303E+03 -0.52303859695E+03  0.69664758110E+03  0.79970715953E+02 0.  0.
        254    2    1    2    0    0  0.12254467518E+03 -0.43627510303E+03 -0.14449200632E+03  0.10140594900E+04  0.89559228805E+03 0.  0.
         23    2    4    4    0    0  0.33729911045E+03 -0.22837212389E+03 -0.42346110584E+03  0.59538398341E+03  0.96115881452E+02 0.  0.
         23    2    4    4    0    0 -0.21475443527E+03 -0.20790297915E+03  0.27896909952E+03  0.41867550658E+03  0.90123832157E+02 0.  0.
          2    1    3    3  502    0 -0.10393180485E+03  0.29701129267E+03 -0.40677565234E+03  0.51428003983E+03  0.00000000000E+00 0. -1.
         -1    1    3    3    0  502 -0.18612870328E+02  0.13926381036E+03 -0.11626294461E+03  0.18236754127E+03  0.00000000000E+00 0.  1.
         13    1    5    5    0    0  0.11131287184E+03 -0.79222777707E+02 -0.21027229693E+03  0.25076132636E+03  0.00000000000E+00 0. -1.
        -13    1    5    5    0    0  0.22598623861E+03 -0.14914934618E+03 -0.21318880892E+03  0.34462265705E+03  0.00000000000E+00 0.  1.
          3    1    6    6  503    0 -0.11251215611E+03 -0.66842781205E+02  0.76573517006E+02  0.15162600760E+03  0.00000000000E+00 0.  1.
         -3    1    6    6    0  503 -0.10224227915E+03 -0.14106019794E+03  0.20239558251E+03  0.26704949899E+03  0.00000000000E+00 0. -1.
<mgrwt>
<rscale>  0 0.15750941E+04</rscale>
<asrwt>0</asrwt>
<pdfrwt beam="1">  1        2 0.18294136E+00 0.15750941E+04</pdfrwt>
<pdfrwt beam="2">  1       -1 0.80244344E-01 0.15750941E+04</pdfrwt>
<totfact> 0.32649391E+01</totfact>
</mgrwt>
</event>
<event>
12    7  0.1546317E-007  0.2517919E+04  0.7818608E-02  0.8396629E-01
          2   -1    0    0  501    0  0.00000000000E+00  0.00000000000E+00  0.15383569312E+04  0.15383569312E+04  0.00000000000E+00 0. -1.
         -1   -1    0    0    0  501 -0.00000000000E+00 -0.00000000000E+00 -0.10303064334E+04  0.10303064334E+04  0.00000000000E+00 0.  1.
         24    2    1    2    0    0 -0.78512660016E+03 -0.29634614752E+03  0.93655511333E+03  0.12603336416E+04  0.84027320023E+02 0.  0.
        254    2    1    2    0    0  0.78512660016E+03  0.29634614752E+03 -0.42850461550E+03  0.13083297229E+04  0.90767044730E+03 0.  0.
         23    2    4    4    0    0  0.48848502391E+03  0.30408505981E+03  0.19284383278E+03  0.61427885706E+03  0.95207290710E+02 0.  0.
         23    2    4    4    0    0  0.29664157625E+03 -0.77389122967E+01 -0.62134844828E+03  0.69405086584E+03  0.87043636610E+02 0.  0.
          2    1    3    3  502    0 -0.20055485796E+03 -0.80584143656E+02  0.29797892105E+03  0.36811342362E+03  0.00000000000E+00 0. -1.
         -1    1    3    3    0  502 -0.58457174220E+03 -0.21576200386E+03  0.63857619228E+03  0.89222021801E+03  0.00000000000E+00 0.  1.
         13    1    5    5    0    0  0.37209548087E+03  0.19884770058E+03  0.10629127756E+03  0.43507848786E+03  0.00000000000E+00 0.  1.
        -13    1    5    5    0    0  0.11638954304E+03  0.10523735924E+03  0.86552555219E+02  0.17920036920E+03  0.00000000000E+00 0. -1.
          1    1    6    6  503    0  0.91388037914E+02  0.29760339883E+02 -0.14441722962E+03  0.17347561072E+03  0.00000000000E+00 0. -1.
         -1    1    6    6    0  503  0.20525353833E+03 -0.37499252180E+02 -0.47693121866E+03  0.52057525512E+03  0.00000000000E+00 0.  1.
<mgrwt>
<rscale>  0 0.25179190E+04</rscale>
<asrwt>0</asrwt>
<pdfrwt beam="1">  1        2 0.23667030E+00 0.25179190E+04</pdfrwt>
<pdfrwt beam="2">  1       -1 0.15850868E+00 0.25179190E+04</pdfrwt>
<totfact> 0.36744988E+00</totfact>
</mgrwt>
</event>
<event>
12    7  0.1546317E-007  0.2245501E+04  0.7818608E-02  0.8499725E-01
         -1   -1    0    0    0  501 -0.00000000000E+00  0.00000000000E+00  0.57168543840E+03  0.57168543840E+03  0.00000000000E+00 0.  1.
          2   -1    0    0  501    0  0.00000000000E+00 -0.00000000000E+00 -0.22050034404E+04  0.22050034404E+04  0.00000000000E+00 0. -1.
         24    2    1    2    0    0 -0.86558357381E+03 -0.11463955811E+03 -0.11026028607E+04  0.14087275063E+04  0.80018542657E+02 0.  0.
        254    2    1    2    0    0  0.86558357381E+03  0.11463955811E+03 -0.53071514130E+03  0.13679613725E+04  0.90955077033E+03 0.  0.
         23    2    4    4    0    0 -0.31727824048E+02 -0.16641980118E+03 -0.35909217526E+03  0.40765174211E+03  0.92360962885E+02 0.  0.
         23    2    4    4    0    0  0.89731139785E+03  0.28105935930E+03 -0.17162296603E+03  0.96030963035E+03  0.92617684622E+02 0.  0.
          2    1    3    3  502    0 -0.72486116287E+03 -0.96303061974E+02 -0.96789199835E+03  0.12130593166E+04  0.00000000000E+00 0. -1.
         -1    1    3    3    0  502 -0.14072241093E+03 -0.18336496138E+02 -0.13471086233E+03  0.19566818970E+03  0.00000000000E+00 0.  1.
         13    1    5    5    0    0  0.12632854246E+02 -0.13641433721E+03 -0.28514317349E+03  0.31634647113E+03  0.00000000000E+00 0. -1.
        -13    1    5    5    0    0 -0.44360678294E+02 -0.30005463970E+02 -0.73949001769E+02  0.91305270984E+02  0.00000000000E+00 0.  1.
          2    1    6    6  503    0  0.79709244308E+03  0.23998885753E+03 -0.18000945663E+03  0.85167741489E+03  0.00000000000E+00 0. -1.
         -2    1    6    6    0  503  0.10021895478E+03  0.41070501770E+02  0.83864905985E+01  0.10863221546E+03  0.00000000000E+00 0.  1.
<mgrwt>
<rscale>  0 0.22455007E+04</rscale>
<asrwt>0</asrwt>
<pdfrwt beam="1">  1        2 0.33923130E+00 0.22455007E+04</pdfrwt>
<pdfrwt beam="2">  1       -1 0.87951606E-01 0.22455007E+04</pdfrwt>
<totfact> 0.67556413E+00</totfact>
</mgrwt>
</event>
<event>
12    7  0.1546317E-007  0.1059699E+04  0.7818608E-02  0.9245387E-01
          2   -1    0    0  501    0  0.00000000000E+00  0.00000000000E+00  0.20975195601E+04  0.20975195601E+04  0.00000000000E+00 0. -1.
         -1   -1    0    0    0  501 -0.00000000000E+00 -0.00000000000E+00 -0.13384415659E+03  0.13384415659E+03  0.00000000000E+00 0.  1.
         24    2    1    2    0    0 -0.90225156584E+02  0.14906795115E+02  0.46596171094E+03  0.48213561667E+03  0.83496379480E+02 0.  0.
        254    2    1    2    0    0  0.90225156584E+02 -0.14906795115E+02  0.14977136926E+04  0.17492281000E+04  0.89904941442E+03 0.  0.
         23    2    4    4    0    0  0.41966414632E+03  0.88144688188E+02  0.39567465005E+03  0.59073559822E+03  0.92318126861E+02 0.  0.
         23    2    4    4    0    0 -0.32943898974E+03 -0.10305148330E+03  0.11020390425E+04  0.11584925018E+04  0.92006354729E+02 0.  0.
          4    1    3    3  502    0 -0.88947841048E+02  0.39262236997E+02  0.40428304052E+03  0.41581007507E+03  0.00000000000E+00 0. -1.
         -3    1    3    3    0  502 -0.12773155359E+01 -0.24355441882E+02  0.61678670415E+02  0.66325541599E+02  0.00000000000E+00 0.  1.
         13    1    5    5    0    0  0.30677490449E+03  0.10496286317E+03  0.28333868902E+03  0.43059128807E+03  0.00000000000E+00 0. -1.
        -13    1    5    5    0    0  0.11288924184E+03 -0.16818174983E+02  0.11233596103E+03  0.16014431015E+03  0.00000000000E+00 0.  1.
          2    1    6    6  503    0 -0.23503483809E+02 -0.36459074474E+02  0.11118722391E+03  0.11934938887E+03  0.00000000000E+00 0. -1.
         -2    1    6    6    0  503 -0.30593550593E+03 -0.66592408829E+02  0.99085181863E+03  0.10391431129E+04  0.00000000000E+00 0.  1.
<mgrwt>
<rscale>  0 0.10596995E+04</rscale>
<asrwt>0</asrwt>
<pdfrwt beam="1">  1        2 0.32269529E+00 0.10596995E+04</pdfrwt>
<pdfrwt beam="2">  1       -1 0.20591410E-01 0.10596995E+04</pdfrwt>
<totfact> 0.13065781E+02</totfact>
</mgrwt>
</event>
<event>
12    7  0.1546317E-007  0.1951878E+04  0.7818608E-02  0.8629456E-01
         -1   -1    0    0    0  501 -0.00000000000E+00  0.00000000000E+00  0.91448028456E+03  0.91448028456E+03  0.00000000000E+00 0.  1.
          2   -1    0    0  501    0  0.00000000000E+00 -0.00000000000E+00 -0.10415283292E+04  0.10415283292E+04  0.00000000000E+00 0. -1.
         24    2    1    2    0    0  0.53730357420E+03  0.48800177464E+03 -0.30053443758E+03  0.78978709329E+03  0.81251717908E+02 0.  0.
        254    2    1    2    0    0 -0.53730357420E+03 -0.48800177464E+03  0.17348639296E+03  0.11662215205E+04  0.89617757355E+03 0.  0.
         23    2    4    4    0    0  0.24235864148E+03 -0.11984907018E+03  0.25263924289E+02  0.28683396162E+03  0.92379353456E+02 0.  0.
         23    2    4    4    0    0 -0.77966221568E+03 -0.36815270445E+03  0.14822246867E+03  0.87938755883E+03  0.89123476404E+02 0.  0.
          2    1    3    3  502    0  0.33652885760E+03  0.30185248759E+03 -0.22921290492E+03  0.50685811826E+03  0.00000000000E+00 0. -1.
         -1    1    3    3    0  502  0.20077471660E+03  0.18614928705E+03 -0.71321532665E+02  0.28292897503E+03  0.00000000000E+00 0.  1.
         13    1    5    5    0    0  0.22683294085E+03 -0.13305946512E+03  0.32976140844E+02  0.26503854470E+03  0.00000000000E+00 0. -1.
        -13    1    5    5    0    0  0.15525700632E+02  0.13210394938E+02 -0.77122165550E+01  0.21795416921E+02  0.00000000000E+00 0.  1.
          2    1    6    6  503    0 -0.51884207825E+03 -0.28287623605E+03  0.77431946521E+02  0.59599645421E+03  0.00000000000E+00 0. -1.
         -2    1    6    6    0  503 -0.26082013743E+03 -0.85276468404E+02  0.70790522147E+02  0.28339110462E+03  0.00000000000E+00 0.  1.
<mgrwt>
<rscale>  0 0.19518782E+04</rscale>
<asrwt>0</asrwt>
<pdfrwt beam="1">  1        2 0.16023513E+00 0.19518782E+04</pdfrwt>
<pdfrwt beam="2">  1       -1 0.14068928E+00 0.19518782E+04</pdfrwt>
<totfact> 0.10433111E+01</totfact>
</mgrwt>
</event>
<event>
12    7  0.1546317E-007  0.2655382E+04  0.7818608E-02  0.8349629E-01
         -1   -1    0    0    0  501 -0.00000000000E+00  0.00000000000E+00  0.12837408826E+04  0.12837408826E+04  0.00000000000E+00 0.  1.
          2   -1    0    0  501    0  0.00000000000E+00 -0.00000000000E+00 -0.13731456186E+04  0.13731456186E+04  0.00000000000E+00 0. -1.
         24    2    1    2    0    0 -0.77763908525E+02 -0.55385297302E+03 -0.10766004117E+04  0.12158358914E+04  0.79925759243E+02 0.  0.
        254    2    1    2    0    0  0.77763908525E+02  0.55385297302E+03  0.98719567578E+03  0.14410506099E+04  0.88840937453E+03 0.  0.
         23    2    4    4    0    0  0.52019131444E+02  0.12659364017E+03 -0.14972065137E+03  0.22241668861E+03  0.91219351869E+02 0.  0.
         23    2    4    4    0    0  0.25744777082E+02  0.42725933285E+03  0.11369163272E+04  0.12186339213E+04  0.96314942079E+02 0.  0.
          2    1    3    3  502    0 -0.86443136514E+02 -0.46459728732E+03 -0.94517764778E+03  0.10567326252E+04  0.00000000000E+00 0. -1.
         -1    1    3    3    0  502  0.86792279884E+01 -0.89255685705E+02 -0.13142276396E+03  0.15910326620E+03  0.00000000000E+00 0.  1.
         13    1    5    5    0    0  0.59502262963E+02  0.13171165381E+03 -0.15499805614E+03  0.21192658270E+03  0.00000000000E+00 0.  1.
        -13    1    5    5    0    0 -0.74831315194E+01 -0.51180136352E+01  0.52774047682E+01  0.10490105910E+02  0.00000000000E+00 0. -1.
          2    1    6    6  503    0 -0.27161698652E+02  0.43063691433E+02  0.13097536759E+03  0.14052325896E+03  0.00000000000E+00 0. -1.
         -2    1    6    6    0  503  0.52906475734E+02  0.38419564142E+03  0.10059409596E+04  0.10781106623E+04  0.00000000000E+00 0.  1.
<mgrwt>
<rscale>  0 0.26553818E+04</rscale>
<asrwt>0</asrwt>
<pdfrwt beam="1">  1        2 0.21125317E+00 0.26553818E+04</pdfrwt>
<pdfrwt beam="2">  1       -1 0.19749860E+00 0.26553818E+04</pdfrwt>
<totfact> 0.23556492E+00</totfact>
</mgrwt>
</event>
<event>
12    7  0.1546317E-007  0.1996547E+04  0.7818608E-02  0.8608237E-01
          2   -1    0    0  501    0  0.00000000000E+00  0.00000000000E+00  0.62163761345E+03  0.62163761345E+03  0.00000000000E+00 0. -1.
         -1   -1    0    0    0  501 -0.00000000000E+00 -0.00000000000E+00 -0.16031042005E+04  0.16031042005E+04  0.00000000000E+00 0.  1.
         24    2    1    2    0    0 -0.38658082540E+03  0.59245273663E+03  0.48230167888E+02  0.71343813345E+03  0.78884988775E+02 0.  0.
        254    2    1    2    0    0  0.38658082540E+03 -0.59245273663E+03 -0.10296967549E+04  0.15113036805E+04  0.85048129190E+03 0.  0.
         23    2    4    4    0    0 -0.17429564339E+03 -0.28157674689E+03 -0.64998742688E+02  0.34916192463E+03  0.89581121734E+02 0.  0.
         23    2    4    4    0    0  0.56087646879E+03 -0.31087598974E+03 -0.96469801225E+03  0.11621417559E+04  0.93300116107E+02 0.  0.
          2    1    3    3  502    0 -0.35090601029E+03  0.50913874538E+03  0.63228974020E+02  0.62157476885E+03  0.00000000000E+00 0. -1.
         -1    1    3    3    0  502 -0.35674815106E+02  0.83313991246E+02 -0.14998806132E+02  0.91863364599E+02  0.00000000000E+00 0.  1.
         13    1    5    5    0    0 -0.67086868938E+02 -0.18115194896E+03 -0.14071715583E+02  0.19368709243E+03  0.00000000000E+00 0. -1.
        -13    1    5    5    0    0 -0.10720877445E+03 -0.10042479793E+03 -0.50927027104E+02  0.15547483220E+03  0.00000000000E+00 0.  1.
          4    1    6    6  503    0  0.51800314529E+03 -0.29221748595E+03 -0.93002330279E+03  0.11039300980E+04  0.00000000000E+00 0.  1.
         -4    1    6    6    0  503  0.42873323496E+02 -0.18658503797E+02 -0.34674709458E+02  0.58211657832E+02  0.00000000000E+00 0. -1.
<mgrwt>
<rscale>  0 0.19965469E+04</rscale>
<asrwt>0</asrwt>
<pdfrwt beam="1">  1        2 0.95636558E-01 0.19965469E+04</pdfrwt>
<pdfrwt beam="2">  1       -1 0.24663141E+00 0.19965469E+04</pdfrwt>
<totfact> 0.36972207E+00</totfact>
</mgrwt>
</event>
<event>
12    7  0.1546317E-007  0.1117843E+04  0.7818608E-02  0.9187973E-01
          2   -1    0    0  501    0  0.00000000000E+00  0.00000000000E+00  0.14505935193E+04  0.14505935193E+04  0.00000000000E+00 0. -1.
         -1   -1    0    0    0  501 -0.00000000000E+00 -0.00000000000E+00 -0.21535555169E+03  0.21535555169E+03  0.00000000000E+00 0.  1.
         24    2    1    2    0    0  0.57473742222E+02  0.68277022225E+02 -0.15395522390E+02  0.12068635725E+03  0.79769617703E+02 0.  0.
        254    2    1    2    0    0 -0.57473742222E+02 -0.68277022225E+02  0.12506334900E+04  0.15452627137E+04  0.90320969068E+03 0.  0.
         23    2    4    4    0    0  0.22121840666E+03  0.93045984319E+02  0.67138604806E+01  0.25718837636E+03  0.92226061208E+02 0.  0.
         23    2    4    4    0    0 -0.27869214889E+03 -0.16132300654E+03  0.12439196295E+04  0.12880743373E+04  0.90027926919E+02 0.  0.
          4    1    3    3  502    0  0.43251944234E+01  0.10995919287E+02  0.28647487762E+02  0.30988644740E+02  0.00000000000E+00 0. -1.
         -3    1    3    3    0  502  0.53148547799E+02  0.57281102937E+02 -0.44043010152E+02  0.89697712513E+02  0.00000000000E+00 0.  1.
         13    1    5    5    0    0  0.76973360864E+01  0.27666535302E+02  0.17486456688E+02  0.33622348608E+02  0.00000000000E+00 0.  1.
        -13    1    5    5    0    0  0.21352107058E+03  0.65379449016E+02 -0.10772596207E+02  0.22356602775E+03  0.00000000000E+00 0. -1.
          3    1    6    6  503    0 -0.91163161755E+02 -0.99936143484E+02  0.57224607038E+03  0.58801659832E+03  0.00000000000E+00 0. -1.
         -3    1    6    6    0  503 -0.18752898713E+03 -0.61386863060E+02  0.67167355910E+03  0.70005773902E+03  0.00000000000E+00 0.  1.
<mgrwt>
<rscale>  0 0.11178432E+04</rscale>
<asrwt>0</asrwt>
<pdfrwt beam="1">  1        2 0.22316823E+00 0.11178432E+04</pdfrwt>
<pdfrwt beam="2">  1       -1 0.33131624E-01 0.11178432E+04</pdfrwt>
<totfact> 0.13087560E+02</totfact>
</mgrwt>
</event>
<event>
12    7  0.1546317E-007  0.1937659E+04  0.7818608E-02  0.8636335E-01
          2   -1    0    0  501    0  0.00000000000E+00  0.00000000000E+00  0.61780121515E+03  0.61780121515E+03  0.00000000000E+00 0. -1.
         -1   -1    0    0    0  501 -0.00000000000E+00 -0.00000000000E+00 -0.15193087362E+04  0.15193087362E+04  0.00000000000E+00 0.  1.
         24    2    1    2    0    0  0.84819765019E+02 -0.72134444612E+03 -0.11907773069E+03  0.74030944655E+03  0.79664096207E+02 0.  0.
        254    2    1    2    0    0 -0.84819765019E+02  0.72134444612E+03 -0.78242979034E+03  0.13968005048E+04  0.90073473944E+03 0.  0.
         23    2    4    4    0    0  0.48759758475E+02  0.37147395453E+03 -0.91210851034E+03  0.99025465131E+03  0.91060017890E+02 0.  0.
         23    2    4    4    0    0 -0.13357952349E+03  0.34987049158E+03  0.12967872000E+03  0.40654585346E+03  0.90609660464E+02 0.  0.
          2    1    3    3  502    0  0.81684467611E+02 -0.61617175130E+03 -0.74407321801E+02  0.62600034256E+03  0.00000000000E+00 0. -1.
         -1    1    3    3    0  502  0.31352974076E+01 -0.10517269482E+03 -0.44670408884E+02  0.11430910399E+03  0.00000000000E+00 0.  1.
         13    1    5    5    0    0  0.35166238896E+02  0.31416009359E+03 -0.83763656777E+03  0.89530343931E+03  0.00000000000E+00 0. -1.
        -13    1    5    5    0    0  0.13593519578E+02  0.57313860946E+02 -0.74471942568E+02  0.94951212003E+02  0.00000000000E+00 0.  1.
          4    1    6    6  503    0 -0.85297232525E+02  0.31233930459E+03  0.11558024688E+03  0.34378809249E+03  0.00000000000E+00 0. -1.
         -4    1    6    6    0  503 -0.48282290968E+02  0.37531186997E+02  0.14098473117E+02  0.62757760976E+02  0.00000000000E+00 0.  1.
<mgrwt>
<rscale>  0 0.19376592E+04</rscale>
<asrwt>0</asrwt>
<pdfrwt beam="1">  1        2 0.95046343E-01 0.19376592E+04</pdfrwt>
<pdfrwt beam="2">  1       -1 0.23373980E+00 0.19376592E+04</pdfrwt>
<totfact> 0.45498880E+00</totfact>
</mgrwt>
</event>
<event>
12    7  0.1546317E-007  0.1981455E+04  0.7818608E-02  0.8615341E-01
          2   -1    0    0  501    0  0.00000000000E+00  0.00000000000E+00  0.35750199522E+04  0.35750199522E+04  0.00000000000E+00 0. -1.
         -1   -1    0    0    0  501 -0.00000000000E+00 -0.00000000000E+00 -0.27455525666E+03  0.27455525666E+03  0.00000000000E+00 0.  1.
         24    2    1    2    0    0 -0.41968430634E+03 -0.55368164477E+03  0.20225078873E+04  0.21398757093E+04  0.76365020029E+02 0.  0.
        254    2    1    2    0    0  0.41968430634E+03  0.55368164477E+03  0.12779568082E+04  0.17096994996E+04  0.89844337293E+03 0.  0.
         23    2    4    4    0    0 -0.47111972912E+02  0.10543832886E+03  0.98209065814E+03  0.99297424236E+03  0.90327216320E+02 0.  0.
         23    2    4    4    0    0  0.46679627926E+03  0.44824331591E+03  0.29586615011E+03  0.71672525722E+03  0.85659085720E+02 0.  0.
          4    1    3    3  502    0 -0.11957933079E+03 -0.13379528707E+03  0.43420656036E+03  0.46982521458E+03  0.00000000000E+00 0. -1.
         -3    1    3    3    0  502 -0.30010497555E+03 -0.41988635771E+03  0.15883013270E+04  0.16700504948E+04  0.00000000000E+00 0.  1.
         13    1    5    5    0    0  0.17767975344E+02  0.70540576253E+02  0.46198750007E+03  0.46767950999E+03  0.00000000000E+00 0. -1.
        -13    1    5    5    0    0 -0.64879948257E+02  0.34897752606E+02  0.52010315807E+03  0.52529473237E+03  0.00000000000E+00 0.  1.
          2    1    6    6  503    0  0.32522068337E+03  0.35467194381E+03  0.19432603054E+03  0.51896366613E+03  0.00000000000E+00 0. -1.
         -2    1    6    6    0  503  0.14157559588E+03  0.93571372103E+02  0.10154011957E+03  0.19776159109E+03  0.00000000000E+00 0.  1.
<mgrwt>
<rscale>  0 0.19814545E+04</rscale>
<asrwt>0</asrwt>
<pdfrwt beam="1">  1        2 0.55000304E+00 0.19814545E+04</pdfrwt>
<pdfrwt beam="2">  1       -1 0.42239273E-01 0.19814545E+04</pdfrwt>
<totfact> 0.42253039E+00</totfact>
</mgrwt>
</event>
<event>
12    7  0.1546317E-007  0.2164034E+04  0.7818608E-02  0.8533549E-01
         -1   -1    0    0    0  501 -0.00000000000E+00  0.00000000000E+00  0.11987653252E+04  0.11987653252E+04  0.00000000000E+00 0.  1.
          2   -1    0    0  501    0  0.00000000000E+00 -0.00000000000E+00 -0.97663922307E+03  0.97663922307E+03  0.00000000000E+00 0. -1.
         24    2    1    2    0    0 -0.36652444613E+03 -0.65528079199E+02 -0.72698716921E+03  0.82062160971E+03  0.79217317264E+02 0.  0.
        254    2    1    2    0    0  0.36652444613E+03  0.65528079199E+02  0.94911327135E+03  0.13547829386E+04  0.89218087293E+03 0.  0.
         23    2    4    4    0    0 -0.17043192635E+03 -0.51069303028E+02  0.72729498031E+03  0.75538473533E+03  0.99964967692E+02 0.  0.
         23    2    4    4    0    0  0.53695637248E+03  0.11659738223E+03  0.22181829104E+03  0.59939820324E+03  0.90320298484E+02 0.  0.
          2    1    3    3  502    0 -0.73809614343E+02 -0.76632733319E+01 -0.22195984832E+03  0.23403580750E+03  0.00000000000E+00 0. -1.
         -1    1    3    3    0  502 -0.29271483178E+03 -0.57864805867E+02 -0.50502732089E+03  0.58658580220E+03  0.00000000000E+00 0.  1.
         13    1    5    5    0    0 -0.21973802089E+01  0.61199084002E+01  0.17686882959E+03  0.17698831780E+03  0.00000000000E+00 0. -1.
        -13    1    5    5    0    0 -0.16823454614E+03 -0.57189211428E+02  0.55042615072E+03  0.57839641753E+03  0.00000000000E+00 0.  1.
          4    1    6    6  503    0  0.27898318083E+03  0.16419292445E+02  0.97128239647E+02  0.29586331859E+03  0.00000000000E+00 0. -1.
         -4    1    6    6    0  503  0.25797319164E+03  0.10017808978E+03  0.12469005139E+03  0.30353488464E+03  0.00000000000E+00 0.  1.
<mgrwt>
<rscale>  0 0.21640344E+04</rscale>
<asrwt>0</asrwt>
<pdfrwt beam="1">  1        2 0.15025219E+00 0.21640344E+04</pdfrwt>
<pdfrwt beam="2">  1       -1 0.18442543E+00 0.21640344E+04</pdfrwt>
<totfact> 0.52762041E+00</totfact>
</mgrwt>
</event>
<event>
12    7  0.1546317E-007  0.1419789E+04  0.7818608E-02  0.8939617E-01
          2   -1    0    0  501    0  0.00000000000E+00  0.00000000000E+00  0.26030102852E+04  0.26030102852E+04  0.00000000000E+00 0. -1.
         -1   -1    0    0    0  501 -0.00000000000E+00 -0.00000000000E+00 -0.19360286804E+03  0.19360286804E+03  0.00000000000E+00 0.  1.
         24    2    1    2    0    0  0.17574326434E+03 -0.91567493253E+02  0.14588291633E+04  0.14742661547E+04  0.77510427268E+02 0.  0.
        254    2    1    2    0    0 -0.17574326434E+03  0.91567493253E+02  0.95057825382E+03  0.13223469985E+04  0.89762590600E+03 0.  0.
         23    2    4    4    0    0 -0.21560073388E+03  0.47057958263E+03  0.56996642165E+03  0.77560360745E+03  0.93650488731E+02 0.  0.
         23    2    4    4    0    0  0.39857469546E+02 -0.37901208938E+03  0.38061183217E+03  0.54674339108E+03  0.93937144578E+02 0.  0.
          4    1    3    3  502    0  0.15548517402E+03 -0.10075663835E+03  0.11697235814E+04  0.11843060400E+04  0.00000000000E+00 0. -1.
         -3    1    3    3    0  502  0.20258090319E+02  0.91891451001E+01  0.28910558192E+03  0.28996011469E+03  0.00000000000E+00 0.  1.
         13    1    5    5    0    0 -0.20279817316E+03  0.40286872872E+03  0.44921270548E+03  0.63657078662E+03  0.00000000000E+00 0.  1.
        -13    1    5    5    0    0 -0.12802560728E+02  0.67710853915E+02  0.12075371617E+03  0.13903282083E+03  0.00000000000E+00 0. -1.
          2    1    6    6  503    0  0.38503178979E+01 -0.21087670754E+03  0.14878869684E+03  0.25811215981E+03  0.00000000000E+00 0. -1.
         -2    1    6    6    0  503  0.36007151648E+02 -0.16813538184E+03  0.23182313533E+03  0.28863123128E+03  0.00000000000E+00 0.  1.
<mgrwt>
<rscale>  0 0.14197891E+04</rscale>
<asrwt>0</asrwt>
<pdfrwt beam="1">  1        2 0.40046310E+00 0.14197891E+04</pdfrwt>
<pdfrwt beam="2">  1       -1 0.29785058E-01 0.14197891E+04</pdfrwt>
<totfact> 0.34819785E+01</totfact>
</mgrwt>
</event>
<event>
12    7  0.1546317E-007  0.1816062E+04  0.7818608E-02  0.8697804E-01
          2   -1    0    0  501    0  0.00000000000E+00  0.00000000000E+00  0.17483837277E+04  0.17483837277E+04  0.00000000000E+00 0. -1.
         -1   -1    0    0    0  501 -0.00000000000E+00 -0.00000000000E+00 -0.47159026428E+03  0.47159026428E+03  0.00000000000E+00 0.  1.
         24    2    1    2    0    0  0.13080187264E+03 -0.68377037643E+03  0.40421018407E+03  0.80774260438E+03  0.66416748300E+02 0.  0.
        254    2    1    2    0    0 -0.13080187264E+03  0.68377037643E+03  0.87258327939E+03  0.14122313876E+04  0.86506927767E+03 0.  0.
         23    2    4    4    0    0  0.24922873824E+03  0.66776860862E+03  0.54167056669E+03  0.89982593399E+03  0.90828575028E+02 0.  0.
         23    2    4    4    0    0 -0.38003061088E+03  0.16001767810E+02  0.33091271270E+03  0.51240545364E+03  0.91524880313E+02 0.  0.
          2    1    3    3  502    0 -0.78434025921E+01 -0.30149345678E+02  0.16993571969E+02  0.35486384675E+02  0.00000000000E+00 0. -1.
         -1    1    3    3    0  502  0.13864527523E+03 -0.65362103075E+03  0.38721661210E+03  0.77225621970E+03  0.00000000000E+00 0.  1.
         13    1    5    5    0    0  0.71769629580E+02  0.17589144889E+03  0.96443333219E+02  0.21304928549E+03  0.00000000000E+00 0.  1.
        -13    1    5    5    0    0  0.17745910866E+03  0.49187715973E+03  0.44522723347E+03  0.68677664851E+03  0.00000000000E+00 0. -1.
          3    1    6    6  503    0 -0.37726261830E+03  0.20173932850E+02  0.33575804088E+03  0.50543796133E+03  0.00000000000E+00 0. -1.
         -3    1    6    6    0  503 -0.27679925761E+01 -0.41721650400E+01 -0.48453281770E+01  0.69674923154E+01  0.00000000000E+00 0.  1.
<mgrwt>
<rscale>  0 0.18160625E+04</rscale>
<asrwt>0</asrwt>
<pdfrwt beam="1">  1        2 0.26898211E+00 0.18160625E+04</pdfrwt>
<pdfrwt beam="2">  1       -1 0.72552349E-01 0.18160625E+04</pdfrwt>
<totfact> 0.18966060E+01</totfact>
</mgrwt>
</event>
<event>
12    7  0.1546317E-007  0.1310106E+04  0.7818608E-02  0.9021589E-01
         -1   -1    0    0    0  501 -0.00000000000E+00  0.00000000000E+00  0.33155412059E+03  0.33155412059E+03  0.00000000000E+00 0.  1.
          2   -1    0    0  501    0  0.00000000000E+00 -0.00000000000E+00 -0.12941912986E+04  0.12941912986E+04  0.00000000000E+00 0. -1.
         24    2    1    2    0    0  0.63158273777E+02  0.31464255511E+02  0.13268807314E+03  0.17058005816E+03  0.80699842415E+02 0.  0.
        254    2    1    2    0    0 -0.63158273777E+02 -0.31464255511E+02 -0.10953252511E+04  0.14551653610E+04  0.95540036381E+03 0.  0.
         23    2    4    4    0    0 -0.43282461268E+03  0.10203056739E+03 -0.24598915529E+03  0.51471643557E+03  0.81700443718E+02 0.  0.
         23    2    4    4    0    0  0.36966633890E+03 -0.13349482290E+03 -0.84933609585E+03  0.94044892544E+03  0.92727060703E+02 0.  0.
          2    1    3    3  502    0  0.40378513455E+02 -0.18406563797E+02  0.28191899118E+02  0.52573844405E+02  0.00000000000E+00 0. -1.
         -1    1    3    3    0  502  0.22779760322E+02  0.49870819307E+02  0.10449617403E+03  0.11800621375E+03  0.00000000000E+00 0.  1.
         13    1    5    5    0    0 -0.25010582255E+03  0.35541158536E+02 -0.10052176411E+03  0.27188365431E+03  0.00000000000E+00 0. -1.
        -13    1    5    5    0    0 -0.18271879013E+03  0.66489408856E+02 -0.14546739118E+03  0.24283278126E+03  0.00000000000E+00 0.  1.
          3    1    6    6  503    0  0.36094678383E+03 -0.13145860657E+03 -0.84856127205E+03  0.93146131344E+03  0.00000000000E+00 0. -1.
         -3    1    6    6    0  503  0.87195550696E+01 -0.20362163348E+01 -0.77482379522E+00  0.89876120014E+01  0.00000000000E+00 0.  1.
<mgrwt>
<rscale>  0 0.13101060E+04</rscale>
<asrwt>0</asrwt>
<pdfrwt beam="1">  1        2 0.19910635E+00 0.13101060E+04</pdfrwt>
<pdfrwt beam="2">  1       -1 0.51008326E-01 0.13101060E+04</pdfrwt>
<totfact> 0.71856803E+01</totfact>
</mgrwt>
</event>
<event>
12    7  0.1546317E-007  0.1229705E+04  0.7818608E-02  0.9087246E-01
         -1   -1    0    0    0  501 -0.00000000000E+00  0.00000000000E+00  0.59392594915E+03  0.59392594915E+03  0.00000000000E+00 0.  1.
          2   -1    0    0  501    0  0.00000000000E+00 -0.00000000000E+00 -0.63651616938E+03  0.63651616938E+03  0.00000000000E+00 0. -1.
         24    2    1    2    0    0 -0.21300735703E+03 -0.38875520896E+02 -0.21205101002E+03  0.31327495341E+03  0.79322917940E+02 0.  0.
        254    2    1    2    0    0  0.21300735703E+03  0.38875520896E+02  0.16946078979E+03  0.91716716511E+03  0.87498297652E+03 0.  0.
         23    2    4    4    0    0  0.48658957489E+03 -0.11397110413E+03  0.27173085757E+03  0.57627293000E+03  0.92162920579E+02 0.  0.
         23    2    4    4    0    0 -0.27358221785E+03  0.15284662503E+03 -0.10227006778E+03  0.34089423511E+03  0.86835430892E+02 0.  0.
          4    1    3    3  502    0 -0.17328665779E+03 -0.34641563879E+02 -0.20828808257E+03  0.27315239164E+03  0.00000000000E+00 0. -1.
         -3    1    3    3    0  502 -0.39720699246E+02 -0.42339570170E+01 -0.37629274487E+01  0.40122561778E+02  0.00000000000E+00 0.  1.
         13    1    5    5    0    0  0.40411241118E+03 -0.10740603989E+03  0.26082045043E+03  0.49281863361E+03  0.00000000000E+00 0. -1.
        -13    1    5    5    0    0  0.82477163709E+02 -0.65650642405E+01  0.10910407146E+02  0.83454296391E+02  0.00000000000E+00 0.  1.
          1    1    6    6  503    0 -0.27486867981E+03  0.14667718968E+03 -0.11046222460E+03  0.33055845501E+03  0.00000000000E+00 0. -1.
         -1    1    6    6    0  503  0.12864619615E+01  0.61694353525E+01  0.81921568177E+01  0.10335780100E+02  0.00000000000E+00 0.  1.
<mgrwt>
<rscale>  0 0.12297048E+04</rscale>
<asrwt>0</asrwt>
<pdfrwt beam="1">  1        2 0.97925565E-01 0.12297048E+04</pdfrwt>
<pdfrwt beam="2">  1       -1 0.91373223E-01 0.12297048E+04</pdfrwt>
<totfact> 0.60682780E+01</totfact>
</mgrwt>
</event>
<event>
12    7  0.1546317E-007  0.1529256E+04  0.7818608E-02  0.8865228E-01
         -1   -1    0    0    0  501 -0.00000000000E+00  0.00000000000E+00  0.39119131025E+03  0.39119131025E+03  0.00000000000E+00 0.  1.
          2   -1    0    0  501    0  0.00000000000E+00 -0.00000000000E+00 -0.14945525948E+04  0.14945525948E+04  0.00000000000E+00 0. -1.
         24    2    1    2    0    0  0.62481848808E+02  0.15000532021E+03 -0.94474880188E+03  0.96232679203E+03  0.84362186343E+02 0.  0.
        254    2    1    2    0    0 -0.62481848808E+02 -0.15000532021E+03 -0.15861248272E+03  0.92341711306E+03  0.89506182328E+03 0.  0.
         23    2    4    4    0    0 -0.20291688910E+02 -0.51200652908E+03 -0.14397803082E+02  0.52085167157E+03  0.92286123470E+02 0.  0.
         23    2    4    4    0    0 -0.42190159898E+02  0.36200120887E+03 -0.14421467963E+03  0.40256544149E+03  0.91848658354E+02 0.  0.
          2    1    3    3  502    0 -0.11036616160E+02  0.80727540520E+02 -0.46071597899E+03  0.46786531822E+03  0.00000000000E+00 0. -1.
         -1    1    3    3    0  502  0.73518464968E+02  0.69277779689E+02 -0.48403282289E+03  0.49446147381E+03  0.00000000000E+00 0.  1.
         13    1    5    5    0    0 -0.14465226871E+02 -0.98979913606E+01 -0.63578160996E+01  0.18644968408E+02  0.00000000000E+00 0. -1.
        -13    1    5    5    0    0 -0.58264620391E+01 -0.50210853772E+03 -0.80399869823E+01  0.50220670316E+03  0.00000000000E+00 0.  1.
          3    1    6    6  503    0 -0.28743942049E+02  0.26556115048E+02 -0.24367517844E+02  0.46100080009E+02  0.00000000000E+00 0. -1.
         -3    1    6    6    0  503 -0.13446217849E+02  0.33544509382E+03 -0.11984716179E+03  0.35646536148E+03  0.00000000000E+00 0.  1.
<mgrwt>
<rscale>  0 0.15292560E+04</rscale>
<asrwt>0</asrwt>
<pdfrwt beam="1">  1        2 0.22993116E+00 0.15292560E+04</pdfrwt>
<pdfrwt beam="2">  1       -1 0.60183279E-01 0.15292560E+04</pdfrwt>
<totfact> 0.39315835E+01</totfact>
</mgrwt>
</event>
<event>
12    7  0.1546317E-007  0.1716654E+04  0.7818608E-02  0.8751923E-01
         -1   -1    0    0    0  501 -0.00000000000E+00  0.00000000000E+00  0.36508607416E+03  0.36508607416E+03  0.00000000000E+00 0.  1.
          2   -1    0    0  501    0  0.00000000000E+00 -0.00000000000E+00 -0.20179494534E+04  0.20179494534E+04  0.00000000000E+00 0. -1.
         24    2    1    2    0    0  0.36969025106E+03 -0.96615100198E+02 -0.12792417464E+04  0.13375011292E+04  0.80277429381E+02 0.  0.
        254    2    1    2    0    0 -0.36969025106E+03  0.96615100198E+02 -0.37362163281E+03  0.10455343983E+04  0.89863434956E+03 0.  0.
         23    2    4    4    0    0 -0.48102713970E+03  0.40432850063E+03 -0.26296255082E+03  0.68776412323E+03  0.94876448712E+02 0.  0.
         23    2    4    4    0    0  0.11133688865E+03 -0.30771340043E+03 -0.11065908199E+03  0.35777027506E+03  0.93116581290E+02 0.  0.
          2    1    3    3  502    0  0.29991497257E+03 -0.44681212525E+02 -0.10132509876E+04  0.10576497367E+04  0.00000000000E+00 0. -1.
         -1    1    3    3    0  502  0.69775278485E+02 -0.51933887673E+02 -0.26599075877E+03  0.27985139258E+03  0.00000000000E+00 0.  1.
         13    1    5    5    0    0 -0.41320215440E+03  0.30668065417E+03 -0.19154295025E+03  0.54906989158E+03  0.00000000000E+00 0.  1.
        -13    1    5    5    0    0 -0.67824985300E+02  0.97647846458E+02 -0.71419600570E+02  0.13869423166E+03  0.00000000000E+00 0. -1.
          1    1    6    6  503    0  0.20813349044E+02 -0.40267886309E+02  0.16325571360E+02  0.48179066476E+02  0.00000000000E+00 0. -1.
         -1    1    6    6    0  503  0.90523539604E+02 -0.26744551412E+03 -0.12698465335E+03  0.30959120859E+03  0.00000000000E+00 0.  1.
<mgrwt>
<rscale>  0 0.17166540E+04</rscale>
<asrwt>0</asrwt>
<pdfrwt beam="1">  1        2 0.31045377E+00 0.17166540E+04</pdfrwt>
<pdfrwt beam="2">  1       -1 0.56167088E-01 0.17166540E+04</pdfrwt>
<totfact> 0.22667115E+01</totfact>
</mgrwt>
</event>
<event>
12    7  0.1546317E-007  0.1936536E+04  0.7818608E-02  0.8636881E-01
          2   -1    0    0  501    0  0.00000000000E+00  0.00000000000E+00  0.22019875602E+04  0.22019875602E+04  0.00000000000E+00 0. -1.
         -1   -1    0    0    0  501 -0.00000000000E+00 -0.00000000000E+00 -0.42577141106E+03  0.42577141106E+03  0.00000000000E+00 0.  1.
         24    2    1    2    0    0 -0.18561124698E+03 -0.82806544781E+02 -0.29014126553E+03  0.36334639794E+03  0.80809603819E+02 0.  0.
        254    2    1    2    0    0  0.18561124698E+03  0.82806544781E+02  0.20663574147E+04  0.22644125733E+04  0.90356121995E+03 0.  0.
         23    2    4    4    0    0 -0.19764048422E+03  0.48147012555E+01  0.17209214610E+04  0.17345654177E+04  0.89786252737E+02 0.  0.
         23    2    4    4    0    0  0.38325173121E+03  0.77991843526E+02  0.34543595372E+03  0.52984715562E+03  0.91909700615E+02 0.  0.
          4    1    3    3  502    0 -0.16553592620E+02 -0.41961443127E+01 -0.82655507842E+02  0.84401196866E+02  0.00000000000E+00 0. -1.
         -3    1    3    3    0  502 -0.16905765436E+03 -0.78610400469E+02 -0.20748575768E+03  0.27894520107E+03  0.00000000000E+00 0.  1.
         13    1    5    5    0    0 -0.29844141653E+02  0.32930457033E+02  0.47638723170E+03  0.47845572660E+03  0.00000000000E+00 0. -1.
        -13    1    5    5    0    0 -0.16779634257E+03 -0.28115755778E+02  0.12445342293E+04  0.12561096911E+04  0.00000000000E+00 0.  1.
          2    1    6    6  503    0  0.64325685861E+02  0.50198836499E+02  0.72847712366E+02  0.10938238544E+03  0.00000000000E+00 0. -1.
         -2    1    6    6    0  503  0.31892604534E+03  0.27793007027E+02  0.27258824135E+03  0.42046477018E+03  0.00000000000E+00 0.  1.
<mgrwt>
<rscale>  0 0.19365364E+04</rscale>
<asrwt>0</asrwt>
<pdfrwt beam="1">  1        2 0.33876731E+00 0.19365364E+04</pdfrwt>
<pdfrwt beam="2">  1       -1 0.65503295E-01 0.19365364E+04</pdfrwt>
<totfact> 0.12938798E+01</totfact>
</mgrwt>
</event>
<event>
12    7  0.1546317E-007  0.1754496E+04  0.7818608E-02  0.8730879E-01
         -1   -1    0    0    0  501 -0.00000000000E+00  0.00000000000E+00  0.11696932744E+04  0.11696932744E+04  0.00000000000E+00 0.  1.
          2   -1    0    0  501    0  0.00000000000E+00 -0.00000000000E+00 -0.65791969630E+03  0.65791969630E+03  0.00000000000E+00 0. -1.
         24    2    1    2    0    0 -0.43327368783E+03 -0.28182944013E+03 -0.19946656934E+03  0.55973894583E+03  0.79792564176E+02 0.  0.
        254    2    1    2    0    0  0.43327368783E+03  0.28182944013E+03  0.71124014747E+03  0.12678740249E+04  0.91350318759E+03 0.  0.
         23    2    4    4    0    0  0.52439636573E+03  0.77043768753E+02  0.83672887660E+03  0.99431433779E+03  0.87284011669E+02 0.  0.
         23    2    4    4    0    0 -0.91122677895E+02  0.20478567138E+03 -0.12548872914E+03  0.27355968711E+03  0.94058320427E+02 0.  0.
          2    1    3    3  502    0 -0.42034219585E+03 -0.28707420330E+03 -0.19492008869E+03  0.54506238247E+03  0.00000000000E+00 0. -1.
         -3    1    3    3    0  502 -0.12931491988E+02  0.52447631671E+01 -0.45464806550E+01  0.14676563360E+02  0.00000000000E+00 0.  1.
         13    1    5    5    0    0  0.24033165093E+03  0.48818371408E+02  0.46407603488E+03  0.52488960932E+03  0.00000000000E+00 0. -1.
        -13    1    5    5    0    0  0.28406471480E+03  0.28225397345E+02  0.37265284173E+03  0.46942472847E+03  0.00000000000E+00 0.  1.
          1    1    6    6  503    0 -0.43107769426E+02  0.19756881069E+02 -0.47461262110E+02  0.67090875203E+02  0.00000000000E+00 0. -1.
         -1    1    6    6    0  503 -0.48014908469E+02  0.18502879031E+03 -0.78027467026E+02  0.20646881191E+03  0.00000000000E+00 0.  1.
<mgrwt>
<rscale>  0 0.17544962E+04</rscale>
<asrwt>0</asrwt>
<pdfrwt beam="1">  1        2 0.10121842E+00 0.17544962E+04</pdfrwt>
<pdfrwt beam="2">  1       -1 0.17995281E+00 0.17544962E+04</pdfrwt>
<totfact> 0.99809846E+00</totfact>
</mgrwt>
</event>
<event>
12    7  0.1546317E-007  0.1725461E+04  0.7818608E-02  0.8746975E-01
          2   -1    0    0  501    0  0.00000000000E+00  0.00000000000E+00  0.17928286012E+04  0.17928286012E+04  0.00000000000E+00 0. -1.
         -1   -1    0    0    0  501 -0.00000000000E+00 -0.00000000000E+00 -0.41515604566E+03  0.41515604566E+03  0.00000000000E+00 0.  1.
         24    2    1    2    0    0 -0.26443766321E+01 -0.49612624147E+03  0.17882975789E+02  0.50270147157E+03  0.78998281596E+02 0.  0.
        254    2    1    2    0    0  0.26443766321E+01  0.49612624147E+03  0.13597895797E+04  0.17052831753E+04  0.90156240301E+03 0.  0.
         23    2    4    4    0    0  0.37047451191E+03  0.38534822257E+03  0.42034728749E+03  0.68627324651E+03  0.92382412680E+02 0.  0.
         23    2    4    4    0    0 -0.36783013527E+03  0.11077801891E+03  0.93944229225E+03  0.10190099288E+04  0.90877040910E+02 0.  0.
          4    1    3    3  502    0 -0.28332293815E+02 -0.23517992355E+03  0.37198596120E+02  0.23978334151E+03  0.00000000000E+00 0. -1.
         -3    1    3    3    0  502  0.25687917183E+02 -0.26094631792E+03 -0.19315620331E+02  0.26291813006E+03  0.00000000000E+00 0.  1.
         13    1    5    5    0    0  0.28953176565E+03  0.34926190272E+03  0.35821644707E+03  0.57804112566E+03  0.00000000000E+00 0. -1.
        -13    1    5    5    0    0  0.80942746258E+02  0.36086319850E+02  0.62130840423E+02  0.10823212085E+03  0.00000000000E+00 0.  1.
          3    1    6    6  503    0 -0.13944157536E+03 -0.54637064688E+00  0.37226461391E+03  0.39752382850E+03  0.00000000000E+00 0. -1.
         -3    1    6    6    0  503 -0.22838855992E+03  0.11132438955E+03  0.56717767835E+03  0.62148610027E+03  0.00000000000E+00 0.  1.
<mgrwt>
<rscale>  0 0.17254607E+04</rscale>
<asrwt>0</asrwt>
<pdfrwt beam="1">  1        2 0.27581978E+00 0.17254607E+04</pdfrwt>
<pdfrwt beam="2">  1       -1 0.63870162E-01 0.17254607E+04</pdfrwt>
<totfact> 0.23416957E+01</totfact>
</mgrwt>
</event>
<event>
12    7  0.1546317E-007  0.2093446E+04  0.7818608E-02  0.8564136E-01
          2   -1    0    0  501    0  0.00000000000E+00  0.00000000000E+00  0.18203691943E+04  0.18203691943E+04  0.00000000000E+00 0. -1.
         -1   -1    0    0    0  501 -0.00000000000E+00 -0.00000000000E+00 -0.60187178932E+03  0.60187178932E+03  0.00000000000E+00 0.  1.
         24    2    1    2    0    0  0.40097535649E+03  0.67574609352E+03  0.88478602046E+03  0.11859901495E+04  0.79450067544E+02 0.  0.
        254    2    1    2    0    0 -0.40097535649E+03 -0.67574609352E+03  0.33371138448E+03  0.12362508341E+04  0.89416934486E+03 0.  0.
         23    2    4    4    0    0 -0.38278712100E+03 -0.18073178576E+01  0.38922196030E+03  0.55373242675E+03  0.92717957572E+02 0.  0.
         23    2    4    4    0    0 -0.18188235485E+02 -0.67393877566E+03 -0.55510575812E+02  0.68251840736E+03  0.90695463534E+02 0.  0.
          4    1    3    3  502    0  0.35968051832E+03  0.60750783635E+03  0.75507611665E+03  0.10337193954E+04  0.00000000000E+00 0. -1.
         -3    1    3    3    0  502  0.41294838172E+02  0.68238257173E+02  0.12970990382E+03  0.15227075409E+03  0.00000000000E+00 0.  1.
         13    1    5    5    0    0 -0.81302200549E+02 -0.35853810691E+02  0.10995407047E+03  0.14136987362E+03  0.00000000000E+00 0. -1.
        -13    1    5    5    0    0 -0.30148492045E+03  0.34046492833E+02  0.27926788982E+03  0.41236255313E+03  0.00000000000E+00 0.  1.
          3    1    6    6  503    0 -0.21490158539E+02 -0.32301728317E+03  0.16965437867E+02  0.32417559782E+03  0.00000000000E+00 0. -1.
         -3    1    6    6    0  503  0.33019230540E+01 -0.35092149249E+03 -0.72476013679E+02  0.35834280954E+03  0.00000000000E+00 0.  1.
<mgrwt>
<rscale>  0 0.20934458E+04</rscale>
<asrwt>0</asrwt>
<pdfrwt beam="1">  1        2 0.28005680E+00 0.20934458E+04</pdfrwt>
<pdfrwt beam="2">  1       -1 0.92595661E-01 0.20934458E+04</pdfrwt>
<totfact> 0.10008991E+01</totfact>
</mgrwt>
</event>
<event>
12    7  0.1546317E-007  0.2456988E+04  0.7818608E-02  0.8418471E-01
          2   -1    0    0  501    0  0.00000000000E+00  0.00000000000E+00  0.17937665949E+04  0.17937665949E+04  0.00000000000E+00 0. -1.
         -1   -1    0    0    0  501 -0.00000000000E+00 -0.00000000000E+00 -0.84135642218E+03  0.84135642218E+03  0.00000000000E+00 0.  1.
         24    2    1    2    0    0  0.44235605202E+03 -0.71924819158E+03  0.10923891607E+04  0.13829615922E+04  0.79195007312E+02 0.  0.
        254    2    1    2    0    0 -0.44235605202E+03  0.71924819158E+03 -0.13997898801E+03  0.12521614249E+04  0.91395693498E+03 0.  0.
         23    2    4    4    0    0 -0.56560758042E+02  0.16849778301E+02 -0.39230106647E+03  0.40677245343E+03  0.89892534411E+02 0.  0.
         23    2    4    4    0    0 -0.38579529398E+03  0.70239841328E+03  0.25232207846E+03  0.84538897143E+03  0.93885791878E+02 0.  0.
          4    1    3    3  502    0  0.41729742098E+03 -0.68468339628E+03  0.10613171039E+04  0.13301588197E+04  0.00000000000E+00 0. -1.
         -3    1    3    3    0  502  0.25058631043E+02 -0.34564795302E+02  0.31072056800E+02  0.52802772444E+02  0.00000000000E+00 0.  1.
         13    1    5    5    0    0 -0.23415776621E+02  0.26430003970E+02 -0.35180177360E+03  0.35356941555E+03  0.00000000000E+00 0. -1.
        -13    1    5    5    0    0 -0.33144981421E+02 -0.95802256690E+01 -0.40499292864E+02  0.53203037881E+02  0.00000000000E+00 0.  1.
          3    1    6    6  503    0 -0.28432104526E+03  0.42887014179E+03  0.14590777057E+03  0.53484309177E+03  0.00000000000E+00 0. -1.
         -3    1    6    6    0  503 -0.10147424871E+03  0.27352827149E+03  0.10641430788E+03  0.31054587967E+03  0.00000000000E+00 0.  1.
<mgrwt>
<rscale>  0 0.24569876E+04</rscale>
<asrwt>0</asrwt>
<pdfrwt beam="1">  1        2 0.27596409E+00 0.24569876E+04</pdfrwt>
<pdfrwt beam="2">  1       -1 0.12943945E+00 0.24569876E+04</pdfrwt>
<totfact> 0.45435480E+00</totfact>
</mgrwt>
</event>
<event>
12    7  0.1546317E-007  0.1564403E+04  0.7818608E-02  0.8842720E-01
         -1   -1    0    0    0  501 -0.00000000000E+00  0.00000000000E+00  0.21772348158E+03  0.21772348158E+03  0.00000000000E+00 0.  1.
          2   -1    0    0  501    0  0.00000000000E+00 -0.00000000000E+00 -0.28101655071E+04  0.28101655071E+04  0.00000000000E+00 0. -1.
         24    2    1    2    0    0 -0.12494493783E+02 -0.63192967971E+02 -0.18328825951E+04  0.18356845914E+04  0.78293348048E+02 0.  0.
        254    2    1    2    0    0  0.12494493783E+02  0.63192967971E+02 -0.75955943048E+03  0.11922043973E+04  0.91666315125E+03 0.  0.
         23    2    4    4    0    0 -0.41721237177E+03  0.48594312918E+02 -0.18252173670E+03  0.46705213388E+03  0.91629367498E+02 0.  0.
         23    2    4    4    0    0  0.42970686555E+03  0.14598655053E+02 -0.57703769378E+03  0.72515226339E+03  0.89510859868E+02 0.  0.
          2    1    3    3  502    0 -0.12445726364E+02 -0.69510935394E+02 -0.89526334136E+03  0.89804405049E+03  0.00000000000E+00 0. -1.
         -1    1    3    3    0  502 -0.48767418752E-01  0.63179674228E+01 -0.93761925371E+03  0.93764054095E+03  0.00000000000E+00 0.  1.
         13    1    5    5    0    0 -0.42064876703E+03  0.49338552992E+02 -0.18556655807E+03  0.46240093587E+03  0.00000000000E+00 0. -1.
        -13    1    5    5    0    0  0.34363952686E+01 -0.74424007376E+00  0.30448213695E+01  0.46511980071E+01  0.00000000000E+00 0.  1.
          2    1    6    6  503    0  0.31119317881E+03 -0.62041178841E+01 -0.35132950693E+03  0.46937416638E+03  0.00000000000E+00 0. -1.
         -2    1    6    6    0  503  0.11851368674E+03  0.20802772937E+02 -0.22570818684E+03  0.25577809701E+03  0.00000000000E+00 0.  1.
<mgrwt>
<rscale>  0 0.15644028E+04</rscale>
<asrwt>0</asrwt>
<pdfrwt beam="1">  1        2 0.43233315E+00 0.15644028E+04</pdfrwt>
<pdfrwt beam="2">  1       -1 0.33495921E-01 0.15644028E+04</pdfrwt>
<totfact> 0.21052070E+01</totfact>
</mgrwt>
</event>
<event>
12    7  0.1546317E-007  0.2143061E+04  0.7818608E-02  0.8542508E-01
         -1   -1    0    0    0  501 -0.00000000000E+00  0.00000000000E+00  0.12106242913E+04  0.12106242913E+04  0.00000000000E+00 0.  1.
          2   -1    0    0  501    0  0.00000000000E+00 -0.00000000000E+00 -0.94841760160E+03  0.94841760160E+03  0.00000000000E+00 0. -1.
         24    2    1    2    0    0 -0.87143743561E+02 -0.25698293429E+03  0.95514963999E+03  0.99607809082E+03  0.78907969663E+02 0.  0.
        254    2    1    2    0    0  0.87143743561E+02  0.25698293429E+03 -0.69294295026E+03  0.11629638021E+04  0.89368932642E+03 0.  0.
         23    2    4    4    0    0  0.76912706890E+02  0.34281465861E+03  0.85639711627E+02  0.37331133561E+03  0.92680841859E+02 0.  0.
         23    2    4    4    0    0  0.10231036671E+02 -0.85831724322E+02 -0.77858266189E+03  0.78965246650E+03  0.99439918781E+02 0.  0.
          4    1    3    3  502    0 -0.15447133129E+02 -0.12343346783E+03  0.53940438304E+03  0.55356257401E+03  0.00000000000E+00 0. -1.
         -3    1    3    3    0  502 -0.71696610432E+02 -0.13354946646E+03  0.41574525695E+03  0.44251551681E+03  0.00000000000E+00 0.  1.
         13    1    5    5    0    0  0.10958092616E+02  0.68711277915E+01  0.21362497462E+02  0.24972955146E+02  0.00000000000E+00 0. -1.
        -13    1    5    5    0    0  0.65954614274E+02  0.33594353082E+03  0.64277214165E+02  0.34833838047E+03  0.00000000000E+00 0.  1.
          2    1    6    6  503    0  0.18674547586E+02 -0.74591636024E+02 -0.26635945490E+03  0.27723637948E+03  0.00000000000E+00 0. -1.
         -2    1    6    6    0  503 -0.84435109149E+01 -0.11240088298E+02 -0.51222320699E+03  0.51241608702E+03  0.00000000000E+00 0.  1.
<mgrwt>
<rscale>  0 0.21430608E+04</rscale>
<asrwt>0</asrwt>
<pdfrwt beam="1">  1        2 0.14591040E+00 0.21430608E+04</pdfrwt>
<pdfrwt beam="2">  1       -1 0.18624989E+00 0.21430608E+04</pdfrwt>
<totfact> 0.53535305E+00</totfact>
</mgrwt>
</event>
<event>
12    7  0.1546317E-007  0.1358730E+04  0.7818608E-02  0.8984246E-01
          2   -1    0    0  501    0  0.00000000000E+00  0.00000000000E+00  0.20086696970E+04  0.20086696970E+04  0.00000000000E+00 0. -1.
         -1   -1    0    0    0  501 -0.00000000000E+00 -0.00000000000E+00 -0.22977242053E+03  0.22977242053E+03  0.00000000000E+00 0.  1.
         24    2    1    2    0    0 -0.37982388844E+03  0.72107738011E+01  0.49322885002E+03  0.62752989709E+03  0.78745741265E+02 0.  0.
        254    2    1    2    0    0  0.37982388844E+03 -0.72107738011E+01  0.12856684264E+04  0.16109122204E+04  0.89318346250E+03 0.  0.
         23    2    4    4    0    0 -0.15867673078E+03  0.17300461806E+03  0.63256577153E+02  0.25995313864E+03  0.92007265870E+02 0.  0.
         23    2    4    4    0    0  0.53850061922E+03 -0.18021539186E+03  0.12224118493E+04  0.13509590818E+04  0.91319258793E+02 0.  0.
          2    1    3    3  502    0 -0.49192315850E+02 -0.24984770767E+02  0.82996506162E+02  0.99662142983E+02  0.00000000000E+00 0. -1.
         -1    1    3    3    0  502 -0.33063157259E+03  0.32195544568E+02  0.41023234385E+03  0.52786775411E+03  0.00000000000E+00 0.  1.
         13    1    5    5    0    0 -0.14822531698E+03  0.16415801392E+03  0.29009131917E+02  0.22306978249E+03  0.00000000000E+00 0. -1.
        -13    1    5    5    0    0 -0.10451413802E+02  0.88466041436E+01  0.34247445236E+02  0.36883356145E+02  0.00000000000E+00 0.  1.
          3    1    6    6  503    0  0.46694555815E+03 -0.13759444456E+03  0.10999967564E+04  0.12028978550E+04  0.00000000000E+00 0. -1.
         -3    1    6    6    0  503  0.71555061070E+02 -0.42620947307E+02  0.12241509286E+03  0.14806122677E+03  0.00000000000E+00 0.  1.
<mgrwt>
<rscale>  0 0.13587301E+04</rscale>
<asrwt>0</asrwt>
<pdfrwt beam="1">  1        2 0.30902610E+00 0.13587301E+04</pdfrwt>
<pdfrwt beam="2">  1       -1 0.35349604E-01 0.13587301E+04</pdfrwt>
<totfact> 0.56046747E+01</totfact>
</mgrwt>
</event>
<event>
12    7  0.1546317E-007  0.1022481E+04  0.7818608E-02  0.9284226E-01
         -1   -1    0    0    0  501 -0.00000000000E+00  0.00000000000E+00  0.73166351518E+03  0.73166351518E+03  0.00000000000E+00 0.  1.
          2   -1    0    0  501    0  0.00000000000E+00 -0.00000000000E+00 -0.35722243242E+03  0.35722243242E+03  0.00000000000E+00 0. -1.
         24    2    1    2    0    0  0.52335321615E+02 -0.79687651372E+02  0.83521310828E+02  0.14942630004E+03  0.79141026722E+02 0.  0.
        254    2    1    2    0    0 -0.52335321615E+02  0.79687651372E+02  0.29091977193E+03  0.93945964757E+03  0.88817847758E+03 0.  0.
         23    2    4    4    0    0  0.79605006209E+02  0.22467878518E+03  0.54702104737E+03  0.60358025823E+03  0.90882277370E+02 0.  0.
         23    2    4    4    0    0 -0.13194032782E+03 -0.14499113381E+03 -0.25610127543E+03  0.33587938933E+03  0.93789241980E+02 0.  0.
          4    1    3    3  502    0  0.47705226059E+02 -0.56460140195E+02  0.13020909799E+02  0.75053848111E+02  0.00000000000E+00 0. -1.
         -3    1    3    3    0  502  0.46300955558E+01 -0.23227511176E+02  0.70500401028E+02  0.74372451926E+02  0.00000000000E+00 0.  1.
         13    1    5    5    0    0  0.86727197858E+02  0.11843410914E+03  0.28083065373E+03  0.31688184096E+03  0.00000000000E+00 0.  1.
        -13    1    5    5    0    0 -0.71221916489E+01  0.10624467605E+03  0.26619039363E+03  0.28669841727E+03  0.00000000000E+00 0. -1.
          2    1    6    6  503    0 -0.14552327310E+03 -0.12202949734E+03 -0.21487805023E+03  0.28677656408E+03  0.00000000000E+00 0. -1.
         -2    1    6    6    0  503  0.13582945277E+02 -0.22961636469E+02 -0.41223225201E+02  0.49102825252E+02  0.00000000000E+00 0.  1.
<mgrwt>
<rscale>  0 0.10224806E+04</rscale>
<asrwt>0</asrwt>
<pdfrwt beam="1">  1        2 0.54957297E-01 0.10224806E+04</pdfrwt>
<pdfrwt beam="2">  1       -1 0.11256362E+00 0.10224806E+04</pdfrwt>
<totfact> 0.74556855E+01</totfact>
</mgrwt>
</event>
<event>
12    7  0.1546317E-007  0.1460522E+04  0.7818608E-02  0.8911138E-01
          2   -1    0    0  501    0  0.00000000000E+00  0.00000000000E+00  0.23692298081E+04  0.23692298081E+04  0.00000000000E+00 0. -1.
         -1   -1    0    0    0  501 -0.00000000000E+00 -0.00000000000E+00 -0.22508620277E+03  0.22508620277E+03  0.00000000000E+00 0.  1.
         24    2    1    2    0    0  0.36514348821E+03  0.26339658773E+03  0.61939614475E+03  0.76977750258E+03  0.78729219122E+02 0.  0.
        254    2    1    2    0    0 -0.36514348821E+03 -0.26339658773E+03  0.15247474605E+04  0.18245385082E+04  0.89519741971E+03 0.  0.
         23    2    4    4    0    0  0.14672595348E+03 -0.20598417191E+03  0.11509246241E+04  0.11818951735E+04  0.91053425477E+02 0.  0.
         23    2    4    4    0    0 -0.51186944168E+03 -0.57412415819E+02  0.37382283641E+03  0.64264333471E+03  0.89109100624E+02 0.  0.
          4    1    3    3  502    0  0.33725265224E+03  0.26530228251E+03  0.58035464135E+03  0.72175907496E+03  0.00000000000E+00 0. -1.
         -1    1    3    3    0  502  0.27890835971E+02 -0.19056947862E+01  0.39041503401E+02  0.48018427625E+02  0.00000000000E+00 0.  1.
         13    1    5    5    0    0  0.10987486842E+03 -0.75809732675E+02  0.56623646248E+03  0.58175882779E+03  0.00000000000E+00 0.  1.
        -13    1    5    5    0    0  0.36851085061E+02 -0.13017443923E+03  0.58468816165E+03  0.60013634573E+03  0.00000000000E+00 0. -1.
          3    1    6    6  503    0 -0.37629404169E+03 -0.37872066539E+02  0.22361338926E+03  0.43935685620E+03  0.00000000000E+00 0. -1.
         -3    1    6    6    0  503 -0.13557539999E+03 -0.19540349280E+02  0.15020944715E+03  0.20328647851E+03  0.00000000000E+00 0.  1.
<mgrwt>
<rscale>  0 0.14605217E+04</rscale>
<asrwt>0</asrwt>
<pdfrwt beam="1">  1        2 0.36449688E+00 0.14605217E+04</pdfrwt>
<pdfrwt beam="2">  1       -1 0.34628648E-01 0.14605217E+04</pdfrwt>
<totfact> 0.36220903E+01</totfact>
</mgrwt>
</event>
<event>
12    7  0.1546317E-007  0.2977842E+04  0.7818608E-02  0.8250087E-01
         -1   -1    0    0    0  501 -0.00000000000E+00  0.00000000000E+00  0.81293335857E+03  0.81293335857E+03  0.00000000000E+00 0.  1.
          2   -1    0    0  501    0  0.00000000000E+00 -0.00000000000E+00 -0.27270196336E+04  0.27270196336E+04  0.00000000000E+00 0. -1.
         24    2    1    2    0    0 -0.85342414783E+03 -0.10288033796E+04 -0.11267828757E+04  0.17500789132E+04  0.79795885755E+02 0.  0.
        254    2    1    2    0    0  0.85342414783E+03  0.10288033796E+04 -0.78730339932E+03  0.17898740790E+04  0.89276727418E+03 0.  0.
         23    2    4    4    0    0 -0.13466975880E+03  0.30495753676E+03 -0.33427952965E+03  0.48073977641E+03  0.90735249558E+02 0.  0.
         23    2    4    4    0    0  0.98809390663E+03  0.72384584289E+03 -0.45302386966E+03  0.13091343025E+04  0.91211967528E+02 0.  0.
          4    1    3    3  502    0 -0.16801530025E+03 -0.18010623544E+03 -0.24440086864E+03  0.34698585238E+03  0.00000000000E+00 0. -1.
         -3    1    3    3    0  502 -0.68540884758E+03 -0.84869714421E+03 -0.88238200705E+03  0.14030930608E+04  0.00000000000E+00 0.  1.
         13    1    5    5    0    0 -0.25651578159E+02  0.71274473340E+01 -0.14333941076E+02  0.30236829104E+02  0.00000000000E+00 0.  1.
        -13    1    5    5    0    0 -0.10901818064E+03  0.29783008942E+03 -0.31994558858E+03  0.45050294730E+03  0.00000000000E+00 0. -1.
          3    1    6    6  503    0  0.94045115538E+03  0.69634026286E+03 -0.45098604672E+03  0.12540839492E+04  0.00000000000E+00 0. -1.
         -3    1    6    6    0  503  0.47642751249E+02  0.27505580027E+02 -0.20378229438E+01  0.55050353328E+02  0.00000000000E+00 0.  1.
<mgrwt>
<rscale>  0 0.29778417E+04</rscale>
<asrwt>0</asrwt>
<pdfrwt beam="1">  1        2 0.41954149E+00 0.29778417E+04</pdfrwt>
<pdfrwt beam="2">  1       -1 0.12506667E+00 0.29778417E+04</pdfrwt>
<totfact> 0.13930342E+00</totfact>
</mgrwt>
</event>
<event>
12    7  0.1546317E-007  0.1945983E+04  0.7818608E-02  0.8632300E-01
         -1   -1    0    0    0  501 -0.00000000000E+00  0.00000000000E+00  0.64798767278E+03  0.64798767278E+03  0.00000000000E+00 0.  1.
          2   -1    0    0  501    0  0.00000000000E+00 -0.00000000000E+00 -0.14610040395E+04  0.14610040395E+04  0.00000000000E+00 0. -1.
         24    2    1    2    0    0  0.27698250877E+03  0.56628514516E+03  0.18078869030E+03  0.66010196044E+03  0.75178932151E+02 0.  0.
        254    2    1    2    0    0 -0.27698250877E+03 -0.56628514516E+03 -0.99380505705E+03  0.14488897519E+04  0.84512416004E+03 0.  0.
         23    2    4    4    0    0 -0.51197781264E+03 -0.54477348529E+03 -0.91021349442E+03  0.11814016859E+04  0.91224487819E+02 0.  0.
         23    2    4    4    0    0  0.23499530387E+03 -0.21511659869E+02 -0.83591562635E+02  0.26748806595E+03  0.94216621333E+02 0.  0.
          4    1    3    3  502    0  0.95686797518E+01  0.71227493651E+02  0.27293824726E+02  0.76875668141E+02  0.00000000000E+00 0. -1.
         -3    1    3    3    0  502  0.26741382902E+03  0.49505765151E+03  0.15349486557E+03  0.58322629230E+03  0.00000000000E+00 0.  1.
         13    1    5    5    0    0 -0.25014373075E+03 -0.24305148193E+03 -0.49158792070E+03  0.60274753644E+03  0.00000000000E+00 0. -1.
        -13    1    5    5    0    0 -0.26183408189E+03 -0.30172200337E+03 -0.41862557372E+03  0.57865414949E+03  0.00000000000E+00 0.  1.
          3    1    6    6  503    0  0.36760760529E+02 -0.40653848134E+02 -0.14611956959E+02  0.56723876533E+02  0.00000000000E+00 0. -1.
         -3    1    6    6    0  503  0.19823454334E+03  0.19142188265E+02 -0.68979605677E+02  0.21076418942E+03  0.00000000000E+00 0.  1.
<mgrwt>
<rscale>  0 0.19459832E+04</rscale>
<asrwt>0</asrwt>
<pdfrwt beam="1">  1        2 0.22476985E+00 0.19459832E+04</pdfrwt>
<pdfrwt beam="2">  1       -1 0.99690411E-01 0.19459832E+04</pdfrwt>
<totfact> 0.13632644E+01</totfact>
</mgrwt>
</event>
<event>
12    7  0.1546317E-007  0.1679645E+04  0.7818608E-02  0.8773060E-01
         -1   -1    0    0    0  501 -0.00000000000E+00  0.00000000000E+00  0.48252665577E+03  0.48252665577E+03  0.00000000000E+00 0.  1.
          2   -1    0    0  501    0  0.00000000000E+00 -0.00000000000E+00 -0.14616840957E+04  0.14616840957E+04  0.00000000000E+00 0. -1.
         24    2    1    2    0    0  0.42914862845E+03 -0.25927109760E+03  0.17766356988E+02  0.50801212405E+03  0.79816210077E+02 0.  0.
        254    2    1    2    0    0 -0.42914862845E+03  0.25927109760E+03 -0.99692379688E+03  0.14361986274E+04  0.90411248921E+03 0.  0.
         23    2    4    4    0    0 -0.33210966389E+03 -0.26361534577E+03 -0.20945772404E+03  0.48156924027E+03  0.90810327803E+02 0.  0.
         23    2    4    4    0    0 -0.97038964556E+02  0.52288644336E+03 -0.78746607284E+03  0.95462938711E+03  0.91584155699E+02 0.  0.
          2    1    3    3  502    0  0.46309221553E+02 -0.41428454811E+02 -0.21587373507E+02  0.65778990292E+02  0.00000000000E+00 0. -1.
         -1    1    3    3    0  502  0.38283940690E+03 -0.21784264278E+03  0.39353730496E+02  0.44223313376E+03  0.00000000000E+00 0.  1.
         13    1    5    5    0    0 -0.19376253932E+03 -0.19821240933E+03 -0.10556958881E+03  0.29660920239E+03  0.00000000000E+00 0. -1.
        -13    1    5    5    0    0 -0.13834712457E+03 -0.65402936433E+02 -0.10388813523E+03  0.18496003788E+03  0.00000000000E+00 0.  1.
          4    1    6    6  503    0  0.12510692123E+02  0.25761099040E+02 -0.62956014035E+02  0.69163656239E+02  0.00000000000E+00 0.  1.
         -4    1    6    6    0  503 -0.10954965668E+03  0.49712534432E+03 -0.72451005880E+03  0.88546573087E+03  0.00000000000E+00 0. -1.
<mgrwt>
<rscale>  0 0.16796447E+04</rscale>
<asrwt>0</asrwt>
<pdfrwt beam="1">  1        2 0.22487447E+00 0.16796447E+04</pdfrwt>
<pdfrwt beam="2">  1       -1 0.74234871E-01 0.16796447E+04</pdfrwt>
<totfact> 0.26474737E+01</totfact>
</mgrwt>
</event>
<event>
12    7  0.1546317E-007  0.1279924E+04  0.7818608E-02  0.9045639E-01
          2   -1    0    0  501    0  0.00000000000E+00  0.00000000000E+00  0.40251701921E+03  0.40251701921E+03  0.00000000000E+00 0. -1.
         -3   -1    0    0    0  501 -0.00000000000E+00 -0.00000000000E+00 -0.10174763344E+04  0.10174763344E+04  0.00000000000E+00 0.  1.
         24    2    1    2    0    0 -0.15397075496E+03 -0.67432929529E+02  0.12482434796E+03  0.23173542733E+03  0.99327725580E+02 0.  0.
        254    2    1    2    0    0  0.15397075496E+03  0.67432929529E+02 -0.73978366317E+03  0.11882579263E+04  0.91456155493E+03 0.  0.
         23    2    4    4    0    0  0.19997079362E+03  0.37929237741E+03 -0.73927383086E+03  0.85945056636E+03  0.90986005292E+02 0.  0.
         23    2    4    4    0    0 -0.46000038667E+02 -0.31185944788E+03 -0.50983231184E+00  0.32880735994E+03  0.93497065375E+02 0.  0.
          2    1    3    3  502    0 -0.80718285849E+02 -0.86227231371E+02  0.89909796214E+02  0.14843971354E+03  0.00000000000E+00 0. -1.
         -1    1    3    3    0  502 -0.73252469108E+02  0.18794301841E+02  0.34914551742E+02  0.83295713789E+02  0.00000000000E+00 0.  1.
         13    1    5    5    0    0  0.11325022285E+03  0.25096898802E+03 -0.54844934485E+03  0.61368373760E+03  0.00000000000E+00 0. -1.
        -13    1    5    5    0    0  0.86720570773E+02  0.12832338939E+03 -0.19082448601E+03  0.24576682876E+03  0.00000000000E+00 0.  1.
          3    1    6    6  503    0 -0.11878929414E+01 -0.45319833885E+02  0.33535946043E+02  0.56391117297E+02  0.00000000000E+00 0. -1.
         -3    1    6    6    0  503 -0.44812145725E+02 -0.26653961399E+03 -0.34045778355E+02  0.27241624264E+03  0.00000000000E+00 0.  1.
<mgrwt>
<rscale>  0 0.12799243E+04</rscale>
<asrwt>0</asrwt>
<pdfrwt beam="1">  1        2 0.61925696E-01 0.12799243E+04</pdfrwt>
<pdfrwt beam="2">  1       -3 0.15653482E+00 0.12799243E+04</pdfrwt>
<totfact> 0.13992946E+01</totfact>
</mgrwt>
</event>
<event>
12    7  0.1546317E-007  0.2539862E+04  0.7818608E-02  0.8388921E-01
          2   -1    0    0  501    0  0.00000000000E+00  0.00000000000E+00  0.10401097627E+04  0.10401097627E+04  0.00000000000E+00 0. -1.
         -1   -1    0    0    0  501 -0.00000000000E+00 -0.00000000000E+00 -0.15505333643E+04  0.15505333643E+04  0.00000000000E+00 0.  1.
         24    2    1    2    0    0  0.82658238903E+03 -0.73961181540E+03 -0.22954524361E+03  0.11359865738E+04  0.86662527383E+02 0.  0.
        254    2    1    2    0    0 -0.82658238903E+03  0.73961181540E+03 -0.28087835793E+03  0.14546565532E+04  0.89825884493E+03 0.  0.
         23    2    4    4    0    0 -0.23388854561E+03 -0.13355536446E+03  0.13736781093E+03  0.31545712447E+03  0.90013303191E+02 0.  0.
         23    2    4    4    0    0 -0.59269384342E+03  0.87316717987E+03 -0.41824616886E+03  0.11391994287E+04  0.95595840188E+02 0.  0.
          4    1    3    3  502    0  0.10368628982E+03 -0.12891081638E+03 -0.19018950568E+02  0.16652497037E+03  0.00000000000E+00 0. -1.
         -3    1    3    3    0  502  0.72289609922E+03 -0.61070099902E+03 -0.21052629304E+03  0.96946160343E+03  0.00000000000E+00 0.  1.
         13    1    5    5    0    0 -0.48125450405E+02  0.84646057909E+01  0.35503507985E+02  0.60400394098E+02  0.00000000000E+00 0.  1.
        -13    1    5    5    0    0 -0.18576309521E+03 -0.14201997025E+03  0.10186430294E+03  0.25505673037E+03  0.00000000000E+00 0. -1.
          4    1    6    6  503    0 -0.58989364565E+03  0.86782457274E+03 -0.42313856289E+03  0.11314328286E+04  0.00000000000E+00 0. -1.
         -4    1    6    6    0  503 -0.28001977747E+01  0.53426071221E+01  0.48923940300E+01  0.77666001432E+01  0.00000000000E+00 0.  1.
<mgrwt>
<rscale>  0 0.25398621E+04</rscale>
<asrwt>0</asrwt>
<pdfrwt beam="1">  1        2 0.16001689E+00 0.25398621E+04</pdfrwt>
<pdfrwt beam="2">  1       -1 0.23854359E+00 0.25398621E+04</pdfrwt>
<totfact> 0.19945138E+00</totfact>
</mgrwt>
</event>
<event>
12    7  0.1546317E-007  0.2513509E+04  0.7818608E-02  0.8398188E-01
         -1   -1    0    0    0  501 -0.00000000000E+00  0.00000000000E+00  0.67381077144E+03  0.67381077144E+03  0.00000000000E+00 0.  1.
          2   -1    0    0  501    0  0.00000000000E+00 -0.00000000000E+00 -0.23440296137E+04  0.23440296137E+04  0.00000000000E+00 0. -1.
         24    2    1    2    0    0 -0.15552185250E+03  0.99340840964E+03 -0.22712565504E+03  0.10340577146E+04  0.81498336871E+02 0.  0.
        254    2    1    2    0    0  0.15552185250E+03 -0.99340840964E+03 -0.14430931872E+04  0.19837826705E+04  0.91751208284E+03 0.  0.
         23    2    4    4    0    0  0.46231271269E+03 -0.62596065847E+03 -0.12120152252E+04  0.14432138795E+04  0.91244755506E+02 0.  0.
         23    2    4    4    0    0 -0.30679086019E+03 -0.36744775117E+03 -0.23107796194E+03  0.54056879108E+03  0.98382476391E+02 0.  0.
          4    1    3    3  502    0 -0.40999114472E+02  0.52365556508E+03 -0.12265370238E+03  0.53938855099E+03  0.00000000000E+00 0. -1.
         -3    1    3    3    0  502 -0.11452273803E+03  0.46975284455E+03 -0.10447195266E+03  0.49466916357E+03  0.00000000000E+00 0.  1.
         13    1    5    5    0    0  0.15289870973E+03 -0.18323382913E+03 -0.30117326532E+03  0.38426291431E+03  0.00000000000E+00 0. -1.
        -13    1    5    5    0    0  0.30941400296E+03 -0.44272682934E+03 -0.91084195992E+03  0.10589509652E+04  0.00000000000E+00 0.  1.
          2    1    6    6  503    0 -0.26102920838E+03 -0.33643077469E+03 -0.23271670991E+03  0.48526176529E+03  0.00000000000E+00 0. -1.
         -2    1    6    6    0  503 -0.45761651814E+02 -0.31016976475E+02  0.16387479681E+01  0.55307025786E+02  0.00000000000E+00 0.  1.
<mgrwt>
<rscale>  0 0.25135094E+04</rscale>
<asrwt>0</asrwt>
<pdfrwt beam="1">  1        2 0.36061994E+00 0.25135094E+04</pdfrwt>
<pdfrwt beam="2">  1       -1 0.10366320E+00 0.25135094E+04</pdfrwt>
<totfact> 0.38031162E+00</totfact>
</mgrwt>
</event>
<event>
12    7  0.1546317E-007  0.3381036E+04  0.7818608E-02  0.8142576E-01
         -1   -1    0    0    0  501 -0.00000000000E+00  0.00000000000E+00  0.95628125319E+03  0.95628125319E+03  0.00000000000E+00 0.  1.
          2   -1    0    0  501    0  0.00000000000E+00 -0.00000000000E+00 -0.29885053751E+04  0.29885053751E+04  0.00000000000E+00 0. -1.
         24    2    1    2    0    0  0.94701244729E+02  0.14147316194E+04 -0.17022661540E+04  0.22168884224E+04  0.80313993521E+02 0.  0.
        254    2    1    2    0    0 -0.94701244729E+02 -0.14147316194E+04 -0.32995796797E+03  0.17278982059E+04  0.93076638779E+03 0.  0.
         23    2    4    4    0    0 -0.38808931777E+02 -0.98464353893E+03 -0.64761304718E+03  0.11825774204E+04  0.89764494088E+02 0.  0.
         23    2    4    4    0    0 -0.55892312951E+02 -0.43008808052E+03  0.31765507920E+03  0.54532078555E+03  0.91489355429E+02 0.  0.
          4    1    3    3  502    0  0.47484327617E+02  0.66689174999E+03 -0.86524280934E+03  0.10934552971E+04  0.00000000000E+00 0. -1.
         -3    1    3    3    0  502  0.47216917112E+02  0.74783986945E+03 -0.83702334462E+03  0.11234331253E+04  0.00000000000E+00 0.  1.
         13    1    5    5    0    0 -0.11336488127E+01 -0.15635838308E+03 -0.65659339811E+02  0.16958884994E+03  0.00000000000E+00 0. -1.
        -13    1    5    5    0    0 -0.37675282965E+02 -0.82828515585E+03 -0.58195370736E+03  0.10129885705E+04  0.00000000000E+00 0.  1.
          1    1    6    6  503    0 -0.12081766692E+01 -0.95099876836E+02  0.11790884956E+03  0.15148578504E+03  0.00000000000E+00 0. -1.
         -1    1    6    6    0  503 -0.54684136282E+02 -0.33498820368E+03  0.19974622964E+03  0.39383500050E+03  0.00000000000E+00 0.  1.
<mgrwt>
<rscale>  0 0.33810363E+04</rscale>
<asrwt>0</asrwt>
<pdfrwt beam="1">  1        2 0.45977006E+00 0.33810363E+04</pdfrwt>
<pdfrwt beam="2">  1       -1 0.14712019E+00 0.33810363E+04</pdfrwt>
<totfact> 0.61272291E-01</totfact>
</mgrwt>
</event>
<event>
12    7  0.1546317E-007  0.3622270E+04  0.7818608E-02  0.8085409E-01
          2   -1    0    0  501    0  0.00000000000E+00  0.00000000000E+00  0.14716422379E+04  0.14716422379E+04  0.00000000000E+00 0. -1.
         -1   -1    0    0    0  501 -0.00000000000E+00 -0.00000000000E+00 -0.22289451077E+04  0.22289451077E+04  0.00000000000E+00 0.  1.
         24    2    1    2    0    0  0.55064870214E+03 -0.99568848466E+03  0.93326807272E+03  0.14739879064E+04  0.83913651827E+02 0.  0.
        254    2    1    2    0    0 -0.55064870214E+03  0.99568848466E+03 -0.16905709426E+04  0.22265994392E+04  0.89727665690E+03 0.  0.
         23    2    4    4    0    0 -0.38454766603E+03  0.15400621821E+03 -0.11046355633E+04  0.11836136093E+04  0.95533374953E+02 0.  0.
         23    2    4    4    0    0 -0.16610103612E+03  0.84168226645E+03 -0.58593537929E+03  0.10429858299E+04  0.92090068867E+02 0.  0.
          2    1    3    3  502    0  0.34727882833E+03 -0.66434082449E+03  0.56779034296E+03  0.94039204019E+03  0.00000000000E+00 0. -1.
         -1    1    3    3    0  502  0.20336987381E+03 -0.33134766017E+03  0.36547772976E+03  0.53359586620E+03  0.00000000000E+00 0.  1.
         13    1    5    5    0    0 -0.23971295227E+03  0.55141554482E+02 -0.56559772070E+03  0.61676873476E+03  0.00000000000E+00 0.  1.
        -13    1    5    5    0    0 -0.14483471376E+03  0.98864663725E+02 -0.53903784259E+03  0.56684487454E+03  0.00000000000E+00 0. -1.
          1    1    6    6  503    0 -0.72367135472E+02  0.23819868150E+03 -0.21116268136E+03  0.32644339810E+03  0.00000000000E+00 0. -1.
         -1    1    6    6    0  503 -0.93733900646E+02  0.60348358495E+03 -0.37477269793E+03  0.71654243179E+03  0.00000000000E+00 0.  1.
<mgrwt>
<rscale>  0 0.36222699E+04</rscale>
<asrwt>0</asrwt>
<pdfrwt beam="1">  1        2 0.22640650E+00 0.36222699E+04</pdfrwt>
<pdfrwt beam="2">  1       -1 0.34291463E+00 0.36222699E+04</pdfrwt>
<totfact> 0.21113421E-01</totfact>
</mgrwt>
</event>
<event>
12    7  0.1546317E-007  0.1945273E+04  0.7818608E-02  0.8632644E-01
          2   -1    0    0  501    0  0.00000000000E+00  0.00000000000E+00  0.22571206269E+04  0.22571206269E+04  0.00000000000E+00 0. -1.
         -1   -1    0    0    0  501 -0.00000000000E+00 -0.00000000000E+00 -0.41912763437E+03  0.41912763437E+03  0.00000000000E+00 0.  1.
         24    2    1    2    0    0 -0.24217410377E+03  0.63233628047E+03  0.11938041317E+04  0.13749310391E+04  0.82277514348E+02 0.  0.
        254    2    1    2    0    0  0.24217410377E+03 -0.63233628047E+03  0.64418886078E+03  0.13013172221E+04  0.90551077079E+03 0.  0.
         23    2    4    4    0    0 -0.14464528095E+03 -0.17945135814E+03 -0.16083562683E+03  0.29582281357E+03  0.92292962527E+02 0.  0.
         23    2    4    4    0    0  0.38681938472E+03 -0.45288492233E+03  0.80502448762E+03  0.10054944085E+04  0.90667472842E+02 0.  0.
          2    1    3    3  502    0 -0.19200941404E+03  0.47783629899E+03  0.83434982067E+03  0.98047680593E+03  0.00000000000E+00 0. -1.
         -1    1    3    3    0  502 -0.50164689728E+02  0.15449998149E+03  0.35945431104E+03  0.39445423321E+03  0.00000000000E+00 0.  1.
         13    1    5    5    0    0 -0.84103560452E+02 -0.50476502242E+02 -0.10248235169E+03  0.14185879799E+03  0.00000000000E+00 0. -1.
        -13    1    5    5    0    0 -0.60541720497E+02 -0.12897485590E+03 -0.58353275148E+02  0.15396401559E+03  0.00000000000E+00 0.  1.
          2    1    6    6  503    0  0.27922935480E+03 -0.36212267555E+03  0.66415590017E+03  0.80635285357E+03  0.00000000000E+00 0. -1.
         -2    1    6    6    0  503  0.10759002992E+03 -0.90762246786E+02  0.14086858745E+03  0.19914155495E+03  0.00000000000E+00 0.  1.
<mgrwt>
<rscale>  0 0.19452729E+04</rscale>
<asrwt>0</asrwt>
<pdfrwt beam="1">  1        2 0.34724932E+00 0.19452729E+04</pdfrwt>
<pdfrwt beam="2">  1       -1 0.64481176E-01 0.19452729E+04</pdfrwt>
<totfact> 0.12424783E+01</totfact>
</mgrwt>
</event>
<event>
12    7  0.1546317E-007  0.1250194E+04  0.7818608E-02  0.9070022E-01
         -1   -1    0    0    0  501 -0.00000000000E+00  0.00000000000E+00  0.18015044345E+03  0.18015044345E+03  0.00000000000E+00 0.  1.
          2   -1    0    0  501    0  0.00000000000E+00 -0.00000000000E+00 -0.21690002544E+04  0.21690002544E+04  0.00000000000E+00 0. -1.
         24    2    1    2    0    0  0.86628110551E+02 -0.13081508139E+03 -0.19177796418E+02  0.17765187283E+03  0.81088747607E+02 0.  0.
        254    2    1    2    0    0 -0.86628110551E+02  0.13081508139E+03 -0.19696720146E+04  0.21714988251E+04  0.90065658673E+03 0.  0.
         23    2    4    4    0    0  0.24394404557E+02  0.50001924459E+03 -0.93866516944E+03  0.10668975016E+04  0.81016335738E+02 0.  0.
         23    2    4    4    0    0 -0.11102251511E+03 -0.36920416321E+03 -0.10310068451E+04  0.11046013235E+04  0.92364799097E+02 0.  0.
          2    1    3    3  502    0 -0.64468631611E+01 -0.84119137720E+01 -0.21382803161E+02  0.23865175653E+02  0.00000000000E+00 0. -1.
         -1    1    3    3    0  502  0.93074973712E+02 -0.12240316761E+03  0.22050067429E+01  0.15378669718E+03  0.00000000000E+00 0.  1.
         13    1    5    5    0    0  0.33529641077E+01  0.45570577755E+03 -0.81326969862E+03  0.93224814334E+03  0.00000000000E+00 0. -1.
        -13    1    5    5    0    0  0.21041440449E+02  0.44313467038E+02 -0.12539547082E+03  0.13464935826E+03  0.00000000000E+00 0.  1.
          2    1    6    6  503    0 -0.25363813416E+02 -0.14482059181E+03 -0.28195534339E+03  0.31798607283E+03  0.00000000000E+00 0. -1.
         -2    1    6    6    0  503 -0.85658701691E+02 -0.22438357139E+03 -0.74905150173E+03  0.78661525063E+03  0.00000000000E+00 0.  1.
<mgrwt>
<rscale>  0 0.12501942E+04</rscale>
<asrwt>0</asrwt>
<pdfrwt beam="1">  1        2 0.33369236E+00 0.12501942E+04</pdfrwt>
<pdfrwt beam="2">  1       -1 0.27715452E-01 0.12501942E+04</pdfrwt>
<totfact> 0.70733663E+01</totfact>
</mgrwt>
</event>
<event>
12    7  0.1546317E-007  0.2050184E+04  0.7818608E-02  0.8583511E-01
          2   -1    0    0  501    0  0.00000000000E+00  0.00000000000E+00  0.21376435035E+04  0.21376435035E+04  0.00000000000E+00 0. -1.
         -1   -1    0    0    0  501 -0.00000000000E+00 -0.00000000000E+00 -0.49157564063E+03  0.49157564063E+03  0.00000000000E+00 0.  1.
         24    2    1    2    0    0 -0.13452227445E+03 -0.61786534541E+03 -0.34993454739E+02  0.63761998454E+03  0.74032934784E+02 0.  0.
        254    2    1    2    0    0  0.13452227445E+03  0.61786534541E+03  0.16810613176E+04  0.19915991596E+04  0.86060805919E+03 0.  0.
         23    2    4    4    0    0  0.24264292065E+03  0.78500346060E+03  0.11414743365E+04  0.14092262873E+04  0.88594851820E+02 0.  0.
         23    2    4    4    0    0 -0.10812064620E+03 -0.16713811519E+03  0.53958698110E+03  0.58237287231E+03  0.91535941280E+02 0.  0.
          2    1    3    3  502    0 -0.54869853194E+02 -0.12823898557E+03  0.78854514455E+01  0.13970726020E+03  0.00000000000E+00 0. -1.
         -1    1    3    3    0  502 -0.79652421254E+02 -0.48962635984E+03 -0.42878906185E+02  0.49791272434E+03  0.00000000000E+00 0.  1.
         13    1    5    5    0    0  0.20606010804E+03  0.62705680119E+03  0.96971915115E+03  0.11730371828E+04  0.00000000000E+00 0.  1.
        -13    1    5    5    0    0  0.36582812615E+02  0.15794665941E+03  0.17175518540E+03  0.23618910455E+03  0.00000000000E+00 0. -1.
          3    1    6    6  503    0  0.21663052314E+01 -0.72398596126E+02  0.15089110081E+03  0.16737495005E+03  0.00000000000E+00 0. -1.
         -3    1    6    6    0  503 -0.11028695143E+03 -0.94739519063E+02  0.38869588029E+03  0.41499792226E+03  0.00000000000E+00 0.  1.
<mgrwt>
<rscale>  0 0.20501839E+04</rscale>
<asrwt>0</asrwt>
<pdfrwt beam="1">  1        2 0.32886823E+00 0.20501839E+04</pdfrwt>
<pdfrwt beam="2">  1       -1 0.75627023E-01 0.20501839E+04</pdfrwt>
<totfact> 0.10358898E+01</totfact>
</mgrwt>
</event>
<event>
12    7  0.1546317E-007  0.2821001E+04  0.7818608E-02  0.8296778E-01
         -1   -1    0    0    0  501 -0.00000000000E+00  0.00000000000E+00  0.72864005218E+03  0.72864005218E+03  0.00000000000E+00 0.  1.
          2   -1    0    0  501    0  0.00000000000E+00 -0.00000000000E+00 -0.27304445693E+04  0.27304445693E+04  0.00000000000E+00 0. -1.
         24    2    1    2    0    0 -0.65369045987E+02 -0.60808356498E+03 -0.22575931784E+04  0.23403386506E+04  0.80120573093E+02 0.  0.
        254    2    1    2    0    0  0.65369045987E+02  0.60808356498E+03  0.25578866133E+03  0.11187459708E+04  0.90118032258E+03 0.  0.
         23    2    4    4    0    0 -0.30469301944E+03 -0.52994332927E+02  0.11841565867E+03  0.34355176333E+03  0.91429264726E+02 0.  0.
         23    2    4    4    0    0  0.37006206543E+03  0.66107789791E+03  0.13737300265E+03  0.77519420750E+03  0.89915505348E+02 0.  0.
          2    1    3    3  502    0 -0.51990094244E+02 -0.59326076080E+03 -0.21524613712E+04  0.22333273953E+04  0.00000000000E+00 0. -1.
         -1    1    3    3    0  502 -0.13378951743E+02 -0.14822804181E+02 -0.10513180720E+03  0.10701125529E+03  0.00000000000E+00 0.  1.
         13    1    5    5    0    0 -0.17166866593E+03  0.15546774546E+02  0.53994017020E+02  0.18062997242E+03  0.00000000000E+00 0. -1.
        -13    1    5    5    0    0 -0.13302435351E+03 -0.68541107473E+02  0.64421641655E+02  0.16292179091E+03  0.00000000000E+00 0.  1.
          1    1    6    6  503    0  0.21537740307E+03  0.34311878196E+03  0.11392313939E+03  0.42082823809E+03  0.00000000000E+00 0. -1.
         -1    1    6    6    0  503  0.15468466236E+03  0.31795911595E+03  0.23449863264E+02  0.35436596940E+03  0.00000000000E+00 0.  1.
<mgrwt>
<rscale>  0 0.28210007E+04</rscale>
<asrwt>0</asrwt>
<pdfrwt beam="1">  1        2 0.42006840E+00 0.28210007E+04</pdfrwt>
<pdfrwt beam="2">  1       -1 0.11209847E+00 0.28210007E+04</pdfrwt>
<totfact> 0.18340233E+00</totfact>
</mgrwt>
</event>
<event>
12    7  0.1546317E-007  0.1224128E+04  0.7818608E-02  0.9091996E-01
         -1   -1    0    0    0  501 -0.00000000000E+00  0.00000000000E+00  0.16571258605E+03  0.16571258605E+03  0.00000000000E+00 0.  1.
          2   -1    0    0  501    0  0.00000000000E+00 -0.00000000000E+00 -0.22606744713E+04  0.22606744713E+04  0.00000000000E+00 0. -1.
         24    2    1    2    0    0 -0.81641709722E+01 -0.10037752385E+03 -0.99196867863E+03  0.99999483529E+03  0.76455936636E+02 0.  0.
        254    2    1    2    0    0  0.81641709722E+01  0.10037752385E+03 -0.11029932066E+04  0.14263922220E+04  0.89880946607E+03 0.  0.
         23    2    4    4    0    0 -0.28262022417E+03 -0.71495122945E+02 -0.40777643214E+02  0.30825835093E+03  0.91513119385E+02 0.  0.
         23    2    4    4    0    0  0.29078439514E+03  0.17187264679E+03 -0.10622155634E+04  0.11181338711E+04  0.88462870461E+02 0.  0.
          4    1    3    3  502    0 -0.20863012886E+01 -0.91960007025E+02 -0.97932169358E+03  0.98363203235E+03  0.00000000000E+00 0. -1.
         -3    1    3    3    0  502 -0.60778696836E+01 -0.84175168203E+01 -0.12646985048E+02  0.16362802942E+02  0.00000000000E+00 0.  1.
         13    1    5    5    0    0 -0.82750114415E+02 -0.12573845744E+02 -0.53764071372E+02  0.99479939701E+02  0.00000000000E+00 0. -1.
        -13    1    5    5    0    0 -0.19987010975E+03 -0.58921277201E+02  0.12986428158E+02  0.20877841123E+03  0.00000000000E+00 0.  1.
          2    1    6    6  503    0  0.51335149851E+02  0.73754519823E+02 -0.30176086518E+03  0.31485654917E+03  0.00000000000E+00 0. -1.
         -2    1    6    6    0  503  0.23944924529E+03  0.98118126967E+02 -0.76045469818E+03  0.80327732191E+03  0.00000000000E+00 0.  1.
<mgrwt>
<rscale>  0 0.12241278E+04</rscale>
<asrwt>0</asrwt>
<pdfrwt beam="1">  1        2 0.34779604E+00 0.12241278E+04</pdfrwt>
<pdfrwt beam="2">  1       -1 0.25494246E-01 0.12241278E+04</pdfrwt>
<totfact> 0.72770303E+01</totfact>
</mgrwt>
</event>
<event>
12    7  0.1546317E-007  0.2140713E+04  0.7818608E-02  0.8543518E-01
          2   -1    0    0  501    0  0.00000000000E+00  0.00000000000E+00  0.20615639727E+04  0.20615639727E+04  0.00000000000E+00 0. -1.
         -1   -1    0    0    0  501 -0.00000000000E+00 -0.00000000000E+00 -0.55572538615E+03  0.55572538615E+03  0.00000000000E+00 0.  1.
         24    2    1    2    0    0  0.79308886833E+03  0.31465303432E+03  0.57251623407E+03  0.10304617402E+04  0.77974834258E+02 0.  0.
        254    2    1    2    0    0 -0.79308886833E+03 -0.31465303432E+03  0.93332235246E+03  0.15868276186E+04  0.95861086598E+03 0.  0.
         23    2    4    4    0    0 -0.13790687240E+03 -0.37748527190E+03 -0.33578830163E+02  0.41357919568E+03  0.91688479692E+02 0.  0.
         23    2    4    4    0    0 -0.65518199593E+03  0.62832237584E+02  0.96690118262E+03  0.11732484229E+04  0.91665844107E+02 0.  0.
          4    1    3    3  502    0  0.48688551102E+03  0.21672565417E+03  0.39373976969E+03  0.66261490797E+03  0.00000000000E+00 0. -1.
         -3    1    3    3    0  502  0.30620335731E+03  0.97927380142E+02  0.17877646437E+03  0.36784683228E+03  0.00000000000E+00 0.  1.
         13    1    5    5    0    0 -0.13210534543E+03 -0.24097631833E+03 -0.10504107291E+02  0.27501226256E+03  0.00000000000E+00 0.  1.
        -13    1    5    5    0    0 -0.58015269723E+01 -0.13650895357E+03 -0.23074722872E+02  0.13856693312E+03  0.00000000000E+00 0. -1.
          4    1    6    6  503    0 -0.59515883692E+03  0.74762451262E+02  0.83799012067E+03  0.10305488381E+04  0.00000000000E+00 0.  1.
         -4    1    6    6    0  503 -0.60023159005E+02 -0.11930213678E+02  0.12891106195E+03  0.14269958482E+03  0.00000000000E+00 0. -1.
<mgrwt>
<rscale>  0 0.21407134E+04</rscale>
<asrwt>0</asrwt>
<pdfrwt beam="1">  1        2 0.31716369E+00 0.21407134E+04</pdfrwt>
<pdfrwt beam="2">  1       -1 0.85496214E-01 0.21407134E+04</pdfrwt>
<totfact> 0.87252002E+00</totfact>
</mgrwt>
</event>
<event>
12    7  0.1546317E-007  0.3217637E+04  0.7818608E-02  0.8184175E-01
         -1   -1    0    0    0  501 -0.00000000000E+00  0.00000000000E+00  0.13325455818E+04  0.13325455818E+04  0.00000000000E+00 0.  1.
          2   -1    0    0  501    0  0.00000000000E+00 -0.00000000000E+00 -0.19423701160E+04  0.19423701160E+04  0.00000000000E+00 0. -1.
         24    2    1    2    0    0  0.60017805024E+02 -0.88284476212E+03  0.93498226666E+03  0.12898299808E+04  0.80327637933E+02 0.  0.
        254    2    1    2    0    0 -0.60017805024E+02  0.88284476212E+03 -0.15448068009E+04  0.19850857170E+04  0.87813452318E+03 0.  0.
         23    2    4    4    0    0 -0.28339356397E+02  0.10294183228E+04 -0.14631531081E+04  0.17912210342E+04  0.84561060906E+02 0.  0.
         23    2    4    4    0    0 -0.31678448627E+02 -0.14657356073E+03 -0.81653692834E+02  0.19386468284E+03  0.91808806150E+02 0.  0.
          4    1    3    3  502    0  0.38499274991E+02 -0.16739447733E+03  0.15760727962E+03  0.23311619378E+03  0.00000000000E+00 0. -1.
         -3    1    3    3    0  502  0.21518530033E+02 -0.71545028479E+03  0.77737498704E+03  0.10567137870E+04  0.00000000000E+00 0.  1.
         13    1    5    5    0    0 -0.49491260928E+02  0.57218754577E+03 -0.85745435735E+03  0.10320251680E+04  0.00000000000E+00 0.  1.
        -13    1    5    5    0    0  0.21151904530E+02  0.45723077708E+03 -0.60569875073E+03  0.75919586617E+03  0.00000000000E+00 0. -1.
          3    1    6    6  503    0 -0.36528629320E+01 -0.51974498686E+02 -0.79654152356E+02  0.95181279193E+02  0.00000000000E+00 0. -1.
         -3    1    6    6    0  503 -0.28025585695E+02 -0.94599062045E+02 -0.19995404779E+01  0.98683403648E+02  0.00000000000E+00 0.  1.
<mgrwt>
<rscale>  0 0.32176368E+04</rscale>
<asrwt>0</asrwt>
<pdfrwt beam="1">  1        2 0.29882617E+00 0.32176368E+04</pdfrwt>
<pdfrwt beam="2">  1       -1 0.20500701E+00 0.32176368E+04</pdfrwt>
<totfact> 0.95663228E-01</totfact>
</mgrwt>
</event>
<event>
12    7  0.1546317E-007  0.3456464E+04  0.7818608E-02  0.8124186E-01
          2   -1    0    0  501    0  0.00000000000E+00  0.00000000000E+00  0.14624157336E+04  0.14624157336E+04  0.00000000000E+00 0. -1.
         -1   -1    0    0    0  501 -0.00000000000E+00 -0.00000000000E+00 -0.20423647407E+04  0.20423647407E+04  0.00000000000E+00 0.  1.
         24    2    1    2    0    0 -0.13025275758E+04  0.93619970575E+03 -0.40066902495E+03  0.16551225529E+04  0.76465827734E+02 0.  0.
        254    2    1    2    0    0  0.13025275758E+04 -0.93619970575E+03 -0.17927998220E+03  0.18496579214E+04  0.90335216789E+03 0.  0.
         23    2    4    4    0    0  0.58175721532E+03 -0.44063278601E+03 -0.52608913587E+03  0.90432285385E+03  0.91822303546E+02 0.  0.
         23    2    4    4    0    0  0.72077036049E+03 -0.49556691974E+03  0.34680915367E+03  0.94533506751E+03  0.91023712824E+02 0.  0.
          4    1    3    3  502    0 -0.58419980785E+02  0.55217580023E+02 -0.71381339898E+01  0.80702095731E+02  0.00000000000E+00 0. -1.
         -3    1    3    3    0  502 -0.12441075950E+04  0.88098212573E+03 -0.39353089096E+03  0.15744204572E+04  0.00000000000E+00 0.  1.
         13    1    5    5    0    0  0.51495528494E+03 -0.40994646194E+03 -0.49900713271E+03  0.82598012424E+03  0.00000000000E+00 0.  1.
        -13    1    5    5    0    0  0.66801930376E+02 -0.30686324071E+02 -0.27082003159E+02  0.78342729606E+02  0.00000000000E+00 0. -1.
          3    1    6    6  503    0  0.40311414843E+03 -0.23392100060E+03  0.21441921095E+03  0.51302597323E+03  0.00000000000E+00 0. -1.
         -3    1    6    6    0  503  0.31765621206E+03 -0.26164591914E+03  0.13238994272E+03  0.43230909428E+03  0.00000000000E+00 0.  1.
<mgrwt>
<rscale>  0 0.34564643E+04</rscale>
<asrwt>0</asrwt>
<pdfrwt beam="1">  1        2 0.22498704E+00 0.34564643E+04</pdfrwt>
<pdfrwt beam="2">  1       -1 0.31420996E+00 0.34564643E+04</pdfrwt>
<totfact> 0.33413061E-01</totfact>
</mgrwt>
</event>
<event>
12    7  0.1546317E-007  0.1856508E+04  0.7818608E-02  0.8676813E-01
          2   -1    0    0  501    0  0.00000000000E+00  0.00000000000E+00  0.24076200798E+04  0.24076200798E+04  0.00000000000E+00 0. -1.
         -1   -1    0    0    0  501 -0.00000000000E+00 -0.00000000000E+00 -0.35788667319E+03  0.35788667319E+03  0.00000000000E+00 0.  1.
         24    2    1    2    0    0 -0.51816586003E+03  0.45761274641E+03  0.10385899113E+04  0.12501664262E+04  0.79635450834E+02 0.  0.
        254    2    1    2    0    0  0.51816586003E+03 -0.45761274641E+03  0.10111434953E+04  0.15153403268E+04  0.89215461322E+03 0.  0.
         23    2    4    4    0    0  0.26994924357E+03  0.16332126826E+03  0.37046968385E+02  0.32989849337E+03  0.88961268496E+02 0.  0.
         23    2    4    4    0    0  0.24821661647E+03 -0.62093401467E+03  0.97409652691E+03  0.11854418335E+04  0.96113253708E+02 0.  0.
          2    1    3    3  502    0 -0.62855871564E+02  0.82716627502E+02  0.19337527757E+03  0.21951514533E+03  0.00000000000E+00 0. -1.
         -1    1    3    3    0  502 -0.45530998847E+03  0.37489611890E+03  0.84521463376E+03  0.10306512808E+04  0.00000000000E+00 0.  1.
         13    1    5    5    0    0  0.17691064762E+03  0.63127250262E+02 -0.14888028102E+01  0.18784207063E+03  0.00000000000E+00 0.  1.
        -13    1    5    5    0    0  0.93038595949E+02  0.10019401800E+03  0.38535771195E+02  0.14205642274E+03  0.00000000000E+00 0. -1.
          1    1    6    6  503    0  0.19052487134E+03 -0.35856682208E+03  0.55598140460E+03  0.68846584139E+03  0.00000000000E+00 0. -1.
         -1    1    6    6    0  503  0.57691745130E+02 -0.26236719258E+03  0.41811512231E+03  0.49697599208E+03  0.00000000000E+00 0.  1.
<mgrwt>
<rscale>  0 0.18565076E+04</rscale>
<asrwt>0</asrwt>
<pdfrwt beam="1">  1        2 0.37040308E+00 0.18565076E+04</pdfrwt>
<pdfrwt beam="2">  1       -1 0.55059490E-01 0.18565076E+04</pdfrwt>
<totfact> 0.14050318E+01</totfact>
</mgrwt>
</event>
<event>
12    7  0.1546317E-007  0.1178733E+04  0.7818608E-02  0.9131678E-01
         -1   -1    0    0    0  501 -0.00000000000E+00  0.00000000000E+00  0.51454708753E+03  0.51454708753E+03  0.00000000000E+00 0.  1.
          2   -1    0    0  501    0  0.00000000000E+00 -0.00000000000E+00 -0.67506492502E+03  0.67506492502E+03  0.00000000000E+00 0. -1.
         24    2    1    2    0    0 -0.27433547895E+02  0.23711183471E+03 -0.91062166256E+02  0.26788807524E+03  0.80604472722E+02 0.  0.
        254    2    1    2    0    0  0.27433547895E+02 -0.23711183471E+03 -0.69455671234E+02  0.92172393731E+03  0.88756763383E+03 0.  0.
         23    2    4    4    0    0  0.27081933291E+03 -0.47771204641E+03 -0.10591685954E+03  0.56705329415E+03  0.93697101931E+02 0.  0.
         23    2    4    4    0    0 -0.24338578501E+03  0.24060021170E+03  0.36461188306E+02  0.35467064316E+03  0.85654799344E+02 0.  0.
          2    1    3    3  502    0 -0.35699922473E+02  0.14559247505E+03 -0.92198260570E+02  0.17598912610E+03  0.00000000000E+00 0. -1.
         -1    1    3    3    0  502  0.82663745777E+01  0.91519359669E+02  0.11360943133E+01  0.91898949140E+02  0.00000000000E+00 0.  1.
         13    1    5    5    0    0  0.24817351220E+03 -0.46498854317E+03 -0.85384367614E+02  0.53394281311E+03  0.00000000000E+00 0.  1.
        -13    1    5    5    0    0  0.22645820709E+02 -0.12723503242E+02 -0.20532491925E+02  0.33110481045E+02  0.00000000000E+00 0. -1.
          1    1    6    6  503    0 -0.12963809032E+03  0.11485700172E+03 -0.23577000563E+02  0.17479714032E+03  0.00000000000E+00 0. -1.
         -1    1    6    6    0  503 -0.11374769469E+03  0.12574320997E+03  0.60038188869E+02  0.17987350284E+03  0.00000000000E+00 0.  1.
<mgrwt>
<rscale>  0 0.11787327E+04</rscale>
<asrwt>0</asrwt>
<pdfrwt beam="1">  1        2 0.10385614E+00 0.11787327E+04</pdfrwt>
<pdfrwt beam="2">  1       -1 0.79161091E-01 0.11787327E+04</pdfrwt>
<totfact> 0.77270678E+01</totfact>
</mgrwt>
</event>
<event>
12    7  0.1546317E-007  0.1618795E+04  0.7818608E-02  0.8809084E-01
         -1   -1    0    0    0  501 -0.00000000000E+00  0.00000000000E+00  0.22095711885E+03  0.22095711885E+03  0.00000000000E+00 0.  1.
          2   -1    0    0  501    0  0.00000000000E+00 -0.00000000000E+00 -0.29649372198E+04  0.29649372198E+04  0.00000000000E+00 0. -1.
         24    2    1    2    0    0  0.47207111206E+03 -0.58094744592E+02 -0.41419839856E+03  0.63556091522E+03  0.78429773648E+02 0.  0.
        254    2    1    2    0    0 -0.47207111206E+03  0.58094744592E+02 -0.23297817024E+04  0.25503334235E+04  0.92200415165E+03 0.  0.
         23    2    4    4    0    0 -0.69637289791E+03 -0.14796213553E+03 -0.16092997585E+04  0.17620501533E+04  0.90260864555E+02 0.  0.
         23    2    4    4    0    0  0.22430178585E+03  0.20605688012E+03 -0.72048194391E+03  0.78828327011E+03  0.97598941877E+02 0.  0.
          2    1    3    3  502    0  0.46346965475E+03 -0.50479608050E+02 -0.41484006089E+03  0.62405495577E+03  0.00000000000E+00 0. -1.
         -1    1    3    3    0  502  0.86014573063E+01 -0.76151365422E+01  0.64166232282E+00  0.11505959451E+02  0.00000000000E+00 0.  1.
         13    1    5    5    0    0 -0.22525390658E+03 -0.68652982422E+02 -0.62621321509E+03  0.66902581802E+03  0.00000000000E+00 0.  1.
        -13    1    5    5    0    0 -0.47111899133E+03 -0.79309153105E+02 -0.98308654342E+03  0.10930243353E+04  0.00000000000E+00 0. -1.
          3    1    6    6  503    0  0.14910317346E+03  0.71298751474E+02 -0.35715872841E+03  0.39354494734E+03  0.00000000000E+00 0. -1.
         -3    1    6    6    0  503  0.75198612383E+02  0.13475812864E+03 -0.36332321551E+03  0.39473832277E+03  0.00000000000E+00 0.  1.
<mgrwt>
<rscale>  0 0.16187946E+04</rscale>
<asrwt>0</asrwt>
<pdfrwt beam="1">  1        2 0.45614422E+00 0.16187946E+04</pdfrwt>
<pdfrwt beam="2">  1       -1 0.33993401E-01 0.16187946E+04</pdfrwt>
<totfact> 0.16414736E+01</totfact>
</mgrwt>
</event>
<event>
12    7  0.1546317E-007  0.2580363E+04  0.7818608E-02  0.8374902E-01
         -3   -1    0    0    0  501 -0.00000000000E+00  0.00000000000E+00  0.24367781150E+04  0.24367781150E+04  0.00000000000E+00 0.  1.
          4   -1    0    0  501    0  0.00000000000E+00 -0.00000000000E+00 -0.68310218318E+03  0.68310218318E+03  0.00000000000E+00 0. -1.
         24    2    1    2    0    0 -0.20737548463E+03 -0.30957004128E+03 -0.52011106626E+03  0.64507440431E+03  0.82263380479E+02 0.  0.
        254    2    1    2    0    0  0.20737548463E+03  0.30957004128E+03  0.22737869980E+04  0.24748058938E+04  0.90317146634E+03 0.  0.
         23    2    4    4    0    0  0.21137253608E+03  0.33431331894E+03  0.31450310741E+03  0.51339297110E+03  0.90644326751E+02 0.  0.
         23    2    4    4    0    0 -0.39970514569E+01 -0.24743277656E+02  0.19592838906E+04  0.19614129227E+04  0.87858313110E+02 0.  0.
          4    1    3    3  502    0 -0.79737287899E+02 -0.59879874137E+02 -0.16204740200E+03  0.19027084617E+03  0.00000000000E+00 0. -1.
         -3    1    3    3    0  502 -0.12763819673E+03 -0.24969016715E+03 -0.35806366426E+03  0.45480355814E+03  0.00000000000E+00 0.  1.
         13    1    5    5    0    0  0.14221421387E+03  0.21336987248E+03  0.25584759018E+03  0.36222862188E+03  0.00000000000E+00 0. -1.
        -13    1    5    5    0    0  0.69158322219E+02  0.12094344646E+03  0.58655517231E+02  0.15116434922E+03  0.00000000000E+00 0.  1.
          3    1    6    6  503    0  0.18177709703E+00 -0.53923513995E+02  0.83311544734E+03  0.83485874674E+03  0.00000000000E+00 0. -1.
         -3    1    6    6    0  503 -0.41788285540E+01  0.29180236338E+02  0.11261684433E+04  0.11265541760E+04  0.00000000000E+00 0.  1.
<mgrwt>
<rscale>  0 0.25803631E+04</rscale>
<asrwt>0</asrwt>
<pdfrwt beam="1">  1        4 0.10509264E+00 0.25803631E+04</pdfrwt>
<pdfrwt beam="2">  1       -3 0.37488894E+00 0.25803631E+04</pdfrwt>
<totfact> 0.21600219E-02</totfact>
</mgrwt>
</event>
<event>
12    7  0.1546317E-007  0.1904554E+04  0.7818608E-02  0.8652593E-01
          2   -1    0    0  501    0  0.00000000000E+00  0.00000000000E+00  0.10271335882E+04  0.10271335882E+04  0.00000000000E+00 0. -1.
         -1   -1    0    0    0  501 -0.00000000000E+00 -0.00000000000E+00 -0.88287611588E+03  0.88287611588E+03  0.00000000000E+00 0.  1.
         24    2    1    2    0    0 -0.39565668517E+03 -0.61762310138E+03 -0.35209485646E+02  0.73880410924E+03  0.81174479179E+02 0.  0.
        254    2    1    2    0    0  0.39565668517E+03  0.61762310138E+03  0.17946695801E+03  0.11712055949E+04  0.89527182945E+03 0.  0.
         23    2    4    4    0    0 -0.74823388072E+02 -0.11513453140E+03  0.24191445672E+03  0.29269071407E+03  0.91053555738E+02 0.  0.
         23    2    4    4    0    0  0.47048007324E+03  0.73275763278E+03 -0.62447498710E+02  0.87851488081E+03  0.97997234682E+02 0.  0.
          2    1    3    3  502    0 -0.34844516271E+03 -0.51163480965E+03 -0.53570833491E+02  0.62133247466E+03  0.00000000000E+00 0. -1.
         -1    1    3    3    0  502 -0.47211522463E+02 -0.10598829173E+03  0.18361347845E+02  0.11747163458E+03  0.00000000000E+00 0.  1.
         13    1    5    5    0    0 -0.50863336373E+01  0.11713356929E+02  0.26438876461E+01  0.13040845919E+02  0.00000000000E+00 0. -1.
        -13    1    5    5    0    0 -0.69737054435E+02 -0.12684788833E+03  0.23927056907E+03  0.27964986815E+03  0.00000000000E+00 0.  1.
          1    1    6    6  503    0  0.24295627516E+03  0.28980143362E+03 -0.18922914752E+02  0.37864323481E+03  0.00000000000E+00 0. -1.
         -1    1    6    6    0  503  0.22752379808E+03  0.44295619916E+03 -0.43524583958E+02  0.49987164600E+03  0.00000000000E+00 0.  1.
<mgrwt>
<rscale>  0 0.19045542E+04</rscale>
<asrwt>0</asrwt>
<pdfrwt beam="1">  1        2 0.15802055E+00 0.19045542E+04</pdfrwt>
<pdfrwt beam="2">  1       -1 0.13582710E+00 0.19045542E+04</pdfrwt>
<totfact> 0.11721450E+01</totfact>
</mgrwt>
</event>
<event>
12    7  0.1546317E-007  0.1580624E+04  0.7818608E-02  0.8832540E-01
         -1   -1    0    0    0  501 -0.00000000000E+00  0.00000000000E+00  0.36133403071E+03  0.36133403071E+03  0.00000000000E+00 0.  1.
          2   -1    0    0  501    0  0.00000000000E+00 -0.00000000000E+00 -0.17285757875E+04  0.17285757875E+04  0.00000000000E+00 0. -1.
         24    2    1    2    0    0 -0.45622756587E+03 -0.43765136349E+01 -0.83248412540E+02  0.47061464971E+03  0.79906849484E+02 0.  0.
        254    2    1    2    0    0  0.45622756587E+03  0.43765136349E+01 -0.12839933443E+04  0.16192951685E+04  0.87482294718E+03 0.  0.
         23    2    4    4    0    0  0.45852839924E+03 -0.36252791353E+03 -0.92432169723E+03  0.10977247060E+04  0.94626366729E+02 0.  0.
         23    2    4    4    0    0 -0.23008333664E+01  0.36690442717E+03 -0.35967164704E+03  0.52157046248E+03  0.89710094942E+02 0.  0.
          2    1    3    3  502    0 -0.51543428437E+02 -0.25513069737E+02 -0.17221014324E+02  0.60035032079E+02  0.00000000000E+00 0. -1.
         -1    1    3    3    0  502 -0.40468413743E+03  0.21136556102E+02 -0.66027398216E+02  0.41057961763E+03  0.00000000000E+00 0.  1.
         13    1    5    5    0    0  0.21165080122E+03 -0.22716857570E+03 -0.47453381105E+03  0.56708373392E+03  0.00000000000E+00 0.  1.
        -13    1    5    5    0    0  0.24687759802E+03 -0.13535933784E+03 -0.44978788617E+03  0.53064097212E+03  0.00000000000E+00 0. -1.
          2    1    6    6  503    0  0.49977684460E+01  0.13474966055E+02 -0.48621850759E+02  0.50701447424E+02  0.00000000000E+00 0. -1.
         -2    1    6    6    0  503 -0.72986018124E+01  0.35342946111E+03 -0.31104979628E+03  0.47086901506E+03  0.00000000000E+00 0.  1.
<mgrwt>
<rscale>  0 0.15806243E+04</rscale>
<asrwt>0</asrwt>
<pdfrwt beam="1">  1        2 0.26593473E+00 0.15806243E+04</pdfrwt>
<pdfrwt beam="2">  1       -1 0.55589851E-01 0.15806243E+04</pdfrwt>
<totfact> 0.33846877E+01</totfact>
</mgrwt>
</event>
<event>
12    7  0.1546317E-007  0.1187642E+04  0.7818608E-02  0.9123743E-01
         -3   -1    0    0    0  501 -0.00000000000E+00  0.00000000000E+00  0.34452744429E+03  0.34452744429E+03  0.00000000000E+00 0.  1.
          2   -1    0    0  501    0  0.00000000000E+00 -0.00000000000E+00 -0.10234981457E+04  0.10234981457E+04  0.00000000000E+00 0. -1.
         24    2    1    2    0    0  0.16474652363E+02  0.14712127504E+03  0.77201829880E+02  0.18476176900E+03  0.79124616950E+02 0.  0.
        254    2    1    2    0    0 -0.16474652363E+02 -0.14712127504E+03 -0.75617253134E+03  0.11832638210E+04  0.89799793389E+03 0.  0.
         23    2    4    4    0    0  0.20479338455E+03  0.20584759663E+03  0.11778331620E+02  0.30491908432E+03  0.92322020638E+02 0.  0.
         23    2    4    4    0    0 -0.22126803692E+03 -0.35296887167E+03 -0.76795086296E+03  0.87834473671E+03  0.90522815053E+02 0.  0.
          4    1    3    3  502    0  0.97296334815E+01 -0.54426730658E+01  0.17591997277E+02  0.20827069549E+02  0.00000000000E+00 0. -1.
         -3    1    3    3    0  502  0.67450188815E+01  0.15256394811E+03  0.59609832603E+02  0.16393469945E+03  0.00000000000E+00 0.  1.
         13    1    5    5    0    0  0.18231979616E+03  0.13466064491E+03 -0.10840583654E+02  0.22691742025E+03  0.00000000000E+00 0.  1.
        -13    1    5    5    0    0  0.22473588395E+02  0.71186951716E+02  0.22618915274E+02  0.78001664073E+02  0.00000000000E+00 0. -1.
          3    1    6    6  503    0 -0.30137956301E+01 -0.59187698254E+02 -0.86859090007E+02  0.10515116788E+03  0.00000000000E+00 0. -1.
         -3    1    6    6    0  503 -0.21825424129E+03 -0.29378117342E+03 -0.68109177296E+03  0.77319356883E+03  0.00000000000E+00 0.  1.
<mgrwt>
<rscale>  0 0.11876417E+04</rscale>
<asrwt>0</asrwt>
<pdfrwt beam="1">  1        2 0.15746125E+00 0.11876417E+04</pdfrwt>
<pdfrwt beam="2">  1       -3 0.53004223E-01 0.11876417E+04</pdfrwt>
<totfact> 0.53876085E+01</totfact>
</mgrwt>
</event>
<event>
12    7  0.1546317E-007  0.3847455E+04  0.7818608E-02  0.8036047E-01
         -1   -1    0    0    0  501 -0.00000000000E+00  0.00000000000E+00  0.26149232479E+04  0.26149232479E+04  0.00000000000E+00 0.  1.
          2   -1    0    0  501    0  0.00000000000E+00 -0.00000000000E+00 -0.14152338336E+04  0.14152338336E+04  0.00000000000E+00 0. -1.
         24    2    1    2    0    0 -0.12261438375E+04  0.13377174318E+04  0.50499456740E+03  0.18855301090E+04  0.85367682619E+02 0.  0.
        254    2    1    2    0    0  0.12261438375E+04 -0.13377174318E+04  0.69469484692E+03  0.21446269724E+04  0.90769338600E+03 0.  0.
         23    2    4    4    0    0 -0.70330919161E+02 -0.36382624990E+03  0.26570685278E+03  0.46488698022E+03  0.90574800335E+02 0.  0.
         23    2    4    4    0    0  0.12964747567E+04 -0.97389118190E+03  0.42898799414E+03  0.16797399922E+04  0.90470511839E+02 0.  0.
          2    1    3    3  502    0 -0.30505899999E+03  0.35631419127E+03  0.95606066247E+02  0.47870796555E+03  0.00000000000E+00 0. -1.
         -1    1    3    3    0  502 -0.92108483750E+03  0.98140324053E+03  0.40938850115E+03  0.14068221434E+04  0.00000000000E+00 0.  1.
         13    1    5    5    0    0 -0.21886422065E+02 -0.45513362700E+02  0.75778554841E+02  0.91065202074E+02  0.00000000000E+00 0. -1.
        -13    1    5    5    0    0 -0.48444497096E+02 -0.31831288720E+03  0.18992829794E+03  0.37382177814E+03  0.00000000000E+00 0.  1.
          4    1    6    6  503    0  0.25734568927E+03 -0.22275336515E+03  0.11952888221E+03  0.36073954476E+03  0.00000000000E+00 0. -1.
         -4    1    6    6    0  503  0.10391290674E+04 -0.75113781675E+03  0.30945911193E+03  0.13190004475E+04  0.00000000000E+00 0.  1.
<mgrwt>
<rscale>  0 0.38474552E+04</rscale>
<asrwt>0</asrwt>
<pdfrwt beam="1">  1        2 0.21772828E+00 0.38474552E+04</pdfrwt>
<pdfrwt beam="2">  1       -1 0.40229588E+00 0.38474552E+04</pdfrwt>
<totfact> 0.88953028E-02</totfact>
</mgrwt>
</event>
<event>
12    7  0.1546317E-007  0.2998039E+04  0.7818608E-02  0.8244291E-01
         -1   -1    0    0    0  501 -0.00000000000E+00  0.00000000000E+00  0.11651095442E+04  0.11651095442E+04  0.00000000000E+00 0.  1.
          2   -1    0    0  501    0  0.00000000000E+00 -0.00000000000E+00 -0.19286244248E+04  0.19286244248E+04  0.00000000000E+00 0. -1.
         24    2    1    2    0    0  0.12507948098E+04 -0.42353995282E+03  0.68833948967E+00  0.13229037635E+04  0.78741003630E+02 0.  0.
        254    2    1    2    0    0 -0.12507948098E+04  0.42353995282E+03 -0.76420322013E+03  0.17708302055E+04  0.89886556676E+03 0.  0.
         23    2    4    4    0    0 -0.21019193433E+03  0.10007459520E+02 -0.59191800082E+03  0.63457822978E+03  0.89676147967E+02 0.  0.
         23    2    4    4    0    0 -0.10406028755E+04  0.41353249330E+03 -0.17228521931E+03  0.11362519757E+04  0.86734583787E+02 0.  0.
          4    1    3    3  502    0  0.14310191961E+03 -0.23639013289E+02  0.71436774195E+01  0.14521705986E+03  0.00000000000E+00 0. -1.
         -3    1    3    3    0  502  0.11076928902E+04 -0.39990093953E+03 -0.64553379298E+01  0.11776867036E+04  0.00000000000E+00 0.  1.
         13    1    5    5    0    0 -0.12895212360E+03  0.30496235140E+01 -0.47384519503E+03  0.49108779179E+03  0.00000000000E+00 0. -1.
        -13    1    5    5    0    0 -0.81239810736E+02  0.69578360061E+01 -0.11807280578E+03  0.14349043799E+03  0.00000000000E+00 0.  1.
          1    1    6    6  503    0 -0.20496213794E+03  0.95448359873E+02 -0.67749728202E+02  0.23602943262E+03  0.00000000000E+00 0. -1.
         -1    1    6    6    0  503 -0.83564073756E+03  0.31808413342E+03 -0.10453549111E+03  0.90022254310E+03  0.00000000000E+00 0.  1.
<mgrwt>
<rscale>  0 0.29980385E+04</rscale>
<asrwt>0</asrwt>
<pdfrwt beam="1">  1        2 0.29671145E+00 0.29980385E+04</pdfrwt>
<pdfrwt beam="2">  1       -1 0.17924762E+00 0.29980385E+04</pdfrwt>
<totfact> 0.15025710E+00</totfact>
</mgrwt>
</event>
<event>
12    7  0.1546317E-007  0.1685347E+04  0.7818608E-02  0.8769766E-01
         -1   -1    0    0    0  501 -0.00000000000E+00  0.00000000000E+00  0.79530826285E+03  0.79530826285E+03  0.00000000000E+00 0.  1.
          2   -1    0    0  501    0  0.00000000000E+00 -0.00000000000E+00 -0.89285998366E+03  0.89285998366E+03  0.00000000000E+00 0. -1.
         24    2    1    2    0    0 -0.42791210437E+03 -0.35706140674E+03 -0.25818993989E+03  0.62135484678E+03  0.93905182524E+02 0.  0.
        254    2    1    2    0    0  0.42791210437E+03  0.35706140674E+03  0.16063821908E+03  0.10668133997E+04  0.89536840194E+03 0.  0.
         23    2    4    4    0    0  0.10501051706E+03 -0.22385364844E+03  0.27961315026E+03  0.38558207520E+03  0.96707591769E+02 0.  0.
         23    2    4    4    0    0  0.32290158731E+03  0.58091505518E+03 -0.11897493118E+03  0.68123132454E+03  0.90517108128E+02 0.  0.
          2    1    3    3  502    0 -0.34936585858E+03 -0.27227778519E+03 -0.16421991890E+03  0.47239800721E+03  0.00000000000E+00 0. -1.
         -3    1    3    3    0  502 -0.78546245791E+02 -0.84783621549E+02 -0.93970020984E+02  0.14895683957E+03  0.00000000000E+00 0.  1.
         13    1    5    5    0    0  0.29912034799E+02 -0.17097225720E+03  0.18737092999E+03  0.25540968651E+03  0.00000000000E+00 0.  1.
        -13    1    5    5    0    0  0.75098482258E+02 -0.52881391235E+02  0.92242220271E+02  0.13017238869E+03  0.00000000000E+00 0. -1.
          3    1    6    6  503    0  0.15859586717E+03  0.37528600480E+03 -0.65730754949E+02  0.41268967352E+03  0.00000000000E+00 0. -1.
         -3    1    6    6    0  503  0.16430572014E+03  0.20562905037E+03 -0.53244176231E+02  0.26854165102E+03  0.00000000000E+00 0.  1.
<mgrwt>
<rscale>  0 0.16853474E+04</rscale>
<asrwt>0</asrwt>
<pdfrwt beam="1">  1        2 0.13736307E+00 0.16853474E+04</pdfrwt>
<pdfrwt beam="2">  1       -1 0.12235512E+00 0.16853474E+04</pdfrwt>
<totfact> 0.19027997E+01</totfact>
</mgrwt>
</event>
<event>
12    7  0.1546317E-007  0.1888949E+04  0.7818608E-02  0.8660377E-01
          2   -1    0    0  501    0  0.00000000000E+00  0.00000000000E+00  0.85229843411E+03  0.85229843411E+03  0.00000000000E+00 0. -1.
         -1   -1    0    0    0  501 -0.00000000000E+00 -0.00000000000E+00 -0.10466195155E+04  0.10466195155E+04  0.00000000000E+00 0.  1.
         24    2    1    2    0    0 -0.71526737426E+03  0.29373412200E+02 -0.18036529014E+03  0.74312497163E+03  0.85046290605E+02 0.  0.
        254    2    1    2    0    0  0.71526737426E+03 -0.29373412200E+02 -0.13955791291E+02  0.11557929780E+04  0.90729952601E+03 0.  0.
         23    2    4    4    0    0  0.29605481165E+03 -0.27808188586E+03  0.34742802859E+03  0.54202417289E+03  0.90033228307E+02 0.  0.
         23    2    4    4    0    0  0.41921256261E+03  0.24870847366E+03 -0.36138381988E+03  0.61376880513E+03  0.92297363800E+02 0.  0.
          2    1    3    3  502    0 -0.38925717789E+03  0.11109749370E+02 -0.54619322972E+02  0.39322747553E+03  0.00000000000E+00 0. -1.
         -1    1    3    3    0  502 -0.32601019637E+03  0.18263662829E+02 -0.12574596716E+03  0.34989749610E+03  0.00000000000E+00 0.  1.
         13    1    5    5    0    0  0.69494841041E+02 -0.94359982651E+02  0.14753255298E+03  0.18841229643E+03  0.00000000000E+00 0.  1.
        -13    1    5    5    0    0  0.22655997061E+03 -0.18372190321E+03  0.19989547560E+03  0.35361187645E+03  0.00000000000E+00 0. -1.
          2    1    6    6  503    0  0.39944644531E+03  0.24621697377E+03 -0.36374169619E+03  0.59370723626E+03  0.00000000000E+00 0. -1.
         -2    1    6    6    0  503  0.19766117304E+02  0.24914998876E+01  0.23578763102E+01  0.20061568874E+02  0.00000000000E+00 0.  1.
<mgrwt>
<rscale>  0 0.18889491E+04</rscale>
<asrwt>0</asrwt>
<pdfrwt beam="1">  1        2 0.13112284E+00 0.18889491E+04</pdfrwt>
<pdfrwt beam="2">  1       -1 0.16101839E+00 0.18889491E+04</pdfrwt>
<totfact> 0.97121467E+00</totfact>
</mgrwt>
</event>
<event>
12    7  0.1546317E-007  0.2236475E+04  0.7818608E-02  0.8503398E-01
         -1   -1    0    0    0  501 -0.00000000000E+00  0.00000000000E+00  0.49908127751E+03  0.49908127751E+03  0.00000000000E+00 0.  1.
          2   -1    0    0  501    0  0.00000000000E+00 -0.00000000000E+00 -0.25055146917E+04  0.25055146917E+04  0.00000000000E+00 0. -1.
         24    2    1    2    0    0  0.44909765946E+01  0.35598760606E+03 -0.20047935833E+04  0.20376893457E+04  0.78950702850E+02 0.  0.
        254    2    1    2    0    0 -0.44909765946E+01 -0.35598760606E+03 -0.16398309244E+01  0.96690662352E+03  0.89897629837E+03 0.  0.
         23    2    4    4    0    0 -0.37172268463E+03 -0.94655514264E+02  0.22483622784E+03  0.45409197412E+03  0.92253839817E+02 0.  0.
         23    2    4    4    0    0  0.36723170803E+03 -0.26133209180E+03 -0.22647605877E+03  0.51281464940E+03  0.92378947059E+02 0.  0.
          4    1    3    3  502    0 -0.26503204314E+02  0.73503972368E+02 -0.53495311221E+03  0.54062934258E+03  0.00000000000E+00 0. -1.
         -3    1    3    3    0  502  0.30994180908E+02  0.28248363369E+03 -0.14698404711E+04  0.14970600031E+04  0.00000000000E+00 0.  1.
         13    1    5    5    0    0 -0.10382667374E+03 -0.65560441133E+02  0.93381269711E+02  0.15426668841E+03  0.00000000000E+00 0.  1.
        -13    1    5    5    0    0 -0.26789601089E+03 -0.29095073131E+02  0.13145495813E+03  0.29982528571E+03  0.00000000000E+00 0. -1.
          3    1    6    6  503    0  0.14885791984E+03 -0.16252305898E+03 -0.10638409474E+03  0.24472433597E+03  0.00000000000E+00 0. -1.
         -3    1    6    6    0  503  0.21837378819E+03 -0.98809032815E+02 -0.12009196403E+03  0.26809031344E+03  0.00000000000E+00 0.  1.
<mgrwt>
<rscale>  0 0.22364753E+04</rscale>
<asrwt>0</asrwt>
<pdfrwt beam="1">  1        2 0.38546380E+00 0.22364753E+04</pdfrwt>
<pdfrwt beam="2">  1       -1 0.76781735E-01 0.22364753E+04</pdfrwt>
<totfact> 0.60985200E+00</totfact>
</mgrwt>
</event>
<event>
12    7  0.1546317E-007  0.1104623E+04  0.7818608E-02  0.9200697E-01
          2   -1    0    0  501    0  0.00000000000E+00  0.00000000000E+00  0.31057884885E+04  0.31057884885E+04  0.00000000000E+00 0. -1.
         -1   -1    0    0    0  501 -0.00000000000E+00 -0.00000000000E+00 -0.98219224530E+02  0.98219224530E+02  0.00000000000E+00 0.  1.
         24    2    1    2    0    0 -0.12752153713E+03 -0.75230157969E+02  0.26688075088E+03  0.31590936782E+03  0.81560250051E+02 0.  0.
        254    2    1    2    0    0  0.12752153713E+03  0.75230157969E+02  0.27406885131E+04  0.28880983452E+04  0.89878651899E+03 0.  0.
         23    2    4    4    0    0 -0.30808229756E+03 -0.71761561555E+02  0.18749660130E+04  0.19036661358E+04  0.91557538902E+02 0.  0.
         23    2    4    4    0    0  0.43560383469E+03  0.14699171952E+03  0.86572250010E+03  0.98443220941E+03  0.90961867518E+02 0.  0.
          2    1    3    3  502    0 -0.51570269029E+02 -0.15903815500E+02  0.17355951121E+03  0.18175623215E+03  0.00000000000E+00 0. -1.
         -1    1    3    3    0  502 -0.75951268097E+02 -0.59326342469E+02  0.93321239670E+02  0.13415313567E+03  0.00000000000E+00 0.  1.
         13    1    5    5    0    0 -0.29773242979E+03 -0.46589272777E+02  0.17514941348E+04  0.17772301101E+04  0.00000000000E+00 0.  1.
        -13    1    5    5    0    0 -0.10349867775E+02 -0.25172288778E+02  0.12347187827E+03  0.12643602576E+03  0.00000000000E+00 0. -1.
          1    1    6    6  503    0  0.15498803929E+02  0.27922109909E+02  0.63075909992E+02  0.70699558459E+02  0.00000000000E+00 0. -1.
         -1    1    6    6    0  503  0.42010503076E+03  0.11906960962E+03  0.80264659011E+03  0.91373265095E+03  0.00000000000E+00 0.  1.
<mgrwt>
<rscale>  0 0.11046233E+04</rscale>
<asrwt>0</asrwt>
<pdfrwt beam="1">  1        2 0.47781354E+00 0.11046233E+04</pdfrwt>
<pdfrwt beam="2">  1       -1 0.15110652E-01 0.11046233E+04</pdfrwt>
<totfact> 0.56009631E+01</totfact>
</mgrwt>
</event>
<event>
12    7  0.1546317E-007  0.2043905E+04  0.7818608E-02  0.8586364E-01
          2   -1    0    0  501    0  0.00000000000E+00  0.00000000000E+00  0.14001888292E+04  0.14001888292E+04  0.00000000000E+00 0. -1.
         -1   -1    0    0    0  501 -0.00000000000E+00 -0.00000000000E+00 -0.74589040963E+03  0.74589040963E+03  0.00000000000E+00 0.  1.
         24    2    1    2    0    0  0.23097417836E+03 -0.41260526737E+03 -0.44057089523E+03  0.65121410369E+03  0.79905678059E+02 0.  0.
        254    2    1    2    0    0 -0.23097417836E+03  0.41260526737E+03  0.10948693148E+04  0.14948651351E+04  0.90127175591E+03 0.  0.
         23    2    4    4    0    0  0.26830760016E+03  0.40307566346E+03  0.40089598030E+03  0.63478397027E+03  0.88171101376E+02 0.  0.
         23    2    4    4    0    0 -0.49928177852E+03  0.95296039103E+01  0.69397333450E+03  0.86008116485E+03  0.93635001107E+02 0.  0.
          2    1    3    3  502    0  0.38032977650E+01 -0.47710782186E+02 -0.28159146293E+02  0.55531264443E+02  0.00000000000E+00 0. -1.
         -1    1    3    3    0  502  0.22717088060E+03 -0.36489448519E+03 -0.41241174894E+03  0.59568283925E+03  0.00000000000E+00 0.  1.
         13    1    5    5    0    0  0.12058936919E+03  0.17409644056E+03  0.23231799471E+03  0.31436128458E+03  0.00000000000E+00 0. -1.
        -13    1    5    5    0    0  0.14771823096E+03  0.22897922290E+03  0.16857798559E+03  0.32042268569E+03  0.00000000000E+00 0.  1.
          1    1    6    6  503    0 -0.12102676495E+03 -0.37934996902E+02  0.16985287855E+03  0.21198241006E+03  0.00000000000E+00 0. -1.
         -1    1    6    6    0  503 -0.37825501357E+03  0.47464600812E+02  0.52412045595E+03  0.64809875480E+03  0.00000000000E+00 0.  1.
<mgrwt>
<rscale>  0 0.20439055E+04</rscale>
<asrwt>0</asrwt>
<pdfrwt beam="1">  1        2 0.21541366E+00 0.20439055E+04</pdfrwt>
<pdfrwt beam="2">  1       -1 0.11475237E+00 0.20439055E+04</pdfrwt>
<totfact> 0.10531218E+01</totfact>
</mgrwt>
</event>
<event>
12    7  0.1546317E-007  0.2124313E+04  0.7818608E-02  0.8550608E-01
         -1   -1    0    0    0  501 -0.00000000000E+00  0.00000000000E+00  0.43695037543E+03  0.43695037543E+03  0.00000000000E+00 0.  1.
          2   -1    0    0  501    0  0.00000000000E+00 -0.00000000000E+00 -0.25819338290E+04  0.25819338290E+04  0.00000000000E+00 0. -1.
         24    2    1    2    0    0 -0.42799530139E+02 -0.48874496603E+03  0.13777017618E+03  0.51728940526E+03  0.88905937644E+02 0.  0.
        254    2    1    2    0    0  0.42799530139E+02  0.48874496603E+03 -0.22827536297E+04  0.25015947992E+04  0.89794708281E+03 0.  0.
         23    2    4    4    0    0 -0.39813564428E+03  0.37519560128E+03 -0.13575296838E+04  0.14664301387E+04  0.90811777182E+02 0.  0.
         23    2    4    4    0    0  0.44093517442E+03  0.11354936475E+03 -0.92522394598E+03  0.10351646605E+04  0.90604844450E+02 0.  0.
          2    1    3    3  502    0 -0.23178511233E+02 -0.12217775436E+03 -0.23103646570E+01  0.12437839374E+03  0.00000000000E+00 0. -1.
         -1    1    3    3    0  502 -0.19621018906E+02 -0.36656721166E+03  0.14008054084E+03  0.39291101152E+03  0.00000000000E+00 0.  1.
         13    1    5    5    0    0 -0.39654526607E+03  0.37954220660E+03 -0.13352253573E+04  0.14436506466E+04  0.00000000000E+00 0.  1.
        -13    1    5    5    0    0 -0.15903782035E+01 -0.43466053261E+01 -0.22304326484E+02  0.22779492105E+02  0.00000000000E+00 0. -1.
          1    1    6    6  503    0  0.28229256511E+02  0.12630110769E+02 -0.12924442115E+03  0.13289293066E+03  0.00000000000E+00 0. -1.
         -1    1    6    6    0  503  0.41270591790E+03  0.10091925398E+03 -0.79597952483E+03  0.90227172982E+03  0.00000000000E+00 0.  1.
<mgrwt>
<rscale>  0 0.21243135E+04</rscale>
<asrwt>0</asrwt>
<pdfrwt beam="1">  1        2 0.39722057E+00 0.21243135E+04</pdfrwt>
<pdfrwt beam="2">  1       -1 0.67223138E-01 0.21243135E+04</pdfrwt>
<totfact> 0.73194815E+00</totfact>
</mgrwt>
</event>
<event>
12    7  0.1546317E-007  0.2043623E+04  0.7818608E-02  0.8586493E-01
         -1   -1    0    0    0  501 -0.00000000000E+00  0.00000000000E+00  0.38500291283E+03  0.38500291283E+03  0.00000000000E+00 0.  1.
          2   -1    0    0  501    0  0.00000000000E+00 -0.00000000000E+00 -0.27119248953E+04  0.27119248953E+04  0.00000000000E+00 0. -1.
         24    2    1    2    0    0  0.14523410659E+03 -0.77896957028E+03 -0.60924160782E+03  0.10027019691E+04  0.79682902894E+02 0.  0.
        254    2    1    2    0    0 -0.14523410659E+03  0.77896957028E+03 -0.17176803746E+04  0.20942258390E+04  0.89859304375E+03 0.  0.
         23    2    4    4    0    0  0.22307593295E+03  0.62517471502E+03 -0.58398891564E+03  0.88878935213E+03  0.91088762771E+02 0.  0.
         23    2    4    4    0    0 -0.36831003954E+03  0.15379485525E+03 -0.11336914590E+04  0.12054364869E+04  0.92280317469E+02 0.  0.
          2    1    3    3  502    0  0.10572581789E+03 -0.70071121135E+03 -0.53764163912E+03  0.88951260946E+03  0.00000000000E+00 0. -1.
         -1    1    3    3    0  502  0.39508288703E+02 -0.78258358928E+02 -0.71599968701E+02  0.11318935964E+03  0.00000000000E+00 0.  1.
         13    1    5    5    0    0  0.12677178013E+03  0.34518343496E+03 -0.38282738522E+03  0.53082906372E+03  0.00000000000E+00 0.  1.
        -13    1    5    5    0    0  0.96304152818E+02  0.27999128006E+03 -0.20116153041E+03  0.35796028841E+03  0.00000000000E+00 0. -1.
          1    1    6    6  503    0 -0.19067151436E+03  0.55944914391E+02 -0.44171125455E+03  0.48434934936E+03  0.00000000000E+00 0. -1.
         -1    1    6    6    0  503 -0.17763852518E+03  0.97849940862E+02 -0.69198020446E+03  0.72108713754E+03  0.00000000000E+00 0.  1.
<mgrwt>
<rscale>  0 0.20436232E+04</rscale>
<asrwt>0</asrwt>
<pdfrwt beam="1">  1        2 0.41721922E+00 0.20436232E+04</pdfrwt>
<pdfrwt beam="2">  1       -1 0.59231216E-01 0.20436232E+04</pdfrwt>
<totfact> 0.79615469E+00</totfact>
</mgrwt>
</event>
<event>
12    7  0.1546317E-007  0.1314390E+04  0.7818608E-02  0.9018231E-01
          2   -1    0    0  501    0  0.00000000000E+00  0.00000000000E+00  0.88372990542E+03  0.88372990542E+03  0.00000000000E+00 0. -1.
         -1   -1    0    0    0  501 -0.00000000000E+00 -0.00000000000E+00 -0.48873012552E+03  0.48873012552E+03  0.00000000000E+00 0.  1.
         24    2    1    2    0    0 -0.58203827523E+01  0.26789177035E+03 -0.11374736949E+03  0.30340323680E+03  0.85528840515E+02 0.  0.
        254    2    1    2    0    0  0.58203827523E+01 -0.26789177035E+03  0.50874714939E+03  0.10690567941E+04  0.90125406495E+03 0.  0.
         23    2    4    4    0    0 -0.32369098509E+03 -0.23360475986E+03  0.58699122095E+03  0.71568913209E+03  0.91132884599E+02 0.  0.
         23    2    4    4    0    0  0.32951136784E+03 -0.34287010486E+02 -0.78244071558E+02  0.35336766204E+03  0.94832637935E+02 0.  0.
          4    1    3    3  502    0 -0.98096766473E+01  0.49114747648E+02 -0.59865069566E+02  0.78053281459E+02  0.00000000000E+00 0. -1.
         -3    1    3    3    0  502  0.39892938949E+01  0.21877702270E+03 -0.53882299924E+02  0.22534995534E+03  0.00000000000E+00 0.  1.
         13    1    5    5    0    0 -0.24008126786E+03 -0.21813084562E+03  0.46946487098E+03  0.57062890400E+03  0.00000000000E+00 0.  1.
        -13    1    5    5    0    0 -0.83609717227E+02 -0.15473914242E+02  0.11752634996E+03  0.14506022809E+03  0.00000000000E+00 0. -1.
          4    1    6    6  503    0 -0.15054102006E+01  0.67353807156E+01  0.62195629881E+01  0.92905638699E+01  0.00000000000E+00 0. -1.
         -4    1    6    6    0  503  0.33101677805E+03 -0.41022391202E+02 -0.84463634546E+02  0.34407709817E+03  0.00000000000E+00 0.  1.
<mgrwt>
<rscale>  0 0.13143902E+04</rscale>
<asrwt>0</asrwt>
<pdfrwt beam="1">  1        2 0.13595845E+00 0.13143902E+04</pdfrwt>
<pdfrwt beam="2">  1       -1 0.75189250E-01 0.13143902E+04</pdfrwt>
<totfact> 0.59803859E+01</totfact>
</mgrwt>
</event>
<event>
12    7  0.1546317E-007  0.3124523E+04  0.7818608E-02  0.8209040E-01
         -1   -1    0    0    0  501 -0.00000000000E+00  0.00000000000E+00  0.18290613083E+04  0.18290613083E+04  0.00000000000E+00 0.  1.
          2   -1    0    0  501    0  0.00000000000E+00 -0.00000000000E+00 -0.13343786539E+04  0.13343786539E+04  0.00000000000E+00 0. -1.
         24    2    1    2    0    0  0.10972690020E+04 -0.91464808191E+03  0.18600308276E+03  0.14428326480E+04  0.81169740724E+02 0.  0.
        254    2    1    2    0    0 -0.10972690020E+04  0.91464808191E+03  0.30867957167E+03  0.17206073143E+04  0.90808924431E+03 0.  0.
         23    2    4    4    0    0 -0.59266802854E+03  0.95618816978E+03  0.15382325579E+02  0.11287750410E+04  0.91352444185E+02 0.  0.
         23    2    4    4    0    0 -0.50460097342E+03 -0.41540087866E+02  0.29329724609E+03  0.59183227334E+03  0.88850683332E+02 0.  0.
          4    1    3    3  502    0  0.17602408586E+03 -0.18275478358E+03  0.47093175495E+02  0.25807277443E+03  0.00000000000E+00 0. -1.
         -3    1    3    3    0  502  0.92124491610E+03 -0.73189329833E+03  0.13890990727E+03  0.11847598735E+04  0.00000000000E+00 0.  1.
         13    1    5    5    0    0 -0.11330779433E+03  0.23343349642E+03 -0.24158998057E+02  0.26060220777E+03  0.00000000000E+00 0.  1.
        -13    1    5    5    0    0 -0.47936023420E+03  0.72275467336E+03  0.39541323636E+02  0.86817283318E+03  0.00000000000E+00 0. -1.
          4    1    6    6  503    0 -0.31596894129E+03  0.15439445617E+01  0.14299086135E+03  0.34682148442E+03  0.00000000000E+00 0.  1.
         -4    1    6    6    0  503 -0.18863203213E+03 -0.43084032428E+02  0.15030638473E+03  0.24501078892E+03  0.00000000000E+00 0. -1.
<mgrwt>
<rscale>  0 0.31245226E+04</rscale>
<asrwt>0</asrwt>
<pdfrwt beam="1">  1        2 0.20528902E+00 0.31245226E+04</pdfrwt>
<pdfrwt beam="2">  1       -1 0.28139405E+00 0.31245226E+04</pdfrwt>
<totfact> 0.66406632E-01</totfact>
</mgrwt>
</event>
<event>
12    7  0.1546317E-007  0.2455898E+04  0.7818608E-02  0.8418868E-01
         -1   -1    0    0    0  501 -0.00000000000E+00  0.00000000000E+00  0.11840327842E+04  0.11840327842E+04  0.00000000000E+00 0.  1.
          2   -1    0    0  501    0  0.00000000000E+00 -0.00000000000E+00 -0.12734936706E+04  0.12734936706E+04  0.00000000000E+00 0. -1.
         24    2    1    2    0    0 -0.11128979082E+03 -0.75587169276E+03 -0.77455176834E+03  0.10907240415E+04  0.77595485958E+02 0.  0.
        254    2    1    2    0    0  0.11128979082E+03  0.75587169276E+03  0.68509088196E+03  0.13668024133E+04  0.90281331785E+03 0.  0.
         23    2    4    4    0    0  0.60310435406E+02 -0.19576078086E+03  0.10616924434E+03  0.24807896867E+03  0.91168165004E+02 0.  0.
         23    2    4    4    0    0  0.50979355417E+02  0.95163247363E+03  0.57892163762E+03  0.11187234446E+04  0.90491012953E+02 0.  0.
          2    1    3    3  502    0 -0.57068291260E+02 -0.34904750376E+03 -0.41317753770E+03  0.54388107837E+03  0.00000000000E+00 0. -1.
         -1    1    3    3    0  502 -0.54221499563E+02 -0.40682418900E+03 -0.36137423064E+03  0.54684296315E+03  0.00000000000E+00 0.  1.
         13    1    5    5    0    0  0.66787907577E+02 -0.18253917928E+03  0.11953996583E+03  0.22819066589E+03  0.00000000000E+00 0. -1.
        -13    1    5    5    0    0 -0.64774721707E+01 -0.13221601586E+02 -0.13370721491E+02  0.19888302779E+02  0.00000000000E+00 0.  1.
          2    1    6    6  503    0  0.45490942173E+02  0.88565608905E+03  0.56362315805E+03  0.10507745706E+04  0.00000000000E+00 0. -1.
         -2    1    6    6    0  503  0.54884132436E+01  0.65976384575E+02  0.15298479576E+02  0.67948874007E+02  0.00000000000E+00 0.  1.
<mgrwt>
<rscale>  0 0.24558976E+04</rscale>
<asrwt>0</asrwt>
<pdfrwt beam="1">  1        2 0.19592210E+00 0.24558976E+04</pdfrwt>
<pdfrwt beam="2">  1       -1 0.18215889E+00 0.24558976E+04</pdfrwt>
<totfact> 0.35097723E+00</totfact>
</mgrwt>
</event>
<event>
12    7  0.1546317E-007  0.2169504E+04  0.7818608E-02  0.8531230E-01
         -1   -1    0    0    0  501 -0.00000000000E+00  0.00000000000E+00  0.11366645770E+04  0.11366645770E+04  0.00000000000E+00 0.  1.
          2   -1    0    0  501    0  0.00000000000E+00 -0.00000000000E+00 -0.10352100833E+04  0.10352100833E+04  0.00000000000E+00 0. -1.
         24    2    1    2    0    0 -0.25372822707E+03  0.48435113158E+03  0.75301262706E+03  0.93403325084E+03  0.80100345126E+02 0.  0.
        254    2    1    2    0    0  0.25372822707E+03 -0.48435113158E+03 -0.65155813338E+03  0.12378414094E+04  0.89930491040E+03 0.  0.
         23    2    4    4    0    0 -0.25028330441E+03 -0.31347946222E+03 -0.55291692624E+03  0.68905253324E+03  0.90361277899E+02 0.  0.
         23    2    4    4    0    0  0.50401153148E+03 -0.17087166936E+03 -0.98641207147E+02  0.54878887620E+03  0.90633281063E+02 0.  0.
          2    1    3    3  502    0 -0.14500061084E+03  0.19170699127E+03  0.32055039960E+03  0.40066108662E+03  0.00000000000E+00 0. -1.
         -1    1    3    3    0  502 -0.10872761623E+03  0.29264414031E+03  0.43246222746E+03  0.53337216422E+03  0.00000000000E+00 0.  1.
         13    1    5    5    0    0 -0.19666251713E+03 -0.18179519748E+03 -0.33574613784E+03  0.42947771600E+03  0.00000000000E+00 0.  1.
        -13    1    5    5    0    0 -0.53620787279E+02 -0.13168426474E+03 -0.21717078840E+03  0.25957481724E+03  0.00000000000E+00 0. -1.
          3    1    6    6  503    0  0.49682253892E+03 -0.15347002993E+03 -0.10133709712E+03  0.52976871607E+03  0.00000000000E+00 0. -1.
         -3    1    6    6    0  503  0.71889925599E+01 -0.17401639429E+02  0.26958899706E+01  0.19020160136E+02  0.00000000000E+00 0.  1.
<mgrwt>
<rscale>  0 0.21695038E+04</rscale>
<asrwt>0</asrwt>
<pdfrwt beam="1">  1        2 0.15926309E+00 0.21695038E+04</pdfrwt>
<pdfrwt beam="2">  1       -1 0.17487147E+00 0.21695038E+04</pdfrwt>
<totfact> 0.56655532E+00</totfact>
</mgrwt>
</event>
<event>
12    7  0.1546317E-007  0.2036974E+04  0.7818608E-02  0.8589526E-01
         -1   -1    0    0    0  501 -0.00000000000E+00  0.00000000000E+00  0.45703328525E+03  0.45703328525E+03  0.00000000000E+00 0.  1.
          2   -1    0    0  501    0  0.00000000000E+00 -0.00000000000E+00 -0.22696731229E+04  0.22696731229E+04  0.00000000000E+00 0. -1.
         24    2    1    2    0    0  0.57133739108E+03  0.76223518142E+01 -0.15163002216E+04  0.16223949690E+04  0.80712818133E+02 0.  0.
        254    2    1    2    0    0 -0.57133739108E+03 -0.76223518142E+01 -0.29633961610E+03  0.11043114391E+04  0.89733052539E+03 0.  0.
         23    2    4    4    0    0 -0.33085133953E+03  0.20935680449E+03  0.24246169897E+03  0.46920826162E+03  0.89865660018E+02 0.  0.
         23    2    4    4    0    0 -0.24048605155E+03 -0.21697915630E+03 -0.53880131507E+03  0.63510317750E+03  0.90198080284E+02 0.  0.
          4    1    3    3  502    0  0.27356155339E+03  0.39075561522E+02 -0.78204549006E+03  0.82943231883E+03  0.00000000000E+00 0. -1.
         -3    1    3    3    0  502  0.29777583769E+03 -0.31453209708E+02 -0.73425473149E+03  0.79296265021E+03  0.00000000000E+00 0.  1.
         13    1    5    5    0    0 -0.20495956692E+03  0.16514416076E+03  0.19504876487E+03  0.32760500391E+03  0.00000000000E+00 0.  1.
        -13    1    5    5    0    0 -0.12589177260E+03  0.44212643730E+02  0.47412934096E+02  0.14160325771E+03  0.00000000000E+00 0. -1.
          3    1    6    6  503    0 -0.65317585272E+01 -0.26124626298E+02 -0.91940688249E+02  0.95803184313E+02  0.00000000000E+00 0. -1.
         -3    1    6    6    0  503 -0.23395429302E+03 -0.19085453000E+03 -0.44686062682E+03  0.53929999319E+03  0.00000000000E+00 0.  1.
<mgrwt>
<rscale>  0 0.20369744E+04</rscale>
<asrwt>0</asrwt>
<pdfrwt beam="1">  1        2 0.34918048E+00 0.20369744E+04</pdfrwt>
<pdfrwt beam="2">  1       -1 0.70312813E-01 0.20369744E+04</pdfrwt>
<totfact> 0.10168400E+01</totfact>
</mgrwt>
</event>
<event>
12    7  0.1546317E-007  0.2462387E+04  0.7818608E-02  0.8416509E-01
         -1   -1    0    0    0  501 -0.00000000000E+00  0.00000000000E+00  0.18081716281E+04  0.18081716281E+04  0.00000000000E+00 0.  1.
          2   -1    0    0  501    0  0.00000000000E+00 -0.00000000000E+00 -0.83832630366E+03  0.83832630366E+03  0.00000000000E+00 0. -1.
         24    2    1    2    0    0  0.82498679194E+03  0.52161959231E+03 -0.52433292188E+02  0.98077706104E+03  0.80524452051E+02 0.  0.
        254    2    1    2    0    0 -0.82498679194E+03 -0.52161959231E+03  0.10222786166E+04  0.16657208707E+04  0.88140923707E+03 0.  0.
         23    2    4    4    0    0 -0.91574509891E+03 -0.65532069771E+03  0.87325232359E+03  0.14279453310E+04  0.91782049496E+02 0.  0.
         23    2    4    4    0    0  0.90758306971E+02  0.13370110540E+03  0.14902629305E+03  0.23777553974E+03  0.90638377132E+02 0.  0.
          4    1    3    3  502    0  0.78420845002E+03  0.47290288421E+03 -0.45911221141E+02  0.91691213931E+03  0.00000000000E+00 0. -1.
         -3    1    3    3    0  502  0.40778341920E+02  0.48716708097E+02 -0.65220710466E+01  0.63864921736E+02  0.00000000000E+00 0.  1.
         13    1    5    5    0    0 -0.71080265190E+03 -0.45980607489E+03  0.65523000829E+03  0.10705084774E+04  0.00000000000E+00 0. -1.
        -13    1    5    5    0    0 -0.20494244701E+03 -0.19551462282E+03  0.21802231530E+03  0.35743685358E+03  0.00000000000E+00 0.  1.
          4    1    6    6  503    0  0.93266852561E+02  0.10379607265E+03  0.76165549918E+02  0.15897648090E+03  0.00000000000E+00 0. -1.
         -4    1    6    6    0  503 -0.25085455905E+01  0.29905032752E+02  0.72860743133E+02  0.78799058845E+02  0.00000000000E+00 0.  1.
<mgrwt>
<rscale>  0 0.24623873E+04</rscale>
<asrwt>0</asrwt>
<pdfrwt beam="1">  1        2 0.12897328E+00 0.24623873E+04</pdfrwt>
<pdfrwt beam="2">  1       -1 0.27818025E+00 0.24623873E+04</pdfrwt>
<totfact> 0.15092154E+00</totfact>
</mgrwt>
</event>
<event>
12    7  0.1546317E-007  0.1297331E+04  0.7818608E-02  0.9031684E-01
          2   -1    0    0  501    0  0.00000000000E+00  0.00000000000E+00  0.64595635388E+03  0.64595635388E+03  0.00000000000E+00 0. -1.
         -1   -1    0    0    0  501 -0.00000000000E+00 -0.00000000000E+00 -0.65138593182E+03  0.65138593182E+03  0.00000000000E+00 0.  1.
         24    2    1    2    0    0  0.98821109822E+02  0.87429012859E+02 -0.28761014412E+03  0.33375620839E+03  0.10613278289E+03 0.  0.
        254    2    1    2    0    0 -0.98821109822E+02 -0.87429012859E+02  0.28218056618E+03  0.96358607731E+03  0.91184582711E+03 0.  0.
         23    2    4    4    0    0 -0.20850850855E+03  0.78789743446E+02 -0.27453956907E+03  0.36529408061E+03  0.91565105460E+02 0.  0.
         23    2    4    4    0    0  0.10968739872E+03 -0.16621875631E+03  0.55672013525E+03  0.59829199670E+03  0.91411180571E+02 0.  0.
          2    1    3    3  502    0  0.90552310051E+02  0.99301783988E+02 -0.17717353843E+03  0.22237587072E+03  0.00000000000E+00 0. -1.
         -1    1    3    3    0  502  0.82687997707E+01 -0.11872771128E+02 -0.11043660569E+03  0.11138033767E+03  0.00000000000E+00 0.  1.
         13    1    5    5    0    0 -0.25518788905E+01  0.46864670044E+01  0.69226258027E+01  0.87405838970E+01  0.00000000000E+00 0.  1.
        -13    1    5    5    0    0 -0.20595662966E+03  0.74103276442E+02 -0.28146219487E+03  0.35655349671E+03  0.00000000000E+00 0. -1.
          1    1    6    6  503    0  0.10037254449E+03 -0.16498391172E+03  0.55632166976E+03  0.58888720402E+03  0.00000000000E+00 0. -1.
         -1    1    6    6    0  503  0.93148542319E+01 -0.12348445894E+01  0.39846548645E+00  0.94047926753E+01  0.00000000000E+00 0.  1.
<mgrwt>
<rscale>  0 0.12973309E+04</rscale>
<asrwt>0</asrwt>
<pdfrwt beam="1">  1        2 0.99377900E-01 0.12973309E+04</pdfrwt>
<pdfrwt beam="2">  1       -1 0.10021322E+00 0.12973309E+04</pdfrwt>
<totfact> 0.48162404E+01</totfact>
</mgrwt>
</event>
<event>
12    7  0.1546317E-007  0.3237896E+04  0.7818608E-02  0.8178880E-01
         -1   -1    0    0    0  501 -0.00000000000E+00  0.00000000000E+00  0.12133397444E+04  0.12133397444E+04  0.00000000000E+00 0.  1.
          2   -1    0    0  501    0  0.00000000000E+00 -0.00000000000E+00 -0.21601467796E+04  0.21601467796E+04  0.00000000000E+00 0. -1.
         24    2    1    2    0    0  0.12560213916E+04 -0.28205992399E+03 -0.12231501340E+04  0.17774080761E+04  0.77043376652E+02 0.  0.
        254    2    1    2    0    0 -0.12560213916E+04  0.28205992399E+03  0.27634309882E+03  0.15960784479E+04  0.90219364159E+03 0.  0.
         23    2    4    4    0    0 -0.93049536800E+03 -0.60071904854E+02  0.50379682586E+03  0.10636844315E+04  0.90460291723E+02 0.  0.
         23    2    4    4    0    0 -0.32552602357E+03  0.34213182884E+03 -0.22745372704E+03  0.53239401648E+03  0.93203060622E+02 0.  0.
          4    1    3    3  502    0  0.80722764092E+03 -0.14882266267E+03 -0.75223550307E+03  0.11133835374E+04  0.00000000000E+00 0. -1.
         -1    1    3    3    0  502  0.44879375065E+03 -0.13323726131E+03 -0.47091463089E+03  0.66402453871E+03  0.00000000000E+00 0.  1.
         13    1    5    5    0    0 -0.83596359940E+03 -0.64190071321E+02  0.48005225116E+03  0.96612921942E+03  0.00000000000E+00 0.  1.
        -13    1    5    5    0    0 -0.94531768603E+02  0.41181664674E+01  0.23744574704E+02  0.97555212050E+02  0.00000000000E+00 0. -1.
          1    1    6    6  503    0 -0.76362159715E+02  0.12021525237E+03 -0.10512864974E+03  0.17701672049E+03  0.00000000000E+00 0. -1.
         -1    1    6    6    0  503 -0.24916386385E+03  0.22191657647E+03 -0.12232507730E+03  0.35537729598E+03  0.00000000000E+00 0.  1.
<mgrwt>
<rscale>  0 0.32378956E+04</rscale>
<asrwt>0</asrwt>
<pdfrwt beam="1">  1        2 0.33233027E+00 0.32378956E+04</pdfrwt>
<pdfrwt beam="2">  1       -1 0.18666765E+00 0.32378956E+04</pdfrwt>
<totfact> 0.96802000E-01</totfact>
</mgrwt>
</event>
<event>
12    7  0.1546317E-007  0.1280639E+04  0.7818608E-02  0.9045061E-01
          2   -1    0    0  501    0  0.00000000000E+00  0.00000000000E+00  0.97833571680E+03  0.97833571680E+03  0.00000000000E+00 0. -1.
         -1   -1    0    0    0  501 -0.00000000000E+00 -0.00000000000E+00 -0.41908839065E+03  0.41908839065E+03  0.00000000000E+00 0.  1.
         24    2    1    2    0    0 -0.20909150268E+03  0.22335576493E+03  0.75094424532E+02  0.32401232707E+03  0.75748011684E+02 0.  0.
        254    2    1    2    0    0  0.20909150268E+03 -0.22335576493E+03  0.48415290162E+03  0.10734117804E+04  0.90785558539E+03 0.  0.
         23    2    4    4    0    0 -0.85870183821E+02  0.28982871209E+03  0.20954808626E+02  0.31653680386E+03  0.91553663890E+02 0.  0.
         23    2    4    4    0    0  0.29496168651E+03 -0.51318447701E+03  0.46319809299E+03  0.75687497654E+03  0.89143439465E+02 0.  0.
          4    1    3    3  502    0 -0.33265889400E+02  0.16046012620E+02 -0.11565463658E+02  0.38702117103E+02  0.00000000000E+00 0. -1.
         -3    1    3    3    0  502 -0.17582561328E+03  0.20730975231E+03  0.86659888190E+02  0.28531020996E+03  0.00000000000E+00 0.  1.
         13    1    5    5    0    0 -0.40181831514E+02  0.13736205603E+03  0.55783490343E+02  0.15360570242E+03  0.00000000000E+00 0. -1.
        -13    1    5    5    0    0 -0.45688352307E+02  0.15246665606E+03 -0.34828681717E+02  0.16293110144E+03  0.00000000000E+00 0.  1.
          2    1    6    6  503    0  0.10673684028E+03 -0.17222701238E+03  0.10723112563E+03  0.22924530785E+03  0.00000000000E+00 0. -1.
         -2    1    6    6    0  503  0.18822484622E+03 -0.34095746463E+03  0.35596696736E+03  0.52762966868E+03  0.00000000000E+00 0.  1.
<mgrwt>
<rscale>  0 0.12806391E+04</rscale>
<asrwt>0</asrwt>
<pdfrwt beam="1">  1        2 0.15051319E+00 0.12806391E+04</pdfrwt>
<pdfrwt beam="2">  1       -1 0.64475137E-01 0.12806391E+04</pdfrwt>
<totfact> 0.71062601E+01</totfact>
</mgrwt>
</event>
<event>
12    7  0.1546317E-007  0.2064262E+04  0.7818608E-02  0.8577152E-01
         -1   -1    0    0    0  501 -0.00000000000E+00  0.00000000000E+00  0.52394028921E+03  0.52394028921E+03  0.00000000000E+00 0.  1.
          2   -1    0    0  501    0  0.00000000000E+00 -0.00000000000E+00 -0.20332371678E+04  0.20332371678E+04  0.00000000000E+00 0. -1.
         24    2    1    2    0    0  0.61995510340E+03  0.37772550120E+03 -0.11074379019E+04  0.13265935417E+04  0.80067683282E+02 0.  0.
        254    2    1    2    0    0 -0.61995510340E+03 -0.37772550120E+03 -0.40185897671E+03  0.12305839153E+04  0.90874927837E+03 0.  0.
         23    2    4    4    0    0 -0.82042586279E+03 -0.29372389227E+03 -0.15379134068E+03  0.88967051935E+03  0.92138674363E+02 0.  0.
         23    2    4    4    0    0  0.20047075938E+03 -0.84001608929E+02 -0.24806763603E+03  0.34091339595E+03  0.86253091664E+02 0.  0.
          4    1    3    3  502    0  0.25002776163E+03  0.13034974513E+03 -0.49280485071E+03  0.56776893058E+03  0.00000000000E+00 0. -1.
         -3    1    3    3    0  502  0.36992734177E+03  0.24737575606E+03 -0.61463305114E+03  0.75882461111E+03  0.00000000000E+00 0.  1.
         13    1    5    5    0    0 -0.43495166014E+03 -0.18076135275E+03 -0.12296768106E+03  0.48680454383E+03  0.00000000000E+00 0. -1.
        -13    1    5    5    0    0 -0.38547420265E+03 -0.11296253952E+03 -0.30823659623E+02  0.40286597552E+03  0.00000000000E+00 0.  1.
          2    1    6    6  503    0  0.19813102144E+03 -0.63386247113E+02 -0.20005642452E+03  0.28861096821E+03  0.00000000000E+00 0. -1.
         -2    1    6    6    0  503  0.23397379401E+01 -0.20615361816E+02 -0.48011211509E+02  0.52302427736E+02  0.00000000000E+00 0.  1.
<mgrwt>
<rscale>  0 0.20642625E+04</rscale>
<asrwt>0</asrwt>
<pdfrwt beam="1">  1        2 0.31280572E+00 0.20642625E+04</pdfrwt>
<pdfrwt beam="2">  1       -1 0.80606199E-01 0.20642625E+04</pdfrwt>
<totfact> 0.10339590E+01</totfact>
</mgrwt>
</event>
<event>
12    7  0.1546317E-007  0.1432154E+04  0.7818608E-02  0.8930867E-01
         -1   -1    0    0    0  501 -0.00000000000E+00  0.00000000000E+00  0.59422439892E+03  0.59422439892E+03  0.00000000000E+00 0.  1.
          2   -1    0    0  501    0  0.00000000000E+00 -0.00000000000E+00 -0.86291741242E+03  0.86291741242E+03  0.00000000000E+00 0. -1.
         24    2    1    2    0    0 -0.37820223890E+03 -0.12317499404E+03 -0.23513316642E+03  0.46890358656E+03  0.79837051988E+02 0.  0.
        254    2    1    2    0    0  0.37820223890E+03  0.12317499404E+03 -0.33559847085E+02  0.98823822479E+03  0.90403512815E+03 0.  0.
         23    2    4    4    0    0 -0.20826936257E+03 -0.20861526735E+03 -0.38368971659E+01  0.30798043257E+03  0.89110986452E+02 0.  0.
         23    2    4    4    0    0  0.58647160147E+03  0.33179026139E+03 -0.29722949919E+02  0.68025779222E+03  0.88507023675E+02 0.  0.
          4    1    3    3  502    0 -0.93190292545E+01  0.80794712737E+01 -0.16040985019E+02  0.20234509203E+02  0.00000000000E+00 0. -1.
         -3    1    3    3    0  502 -0.36888320965E+03 -0.13125446531E+03 -0.21909218140E+03  0.44866907735E+03  0.00000000000E+00 0.  1.
         13    1    5    5    0    0 -0.16764859789E+02 -0.23568809775E+02  0.27415806796E+02  0.39851923169E+02  0.00000000000E+00 0. -1.
        -13    1    5    5    0    0 -0.19150450278E+03 -0.18504645758E+03 -0.31252703962E+02  0.26812850940E+03  0.00000000000E+00 0.  1.
          4    1    6    6  503    0  0.11944267040E+02  0.12626832674E+02  0.12907981498E+02  0.21649905424E+02  0.00000000000E+00 0. -1.
         -4    1    6    6    0  503  0.57452733443E+03  0.31916342872E+03 -0.42630931417E+02  0.65860788680E+03  0.00000000000E+00 0.  1.
<mgrwt>
<rscale>  0 0.14321544E+04</rscale>
<asrwt>0</asrwt>
<pdfrwt beam="1">  1        2 0.13275652E+00 0.14321544E+04</pdfrwt>
<pdfrwt beam="2">  1       -1 0.91419139E-01 0.14321544E+04</pdfrwt>
<totfact> 0.40219919E+01</totfact>
</mgrwt>
</event>
<event>
12    7  0.1546317E-007  0.2094379E+04  0.7818608E-02  0.8563723E-01
          2   -1    0    0  501    0  0.00000000000E+00  0.00000000000E+00  0.19846484467E+04  0.19846484467E+04  0.00000000000E+00 0. -1.
         -1   -1    0    0    0  501 -0.00000000000E+00 -0.00000000000E+00 -0.55254414741E+03  0.55254414741E+03  0.00000000000E+00 0.  1.
         24    2    1    2    0    0 -0.49502407346E+03 -0.37565159842E+03 -0.12139114991E+03  0.63824515598E+03  0.80362373948E+02 0.  0.
        254    2    1    2    0    0  0.49502407346E+03  0.37565159842E+03  0.15534954492E+04  0.18989474382E+04  0.89804805295E+03 0.  0.
         23    2    4    4    0    0  0.22776337032E+03  0.11575794817E+03 -0.26680850893E+02  0.27274439744E+03  0.91660150040E+02 0.  0.
         23    2    4    4    0    0  0.26726070315E+03  0.25989365025E+03  0.15801763001E+04  0.16262030407E+04  0.92769592479E+02 0.  0.
          2    1    3    3  502    0  0.30890303845E+01 -0.80708775054E+00 -0.78355271598E+00  0.32874692716E+01  0.00000000000E+00 0. -1.
         -1    1    3    3    0  502 -0.49811310385E+03 -0.37484451067E+03 -0.12060759720E+03  0.63495768670E+03  0.00000000000E+00 0.  1.
         13    1    5    5    0    0  0.18275187883E+03  0.95150051685E+02 -0.58146561070E+02  0.21408597366E+03  0.00000000000E+00 0.  1.
        -13    1    5    5    0    0  0.45011491485E+02  0.20607896486E+02  0.31465710177E+02  0.58658423779E+02  0.00000000000E+00 0. -1.
          3    1    6    6  503    0  0.67890841073E+02  0.12736037496E+03  0.63215017919E+03  0.64841628639E+03  0.00000000000E+00 0. -1.
         -3    1    6    6    0  503  0.19936986207E+03  0.13253327529E+03  0.94802612094E+03  0.97778675433E+03  0.00000000000E+00 0.  1.
<mgrwt>
<rscale>  0 0.20943790E+04</rscale>
<asrwt>0</asrwt>
<pdfrwt beam="1">  1        2 0.30533053E+00 0.20943790E+04</pdfrwt>
<pdfrwt beam="2">  1       -1 0.85006793E-01 0.20943790E+04</pdfrwt>
<totfact> 0.97893045E+00</totfact>
</mgrwt>
</event>
<event>
12    7  0.1546317E-007  0.2183614E+04  0.7818608E-02  0.8525279E-01
         -1   -1    0    0    0  501 -0.00000000000E+00  0.00000000000E+00  0.83246210705E+03  0.83246210705E+03  0.00000000000E+00 0.  1.
          2   -1    0    0  501    0  0.00000000000E+00 -0.00000000000E+00 -0.14319482694E+04  0.14319482694E+04  0.00000000000E+00 0. -1.
         24    2    1    2    0    0 -0.75053659632E+03 -0.52569606263E+03 -0.21698632215E+03  0.94493003329E+03  0.78410274406E+02 0.  0.
        254    2    1    2    0    0  0.75053659632E+03  0.52569606263E+03 -0.38249984016E+03  0.13194803431E+04  0.86894229699E+03 0.  0.
         23    2    4    4    0    0  0.36172780152E+03 -0.79449137986E+02 -0.45195033275E+03  0.59090402661E+03  0.88030094087E+02 0.  0.
         23    2    4    4    0    0  0.38880879480E+03  0.60514520062E+03  0.69450492597E+02  0.72857631652E+03  0.92882104467E+02 0.  0.
          4    1    3    3  502    0 -0.44324398921E+03 -0.27219271710E+03 -0.14644075066E+03  0.54036932062E+03  0.00000000000E+00 0. -1.
         -3    1    3    3    0  502 -0.30729260710E+03 -0.25350334553E+03 -0.70545571492E+02  0.40456071267E+03  0.00000000000E+00 0.  1.
         13    1    5    5    0    0  0.15370408764E+03 -0.40354806600E+02 -0.26241079250E+03  0.30677822770E+03  0.00000000000E+00 0. -1.
        -13    1    5    5    0    0  0.20802371388E+03 -0.39094331387E+02 -0.18953954026E+03  0.28412579890E+03  0.00000000000E+00 0.  1.
          3    1    6    6  503    0  0.31324273837E+03  0.41246762780E+03  0.60027062336E+02  0.52139601584E+03  0.00000000000E+00 0. -1.
         -3    1    6    6    0  503  0.75566056428E+02  0.19267757282E+03  0.94234302610E+01  0.20718030068E+03  0.00000000000E+00 0.  1.
<mgrwt>
<rscale>  0 0.21836141E+04</rscale>
<asrwt>0</asrwt>
<pdfrwt beam="1">  1        2 0.22029973E+00 0.21836141E+04</pdfrwt>
<pdfrwt beam="2">  1       -1 0.12807109E+00 0.21836141E+04</pdfrwt>
<totfact> 0.76204485E+00</totfact>
</mgrwt>
</event>
<event>
12    7  0.1564435E-007  0.1917162E+04  0.7818608E-02  0.8646361E-01
          2   -1    0    0  501    0  0.00000000000E+00  0.00000000000E+00  0.11163322552E+04  0.11163322552E+04  0.00000000000E+00 0. -1.
         -1   -1    0    0    0  501 -0.00000000000E+00 -0.00000000000E+00 -0.82312186402E+03  0.82312186402E+03  0.00000000000E+00 0.  1.
         24    2    1    2    0    0 -0.35576038480E+03  0.35872182466E+03 -0.43764998166E+03  0.67298178634E+03  0.78231575547E+02 0.  0.
        254    2    1    2    0    0  0.35576038480E+03 -0.35872182466E+03  0.73086037288E+03  0.12664723329E+04  0.90252339943E+03 0.  0.
         23    2    4    4    0    0  0.51048392551E+03  0.10878776872E+02  0.12392400710E+03  0.53363820855E+03  0.93275892403E+02 0.  0.
         23    2    4    4    0    0 -0.15472354070E+03 -0.36960060153E+03  0.60693636578E+03  0.73283412437E+03  0.90167194908E+02 0.  0.
          4    1    3    3  502    0 -0.13527178149E+02 -0.23686526042E+01 -0.11330882506E+02  0.17804043423E+02  0.00000000000E+00 0. -1.
         -3    1    3    3    0  502 -0.34223320666E+03  0.36109047726E+03 -0.42631909916E+03  0.65517774292E+03  0.00000000000E+00 0.  1.
         13    1    5    5    0    0  0.12407367916E+03  0.23671447604E+02  0.66585949827E+02  0.14278761853E+03  0.00000000000E+00 0. -1.
        -13    1    5    5    0    0  0.38641024635E+03 -0.12792670732E+02  0.57338057275E+02  0.39085059002E+03  0.00000000000E+00 0.  1.
          1    1    6    6  503    0 -0.32867985104E+02 -0.94373191788E+02  0.89160169505E+02  0.13392587352E+03  0.00000000000E+00 0. -1.
         -1    1    6    6    0  503 -0.12185555560E+03 -0.27522740974E+03  0.51777619628E+03  0.59890825085E+03  0.00000000000E+00 0.  1.
<mgrwt>
<rscale>  0 0.19171620E+04</rscale>
<asrwt>0</asrwt>
<pdfrwt beam="1">  1        2 0.17174342E+00 0.19171620E+04</pdfrwt>
<pdfrwt beam="2">  1       -1 0.12663413E+00 0.19171620E+04</pdfrwt>
<totfact> 0.12302195E+01</totfact>
</mgrwt>
</event>
<event>
12    7  0.1546317E-007  0.4573854E+04  0.7818608E-02  0.7897833E-01
         -1   -1    0    0    0  501 -0.00000000000E+00  0.00000000000E+00  0.32960073823E+04  0.32960073823E+04  0.00000000000E+00 0.  1.
          2   -1    0    0  501    0  0.00000000000E+00 -0.00000000000E+00 -0.15867790523E+04  0.15867790523E+04  0.00000000000E+00 0. -1.
         24    2    1    2    0    0 -0.15860281261E+04  0.13020162389E+04 -0.17475427849E+02  0.20537057314E+04  0.81672134898E+02 0.  0.
        254    2    1    2    0    0  0.15860281261E+04 -0.13020162389E+04  0.17267037578E+04  0.28290807031E+04  0.90081088729E+03 0.  0.
         23    2    4    4    0    0  0.15431365312E+04 -0.12449109470E+04  0.18100989888E+04  0.26861766886E+04  0.89516664722E+02 0.  0.
         23    2    4    4    0    0  0.42891594844E+02 -0.57105291814E+02 -0.83395230938E+02  0.14290401453E+03  0.91466330214E+02 0.  0.
          4    1    3    3  502    0 -0.11097371622E+04  0.95853888427E+03 -0.89774323013E+01  0.14664221616E+04  0.00000000000E+00 0. -1.
         -3    1    3    3    0  502 -0.47629096389E+03  0.34347735458E+03 -0.84979955472E+01  0.58728356977E+03  0.00000000000E+00 0.  1.
         13    1    5    5    0    0  0.13428569551E+04 -0.11140395318E+04  0.16139353258E+04  0.23767911385E+04  0.00000000000E+00 0. -1.
        -13    1    5    5    0    0  0.20027957615E+03 -0.13087141524E+03  0.19616366299E+03  0.30938555013E+03  0.00000000000E+00 0.  1.
          3    1    6    6  503    0  0.37188383853E+02 -0.68576806616E+02 -0.23239396591E+02  0.81399163713E+02  0.00000000000E+00 0. -1.
         -3    1    6    6    0  503  0.57032109907E+01  0.11471514803E+02 -0.60155834347E+02  0.61504850812E+02  0.00000000000E+00 0.  1.
<mgrwt>
<rscale>  0 0.45738542E+04</rscale>
<asrwt>0</asrwt>
<pdfrwt beam="1">  1        2 0.24411986E+00 0.45738542E+04</pdfrwt>
<pdfrwt beam="2">  1       -1 0.50707806E+00 0.45738542E+04</pdfrwt>
<totfact> 0.13124851E-02</totfact>
</mgrwt>
</event>
<event>
12    7  0.1546317E-007  0.1956533E+04  0.7818608E-02  0.8627217E-01
          2   -1    0    0  501    0  0.00000000000E+00  0.00000000000E+00  0.12726810034E+04  0.12726810034E+04  0.00000000000E+00 0. -1.
         -1   -1    0    0    0  501 -0.00000000000E+00 -0.00000000000E+00 -0.75196008906E+03  0.75196008906E+03  0.00000000000E+00 0.  1.
         24    2    1    2    0    0  0.50897535063E+03 -0.44823730272E+03 -0.17338722351E+03  0.70466630846E+03  0.80739642734E+02 0.  0.
        254    2    1    2    0    0 -0.50897535063E+03  0.44823730272E+03  0.69410813782E+03  0.13199747840E+04  0.89474842065E+03 0.  0.
         23    2    4    4    0    0  0.88081286912E+02 -0.55561641749E+02 -0.12223615957E+03  0.18633752982E+03  0.94522945227E+02 0.  0.
         23    2    4    4    0    0 -0.59705663754E+03  0.50379894446E+03  0.81634429740E+03  0.11336372542E+04  0.91790017188E+02 0.  0.
          4    1    3    3  502    0  0.80396634421E+02 -0.58666431552E+02  0.19064048530E+01  0.99543977200E+02  0.00000000000E+00 0. -1.
         -3    1    3    3    0  502  0.42857871621E+03 -0.38957087116E+03 -0.17529362836E+03  0.60512233126E+03  0.00000000000E+00 0.  1.
         13    1    5    5    0    0  0.28092361376E+02 -0.13990839390E+02  0.11954328321E+02  0.33583185080E+02  0.00000000000E+00 0.  1.
        -13    1    5    5    0    0  0.59988925536E+02 -0.41570802359E+02 -0.13419048789E+03  0.15275434474E+03  0.00000000000E+00 0. -1.
          3    1    6    6  503    0 -0.49802734340E+03  0.43038448973E+03  0.73114443274E+03  0.98378566024E+03  0.00000000000E+00 0. -1.
         -3    1    6    6    0  503 -0.99029294140E+02  0.73414454738E+02  0.85199864654E+02  0.14985159392E+03  0.00000000000E+00 0.  1.
<mgrwt>
<rscale>  0 0.19565330E+04</rscale>
<asrwt>0</asrwt>
<pdfrwt beam="1">  1        2 0.19579708E+00 0.19565330E+04</pdfrwt>
<pdfrwt beam="2">  1       -1 0.11568617E+00 0.19565330E+04</pdfrwt>
<totfact> 0.12336056E+01</totfact>
</mgrwt>
</event>
<event>
12    7  0.1546317E-007  0.1914435E+04  0.7818608E-02  0.8647704E-01
         -1   -1    0    0    0  501 -0.00000000000E+00  0.00000000000E+00  0.40181816328E+03  0.40181816328E+03  0.00000000000E+00 0.  1.
          2   -1    0    0  501    0  0.00000000000E+00 -0.00000000000E+00 -0.22802992327E+04  0.22802992327E+04  0.00000000000E+00 0. -1.
         24    2    1    2    0    0  0.46264887516E+02  0.73130485813E+03 -0.91579621527E+03  0.11755519057E+04  0.79324269514E+02 0.  0.
        254    2    1    2    0    0 -0.46264887516E+02 -0.73130485813E+03 -0.96268485412E+03  0.15065654903E+04  0.89779185379E+03 0.  0.
         23    2    4    4    0    0 -0.36881219806E+03 -0.50980562444E+02 -0.20608220317E+03  0.43533375460E+03  0.91783158817E+02 0.  0.
         23    2    4    4    0    0  0.32254731055E+03 -0.68032429568E+03 -0.75660265095E+03  0.10712317357E+04  0.90619783795E+02 0.  0.
          4    1    3    3  502    0  0.47720381605E+02  0.53468491354E+03 -0.61664455711E+03  0.81756694001E+03  0.00000000000E+00 0. -1.
         -3    1    3    3    0  502 -0.14554940891E+01  0.19661994459E+03 -0.29915165816E+03  0.35798496568E+03  0.00000000000E+00 0.  1.
         13    1    5    5    0    0 -0.21060267052E+03 -0.25573549054E+01 -0.15718247583E+03  0.26280478611E+03  0.00000000000E+00 0.  1.
        -13    1    5    5    0    0 -0.15820952755E+03 -0.48423207539E+02 -0.48899727339E+02  0.17252896849E+03  0.00000000000E+00 0. -1.
          3    1    6    6  503    0  0.60642657945E+02 -0.69234498675E+02 -0.71337012579E+02  0.11644705721E+03  0.00000000000E+00 0. -1.
         -3    1    6    6    0  503  0.26190465260E+03 -0.61108979701E+03 -0.68526563837E+03  0.95478467845E+03  0.00000000000E+00 0.  1.
<mgrwt>
<rscale>  0 0.19144353E+04</rscale>
<asrwt>0</asrwt>
<pdfrwt beam="1">  1        2 0.35081527E+00 0.19144353E+04</pdfrwt>
<pdfrwt beam="2">  1       -1 0.61818179E-01 0.19144353E+04</pdfrwt>
<totfact> 0.13153298E+01</totfact>
</mgrwt>
</event>
<event>
12    7  0.1546317E-007  0.1038171E+04  0.7818608E-02  0.9267643E-01
          2   -1    0    0  501    0  0.00000000000E+00  0.00000000000E+00  0.13149756811E+04  0.13149756811E+04  0.00000000000E+00 0. -1.
         -1   -1    0    0    0  501 -0.00000000000E+00 -0.00000000000E+00 -0.20490846454E+03  0.20490846454E+03  0.00000000000E+00 0.  1.
         24    2    1    2    0    0 -0.34418656973E+02  0.71808062078E+02  0.25214786351E+03  0.27608159629E+03  0.79381742305E+02 0.  0.
        254    2    1    2    0    0  0.34418656973E+02 -0.71808062078E+02  0.85791935302E+03  0.12438025493E+04  0.89703852965E+03 0.  0.
         23    2    4    4    0    0  0.29387382814E+03 -0.11257157384E+03  0.90370739753E+03  0.96154393321E+03  0.94050460135E+02 0.  0.
         23    2    4    4    0    0 -0.25945517117E+03  0.40763511764E+02 -0.45788044504E+02  0.28225861610E+03  0.92707775326E+02 0.  0.
          4    1    3    3  502    0  0.11574874465E+02  0.39203376592E+02  0.17965455691E+03  0.18424614588E+03  0.00000000000E+00 0. -1.
         -3    1    3    3    0  502 -0.45993531437E+02  0.32604685486E+02  0.72493306603E+02  0.91835450409E+02  0.00000000000E+00 0.  1.
         13    1    5    5    0    0  0.36176938433E+02  0.31125598123E+01  0.46517228321E+02  0.59011112798E+02  0.00000000000E+00 0.  1.
        -13    1    5    5    0    0  0.25769688971E+03 -0.11568413365E+03  0.85719016921E+03  0.90253282042E+03  0.00000000000E+00 0. -1.
          3    1    6    6  503    0 -0.82156366435E+02  0.51526433241E+02 -0.38934158300E+02  0.10450124665E+03  0.00000000000E+00 0. -1.
         -3    1    6    6    0  503 -0.17729880474E+03 -0.10762921477E+02 -0.68538862042E+01  0.17775736945E+03  0.00000000000E+00 0.  1.
<mgrwt>
<rscale>  0 0.10381708E+04</rscale>
<asrwt>0</asrwt>
<pdfrwt beam="1">  1        2 0.20230395E+00 0.10381708E+04</pdfrwt>
<pdfrwt beam="2">  1       -1 0.31524380E-01 0.10381708E+04</pdfrwt>
<totfact> 0.17179853E+02</totfact>
</mgrwt>
</event>
<event>
12    7  0.1546317E-007  0.1495335E+04  0.7818608E-02  0.8887561E-01
          2   -1    0    0  501    0  0.00000000000E+00  0.00000000000E+00  0.14879556067E+04  0.14879556067E+04  0.00000000000E+00 0. -1.
         -1   -1    0    0    0  501 -0.00000000000E+00 -0.00000000000E+00 -0.37568779976E+03  0.37568779976E+03  0.00000000000E+00 0.  1.
         24    2    1    2    0    0 -0.19502385289E+03 -0.34700723826E+02 -0.17751044076E+03  0.27778077912E+03  0.80085961589E+02 0.  0.
        254    2    1    2    0    0  0.19502385289E+03  0.34700723826E+02  0.12897782477E+04  0.15858626273E+04  0.90121800975E+03 0.  0.
         23    2    4    4    0    0 -0.17627003837E+03  0.95709011609E+02 -0.17358306908E+02  0.22264752108E+03  0.95075057166E+02 0.  0.
         23    2    4    4    0    0  0.37129389126E+03 -0.61008287783E+02  0.13071365546E+04  0.13632151062E+04  0.90378585205E+02 0.  0.
          4    1    3    3  502    0 -0.30188505011E+02  0.17709068845E+02 -0.86443348765E+01  0.36051095401E+02  0.00000000000E+00 0. -1.
         -3    1    3    3    0  502 -0.16483534788E+03 -0.52409792671E+02 -0.16886610588E+03  0.24172968372E+03  0.00000000000E+00 0.  1.
         13    1    5    5    0    0 -0.10427819369E+03  0.41828142233E+02  0.36128687365E+02  0.11802041015E+03  0.00000000000E+00 0. -1.
        -13    1    5    5    0    0 -0.71991844685E+02  0.53880869376E+02 -0.53486994274E+02  0.10462711093E+03  0.00000000000E+00 0.  1.
          1    1    6    6  503    0  0.12610408787E+03  0.21516261020E+00  0.31272048276E+03  0.33718894942E+03  0.00000000000E+00 0. -1.
         -1    1    6    6    0  503  0.24518980340E+03 -0.61223450393E+02  0.99441607181E+03  0.10260261568E+04  0.00000000000E+00 0.  1.
<mgrwt>
<rscale>  0 0.14953351E+04</rscale>
<asrwt>0</asrwt>
<pdfrwt beam="1">  1        2 0.22891624E+00 0.14953351E+04</pdfrwt>
<pdfrwt beam="2">  1       -1 0.57798124E-01 0.14953351E+04</pdfrwt>
<totfact> 0.43061495E+01</totfact>
</mgrwt>
</event>
<event>
12    7  0.1546317E-007  0.3784322E+04  0.7818608E-02  0.8049528E-01
         -1   -1    0    0    0  501 -0.00000000000E+00  0.00000000000E+00  0.11602309618E+04  0.11602309618E+04  0.00000000000E+00 0.  1.
          2   -1    0    0  501    0  0.00000000000E+00 -0.00000000000E+00 -0.30858282436E+04  0.30858282436E+04  0.00000000000E+00 0. -1.
         24    2    1    2    0    0 -0.14880372449E+04  0.96058983157E+03 -0.66734411974E+03  0.18944191246E+04  0.80547991632E+02 0.  0.
        254    2    1    2    0    0  0.14880372449E+04 -0.96058983157E+03 -0.12582531621E+04  0.23516400807E+04  0.90001243473E+03 0.  0.
         23    2    4    4    0    0  0.29900092871E+03 -0.67372735670E+03 -0.62777418070E+03  0.97248755328E+03  0.91222326182E+02 0.  0.
         23    2    4    4    0    0  0.11890363162E+04 -0.28686247487E+03 -0.63047898138E+03  0.13791525274E+04  0.91981016037E+02 0.  0.
          2    1    3    3  502    0 -0.50476508067E+03  0.32906110371E+03 -0.18657227176E+03  0.63077587876E+03  0.00000000000E+00 0. -1.
         -1    1    3    3    0  502 -0.98327216420E+03  0.63152872785E+03 -0.48077184798E+03  0.12636432459E+04  0.00000000000E+00 0.  1.
         13    1    5    5    0    0  0.21703959478E+03 -0.43376731874E+03 -0.36262067833E+03  0.60560220348E+03  0.00000000000E+00 0.  1.
        -13    1    5    5    0    0  0.81961333929E+02 -0.23996003796E+03 -0.26515350237E+03  0.36688534980E+03  0.00000000000E+00 0. -1.
          3    1    6    6  503    0  0.50592728969E+03 -0.13449027451E+03 -0.22068801791E+03  0.56811377174E+03  0.00000000000E+00 0. -1.
         -3    1    6    6    0  503  0.68310902647E+03 -0.15237220036E+03 -0.40979096346E+03  0.81103875569E+03  0.00000000000E+00 0.  1.
<mgrwt>
<rscale>  0 0.37843221E+04</rscale>
<asrwt>0</asrwt>
<pdfrwt beam="1">  1        2 0.47474280E+00 0.37843221E+04</pdfrwt>
<pdfrwt beam="2">  1       -1 0.17849707E+00 0.37843221E+04</pdfrwt>
<totfact> 0.29861669E-01</totfact>
</mgrwt>
</event>
<event>
12    7  0.1546317E-007  0.1497148E+04  0.7818608E-02  0.8886351E-01
          2   -1    0    0  501    0  0.00000000000E+00  0.00000000000E+00  0.46241023200E+03  0.46241023200E+03  0.00000000000E+00 0. -1.
         -1   -1    0    0    0  501 -0.00000000000E+00 -0.00000000000E+00 -0.12118315641E+04  0.12118315641E+04  0.00000000000E+00 0.  1.
         24    2    1    2    0    0 -0.28841694831E+03  0.50055941105E+02  0.17387119560E+03  0.34984719464E+03  0.80448328921E+02 0.  0.
        254    2    1    2    0    0  0.28841694831E+03 -0.50055941105E+02 -0.92329252766E+03  0.13243946014E+04  0.90325081529E+03 0.  0.
         23    2    4    4    0    0  0.10771315697E+03 -0.46435460117E+03 -0.42832741311E+03  0.64820550110E+03  0.97358507684E+02 0.  0.
         23    2    4    4    0    0  0.18070379134E+03  0.41429866007E+03 -0.49496511455E+03  0.67618910032E+03  0.89129090829E+02 0.  0.
          2    1    3    3  502    0 -0.21168356621E+03  0.38692853456E+01  0.10197090927E+03  0.23499568062E+03  0.00000000000E+00 0. -1.
         -1    1    3    3    0  502 -0.76733382103E+02  0.46186655759E+02  0.71900286329E+02  0.11485151402E+03  0.00000000000E+00 0.  1.
         13    1    5    5    0    0  0.81899079405E+02 -0.21702113407E+03 -0.15665759942E+03  0.27990576146E+03  0.00000000000E+00 0. -1.
        -13    1    5    5    0    0  0.25814077566E+02 -0.24733346710E+03 -0.27166981370E+03  0.36829973964E+03  0.00000000000E+00 0.  1.
          2    1    6    6  503    0  0.71387393728E+02  0.26730833650E+03 -0.31755416928E+03  0.42117758389E+03  0.00000000000E+00 0. -1.
         -2    1    6    6    0  503  0.10931639762E+03  0.14699032357E+03 -0.17741094527E+03  0.25501151643E+03  0.00000000000E+00 0.  1.
<mgrwt>
<rscale>  0 0.14971484E+04</rscale>
<asrwt>0</asrwt>
<pdfrwt beam="1">  1        2 0.71140036E-01 0.14971484E+04</pdfrwt>
<pdfrwt beam="2">  1       -1 0.18643562E+00 0.14971484E+04</pdfrwt>
<totfact> 0.13945726E+01</totfact>
</mgrwt>
</event>
<event>
12    7  0.1546317E-007  0.1752708E+04  0.7818608E-02  0.8731861E-01
         -1   -1    0    0    0  501 -0.00000000000E+00  0.00000000000E+00  0.11962754472E+04  0.11962754472E+04  0.00000000000E+00 0.  1.
          2   -1    0    0  501    0  0.00000000000E+00 -0.00000000000E+00 -0.64198964414E+03  0.64198964414E+03  0.00000000000E+00 0. -1.
         24    2    1    2    0    0  0.13072182712E+03 -0.16576941599E+03  0.80377462117E+03  0.83352479329E+03  0.64360267471E+02 0.  0.
        254    2    1    2    0    0 -0.13072182712E+03  0.16576941599E+03 -0.24948881809E+03  0.10047402981E+04  0.95010036357E+03 0.  0.
         23    2    4    4    0    0  0.29309501088E+03  0.56281472673E+02  0.20035763839E+03  0.37049153129E+03  0.89713443433E+02 0.  0.
         23    2    4    4    0    0 -0.42381683800E+03  0.10948794332E+03 -0.44984645647E+03  0.63424876678E+03  0.91111699911E+02 0.  0.
          2    1    3    3  502    0  0.56834604025E+02 -0.44708932661E+02  0.18331985260E+03  0.19706656041E+03  0.00000000000E+00 0. -1.
         -1    1    3    3    0  502  0.73887223098E+02 -0.12106048333E+03  0.62045476856E+03  0.63645823288E+03  0.00000000000E+00 0.  1.
         13    1    5    5    0    0  0.25369891807E+03  0.76026751124E+02  0.18779236920E+03  0.32466780230E+03  0.00000000000E+00 0.  1.
        -13    1    5    5    0    0  0.39396092804E+02 -0.19745278452E+02  0.12565269184E+02  0.45823728995E+02  0.00000000000E+00 0. -1.
          4    1    6    6  503    0 -0.80379916548E+02  0.47682468027E+02 -0.60110635875E+02  0.11112082292E+03  0.00000000000E+00 0. -1.
         -4    1    6    6    0  503 -0.34343692145E+03  0.61805475291E+02 -0.38973582060E+03  0.52312794386E+03  0.00000000000E+00 0.  1.
<mgrwt>
<rscale>  0 0.17527081E+04</rscale>
<asrwt>0</asrwt>
<pdfrwt beam="1">  1        2 0.98767638E-01 0.17527081E+04</pdfrwt>
<pdfrwt beam="2">  1       -1 0.18404238E+00 0.17527081E+04</pdfrwt>
<totfact> 0.96201810E+00</totfact>
</mgrwt>
</event>
<event>
12    7  0.1546317E-007  0.1308810E+04  0.7818608E-02  0.9022608E-01
          2   -1    0    0  501    0  0.00000000000E+00  0.00000000000E+00  0.63332897620E+03  0.63332897620E+03  0.00000000000E+00 0. -1.
         -1   -1    0    0    0  501 -0.00000000000E+00 -0.00000000000E+00 -0.67618267995E+03  0.67618267995E+03  0.00000000000E+00 0.  1.
         24    2    1    2    0    0 -0.58993950165E+02 -0.92633953238E+02  0.30591865908E+03  0.33466383571E+03  0.79701452392E+02 0.  0.
        254    2    1    2    0    0  0.58993950165E+02  0.92633953238E+02 -0.34877236283E+03  0.97484782043E+03  0.90367293668E+03 0.  0.
         23    2    4    4    0    0  0.32582087358E+03  0.37871098015E+03 -0.21890646388E+03  0.55276734132E+03  0.89724275139E+02 0.  0.
         23    2    4    4    0    0 -0.26682692342E+03 -0.28607702691E+03 -0.12986589895E+03  0.42208047912E+03  0.90830098274E+02 0.  0.
          2    1    3    3  502    0 -0.49402223408E+02 -0.10427687043E+03  0.29264001459E+03  0.31456704138E+03  0.00000000000E+00 0. -1.
         -1    1    3    3    0  502 -0.95917267564E+01  0.11642917195E+02  0.13278644494E+02  0.20096794336E+02  0.00000000000E+00 0.  1.
         13    1    5    5    0    0  0.56148480597E+02  0.12605423651E+03 -0.62691132503E+02  0.15156681863E+03  0.00000000000E+00 0.  1.
        -13    1    5    5    0    0  0.26967239299E+03  0.25265674364E+03 -0.15621533137E+03  0.40120052268E+03  0.00000000000E+00 0. -1.
          4    1    6    6  503    0 -0.12727009988E+03 -0.74786877615E+02 -0.60492424903E+02  0.15953083983E+03  0.00000000000E+00 0. -1.
         -4    1    6    6    0  503 -0.13955682354E+03 -0.21129014930E+03 -0.69373474047E+02  0.26254963928E+03  0.00000000000E+00 0.  1.
<mgrwt>
<rscale>  0 0.13088103E+04</rscale>
<asrwt>0</asrwt>
<pdfrwt beam="1">  1        2 0.97435228E-01 0.13088103E+04</pdfrwt>
<pdfrwt beam="2">  1       -1 0.10402810E+00 0.13088103E+04</pdfrwt>
<totfact> 0.45233376E+01</totfact>
</mgrwt>
</event>
<event>
12    7  0.1546317E-007  0.1579861E+04  0.7818608E-02  0.8833016E-01
         -1   -1    0    0    0  501 -0.00000000000E+00  0.00000000000E+00  0.12619038835E+04  0.12619038835E+04  0.00000000000E+00 0.  1.
          2   -1    0    0  501    0  0.00000000000E+00 -0.00000000000E+00 -0.49448344420E+03  0.49448344420E+03  0.00000000000E+00 0. -1.
         24    2    1    2    0    0 -0.80716306889E+02 -0.50871410147E+03  0.13835818137E+03  0.53956035092E+03  0.81714299272E+02 0.  0.
        254    2    1    2    0    0  0.80716306889E+02  0.50871410147E+03  0.62906225795E+03  0.12168269768E+04  0.90534159733E+03 0.  0.
         23    2    4    4    0    0 -0.14835533021E+03 -0.14955872394E+03  0.42728796376E+03  0.48523995843E+03  0.92226337797E+02 0.  0.
         23    2    4    4    0    0  0.22907163709E+03  0.65827282541E+03  0.20177429419E+03  0.73158701836E+03  0.93326159477E+02 0.  0.
          4    1    3    3  502    0 -0.82475007736E+02 -0.51116758771E+03  0.13964471993E+03  0.53627891757E+03  0.00000000000E+00 0. -1.
         -3    1    3    3    0  502  0.17587008462E+01  0.24534862411E+01 -0.12865385558E+01  0.32814333541E+01  0.00000000000E+00 0.  1.
         13    1    5    5    0    0 -0.10343928890E+03 -0.48062823014E+02  0.16656091955E+03  0.20187189345E+03  0.00000000000E+00 0.  1.
        -13    1    5    5    0    0 -0.44916041304E+02 -0.10149590093E+03  0.26072704421E+03  0.28336806498E+03  0.00000000000E+00 0. -1.
          3    1    6    6  503    0  0.64283289423E+02  0.31443433732E+03  0.72947458663E+02  0.32912402755E+03  0.00000000000E+00 0. -1.
         -3    1    6    6    0  503  0.16478834767E+03  0.34383848809E+03  0.12882683553E+03  0.40246299081E+03  0.00000000000E+00 0.  1.
<mgrwt>
<rscale>  0 0.15798615E+04</rscale>
<asrwt>0</asrwt>
<pdfrwt beam="1">  1        2 0.76074376E-01 0.15798615E+04</pdfrwt>
<pdfrwt beam="2">  1       -1 0.19413906E+00 0.15798615E+04</pdfrwt>
<totfact> 0.11318332E+01</totfact>
</mgrwt>
</event>
<event>
12    7  0.1546317E-007  0.1128111E+04  0.7818608E-02  0.9178218E-01
         -1   -1    0    0    0  501 -0.00000000000E+00  0.00000000000E+00  0.16416517023E+03  0.16416517023E+03  0.00000000000E+00 0.  1.
          2   -1    0    0  501    0  0.00000000000E+00 -0.00000000000E+00 -0.19380410305E+04  0.19380410305E+04  0.00000000000E+00 0. -1.
         24    2    1    2    0    0 -0.52378101169E+02  0.17878064415E+03 -0.42099722234E+03  0.46730519118E+03  0.80184139796E+02 0.  0.
        254    2    1    2    0    0  0.52378101169E+02 -0.17878064415E+03 -0.13528786379E+04  0.16349010095E+04  0.89884076336E+03 0.  0.
         23    2    4    4    0    0  0.19748196624E+03 -0.14900966113E+03  0.71627555757E+01  0.26378143634E+03  0.91248753352E+02 0.  0.
         23    2    4    4    0    0 -0.14510386508E+03 -0.29770983028E+02 -0.13600413935E+04  0.13711195732E+04  0.91185793522E+02 0.  0.
          2    1    3    3  502    0 -0.33798474416E+02  0.57844018207E+02 -0.23740414263E+03  0.24667588908E+03  0.00000000000E+00 0. -1.
         -3    1    3    3    0  502 -0.18579626753E+02  0.12093662595E+03 -0.18359307971E+03  0.22062930209E+03  0.00000000000E+00 0.  1.
         13    1    5    5    0    0  0.13502937229E+03 -0.79221081908E+02  0.44818387690E+02  0.16284225212E+03  0.00000000000E+00 0. -1.
        -13    1    5    5    0    0  0.62452593952E+02 -0.69788579218E+02 -0.37655632115E+02  0.10093918422E+03  0.00000000000E+00 0.  1.
          4    1    6    6  503    0 -0.55021991798E+02 -0.32110666067E+02 -0.90511908086E+03  0.90735828921E+03  0.00000000000E+00 0. -1.
         -4    1    6    6    0  503 -0.90081873277E+02  0.23396830390E+01 -0.45492231261E+03  0.46376128398E+03  0.00000000000E+00 0.  1.
<mgrwt>
<rscale>  0 0.11281114E+04</rscale>
<asrwt>0</asrwt>
<pdfrwt beam="1">  1        2 0.29816015E+00 0.11281114E+04</pdfrwt>
<pdfrwt beam="2">  1       -1 0.25256180E-01 0.11281114E+04</pdfrwt>
<totfact> 0.11256603E+02</totfact>
</mgrwt>
</event>
<event>
12    7  0.1546317E-007  0.2209503E+04  0.7818608E-02  0.8514483E-01
          2   -1    0    0  501    0  0.00000000000E+00  0.00000000000E+00  0.44139925234E+04  0.44139925234E+04  0.00000000000E+00 0. -1.
         -1   -1    0    0    0  501 -0.00000000000E+00 -0.00000000000E+00 -0.27650163641E+03  0.27650163641E+03  0.00000000000E+00 0.  1.
         24    2    1    2    0    0  0.66354541748E+03 -0.57159487686E+03  0.23126810328E+04  0.24742465187E+04  0.79931541592E+02 0.  0.
        254    2    1    2    0    0 -0.66354541748E+03  0.57159487686E+03  0.18248098542E+04  0.22162476411E+04  0.90266792268E+03 0.  0.
         23    2    4    4    0    0  0.18607160087E+03  0.18724896804E+03  0.20697441891E+03  0.34680733164E+03  0.88046002267E+02 0.  0.
         23    2    4    4    0    0 -0.84961701836E+03  0.38434590883E+03  0.16178354353E+04  0.18694403095E+04  0.88570421952E+02 0.  0.
          2    1    3    3  502    0  0.59110060451E+03 -0.53907582530E+03  0.20987217061E+04  0.22460265960E+04  0.00000000000E+00 0. -1.
         -1    1    3    3    0  502  0.72444812976E+02 -0.32519051565E+02  0.21395932667E+03  0.22821992268E+03  0.00000000000E+00 0.  1.
         13    1    5    5    0    0  0.98238288218E+02  0.15591888785E+03  0.14915179456E+03  0.23708167091E+03  0.00000000000E+00 0.  1.
        -13    1    5    5    0    0  0.87833312656E+02  0.31330080185E+02  0.57822624353E+02  0.10972566073E+03  0.00000000000E+00 0. -1.
          4    1    6    6  503    0 -0.41529476961E+03  0.23645722014E+03  0.82383823431E+03  0.95241335508E+03  0.00000000000E+00 0. -1.
         -4    1    6    6    0  503 -0.43432224875E+03  0.14788868869E+03  0.79399720096E+03  0.91702695442E+03  0.00000000000E+00 0.  1.
<mgrwt>
<rscale>  0 0.22095033E+04</rscale>
<asrwt>0</asrwt>
<pdfrwt beam="1">  1        2 0.67907572E+00 0.22095033E+04</pdfrwt>
<pdfrwt beam="2">  1       -1 0.42538716E-01 0.22095033E+04</pdfrwt>
<totfact> 0.85039010E-01</totfact>
</mgrwt>
</event>
<event>
12    7  0.1546317E-007  0.2060980E+04  0.7818608E-02  0.8578629E-01
         -1   -1    0    0    0  501 -0.00000000000E+00  0.00000000000E+00  0.37728590580E+03  0.37728590580E+03  0.00000000000E+00 0.  1.
          2   -1    0    0  501    0  0.00000000000E+00 -0.00000000000E+00 -0.28146030168E+04  0.28146030168E+04  0.00000000000E+00 0. -1.
         24    2    1    2    0    0 -0.23134597128E+03 -0.72985366394E+03 -0.47532781458E+03  0.90472211767E+03  0.79863944946E+02 0.  0.
        254    2    1    2    0    0  0.23134597128E+03  0.72985366394E+03 -0.19619892965E+04  0.22871668050E+04  0.89192077287E+03 0.  0.
         23    2    4    4    0    0  0.29622774656E+03  0.26727237954E+03 -0.18736708549E+03  0.45010003431E+03  0.91094530394E+02 0.  0.
         23    2    4    4    0    0 -0.64881775279E+02  0.46258128440E+03 -0.17746222110E+04  0.18370667707E+04  0.85669356716E+02 0.  0.
          2    1    3    3  502    0 -0.11019760604E+03 -0.28883050439E+03 -0.23313907255E+03  0.38719555756E+03  0.00000000000E+00 0. -1.
         -1    1    3    3    0  502 -0.12114836524E+03 -0.44102315955E+03 -0.24218874202E+03  0.51752656012E+03  0.00000000000E+00 0.  1.
         13    1    5    5    0    0  0.11346139014E+03  0.16160644635E+03 -0.10347736006E+03  0.22292979747E+03  0.00000000000E+00 0. -1.
        -13    1    5    5    0    0  0.18276635642E+03  0.10566593319E+03 -0.83889725431E+02  0.22717023685E+03  0.00000000000E+00 0.  1.
          2    1    6    6  503    0 -0.27748967829E+02  0.14557124772E+03 -0.72490624590E+03  0.73989868139E+03  0.00000000000E+00 0. -1.
         -2    1    6    6    0  503 -0.37132807450E+02  0.31701003668E+03 -0.10497159651E+04  0.10971680893E+04  0.00000000000E+00 0.  1.
<mgrwt>
<rscale>  0 0.20609804E+04</rscale>
<asrwt>0</asrwt>
<pdfrwt beam="1">  1        2 0.43301584E+00 0.20609804E+04</pdfrwt>
<pdfrwt beam="2">  1       -1 0.58043987E-01 0.20609804E+04</pdfrwt>
<totfact> 0.71780598E+00</totfact>
</mgrwt>
</event>
<event>
12    7  0.1546317E-007  0.1352025E+04  0.7818608E-02  0.8989296E-01
         -1   -1    0    0    0  501 -0.00000000000E+00  0.00000000000E+00  0.54481767150E+03  0.54481767150E+03  0.00000000000E+00 0.  1.
          2   -1    0    0  501    0  0.00000000000E+00 -0.00000000000E+00 -0.83880001906E+03  0.83880001906E+03  0.00000000000E+00 0. -1.
         24    2    1    2    0    0 -0.26235009827E+03 -0.25155572692E+03 -0.10727947305E+03  0.38791334955E+03  0.82825259522E+02 0.  0.
        254    2    1    2    0    0  0.26235009827E+03  0.25155572692E+03 -0.18670287451E+03  0.99570434102E+03  0.90799852068E+03 0.  0.
         23    2    4    4    0    0  0.35465121650E+03  0.29947357673E+01  0.27325006114E+03  0.45678130310E+03  0.90537887852E+02 0.  0.
         23    2    4    4    0    0 -0.92301118237E+02  0.24856099115E+03 -0.45995293566E+03  0.53892303792E+03  0.92624375997E+02 0.  0.
          2    1    3    3  502    0  0.50978282232E-01 -0.25741855058E+02 -0.93241042846E+00  0.25758786653E+02  0.00000000000E+00 0. -1.
         -1    1    3    3    0  502 -0.26240107655E+03 -0.22581387186E+03 -0.10634706262E+03  0.36215456290E+03  0.00000000000E+00 0.  1.
         13    1    5    5    0    0  0.59134218713E+01  0.15371586977E+02  0.18244165492E+02  0.24578523530E+02  0.00000000000E+00 0. -1.
        -13    1    5    5    0    0  0.34873779463E+03 -0.12376851209E+02  0.25500589565E+03  0.43220277957E+03  0.00000000000E+00 0.  1.
          4    1    6    6  503    0 -0.60637527489E+02  0.50027678789E+02 -0.10771629330E+03  0.13335095885E+03  0.00000000000E+00 0. -1.
         -4    1    6    6    0  503 -0.31663590747E+02  0.19853331236E+03 -0.35223664236E+03  0.40557207907E+03  0.00000000000E+00 0.  1.
<mgrwt>
<rscale>  0 0.13520253E+04</rscale>
<asrwt>0</asrwt>
<pdfrwt beam="1">  1        2 0.12904616E+00 0.13520253E+04</pdfrwt>
<pdfrwt beam="2">  1       -1 0.83818103E-01 0.13520253E+04</pdfrwt>
<totfact> 0.50868517E+01</totfact>
</mgrwt>
</event>
<event>
12    7  0.1546317E-007  0.1367004E+04  0.7818608E-02  0.8978055E-01
         -1   -1    0    0    0  501 -0.00000000000E+00  0.00000000000E+00  0.64554484862E+03  0.64554484862E+03  0.00000000000E+00 0.  1.
          2   -1    0    0  501    0  0.00000000000E+00 -0.00000000000E+00 -0.72369117415E+03  0.72369117415E+03  0.00000000000E+00 0. -1.
         24    2    1    2    0    0  0.41871920600E+02  0.30684413615E+03  0.21761940416E+03  0.39212775113E+03  0.10246651409E+03 0.  0.
        254    2    1    2    0    0 -0.41871920600E+02 -0.30684413615E+03 -0.29576572969E+03  0.97710827165E+03  0.87826910799E+03 0.  0.
         23    2    4    4    0    0  0.10862226536E+03 -0.33745664749E+03  0.22281643449E+03  0.42912399438E+03  0.93938562912E+02 0.  0.
         23    2    4    4    0    0 -0.15049418597E+03  0.30612511342E+02 -0.51858216418E+03  0.54798427727E+03  0.88168482342E+02 0.  0.
          4    1    3    3  502    0  0.20087177227E+02  0.13911772656E+03  0.38423080428E+02  0.14571743081E+03  0.00000000000E+00 0. -1.
         -3    1    3    3    0  502  0.21784743374E+02  0.16772640959E+03  0.17919632373E+03  0.24641032031E+03  0.00000000000E+00 0.  1.
         13    1    5    5    0    0  0.35965673177E+02 -0.25167112877E+03  0.15898495163E+03  0.29984679679E+03  0.00000000000E+00 0. -1.
        -13    1    5    5    0    0  0.72656592188E+02 -0.85785518725E+02  0.63831482861E+02  0.12927719758E+03  0.00000000000E+00 0.  1.
          4    1    6    6  503    0 -0.74607368829E+02  0.58565148835E+02 -0.31346305836E+03  0.32749843526E+03  0.00000000000E+00 0. -1.
         -4    1    6    6    0  503 -0.75886817136E+02 -0.27952637493E+02 -0.20511910582E+03  0.22048584202E+03  0.00000000000E+00 0.  1.
<mgrwt>
<rscale>  0 0.13670042E+04</rscale>
<asrwt>0</asrwt>
<pdfrwt beam="1">  1        2 0.11133710E+00 0.13670042E+04</pdfrwt>
<pdfrwt beam="2">  1       -1 0.99314593E-01 0.13670042E+04</pdfrwt>
<totfact> 0.42384861E+01</totfact>
</mgrwt>
</event>
<event>
12    7  0.1546317E-007  0.4940560E+04  0.7818608E-02  0.7837742E-01
          2   -1    0    0  501    0  0.00000000000E+00  0.00000000000E+00  0.34905442637E+04  0.34905442637E+04  0.00000000000E+00 0. -1.
         -1   -1    0    0    0  501 -0.00000000000E+00 -0.00000000000E+00 -0.17482323876E+04  0.17482323876E+04  0.00000000000E+00 0.  1.
         24    2    1    2    0    0 -0.14753346829E+04  0.44233943279E+03  0.27781590556E+04  0.31775643051E+04  0.80439883582E+02 0.  0.
        254    2    1    2    0    0  0.14753346829E+04 -0.44233943279E+03 -0.10358471795E+04  0.20612123462E+04  0.89629256183E+03 0.  0.
         23    2    4    4    0    0  0.89515682171E+03  0.16639076315E+03 -0.69664050270E+03  0.11496562578E+04  0.86080772989E+02 0.  0.
         23    2    4    4    0    0  0.58017786117E+03 -0.60873019594E+03 -0.33920667679E+03  0.91155608840E+03  0.93351650641E+02 0.  0.
          2    1    3    3  502    0 -0.12352834765E+04  0.38444881156E+03  0.23849739493E+04  0.27132686735E+04  0.00000000000E+00 0. -1.
         -1    1    3    3    0  502 -0.24005120640E+03  0.57890621234E+02  0.39318510631E+03  0.46429563162E+03  0.00000000000E+00 0.  1.
         13    1    5    5    0    0  0.25650394281E+03  0.10738266285E+02 -0.21245589130E+03  0.33323728601E+03  0.00000000000E+00 0. -1.
        -13    1    5    5    0    0  0.63865287891E+03  0.15565249687E+03 -0.48418461140E+03  0.81641897175E+03  0.00000000000E+00 0.  1.
          2    1    6    6  503    0  0.35318546645E+03 -0.30864233020E+03 -0.20766165454E+03  0.51295557748E+03  0.00000000000E+00 0. -1.
         -2    1    6    6    0  503  0.22699239472E+03 -0.30008786574E+03 -0.13154502225E+03  0.39860051092E+03  0.00000000000E+00 0.  1.
<mgrwt>
<rscale>  0 0.49405597E+04</rscale>
<asrwt>0</asrwt>
<pdfrwt beam="1">  1        2 0.53700681E+00 0.49405597E+04</pdfrwt>
<pdfrwt beam="2">  1       -1 0.26895883E+00 0.49405597E+04</pdfrwt>
<totfact> 0.35915182E-02</totfact>
</mgrwt>
</event>
<event>
12    7  0.1546317E-007  0.1194274E+04  0.7818608E-02  0.9117883E-01
         -1   -1    0    0    0  501 -0.00000000000E+00  0.00000000000E+00  0.21643755641E+03  0.21643755641E+03  0.00000000000E+00 0.  1.
          2   -1    0    0  501    0  0.00000000000E+00 -0.00000000000E+00 -0.16474615148E+04  0.16474615148E+04  0.00000000000E+00 0. -1.
         24    2    1    2    0    0 -0.14086727725E+03  0.92285643383E+02 -0.39177459423E+02  0.19184281142E+03  0.83117754976E+02 0.  0.
        254    2    1    2    0    0  0.14086727725E+03 -0.92285643383E+02 -0.13918464990E+04  0.16720562598E+04  0.91113952251E+03 0.  0.
         23    2    4    4    0    0 -0.17687193555E+03  0.45746473506E+02  0.29223983085E+02  0.20647627278E+03  0.91662362028E+02 0.  0.
         23    2    4    4    0    0  0.31773921280E+03 -0.13803211689E+03 -0.14210704821E+04  0.14655799870E+04  0.92045155963E+02 0.  0.
          2    1    3    3  502    0 -0.45785478065E+02  0.49215306919E+02 -0.54247558257E+02  0.86378550657E+02  0.00000000000E+00 0. -1.
         -1    1    3    3    0  502 -0.95081799186E+02  0.43070336464E+02  0.15070098834E+02  0.10546426076E+03  0.00000000000E+00 0.  1.
         13    1    5    5    0    0 -0.14075413840E+03  0.57263208970E+02  0.53911762274E+02  0.16123672253E+03  0.00000000000E+00 0. -1.
        -13    1    5    5    0    0 -0.36117797143E+02 -0.11516735464E+02 -0.24687779189E+02  0.45239550258E+02  0.00000000000E+00 0.  1.
          1    1    6    6  503    0  0.13160544904E+03 -0.11708792633E+02 -0.46543872274E+03  0.48382878653E+03  0.00000000000E+00 0. -1.
         -1    1    6    6    0  503  0.18613376376E+03 -0.12632332426E+03 -0.95563175932E+03  0.98175120050E+03  0.00000000000E+00 0.  1.
<mgrwt>
<rscale>  0 0.11942739E+04</rscale>
<asrwt>0</asrwt>
<pdfrwt beam="1">  1        2 0.25345560E+00 0.11942739E+04</pdfrwt>
<pdfrwt beam="2">  1       -1 0.33298087E-01 0.11942739E+04</pdfrwt>
<totfact> 0.10006668E+02</totfact>
</mgrwt>
</event>
<event>
12    7  0.1546317E-007  0.1525598E+04  0.7818608E-02  0.8867607E-01
         -1   -1    0    0    0  501 -0.00000000000E+00  0.00000000000E+00  0.11222330297E+04  0.11222330297E+04  0.00000000000E+00 0.  1.
          2   -1    0    0  501    0  0.00000000000E+00 -0.00000000000E+00 -0.51848638571E+03  0.51848638571E+03  0.00000000000E+00 0. -1.
         24    2    1    2    0    0 -0.40704407999E+03  0.14556012801E+03  0.40062467352E+03  0.59458595677E+03  0.78483737414E+02 0.  0.
        254    2    1    2    0    0  0.40704407999E+03 -0.14556012801E+03  0.20312197051E+03  0.10461334587E+04  0.93073306837E+03 0.  0.
         23    2    4    4    0    0  0.33795043561E+03 -0.32070480495E+03 -0.25813659731E+03  0.53997977939E+03  0.88778321845E+02 0.  0.
         23    2    4    4    0    0  0.69093644380E+02  0.17514467694E+03  0.46125856783E+03  0.50615367929E+03  0.89344787850E+02 0.  0.
          4    1    3    3  502    0 -0.21298711308E+02 -0.53619831466E+01  0.38829688652E+02  0.44610880819E+02  0.00000000000E+00 0. -1.
         -3    1    3    3    0  502 -0.38574536869E+03  0.15092211115E+03  0.36179498486E+03  0.54997507595E+03  0.00000000000E+00 0.  1.
         13    1    5    5    0    0  0.33782429767E+03 -0.29511628176E+03 -0.24688547213E+03  0.51202667138E+03  0.00000000000E+00 0.  1.
        -13    1    5    5    0    0  0.12613794786E+00 -0.25588523184E+02 -0.11251125180E+02  0.27953108009E+02  0.00000000000E+00 0. -1.
          1    1    6    6  503    0  0.59378824131E+02  0.10377941893E+03  0.18203400708E+03  0.21778978920E+03  0.00000000000E+00 0. -1.
         -1    1    6    6    0  503  0.97148202493E+01  0.71365258011E+02  0.27922456075E+03  0.28836389009E+03  0.00000000000E+00 0.  1.
<mgrwt>
<rscale>  0 0.15255983E+04</rscale>
<asrwt>0</asrwt>
<pdfrwt beam="1">  1        2 0.79767136E-01 0.15255983E+04</pdfrwt>
<pdfrwt beam="2">  1       -1 0.17265124E+00 0.15255983E+04</pdfrwt>
<totfact> 0.15306946E+01</totfact>
</mgrwt>
</event>
<event>
12    7  0.1546317E-007  0.1384523E+04  0.7818608E-02  0.8965098E-01
         -3   -1    0    0    0  501 -0.00000000000E+00  0.00000000000E+00  0.29257513004E+03  0.29257513004E+03  0.00000000000E+00 0.  1.
          4   -1    0    0  501    0  0.00000000000E+00 -0.00000000000E+00 -0.16379588284E+04  0.16379588284E+04  0.00000000000E+00 0. -1.
         24    2    1    2    0    0 -0.19387338478E+03  0.29881817606E+03 -0.15255377036E+03  0.39584063871E+03  0.80857694345E+02 0.  0.
        254    2    1    2    0    0  0.19387338478E+03 -0.29881817606E+03 -0.11928299280E+04  0.15346933197E+04  0.89753058823E+03 0.  0.
         23    2    4    4    0    0  0.22755784725E+03 -0.17912329316E+02  0.55340824629E+02  0.25167608778E+03  0.90414716192E+02 0.  0.
         23    2    4    4    0    0 -0.33684462467E+02 -0.28090584674E+03 -0.12481707526E+04  0.12830172319E+04  0.90334113113E+02 0.  0.
          4    1    3    3  502    0 -0.14295527485E+02  0.64747205916E+02 -0.51621543501E+02  0.84031818577E+02  0.00000000000E+00 0. -1.
         -3    1    3    3    0  502 -0.17957785730E+03  0.23407097014E+03 -0.10093222686E+03  0.31180882013E+03  0.00000000000E+00 0.  1.
         13    1    5    5    0    0  0.89248666898E+01  0.19656218192E+02 -0.41892018069E+01  0.21990215343E+02  0.00000000000E+00 0. -1.
        -13    1    5    5    0    0  0.21863298056E+03 -0.37568547508E+02  0.59530026436E+02  0.22968587244E+03  0.00000000000E+00 0.  1.
          2    1    6    6  503    0  0.18346984361E+02 -0.25151310989E+02 -0.22219210891E+03  0.22436250475E+03  0.00000000000E+00 0. -1.
         -2    1    6    6    0  503 -0.52031446829E+02 -0.25575453575E+03 -0.10259786437E+04  0.10586547272E+04  0.00000000000E+00 0.  1.
<mgrwt>
<rscale>  0 0.13845230E+04</rscale>
<asrwt>0</asrwt>
<pdfrwt beam="1">  1        4 0.25199367E+00 0.13845230E+04</pdfrwt>
<pdfrwt beam="2">  1       -3 0.45011558E-01 0.13845230E+04</pdfrwt>
<totfact> 0.67356353E-01</totfact>
</mgrwt>
</event>
<event>
12    7  0.1546317E-007  0.1605697E+04  0.7818608E-02  0.8817056E-01
         -1   -1    0    0    0  501 -0.00000000000E+00  0.00000000000E+00  0.31419511877E+03  0.31419511877E+03  0.00000000000E+00 0.  1.
          2   -1    0    0  501    0  0.00000000000E+00 -0.00000000000E+00 -0.20514823154E+04  0.20514823154E+04  0.00000000000E+00 0. -1.
         24    2    1    2    0    0  0.20004794578E+03 -0.53649792433E+02  0.15426560404E+03  0.27039701086E+03  0.80119823106E+02 0.  0.
        254    2    1    2    0    0 -0.20004794578E+03  0.53649792433E+02 -0.18915528006E+04  0.20952804233E+04  0.87711491476E+03 0.  0.
         23    2    4    4    0    0  0.27913278406E+02  0.31909023946E+03 -0.15900255612E+04  0.16244311829E+04  0.89429584960E+02 0.  0.
         23    2    4    4    0    0 -0.22796122419E+03 -0.26544044703E+03 -0.30152723945E+03  0.47084924039E+03  0.91407769851E+02 0.  0.
          4    1    3    3  502    0  0.26908065929E+02 -0.40226554427E+02  0.32221719289E+02  0.58141713829E+02  0.00000000000E+00 0. -1.
         -3    1    3    3    0  502  0.17313987985E+03 -0.13423238006E+02  0.12204388475E+03  0.21225529703E+03  0.00000000000E+00 0.  1.
         13    1    5    5    0    0 -0.13625763134E+02  0.25582694816E+03 -0.12694811732E+04  0.12950735647E+04  0.00000000000E+00 0. -1.
        -13    1    5    5    0    0  0.41539041540E+02  0.63263291307E+02 -0.32054438798E+03  0.32935761819E+03  0.00000000000E+00 0.  1.
          3    1    6    6  503    0 -0.83477030011E+02 -0.52394748567E+02 -0.48301599024E+02  0.10975731723E+03  0.00000000000E+00 0. -1.
         -3    1    6    6    0  503 -0.14448419418E+03 -0.21304569846E+03 -0.25322564043E+03  0.36109192316E+03  0.00000000000E+00 0.  1.
<mgrwt>
<rscale>  0 0.16056970E+04</rscale>
<asrwt>0</asrwt>
<pdfrwt beam="1">  1        2 0.31561268E+00 0.16056970E+04</pdfrwt>
<pdfrwt beam="2">  1       -1 0.48337708E-01 0.16056970E+04</pdfrwt>
<totfact> 0.29235444E+01</totfact>
</mgrwt>
</event>
<event>
12    7  0.1546317E-007  0.3201937E+04  0.7818608E-02  0.8188306E-01
         -1   -1    0    0    0  501 -0.00000000000E+00  0.00000000000E+00  0.19387650495E+04  0.19387650495E+04  0.00000000000E+00 0.  1.
          2   -1    0    0  501    0  0.00000000000E+00 -0.00000000000E+00 -0.13220270117E+04  0.13220270117E+04  0.00000000000E+00 0. -1.
         24    2    1    2    0    0  0.14784491698E+04 -0.12396402081E+03  0.27883941976E+03  0.15117131654E+04  0.79663331775E+02 0.  0.
        254    2    1    2    0    0 -0.14784491698E+04  0.12396402081E+03  0.33789861801E+03  0.17490788958E+04  0.86250940958E+03 0.  0.
         23    2    4    4    0    0 -0.78569369620E+03  0.11687249429E+02  0.60122453262E+03  0.99396689323E+03  0.95121344389E+02 0.  0.
         23    2    4    4    0    0 -0.69275547358E+03  0.11227677138E+03 -0.26332591461E+03  0.75511200258E+03  0.91309252346E+02 0.  0.
          4    1    3    3  502    0  0.47243101313E+03 -0.34296251213E+02  0.12657119717E+03  0.49029334380E+03  0.00000000000E+00 0. -1.
         -3    1    3    3    0  502  0.10060181566E+04 -0.89667769599E+02  0.15226822259E+03  0.10214198216E+04  0.00000000000E+00 0.  1.
         13    1    5    5    0    0 -0.49814456562E+03  0.48581312278E+02  0.40576632591E+03  0.64432481203E+03  0.00000000000E+00 0. -1.
        -13    1    5    5    0    0 -0.28754913058E+03 -0.36894062849E+02  0.19545820671E+03  0.34964208119E+03  0.00000000000E+00 0.  1.
          1    1    6    6  503    0 -0.68479451559E+03  0.11849120179E+03 -0.25039038851E+03  0.73870091386E+03  0.00000000000E+00 0. -1.
         -1    1    6    6    0  503 -0.79609579947E+01 -0.62144304068E+01 -0.12935526098E+02  0.16411088718E+02  0.00000000000E+00 0.  1.
<mgrwt>
<rscale>  0 0.32019368E+04</rscale>
<asrwt>0</asrwt>
<pdfrwt beam="1">  1        2 0.20338877E+00 0.32019368E+04</pdfrwt>
<pdfrwt beam="2">  1       -1 0.29827155E+00 0.32019368E+04</pdfrwt>
<totfact> 0.52148075E-01</totfact>
</mgrwt>
</event>
<event>
12    7  0.1546317E-007  0.1383496E+04  0.7818608E-02  0.8965852E-01
          2   -1    0    0  501    0  0.00000000000E+00  0.00000000000E+00  0.17552564201E+04  0.17552564201E+04  0.00000000000E+00 0. -1.
         -1   -1    0    0    0  501 -0.00000000000E+00 -0.00000000000E+00 -0.27261862255E+03  0.27261862255E+03  0.00000000000E+00 0.  1.
         24    2    1    2    0    0 -0.59014827339E+02 -0.38091698613E+03  0.28624970036E+03  0.48664727305E+03  0.79411442764E+02 0.  0.
        254    2    1    2    0    0  0.59014827339E+02  0.38091698613E+03  0.11963880972E+04  0.15412277696E+04  0.89188455448E+03 0.  0.
         23    2    4    4    0    0 -0.36794043088E+03  0.35071137058E+03  0.50385546536E+03  0.72149449263E+03  0.91133675374E+02 0.  0.
         23    2    4    4    0    0  0.42695525822E+03  0.30205615544E+02  0.69253263179E+03  0.81973327694E+03  0.95697583534E+02 0.  0.
          4    1    3    3  502    0 -0.15548974310E+02 -0.72843113352E+01  0.92174669768E+01  0.19488291131E+02  0.00000000000E+00 0. -1.
         -3    1    3    3    0  502 -0.43465853029E+02 -0.37363267479E+03  0.27703223338E+03  0.46715898192E+03  0.00000000000E+00 0.  1.
         13    1    5    5    0    0 -0.15618105786E+02 -0.43450433920E+01  0.15157287050E+02  0.22193422024E+02  0.00000000000E+00 0. -1.
        -13    1    5    5    0    0 -0.35232232510E+03  0.35505641397E+03  0.48869817831E+03  0.69930107061E+03  0.00000000000E+00 0.  1.
          1    1    6    6  503    0  0.10290463053E+03  0.48909951791E+02  0.18609373318E+03  0.21820271286E+03  0.00000000000E+00 0. -1.
         -1    1    6    6    0  503  0.32405062769E+03 -0.18704336247E+02  0.50643889861E+03  0.60153056408E+03  0.00000000000E+00 0.  1.
<mgrwt>
<rscale>  0 0.13834964E+04</rscale>
<asrwt>0</asrwt>
<pdfrwt beam="1">  1        2 0.27003944E+00 0.13834964E+04</pdfrwt>
<pdfrwt beam="2">  1       -1 0.41941328E-01 0.13834964E+04</pdfrwt>
<totfact> 0.56621843E+01</totfact>
</mgrwt>
</event>
<event>
12    7  0.1546317E-007  0.1586600E+04  0.7818608E-02  0.8828823E-01
          2   -1    0    0  501    0  0.00000000000E+00  0.00000000000E+00  0.51299811008E+03  0.51299811008E+03  0.00000000000E+00 0. -1.
         -1   -1    0    0    0  501 -0.00000000000E+00 -0.00000000000E+00 -0.12267590437E+04  0.12267590437E+04  0.00000000000E+00 0.  1.
         24    2    1    2    0    0 -0.35640809245E+03  0.74424167801E+02 -0.66633120338E+03  0.76317632979E+03  0.76649544252E+02 0.  0.
        254    2    1    2    0    0  0.35640809245E+03 -0.74424167801E+02 -0.47429730243E+02  0.97658082400E+03  0.90492808630E+03 0.  0.
         23    2    4    4    0    0 -0.72080101623E+02  0.33959590348E+03 -0.95829286440E+02  0.37183754752E+03  0.92514814480E+02 0.  0.
         23    2    4    4    0    0  0.42848819407E+03 -0.41402007128E+03  0.48399556197E+02  0.60474327648E+03  0.91417512125E+02 0.  0.
          4    1    3    3  502    0 -0.17016476393E+03  0.94356031658E+01 -0.25110769821E+03  0.30348007116E+03  0.00000000000E+00 0. -1.
         -3    1    3    3    0  502 -0.18624332852E+03  0.64988564635E+02 -0.41522350517E+03  0.45969625863E+03  0.00000000000E+00 0.  1.
         13    1    5    5    0    0 -0.24180660176E+02  0.28131322398E+03 -0.61584672845E+02  0.28898876491E+03  0.00000000000E+00 0.  1.
        -13    1    5    5    0    0 -0.47899441447E+02  0.58282679493E+02 -0.34244613596E+02  0.82848782611E+02  0.00000000000E+00 0. -1.
          4    1    6    6  503    0  0.91063239317E+02 -0.14477885674E+03  0.18407222733E+02  0.17202400055E+03  0.00000000000E+00 0. -1.
         -4    1    6    6    0  503  0.33742495475E+03 -0.26924121453E+03  0.29992333464E+02  0.43271927593E+03  0.00000000000E+00 0.  1.
<mgrwt>
<rscale>  0 0.15866002E+04</rscale>
<asrwt>0</asrwt>
<pdfrwt beam="1">  1        2 0.78922786E-01 0.15866002E+04</pdfrwt>
<pdfrwt beam="2">  1       -1 0.18873216E+00 0.15866002E+04</pdfrwt>
<totfact> 0.11825102E+01</totfact>
</mgrwt>
</event>
<event>
12    7  0.1546317E-007  0.1494958E+04  0.7818608E-02  0.8887813E-01
         -1   -1    0    0    0  501 -0.00000000000E+00  0.00000000000E+00  0.20661836817E+03  0.20661836817E+03  0.00000000000E+00 0.  1.
          2   -1    0    0  501    0  0.00000000000E+00 -0.00000000000E+00 -0.27041390068E+04  0.27041390068E+04  0.00000000000E+00 0. -1.
         24    2    1    2    0    0  0.16352091637E+03  0.16053724976E+03 -0.15847737607E+04  0.16032534267E+04  0.80014867985E+02 0.  0.
        254    2    1    2    0    0 -0.16352091637E+03 -0.16053724976E+03 -0.91274687788E+03  0.13075039482E+04  0.90771604192E+03 0.  0.
         23    2    4    4    0    0 -0.73112554816E+01  0.15816040555E+03 -0.92276014491E+03  0.94060806943E+03  0.90493573801E+02 0.  0.
         23    2    4    4    0    0 -0.15620966089E+03 -0.31869765530E+03  0.10013267030E+02  0.36689587875E+03  0.92426547461E+02 0.  0.
          2    1    3    3  502    0  0.79793029065E+02  0.12724452351E+03 -0.10960792534E+04  0.11063217552E+04  0.00000000000E+00 0. -1.
         -1    1    3    3    0  502  0.83727887306E+02  0.33292726243E+02 -0.48869450731E+03  0.49693167157E+03  0.00000000000E+00 0.  1.
         13    1    5    5    0    0 -0.27358508279E+02  0.58595233708E+02 -0.56570384389E+03  0.56938802971E+03  0.00000000000E+00 0.  1.
        -13    1    5    5    0    0  0.20047252798E+02  0.99565171838E+02 -0.35705630102E+03  0.37122003972E+03  0.00000000000E+00 0. -1.
          2    1    6    6  503    0  0.11738856251E+02 -0.12153977638E+02  0.37240777602E+01  0.17302851605E+02  0.00000000000E+00 0. -1.
         -2    1    6    6    0  503 -0.16794851714E+03 -0.30654367766E+03  0.62891892701E+01  0.34959302714E+03  0.00000000000E+00 0.  1.
<mgrwt>
<rscale>  0 0.14949579E+04</rscale>
<asrwt>0</asrwt>
<pdfrwt beam="1">  1        2 0.41602135E+00 0.14949579E+04</pdfrwt>
<pdfrwt beam="2">  1       -1 0.31787444E-01 0.14949579E+04</pdfrwt>
<totfact> 0.26896760E+01</totfact>
</mgrwt>
</event>
<event>
12    7  0.1546317E-007  0.1047216E+04  0.7818608E-02  0.9258223E-01
         -1   -1    0    0    0  501 -0.00000000000E+00  0.00000000000E+00  0.23501361916E+03  0.23501361916E+03  0.00000000000E+00 0.  1.
          2   -1    0    0  501    0  0.00000000000E+00 -0.00000000000E+00 -0.11665940892E+04  0.11665940892E+04  0.00000000000E+00 0. -1.
         24    2    1    2    0    0  0.10671936123E+03 -0.19683961733E+02 -0.19870040228E+03  0.24029025348E+03  0.80505128053E+02 0.  0.
        254    2    1    2    0    0 -0.10671936123E+03  0.19683961733E+02 -0.73288006777E+03  0.11613174549E+04  0.89429780100E+03 0.  0.
         23    2    4    4    0    0 -0.22351354574E+03 -0.32794878287E+03 -0.91961769681E+02  0.41739100464E+03  0.90827167469E+02 0.  0.
         23    2    4    4    0    0  0.11679418451E+03  0.34763274461E+03 -0.64091829809E+03  0.74392645025E+03  0.90337654934E+02 0.  0.
          4    1    3    3  502    0 -0.80297688659E+01  0.10264872361E+02 -0.67943910677E+01  0.14697229079E+02  0.00000000000E+00 0. -1.
         -3    1    3    3    0  502  0.11474913010E+03 -0.29948834094E+02 -0.19190601121E+03  0.22559302440E+03  0.00000000000E+00 0.  1.
         13    1    5    5    0    0 -0.11366726489E+03 -0.24017956170E+03 -0.72610985377E+02  0.27546111189E+03  0.00000000000E+00 0.  1.
        -13    1    5    5    0    0 -0.10984628085E+03 -0.87769221172E+02 -0.19350784304E+02  0.14192989274E+03  0.00000000000E+00 0. -1.
          1    1    6    6  503    0  0.93058009694E+02  0.15228536469E+03 -0.26286299293E+03  0.31772248664E+03  0.00000000000E+00 0. -1.
         -1    1    6    6    0  503  0.23736174818E+02  0.19534737991E+03 -0.37805530516E+03  0.42620396361E+03  0.00000000000E+00 0.  1.
<mgrwt>
<rscale>  0 0.10472163E+04</rscale>
<asrwt>0</asrwt>
<pdfrwt beam="1">  1        2 0.17947601E+00 0.10472163E+04</pdfrwt>
<pdfrwt beam="2">  1       -1 0.36155942E-01 0.10472163E+04</pdfrwt>
<totfact> 0.16463317E+02</totfact>
</mgrwt>
</event>
<event>
12    7  0.1546317E-007  0.1977903E+04  0.7818608E-02  0.8617022E-01
          2   -1    0    0  501    0  0.00000000000E+00  0.00000000000E+00  0.19176507903E+04  0.19176507903E+04  0.00000000000E+00 0. -1.
         -1   -1    0    0    0  501 -0.00000000000E+00 -0.00000000000E+00 -0.51001195016E+03  0.51001195016E+03  0.00000000000E+00 0.  1.
         24    2    1    2    0    0  0.75419216785E+03 -0.13624168896E+03  0.74453349844E+03  0.10719025742E+04  0.85307528901E+02 0.  0.
        254    2    1    2    0    0 -0.75419216785E+03  0.13624168896E+03  0.66310534165E+03  0.13557601662E+04  0.90056055335E+03 0.  0.
         23    2    4    4    0    0 -0.19344064849E+03  0.73032155234E+01 -0.21499371610E+03  0.30254311925E+03  0.88529201937E+02 0.  0.
         23    2    4    4    0    0 -0.56075151936E+03  0.12893847343E+03  0.87809905775E+03  0.10532170469E+04  0.84503232785E+02 0.  0.
          2    1    3    3  502    0  0.69718835151E+03 -0.14664757437E+03  0.67549443719E+03  0.98176873205E+03  0.00000000000E+00 0. -1.
         -1    1    3    3    0  502  0.57003816339E+02  0.10405885414E+02  0.69039061250E+02  0.90133842183E+02  0.00000000000E+00 0.  1.
         13    1    5    5    0    0 -0.59975563607E+02  0.31869343220E+02 -0.11653218712E+03  0.13487947918E+03  0.00000000000E+00 0.  1.
        -13    1    5    5    0    0 -0.13346508489E+03 -0.24566127697E+02 -0.98461528978E+02  0.16766364007E+03  0.00000000000E+00 0. -1.
          1    1    6    6  503    0 -0.49027484922E+03  0.12931999668E+03  0.80726503803E+03  0.95329425203E+03  0.00000000000E+00 0. -1.
         -1    1    6    6    0  503 -0.70476670138E+02 -0.38152324926E+00  0.70834019713E+02  0.99922794909E+02  0.00000000000E+00 0.  1.
<mgrwt>
<rscale>  0 0.19779027E+04</rscale>
<asrwt>0</asrwt>
<pdfrwt beam="1">  1        2 0.29502319E+00 0.19779027E+04</pdfrwt>
<pdfrwt beam="2">  1       -1 0.78463378E-01 0.19779027E+04</pdfrwt>
<totfact> 0.12789161E+01</totfact>
</mgrwt>
</event>
<event>
12    7  0.1546317E-007  0.1628337E+04  0.7818608E-02  0.8803326E-01
          2   -1    0    0  501    0  0.00000000000E+00  0.00000000000E+00  0.64274230732E+03  0.64274230732E+03  0.00000000000E+00 0. -1.
         -1   -1    0    0    0  501 -0.00000000000E+00 -0.00000000000E+00 -0.10313157281E+04  0.10313157281E+04  0.00000000000E+00 0.  1.
         24    2    1    2    0    0  0.44009566319E+03  0.22690017620E+03 -0.41168010664E+03  0.64885375319E+03  0.79767161823E+02 0.  0.
        254    2    1    2    0    0 -0.44009566319E+03 -0.22690017620E+03  0.23106685907E+02  0.10252042822E+04  0.89740850151E+03 0.  0.
         23    2    4    4    0    0 -0.52936450831E+03  0.31484633622E+02 -0.28042447795E+03  0.60656104178E+03  0.89779422818E+02 0.  0.
         23    2    4    4    0    0  0.89268845120E+02 -0.25838480982E+03  0.30353116386E+03  0.41864324041E+03  0.91648015011E+02 0.  0.
          2    1    3    3  502    0  0.90781582122E+01  0.10215649475E+02  0.14089753498E+01  0.13738910519E+02  0.00000000000E+00 0. -1.
         -1    1    3    3    0  502  0.43101750498E+03  0.21668452673E+03 -0.41308908199E+03  0.63511484267E+03  0.00000000000E+00 0.  1.
         13    1    5    5    0    0 -0.14559877266E+03  0.34869861319E+02 -0.11434201649E+03  0.18838526100E+03  0.00000000000E+00 0. -1.
        -13    1    5    5    0    0 -0.38376573565E+03 -0.33852276974E+01 -0.16608246146E+03  0.41817578078E+03  0.00000000000E+00 0.  1.
          4    1    6    6  503    0  0.34842904078E+02 -0.10838373770E+03  0.19453915110E+03  0.22540306979E+03  0.00000000000E+00 0. -1.
         -4    1    6    6    0  503  0.54425941042E+02 -0.15000107212E+03  0.10899201276E+03  0.19324017062E+03  0.00000000000E+00 0.  1.
<mgrwt>
<rscale>  0 0.16283369E+04</rscale>
<asrwt>0</asrwt>
<pdfrwt beam="1">  1        2 0.98883432E-01 0.16283369E+04</pdfrwt>
<pdfrwt beam="2">  1       -1 0.15866396E+00 0.16283369E+04</pdfrwt>
<totfact> 0.14907669E+01</totfact>
</mgrwt>
</event>
<event>
12    7  0.1546317E-007  0.3544379E+04  0.7818608E-02  0.8103353E-01
          2   -1    0    0  501    0  0.00000000000E+00  0.00000000000E+00  0.30726907057E+04  0.30726907057E+04  0.00000000000E+00 0. -1.
         -3   -1    0    0    0  501 -0.00000000000E+00 -0.00000000000E+00 -0.10221187371E+04  0.10221187371E+04  0.00000000000E+00 0.  1.
         24    2    1    2    0    0 -0.13462949427E+04  0.95674098096E+03  0.11138886584E+04  0.19937116056E+04  0.79212660436E+02 0.  0.
        254    2    1    2    0    0  0.13462949427E+04 -0.95674098096E+03  0.93668331010E+03  0.21010978372E+04  0.89965166631E+03 0.  0.
         23    2    4    4    0    0  0.10226653306E+04 -0.66069274041E+03  0.19787527232E+03  0.12369197907E+04  0.91960152644E+02 0.  0.
         23    2    4    4    0    0  0.32362961211E+03 -0.29604824055E+03  0.73880803779E+03  0.86417804648E+03  0.92659013338E+02 0.  0.
          4    1    3    3  502    0 -0.10607276737E+04  0.71530843144E+03  0.84907550902E+03  0.15354929404E+04  0.00000000000E+00 0. -1.
         -3    1    3    3    0  502 -0.28556726898E+03  0.24143254952E+03  0.26481314941E+03  0.45821866525E+03  0.00000000000E+00 0.  1.
         13    1    5    5    0    0  0.98711949065E+03 -0.65056987034E+03  0.17993148431E+03  0.11958350154E+04  0.00000000000E+00 0. -1.
        -13    1    5    5    0    0  0.35545839926E+02 -0.10122870068E+02  0.17943788003E+02  0.41084775311E+02  0.00000000000E+00 0.  1.
          4    1    6    6  503    0  0.20401023638E+02 -0.22469084911E+02  0.16856385411E+02  0.34715980057E+02  0.00000000000E+00 0.  1.
         -4    1    6    6    0  503  0.30322858847E+03 -0.27357915564E+03  0.72195165237E+03  0.82946206642E+03  0.00000000000E+00 0. -1.
<mgrwt>
<rscale>  0 0.35443785E+04</rscale>
<asrwt>0</asrwt>
<pdfrwt beam="1">  1        2 0.47272164E+00 0.35443785E+04</pdfrwt>
<pdfrwt beam="2">  1       -3 0.15724904E+00 0.35443785E+04</pdfrwt>
<totfact> 0.23248695E-01</totfact>
</mgrwt>
</event>
<event>
12    7  0.1546317E-007  0.1486759E+04  0.7818608E-02  0.8893306E-01
         -1   -1    0    0    0  501 -0.00000000000E+00  0.00000000000E+00  0.17096318909E+03  0.17096318909E+03  0.00000000000E+00 0.  1.
          2   -1    0    0  501    0  0.00000000000E+00 -0.00000000000E+00 -0.32323503496E+04  0.32323503496E+04  0.00000000000E+00 0. -1.
         24    2    1    2    0    0  0.32079824166E+03 -0.17721130593E+03 -0.31364338960E+03  0.48903651996E+03  0.80431232770E+02 0.  0.
        254    2    1    2    0    0 -0.32079824166E+03  0.17721130593E+03 -0.27477437709E+04  0.29142770188E+04  0.89922152587E+03 0.  0.
         23    2    4    4    0    0 -0.61391398685E+03  0.48660287652E+02 -0.15252902447E+04  0.16473901804E+04  0.90143602605E+02 0.  0.
         23    2    4    4    0    0  0.29311574519E+03  0.12855101828E+03 -0.12224535263E+04  0.12668868384E+04  0.90373851385E+02 0.  0.
          4    1    3    3  502    0  0.70358568758E+02 -0.78851033876E+02 -0.99657843290E+02  0.14525666756E+03  0.00000000000E+00 0. -1.
         -3    1    3    3    0  502  0.25043967291E+03 -0.98360272058E+02 -0.21398554631E+03  0.34377985240E+03  0.00000000000E+00 0.  1.
         13    1    5    5    0    0 -0.19375916037E+02  0.18754680850E+02 -0.59149648777E+02  0.65006500648E+02  0.00000000000E+00 0. -1.
        -13    1    5    5    0    0 -0.59453807081E+03  0.29905606802E+02 -0.14661405959E+04  0.15823836797E+04  0.00000000000E+00 0.  1.
          3    1    6    6  503    0  0.51826593623E+01 -0.54497495721E+01 -0.10247036481E+03  0.10274597506E+03  0.00000000000E+00 0. -1.
         -3    1    6    6    0  503  0.28793308582E+03  0.13400076785E+03 -0.11199831615E+04  0.11641408633E+04  0.00000000000E+00 0.  1.
<mgrwt>
<rscale>  0 0.14867588E+04</rscale>
<asrwt>0</asrwt>
<pdfrwt beam="1">  1        2 0.49728464E+00 0.14867588E+04</pdfrwt>
<pdfrwt beam="2">  1       -1 0.26302031E-01 0.14867588E+04</pdfrwt>
<totfact> 0.17640063E+01</totfact>
</mgrwt>
</event>
<event>
12    7  0.1546317E-007  0.1433711E+04  0.7818608E-02  0.8929772E-01
          2   -1    0    0  501    0  0.00000000000E+00  0.00000000000E+00  0.69582618151E+03  0.69582618151E+03  0.00000000000E+00 0. -1.
         -1   -1    0    0    0  501 -0.00000000000E+00 -0.00000000000E+00 -0.73851992157E+03  0.73851992157E+03  0.00000000000E+00 0.  1.
         24    2    1    2    0    0  0.14585993635E+02  0.43301583176E+03 -0.50968822849E+02  0.44354871405E+03  0.80138499331E+02 0.  0.
        254    2    1    2    0    0 -0.14585993635E+02 -0.43301583176E+03  0.82750827936E+01  0.99079738903E+03  0.89100815223E+03 0.  0.
         23    2    4    4    0    0 -0.15254662277E+03  0.18670913882E+01  0.36317526850E+03  0.40415754850E+03  0.90405144810E+02 0.  0.
         23    2    4    4    0    0  0.13796062914E+03 -0.43488292314E+03 -0.35490018570E+03  0.58663984053E+03  0.10017918272E+03 0.  0.
          2    1    3    3  502    0 -0.66381568065E+01  0.51822242263E+01 -0.10238429591E+02  0.13256923256E+02  0.00000000000E+00 0. -1.
         -1    1    3    3    0  502  0.21224150442E+02  0.42783360753E+03 -0.40730393258E+02  0.43029179080E+03  0.00000000000E+00 0.  1.
         13    1    5    5    0    0 -0.15506736123E+03  0.95088363228E+01  0.27688327235E+03  0.31749118255E+03  0.00000000000E+00 0. -1.
        -13    1    5    5    0    0  0.25207384554E+01 -0.76417449346E+01  0.86291996146E+02  0.86666365950E+02  0.00000000000E+00 0.  1.
          3    1    6    6  503    0  0.11594465534E+03 -0.22805840917E+03 -0.16099238521E+03  0.30227859533E+03  0.00000000000E+00 0. -1.
         -3    1    6    6    0  503  0.22015973795E+02 -0.20682451397E+03 -0.19390780049E+03  0.28436124520E+03  0.00000000000E+00 0.  1.
<mgrwt>
<rscale>  0 0.14337106E+04</rscale>
<asrwt>0</asrwt>
<pdfrwt beam="1">  1        2 0.10705018E+00 0.14337106E+04</pdfrwt>
<pdfrwt beam="2">  1       -1 0.11361845E+00 0.14337106E+04</pdfrwt>
<totfact> 0.32363911E+01</totfact>
</mgrwt>
</event>
<event>
12    7  0.1546317E-007  0.2567144E+04  0.7818608E-02  0.8379448E-01
         -1   -1    0    0    0  501 -0.00000000000E+00  0.00000000000E+00  0.79790314373E+03  0.79790314373E+03  0.00000000000E+00 0.  1.
          2   -1    0    0  501    0  0.00000000000E+00 -0.00000000000E+00 -0.20648585409E+04  0.20648585409E+04  0.00000000000E+00 0. -1.
         24    2    1    2    0    0  0.28573162606E+03 -0.10903421440E+04 -0.60657483073E+03  0.12826162155E+04  0.81748258956E+02 0.  0.
        254    2    1    2    0    0 -0.28573162606E+03  0.10903421440E+04 -0.66038056644E+03  0.15801454692E+04  0.88897056092E+03 0.  0.
         23    2    4    4    0    0 -0.41108060433E+03  0.54110569666E+03 -0.73425515219E+03  0.10047472758E+04  0.92756786923E+02 0.  0.
         23    2    4    4    0    0  0.12534897827E+03  0.54923644730E+03  0.73874585746E+02  0.57539819336E+03  0.90843740043E+02 0.  0.
          2    1    3    3  502    0  0.97916316131E+02 -0.26232903144E+03 -0.17477989964E+03  0.33007898906E+03  0.00000000000E+00 0. -1.
         -1    1    3    3    0  502  0.18781530993E+03 -0.82801311252E+03 -0.43179493109E+03  0.95253722639E+03  0.00000000000E+00 0.  1.
         13    1    5    5    0    0 -0.37298708195E+03  0.48539532787E+03 -0.61505526116E+03  0.86776780414E+03  0.00000000000E+00 0.  1.
        -13    1    5    5    0    0 -0.38093522378E+02  0.55710368788E+02 -0.11919989103E+03  0.13697947167E+03  0.00000000000E+00 0. -1.
          1    1    6    6  503    0  0.77120659695E+02  0.24120881208E+03 -0.68741117834E+01  0.25333089150E+03  0.00000000000E+00 0. -1.
         -1    1    6    6    0  503  0.48228318574E+02  0.30802763523E+03  0.80748697529E+02  0.32206730186E+03  0.00000000000E+00 0.  1.
<mgrwt>
<rscale>  0 0.25671440E+04</rscale>
<asrwt>0</asrwt>
<pdfrwt beam="1">  1        2 0.31767054E+00 0.25671440E+04</pdfrwt>
<pdfrwt beam="2">  1       -1 0.12275433E+00 0.25671440E+04</pdfrwt>
<totfact> 0.36313218E+00</totfact>
</mgrwt>
</event>
<event>
12    7  0.1546317E-007  0.2136630E+04  0.7818608E-02  0.8545277E-01
          2   -1    0    0  501    0  0.00000000000E+00  0.00000000000E+00  0.18980039759E+04  0.18980039759E+04  0.00000000000E+00 0. -1.
         -1   -1    0    0    0  501 -0.00000000000E+00 -0.00000000000E+00 -0.60131422112E+03  0.60131422112E+03  0.00000000000E+00 0.  1.
         24    2    1    2    0    0 -0.32597760030E+02  0.17589136895E+03  0.15351767778E+04  0.15476409976E+04  0.80153169345E+02 0.  0.
        254    2    1    2    0    0  0.32597760030E+02 -0.17589136895E+03 -0.23848702299E+03  0.95167719950E+03  0.90377709879E+03 0.  0.
         23    2    4    4    0    0 -0.26605090301E+03 -0.40130839220E+03  0.15116104271E+02  0.49078361407E+03  0.93853878918E+02 0.  0.
         23    2    4    4    0    0  0.29864866304E+03  0.22541702325E+03 -0.25360312726E+03  0.46089358543E+03  0.90024955599E+02 0.  0.
          2    1    3    3  502    0 -0.55427654527E+02  0.11431546698E+03  0.11382730564E+04  0.11453409108E+04  0.00000000000E+00 0. -1.
         -1    1    3    3    0  502  0.22829894497E+02  0.61575901967E+02  0.39690372137E+03  0.40230008678E+03  0.00000000000E+00 0.  1.
         13    1    5    5    0    0 -0.19003223497E+03 -0.31436909356E+03 -0.25838630950E+02  0.36824966010E+03  0.00000000000E+00 0. -1.
        -13    1    5    5    0    0 -0.76018668040E+02 -0.86939298639E+02  0.40954735221E+02  0.12253395397E+03  0.00000000000E+00 0.  1.
          4    1    6    6  503    0  0.27591601965E+03  0.23135753953E+03 -0.22824556832E+03  0.42632382112E+03  0.00000000000E+00 0. -1.
         -4    1    6    6    0  503  0.22732643394E+02 -0.59405162803E+01 -0.25357558942E+02  0.34569764316E+02  0.00000000000E+00 0.  1.
<mgrwt>
<rscale>  0 0.21366299E+04</rscale>
<asrwt>0</asrwt>
<pdfrwt beam="1">  1        2 0.29200061E+00 0.21366299E+04</pdfrwt>
<pdfrwt beam="2">  1       -1 0.92509881E-01 0.21366299E+04</pdfrwt>
<totfact> 0.90488401E+00</totfact>
</mgrwt>
</event>
<event>
12    7  0.1546317E-007  0.1086882E+04  0.7818608E-02  0.9218072E-01
          4   -1    0    0  501    0  0.00000000000E+00  0.00000000000E+00  0.25109542412E+03  0.25109542412E+03  0.00000000000E+00 0. -1.
         -3   -1    0    0    0  501 -0.00000000000E+00 -0.00000000000E+00 -0.11761595482E+04  0.11761595482E+04  0.00000000000E+00 0.  1.
         24    2    1    2    0    0  0.11257358146E+03 -0.45754828275E+02 -0.25375009346E+03  0.29251399586E+03  0.80056306990E+02 0.  0.
        254    2    1    2    0    0 -0.11257358146E+03  0.45754828275E+02 -0.67131403061E+03  0.11347409764E+04  0.90675699081E+03 0.  0.
         23    2    4    4    0    0 -0.36135378175E+03 -0.24261215203E+03 -0.58348267435E+03  0.73332749103E+03  0.88769172196E+02 0.  0.
         23    2    4    4    0    0  0.24878020029E+03  0.28836698031E+03 -0.87831356254E+02  0.40141348541E+03  0.91495003926E+02 0.  0.
          4    1    3    3  502    0 -0.94878118968E+01 -0.71078196238E+01 -0.53756597666E+02  0.55048264887E+02  0.00000000000E+00 0. -1.
         -3    1    3    3    0  502  0.12206139336E+03 -0.38647008651E+02 -0.19999349580E+03  0.23746573098E+03  0.00000000000E+00 0.  1.
         13    1    5    5    0    0 -0.28645260397E+03 -0.16270942874E+03 -0.48328744066E+03  0.58488990658E+03  0.00000000000E+00 0. -1.
        -13    1    5    5    0    0 -0.74901177785E+02 -0.79902723290E+02 -0.10019523370E+03  0.14843758445E+03  0.00000000000E+00 0.  1.
          3    1    6    6  503    0  0.22224471217E+03  0.25947901203E+03 -0.10665256800E+03  0.35790618887E+03  0.00000000000E+00 0. -1.
         -3    1    6    6    0  503  0.26535488117E+02  0.28887968279E+02  0.18821211745E+02  0.43507296543E+02  0.00000000000E+00 0.  1.
<mgrwt>
<rscale>  0 0.10868823E+04</rscale>
<asrwt>0</asrwt>
<pdfrwt beam="1">  1        4 0.38630066E-01 0.10868823E+04</pdfrwt>
<pdfrwt beam="2">  1       -3 0.18094762E+00 0.10868823E+04</pdfrwt>
<totfact> 0.28976523E+00</totfact>
</mgrwt>
</event>
<event>
12    7  0.1546317E-007  0.2069287E+04  0.7818608E-02  0.8574895E-01
          2   -1    0    0  501    0  0.00000000000E+00  0.00000000000E+00  0.12084945019E+04  0.12084945019E+04  0.00000000000E+00 0. -1.
         -1   -1    0    0    0  501 -0.00000000000E+00 -0.00000000000E+00 -0.88580223524E+03  0.88580223524E+03  0.00000000000E+00 0.  1.
         24    2    1    2    0    0  0.12377781618E+03 -0.43071653222E+03 -0.58120708469E+03  0.73832516156E+03  0.80527572897E+02 0.  0.
        254    2    1    2    0    0 -0.12377781618E+03  0.43071653222E+03  0.90389935133E+03  0.13559715756E+04  0.90597306664E+03 0.  0.
         23    2    4    4    0    0  0.37046787716E+03  0.24865956803E+03  0.28020881109E+03  0.53470657797E+03  0.91192751535E+02 0.  0.
         23    2    4    4    0    0 -0.49424569334E+03  0.18205696419E+03  0.62369054024E+03  0.82126499759E+03  0.89792887688E+02 0.  0.
          4    1    3    3  502    0  0.78175583816E+00 -0.12850705096E+03 -0.18067835918E+03  0.22171906270E+03  0.00000000000E+00 0. -1.
         -3    1    3    3    0  502  0.12299606035E+03 -0.30220948126E+03 -0.40052872551E+03  0.51660609887E+03  0.00000000000E+00 0.  1.
         13    1    5    5    0    0  0.79754235040E+01  0.19202792049E+02 -0.24675015198E+01  0.20939034512E+02  0.00000000000E+00 0. -1.
        -13    1    5    5    0    0  0.36249245366E+03  0.22945677599E+03  0.28267631261E+03  0.51376754346E+03  0.00000000000E+00 0.  1.
          3    1    6    6  503    0 -0.19624438826E+03  0.32544472898E+02  0.26782729863E+03  0.33362023999E+03  0.00000000000E+00 0. -1.
         -3    1    6    6    0  503 -0.29800130509E+03  0.14951249129E+03  0.35586324162E+03  0.48764475760E+03  0.00000000000E+00 0.  1.
<mgrwt>
<rscale>  0 0.20692870E+04</rscale>
<asrwt>0</asrwt>
<pdfrwt beam="1">  1        2 0.18592223E+00 0.20692870E+04</pdfrwt>
<pdfrwt beam="2">  1       -1 0.13627727E+00 0.20692870E+04</pdfrwt>
<totfact> 0.88662010E+00</totfact>
</mgrwt>
</event>
<event>
12    7  0.1546317E-007  0.2571258E+04  0.7818608E-02  0.8378030E-01
          2   -1    0    0  501    0  0.00000000000E+00  0.00000000000E+00  0.31503771378E+04  0.31503771378E+04  0.00000000000E+00 0. -1.
         -1   -1    0    0    0  501 -0.00000000000E+00 -0.00000000000E+00 -0.52464892668E+03  0.52464892668E+03  0.00000000000E+00 0.  1.
         24    2    1    2    0    0  0.34177264132E+03  0.72501089937E+03  0.21187030603E+02  0.80544713585E+03  0.76464735748E+02 0.  0.
        254    2    1    2    0    0 -0.34177264132E+03 -0.72501089937E+03  0.26045411805E+04  0.28695789286E+04  0.89911018462E+03 0.  0.
         23    2    4    4    0    0 -0.42528385628E+03 -0.84303241975E+03  0.24886161927E+04  0.26633049291E+04  0.91720072405E+02 0.  0.
         23    2    4    4    0    0  0.83511214960E+02  0.11802152038E+03  0.11592498778E+03  0.20627399949E+03  0.90593364980E+02 0.  0.
          2    1    3    3  502    0  0.21472522416E+03  0.50277779507E+03 -0.15001108261E+02  0.54691632481E+03  0.00000000000E+00 0. -1.
         -1    1    3    3    0  502  0.12704741717E+03  0.22223310431E+03  0.36188138864E+02  0.25853081103E+03  0.00000000000E+00 0.  1.
         13    1    5    5    0    0 -0.12567232815E+03 -0.29293485983E+03  0.95073378304E+03  0.10027457765E+04  0.00000000000E+00 0.  1.
        -13    1    5    5    0    0 -0.29961152813E+03 -0.55009755992E+03  0.15378824097E+04  0.16605591526E+04  0.00000000000E+00 0. -1.
          1    1    6    6  503    0  0.83159967094E+02  0.41544768077E+02  0.75575999739E+02  0.11980517359E+03  0.00000000000E+00 0. -1.
         -1    1    6    6    0  503  0.35124786620E+00  0.76476752300E+02  0.40348988038E+02  0.86468825904E+02  0.00000000000E+00 0.  1.
<mgrwt>
<rscale>  0 0.25712580E+04</rscale>
<asrwt>0</asrwt>
<pdfrwt beam="1">  1        2 0.48467340E+00 0.25712580E+04</pdfrwt>
<pdfrwt beam="2">  1       -1 0.80715221E-01 0.25712580E+04</pdfrwt>
<totfact> 0.21555316E+00</totfact>
</mgrwt>
</event>
<event>
12    7  0.1546317E-007  0.1278940E+04  0.7818608E-02  0.9046434E-01
         -1   -1    0    0    0  501 -0.00000000000E+00  0.00000000000E+00  0.22817615887E+03  0.22817615887E+03  0.00000000000E+00 0.  1.
          2   -1    0    0  501    0  0.00000000000E+00 -0.00000000000E+00 -0.17921329485E+04  0.17921329485E+04  0.00000000000E+00 0. -1.
         24    2    1    2    0    0  0.19287529927E+03  0.20437110494E+03 -0.39117739577E+03  0.48846983298E+03  0.81330149189E+02 0.  0.
        254    2    1    2    0    0 -0.19287529927E+03 -0.20437110494E+03 -0.11727793938E+04  0.15318392743E+04  0.94453778446E+03 0.  0.
         23    2    4    4    0    0 -0.14119839296E+03  0.33203830838E+03 -0.76053388183E+03  0.84723690228E+03  0.95979991513E+02 0.  0.
         23    2    4    4    0    0 -0.51676906313E+02 -0.53640941332E+03 -0.41224551198E+03  0.68460237206E+03  0.91260530005E+02 0.  0.
          2    1    3    3  502    0  0.11059523951E+03  0.10305781968E+03 -0.27464960442E+03  0.31350379010E+03  0.00000000000E+00 0. -1.
         -1    1    3    3    0  502  0.82280059756E+02  0.10131328526E+03 -0.11652779136E+03  0.17496604289E+03  0.00000000000E+00 0.  1.
         13    1    5    5    0    0 -0.15365963452E+03  0.32010238668E+03 -0.73678949022E+03  0.81788481716E+03  0.00000000000E+00 0.  1.
        -13    1    5    5    0    0  0.12461241564E+02  0.11935921699E+02 -0.23744391608E+02  0.29352085121E+02  0.00000000000E+00 0. -1.
          1    1    6    6  503    0  0.56331390440E+01 -0.86639053893E+02 -0.30928505624E+02  0.92166319093E+02  0.00000000000E+00 0. -1.
         -1    1    6    6    0  503 -0.57310045357E+02 -0.44977035943E+03 -0.38131700636E+03  0.59243605297E+03  0.00000000000E+00 0.  1.
<mgrwt>
<rscale>  0 0.12789402E+04</rscale>
<asrwt>0</asrwt>
<pdfrwt beam="1">  1        2 0.27571277E+00 0.12789402E+04</pdfrwt>
<pdfrwt beam="2">  1       -1 0.35104024E-01 0.12789402E+04</pdfrwt>
<totfact> 0.75238613E+01</totfact>
</mgrwt>
</event>
<event>
12    7  0.1546317E-007  0.2348824E+04  0.7818608E-02  0.8458916E-01
         -1   -1    0    0    0  501 -0.00000000000E+00  0.00000000000E+00  0.76901563548E+03  0.76901563548E+03  0.00000000000E+00 0.  1.
          2   -1    0    0  501    0  0.00000000000E+00 -0.00000000000E+00 -0.17935180797E+04  0.17935180797E+04  0.00000000000E+00 0. -1.
         24    2    1    2    0    0 -0.48434529180E+02 -0.21172417898E+03  0.63061506929E+03  0.67165632581E+03  0.79207466849E+02 0.  0.
        254    2    1    2    0    0  0.48434529180E+02  0.21172417898E+03 -0.16551175135E+04  0.18908773893E+04  0.88816118273E+03 0.  0.
         23    2    4    4    0    0 -0.74288305111E+02  0.49842955623E+03 -0.13538037845E+04  0.14474525332E+04  0.91560766586E+02 0.  0.
         23    2    4    4    0    0  0.12272283429E+03 -0.28670537725E+03 -0.30131372895E+03  0.44342485617E+03  0.92600067028E+02 0.  0.
          2    1    3    3  502    0  0.64101547736E-01 -0.69915023546E+02  0.11391368843E+03  0.13365793294E+03  0.00000000000E+00 0. -1.
         -1    1    3    3    0  502 -0.48498630727E+02 -0.14180915544E+03  0.51670138086E+03  0.53799839287E+03  0.00000000000E+00 0.  1.
         13    1    5    5    0    0 -0.23307020855E+02  0.12145294329E+03 -0.45395719473E+03  0.47050097694E+03  0.00000000000E+00 0.  1.
        -13    1    5    5    0    0 -0.50981284256E+02  0.37697661294E+03 -0.89984658981E+03  0.97695155625E+03  0.00000000000E+00 0. -1.
          4    1    6    6  503    0  0.10314107307E+03 -0.13231706151E+03 -0.18035280125E+03  0.24631893682E+03  0.00000000000E+00 0. -1.
         -4    1    6    6    0  503  0.19581761222E+02 -0.15438831574E+03 -0.12096092770E+03  0.19710591934E+03  0.00000000000E+00 0.  1.
<mgrwt>
<rscale>  0 0.23488239E+04</rscale>
<asrwt>0</asrwt>
<pdfrwt beam="1">  1        2 0.27592586E+00 0.23488239E+04</pdfrwt>
<pdfrwt beam="2">  1       -1 0.11831010E+00 0.23488239E+04</pdfrwt>
<totfact> 0.57327238E+00</totfact>
</mgrwt>
</event>
<event>
12    7  0.1546317E-007  0.3112366E+04  0.7818608E-02  0.8212352E-01
          2   -1    0    0  501    0  0.00000000000E+00  0.00000000000E+00  0.45968536533E+04  0.45968536533E+04  0.00000000000E+00 0. -1.
         -1   -1    0    0    0  501 -0.00000000000E+00 -0.00000000000E+00 -0.52681797003E+03  0.52681797003E+03  0.00000000000E+00 0.  1.
         24    2    1    2    0    0  0.13780189248E+04 -0.31442574702E+03  0.21679554537E+04  0.25892885411E+04  0.81145501966E+02 0.  0.
        254    2    1    2    0    0 -0.13780189248E+04  0.31442574702E+03  0.19020802296E+04  0.25343830822E+04  0.89854810684E+03 0.  0.
         23    2    4    4    0    0  0.11610597805E+03  0.30174969799E+02  0.17164527238E+03  0.22848351456E+03  0.91386486717E+02 0.  0.
         23    2    4    4    0    0 -0.14941249028E+04  0.28425077722E+03  0.17304349572E+04  0.23058995676E+04  0.97774973761E+02 0.  0.
          4    1    3    3  502    0  0.34922410308E+03 -0.43737875266E+02  0.54020273023E+03  0.64473984339E+03  0.00000000000E+00 0. -1.
         -3    1    3    3    0  502  0.10287948217E+04 -0.27068787176E+03  0.16277527235E+04  0.19445486978E+04  0.00000000000E+00 0.  1.
         13    1    5    5    0    0  0.11968393074E+03  0.11197478454E+02  0.10671148118E+03  0.16073881615E+03  0.00000000000E+00 0. -1.
        -13    1    5    5    0    0 -0.35779526911E+01  0.18977491345E+02  0.64933791205E+02  0.67744698416E+02  0.00000000000E+00 0.  1.
          1    1    6    6  503    0 -0.13152976518E+04  0.24508747410E+03  0.14718736177E+04  0.19890921872E+04  0.00000000000E+00 0. -1.
         -1    1    6    6    0  503 -0.17882725099E+03  0.39163303125E+02  0.25856133949E+03  0.31680738042E+03  0.00000000000E+00 0.  1.
<mgrwt>
<rscale>  0 0.31123657E+04</rscale>
<asrwt>0</asrwt>
<pdfrwt beam="1">  1        2 0.70720823E+00 0.31123657E+04</pdfrwt>
<pdfrwt beam="2">  1       -1 0.81048921E-01 0.31123657E+04</pdfrwt>
<totfact> 0.14359804E-01</totfact>
</mgrwt>
</event>
<event>
12    7  0.1546317E-007  0.1436502E+04  0.7818608E-02  0.8927812E-01
          2   -1    0    0  501    0  0.00000000000E+00  0.00000000000E+00  0.80165625522E+03  0.80165625522E+03  0.00000000000E+00 0. -1.
         -1   -1    0    0    0  501 -0.00000000000E+00 -0.00000000000E+00 -0.64352346172E+03  0.64352346172E+03  0.00000000000E+00 0.  1.
         24    2    1    2    0    0  0.37303301984E+03  0.19704765691E+03  0.14144744711E+03  0.45200179562E+03  0.79478487412E+02 0.  0.
        254    2    1    2    0    0 -0.37303301984E+03 -0.19704765691E+03  0.16685346390E+02  0.99317792132E+03  0.89896750199E+03 0.  0.
         23    2    4    4    0    0  0.13007371633E+03  0.19353682170E+03  0.20448196388E+03  0.32295940416E+03  0.90079021701E+02 0.  0.
         23    2    4    4    0    0 -0.50310673617E+03 -0.39058447861E+03 -0.18779661749E+03  0.67021851716E+03  0.90844197897E+02 0.  0.
          2    1    3    3  502    0  0.13741682076E+03  0.93451827691E+02  0.19931230645E+02  0.16737347664E+03  0.00000000000E+00 0. -1.
         -3    1    3    3    0  502  0.23561619908E+03  0.10359582922E+03  0.12151621647E+03  0.28462831898E+03  0.00000000000E+00 0.  1.
         13    1    5    5    0    0  0.16309029431E+02  0.81748764258E+01  0.57847367384E+02  0.60655840270E+02  0.00000000000E+00 0. -1.
        -13    1    5    5    0    0  0.11376468690E+03  0.18536194527E+03  0.14663459650E+03  0.26230356389E+03  0.00000000000E+00 0.  1.
          1    1    6    6  503    0 -0.23260337043E+03 -0.12710933411E+03 -0.62217971703E+02  0.27227226585E+03  0.00000000000E+00 0. -1.
         -1    1    6    6    0  503 -0.27050336574E+03 -0.26347514450E+03 -0.12557864579E+03  0.39794625131E+03  0.00000000000E+00 0.  1.
<mgrwt>
<rscale>  0 0.14365022E+04</rscale>
<asrwt>0</asrwt>
<pdfrwt beam="1">  1        2 0.12333173E+00 0.14365022E+04</pdfrwt>
<pdfrwt beam="2">  1       -1 0.99003610E-01 0.14365022E+04</pdfrwt>
<totfact> 0.37141515E+01</totfact>
</mgrwt>
</event>
<event>
12    7  0.1546317E-007  0.1480482E+04  0.7818608E-02  0.8897537E-01
         -1   -1    0    0    0  501 -0.00000000000E+00  0.00000000000E+00  0.27370375214E+03  0.27370375214E+03  0.00000000000E+00 0.  1.
          2   -1    0    0  501    0  0.00000000000E+00 -0.00000000000E+00 -0.20020066886E+04  0.20020066886E+04  0.00000000000E+00 0. -1.
         24    2    1    2    0    0 -0.17865562173E+03 -0.19401291101E+03 -0.11138564494E+04  0.11472245496E+04  0.76740710191E+02 0.  0.
        254    2    1    2    0    0  0.17865562173E+03  0.19401291101E+03 -0.61444648709E+03  0.11284858911E+04  0.90905284785E+03 0.  0.
         23    2    4    4    0    0 -0.21667560648E+03 -0.24135487967E+03 -0.12242328120E+03  0.35609698644E+03  0.81345605809E+02 0.  0.
         23    2    4    4    0    0  0.39533122822E+03  0.43536779068E+03 -0.49202320589E+03  0.77238890470E+03  0.93090771846E+02 0.  0.
          4    1    3    3  502    0 -0.16959551902E+03 -0.19606047557E+03 -0.10022775877E+04  0.10352597321E+04  0.00000000000E+00 0. -1.
         -3    1    3    3    0  502 -0.90601027112E+01  0.20475645621E+01 -0.11157886171E+03  0.11196481752E+03  0.00000000000E+00 0.  1.
         13    1    5    5    0    0 -0.19255945691E+03 -0.16263260627E+03 -0.91128012616E+02  0.26801646172E+03  0.00000000000E+00 0. -1.
        -13    1    5    5    0    0 -0.24116149574E+02 -0.78722273396E+02 -0.31295268582E+02  0.88080524718E+02  0.00000000000E+00 0.  1.
          3    1    6    6  503    0  0.39536787585E+03  0.43483377335E+03 -0.47581535042E+03  0.75617221279E+03  0.00000000000E+00 0. -1.
         -3    1    6    6    0  503 -0.36647632617E-01  0.53401732637E+00 -0.16207855464E+02  0.16216691904E+02  0.00000000000E+00 0.  1.
<mgrwt>
<rscale>  0 0.14804820E+04</rscale>
<asrwt>0</asrwt>
<pdfrwt beam="1">  1        2 0.30800103E+00 0.14804820E+04</pdfrwt>
<pdfrwt beam="2">  1       -1 0.42108269E-01 0.14804820E+04</pdfrwt>
<totfact> 0.40718136E+01</totfact>
</mgrwt>
</event>
<event>
12    7  0.1546317E-007  0.1217246E+04  0.7818608E-02  0.9097894E-01
         -1   -1    0    0    0  501 -0.00000000000E+00  0.00000000000E+00  0.58031594945E+03  0.58031594945E+03  0.00000000000E+00 0.  1.
          2   -1    0    0  501    0  0.00000000000E+00 -0.00000000000E+00 -0.63831096434E+03  0.63831096434E+03  0.00000000000E+00 0. -1.
         24    2    1    2    0    0  0.12046309896E+03 -0.16263347849E+03 -0.20753510640E+03  0.30145376378E+03  0.82719675859E+02 0.  0.
        254    2    1    2    0    0 -0.12046309896E+03  0.16263347849E+03  0.14954009151E+03  0.91717315001E+03  0.88197695072E+03 0.  0.
         23    2    4    4    0    0 -0.24137651188E+03  0.18737211040E+03  0.46665937572E+03  0.56519582881E+03  0.91128610877E+02 0.  0.
         23    2    4    4    0    0  0.12091341292E+03 -0.24738631908E+02 -0.31711928421E+03  0.35197732120E+03  0.89951880947E+02 0.  0.
          4    1    3    3  502    0  0.12291214438E+03 -0.10889781749E+03 -0.14611357052E+03  0.21980742795E+03  0.00000000000E+00 0. -1.
         -3    1    3    3    0  502 -0.24490454136E+01 -0.53735660994E+02 -0.61421535879E+02  0.81646335837E+02  0.00000000000E+00 0.  1.
         13    1    5    5    0    0 -0.79234288135E+01  0.42471877920E+02  0.78906213079E+02  0.89960166744E+02  0.00000000000E+00 0.  1.
        -13    1    5    5    0    0 -0.23345308307E+03  0.14490023248E+03  0.38775316264E+03  0.47523566207E+03  0.00000000000E+00 0. -1.
          3    1    6    6  503    0  0.12001036633E+03 -0.37122669609E+02 -0.31533110928E+03  0.33943230416E+03  0.00000000000E+00 0. -1.
         -3    1    6    6    0  503  0.90304659159E+00  0.12384037701E+02 -0.17881749291E+01  0.12545017039E+02  0.00000000000E+00 0.  1.
<mgrwt>
<rscale>  0 0.12172461E+04</rscale>
<asrwt>0</asrwt>
<pdfrwt beam="1">  1        2 0.98201687E-01 0.12172461E+04</pdfrwt>
<pdfrwt beam="2">  1       -1 0.89279376E-01 0.12172461E+04</pdfrwt>
<totfact> 0.63707209E+01</totfact>
</mgrwt>
</event>
<event>
12    7  0.1546317E-007  0.1997770E+04  0.7818608E-02  0.8607664E-01
         -1   -1    0    0    0  501 -0.00000000000E+00  0.00000000000E+00  0.28695590269E+03  0.28695590269E+03  0.00000000000E+00 0.  1.
          2   -1    0    0  501    0  0.00000000000E+00 -0.00000000000E+00 -0.34770893440E+04  0.34770893440E+04  0.00000000000E+00 0. -1.
         24    2    1    2    0    0  0.44610856131E+03 -0.15036584933E+02 -0.39121600328E+02  0.45503921684E+03  0.79317349216E+02 0.  0.
        254    2    1    2    0    0 -0.44610856131E+03  0.15036584933E+02 -0.31510118409E+04  0.33090060298E+04  0.90631470046E+03 0.  0.
         23    2    4    4    0    0 -0.19065560442E+03 -0.20647487212E+03 -0.25125159871E+03  0.38819078194E+03  0.92646019968E+02 0.  0.
         23    2    4    4    0    0 -0.25545295689E+03  0.22151145705E+03 -0.28997602422E+04  0.29208152479E+04  0.90712243028E+02 0.  0.
          4    1    3    3  502    0  0.50665072900E+02  0.10778018178E+02  0.17617392612E+02  0.54712775567E+02  0.00000000000E+00 0. -1.
         -3    1    3    3    0  502  0.39544348841E+03 -0.25814603112E+02 -0.56738992940E+02  0.40032644127E+03  0.00000000000E+00 0.  1.
         13    1    5    5    0    0 -0.14054101514E+03 -0.20076453909E+03 -0.21580262545E+03  0.32654088602E+03  0.00000000000E+00 0. -1.
        -13    1    5    5    0    0 -0.50114589279E+02 -0.57103330334E+01 -0.35448973268E+02  0.61649895926E+02  0.00000000000E+00 0.  1.
          1    1    6    6  503    0 -0.91658377203E+02  0.13498827221E+03 -0.15009010524E+04  0.15097440381E+04  0.00000000000E+00 0. -1.
         -1    1    6    6    0  503 -0.16379457969E+03  0.86523184842E+02 -0.13988591899E+04  0.14110712097E+04  0.00000000000E+00 0.  1.
<mgrwt>
<rscale>  0 0.19977701E+04</rscale>
<asrwt>0</asrwt>
<pdfrwt beam="1">  1        2 0.53493686E+00 0.19977701E+04</pdfrwt>
<pdfrwt beam="2">  1       -1 0.44147059E-01 0.19977701E+04</pdfrwt>
<totfact> 0.45529106E+00</totfact>
</mgrwt>
</event>
<event>
12    7  0.1546317E-007  0.1552307E+04  0.7818608E-02  0.8850396E-01
          2   -1    0    0  501    0  0.00000000000E+00  0.00000000000E+00  0.37746593019E+04  0.37746593019E+04  0.00000000000E+00 0. -1.
         -1   -1    0    0    0  501 -0.00000000000E+00 -0.00000000000E+00 -0.15959430333E+03  0.15959430333E+03  0.00000000000E+00 0.  1.
         24    2    1    2    0    0 -0.31887461809E+02 -0.13783887936E+03  0.23987930728E+04  0.24041911044E+04  0.76878433227E+02 0.  0.
        254    2    1    2    0    0  0.31887461809E+02  0.13783887936E+03  0.12162719258E+04  0.15300625008E+04  0.91747342858E+03 0.  0.
         23    2    4    4    0    0 -0.36779548658E+03  0.13058707237E+03  0.97350402064E+03  0.10527692661E+04  0.91030467792E+02 0.  0.
         23    2    4    4    0    0  0.39968294839E+03  0.72518069844E+01  0.24276790514E+03  0.47729323472E+03  0.95255069172E+02 0.  0.
          4    1    3    3  502    0 -0.39432939314E+02 -0.13574317209E+03  0.23736840346E+04  0.23778892030E+04  0.00000000000E+00 0. -1.
         -3    1    3    3    0  502  0.75454775056E+01 -0.20957072705E+01  0.25109038159E+02  0.26301901395E+02  0.00000000000E+00 0.  1.
         13    1    5    5    0    0 -0.40096118593E+01 -0.96775212371E+01  0.33965290199E+02  0.35543949455E+02  0.00000000000E+00 0.  1.
        -13    1    5    5    0    0 -0.36378587472E+03  0.14026459361E+03  0.93953873044E+03  0.10172253167E+04  0.00000000000E+00 0. -1.
          4    1    6    6  503    0  0.72291882635E+02  0.27705859146E+02  0.79167158693E+02  0.11073016726E+03  0.00000000000E+00 0.  1.
         -4    1    6    6    0  503  0.32739106576E+03 -0.20454052162E+02  0.16360074645E+03  0.36656306746E+03  0.00000000000E+00 0. -1.
<mgrwt>
<rscale>  0 0.15523068E+04</rscale>
<asrwt>0</asrwt>
<pdfrwt beam="1">  1        2 0.58071675E+00 0.15523068E+04</pdfrwt>
<pdfrwt beam="2">  1       -1 0.24552972E-01 0.15523068E+04</pdfrwt>
<totfact> 0.82707139E+00</totfact>
</mgrwt>
</event>
<event>
12    7  0.1546317E-007  0.1919507E+04  0.7818608E-02  0.8645207E-01
         -1   -1    0    0    0  501 -0.00000000000E+00  0.00000000000E+00  0.13137475141E+04  0.13137475141E+04  0.00000000000E+00 0.  1.
          2   -1    0    0  501    0  0.00000000000E+00 -0.00000000000E+00 -0.70114450350E+03  0.70114450350E+03  0.00000000000E+00 0. -1.
         24    2    1    2    0    0  0.66352679375E+03  0.33327740492E+03  0.21229620801E+03  0.77632938844E+03  0.79221239454E+02 0.  0.
        254    2    1    2    0    0 -0.66352679375E+03 -0.33327740492E+03  0.40030680255E+03  0.12385626291E+04  0.90689040982E+03 0.  0.
         23    2    4    4    0    0 -0.68649815336E+03 -0.54684451328E+03  0.46429612921E+03  0.99635345288E+03  0.82647874675E+02 0.  0.
         23    2    4    4    0    0  0.22971359617E+02  0.21356710836E+03 -0.63989326661E+02  0.24220917624E+03  0.91826238039E+02 0.  0.
          4    1    3    3  502    0  0.10455741691E+03  0.81075038949E+02  0.21077683810E+02  0.13397643124E+03  0.00000000000E+00 0. -1.
         -3    1    3    3    0  502  0.55896937683E+03  0.25220236597E+03  0.19121852420E+03  0.64235295721E+03  0.00000000000E+00 0.  1.
         13    1    5    5    0    0 -0.26052680314E+03 -0.17012036582E+03  0.13445910590E+03  0.33896077233E+03  0.00000000000E+00 0.  1.
        -13    1    5    5    0    0 -0.42597135023E+03 -0.37672414746E+03  0.32983702331E+03  0.65739268055E+03  0.00000000000E+00 0. -1.
          2    1    6    6  503    0  0.52160336909E+02  0.13666811810E+03 -0.64701777460E+02  0.15995372849E+03  0.00000000000E+00 0. -1.
         -2    1    6    6    0  503 -0.29188977292E+02  0.76898990256E+02  0.71245079942E+00  0.82255447746E+02  0.00000000000E+00 0.  1.
<mgrwt>
<rscale>  0 0.19195071E+04</rscale>
<asrwt>0</asrwt>
<pdfrwt beam="1">  1        2 0.10786839E+00 0.19195071E+04</pdfrwt>
<pdfrwt beam="2">  1       -1 0.20211500E+00 0.19195071E+04</pdfrwt>
<totfact> 0.63520616E+00</totfact>
</mgrwt>
</event>
<event>
12    7  0.1546317E-007  0.1607541E+04  0.7818608E-02  0.8815929E-01
          2   -1    0    0  501    0  0.00000000000E+00  0.00000000000E+00  0.83627881210E+03  0.83627881210E+03  0.00000000000E+00 0. -1.
         -1   -1    0    0    0  501 -0.00000000000E+00 -0.00000000000E+00 -0.77252584312E+03  0.77252584312E+03  0.00000000000E+00 0.  1.
         24    2    1    2    0    0  0.54632162030E+03  0.31975438852E+02  0.53687045916E+02  0.55565278176E+03  0.79862215545E+02 0.  0.
        254    2    1    2    0    0 -0.54632162030E+03 -0.31975438852E+02  0.10065923062E+02  0.10531518735E+04  0.89974318796E+03 0.  0.
         23    2    4    4    0    0 -0.11743852493E+03  0.36249297620E+03 -0.18245996907E+03  0.43229278616E+03  0.91610303565E+02 0.  0.
         23    2    4    4    0    0 -0.42888309537E+03 -0.39446841505E+03  0.19252589213E+03  0.62085908731E+03  0.94094352571E+02 0.  0.
          4    1    3    3  502    0  0.51817047025E+03  0.47122382856E+02  0.43602844433E+02  0.52213251503E+03  0.00000000000E+00 0. -1.
         -3    1    3    3    0  502  0.28151150054E+02 -0.15146944004E+02  0.10084201484E+02  0.33520266729E+02  0.00000000000E+00 0.  1.
         13    1    5    5    0    0 -0.13238264511E+03  0.31531225311E+03 -0.16600845259E+03  0.38013916927E+03  0.00000000000E+00 0.  1.
        -13    1    5    5    0    0  0.14944120180E+02  0.47180723091E+02 -0.16451516483E+02  0.52153616883E+02  0.00000000000E+00 0. -1.
          1    1    6    6  503    0 -0.22384449226E+03 -0.14539964038E+03  0.71893968670E+02  0.27643472081E+03  0.00000000000E+00 0. -1.
         -1    1    6    6    0  503 -0.20503860311E+03 -0.24906877466E+03  0.12063192346E+03  0.34442436650E+03  0.00000000000E+00 0.  1.
<mgrwt>
<rscale>  0 0.16075410E+04</rscale>
<asrwt>0</asrwt>
<pdfrwt beam="1">  1        2 0.12865828E+00 0.16075410E+04</pdfrwt>
<pdfrwt beam="2">  1       -1 0.11885013E+00 0.16075410E+04</pdfrwt>
<totfact> 0.22508255E+01</totfact>
</mgrwt>
</event>
<event>
12    7  0.1546317E-007  0.2395983E+04  0.7818608E-02  0.8441009E-01
          2   -1    0    0  501    0  0.00000000000E+00  0.00000000000E+00  0.82456933468E+03  0.82456933468E+03  0.00000000000E+00 0. -1.
         -3   -1    0    0    0  501 -0.00000000000E+00 -0.00000000000E+00 -0.17405250112E+04  0.17405250112E+04  0.00000000000E+00 0.  1.
         24    2    1    2    0    0  0.69800552745E+03  0.15269661837E+02  0.41478859091E+03  0.81605227590E+03  0.80292359165E+02 0.  0.
        254    2    1    2    0    0 -0.69800552745E+03 -0.15269661837E+02 -0.13307442674E+04  0.17490420700E+04  0.89488713160E+03 0.  0.
         23    2    4    4    0    0 -0.45495157648E+03 -0.41208336344E+03 -0.51813433787E+03  0.80836051067E+03  0.90497998700E+02 0.  0.
         23    2    4    4    0    0 -0.24305395097E+03  0.39681370160E+03 -0.81260992955E+03  0.94068155929E+03  0.89501740355E+02 0.  0.
          2    1    3    3  502    0  0.30937564600E+03 -0.16302766728E+02  0.22163942573E+03  0.38092401549E+03  0.00000000000E+00 0. -1.
         -1    1    3    3    0  502  0.38862988145E+03  0.31572428565E+02  0.19314916518E+03  0.43512826042E+03  0.00000000000E+00 0.  1.
         13    1    5    5    0    0 -0.97860317224E+01 -0.36621477294E+02 -0.26852524997E+02  0.46453817010E+02  0.00000000000E+00 0. -1.
        -13    1    5    5    0    0 -0.44516554476E+03 -0.37546188614E+03 -0.49128181287E+03  0.76190669366E+03  0.00000000000E+00 0.  1.
          1    1    6    6  503    0 -0.87192922445E+01  0.67925519270E+02 -0.14655448159E+03  0.16176562768E+03  0.00000000000E+00 0. -1.
         -1    1    6    6    0  503 -0.23433465872E+03  0.32888818233E+03 -0.66605544796E+03  0.77891593161E+03  0.00000000000E+00 0.  1.
<mgrwt>
<rscale>  0 0.23959829E+04</rscale>
<asrwt>0</asrwt>
<pdfrwt beam="1">  1        2 0.12685682E+00 0.23959829E+04</pdfrwt>
<pdfrwt beam="2">  1       -3 0.26777308E+00 0.23959829E+04</pdfrwt>
<totfact> 0.10765864E+00</totfact>
</mgrwt>
</event>
<event>
12    7  0.1546317E-007  0.1961060E+04  0.7818608E-02  0.8625046E-01
         -1   -1    0    0    0  501 -0.00000000000E+00  0.00000000000E+00  0.48681733820E+03  0.48681733820E+03  0.00000000000E+00 0.  1.
          2   -1    0    0  501    0  0.00000000000E+00 -0.00000000000E+00 -0.19749485583E+04  0.19749485583E+04  0.00000000000E+00 0. -1.
         24    2    1    2    0    0 -0.31961061850E+03 -0.67821406207E+03 -0.37805389383E+03  0.84390495651E+03  0.84413076786E+02 0.  0.
        254    2    1    2    0    0  0.31961061850E+03  0.67821406207E+03 -0.11100773263E+04  0.16178609400E+04  0.90723596126E+03 0.  0.
         23    2    4    4    0    0  0.13333217876E+03  0.18430154696E+03  0.12316216949E+03  0.27352596113E+03  0.88898826293E+02 0.  0.
         23    2    4    4    0    0  0.18627843973E+03  0.49391251512E+03 -0.12332394957E+04  0.13443349788E+04  0.87793233200E+02 0.  0.
          2    1    3    3  502    0 -0.35665438113E+02 -0.11415311571E+03 -0.90722896474E+02  0.15011196237E+03  0.00000000000E+00 0. -1.
         -1    1    3    3    0  502 -0.28394518038E+03 -0.56406094636E+03 -0.28733099735E+03  0.69379299414E+03  0.00000000000E+00 0.  1.
         13    1    5    5    0    0 -0.59960802150E-01  0.35091409222E+02 -0.56079466187E+01  0.35536736791E+02  0.00000000000E+00 0.  1.
        -13    1    5    5    0    0  0.13339213956E+03  0.14921013773E+03  0.12877011611E+03  0.23798922434E+03  0.00000000000E+00 0. -1.
          1    1    6    6  503    0  0.14767262101E+03  0.29116776337E+03 -0.81455749700E+03  0.87754759720E+03  0.00000000000E+00 0. -1.
         -1    1    6    6    0  503  0.38605818722E+02  0.20274475175E+03 -0.41868199874E+03  0.46678738165E+03  0.00000000000E+00 0.  1.
<mgrwt>
<rscale>  0 0.19610601E+04</rscale>
<asrwt>0</asrwt>
<pdfrwt beam="1">  1        2 0.30383824E+00 0.19610601E+04</pdfrwt>
<pdfrwt beam="2">  1       -1 0.74894974E-01 0.19610601E+04</pdfrwt>
<totfact> 0.13127611E+01</totfact>
</mgrwt>
</event>
<event>
12    7  0.1546317E-007  0.3460869E+04  0.7818608E-02  0.8123127E-01
          2   -1    0    0  501    0  0.00000000000E+00  0.00000000000E+00  0.18541053131E+04  0.18541053131E+04  0.00000000000E+00 0. -1.
         -1   -1    0    0    0  501 -0.00000000000E+00 -0.00000000000E+00 -0.16150124125E+04  0.16150124125E+04  0.00000000000E+00 0.  1.
         24    2    1    2    0    0 -0.43525047065E+03 -0.11058717194E+04  0.12025832632E+04  0.16926247605E+04  0.79855137110E+02 0.  0.
        254    2    1    2    0    0  0.43525047065E+03  0.11058717194E+04 -0.96349036269E+03  0.17764929650E+04  0.90289442563E+03 0.  0.
         23    2    4    4    0    0 -0.17345944586E+03  0.75726249620E+03 -0.56332933244E+03  0.96387138588E+03  0.90407102716E+02 0.  0.
         23    2    4    4    0    0  0.60870991651E+03  0.34860922322E+03 -0.40016103025E+03  0.81262157916E+03  0.90381567878E+02 0.  0.
          4    1    3    3  502    0 -0.25175794569E+03 -0.69606477839E+03  0.70151948454E+03  0.10198126427E+04  0.00000000000E+00 0. -1.
         -3    1    3    3    0  502 -0.18349252496E+03 -0.40980694102E+03  0.50106377870E+03  0.67281211787E+03  0.00000000000E+00 0.  1.
         13    1    5    5    0    0 -0.31056063081E+02  0.20587946998E+03 -0.19774897384E+03  0.28715064316E+03  0.00000000000E+00 0. -1.
        -13    1    5    5    0    0 -0.14240338278E+03  0.55138302622E+03 -0.36558035860E+03  0.67672074272E+03  0.00000000000E+00 0.  1.
          4    1    6    6  503    0  0.30852879208E+03  0.18911728379E+03 -0.25664168867E+03  0.44364436087E+03  0.00000000000E+00 0.  1.
         -4    1    6    6    0  503  0.30018112443E+03  0.15949193943E+03 -0.14351934158E+03  0.36897721829E+03  0.00000000000E+00 0. -1.
<mgrwt>
<rscale>  0 0.34608687E+04</rscale>
<asrwt>0</asrwt>
<pdfrwt beam="1">  1        2 0.28524697E+00 0.34608687E+04</pdfrwt>
<pdfrwt beam="2">  1       -1 0.24846345E+00 0.34608687E+04</pdfrwt>
<totfact> 0.53887582E-01</totfact>
</mgrwt>
</event>
<event>
12    7  0.1546317E-007  0.3451726E+04  0.7818608E-02  0.8125326E-01
          2   -1    0    0  501    0  0.00000000000E+00  0.00000000000E+00  0.26727692922E+04  0.26727692922E+04  0.00000000000E+00 0. -1.
         -1   -1    0    0    0  501 -0.00000000000E+00 -0.00000000000E+00 -0.11144258875E+04  0.11144258875E+04  0.00000000000E+00 0.  1.
         24    2    1    2    0    0  0.48545428329E+03 -0.15587549944E+02  0.24071715676E+04  0.24570204586E+04  0.81029286257E+02 0.  0.
        254    2    1    2    0    0 -0.48545428329E+03  0.15587549944E+02 -0.84882816298E+03  0.13301747210E+04  0.90163557230E+03 0.  0.
         23    2    4    4    0    0 -0.34838948761E+03 -0.35433122205E+03 -0.15717689596E+03  0.52876568236E+03  0.89234075439E+02 0.  0.
         23    2    4    4    0    0 -0.13706479568E+03  0.36991877199E+03 -0.69165126702E+03  0.80140903865E+03  0.90820239827E+02 0.  0.
          2    1    3    3  502    0  0.43206821295E+03  0.70180516882E+01  0.20364072818E+04  0.20817509003E+04  0.00000000000E+00 0. -1.
         -1    1    3    3    0  502  0.53386070337E+02 -0.22605601632E+02  0.37076428585E+03  0.37526955831E+03  0.00000000000E+00 0.  1.
         13    1    5    5    0    0 -0.74858185432E+01  0.41156889675E+01  0.26023728137E+01  0.89302138385E+01  0.00000000000E+00 0. -1.
        -13    1    5    5    0    0 -0.34090366906E+03 -0.35844691102E+03 -0.15977926877E+03  0.51983546852E+03  0.00000000000E+00 0.  1.
          4    1    6    6  503    0  0.13083615400E+02  0.40759648787E+02 -0.81590584854E+02  0.92138773044E+02  0.00000000000E+00 0. -1.
         -4    1    6    6    0  503 -0.15014841108E+03  0.32915912321E+03 -0.61006068217E+03  0.70927026560E+03  0.00000000000E+00 0.  1.
<mgrwt>
<rscale>  0 0.34517261E+04</rscale>
<asrwt>0</asrwt>
<pdfrwt beam="1">  1        2 0.41119527E+00 0.34517261E+04</pdfrwt>
<pdfrwt beam="2">  1       -1 0.17145014E+00 0.34517261E+04</pdfrwt>
<totfact> 0.62010893E-01</totfact>
</mgrwt>
</event>
<event>
12    7  0.1546317E-007  0.1276654E+04  0.7818608E-02  0.9048286E-01
          2   -1    0    0  501    0  0.00000000000E+00  0.00000000000E+00  0.30468322837E+04  0.30468322837E+04  0.00000000000E+00 0. -1.
         -1   -1    0    0    0  501 -0.00000000000E+00 -0.00000000000E+00 -0.13373276416E+03  0.13373276416E+03  0.00000000000E+00 0.  1.
         24    2    1    2    0    0 -0.19008497189E+03 -0.38996035042E+02  0.13496324790E+04  0.13657521762E+04  0.78218867357E+02 0.  0.
        254    2    1    2    0    0  0.19008497189E+03  0.38996035042E+02  0.15634670406E+04  0.18148128717E+04  0.90081273575E+03 0.  0.
         23    2    4    4    0    0  0.31482012377E+03 -0.29534372694E+03  0.40424807234E+03  0.59830925852E+03  0.90652288797E+02 0.  0.
         23    2    4    4    0    0 -0.12473515189E+03  0.33433976198E+03  0.11592189682E+04  0.12165036131E+04  0.93544053325E+02 0.  0.
          4    1    3    3  502    0 -0.77479750586E+02 -0.25511921576E+02  0.82380414106E+03  0.82783285313E+03  0.00000000000E+00 0. -1.
         -3    1    3    3    0  502 -0.11260522130E+03 -0.13484113466E+02  0.52582833793E+03  0.53791932309E+03  0.00000000000E+00 0.  1.
         13    1    5    5    0    0  0.26296311468E+03 -0.21156277576E+03  0.34832494687E+03  0.48501409916E+03  0.00000000000E+00 0. -1.
        -13    1    5    5    0    0  0.51857009098E+02 -0.83780951180E+02  0.55923125473E+02  0.11329515937E+03  0.00000000000E+00 0.  1.
          1    1    6    6  503    0 -0.10003482257E+03  0.13823876353E+03  0.57238705337E+03  0.59728038670E+03  0.00000000000E+00 0. -1.
         -1    1    6    6    0  503 -0.24700329313E+02  0.19610099845E+03  0.58683191485E+03  0.61922322643E+03  0.00000000000E+00 0.  1.
<mgrwt>
<rscale>  0 0.12766539E+04</rscale>
<asrwt>0</asrwt>
<pdfrwt beam="1">  1        2 0.46874338E+00 0.12766539E+04</pdfrwt>
<pdfrwt beam="2">  1       -1 0.20574274E-01 0.12766539E+04</pdfrwt>
<totfact> 0.35936674E+01</totfact>
</mgrwt>
</event>
<event>
12    7  0.1546317E-007  0.1591578E+04  0.7818608E-02  0.8825738E-01
          2   -1    0    0  501    0  0.00000000000E+00  0.00000000000E+00  0.23479699243E+04  0.23479699243E+04  0.00000000000E+00 0. -1.
         -1   -1    0    0    0  501 -0.00000000000E+00 -0.00000000000E+00 -0.26971403182E+03  0.26971403182E+03  0.00000000000E+00 0.  1.
         24    2    1    2    0    0 -0.42852324878E+03 -0.30393251497E+03  0.51374650610E+03  0.73933842262E+03  0.81723204977E+02 0.  0.
        254    2    1    2    0    0  0.42852324878E+03  0.30393251497E+03  0.15645093864E+04  0.18783455335E+04  0.89693097548E+03 0.  0.
         23    2    4    4    0    0 -0.11950187354E+02  0.51193363739E+03  0.60080253234E+03  0.79466061508E+03  0.91120547736E+02 0.  0.
         23    2    4    4    0    0  0.44047343614E+03 -0.20800112242E+03  0.96370685404E+03  0.10836849184E+04  0.91437339370E+02 0.  0.
          2    1    3    3  502    0 -0.42803417447E+03 -0.29667607254E+03  0.49214308764E+03  0.71654362410E+03  0.00000000000E+00 0. -1.
         -3    1    3    3    0  502 -0.48907431285E+00 -0.72564424349E+01  0.21603418453E+02  0.22794798516E+02  0.00000000000E+00 0.  1.
         13    1    5    5    0    0 -0.10055840532E+02  0.37289731224E+03  0.37132109022E+03  0.52633912780E+03  0.00000000000E+00 0.  1.
        -13    1    5    5    0    0 -0.18943468221E+01  0.13903632515E+03  0.22948144211E+03  0.26832148728E+03  0.00000000000E+00 0. -1.
          3    1    6    6  503    0  0.72203562532E+02 -0.84958067897E+01  0.19778584626E+03  0.21072440333E+03  0.00000000000E+00 0. -1.
         -3    1    6    6    0  503  0.36826987360E+03 -0.19950531563E+03  0.76592100778E+03  0.87296051510E+03  0.00000000000E+00 0.  1.
<mgrwt>
<rscale>  0 0.15915784E+04</rscale>
<asrwt>0</asrwt>
<pdfrwt beam="1">  1        2 0.36122613E+00 0.15915784E+04</pdfrwt>
<pdfrwt beam="2">  1       -1 0.41494468E-01 0.15915784E+04</pdfrwt>
<totfact> 0.26526341E+01</totfact>
</mgrwt>
</event>
<event>
12    7  0.1546317E-007  0.2588352E+04  0.7818608E-02  0.8372168E-01
         -1   -1    0    0    0  501 -0.00000000000E+00  0.00000000000E+00  0.15744949663E+04  0.15744949663E+04  0.00000000000E+00 0.  1.
          2   -1    0    0  501    0  0.00000000000E+00 -0.00000000000E+00 -0.10637644763E+04  0.10637644763E+04  0.00000000000E+00 0. -1.
         24    2    1    2    0    0 -0.13383618167E+03  0.11295897079E+04  0.24460676386E+03  0.11664064776E+04  0.82380642505E+02 0.  0.
        254    2    1    2    0    0  0.13383618167E+03 -0.11295897079E+04  0.26612372620E+03  0.14718529650E+04  0.89534590025E+03 0.  0.
         23    2    4    4    0    0  0.18892079819E+03 -0.23320361346E+03  0.45084902998E+03  0.55039173301E+03  0.97934767096E+02 0.  0.
         23    2    4    4    0    0 -0.55084616525E+02 -0.89638609447E+03 -0.18472530379E+03  0.92146123198E+03  0.91787901344E+02 0.  0.
          4    1    3    3  502    0 -0.13310119468E+03  0.11177770336E+04  0.23241827117E+03  0.11494171034E+04  0.00000000000E+00 0. -1.
         -3    1    3    3    0  502 -0.73498699006E+00  0.11812674338E+02  0.12188492690E+02  0.16989374177E+02  0.00000000000E+00 0.  1.
         13    1    5    5    0    0  0.86422808037E+02 -0.12235726081E+03  0.14100936272E+03  0.20572759026E+03  0.00000000000E+00 0.  1.
        -13    1    5    5    0    0  0.10249799015E+03 -0.11084635265E+03  0.30983966726E+03  0.34466414274E+03  0.00000000000E+00 0. -1.
          1    1    6    6  503    0 -0.51941841255E+02 -0.57183057450E+03 -0.15942217806E+03  0.59590569025E+03  0.00000000000E+00 0. -1.
         -1    1    6    6    0  503 -0.31427752698E+01 -0.32455551997E+03 -0.25303125723E+02  0.32555554173E+03  0.00000000000E+00 0.  1.
<mgrwt>
<rscale>  0 0.25883522E+04</rscale>
<asrwt>0</asrwt>
<pdfrwt beam="1">  1        2 0.16365607E+00 0.25883522E+04</pdfrwt>
<pdfrwt beam="2">  1       -1 0.24222999E+00 0.25883522E+04</pdfrwt>
<totfact> 0.18152756E+00</totfact>
</mgrwt>
</event>
<event>
12    7  0.1546317E-007  0.2239768E+04  0.7818608E-02  0.8502056E-01
          2   -1    0    0  501    0  0.00000000000E+00  0.00000000000E+00  0.19268441184E+04  0.19268441184E+04  0.00000000000E+00 0. -1.
         -1   -1    0    0    0  501 -0.00000000000E+00 -0.00000000000E+00 -0.65087798955E+03  0.65087798955E+03  0.00000000000E+00 0.  1.
         24    2    1    2    0    0  0.18186433716E+03 -0.82447319254E+02  0.15890704285E+04  0.16035738831E+04  0.80200837066E+02 0.  0.
        254    2    1    2    0    0 -0.18186433716E+03  0.82447319254E+02 -0.31310429971E+03  0.97414822479E+03  0.90058773242E+03 0.  0.
         23    2    4    4    0    0 -0.46940449347E+03 -0.18372649628E+03 -0.24404308072E+03  0.56720056949E+03  0.89796753047E+02 0.  0.
         23    2    4    4    0    0  0.28754015631E+03  0.26617381553E+03 -0.69061218987E+02  0.40694765530E+03  0.85493278231E+02 0.  0.
          4    1    3    3  502    0  0.98012924707E+02 -0.44539311136E+02  0.11461500972E+04  0.11511951741E+04  0.00000000000E+00 0. -1.
         -3    1    3    3    0  502  0.83851412451E+02 -0.37908008119E+02  0.44292033130E+03  0.45237870897E+03  0.00000000000E+00 0.  1.
         13    1    5    5    0    0 -0.89800892816E+02  0.12887644789E+00 -0.34122480600E+02  0.96065397736E+02  0.00000000000E+00 0. -1.
        -13    1    5    5    0    0 -0.37960360065E+03 -0.18385537272E+03 -0.20992060012E+03  0.47113517175E+03  0.00000000000E+00 0.  1.
          4    1    6    6  503    0  0.39397710755E+02  0.25070508898E+02 -0.36812501504E+02  0.59463184376E+02  0.00000000000E+00 0. -1.
         -4    1    6    6    0  503  0.24814244556E+03  0.24110330663E+03 -0.32248717482E+02  0.34748447093E+03  0.00000000000E+00 0.  1.
<mgrwt>
<rscale>  0 0.22397682E+04</rscale>
<asrwt>0</asrwt>
<pdfrwt beam="1">  1        2 0.29643755E+00 0.22397682E+04</pdfrwt>
<pdfrwt beam="2">  1       -1 0.10013508E+00 0.22397682E+04</pdfrwt>
<totfact> 0.72296794E+00</totfact>
</mgrwt>
</event>
<event>
12    7  0.1546317E-007  0.1667702E+04  0.7818608E-02  0.8780002E-01
          2   -1    0    0  501    0  0.00000000000E+00  0.00000000000E+00  0.15909395228E+04  0.15909395228E+04  0.00000000000E+00 0. -1.
         -1   -1    0    0    0  501 -0.00000000000E+00 -0.00000000000E+00 -0.43704208211E+03  0.43704208211E+03  0.00000000000E+00 0.  1.
         24    2    1    2    0    0  0.47844776819E+03 -0.29228275100E+03  0.20029552947E+03  0.60046999171E+03  0.78130905516E+02 0.  0.
        254    2    1    2    0    0 -0.47844776819E+03  0.29228275100E+03  0.95360191127E+03  0.14275116133E+04  0.90227009669E+03 0.  0.
         23    2    4    4    0    0 -0.32555656098E+03  0.58804498130E+03  0.43881614009E+03  0.80781688183E+03  0.90689223936E+02 0.  0.
         23    2    4    4    0    0 -0.15289120721E+03 -0.29576223029E+03  0.51478577117E+03  0.61969473142E+03  0.90366762923E+02 0.  0.
          2    1    3    3  502    0  0.12088504002E+03 -0.91662494059E+02  0.87945755516E+02  0.17535581436E+03  0.00000000000E+00 0. -1.
         -1    1    3    3    0  502  0.35756272816E+03 -0.20062025695E+03  0.11234977395E+03  0.42511417734E+03  0.00000000000E+00 0.  1.
         13    1    5    5    0    0 -0.26388676196E-01  0.13858213505E+02 -0.21461118413E+01  0.14023429465E+02  0.00000000000E+00 0.  1.
        -13    1    5    5    0    0 -0.32553017231E+03  0.57418676779E+03  0.44096225194E+03  0.79379345237E+03  0.00000000000E+00 0. -1.
          1    1    6    6  503    0 -0.15165812145E+03 -0.29981177998E+03  0.48740674584E+03  0.59199039275E+03  0.00000000000E+00 0. -1.
         -1    1    6    6    0  503 -0.12330857586E+01  0.40495496879E+01  0.27379025332E+02  0.27704338672E+02  0.00000000000E+00 0.  1.
<mgrwt>
<rscale>  0 0.16677020E+04</rscale>
<asrwt>0</asrwt>
<pdfrwt beam="1">  1        2 0.24475992E+00 0.16677020E+04</pdfrwt>
<pdfrwt beam="2">  1       -1 0.67237244E-01 0.16677020E+04</pdfrwt>
<totfact> 0.27474683E+01</totfact>
</mgrwt>
</event>
<event>
12    7  0.1546317E-007  0.3023167E+04  0.7818608E-02  0.8237146E-01
         -3   -1    0    0    0  501 -0.00000000000E+00  0.00000000000E+00  0.10357355291E+04  0.10357355291E+04  0.00000000000E+00 0.  1.
          2   -1    0    0  501    0  0.00000000000E+00 -0.00000000000E+00 -0.22060498112E+04  0.22060498112E+04  0.00000000000E+00 0. -1.
         24    2    1    2    0    0 -0.90979801520E+03  0.10149114869E+04 -0.32814748822E+03  0.14046963776E+04  0.87825875612E+02 0.  0.
        254    2    1    2    0    0  0.90979801520E+03 -0.10149114869E+04 -0.84216679380E+03  0.18370889627E+04  0.89881766432E+03 0.  0.
         23    2    4    4    0    0  0.87433059823E+03 -0.11034087653E+04 -0.54583292110E+03  0.15126062624E+04  0.89884531079E+02 0.  0.
         23    2    4    4    0    0  0.35467416976E+02  0.88497278433E+02 -0.29633387270E+03  0.32448270032E+03  0.91572663714E+02 0.  0.
          4    1    3    3  502    0 -0.10821766424E+03  0.12284822701E+03 -0.69339237519E+02  0.17779392451E+03  0.00000000000E+00 0. -1.
         -3    1    3    3    0  502 -0.80158035096E+03  0.89206325989E+03 -0.25880825070E+03  0.12269024531E+04  0.00000000000E+00 0.  1.
         13    1    5    5    0    0  0.51475268380E+03 -0.71945064264E+03 -0.33926856903E+03  0.94746119425E+03  0.00000000000E+00 0.  1.
        -13    1    5    5    0    0  0.35957791443E+03 -0.38395812269E+03 -0.20656435207E+03  0.56514506817E+03  0.00000000000E+00 0. -1.
          3    1    6    6  503    0  0.11021542181E+02  0.20423556874E+02 -0.21248064214E+03  0.21374428496E+03  0.00000000000E+00 0. -1.
         -3    1    6    6    0  503  0.24445874795E+02  0.68073721560E+02 -0.83853230558E+02  0.11073841536E+03  0.00000000000E+00 0.  1.
<mgrwt>
<rscale>  0 0.30231667E+04</rscale>
<asrwt>0</asrwt>
<pdfrwt beam="1">  1        2 0.33939227E+00 0.30231667E+04</pdfrwt>
<pdfrwt beam="2">  1       -3 0.15934393E+00 0.30231667E+04</pdfrwt>
<totfact> 0.76485236E-01</totfact>
</mgrwt>
</event>
<event>
12    7  0.1546317E-007  0.1938062E+04  0.7818608E-02  0.8636139E-01
          2   -1    0    0  501    0  0.00000000000E+00  0.00000000000E+00  0.28124099490E+04  0.28124099490E+04  0.00000000000E+00 0. -1.
         -1   -1    0    0    0  501 -0.00000000000E+00 -0.00000000000E+00 -0.33388497597E+03  0.33388497597E+03  0.00000000000E+00 0.  1.
         24    2    1    2    0    0  0.22719659443E+03 -0.70316960537E+03  0.92264314099E+03  0.11848174539E+04  0.80350774706E+02 0.  0.
        254    2    1    2    0    0 -0.22719659443E+03  0.70316960537E+03  0.15558818321E+04  0.19614774711E+04  0.93838148312E+03 0.  0.
         23    2    4    4    0    0 -0.42409530680E+03  0.51205700532E+03  0.42564330721E+03  0.79484906292E+03  0.92485684829E+02 0.  0.
         23    2    4    4    0    0  0.19689871238E+03  0.19111260005E+03  0.11302385249E+04  0.11666284082E+04  0.91047190431E+02 0.  0.
          4    1    3    3  502    0  0.13397470624E+03 -0.42315706219E+03  0.61569672905E+03  0.75900828938E+03  0.00000000000E+00 0. -1.
         -3    1    3    3    0  502  0.93221888184E+02 -0.28001254318E+03  0.30694641195E+03  0.42580916451E+03  0.00000000000E+00 0.  1.
         13    1    5    5    0    0 -0.39073123211E+03  0.45127083455E+03  0.40881492629E+03  0.72349561562E+03  0.00000000000E+00 0. -1.
        -13    1    5    5    0    0 -0.33364074689E+02  0.60786170767E+02  0.16828380919E+02  0.71353447294E+02  0.00000000000E+00 0.  1.
          3    1    6    6  503    0  0.15180622902E+03  0.10254673641E+03  0.60730384635E+03  0.63433345025E+03  0.00000000000E+00 0. -1.
         -3    1    6    6    0  503  0.45092483357E+02  0.88565863635E+02  0.52293467852E+03  0.53229495795E+03  0.00000000000E+00 0.  1.
<mgrwt>
<rscale>  0 0.19380624E+04</rscale>
<asrwt>0</asrwt>
<pdfrwt beam="1">  1        2 0.43267844E+00 0.19380624E+04</pdfrwt>
<pdfrwt beam="2">  1       -1 0.51366921E-01 0.19380624E+04</pdfrwt>
<totfact> 0.92257966E+00</totfact>
</mgrwt>
</event>
<event>
12    7  0.1884677E-007  0.2261151E+04  0.7818608E-02  0.8493398E-01
         -1   -1    0    0    0  501 -0.00000000000E+00  0.00000000000E+00  0.54693203983E+03  0.54693203983E+03  0.00000000000E+00 0.  1.
          2   -1    0    0  501    0  0.00000000000E+00 -0.00000000000E+00 -0.23370383954E+04  0.23370383954E+04  0.00000000000E+00 0. -1.
         24    2    1    2    0    0 -0.82920789669E+03  0.22835567018E+03 -0.13392377628E+04  0.15936401850E+04  0.79995037450E+02 0.  0.
        254    2    1    2    0    0  0.82920789669E+03 -0.22835567018E+03 -0.45086859280E+03  0.12903302502E+04  0.84966912304E+03 0.  0.
         23    2    4    4    0    0  0.75303704855E+03 -0.47605891447E+03 -0.47690261907E+03  0.10146429592E+04  0.91473165941E+02 0.  0.
         23    2    4    4    0    0  0.76170848139E+02  0.24770324429E+03  0.26034026277E+02  0.27568729101E+03  0.90370440737E+02 0.  0.
          2    1    3    3  502    0 -0.82670223251E+03  0.23146920062E+03 -0.13374256314E+04  0.15892519912E+04  0.00000000000E+00 0. -1.
         -1    1    3    3    0  502 -0.25056641746E+01 -0.31135304459E+01 -0.18121314189E+01  0.43881938281E+01  0.00000000000E+00 0.  1.
         13    1    5    5    0    0  0.15710322394E+03 -0.76286475823E+02 -0.12919016136E+03  0.21723523461E+03  0.00000000000E+00 0.  1.
        -13    1    5    5    0    0  0.59593382461E+03 -0.39977243865E+03 -0.34771245771E+03  0.79740772461E+03  0.00000000000E+00 0. -1.
          2    1    6    6  503    0  0.70633508820E+02  0.21589719640E+03 -0.99089731600E+01  0.22737387654E+03  0.00000000000E+00 0. -1.
         -2    1    6    6    0  503  0.55373393190E+01  0.31806047889E+02  0.35942999437E+02  0.48313414468E+02  0.00000000000E+00 0.  1.
<mgrwt>
<rscale>  0 0.22611512E+04</rscale>
<asrwt>0</asrwt>
<pdfrwt beam="1">  1        2 0.35954437E+00 0.22611512E+04</pdfrwt>
<pdfrwt beam="2">  1       -1 0.84143391E-01 0.22611512E+04</pdfrwt>
<totfact> 0.62548110E+00</totfact>
</mgrwt>
</event>
<event>
12    7  0.1546317E-007  0.1339486E+04  0.7818608E-02  0.8998826E-01
          2   -1    0    0  501    0  0.00000000000E+00  0.00000000000E+00  0.45394489493E+03  0.45394489493E+03  0.00000000000E+00 0. -1.
         -1   -1    0    0    0  501 -0.00000000000E+00 -0.00000000000E+00 -0.98812785579E+03  0.98812785579E+03  0.00000000000E+00 0.  1.
         24    2    1    2    0    0 -0.20720831161E+02  0.15949395104E+02  0.24101478562E+03  0.25434379427E+03  0.76934405490E+02 0.  0.
        254    2    1    2    0    0  0.20720831161E+02 -0.15949395104E+02 -0.77519774648E+03  0.11877289565E+04  0.89949140730E+03 0.  0.
         23    2    4    4    0    0  0.43946721235E+03  0.56526166694E+02 -0.29683957012E+03  0.54120749588E+03  0.92006439740E+02 0.  0.
         23    2    4    4    0    0 -0.41874638119E+03 -0.72475561798E+02 -0.47835817636E+03  0.64652146057E+03  0.92532239082E+02 0.  0.
          2    1    3    3  502    0 -0.40370655331E+02  0.31824987459E+02  0.19698185263E+03  0.20357914899E+03  0.00000000000E+00 0. -1.
         -1    1    3    3    0  502  0.19649824170E+02 -0.15875592355E+02  0.44032932990E+02  0.50764645278E+02  0.00000000000E+00 0.  1.
         13    1    5    5    0    0  0.28932928350E+03  0.57738553744E+02 -0.14911279635E+03  0.33057495506E+03  0.00000000000E+00 0. -1.
        -13    1    5    5    0    0  0.15013792885E+03 -0.12123870497E+01 -0.14772677377E+03  0.21063254082E+03  0.00000000000E+00 0.  1.
          4    1    6    6  503    0 -0.24177933870E+03 -0.78138633445E+02 -0.32302470175E+03  0.41098400529E+03  0.00000000000E+00 0. -1.
         -4    1    6    6    0  503 -0.17696704249E+03  0.56630716473E+01 -0.15533347461E+03  0.23553745528E+03  0.00000000000E+00 0.  1.
<mgrwt>
<rscale>  0 0.13394859E+04</rscale>
<asrwt>0</asrwt>
<pdfrwt beam="1">  1        2 0.69837677E-01 0.13394859E+04</pdfrwt>
<pdfrwt beam="2">  1       -1 0.15201967E+00 0.13394859E+04</pdfrwt>
<totfact> 0.25907494E+01</totfact>
</mgrwt>
</event>
<event>
12    7  0.1546317E-007  0.1417226E+04  0.7818608E-02  0.8941443E-01
          2   -1    0    0  501    0  0.00000000000E+00  0.00000000000E+00  0.15628103306E+04  0.15628103306E+04  0.00000000000E+00 0. -1.
         -3   -1    0    0    0  501 -0.00000000000E+00 -0.00000000000E+00 -0.32130071463E+03  0.32130071463E+03  0.00000000000E+00 0.  1.
         24    2    1    2    0    0  0.14578262281E+03  0.30492622318E+03  0.70790142165E+03  0.78834095711E+03  0.78258975143E+02 0.  0.
        254    2    1    2    0    0 -0.14578262281E+03 -0.30492622318E+03  0.53360819433E+03  0.10957700881E+04  0.89540036088E+03 0.  0.
         23    2    4    4    0    0 -0.16820570270E+03  0.89480686546E+02 -0.17880990582E+03  0.27603613641E+03  0.89011316682E+02 0.  0.
         23    2    4    4    0    0  0.22423079895E+02 -0.39440690973E+03  0.71241810015E+03  0.81973395171E+03  0.91458171957E+02 0.  0.
          4    1    3    3  502    0  0.10546341306E+03  0.15938663301E+03  0.32949661480E+03  0.38091291582E+03  0.00000000000E+00 0. -1.
         -1    1    3    3    0  502  0.40319209750E+02  0.14553959018E+03  0.37840480685E+03  0.40742804129E+03  0.00000000000E+00 0.  1.
         13    1    5    5    0    0 -0.15075455413E+03  0.37591147693E+02 -0.13711337935E+03  0.20721995264E+03  0.00000000000E+00 0.  1.
        -13    1    5    5    0    0 -0.17451148576E+02  0.51889538853E+02 -0.41696526471E+02  0.68816183770E+02  0.00000000000E+00 0. -1.
          1    1    6    6  503    0  0.26197142181E+02 -0.13295418334E+03  0.16851012177E+03  0.21623775403E+03  0.00000000000E+00 0. -1.
         -1    1    6    6    0  503 -0.37740622857E+01 -0.26145272639E+03  0.54390797837E+03  0.60349619768E+03  0.00000000000E+00 0.  1.
<mgrwt>
<rscale>  0 0.14172256E+04</rscale>
<asrwt>0</asrwt>
<pdfrwt beam="1">  1        2 0.24043235E+00 0.14172256E+04</pdfrwt>
<pdfrwt beam="2">  1       -3 0.49430880E-01 0.14172256E+04</pdfrwt>
<totfact> 0.29599745E+01</totfact>
</mgrwt>
</event>
<event>
12    7  0.1546317E-007  0.2806682E+04  0.7818608E-02  0.8301197E-01
          2   -1    0    0  501    0  0.00000000000E+00  0.00000000000E+00  0.17778564683E+04  0.17778564683E+04  0.00000000000E+00 0. -1.
         -1   -1    0    0    0  501 -0.00000000000E+00 -0.00000000000E+00 -0.11077191529E+04  0.11077191529E+04  0.00000000000E+00 0.  1.
         24    2    1    2    0    0  0.61061437378E+03  0.97648184604E+03 -0.21158257107E+03  0.11738437064E+04  0.82311321407E+02 0.  0.
        254    2    1    2    0    0 -0.61061437378E+03 -0.97648184604E+03  0.88171988645E+03  0.17117319148E+04  0.90897166122E+03 0.  0.
         23    2    4    4    0    0 -0.67703047518E+03 -0.10326956189E+04  0.54693828840E+03  0.13534961011E+04  0.89329160072E+02 0.  0.
         23    2    4    4    0    0  0.66416101398E+02  0.56213772833E+02  0.33478159805E+03  0.35823581370E+03  0.93183115654E+02 0.  0.
          2    1    3    3  502    0  0.53990611781E+03  0.84420632336E+03 -0.20994973142E+03  0.10238465814E+04  0.00000000000E+00 0. -1.
         -1    1    3    3    0  502  0.70708255968E+02  0.13227552268E+03 -0.16328396550E+01  0.14999712506E+03  0.00000000000E+00 0.  1.
         13    1    5    5    0    0 -0.93627325689E+02 -0.20069108903E+03  0.84068510756E+02  0.23687655821E+03  0.00000000000E+00 0. -1.
        -13    1    5    5    0    0 -0.58340314949E+03 -0.83200452984E+03  0.46286977764E+03  0.11166195429E+04  0.00000000000E+00 0.  1.
          4    1    6    6  503    0  0.14747917928E+02  0.11870801620E+02  0.24412529207E+03  0.24485827584E+03  0.00000000000E+00 0. -1.
         -4    1    6    6    0  503  0.51668183470E+02  0.44342971213E+02  0.90656305974E+02  0.11337753786E+03  0.00000000000E+00 0.  1.
<mgrwt>
<rscale>  0 0.28066818E+04</rscale>
<asrwt>0</asrwt>
<pdfrwt beam="1">  1        2 0.27351638E+00 0.28066818E+04</pdfrwt>
<pdfrwt beam="2">  1       -1 0.17041833E+00 0.28066818E+04</pdfrwt>
<totfact> 0.21467538E+00</totfact>
</mgrwt>
</event>
<event>
12    7  0.1546317E-007  0.1354173E+04  0.7818608E-02  0.8987675E-01
         -1   -1    0    0    0  501 -0.00000000000E+00  0.00000000000E+00  0.37747898303E+03  0.37747898303E+03  0.00000000000E+00 0.  1.
          2   -1    0    0  501    0  0.00000000000E+00 -0.00000000000E+00 -0.12144947024E+04  0.12144947024E+04  0.00000000000E+00 0. -1.
         24    2    1    2    0    0  0.77741878392E+02  0.28506378772E+03  0.24150715062E+02  0.30706529498E+03  0.80004222506E+02 0.  0.
        254    2    1    2    0    0 -0.77741878392E+02 -0.28506378772E+03 -0.86116643439E+03  0.12849083904E+04  0.90668449932E+03 0.  0.
         23    2    4    4    0    0 -0.57493743984E+02  0.21029917031E+03 -0.72732614793E+03  0.76421629891E+03  0.86556076782E+02 0.  0.
         23    2    4    4    0    0 -0.20248134408E+02 -0.49536295802E+03 -0.13384028645E+03  0.52069209150E+03  0.86096368913E+02 0.  0.
          2    1    3    3  502    0  0.55443583857E+02  0.13655632709E+03 -0.24082776696E+02  0.14933720766E+03  0.00000000000E+00 0. -1.
         -1    1    3    3    0  502  0.22298294535E+02  0.14850746062E+03  0.48233491758E+02  0.15772808731E+03  0.00000000000E+00 0.  1.
         13    1    5    5    0    0 -0.77762432362E+02  0.16052782850E+03 -0.60160850372E+03  0.62749420026E+03  0.00000000000E+00 0. -1.
        -13    1    5    5    0    0  0.20268688379E+02  0.49771341811E+02 -0.12571764421E+03  0.13672209865E+03  0.00000000000E+00 0.  1.
          3    1    6    6  503    0  0.27878721670E+02 -0.22113714871E+03 -0.37143578684E+02  0.22596129558E+03  0.00000000000E+00 0. -1.
         -3    1    6    6    0  503 -0.48126856078E+02 -0.27422580931E+03 -0.96696707767E+02  0.29473079592E+03  0.00000000000E+00 0.  1.
<mgrwt>
<rscale>  0 0.13541731E+04</rscale>
<asrwt>0</asrwt>
<pdfrwt beam="1">  1        2 0.18684534E+00 0.13541731E+04</pdfrwt>
<pdfrwt beam="2">  1       -1 0.58073690E-01 0.13541731E+04</pdfrwt>
<totfact> 0.62092938E+01</totfact>
</mgrwt>
</event>
<event>
12    7  0.1546317E-007  0.1385318E+04  0.7818608E-02  0.8964515E-01
          2   -1    0    0  501    0  0.00000000000E+00  0.00000000000E+00  0.16258172470E+04  0.16258172470E+04  0.00000000000E+00 0. -1.
         -1   -1    0    0    0  501 -0.00000000000E+00 -0.00000000000E+00 -0.29509871872E+03  0.29509871872E+03  0.00000000000E+00 0.  1.
         24    2    1    2    0    0  0.23572879334E+03  0.67970325497E+02 -0.38062356263E+02  0.26103333084E+03  0.80632671357E+02 0.  0.
        254    2    1    2    0    0 -0.23572879334E+03 -0.67970325497E+02  0.13687808845E+04  0.16598826349E+04  0.90634497987E+03 0.  0.
         23    2    4    4    0    0  0.17099361962E+03 -0.37422701490E+03  0.64302963579E+03  0.76875489480E+03  0.90621736607E+02 0.  0.
         23    2    4    4    0    0 -0.40672241296E+03  0.30625668940E+03  0.72575124872E+03  0.89112774005E+03  0.90429492213E+02 0.  0.
          4    1    3    3  502    0  0.82811737616E+02 -0.14673613697E+02 -0.63276640222E+01  0.84339422324E+02  0.00000000000E+00 0. -1.
         -1    1    3    3    0  502  0.15291705572E+03  0.82643939195E+02 -0.31734692241E+02  0.17669390852E+03  0.00000000000E+00 0.  1.
         13    1    5    5    0    0  0.45010664092E+02 -0.32950155261E+02  0.11119763370E+03  0.12440492898E+03  0.00000000000E+00 0.  1.
        -13    1    5    5    0    0  0.12598295553E+03 -0.34127685964E+03  0.53183200208E+03  0.64434996582E+03  0.00000000000E+00 0. -1.
          3    1    6    6  503    0 -0.24989041587E+03  0.23355469394E+03  0.51984795078E+03  0.62228201559E+03  0.00000000000E+00 0. -1.
         -3    1    6    6    0  503 -0.15683199709E+03  0.72701995469E+02  0.20590329794E+03  0.26884572446E+03  0.00000000000E+00 0.  1.
<mgrwt>
<rscale>  0 0.13853181E+04</rscale>
<asrwt>0</asrwt>
<pdfrwt beam="1">  1        2 0.25012572E+00 0.13853181E+04</pdfrwt>
<pdfrwt beam="2">  1       -1 0.45399804E-01 0.13853181E+04</pdfrwt>
<totfact> 0.57675492E+01</totfact>
</mgrwt>
</event>
<event>
12    7  0.1546317E-007  0.1138347E+04  0.7818608E-02  0.9168602E-01
         -1   -1    0    0    0  501 -0.00000000000E+00  0.00000000000E+00  0.18570003904E+03  0.18570003904E+03  0.00000000000E+00 0.  1.
          2   -1    0    0  501    0  0.00000000000E+00 -0.00000000000E+00 -0.17445252702E+04  0.17445252702E+04  0.00000000000E+00 0. -1.
         24    2    1    2    0    0 -0.14877069506E+03 -0.12867159762E+03 -0.24406019770E+03  0.32366261884E+03  0.80641248677E+02 0.  0.
        254    2    1    2    0    0  0.14877069506E+03  0.12867159762E+03 -0.13147650334E+04  0.16065626904E+04  0.90207953376E+03 0.  0.
         23    2    4    4    0    0  0.93132241199E+02  0.11906681870E+03  0.88157772135E+02  0.19957912443E+03  0.95966204761E+02 0.  0.
         23    2    4    4    0    0  0.55638453861E+02  0.96047789224E+01 -0.14029228056E+04  0.14069835659E+04  0.90677820423E+02 0.  0.
          4    1    3    3  502    0 -0.42993988743E+02 -0.45849586807E+02 -0.14089005670E+03  0.15427467633E+03  0.00000000000E+00 0. -1.
         -3    1    3    3    0  502 -0.10577670632E+03 -0.82822010815E+02 -0.10317014100E+03  0.16938794251E+03  0.00000000000E+00 0.  1.
         13    1    5    5    0    0 -0.67786511299E+01 -0.11380349936E+02  0.29375494938E+00  0.13249481793E+02  0.00000000000E+00 0. -1.
        -13    1    5    5    0    0  0.99910892328E+02  0.13044716864E+03  0.87864017186E+02  0.18632964264E+03  0.00000000000E+00 0.  1.
          4    1    6    6  503    0  0.11841647092E+02  0.34154566779E+02 -0.10372800924E+04  0.10379097981E+04  0.00000000000E+00 0.  1.
         -4    1    6    6    0  503  0.43796806769E+02 -0.24549787856E+02 -0.36564271319E+03  0.36907376779E+03  0.00000000000E+00 0. -1.
<mgrwt>
<rscale>  0 0.11383469E+04</rscale>
<asrwt>0</asrwt>
<pdfrwt beam="1">  1        2 0.26838849E+00 0.11383469E+04</pdfrwt>
<pdfrwt beam="2">  1       -1 0.28569238E-01 0.11383469E+04</pdfrwt>
<totfact> 0.11622168E+02</totfact>
</mgrwt>
</event>
<event>
12    7  0.1546317E-007  0.1926776E+04  0.7818608E-02  0.8641642E-01
          2   -1    0    0  501    0  0.00000000000E+00  0.00000000000E+00  0.30957356635E+04  0.30957356635E+04  0.00000000000E+00 0. -1.
         -1   -1    0    0    0  501 -0.00000000000E+00 -0.00000000000E+00 -0.29980484003E+03  0.29980484003E+03  0.00000000000E+00 0.  1.
         24    2    1    2    0    0  0.33523147636E+03  0.66245164675E+03  0.13319656434E+04  0.15270224697E+04  0.80267183200E+02 0.  0.
        254    2    1    2    0    0 -0.33523147636E+03 -0.66245164675E+03  0.14639651801E+04  0.18685180339E+04  0.89271679008E+03 0.  0.
         23    2    4    4    0    0 -0.39128648334E+03 -0.45723381929E+03  0.15129740129E+04  0.16312384665E+04  0.98390514956E+02 0.  0.
         23    2    4    4    0    0  0.56055006984E+02 -0.20521782746E+03 -0.49008832807E+02  0.23727956732E+03  0.92968848862E+02 0.  0.
          2    1    3    3  502    0  0.10641205468E+03  0.19809197417E+03  0.33167783393E+03  0.40071703375E+03  0.00000000000E+00 0. -1.
         -1    1    3    3    0  502  0.22881942168E+03  0.46435967258E+03  0.10002878094E+04  0.11263054359E+04  0.00000000000E+00 0.  1.
         13    1    5    5    0    0 -0.15262225076E+03 -0.14026519873E+03  0.41757395730E+03  0.46619297208E+03  0.00000000000E+00 0. -1.
        -13    1    5    5    0    0 -0.23866423259E+03 -0.31696862056E+03  0.10954000556E+04  0.11650454945E+04  0.00000000000E+00 0.  1.
          4    1    6    6  503    0 -0.20282282205E+02 -0.39199730720E+02  0.10010391183E+02  0.45257019252E+02  0.00000000000E+00 0. -1.
         -4    1    6    6    0  503  0.76337289188E+02 -0.16601809675E+03 -0.59019223990E+02  0.19202254807E+03  0.00000000000E+00 0.  1.
<mgrwt>
<rscale>  0 0.19267761E+04</rscale>
<asrwt>0</asrwt>
<pdfrwt beam="1">  1        2 0.47626700E+00 0.19267761E+04</pdfrwt>
<pdfrwt beam="2">  1       -1 0.46123824E-01 0.19267761E+04</pdfrwt>
<totfact> 0.75591811E+00</totfact>
</mgrwt>
</event>
<event>
12    7  0.1546317E-007  0.1444968E+04  0.7818608E-02  0.8921896E-01
          2   -1    0    0  501    0  0.00000000000E+00  0.00000000000E+00  0.89596346432E+03  0.89596346432E+03  0.00000000000E+00 0. -1.
         -1   -1    0    0    0  501 -0.00000000000E+00 -0.00000000000E+00 -0.58259436412E+03  0.58259436412E+03  0.00000000000E+00 0.  1.
         24    2    1    2    0    0  0.42010546878E+03  0.62371924957E+02  0.23549059623E+03  0.49255852687E+03  0.82336016157E+02 0.  0.
        254    2    1    2    0    0 -0.42010546878E+03 -0.62371924957E+02  0.77878503970E+02  0.98599930157E+03  0.88642580028E+03 0.  0.
         23    2    4    4    0    0  0.43162376813E+02 -0.38901183866E+03 -0.20673228427E+02  0.40232773358E+03  0.90813112728E+02 0.  0.
         23    2    4    4    0    0 -0.46326784559E+03  0.32663991370E+03  0.98551732397E+02  0.58367156799E+03  0.98230979552E+02 0.  0.
          2    1    3    3  502    0  0.30125394218E+03  0.49293191659E+02  0.12535652183E+03  0.32999699088E+03  0.00000000000E+00 0. -1.
         -1    1    3    3    0  502  0.11885152659E+03  0.13078733298E+02  0.11013407440E+03  0.16256153599E+03  0.00000000000E+00 0.  1.
         13    1    5    5    0    0  0.33486382853E+02 -0.73573253421E+02  0.22233712030E+02  0.83837338974E+02  0.00000000000E+00 0.  1.
        -13    1    5    5    0    0  0.96759939603E+01 -0.31543858524E+03 -0.42906940457E+02  0.31849039460E+03  0.00000000000E+00 0. -1.
          2    1    6    6  503    0 -0.34901962010E+03  0.20905453770E+03  0.10295474843E+03  0.41966436015E+03  0.00000000000E+00 0. -1.
         -2    1    6    6    0  503 -0.11424822549E+03  0.11758537600E+03 -0.44030160368E+01  0.16400720785E+03  0.00000000000E+00 0.  1.
<mgrwt>
<rscale>  0 0.14449682E+04</rscale>
<asrwt>0</asrwt>
<pdfrwt beam="1">  1        2 0.13784053E+00 0.14449682E+04</pdfrwt>
<pdfrwt beam="2">  1       -1 0.89629902E-01 0.14449682E+04</pdfrwt>
<totfact> 0.39838878E+01</totfact>
</mgrwt>
</event>
<event>
12    7  0.1546317E-007  0.2182491E+04  0.7818608E-02  0.8525751E-01
         -1   -1    0    0    0  501 -0.00000000000E+00  0.00000000000E+00  0.12034021657E+04  0.12034021657E+04  0.00000000000E+00 0.  1.
          2   -1    0    0  501    0  0.00000000000E+00 -0.00000000000E+00 -0.98954206380E+03  0.98954206380E+03  0.00000000000E+00 0. -1.
         24    2    1    2    0    0 -0.91244149283E+03 -0.88426382850E+02  0.69556066013E+02  0.92285725522E+03  0.80366436833E+02 0.  0.
        254    2    1    2    0    0  0.91244149283E+03  0.88426382850E+02  0.14430403590E+03  0.12700869743E+04  0.86713814614E+03 0.  0.
         23    2    4    4    0    0 -0.10882267290E+03  0.52163374769E+02 -0.13598549742E+03  0.20660157180E+03  0.98126256226E+02 0.  0.
         23    2    4    4    0    0  0.10212641657E+04  0.36263008081E+02  0.28028953332E+03  0.10634854025E+04  0.90241214994E+02 0.  0.
          2    1    3    3  502    0 -0.86933062629E+03 -0.71722059259E+02  0.78344371663E+02  0.87579542826E+03  0.00000000000E+00 0. -1.
         -1    1    3    3    0  502 -0.43110866535E+02 -0.16704323591E+02 -0.87883056501E+01  0.47061826954E+02  0.00000000000E+00 0.  1.
         13    1    5    5    0    0 -0.12241262903E+03  0.62338088586E+02 -0.11214474509E+03  0.17733395864E+03  0.00000000000E+00 0. -1.
        -13    1    5    5    0    0  0.13589956134E+02 -0.10174713817E+02 -0.23840752330E+02  0.29267613169E+02  0.00000000000E+00 0.  1.
          2    1    6    6  503    0  0.90190620861E+03  0.49287720693E+02  0.27114382420E+03  0.94307108000E+03  0.00000000000E+00 0. -1.
         -2    1    6    6    0  503  0.11935795712E+03 -0.13024712613E+02  0.91457091161E+01  0.12041432249E+03  0.00000000000E+00 0.  1.
<mgrwt>
<rscale>  0 0.21824913E+04</rscale>
<asrwt>0</asrwt>
<pdfrwt beam="1">  1        2 0.15223724E+00 0.21824913E+04</pdfrwt>
<pdfrwt beam="2">  1       -1 0.18513880E+00 0.21824913E+04</pdfrwt>
<totfact> 0.51074398E+00</totfact>
</mgrwt>
</event>
<event>
12    7  0.1546317E-007  0.1222974E+04  0.7818608E-02  0.9092982E-01
          2   -1    0    0  501    0  0.00000000000E+00  0.00000000000E+00  0.10067185751E+04  0.10067185751E+04  0.00000000000E+00 0. -1.
         -1   -1    0    0    0  501 -0.00000000000E+00 -0.00000000000E+00 -0.37142078595E+03  0.37142078595E+03  0.00000000000E+00 0.  1.
         24    2    1    2    0    0  0.90453977537E+01  0.21540924800E+02  0.45718516182E+03  0.46435288618E+03  0.77842790635E+02 0.  0.
        254    2    1    2    0    0 -0.90453977537E+01 -0.21540924800E+02  0.17811262737E+03  0.91378647491E+03  0.89595523495E+03 0.  0.
         23    2    4    4    0    0 -0.42123894673E+03 -0.30467806388E+02  0.22340650307E+03  0.48697381813E+03  0.94140833138E+02 0.  0.
         23    2    4    4    0    0  0.41219354898E+03  0.89268815882E+01 -0.45293875696E+02  0.42681265677E+03  0.10066924940E+03 0.  0.
          4    1    3    3  502    0 -0.19059312917E+01  0.11258036049E+02  0.44462500833E+03  0.44477159755E+03  0.00000000000E+00 0. -1.
         -3    1    3    3    0  502  0.10951329045E+02  0.10282888751E+02  0.12560153489E+02  0.19581288635E+02  0.00000000000E+00 0.  1.
         13    1    5    5    0    0 -0.33153539629E+02  0.13566344494E+02  0.45174207716E+02  0.57653377487E+02  0.00000000000E+00 0. -1.
        -13    1    5    5    0    0 -0.38808540710E+03 -0.44034150882E+02  0.17823229535E+03  0.42932044065E+03  0.00000000000E+00 0.  1.
          2    1    6    6  503    0  0.45617880419E+02  0.26495377947E+02 -0.27241492018E+02  0.59372510086E+02  0.00000000000E+00 0. -1.
         -2    1    6    6    0  503  0.36657566856E+03 -0.17568496359E+02 -0.18052383679E+02  0.36744014669E+03  0.00000000000E+00 0.  1.
<mgrwt>
<rscale>  0 0.12229738E+04</rscale>
<asrwt>0</asrwt>
<pdfrwt beam="1">  1        2 0.15487978E+00 0.12229738E+04</pdfrwt>
<pdfrwt beam="2">  1       -1 0.57141660E-01 0.12229738E+04</pdfrwt>
<totfact> 0.86914253E+01</totfact>
</mgrwt>
</event>
<event>
12    7  0.1546317E-007  0.2088307E+04  0.7818608E-02  0.8566412E-01
          2   -1    0    0  501    0  0.00000000000E+00  0.00000000000E+00  0.57841247186E+03  0.57841247186E+03  0.00000000000E+00 0. -1.
         -1   -1    0    0    0  501 -0.00000000000E+00 -0.00000000000E+00 -0.18849119708E+04  0.18849119708E+04  0.00000000000E+00 0.  1.
         24    2    1    2    0    0 -0.12520831326E+02 -0.69901981990E+03 -0.10746061721E+04  0.12845599564E+04  0.80810746390E+02 0.  0.
        254    2    1    2    0    0  0.12520831326E+02  0.69901981990E+03 -0.23189332686E+03  0.11787644862E+04  0.92028567257E+03 0.  0.
         23    2    4    4    0    0 -0.26549590158E+03 -0.10579202413E+03 -0.60642535702E+02  0.30561879837E+03  0.89695633408E+02 0.  0.
         23    2    4    4    0    0  0.27801673290E+03  0.80481184404E+03 -0.17125079116E+03  0.87314568787E+03  0.89672463447E+02 0.  0.
          2    1    3    3  502    0  0.12029173461E+02 -0.20790799693E+02 -0.25148640317E+02  0.34776608170E+02  0.00000000000E+00 0. -1.
         -1    1    3    3    0  502 -0.24550004787E+02 -0.67822902021E+03 -0.10494575317E+04  0.12497833482E+04  0.00000000000E+00 0.  1.
         13    1    5    5    0    0 -0.18158915052E+03 -0.28720533578E+02 -0.21254146462E+02  0.18507087123E+03  0.00000000000E+00 0. -1.
        -13    1    5    5    0    0 -0.83906751055E+02 -0.77071490556E+02 -0.39388389240E+02  0.12054792713E+03  0.00000000000E+00 0.  1.
          4    1    6    6  503    0  0.10739925566E+03  0.20172424301E+03 -0.63526286447E+02  0.23719793297E+03  0.00000000000E+00 0. -1.
         -4    1    6    6    0  503  0.17061747724E+03  0.60308760102E+03 -0.10772450471E+03  0.63594775490E+03  0.00000000000E+00 0.  1.
<mgrwt>
<rscale>  0 0.20883071E+04</rscale>
<asrwt>0</asrwt>
<pdfrwt beam="1">  1        2 0.88986533E-01 0.20883071E+04</pdfrwt>
<pdfrwt beam="2">  1       -1 0.28998646E+00 0.20883071E+04</pdfrwt>
<totfact> 0.20946631E+00</totfact>
</mgrwt>
</event>
<event>
12    7  0.1546317E-007  0.2963546E+04  0.7818608E-02  0.8254218E-01
         -1   -1    0    0    0  501 -0.00000000000E+00  0.00000000000E+00  0.93518049341E+03  0.93518049341E+03  0.00000000000E+00 0.  1.
          2   -1    0    0  501    0  0.00000000000E+00 -0.00000000000E+00 -0.23478369909E+04  0.23478369909E+04  0.00000000000E+00 0. -1.
         24    2    1    2    0    0  0.17663364360E+03 -0.10552588070E+04  0.26400255590E+03  0.11049636136E+04  0.80477600603E+02 0.  0.
        254    2    1    2    0    0 -0.17663364360E+03  0.10552588070E+04 -0.16766590533E+04  0.21780538706E+04  0.88767251197E+03 0.  0.
         23    2    4    4    0    0  0.86381319547E+02  0.33915561937E+03 -0.12458772360E+04  0.12972737199E+04  0.90668355328E+02 0.  0.
         23    2    4    4    0    0 -0.26301496315E+03  0.71610318760E+03 -0.43078181740E+03  0.88078015078E+03  0.90664511706E+02 0.  0.
          2    1    3    3  502    0 -0.24988180901E+00 -0.84244013402E+01  0.10464419600E+02  0.13436407869E+02  0.00000000000E+00 0. -1.
         -1    1    3    3    0  502  0.17688352541E+03 -0.10468344056E+04  0.25353813630E+03  0.10915272058E+04  0.00000000000E+00 0.  1.
         13    1    5    5    0    0  0.28354886737E+02  0.26798777441E+03 -0.94890747253E+03  0.98643136520E+03  0.00000000000E+00 0.  1.
        -13    1    5    5    0    0  0.58026432810E+02  0.71167844963E+02 -0.29696976343E+03  0.31084235466E+03  0.00000000000E+00 0. -1.
          1    1    6    6  503    0 -0.19765420195E+02  0.15988716792E+03 -0.85860781961E+02  0.18255588783E+03  0.00000000000E+00 0. -1.
         -1    1    6    6    0  503 -0.24324954295E+03  0.55621601968E+03 -0.34492103544E+03  0.69822426296E+03  0.00000000000E+00 0.  1.
<mgrwt>
<rscale>  0 0.29635461E+04</rscale>
<asrwt>0</asrwt>
<pdfrwt beam="1">  1        2 0.36120569E+00 0.29635461E+04</pdfrwt>
<pdfrwt beam="2">  1       -1 0.14387392E+00 0.29635461E+04</pdfrwt>
<totfact> 0.16210600E+00</totfact>
</mgrwt>
</event>
<event>
12    7  0.1546317E-007  0.1923481E+04  0.7818608E-02  0.8643256E-01
         -1   -1    0    0    0  501 -0.00000000000E+00  0.00000000000E+00  0.66929096462E+03  0.66929096462E+03  0.00000000000E+00 0.  1.
          2   -1    0    0  501    0  0.00000000000E+00 -0.00000000000E+00 -0.13819774433E+04  0.13819774433E+04  0.00000000000E+00 0. -1.
         24    2    1    2    0    0  0.25415700313E+03  0.75079790967E+02 -0.10258684161E+04  0.10625749985E+04  0.80167718869E+02 0.  0.
        254    2    1    2    0    0 -0.25415700313E+03 -0.75079790967E+02  0.31318193740E+03  0.98869340939E+03  0.89955487582E+03 0.  0.
         23    2    4    4    0    0  0.22589511921E+03 -0.26592870941E+03 -0.31601818986E+02  0.36101156329E+03  0.87086109635E+02 0.  0.
         23    2    4    4    0    0 -0.48005212235E+03  0.19084891844E+03  0.34478375639E+03  0.62768184611E+03  0.90748616648E+02 0.  0.
          2    1    3    3  502    0  0.20250098230E+03  0.24144587422E+02 -0.78096111660E+03  0.80714922696E+03  0.00000000000E+00 0. -1.
         -1    1    3    3    0  502  0.51656020837E+02  0.50935203545E+02 -0.24490729947E+03  0.25542577157E+03  0.00000000000E+00 0.  1.
         13    1    5    5    0    0  0.18212407066E+03 -0.23964770234E+03 -0.53043988840E+02  0.30563681569E+03  0.00000000000E+00 0.  1.
        -13    1    5    5    0    0  0.43771048550E+02 -0.26281007072E+02  0.21442169854E+02  0.55374747601E+02  0.00000000000E+00 0. -1.
          3    1    6    6  503    0 -0.63884411216E+02  0.52011631643E+01  0.72769409233E+02  0.96972454928E+02  0.00000000000E+00 0. -1.
         -3    1    6    6    0  503 -0.41616771113E+03  0.18564775528E+03  0.27201434715E+03  0.53070939118E+03  0.00000000000E+00 0.  1.
<mgrwt>
<rscale>  0 0.19234812E+04</rscale>
<asrwt>0</asrwt>
<pdfrwt beam="1">  1        2 0.21261191E+00 0.19234812E+04</pdfrwt>
<pdfrwt beam="2">  1       -1 0.10296784E+00 0.19234812E+04</pdfrwt>
<totfact> 0.14067497E+01</totfact>
</mgrwt>
</event>
<event>
12    7  0.1546317E-007  0.1698212E+04  0.7818608E-02  0.8762385E-01
         -1   -1    0    0    0  501 -0.00000000000E+00  0.00000000000E+00  0.41534948150E+03  0.41534948150E+03  0.00000000000E+00 0.  1.
          2   -1    0    0  501    0  0.00000000000E+00 -0.00000000000E+00 -0.17358426430E+04  0.17358426430E+04  0.00000000000E+00 0. -1.
         24    2    1    2    0    0  0.61633123450E+02  0.55961705822E+02  0.26184514923E+03  0.28539935742E+03  0.77198164584E+02 0.  0.
        254    2    1    2    0    0 -0.61633123450E+02 -0.55961705822E+02 -0.15823383108E+04  0.18657927671E+04  0.98511814807E+03 0.  0.
         23    2    4    4    0    0  0.20105105074E+03 -0.30396520325E+02  0.33564430010E+02  0.22591350418E+03  0.92546566419E+02 0.  0.
         23    2    4    4    0    0 -0.26268417419E+03 -0.25565185497E+02 -0.16159027408E+04  0.16398792629E+04  0.91683015162E+02 0.  0.
          2    1    3    3  502    0  0.27606511283E+02 -0.14094455562E+02  0.42239626121E+02  0.52392357818E+02  0.00000000000E+00 0. -1.
         -1    1    3    3    0  502  0.34026612167E+02  0.70056161384E+02  0.21960552311E+03  0.23300699960E+03  0.00000000000E+00 0.  1.
         13    1    5    5    0    0  0.88341596348E+02 -0.59816775776E+02  0.21194027579E+02  0.10877256600E+03  0.00000000000E+00 0.  1.
        -13    1    5    5    0    0  0.11270945439E+03  0.29420255451E+02  0.12370402430E+02  0.11714093818E+03  0.00000000000E+00 0. -1.
          3    1    6    6  503    0 -0.10461178722E+02  0.13224399983E+02 -0.23437017164E+03  0.23497595275E+03  0.00000000000E+00 0. -1.
         -3    1    6    6    0  503 -0.25222299547E+03 -0.38789585480E+02 -0.13815325691E+04  0.14049033102E+04  0.00000000000E+00 0.  1.
<mgrwt>
<rscale>  0 0.16982124E+04</rscale>
<asrwt>0</asrwt>
<pdfrwt beam="1">  1        2 0.26705272E+00 0.16982124E+04</pdfrwt>
<pdfrwt beam="2">  1       -1 0.63899920E-01 0.16982124E+04</pdfrwt>
<totfact> 0.25219580E+01</totfact>
</mgrwt>
</event>
<event>
12    7  0.1546317E-007  0.2690078E+04  0.7818608E-02  0.8338232E-01
         -1   -1    0    0    0  501 -0.00000000000E+00  0.00000000000E+00  0.53322127664E+03  0.53322127664E+03  0.00000000000E+00 0.  1.
          2   -1    0    0  501    0  0.00000000000E+00 -0.00000000000E+00 -0.33928308947E+04  0.33928308947E+04  0.00000000000E+00 0. -1.
         24    2    1    2    0    0 -0.57979901781E+03 -0.63134096178E+03 -0.24697387519E+04  0.26155500243E+04  0.82061659904E+02 0.  0.
        254    2    1    2    0    0  0.57979901781E+03  0.63134096178E+03 -0.38987086621E+03  0.13105021471E+04  0.91140456115E+03 0.  0.
         23    2    4    4    0    0  0.16022454912E+03  0.53790793846E+03  0.17369310158E+03  0.59438056078E+03  0.90011671995E+02 0.  0.
         23    2    4    4    0    0  0.41957446869E+03  0.93433023316E+02 -0.56356396778E+03  0.71612158629E+03  0.10224145902E+03 0.  0.
          2    1    3    3  502    0 -0.22918966107E+03 -0.28765328488E+03 -0.11540503286E+04  0.12112408819E+04  0.00000000000E+00 0. -1.
         -1    1    3    3    0  502 -0.35060935674E+03 -0.34368767690E+03 -0.13156884232E+04  0.14043091424E+04  0.00000000000E+00 0.  1.
         13    1    5    5    0    0  0.11803123166E+03  0.48668297149E+03  0.14021553248E+03  0.52005007638E+03  0.00000000000E+00 0.  1.
        -13    1    5    5    0    0  0.42193317457E+02  0.51224966968E+02  0.33477569097E+02  0.74330484403E+02  0.00000000000E+00 0. -1.
          1    1    6    6  503    0  0.16416512757E+03  0.88247412320E+02 -0.23702899377E+03  0.30153032812E+03  0.00000000000E+00 0. -1.
         -1    1    6    6    0  503  0.25540934112E+03  0.51856109956E+01 -0.32653497402E+03  0.41459125817E+03  0.00000000000E+00 0.  1.
<mgrwt>
<rscale>  0 0.26900778E+04</rscale>
<asrwt>0</asrwt>
<pdfrwt beam="1">  1        2 0.52197397E+00 0.26900778E+04</pdfrwt>
<pdfrwt beam="2">  1       -1 0.82034044E-01 0.26900778E+04</pdfrwt>
<totfact> 0.14227525E+00</totfact>
</mgrwt>
</event>
<event>
12    7  0.1691587E-007  0.1787133E+04  0.7818608E-02  0.8713172E-01
          2   -1    0    0  501    0  0.00000000000E+00  0.00000000000E+00  0.19266811392E+04  0.19266811392E+04  0.00000000000E+00 0. -1.
         -1   -1    0    0    0  501 -0.00000000000E+00 -0.00000000000E+00 -0.41442327423E+03  0.41442327423E+03  0.00000000000E+00 0.  1.
         24    2    1    2    0    0 -0.29065101012E+03  0.73350540492E+02 -0.21026497900E+03  0.37525084293E+03  0.82118951840E+02 0.  0.
        254    2    1    2    0    0  0.29065101012E+03 -0.73350540492E+02  0.17225228440E+04  0.19658535705E+04  0.89868626404E+03 0.  0.
         23    2    4    4    0    0 -0.25257072655E+03 -0.87043731970E+02  0.10938011979E+04  0.11298903037E+04  0.94246775376E+02 0.  0.
         23    2    4    4    0    0  0.54322173667E+03  0.13693191478E+02  0.62872164611E+03  0.83596326684E+03  0.90919285822E+02 0.  0.
          2    1    3    3  502    0 -0.45616147370E+02 -0.17683333882E+02 -0.25719623193E+02  0.55272345845E+02  0.00000000000E+00 0. -1.
         -1    1    3    3    0  502 -0.24503486275E+03  0.91033874374E+02 -0.18454535581E+03  0.31997849709E+03  0.00000000000E+00 0.  1.
         13    1    5    5    0    0 -0.54708982575E+02  0.18997889426E+02  0.26244466847E+03  0.26875862142E+03  0.00000000000E+00 0. -1.
        -13    1    5    5    0    0 -0.19786174397E+03 -0.10604162140E+03  0.83135652944E+03  0.86113168229E+03  0.00000000000E+00 0.  1.
          3    1    6    6  503    0  0.28364503895E+02 -0.18610071924E+02  0.26847029531E+02  0.43262487826E+02  0.00000000000E+00 0. -1.
         -3    1    6    6    0  503  0.51485723278E+03  0.32303263402E+02  0.60187461658E+03  0.79270077901E+03  0.00000000000E+00 0.  1.
<mgrwt>
<rscale>  0 0.17871335E+04</rscale>
<asrwt>0</asrwt>
<pdfrwt beam="1">  1        2 0.29641248E+00 0.17871335E+04</pdfrwt>
<pdfrwt beam="2">  1       -1 0.63757428E-01 0.17871335E+04</pdfrwt>
<totfact> 0.19705724E+01</totfact>
</mgrwt>
</event>
<event>
12    7  0.1546317E-007  0.1788304E+04  0.7818608E-02  0.8712544E-01
         -1   -1    0    0    0  501 -0.00000000000E+00  0.00000000000E+00  0.27123990838E+03  0.27123990838E+03  0.00000000000E+00 0.  1.
          2   -1    0    0  501    0  0.00000000000E+00 -0.00000000000E+00 -0.29476040423E+04  0.29476040423E+04  0.00000000000E+00 0. -1.
         24    2    1    2    0    0  0.40805971377E+03 -0.52515052066E+03 -0.99454821421E+03  0.11989548368E+04  0.77915024676E+02 0.  0.
        254    2    1    2    0    0 -0.40805971377E+03  0.52515052066E+03 -0.16818159198E+04  0.20198891139E+04  0.89952845707E+03 0.  0.
         23    2    4    4    0    0 -0.19819925579E+03 -0.16776792572E+03 -0.12864388121E+03  0.30352745420E+03  0.90280924817E+02 0.  0.
         23    2    4    4    0    0 -0.20986045798E+03  0.69291844638E+03 -0.15531720386E+04  0.17163616597E+04  0.96832744072E+02 0.  0.
          2    1    3    3  502    0  0.21145937100E+02 -0.63778131644E+02 -0.89845446578E+02  0.11219182235E+03  0.00000000000E+00 0. -1.
         -1    1    3    3    0  502  0.38691377667E+03 -0.46137238901E+03 -0.90470276763E+03  0.10867630145E+04  0.00000000000E+00 0.  1.
         13    1    5    5    0    0 -0.12880738273E+03 -0.13493099317E+03 -0.12892400980E+03  0.22675783353E+03  0.00000000000E+00 0. -1.
        -13    1    5    5    0    0 -0.69391873056E+02 -0.32836932550E+02  0.28012859650E+00  0.76769620668E+02  0.00000000000E+00 0.  1.
          1    1    6    6  503    0 -0.21629775794E+03  0.63170989458E+03 -0.13927005124E+04  0.15444924177E+04  0.00000000000E+00 0. -1.
         -1    1    6    6    0  503  0.64372999599E+01  0.61208551796E+02 -0.16047152611E+03  0.17186924197E+03  0.00000000000E+00 0.  1.
<mgrwt>
<rscale>  0 0.17883041E+04</rscale>
<asrwt>0</asrwt>
<pdfrwt beam="1">  1        2 0.45347754E+00 0.17883041E+04</pdfrwt>
<pdfrwt beam="2">  1       -1 0.41729217E-01 0.17883041E+04</pdfrwt>
<totfact> 0.11421485E+01</totfact>
</mgrwt>
</event>
<event>
12    7  0.1546317E-007  0.2920168E+04  0.7818608E-02  0.8266902E-01
         -1   -1    0    0    0  501 -0.00000000000E+00  0.00000000000E+00  0.10979705526E+04  0.10979705526E+04  0.00000000000E+00 0.  1.
          2   -1    0    0  501    0  0.00000000000E+00 -0.00000000000E+00 -0.19416233138E+04  0.19416233138E+04  0.00000000000E+00 0. -1.
         24    2    1    2    0    0 -0.71154968689E+03  0.70568730033E+01  0.77016527699E+03  0.10516058535E+04  0.79796998218E+02 0.  0.
        254    2    1    2    0    0  0.71154968689E+03 -0.70568730033E+01 -0.16138180381E+04  0.19879880129E+04  0.91724310990E+03 0.  0.
         23    2    4    4    0    0  0.50391997519E+03 -0.43576337941E+03 -0.10053498661E+04  0.12096356349E+04  0.93085722578E+02 0.  0.
         23    2    4    4    0    0  0.20762971171E+03  0.42870650641E+03 -0.60846817199E+03  0.77835237791E+03  0.93271335636E+02 0.  0.
          4    1    3    3  502    0 -0.25769407608E+03 -0.34342522984E+02  0.26443455023E+03  0.37082513007E+03  0.00000000000E+00 0. -1.
         -3    1    3    3    0  502 -0.45385561081E+03  0.41399395987E+02  0.50573072676E+03  0.68078072346E+03  0.00000000000E+00 0.  1.
         13    1    5    5    0    0  0.10116215061E+03 -0.43233500483E+02 -0.17720759684E+03  0.20857959790E+03  0.00000000000E+00 0. -1.
        -13    1    5    5    0    0  0.40275782457E+03 -0.39252987893E+03 -0.82814226930E+03  0.10010560370E+04  0.00000000000E+00 0.  1.
          1    1    6    6  503    0  0.10871483038E+03  0.22396863015E+03 -0.39221681160E+03  0.46455881106E+03  0.00000000000E+00 0. -1.
         -1    1    6    6    0  503  0.98914881333E+02  0.20473787626E+03 -0.21625136040E+03  0.31379356685E+03  0.00000000000E+00 0.  1.
<mgrwt>
<rscale>  0 0.29201680E+04</rscale>
<asrwt>0</asrwt>
<pdfrwt beam="1">  1        2 0.29871127E+00 0.29201680E+04</pdfrwt>
<pdfrwt beam="2">  1       -1 0.16891855E+00 0.29201680E+04</pdfrwt>
<totfact> 0.17688633E+00</totfact>
</mgrwt>
</event>
<event>
12    7  0.1546317E-007  0.1615120E+04  0.7818608E-02  0.8811313E-01
         -1   -1    0    0    0  501 -0.00000000000E+00  0.00000000000E+00  0.52227778140E+03  0.52227778140E+03  0.00000000000E+00 0.  1.
          2   -1    0    0  501    0  0.00000000000E+00 -0.00000000000E+00 -0.12486715046E+04  0.12486715046E+04  0.00000000000E+00 0. -1.
         24    2    1    2    0    0  0.43402245795E+03 -0.39720270972E+02  0.12698835011E+03  0.46173587960E+03  0.84384758805E+02 0.  0.
        254    2    1    2    0    0 -0.43402245795E+03  0.39720270972E+02 -0.85338207335E+03  0.13092134064E+04  0.89209057082E+03 0.  0.
         23    2    4    4    0    0 -0.29671015595E+03 -0.13844229791E+03 -0.97874195996E+03  0.10360845684E+04  0.91281006957E+02 0.  0.
         23    2    4    4    0    0 -0.13731230200E+03  0.17816256889E+03  0.12535988660E+03  0.27312883802E+03  0.91036760481E+02 0.  0.
          2    1    3    3  502    0  0.30219591815E+03 -0.51712837817E+02  0.11982065550E+03  0.32917104980E+03  0.00000000000E+00 0. -1.
         -1    1    3    3    0  502  0.13182653980E+03  0.11992566845E+02  0.71676946125E+01  0.13256482980E+03  0.00000000000E+00 0.  1.
         13    1    5    5    0    0 -0.85176759529E+02 -0.48194912840E+01 -0.18247511128E+03  0.20143354759E+03  0.00000000000E+00 0.  1.
        -13    1    5    5    0    0 -0.21153339642E+03 -0.13362280663E+03 -0.79626684868E+03  0.83465102082E+03  0.00000000000E+00 0. -1.
          4    1    6    6  503    0 -0.12973017690E+03  0.17865090119E+03  0.92460900808E+02  0.23936391013E+03  0.00000000000E+00 0. -1.
         -4    1    6    6    0  503 -0.75821250962E+01 -0.48833229897E+00  0.32898985797E+02  0.33764927897E+02  0.00000000000E+00 0.  1.
<mgrwt>
<rscale>  0 0.16151203E+04</rscale>
<asrwt>0</asrwt>
<pdfrwt beam="1">  1        2 0.19210331E+00 0.16151203E+04</pdfrwt>
<pdfrwt beam="2">  1       -1 0.80350428E-01 0.16151203E+04</pdfrwt>
<totfact> 0.29907560E+01</totfact>
</mgrwt>
</event>
<event>
12    7  0.1546317E-007  0.1399831E+04  0.7818608E-02  0.8953941E-01
          2   -1    0    0  501    0  0.00000000000E+00  0.00000000000E+00  0.69574065431E+03  0.69574065431E+03  0.00000000000E+00 0. -1.
         -1   -1    0    0    0  501 -0.00000000000E+00 -0.00000000000E+00 -0.70411537553E+03  0.70411537553E+03  0.00000000000E+00 0.  1.
         24    2    1    2    0    0  0.72786547977E+02  0.37795600252E+03 -0.11823380699E+03  0.41037884177E+03  0.79264993849E+02 0.  0.
        254    2    1    2    0    0 -0.72786547977E+02 -0.37795600252E+03  0.10985908577E+03  0.98947718808E+03  0.90490190937E+03 0.  0.
         23    2    4    4    0    0  0.35440437487E+03 -0.19639818939E+03 -0.15984971404E+03  0.44471990418E+03  0.89717068457E+02 0.  0.
         23    2    4    4    0    0 -0.42719092285E+03 -0.18155781313E+03  0.26970879982E+03  0.54475728390E+03  0.92532900008E+02 0.  0.
          2    1    3    3  502    0  0.30642330998E+02  0.44770356858E+02  0.24298801748E+00  0.54253076828E+02  0.00000000000E+00 0. -1.
         -1    1    3    3    0  502  0.42144216979E+02  0.33318564566E+03 -0.11847679501E+03  0.35612576494E+03  0.00000000000E+00 0.  1.
         13    1    5    5    0    0  0.21452755275E+03 -0.14508080371E+03 -0.61463395115E+02  0.26617336350E+03  0.00000000000E+00 0.  1.
        -13    1    5    5    0    0  0.13987682212E+03 -0.51317385678E+02 -0.98386318929E+02  0.17854654069E+03  0.00000000000E+00 0. -1.
          2    1    6    6  503    0 -0.50241894326E+02  0.87482866251E+01  0.31361891549E+02  0.59869430479E+02  0.00000000000E+00 0.  1.
         -2    1    6    6    0  503 -0.37694902852E+03 -0.19030609976E+03  0.23834690827E+03  0.48488785342E+03  0.00000000000E+00 0. -1.
<mgrwt>
<rscale>  0 0.13998310E+04</rscale>
<asrwt>0</asrwt>
<pdfrwt beam="1">  1        2 0.10703702E+00 0.13998310E+04</pdfrwt>
<pdfrwt beam="2">  1       -1 0.10832544E+00 0.13998310E+04</pdfrwt>
<totfact> 0.36342760E+01</totfact>
</mgrwt>
</event>
<event>
12    7  0.1546317E-007  0.1414204E+04  0.7818608E-02  0.8943601E-01
          2   -1    0    0  501    0  0.00000000000E+00  0.00000000000E+00  0.14440329893E+04  0.14440329893E+04  0.00000000000E+00 0. -1.
         -1   -1    0    0    0  501 -0.00000000000E+00 -0.00000000000E+00 -0.34624767650E+03  0.34624767650E+03  0.00000000000E+00 0.  1.
         24    2    1    2    0    0  0.68708795300E+02  0.13903922556E+03 -0.15969262433E+03  0.23641773232E+03  0.79616613162E+02 0.  0.
        254    2    1    2    0    0 -0.68708795300E+02 -0.13903922556E+03  0.12574779371E+04  0.15538629334E+04  0.89954791360E+03 0.  0.
         23    2    4    4    0    0 -0.30689229523E+03 -0.42360532153E+03  0.74188309012E+03  0.91210267560E+03  0.88974277820E+02 0.  0.
         23    2    4    4    0    0  0.23818349993E+03  0.28456609597E+03  0.51559484697E+03  0.64176025785E+03  0.91153385674E+02 0.  0.
          2    1    3    3  502    0  0.56818169562E+02  0.39622473995E+02 -0.93606331608E+02  0.11644908825E+03  0.00000000000E+00 0. -1.
         -1    1    3    3    0  502  0.11890625738E+02  0.99416751565E+02 -0.66086292723E+02  0.11996864406E+03  0.00000000000E+00 0.  1.
         13    1    5    5    0    0 -0.40647349166E+02 -0.23109306832E+02  0.96598576360E+02  0.10731976524E+03  0.00000000000E+00 0. -1.
        -13    1    5    5    0    0 -0.26624494607E+03 -0.40049601470E+03  0.64528451376E+03  0.80478291035E+03  0.00000000000E+00 0.  1.
          3    1    6    6  503    0  0.18875710855E+03  0.26394418728E+03  0.40568008843E+03  0.51949216950E+03  0.00000000000E+00 0.  1.
         -3    1    6    6    0  503  0.49426391387E+02  0.20621908689E+02  0.10991475855E+03  0.12226808835E+03  0.00000000000E+00 0. -1.
<mgrwt>
<rscale>  0 0.14142038E+04</rscale>
<asrwt>0</asrwt>
<pdfrwt beam="1">  1        2 0.22215892E+00 0.14142038E+04</pdfrwt>
<pdfrwt beam="2">  1       -1 0.53268874E-01 0.14142038E+04</pdfrwt>
<totfact> 0.53782095E+01</totfact>
</mgrwt>
</event>
<event>
12    7  0.1546317E-007  0.1328460E+04  0.7818608E-02  0.9007296E-01
         -1   -1    0    0    0  501 -0.00000000000E+00  0.00000000000E+00  0.13929516510E+03  0.13929516510E+03  0.00000000000E+00 0.  1.
          2   -1    0    0  501    0  0.00000000000E+00 -0.00000000000E+00 -0.31673834293E+04  0.31673834293E+04  0.00000000000E+00 0. -1.
         24    2    1    2    0    0 -0.33745756979E+03  0.11290769484E+03 -0.70270133651E+03  0.79136409300E+03  0.76434288047E+02 0.  0.
        254    2    1    2    0    0  0.33745756979E+03 -0.11290769484E+03 -0.23253869277E+04  0.25153145015E+04  0.89036897889E+03 0.  0.
         23    2    4    4    0    0 -0.19333356611E+03  0.63060700328E+02 -0.15091821245E+03  0.26824817546E+03  0.88466135184E+02 0.  0.
         23    2    4    4    0    0  0.53079113591E+03 -0.17596839517E+03 -0.21744687153E+04  0.22470663260E+04  0.91042702243E+02 0.  0.
          4    1    3    3  502    0 -0.23941344470E+03  0.11068821199E+03 -0.47231089346E+03  0.54096973839E+03  0.00000000000E+00 0. -1.
         -3    1    3    3    0  502 -0.98044125099E+02  0.22194828530E+01 -0.23039044305E+03  0.25039435461E+03  0.00000000000E+00 0.  1.
         13    1    5    5    0    0 -0.30292069613E+02  0.42508714841E+02 -0.63206321450E+02  0.81973406603E+02  0.00000000000E+00 0. -1.
        -13    1    5    5    0    0 -0.16304149650E+03  0.20551985487E+02 -0.87711891003E+02  0.18627476885E+03  0.00000000000E+00 0.  1.
          3    1    6    6  503    0  0.16763064772E+03 -0.92138399818E+02 -0.63942726597E+03  0.66742546194E+03  0.00000000000E+00 0. -1.
         -3    1    6    6    0  503  0.36316048818E+03 -0.83829995354E+02 -0.15350414493E+04  0.15796408641E+04  0.00000000000E+00 0.  1.
<mgrwt>
<rscale>  0 0.13284596E+04</rscale>
<asrwt>0</asrwt>
<pdfrwt beam="1">  1        2 0.48728978E+00 0.13284596E+04</pdfrwt>
<pdfrwt beam="2">  1       -1 0.21430025E-01 0.13284596E+04</pdfrwt>
<totfact> 0.28001153E+01</totfact>
</mgrwt>
</event>
<event>
12    7  0.1546317E-007  0.2233972E+04  0.7818608E-02  0.8504420E-01
          2   -1    0    0  501    0  0.00000000000E+00  0.00000000000E+00  0.11928424513E+04  0.11928424513E+04  0.00000000000E+00 0. -1.
         -1   -1    0    0    0  501 -0.00000000000E+00 -0.00000000000E+00 -0.10459533727E+04  0.10459533727E+04  0.00000000000E+00 0.  1.
         24    2    1    2    0    0 -0.47702816896E+02 -0.38970141602E+03  0.90536466520E+03  0.99007847450E+03  0.80171418109E+02 0.  0.
        254    2    1    2    0    0  0.47702816896E+02  0.38970141602E+03 -0.75847558658E+03  0.12487173495E+04  0.91097038988E+03 0.  0.
         23    2    4    4    0    0 -0.19359608152E+03  0.41164034159E+03 -0.85372534933E+03  0.97267010049E+03  0.10155264003E+03 0.  0.
         23    2    4    4    0    0  0.24129889842E+03 -0.21938925571E+02  0.95249762749E+02  0.27604724906E+03  0.91777402310E+02 0.  0.
          4    1    3    3  502    0 -0.48627607280E+02 -0.38446689766E+03  0.84667694174E+03  0.93115051590E+03  0.00000000000E+00 0. -1.
         -3    1    3    3    0  502  0.92479038370E+00 -0.52345183650E+01  0.58687723459E+02  0.58927958598E+02  0.00000000000E+00 0.  1.
         13    1    5    5    0    0 -0.19689184289E+03  0.41535982290E+03 -0.83353867934E+03  0.95188072269E+03  0.00000000000E+00 0.  1.
        -13    1    5    5    0    0  0.32957613694E+01 -0.37194813022E+01 -0.20186669989E+02  0.20789377802E+02  0.00000000000E+00 0. -1.
          3    1    6    6  503    0  0.10351617153E+03  0.55660966849E+00 -0.58418809475E+01  0.10368237630E+03  0.00000000000E+00 0. -1.
         -3    1    6    6    0  503  0.13778272689E+03 -0.22495535239E+02  0.10109164370E+03  0.17236487275E+03  0.00000000000E+00 0.  1.
<mgrwt>
<rscale>  0 0.22339719E+04</rscale>
<asrwt>0</asrwt>
<pdfrwt beam="1">  1        2 0.18351422E+00 0.22339719E+04</pdfrwt>
<pdfrwt beam="2">  1       -1 0.16091590E+00 0.22339719E+04</pdfrwt>
<totfact> 0.57169394E+00</totfact>
</mgrwt>
</event>
<event>
12    7  0.1546317E-007  0.1293665E+04  0.7818608E-02  0.9034604E-01
          2   -1    0    0  501    0  0.00000000000E+00  0.00000000000E+00  0.33451585814E+04  0.33451585814E+04  0.00000000000E+00 0. -1.
         -1   -1    0    0    0  501 -0.00000000000E+00 -0.00000000000E+00 -0.12507390263E+03  0.12507390263E+03  0.00000000000E+00 0.  1.
         24    2    1    2    0    0 -0.24309253370E+03  0.12179388966E+03  0.35329970192E+03  0.45289310154E+03  0.79773119168E+02 0.  0.
        254    2    1    2    0    0  0.24309253370E+03 -0.12179388966E+03  0.28667849768E+04  0.30173393825E+04  0.90108441010E+03 0.  0.
         23    2    4    4    0    0  0.43693710281E+03 -0.32526021554E+03  0.11589772256E+04  0.12841753214E+04  0.95759109725E+02 0.  0.
         23    2    4    4    0    0 -0.19384456911E+03  0.20346632587E+03  0.17078077512E+04  0.17331640610E+04  0.90972988118E+02 0.  0.
          4    1    3    3  502    0 -0.53926209831E+02  0.88530298349E+01  0.12080826037E+03  0.13259354440E+03  0.00000000000E+00 0. -1.
         -3    1    3    3    0  502 -0.18916632387E+03  0.11294085983E+03  0.23249144155E+03  0.32029955713E+03  0.00000000000E+00 0.  1.
         13    1    5    5    0    0  0.78578520741E+02 -0.10133406133E+03  0.32147958108E+03  0.34611023816E+03  0.00000000000E+00 0.  1.
        -13    1    5    5    0    0  0.35835858207E+03 -0.22392615421E+03  0.83749764452E+03  0.93806508328E+03  0.00000000000E+00 0. -1.
          3    1    6    6  503    0 -0.16908460632E+03  0.12577141314E+03  0.11107464189E+04  0.11305598876E+04  0.00000000000E+00 0. -1.
         -3    1    6    6    0  503 -0.24759962794E+02  0.77694912736E+02  0.59706133234E+03  0.60260417340E+03  0.00000000000E+00 0.  1.
<mgrwt>
<rscale>  0 0.12936646E+04</rscale>
<asrwt>0</asrwt>
<pdfrwt beam="1">  1        2 0.51463971E+00 0.12936646E+04</pdfrwt>
<pdfrwt beam="2">  1       -1 0.19242141E-01 0.12936646E+04</pdfrwt>
<totfact> 0.25770668E+01</totfact>
</mgrwt>
</event>
<event>
12    7  0.1546317E-007  0.2233367E+04  0.7818608E-02  0.8504667E-01
          2   -1    0    0  501    0  0.00000000000E+00  0.00000000000E+00  0.89983589604E+03  0.89983589604E+03  0.00000000000E+00 0. -1.
         -1   -1    0    0    0  501 -0.00000000000E+00 -0.00000000000E+00 -0.13857879519E+04  0.13857879519E+04  0.00000000000E+00 0.  1.
         24    2    1    2    0    0  0.67203739023E+03 -0.54252376221E+03 -0.55591867984E+03  0.10301924925E+04  0.79276140702E+02 0.  0.
        254    2    1    2    0    0 -0.67203739023E+03  0.54252376221E+03  0.69966623934E+02  0.12554313555E+04  0.90843066525E+03 0.  0.
         23    2    4    4    0    0 -0.39677154631E+03  0.10380281970E+03 -0.37765615391E+03  0.56500027759E+03  0.91643099844E+02 0.  0.
         23    2    4    4    0    0 -0.27526584392E+03  0.43872094250E+03  0.44762277784E+03  0.69043107795E+03  0.89897563552E+02 0.  0.
          4    1    3    3  502    0  0.12897483005E+03 -0.72437295986E+02 -0.75537533448E+02  0.16609511611E+03  0.00000000000E+00 0. -1.
         -3    1    3    3    0  502  0.54306256018E+03 -0.47008646622E+03 -0.48038114640E+03  0.86409737635E+03  0.00000000000E+00 0.  1.
         13    1    5    5    0    0 -0.15577229383E+03  0.83918203778E+02 -0.18320294149E+03  0.25469705578E+03  0.00000000000E+00 0.  1.
        -13    1    5    5    0    0 -0.24099925248E+03  0.19884615924E+02 -0.19445321241E+03  0.31030322181E+03  0.00000000000E+00 0. -1.
          1    1    6    6  503    0 -0.14392164325E+03  0.20196923593E+03  0.27004679298E+03  0.36664735381E+03  0.00000000000E+00 0. -1.
         -1    1    6    6    0  503 -0.13134420067E+03  0.23675170657E+03  0.17757598486E+03  0.32378372413E+03  0.00000000000E+00 0.  1.
<mgrwt>
<rscale>  0 0.22333667E+04</rscale>
<asrwt>0</asrwt>
<pdfrwt beam="1">  1        2 0.13843629E+00 0.22333667E+04</pdfrwt>
<pdfrwt beam="2">  1       -1 0.21319815E+00 0.22333667E+04</pdfrwt>
<totfact> 0.37291791E+00</totfact>
</mgrwt>
</event>
<event>
12    7  0.1546317E-007  0.2314444E+04  0.7818608E-02  0.8472248E-01
          2   -1    0    0  501    0  0.00000000000E+00  0.00000000000E+00  0.11754020486E+04  0.11754020486E+04  0.00000000000E+00 0. -1.
         -1   -1    0    0    0  501 -0.00000000000E+00 -0.00000000000E+00 -0.11393231869E+04  0.11393231869E+04  0.00000000000E+00 0.  1.
         24    2    1    2    0    0 -0.65456600054E+03  0.69980417326E+03  0.21770640273E+03  0.98597331871E+03  0.81023314166E+02 0.  0.
        254    2    1    2    0    0  0.65456600054E+03 -0.69980417326E+03 -0.18162754105E+03  0.13287519168E+04  0.90244698609E+03 0.  0.
         23    2    4    4    0    0  0.41943012451E+03  0.66405656390E+02  0.14854250864E+03  0.45708330585E+03  0.80801801186E+02 0.  0.
         23    2    4    4    0    0  0.23513587603E+03 -0.76620982965E+03 -0.33017004969E+03  0.87166861093E+03  0.91801537630E+02 0.  0.
          4    1    3    3  502    0 -0.12692271655E+03  0.16246307006E+03  0.18557537145E+02  0.20699760215E+03  0.00000000000E+00 0. -1.
         -3    1    3    3    0  502 -0.52764328398E+03  0.53734110321E+03  0.19914886559E+03  0.77897571656E+03  0.00000000000E+00 0.  1.
         13    1    5    5    0    0  0.38574289345E+03  0.70708649273E+02  0.11345356841E+03  0.40825115446E+03  0.00000000000E+00 0.  1.
        -13    1    5    5    0    0  0.33687231056E+02 -0.43029928838E+01  0.35088940228E+02  0.48832151399E+02  0.00000000000E+00 0. -1.
          2    1    6    6  503    0  0.33955958996E+02 -0.25656868964E+03 -0.10565705650E+03  0.27954232818E+03  0.00000000000E+00 0. -1.
         -2    1    6    6    0  503  0.20117991704E+03 -0.50964114001E+03 -0.22451299318E+03  0.59212628274E+03  0.00000000000E+00 0.  1.
<mgrwt>
<rscale>  0 0.23144440E+04</rscale>
<asrwt>0</asrwt>
<pdfrwt beam="1">  1        2 0.18083108E+00 0.23144440E+04</pdfrwt>
<pdfrwt beam="2">  1       -1 0.17528049E+00 0.23144440E+04</pdfrwt>
<totfact> 0.45541276E+00</totfact>
</mgrwt>
</event>
<event>
12    7  0.1546317E-007  0.1515131E+04  0.7818608E-02  0.8874453E-01
          2   -1    0    0  501    0  0.00000000000E+00  0.00000000000E+00  0.12431821176E+04  0.12431821176E+04  0.00000000000E+00 0. -1.
         -1   -1    0    0    0  501 -0.00000000000E+00 -0.00000000000E+00 -0.46164204858E+03  0.46164204858E+03  0.00000000000E+00 0.  1.
         24    2    1    2    0    0 -0.97830032294E+02 -0.13018567793E+03 -0.26230601760E+03  0.31884405972E+03  0.79611943810E+02 0.  0.
        254    2    1    2    0    0  0.97830032294E+02  0.13018567793E+03  0.10438460867E+04  0.13859801065E+04  0.89711045975E+03 0.  0.
         23    2    4    4    0    0 -0.22505244067E+03  0.39910190036E+03  0.66675252177E+03  0.81454447078E+03  0.94830594548E+02 0.  0.
         23    2    4    4    0    0  0.32288247296E+03 -0.26891622243E+03  0.37709356489E+03  0.57143563572E+03  0.88148188008E+02 0.  0.
          2    1    3    3  502    0 -0.15751685038E+02  0.77421618819E+01 -0.11184501376E+02  0.20812249355E+02  0.00000000000E+00 0. -1.
         -1    1    3    3    0  502 -0.82078347255E+02 -0.13792783981E+03 -0.25112151622E+03  0.29803181037E+03  0.00000000000E+00 0.  1.
         13    1    5    5    0    0 -0.20798749422E+03  0.37144430988E+03  0.56306807023E+03  0.70588619820E+03  0.00000000000E+00 0.  1.
        -13    1    5    5    0    0 -0.17064946451E+02  0.27657590483E+02  0.10368445154E+03  0.10865827258E+03  0.00000000000E+00 0. -1.
          3    1    6    6  503    0  0.18593063324E+02  0.32531966067E+01  0.62077525711E+01  0.19870115347E+02  0.00000000000E+00 0. -1.
         -3    1    6    6    0  503  0.30428940964E+03 -0.27216941904E+03  0.37088581232E+03  0.55156552037E+03  0.00000000000E+00 0.  1.
<mgrwt>
<rscale>  0 0.15151305E+04</rscale>
<asrwt>0</asrwt>
<pdfrwt beam="1">  1        2 0.19125879E+00 0.15151305E+04</pdfrwt>
<pdfrwt beam="2">  1       -1 0.71021854E-01 0.15151305E+04</pdfrwt>
<totfact> 0.39339390E+01</totfact>
</mgrwt>
</event>
<event>
12    7  0.1546317E-007  0.1677602E+04  0.7818608E-02  0.8774243E-01
         -1   -1    0    0    0  501 -0.00000000000E+00  0.00000000000E+00  0.27502374558E+03  0.27502374558E+03  0.00000000000E+00 0.  1.
          2   -1    0    0  501    0  0.00000000000E+00 -0.00000000000E+00 -0.25582769922E+04  0.25582769922E+04  0.00000000000E+00 0. -1.
         24    2    1    2    0    0  0.22661903753E+03  0.79951919866E+02 -0.17054681906E+04  0.17242116762E+04  0.80843413410E+02 0.  0.
        254    2    1    2    0    0 -0.22661903753E+03 -0.79951919866E+02 -0.57778505601E+03  0.11090890616E+04  0.91569344103E+03 0.  0.
         23    2    4    4    0    0 -0.19116918437E+03 -0.96602196464E+02  0.21047562082E+03  0.31490115528E+03  0.94789816046E+02 0.  0.
         23    2    4    4    0    0 -0.35449853159E+02  0.16650276598E+02 -0.78826067683E+03  0.79418790631E+03  0.88575459837E+02 0.  0.
          2    1    3    3  502    0  0.11074493313E+03  0.16020493527E+02 -0.10171597953E+04  0.10232962160E+04  0.00000000000E+00 0. -1.
         -1    1    3    3    0  502  0.11587410439E+03  0.63931426339E+02 -0.68830839535E+03  0.70091546027E+03  0.00000000000E+00 0.  1.
         13    1    5    5    0    0  0.77061910957E+01  0.65677793717E+01  0.10592296968E+02  0.14653254319E+02  0.00000000000E+00 0. -1.
        -13    1    5    5    0    0 -0.19887537546E+03 -0.10316997584E+03  0.19988332385E+03  0.30024790096E+03  0.00000000000E+00 0.  1.
          4    1    6    6  503    0 -0.21038575866E+02  0.35918089627E+02 -0.15565531986E+03  0.16112513596E+03  0.00000000000E+00 0. -1.
         -4    1    6    6    0  503 -0.14411277293E+02 -0.19267813028E+02 -0.63260535698E+03  0.63306277035E+03  0.00000000000E+00 0.  1.
<mgrwt>
<rscale>  0 0.16776018E+04</rscale>
<asrwt>0</asrwt>
<pdfrwt beam="1">  1        2 0.39358107E+00 0.16776018E+04</pdfrwt>
<pdfrwt beam="2">  1       -1 0.42311346E-01 0.16776018E+04</pdfrwt>
<totfact> 0.19231863E+01</totfact>
</mgrwt>
</event>
<event>
12    7  0.1546317E-007  0.2660491E+04  0.7818608E-02  0.8347939E-01
         -1   -1    0    0    0  501 -0.00000000000E+00  0.00000000000E+00  0.23628214598E+04  0.23628214598E+04  0.00000000000E+00 0.  1.
          2   -1    0    0  501    0  0.00000000000E+00 -0.00000000000E+00 -0.74891522126E+03  0.74891522126E+03  0.00000000000E+00 0. -1.
         24    2    1    2    0    0 -0.10428554281E+04  0.14036050028E+03  0.98957779506E+02  0.10599821665E+04  0.80752939974E+02 0.  0.
        254    2    1    2    0    0  0.10428554281E+04 -0.14036050028E+03  0.15149484590E+04  0.20517545145E+04  0.89854284294E+03 0.  0.
         23    2    4    4    0    0  0.78529873028E+03 -0.45958131676E+03  0.12699374697E+04  0.15650006169E+04  0.92610319939E+02 0.  0.
         23    2    4    4    0    0  0.25755669778E+03  0.31922081648E+03  0.24501098931E+03  0.48675389767E+03  0.93067662319E+02 0.  0.
          4    1    3    3  502    0 -0.91697580969E+03  0.14907864084E+03  0.81188326341E+02  0.93255596135E+03  0.00000000000E+00 0. -1.
         -3    1    3    3    0  502 -0.12587961836E+03 -0.87181405532E+01  0.17769453164E+02  0.12742620515E+03  0.00000000000E+00 0.  1.
         13    1    5    5    0    0  0.54700880094E+03 -0.32455534221E+03  0.81265727023E+03  0.10319722076E+04  0.00000000000E+00 0. -1.
        -13    1    5    5    0    0  0.23828992934E+03 -0.13502597455E+03  0.45728019948E+03  0.53302840924E+03  0.00000000000E+00 0.  1.
          2    1    6    6  503    0  0.19955124772E+03  0.27337288472E+03  0.16087017044E+03  0.37474344064E+03  0.00000000000E+00 0. -1.
         -2    1    6    6    0  503  0.58005450060E+02  0.45847931757E+02  0.84140818873E+02  0.11201045703E+03  0.00000000000E+00 0.  1.
<mgrwt>
<rscale>  0 0.26604909E+04</rscale>
<asrwt>0</asrwt>
<pdfrwt beam="1">  1        2 0.11521773E+00 0.26604909E+04</pdfrwt>
<pdfrwt beam="2">  1       -1 0.36351099E+00 0.26604909E+04</pdfrwt>
<totfact> 0.47628808E-01</totfact>
</mgrwt>
</event>
<event>
12    7  0.1546317E-007  0.2054939E+04  0.7818608E-02  0.8581357E-01
          2   -1    0    0  501    0  0.00000000000E+00  0.00000000000E+00  0.24651155960E+04  0.24651155960E+04  0.00000000000E+00 0. -1.
         -1   -1    0    0    0  501 -0.00000000000E+00 -0.00000000000E+00 -0.42825320893E+03  0.42825320893E+03  0.00000000000E+00 0.  1.
         24    2    1    2    0    0 -0.42509831998E+02  0.85741134574E+02 -0.33370051866E+03  0.35631100451E+03  0.80267476641E+02 0.  0.
        254    2    1    2    0    0  0.42509831998E+02 -0.85741134574E+02  0.23705629058E+04  0.25370578005E+04  0.89885213729E+03 0.  0.
         23    2    4    4    0    0  0.20722012805E+03 -0.96797865860E+02  0.23293295021E+04  0.23421539654E+04  0.87173736051E+02 0.  0.
         23    2    4    4    0    0 -0.16471029606E+03  0.11056731285E+02  0.41233403674E+02  0.19490383501E+03  0.95055659425E+02 0.  0.
          4    1    3    3  502    0 -0.37500762909E+02  0.57374274725E+01 -0.58921986755E+02  0.70078711575E+02  0.00000000000E+00 0. -1.
         -3    1    3    3    0  502 -0.50090690885E+01  0.80003707102E+02 -0.27477853191E+03  0.28623229294E+03  0.00000000000E+00 0.  1.
         13    1    5    5    0    0  0.10652210256E+03 -0.64669733414E+01  0.12047611832E+04  0.12094785193E+04  0.00000000000E+00 0.  1.
        -13    1    5    5    0    0  0.10069802549E+03 -0.90330892518E+02  0.11245683189E+04  0.11326754462E+04  0.00000000000E+00 0. -1.
          2    1    6    6  503    0 -0.56549599390E+02  0.49158861915E+02  0.25521619952E+02  0.79156831550E+02  0.00000000000E+00 0. -1.
         -2    1    6    6    0  503 -0.10816069667E+03 -0.38102130630E+02  0.15711783722E+02  0.11574700346E+03  0.00000000000E+00 0.  1.
<mgrwt>
<rscale>  0 0.20549391E+04</rscale>
<asrwt>0</asrwt>
<pdfrwt beam="1">  1        2 0.37924855E+00 0.20549391E+04</pdfrwt>
<pdfrwt beam="2">  1       -1 0.65885110E-01 0.20549391E+04</pdfrwt>
<totfact> 0.89676699E+00</totfact>
</mgrwt>
</event>
<event>
12    7  0.1546317E-007  0.1279318E+04  0.7818608E-02  0.9046129E-01
         -1   -1    0    0    0  501 -0.00000000000E+00  0.00000000000E+00  0.22389414485E+03  0.22389414485E+03  0.00000000000E+00 0.  1.
          2   -1    0    0  501    0  0.00000000000E+00 -0.00000000000E+00 -0.18274882086E+04  0.18274882086E+04  0.00000000000E+00 0. -1.
         24    2    1    2    0    0 -0.28850799183E+03  0.86200485404E+02 -0.24189755568E+03  0.39417412468E+03  0.78685628218E+02 0.  0.
        254    2    1    2    0    0  0.28850799183E+03 -0.86200485404E+02 -0.13616965081E+04  0.16572082288E+04  0.89523982730E+03 0.  0.
         23    2    4    4    0    0  0.25153085875E+03  0.57995407714E+02 -0.14401108928E+04  0.14659885033E+04  0.92583302701E+02 0.  0.
         23    2    4    4    0    0  0.36977133080E+02 -0.14419589312E+03  0.78414384702E+02  0.19121972553E+03  0.90864755213E+02 0.  0.
          2    1    3    3  502    0 -0.18034686400E+03  0.20722984490E+02 -0.17010379065E+03  0.24877647202E+03  0.00000000000E+00 0. -1.
         -1    1    3    3    0  502 -0.10816112783E+03  0.65477500913E+02 -0.71793765033E+02  0.14539765265E+03  0.00000000000E+00 0.  1.
         13    1    5    5    0    0  0.98016288643E+02  0.47857737456E+02 -0.81285124840E+03  0.82013700557E+03  0.00000000000E+00 0. -1.
        -13    1    5    5    0    0  0.15351457010E+03  0.10137670258E+02 -0.62725964439E+03  0.64585149769E+03  0.00000000000E+00 0.  1.
          3    1    6    6  503    0  0.65310293271E+02 -0.85181846468E+02  0.61083425604E+02  0.12350128039E+03  0.00000000000E+00 0. -1.
         -3    1    6    6    0  503 -0.28333160191E+02 -0.59014046650E+02  0.17330959098E+02  0.67718445136E+02  0.00000000000E+00 0.  1.
<mgrwt>
<rscale>  0 0.12793184E+04</rscale>
<asrwt>0</asrwt>
<pdfrwt beam="1">  1        2 0.28115203E+00 0.12793184E+04</pdfrwt>
<pdfrwt beam="2">  1       -1 0.34445253E-01 0.12793184E+04</pdfrwt>
<totfact> 0.74404629E+01</totfact>
</mgrwt>
</event>
<event>
12    7  0.1546317E-007  0.2620579E+04  0.7818608E-02  0.8361244E-01
          2   -1    0    0  501    0  0.00000000000E+00  0.00000000000E+00  0.32978956210E+04  0.32978956210E+04  0.00000000000E+00 0. -1.
         -1   -1    0    0    0  501 -0.00000000000E+00 -0.00000000000E+00 -0.52059221317E+03  0.52059221317E+03  0.00000000000E+00 0.  1.
         24    2    1    2    0    0 -0.39024669675E+03  0.10802114408E+04  0.10553118915E+04  0.15619856271E+04  0.83466578949E+02 0.  0.
        254    2    1    2    0    0  0.39024669675E+03 -0.10802114408E+04  0.17219915162E+04  0.22565022070E+04  0.89855338578E+03 0.  0.
         23    2    4    4    0    0  0.18318682381E+02 -0.50854300329E+03  0.14083373267E+04  0.15000067274E+04  0.87490549243E+02 0.  0.
         23    2    4    4    0    0  0.37192801437E+03 -0.57166843749E+03  0.31365418952E+03  0.75649547957E+03  0.93654736689E+02 0.  0.
          4    1    3    3  502    0 -0.21811521243E+02  0.12868308580E+03  0.13725612252E+03  0.18940517997E+03  0.00000000000E+00 0. -1.
         -3    1    3    3    0  502 -0.36843517551E+03  0.95152835498E+03  0.91805576902E+03  0.13725804472E+04  0.00000000000E+00 0.  1.
         13    1    5    5    0    0  0.17917988143E+02 -0.62826370563E+02  0.11830735401E+03  0.13514746446E+03  0.00000000000E+00 0. -1.
        -13    1    5    5    0    0  0.40069423798E+00 -0.44571663272E+03  0.12900299727E+04  0.13648592630E+04  0.00000000000E+00 0.  1.
          2    1    6    6  503    0  0.12344258657E+03 -0.24102897504E+03  0.84629717530E+02  0.28371680965E+03  0.00000000000E+00 0. -1.
         -2    1    6    6    0  503  0.24848542780E+03 -0.33063946245E+03  0.22902447199E+03  0.47277866991E+03  0.00000000000E+00 0.  1.
<mgrwt>
<rscale>  0 0.26205792E+04</rscale>
<asrwt>0</asrwt>
<pdfrwt beam="1">  1        2 0.50736854E+00 0.26205792E+04</pdfrwt>
<pdfrwt beam="2">  1       -1 0.80091112E-01 0.26205792E+04</pdfrwt>
<totfact> 0.17461989E+00</totfact>
</mgrwt>
</event>
<event>
12    7  0.1546317E-007  0.1100683E+04  0.7818608E-02  0.9204526E-01
         -1   -1    0    0    0  501 -0.00000000000E+00  0.00000000000E+00  0.36406179464E+03  0.36406179464E+03  0.00000000000E+00 0.  1.
          2   -1    0    0  501    0  0.00000000000E+00 -0.00000000000E+00 -0.83193506789E+03  0.83193506789E+03  0.00000000000E+00 0. -1.
         24    2    1    2    0    0  0.81835717319E+02 -0.30557921071E+02  0.79228331893E+02  0.14247830455E+03  0.79950406658E+02 0.  0.
        254    2    1    2    0    0 -0.81835717319E+02  0.30557921071E+02 -0.54710160514E+03  0.10535185580E+04  0.89607494915E+03 0.  0.
         23    2    4    4    0    0 -0.18818640282E+03  0.41548090347E+03 -0.41391186639E+03  0.62259280499E+03  0.90885996332E+02 0.  0.
         23    2    4    4    0    0  0.10635068550E+03 -0.38492298240E+03 -0.13318973874E+03  0.43092575299E+03  0.92094122479E+02 0.  0.
          4    1    3    3  502    0 -0.10423889527E+02 -0.45828379958E+01 -0.71554824576E+01  0.13448449954E+02  0.00000000000E+00 0. -1.
         -3    1    3    3    0  502  0.92259606846E+02 -0.25975083075E+02  0.86383814350E+02  0.12902985460E+03  0.00000000000E+00 0.  1.
         13    1    5    5    0    0  0.22865378104E+01 -0.32895425802E+01 -0.85065787289E+01  0.94027244571E+01  0.00000000000E+00 0. -1.
        -13    1    5    5    0    0 -0.19047294063E+03  0.41877044605E+03 -0.40540528767E+03  0.61319008053E+03  0.00000000000E+00 0.  1.
          4    1    6    6  503    0  0.66743200581E+02 -0.30749740619E+03 -0.13851198646E+03  0.34379482258E+03  0.00000000000E+00 0. -1.
         -4    1    6    6    0  503  0.39607484924E+02 -0.77425576206E+02  0.53222477200E+01  0.87130930407E+02  0.00000000000E+00 0.  1.
<mgrwt>
<rscale>  0 0.11006830E+04</rscale>
<asrwt>0</asrwt>
<pdfrwt beam="1">  1        2 0.12799001E+00 0.11006830E+04</pdfrwt>
<pdfrwt beam="2">  1       -1 0.56009507E-01 0.11006830E+04</pdfrwt>
<totfact> 0.11941089E+02</totfact>
</mgrwt>
</event>
<event>
12    7  0.1546317E-007  0.2345785E+04  0.7818608E-02  0.8460084E-01
         -1   -1    0    0    0  501 -0.00000000000E+00  0.00000000000E+00  0.42309435746E+03  0.42309435746E+03  0.00000000000E+00 0.  1.
          2   -1    0    0  501    0  0.00000000000E+00 -0.00000000000E+00 -0.32514658913E+04  0.32514658913E+04  0.00000000000E+00 0. -1.
         24    2    1    2    0    0 -0.51598423689E+03 -0.33020942981E+03 -0.25094002351E+04  0.25843209133E+04  0.79668331098E+02 0.  0.
        254    2    1    2    0    0  0.51598423689E+03  0.33020942981E+03 -0.31897129878E+03  0.10902393355E+04  0.84356453154E+03 0.  0.
         23    2    4    4    0    0  0.26849345017E+03  0.36631769462E+03 -0.56232300934E+03  0.72854314901E+03  0.91052550629E+02 0.  0.
         23    2    4    4    0    0  0.24749078672E+03 -0.36108264810E+02  0.24335171056E+03  0.36169618644E+03  0.95124024065E+02 0.  0.
          2    1    3    3  502    0 -0.51567905721E+03 -0.31963248307E+03 -0.24512734580E+04  0.25252388759E+04  0.00000000000E+00 0. -1.
         -1    1    3    3    0  502 -0.30517967895E+00 -0.10576946736E+02 -0.58126777076E+02  0.59082037458E+02  0.00000000000E+00 0.  1.
         13    1    5    5    0    0  0.42084126151E+02  0.83091889747E+02 -0.17325798509E+03  0.19670705431E+03  0.00000000000E+00 0. -1.
        -13    1    5    5    0    0  0.22640932401E+03  0.28322580487E+03 -0.38906502424E+03  0.53183609471E+03  0.00000000000E+00 0.  1.
          4    1    6    6  503    0  0.81918468479E+02 -0.24687039681E+02  0.28440236161E+02  0.90160592495E+02  0.00000000000E+00 0. -1.
         -4    1    6    6    0  503  0.16557231824E+03 -0.11421225129E+02  0.21491147440E+03  0.27153559394E+03  0.00000000000E+00 0.  1.
<mgrwt>
<rscale>  0 0.23457850E+04</rscale>
<asrwt>0</asrwt>
<pdfrwt beam="1">  1        2 0.50022551E+00 0.23457850E+04</pdfrwt>
<pdfrwt beam="2">  1       -1 0.65091441E-01 0.23457850E+04</pdfrwt>
<totfact> 0.29535681E+00</totfact>
</mgrwt>
</event>
<event>
12    7  0.1546317E-007  0.1299644E+04  0.7818608E-02  0.9029848E-01
          2   -1    0    0  501    0  0.00000000000E+00  0.00000000000E+00  0.16482295936E+04  0.16482295936E+04  0.00000000000E+00 0. -1.
         -3   -1    0    0    0  501 -0.00000000000E+00 -0.00000000000E+00 -0.25619526307E+03  0.25619526307E+03  0.00000000000E+00 0.  1.
         24    2    1    2    0    0  0.82332142316E+01  0.36821319406E+03  0.54826087503E+03  0.66494300609E+03  0.76879595279E+02 0.  0.
        254    2    1    2    0    0 -0.82332142316E+01 -0.36821319406E+03  0.84377345548E+03  0.12394818506E+04  0.82988726439E+03 0.  0.
         23    2    4    4    0    0  0.82930264763E+02 -0.42117199927E+03  0.96140088138E+03  0.10566479038E+04  0.89161965217E+02 0.  0.
         23    2    4    4    0    0 -0.91163478994E+02  0.52958805213E+02 -0.11762742590E+03  0.18283394679E+03  0.92068593041E+02 0.  0.
          2    1    3    3  502    0  0.31112178741E+01  0.30695775482E+03  0.50033259688E+03  0.58699697650E+03  0.00000000000E+00 0. -1.
         -1    1    3    3    0  502  0.51219963575E+01  0.61255439239E+02  0.47928278152E+02  0.77946029595E+02  0.00000000000E+00 0.  1.
         13    1    5    5    0    0  0.54585401281E+02 -0.14061114412E+03  0.25843294659E+03  0.29923009168E+03  0.00000000000E+00 0. -1.
        -13    1    5    5    0    0  0.28344863482E+02 -0.28056085515E+03  0.70296793479E+03  0.75741781209E+03  0.00000000000E+00 0.  1.
          3    1    6    6  503    0 -0.24481729175E+02  0.56315053099E+02 -0.93460757852E+02  0.11182867936E+03  0.00000000000E+00 0.  1.
         -3    1    6    6    0  503 -0.66681749819E+02 -0.33562478862E+01 -0.24166668045E+02  0.71005267433E+02  0.00000000000E+00 0. -1.
<mgrwt>
<rscale>  0 0.12996440E+04</rscale>
<asrwt>0</asrwt>
<pdfrwt beam="1">  1        2 0.25357378E+00 0.12996440E+04</pdfrwt>
<pdfrwt beam="2">  1       -3 0.39414657E-01 0.12996440E+04</pdfrwt>
<totfact> 0.42255946E+01</totfact>
</mgrwt>
</event>
<event>
12    7  0.1546317E-007  0.1578978E+04  0.7818608E-02  0.8833568E-01
          2   -1    0    0  501    0  0.00000000000E+00  0.00000000000E+00  0.88204472442E+03  0.88204472442E+03  0.00000000000E+00 0. -1.
         -1   -1    0    0    0  501 -0.00000000000E+00 -0.00000000000E+00 -0.70664519243E+03  0.70664519243E+03  0.00000000000E+00 0.  1.
         24    2    1    2    0    0  0.16070130827E+03  0.38163420069E+03  0.38815876421E+03  0.57320905428E+03  0.80198628788E+02 0.  0.
        254    2    1    2    0    0 -0.16070130827E+03 -0.38163420069E+03 -0.21275923223E+03  0.10154808626E+04  0.90247732256E+03 0.  0.
         23    2    4    4    0    0 -0.21304245740E+03  0.20518873867E+03 -0.27781700879E+03  0.41583161478E+03  0.90797215545E+02 0.  0.
         23    2    4    4    0    0  0.52341149128E+02 -0.58682293936E+03  0.65057776561E+02  0.59964924779E+03  0.90807202587E+02 0.  0.
          4    1    3    3  502    0  0.28178042847E+01  0.91424271065E+01  0.34666269380E+02  0.35962122116E+02  0.00000000000E+00 0. -1.
         -3    1    3    3    0  502  0.15788350398E+03  0.37249177358E+03  0.35349249483E+03  0.53724693216E+03  0.00000000000E+00 0.  1.
         13    1    5    5    0    0 -0.35137532783E+02 -0.30556606080E+01 -0.26567052875E+02  0.44156444267E+02  0.00000000000E+00 0. -1.
        -13    1    5    5    0    0 -0.17790492461E+03  0.20824439927E+03 -0.25124995591E+03  0.37167517051E+03  0.00000000000E+00 0.  1.
          2    1    6    6  503    0 -0.17867309843E+02 -0.37217778512E+02 -0.31043376482E+01  0.41400974755E+02  0.00000000000E+00 0. -1.
         -2    1    6    6    0  503  0.70208458970E+02 -0.54960516084E+03  0.68162114209E+02  0.55824827304E+03  0.00000000000E+00 0.  1.
<mgrwt>
<rscale>  0 0.15789777E+04</rscale>
<asrwt>0</asrwt>
<pdfrwt beam="1">  1        2 0.13569919E+00 0.15789777E+04</pdfrwt>
<pdfrwt beam="2">  1       -1 0.10871465E+00 0.15789777E+04</pdfrwt>
<totfact> 0.25949917E+01</totfact>
</mgrwt>
</event>
<event>
12    7  0.1546317E-007  0.1899109E+04  0.7818608E-02  0.8655300E-01
         -1   -1    0    0    0  501 -0.00000000000E+00  0.00000000000E+00  0.56082999252E+03  0.56082999252E+03  0.00000000000E+00 0.  1.
          2   -1    0    0  501    0  0.00000000000E+00 -0.00000000000E+00 -0.16077136101E+04  0.16077136101E+04  0.00000000000E+00 0. -1.
         24    2    1    2    0    0  0.26895448616E+02 -0.20875792250E+03  0.40110798615E+03  0.45913239421E+03  0.74911304233E+02 0.  0.
        254    2    1    2    0    0 -0.26895448616E+02  0.20875792250E+03 -0.14479916038E+04  0.17094112085E+04  0.88380074658E+03 0.  0.
         23    2    4    4    0    0 -0.38329126202E+03 -0.11408223519E+03 -0.54492636532E+03  0.68216923976E+03  0.92104180858E+02 0.  0.
         23    2    4    4    0    0  0.35639581341E+03  0.32284015769E+03 -0.90306523845E+03  0.10272419687E+04  0.91953760744E+02 0.  0.
          4    1    3    3  502    0  0.39550955975E+02 -0.71163823929E+02  0.19138876600E+03  0.20798612383E+03  0.00000000000E+00 0. -1.
         -3    1    3    3    0  502 -0.12655507359E+02 -0.13759409857E+03  0.20971922014E+03  0.25114627038E+03  0.00000000000E+00 0.  1.
         13    1    5    5    0    0 -0.10891856856E+03 -0.59228702802E+02 -0.11432974367E+03  0.16864929321E+03  0.00000000000E+00 0. -1.
        -13    1    5    5    0    0 -0.27437269347E+03 -0.54853532389E+02 -0.43059662165E+03  0.51351994656E+03  0.00000000000E+00 0.  1.
          4    1    6    6  503    0  0.27465417902E+03  0.29423031160E+03 -0.76007939325E+03  0.86007387959E+03  0.00000000000E+00 0. -1.
         -4    1    6    6    0  503  0.81741634386E+02  0.28609846098E+02 -0.14298584520E+03  0.16716808910E+03  0.00000000000E+00 0.  1.
<mgrwt>
<rscale>  0 0.18991093E+04</rscale>
<asrwt>0</asrwt>
<pdfrwt beam="1">  1        2 0.24734056E+00 0.18991093E+04</pdfrwt>
<pdfrwt beam="2">  1       -1 0.86281537E-01 0.18991093E+04</pdfrwt>
<totfact> 0.15612543E+01</totfact>
</mgrwt>
</event>
<event>
12    7  0.1546317E-007  0.1592914E+04  0.7818608E-02  0.8824913E-01
          2   -1    0    0  501    0  0.00000000000E+00  0.00000000000E+00  0.38174007969E+03  0.38174007969E+03  0.00000000000E+00 0. -1.
         -1   -1    0    0    0  501 -0.00000000000E+00 -0.00000000000E+00 -0.16617173136E+04  0.16617173136E+04  0.00000000000E+00 0.  1.
         24    2    1    2    0    0 -0.24745346859E+03  0.42905649162E+03 -0.70723789193E+03  0.86696672003E+03  0.78250659606E+02 0.  0.
        254    2    1    2    0    0  0.24745346859E+03 -0.42905649162E+03 -0.57273934201E+03  0.11764906733E+04  0.90043170664E+03 0.  0.
         23    2    4    4    0    0  0.44877580827E+03 -0.55152224738E+03 -0.58305820925E+03  0.92404200938E+03  0.91215373022E+02 0.  0.
         23    2    4    4    0    0 -0.20132233967E+03  0.12246575576E+03  0.10318867245E+02  0.25244866391E+03  0.89973902349E+02 0.  0.
          2    1    3    3  502    0 -0.80950074571E+02  0.10609307385E+03 -0.14071703974E+03  0.19393282385E+03  0.00000000000E+00 0. -1.
         -1    1    3    3    0  502 -0.16650339402E+03  0.32296341777E+03 -0.56652085219E+03  0.67303389618E+03  0.00000000000E+00 0.  1.
         13    1    5    5    0    0  0.30672520118E+02 -0.44940331090E+02 -0.17167006454E+02  0.57053860163E+02  0.00000000000E+00 0. -1.
        -13    1    5    5    0    0  0.41810328815E+03 -0.50658191629E+03 -0.56589120280E+03  0.86698814921E+03  0.00000000000E+00 0.  1.
          1    1    6    6  503    0 -0.20371964827E+02  0.18907178591E+02 -0.29128471011E+02  0.40261224232E+02  0.00000000000E+00 0. -1.
         -1    1    6    6    0  503 -0.18095037485E+03  0.10355857716E+03  0.39447338256E+02  0.21218743968E+03  0.00000000000E+00 0.  1.
<mgrwt>
<rscale>  0 0.15929144E+04</rscale>
<asrwt>0</asrwt>
<pdfrwt beam="1">  1        2 0.58729242E-01 0.15929144E+04</pdfrwt>
<pdfrwt beam="2">  1       -1 0.25564882E+00 0.15929144E+04</pdfrwt>
<totfact> 0.58956774E+00</totfact>
</mgrwt>
</event>
<event>
12    7  0.1546317E-007  0.1427232E+04  0.7818608E-02  0.8934339E-01
          2   -1    0    0  501    0  0.00000000000E+00  0.00000000000E+00  0.16966090335E+04  0.16966090335E+04  0.00000000000E+00 0. -1.
         -1   -1    0    0    0  501 -0.00000000000E+00 -0.00000000000E+00 -0.30015637301E+03  0.30015637301E+03  0.00000000000E+00 0.  1.
         24    2    1    2    0    0 -0.13707312775E+03  0.11438090584E+03 -0.55918472266E+02  0.20224424843E+03  0.76836361925E+02 0.  0.
        254    2    1    2    0    0  0.13707312775E+03 -0.11438090584E+03  0.14523711328E+04  0.17945211581E+04  0.10387743959E+04 0.  0.
         23    2    4    4    0    0  0.22502250170E+03  0.38349261586E+03  0.33465869329E+03  0.56433547731E+03  0.93682320962E+02 0.  0.
         23    2    4    4    0    0 -0.87949373950E+02 -0.49787352170E+03  0.11177124395E+04  0.12301856808E+04  0.91992259811E+02 0.  0.
          2    1    3    3  502    0 -0.18837274872E+02  0.94890866173E+01  0.18025885849E+02  0.27745598751E+02  0.00000000000E+00 0. -1.
         -1    1    3    3    0  502 -0.11823585288E+03  0.10489181922E+03 -0.73944358115E+02  0.17449864968E+03  0.00000000000E+00 0.  1.
         13    1    5    5    0    0  0.16898281768E+03  0.20118233295E+03  0.17592639564E+03  0.31619554147E+03  0.00000000000E+00 0. -1.
        -13    1    5    5    0    0  0.56039684022E+02  0.18231028291E+03  0.15873229765E+03  0.24813993584E+03  0.00000000000E+00 0.  1.
          1    1    6    6  503    0 -0.92941999963E+02 -0.32612203694E+03  0.80197948666E+03  0.87072664790E+03  0.00000000000E+00 0. -1.
         -1    1    6    6    0  503  0.49926260130E+01 -0.17175148476E+03  0.31573295281E+03  0.35945903288E+03  0.00000000000E+00 0.  1.
<mgrwt>
<rscale>  0 0.14272323E+04</rscale>
<asrwt>0</asrwt>
<pdfrwt beam="1">  1        2 0.26101677E+00 0.14272323E+04</pdfrwt>
<pdfrwt beam="2">  1       -1 0.46177904E-01 0.14272323E+04</pdfrwt>
<totfact> 0.50857094E+01</totfact>
</mgrwt>
</event>
<event>
12    7  0.1546317E-007  0.1990145E+04  0.7818608E-02  0.8611242E-01
         -1   -1    0    0    0  501 -0.00000000000E+00  0.00000000000E+00  0.75767826816E+03  0.75767826816E+03  0.00000000000E+00 0.  1.
          2   -1    0    0  501    0  0.00000000000E+00 -0.00000000000E+00 -0.13068472056E+04  0.13068472056E+04  0.00000000000E+00 0. -1.
         24    2    1    2    0    0 -0.25169055216E+02 -0.58313550020E+03  0.32949201765E+03  0.67487713818E+03  0.78826829234E+02 0.  0.
        254    2    1    2    0    0  0.25169055216E+02  0.58313550020E+03 -0.87866095512E+03  0.13896483356E+04  0.90465293326E+03 0.  0.
         23    2    4    4    0    0  0.17850628440E+03 -0.37630887124E+02 -0.68577080969E+03  0.71549290372E+03  0.91476306325E+02 0.  0.
         23    2    4    4    0    0 -0.15333722918E+03  0.62076638732E+03 -0.19289014543E+03  0.67415543188E+03  0.91737258753E+02 0.  0.
          2    1    3    3  502    0  0.24140124332E+02 -0.83883450263E+02  0.47575442412E+02  0.99411274771E+02  0.00000000000E+00 0. -1.
         -3    1    3    3    0  502 -0.49309179549E+02 -0.49925204993E+03  0.28191657524E+03  0.57546586341E+03  0.00000000000E+00 0.  1.
         13    1    5    5    0    0  0.72884665360E+02 -0.48933125636E+02 -0.42395881444E+03  0.43295230865E+03  0.00000000000E+00 0.  1.
        -13    1    5    5    0    0  0.10562161904E+03  0.11302238512E+02 -0.26181199525E+03  0.28254059507E+03  0.00000000000E+00 0. -1.
          2    1    6    6  503    0 -0.27484726008E+02  0.37068227232E+02  0.15816455923E+01  0.46173209078E+02  0.00000000000E+00 0. -1.
         -2    1    6    6    0  503 -0.12585250318E+03  0.58369816009E+03 -0.19447179102E+03  0.62798222280E+03  0.00000000000E+00 0.  1.
<mgrwt>
<rscale>  0 0.19901454E+04</rscale>
<asrwt>0</asrwt>
<pdfrwt beam="1">  1        2 0.20105341E+00 0.19901454E+04</pdfrwt>
<pdfrwt beam="2">  1       -1 0.11656589E+00 0.19901454E+04</pdfrwt>
<totfact> 0.11535218E+01</totfact>
</mgrwt>
</event>
<event>
12    7  0.1546317E-007  0.1777419E+04  0.7818608E-02  0.8718401E-01
          2   -1    0    0  501    0  0.00000000000E+00  0.00000000000E+00  0.54153319283E+03  0.54153319283E+03  0.00000000000E+00 0. -1.
         -1   -1    0    0    0  501 -0.00000000000E+00 -0.00000000000E+00 -0.14584595914E+04  0.14584595914E+04  0.00000000000E+00 0.  1.
         24    2    1    2    0    0  0.24617320715E+03 -0.59555414489E+03 -0.22572787470E+03  0.68742763399E+03  0.79483904947E+02 0.  0.
        254    2    1    2    0    0 -0.24617320715E+03  0.59555414489E+03 -0.69119852387E+03  0.13125651502E+04  0.91092584045E+03 0.  0.
         23    2    4    4    0    0  0.10101408592E+03  0.10820666903E+03 -0.68583503770E+03  0.70733515848E+03  0.89670500785E+02 0.  0.
         23    2    4    4    0    0 -0.34718729307E+03  0.48734747587E+03 -0.53634861761E+01  0.60522999176E+03  0.90708308568E+02 0.  0.
          2    1    3    3  502    0  0.34844459656E+02 -0.45967310442E+02 -0.25612013250E+01  0.57738113498E+02  0.00000000000E+00 0. -1.
         -1    1    3    3    0  502  0.21132874749E+03 -0.54958683445E+03 -0.22316667337E+03  0.62968952049E+03  0.00000000000E+00 0.  1.
         13    1    5    5    0    0  0.47061515699E+02  0.10914320396E+03 -0.48901592673E+03  0.50325301969E+03  0.00000000000E+00 0. -1.
        -13    1    5    5    0    0  0.53952570223E+02 -0.93653493177E+00 -0.19681911097E+03  0.20408213879E+03  0.00000000000E+00 0.  1.
          1    1    6    6  503    0 -0.30644582865E+03  0.46767580642E+03 -0.13330236192E+02  0.55929187461E+03  0.00000000000E+00 0. -1.
         -1    1    6    6    0  503 -0.40741464414E+02  0.19671669444E+02  0.79667500162E+01  0.45938117149E+02  0.00000000000E+00 0.  1.
<mgrwt>
<rscale>  0 0.17774187E+04</rscale>
<asrwt>0</asrwt>
<pdfrwt beam="1">  1        2 0.83312800E-01 0.17774187E+04</pdfrwt>
<pdfrwt beam="2">  1       -1 0.22437839E+00 0.17774187E+04</pdfrwt>
<totfact> 0.62329410E+00</totfact>
</mgrwt>
</event>
<event>
12    7  0.1546317E-007  0.1866886E+04  0.7818608E-02  0.8671517E-01
         -3   -1    0    0    0  501 -0.00000000000E+00  0.00000000000E+00  0.36125978644E+03  0.36125978644E+03  0.00000000000E+00 0.  1.
          2   -1    0    0  501    0  0.00000000000E+00 -0.00000000000E+00 -0.24118814395E+04  0.24118814395E+04  0.00000000000E+00 0. -1.
         24    2    1    2    0    0 -0.29425028820E+03  0.12023196528E+03  0.15251522010E+03  0.36063588860E+03  0.75884083985E+02 0.  0.
        254    2    1    2    0    0  0.29425028820E+03 -0.12023196528E+03 -0.22031368732E+04  0.24125053374E+04  0.93023167184E+03 0.  0.
         23    2    4    4    0    0 -0.25921656447E+02 -0.38755301327E+03 -0.17287777136E+04  0.17741910205E+04  0.90620769738E+02 0.  0.
         23    2    4    4    0    0  0.32017194465E+03  0.26732104799E+03 -0.47435915958E+03  0.63831431685E+03  0.91967048305E+02 0.  0.
          2    1    3    3  502    0 -0.11298325162E+03  0.82240797712E+02  0.84671626335E+02  0.16339537405E+03  0.00000000000E+00 0. -1.
         -1    1    3    3    0  502 -0.18126703658E+03  0.37991167565E+02  0.67843593761E+02  0.19724051455E+03  0.00000000000E+00 0.  1.
         13    1    5    5    0    0  0.62582472878E+01 -0.34268653772E+03 -0.15272415096E+04  0.15652283723E+04  0.00000000000E+00 0.  1.
        -13    1    5    5    0    0 -0.32179903734E+02 -0.44866475553E+02 -0.20153620396E+03  0.20896264819E+03  0.00000000000E+00 0. -1.
          2    1    6    6  503    0  0.21672493143E+03  0.23139357101E+03 -0.33784919505E+03  0.46330849248E+03  0.00000000000E+00 0.  1.
         -2    1    6    6    0  503  0.10344701322E+03  0.35927476983E+02 -0.13650996453E+03  0.17500582437E+03  0.00000000000E+00 0. -1.
<mgrwt>
<rscale>  0 0.18668859E+04</rscale>
<asrwt>0</asrwt>
<pdfrwt beam="1">  1        2 0.37105869E+00 0.18668859E+04</pdfrwt>
<pdfrwt beam="2">  1       -3 0.55578427E-01 0.18668859E+04</pdfrwt>
<totfact> 0.75406181E+00</totfact>
</mgrwt>
</event>
<event>
12    7  0.1546317E-007  0.1362180E+04  0.7818608E-02  0.8981659E-01
         -1   -1    0    0    0  501 -0.00000000000E+00  0.00000000000E+00  0.23487829790E+03  0.23487829790E+03  0.00000000000E+00 0.  1.
          2   -1    0    0  501    0  0.00000000000E+00 -0.00000000000E+00 -0.19749944482E+04  0.19749944482E+04  0.00000000000E+00 0. -1.
         24    2    1    2    0    0 -0.13607595782E+03 -0.52502191637E+02 -0.10518293932E+04  0.10649569858E+04  0.80716558144E+02 0.  0.
        254    2    1    2    0    0  0.13607595782E+03  0.52502191637E+02 -0.68828675710E+03  0.11449157603E+04  0.90322770761E+03 0.  0.
         23    2    4    4    0    0 -0.32156361863E+01 -0.18187820757E+03 -0.80811868648E+03  0.83330400413E+03  0.90828019700E+02 0.  0.
         23    2    4    4    0    0  0.13929159401E+03  0.23438039921E+03  0.11983192937E+03  0.31161175619E+03  0.91683562337E+02 0.  0.
          2    1    3    3  502    0 -0.95117572595E+02  0.58766864240E+01 -0.58468653002E+03  0.59240208174E+03  0.00000000000E+00 0. -1.
         -1    1    3    3    0  502 -0.40958385228E+02 -0.58378878061E+02 -0.46714286317E+03  0.47255490404E+03  0.00000000000E+00 0.  1.
         13    1    5    5    0    0  0.22436592425E+02 -0.16573235686E+03 -0.59563278046E+03  0.61866713501E+03  0.00000000000E+00 0. -1.
        -13    1    5    5    0    0 -0.25652228611E+02 -0.16145850711E+02 -0.21248590602E+03  0.21463686912E+03  0.00000000000E+00 0.  1.
          3    1    6    6  503    0  0.97071620217E+02  0.18658580263E+03  0.12966933058E+03  0.24708560559E+03  0.00000000000E+00 0. -1.
         -3    1    6    6    0  503  0.42219973791E+02  0.47794596579E+02 -0.98374012065E+01  0.64526150602E+02  0.00000000000E+00 0.  1.
<mgrwt>
<rscale>  0 0.13621796E+04</rscale>
<asrwt>0</asrwt>
<pdfrwt beam="1">  1        2 0.30384530E+00 0.13621796E+04</pdfrwt>
<pdfrwt beam="2">  1       -1 0.36135122E-01 0.13621796E+04</pdfrwt>
<totfact> 0.56226104E+01</totfact>
</mgrwt>
</event>
<event>
12    7  0.1546317E-007  0.1183918E+04  0.7818608E-02  0.9127050E-01
          2   -1    0    0  501    0  0.00000000000E+00  0.00000000000E+00  0.55951437038E+03  0.55951437038E+03  0.00000000000E+00 0. -1.
         -1   -1    0    0    0  501 -0.00000000000E+00 -0.00000000000E+00 -0.62628530260E+03  0.62628530260E+03  0.00000000000E+00 0.  1.
         24    2    1    2    0    0 -0.15135247192E+03  0.18875031101E+03 -0.28947233611E+02  0.25493224283E+03  0.74955022756E+02 0.  0.
        254    2    1    2    0    0  0.15135247192E+03 -0.18875031101E+03 -0.37823698612E+02  0.93086743015E+03  0.89808089261E+03 0.  0.
         23    2    4    4    0    0  0.24876425228E+03  0.10023013833E+03 -0.37321336404E+03  0.46873516617E+03  0.92166735135E+02 0.  0.
         23    2    4    4    0    0 -0.97411780359E+02 -0.28898044934E+03  0.33538966543E+03  0.46213226398E+03  0.89895754480E+02 0.  0.
          4    1    3    3  502    0 -0.14817739288E+03  0.19556542957E+03 -0.25571252897E+02  0.24669062807E+03  0.00000000000E+00 0. -1.
         -3    1    3    3    0  502 -0.31750790445E+01 -0.68151185642E+01 -0.33759807138E+01  0.82416147545E+01  0.00000000000E+00 0.  1.
         13    1    5    5    0    0  0.34997106816E+02 -0.10777891409E+02 -0.21553625242E+02  0.42491401363E+02  0.00000000000E+00 0.  1.
        -13    1    5    5    0    0  0.21376714547E+03  0.11100802974E+03 -0.35165973880E+03  0.42624376481E+03  0.00000000000E+00 0. -1.
          2    1    6    6  503    0  0.15325846905E+02 -0.34973423229E+02  0.58316503684E+02  0.69705355014E+02  0.00000000000E+00 0.  1.
         -2    1    6    6    0  503 -0.11273762726E+03 -0.25400702612E+03  0.27707316175E+03  0.39242690896E+03  0.00000000000E+00 0. -1.
<mgrwt>
<rscale>  0 0.11839183E+04</rscale>
<asrwt>0</asrwt>
<pdfrwt beam="1">  1        2 0.86079134E-01 0.11839183E+04</pdfrwt>
<pdfrwt beam="2">  1       -1 0.96351585E-01 0.11839183E+04</pdfrwt>
<totfact> 0.63207056E+01</totfact>
</mgrwt>
</event>
<event>
12    7  0.1546317E-007  0.2342935E+04  0.7818608E-02  0.8461182E-01
          2   -1    0    0  501    0  0.00000000000E+00  0.00000000000E+00  0.22133592228E+04  0.22133592228E+04  0.00000000000E+00 0. -1.
         -1   -1    0    0    0  501 -0.00000000000E+00 -0.00000000000E+00 -0.62002434043E+03  0.62002434043E+03  0.00000000000E+00 0.  1.
         24    2    1    2    0    0  0.14256301963E+02  0.45325294390E+03 -0.39562818824E+03  0.60679284597E+03  0.77681537647E+02 0.  0.
        254    2    1    2    0    0 -0.14256301963E+02 -0.45325294390E+03  0.19889630706E+04  0.22265907172E+04  0.89223912303E+03 0.  0.
         23    2    4    4    0    0 -0.31011838097E+03  0.11063953191E+03  0.88299844005E+03  0.94706680722E+03  0.93993488918E+02 0.  0.
         23    2    4    4    0    0  0.29586207901E+03 -0.56389247581E+03  0.11059646305E+04  0.12795239100E+04  0.92274472453E+02 0.  0.
          4    1    3    3  502    0  0.19274490710E+01  0.45004349266E+02 -0.12405250726E+02  0.46722550854E+02  0.00000000000E+00 0. -1.
         -1    1    3    3    0  502  0.12328852892E+02  0.40824859463E+03 -0.38322293751E+03  0.56007029511E+03  0.00000000000E+00 0.  1.
         13    1    5    5    0    0 -0.15764983611E+03  0.10556061410E+03  0.47613303769E+03  0.51254188478E+03  0.00000000000E+00 0. -1.
        -13    1    5    5    0    0 -0.15246854486E+03  0.50789178083E+01  0.40686540236E+03  0.43452492244E+03  0.00000000000E+00 0.  1.
          3    1    6    6  503    0  0.21466565972E+03 -0.46749645970E+03  0.93429069799E+03  0.10665521055E+04  0.00000000000E+00 0. -1.
         -3    1    6    6    0  503  0.81196419291E+02 -0.96396016110E+02  0.17167393251E+03  0.21297180455E+03  0.00000000000E+00 0.  1.
<mgrwt>
<rscale>  0 0.23429354E+04</rscale>
<asrwt>0</asrwt>
<pdfrwt beam="1">  1        2 0.34051680E+00 0.23429354E+04</pdfrwt>
<pdfrwt beam="2">  1       -1 0.95388361E-01 0.23429354E+04</pdfrwt>
<totfact> 0.55344392E+00</totfact>
</mgrwt>
</event>
<event>
12    7  0.1546317E-007  0.1853390E+04  0.7818608E-02  0.8678411E-01
         -1   -1    0    0    0  501 -0.00000000000E+00  0.00000000000E+00  0.97101547175E+03  0.97101547175E+03  0.00000000000E+00 0.  1.
          2   -1    0    0  501    0  0.00000000000E+00 -0.00000000000E+00 -0.88439739094E+03  0.88439739094E+03  0.00000000000E+00 0. -1.
         24    2    1    2    0    0  0.13833234099E+03 -0.66207933792E+03  0.24245520293E+03  0.72300099923E+03  0.80380552305E+02 0.  0.
        254    2    1    2    0    0 -0.13833234099E+03  0.66207933792E+03 -0.15583712213E+03  0.11324118635E+04  0.89475501318E+03 0.  0.
         23    2    4    4    0    0 -0.66506345218E+02  0.49240550280E+03  0.33141999013E+03  0.60381331749E+03  0.88685057271E+02 0.  0.
         23    2    4    4    0    0 -0.71825995767E+02  0.16967383513E+03 -0.48725711226E+03  0.52859854597E+03  0.89714800129E+02 0.  0.
          2    1    3    3  502    0  0.45187461009E+01 -0.10096551033E+03  0.62073444636E+02  0.11860676992E+03  0.00000000000E+00 0. -1.
         -1    1    3    3    0  502  0.13381359488E+03 -0.56111382759E+03  0.18038175830E+03  0.60439422930E+03  0.00000000000E+00 0.  1.
         13    1    5    5    0    0 -0.97293772317E+01  0.24234354066E+03  0.11572498195E+03  0.26873281141E+03  0.00000000000E+00 0.  1.
        -13    1    5    5    0    0 -0.56776967986E+02  0.25006196213E+03  0.21569500818E+03  0.33508050608E+03  0.00000000000E+00 0. -1.
          4    1    6    6  503    0  0.53304154727E+01  0.94176881070E+02 -0.18533066199E+03  0.20795468865E+03  0.00000000000E+00 0. -1.
         -4    1    6    6    0  503 -0.77156411240E+02  0.75496954055E+02 -0.30192645027E+03  0.32064385732E+03  0.00000000000E+00 0.  1.
<mgrwt>
<rscale>  0 0.18533899E+04</rscale>
<asrwt>0</asrwt>
<pdfrwt beam="1">  1        2 0.13606114E+00 0.18533899E+04</pdfrwt>
<pdfrwt beam="2">  1       -1 0.14938700E+00 0.18533899E+04</pdfrwt>
<totfact> 0.11372052E+01</totfact>
</mgrwt>
</event>
<event>
12    7  0.1546317E-007  0.3845774E+04  0.7818608E-02  0.8036403E-01
         -1   -1    0    0    0  501 -0.00000000000E+00  0.00000000000E+00  0.18638658322E+04  0.18638658322E+04  0.00000000000E+00 0.  1.
          2   -1    0    0  501    0  0.00000000000E+00 -0.00000000000E+00 -0.19837771008E+04  0.19837771008E+04  0.00000000000E+00 0. -1.
         24    2    1    2    0    0  0.46057859440E+03 -0.17533460035E+04  0.55368877623E+02  0.18154998956E+04  0.81359134838E+02 0.  0.
        254    2    1    2    0    0 -0.46057859440E+03  0.17533460035E+04 -0.17528014623E+03  0.20321430373E+04  0.90140298699E+03 0.  0.
         23    2    4    4    0    0  0.22227552787E+03  0.49472746584E+03 -0.22879646241E+03  0.59561037297E+03  0.90786669870E+02 0.  0.
         23    2    4    4    0    0 -0.68285412227E+03  0.12586185376E+04  0.53516316183E+02  0.14365326644E+04  0.10174342286E+03 0.  0.
          4    1    3    3  502    0  0.40419491710E+02 -0.20021987186E+03  0.29176485356E+02  0.20633225559E+03  0.00000000000E+00 0. -1.
         -3    1    3    3    0  502  0.42015910270E+03 -0.15531261316E+04  0.26192392267E+02  0.16091676400E+04  0.00000000000E+00 0.  1.
         13    1    5    5    0    0  0.18890147244E+03  0.39966549130E+03 -0.22189311746E+03  0.49462392462E+03  0.00000000000E+00 0. -1.
        -13    1    5    5    0    0  0.33374055430E+02  0.95061974537E+02 -0.69033449565E+01  0.10098644835E+03  0.00000000000E+00 0.  1.
          3    1    6    6  503    0 -0.37360421705E+03  0.78344739084E+03  0.53083688981E+02  0.86959059519E+03  0.00000000000E+00 0. -1.
         -3    1    6    6    0  503 -0.30924990522E+03  0.47517114680E+03  0.43262720237E+00  0.56694206918E+03  0.00000000000E+00 0.  1.
<mgrwt>
<rscale>  0 0.38457740E+04</rscale>
<asrwt>0</asrwt>
<pdfrwt beam="1">  1        2 0.30519648E+00 0.38457740E+04</pdfrwt>
<pdfrwt beam="2">  1       -1 0.28674859E+00 0.38457740E+04</pdfrwt>
<totfact> 0.24949526E-01</totfact>
</mgrwt>
</event>
<event>
12    7  0.1546317E-007  0.1503385E+04  0.7818608E-02  0.8882205E-01
          2   -1    0    0  501    0  0.00000000000E+00  0.00000000000E+00  0.10993623261E+04  0.10993623261E+04  0.00000000000E+00 0. -1.
         -1   -1    0    0    0  501 -0.00000000000E+00 -0.00000000000E+00 -0.51397206116E+03  0.51397206116E+03  0.00000000000E+00 0.  1.
         24    2    1    2    0    0 -0.22638195540E+03 -0.24665577383E+03  0.57617686210E+03  0.67054371661E+03  0.74573714974E+02 0.  0.
        254    2    1    2    0    0  0.22638195540E+03  0.24665577383E+03  0.92134028494E+01  0.94279067066E+03  0.88129535423E+03 0.  0.
         23    2    4    4    0    0 -0.34576883862E+02 -0.26719712469E+03  0.17862603026E+03  0.33536540457E+03  0.89290713695E+02 0.  0.
         23    2    4    4    0    0  0.26095883926E+03  0.51385289852E+03 -0.16941262741E+03  0.60742526609E+03  0.90113808333E+02 0.  0.
          2    1    3    3  502    0 -0.93001699658E+02 -0.14367976906E+03  0.24360692365E+03  0.29772054922E+03  0.00000000000E+00 0. -1.
         -1    1    3    3    0  502 -0.13338025574E+03 -0.10297600477E+03  0.33256993845E+03  0.37282316739E+03  0.00000000000E+00 0.  1.
         13    1    5    5    0    0  0.19980185407E+02 -0.16848582185E+03  0.12333113487E+03  0.20975521162E+03  0.00000000000E+00 0.  1.
        -13    1    5    5    0    0 -0.54557069270E+02 -0.98711302837E+02  0.55294895397E+02  0.12561019295E+03  0.00000000000E+00 0. -1.
          2    1    6    6  503    0  0.18793685935E+03  0.27181454279E+03 -0.92074471082E+02  0.34304681459E+03  0.00000000000E+00 0. -1.
         -2    1    6    6    0  503  0.73021979915E+02  0.24203835573E+03 -0.77338156332E+02  0.26437845150E+03  0.00000000000E+00 0.  1.
<mgrwt>
<rscale>  0 0.15033849E+04</rscale>
<asrwt>0</asrwt>
<pdfrwt beam="1">  1        2 0.16913267E+00 0.15033849E+04</pdfrwt>
<pdfrwt beam="2">  1       -1 0.79072625E-01 0.15033849E+04</pdfrwt>
<totfact> 0.38424152E+01</totfact>
</mgrwt>
</event>
<event>
12    7  0.1546317E-007  0.1247530E+04  0.7818608E-02  0.9072241E-01
          2   -1    0    0  501    0  0.00000000000E+00  0.00000000000E+00  0.58739188506E+03  0.58739188506E+03  0.00000000000E+00 0. -1.
         -1   -1    0    0    0  501 -0.00000000000E+00 -0.00000000000E+00 -0.66239070172E+03  0.66239070172E+03  0.00000000000E+00 0.  1.
         24    2    1    2    0    0 -0.19034598080E+03  0.23876123690E+03 -0.11551516180E+03  0.33560657892E+03  0.77778548168E+02 0.  0.
        254    2    1    2    0    0  0.19034598080E+03 -0.23876123690E+03  0.40516345140E+02  0.91417600787E+03  0.86071927972E+03 0.  0.
         23    2    4    4    0    0  0.32041756754E+03  0.20276611741E+03 -0.13543326762E+03  0.41290862429E+03  0.91486862869E+02 0.  0.
         23    2    4    4    0    0 -0.13007158674E+03 -0.44152735431E+03  0.17594961276E+03  0.50126738358E+03  0.91900496884E+02 0.  0.
          2    1    3    3  502    0 -0.49455813919E+02  0.56202012108E+02  0.57105606686E+01  0.75080984267E+02  0.00000000000E+00 0. -1.
         -1    1    3    3    0  502 -0.14089016688E+03  0.18255922479E+03 -0.12122572247E+03  0.26052559465E+03  0.00000000000E+00 0.  1.
         13    1    5    5    0    0  0.21496223630E+02  0.37840384753E+02 -0.38263347047E+02  0.57948822903E+02  0.00000000000E+00 0. -1.
        -13    1    5    5    0    0  0.29892134391E+03  0.16492573266E+03 -0.97169920578E+02  0.35495980139E+03  0.00000000000E+00 0.  1.
          3    1    6    6  503    0  0.32754739123E+01 -0.94254499058E+01  0.20995723299E+02  0.23246252002E+02  0.00000000000E+00 0. -1.
         -3    1    6    6    0  503 -0.13334706065E+03 -0.43210190440E+03  0.15495388947E+03  0.47802113158E+03  0.00000000000E+00 0.  1.
<mgrwt>
<rscale>  0 0.12475302E+04</rscale>
<asrwt>0</asrwt>
<pdfrwt beam="1">  1        2 0.90367983E-01 0.12475302E+04</pdfrwt>
<pdfrwt beam="2">  1       -1 0.10190626E+00 0.12475302E+04</pdfrwt>
<totfact> 0.52234772E+01</totfact>
</mgrwt>
</event>
<event>
12    7  0.1546317E-007  0.1334726E+04  0.7818608E-02  0.9002472E-01
          2   -1    0    0  501    0  0.00000000000E+00  0.00000000000E+00  0.24532626656E+04  0.24532626656E+04  0.00000000000E+00 0. -1.
         -1   -1    0    0    0  501 -0.00000000000E+00 -0.00000000000E+00 -0.18154319299E+03  0.18154319299E+03  0.00000000000E+00 0.  1.
         24    2    1    2    0    0 -0.24894755680E+02 -0.15092727302E+02 -0.80630676832E+02  0.11947956810E+03  0.83225728410E+02 0.  0.
        254    2    1    2    0    0  0.24894755680E+02  0.15092727302E+02  0.23523501494E+04  0.25153262905E+04  0.89020648324E+03 0.  0.
         23    2    4    4    0    0  0.25987435877E+03 -0.10178615992E+03  0.22551109900E+03  0.37035660736E+03  0.91725984052E+02 0.  0.
         23    2    4    4    0    0 -0.23497960309E+03  0.11687888722E+03  0.21268390504E+04  0.21449696831E+04  0.92598633559E+02 0.  0.
          2    1    3    3  502    0 -0.37328511251E+01  0.37386122257E+01  0.17010609861E+02  0.17812137624E+02  0.00000000000E+00 0. -1.
         -1    1    3    3    0  502 -0.21161904555E+02 -0.18831339528E+02 -0.97641286693E+02  0.10166743048E+03  0.00000000000E+00 0.  1.
         13    1    5    5    0    0  0.10732168907E+03 -0.36777222439E+02  0.15019889230E+03  0.18822915896E+03  0.00000000000E+00 0. -1.
        -13    1    5    5    0    0  0.15255266969E+03 -0.65008937481E+02  0.75312206702E+02  0.18212744840E+03  0.00000000000E+00 0.  1.
          4    1    6    6  503    0 -0.61917138293E+02  0.68040333173E+02  0.51727651854E+03  0.52539339127E+03  0.00000000000E+00 0. -1.
         -4    1    6    6    0  503 -0.17306246479E+03  0.48838554049E+02  0.16095625319E+04  0.16195762918E+04  0.00000000000E+00 0.  1.
<mgrwt>
<rscale>  0 0.13347256E+04</rscale>
<asrwt>0</asrwt>
<pdfrwt beam="1">  1        2 0.37742500E+00 0.13347256E+04</pdfrwt>
<pdfrwt beam="2">  1       -1 0.27929724E-01 0.13347256E+04</pdfrwt>
<totfact> 0.47899692E+01</totfact>
</mgrwt>
</event>
<event>
12    7  0.1546317E-007  0.1379614E+04  0.7818608E-02  0.8968709E-01
          2   -1    0    0  501    0  0.00000000000E+00  0.00000000000E+00  0.24539624306E+04  0.24539624306E+04  0.00000000000E+00 0. -1.
         -1   -1    0    0    0  501 -0.00000000000E+00 -0.00000000000E+00 -0.19390416498E+03  0.19390416498E+03  0.00000000000E+00 0.  1.
         24    2    1    2    0    0 -0.23398316242E+03 -0.43647443887E+02  0.58260340974E+02  0.25692093566E+03  0.77206736732E+02 0.  0.
        254    2    1    2    0    0  0.23398316242E+03  0.43647443887E+02  0.22017979247E+04  0.23909456599E+04  0.90114029323E+03 0.  0.
         23    2    4    4    0    0  0.15962933847E+03  0.18184409583E+03  0.93596019871E+02  0.27487679355E+03  0.90819798516E+02 0.  0.
         23    2    4    4    0    0  0.74353823949E+02 -0.13819665195E+03  0.21082019048E+04  0.21160688664E+04  0.92765134706E+02 0.  0.
          4    1    3    3  502    0 -0.96779265497E+01 -0.78550196007E+01  0.24223042106E+02  0.27241867853E+02  0.00000000000E+00 0. -1.
         -3    1    3    3    0  502 -0.22430523587E+03 -0.35792424286E+02  0.34037298868E+02  0.22967906781E+03  0.00000000000E+00 0.  1.
         13    1    5    5    0    0  0.85462242116E+02  0.36227237318E+02  0.51381680136E+02  0.10609563895E+03  0.00000000000E+00 0. -1.
        -13    1    5    5    0    0  0.74167096359E+02  0.14561685852E+03  0.42214339734E+02  0.16878115459E+03  0.00000000000E+00 0.  1.
          2    1    6    6  503    0 -0.16362872195E+02 -0.18459944145E+02  0.14116145913E+03  0.14330063038E+03  0.00000000000E+00 0. -1.
         -2    1    6    6    0  503  0.90716696143E+02 -0.11973670780E+03  0.19670404457E+04  0.19727682360E+04  0.00000000000E+00 0.  1.
<mgrwt>
<rscale>  0 0.13796138E+04</rscale>
<asrwt>0</asrwt>
<pdfrwt beam="1">  1        2 0.37753266E+00 0.13796138E+04</pdfrwt>
<pdfrwt beam="2">  1       -1 0.29831412E-01 0.13796138E+04</pdfrwt>
<totfact> 0.42492420E+01</totfact>
</mgrwt>
</event>
<event>
12    7  0.1546317E-007  0.1951551E+04  0.7818608E-02  0.8629613E-01
         -1   -1    0    0    0  501 -0.00000000000E+00  0.00000000000E+00  0.11749300809E+04  0.11749300809E+04  0.00000000000E+00 0.  1.
          2   -1    0    0  501    0  0.00000000000E+00 -0.00000000000E+00 -0.81037858213E+03  0.81037858213E+03  0.00000000000E+00 0. -1.
         24    2    1    2    0    0  0.74915411900E+03  0.84378328567E+02 -0.66611251930E+01  0.75800969986E+03  0.78630389425E+02 0.  0.
        254    2    1    2    0    0 -0.74915411900E+03 -0.84378328567E+02  0.37121262398E+03  0.12272989632E+04  0.89448998682E+03 0.  0.
         23    2    4    4    0    0 -0.49943987741E+03 -0.46862842378E+03  0.31079892795E+03  0.75757614680E+03  0.90955229953E+02 0.  0.
         23    2    4    4    0    0 -0.24971424159E+03  0.38425009521E+03  0.60413696029E+02  0.46972281641E+03  0.83572552104E+02 0.  0.
          2    1    3    3  502    0  0.35609308598E+03  0.68018405000E+02 -0.31014252772E+02  0.36385529153E+03  0.00000000000E+00 0. -1.
         -1    1    3    3    0  502  0.39306103302E+03  0.16359923566E+02  0.24353127579E+02  0.39415440832E+03  0.00000000000E+00 0.  1.
         13    1    5    5    0    0 -0.26700822487E+03 -0.28497896676E+03  0.13547352371E+03  0.41335152022E+03  0.00000000000E+00 0. -1.
        -13    1    5    5    0    0 -0.23243165255E+03 -0.18364945701E+03  0.17532540424E+03  0.34422462657E+03  0.00000000000E+00 0.  1.
          2    1    6    6  503    0 -0.19785982333E+03  0.26629099370E+03  0.74765598339E+02  0.34007248891E+03  0.00000000000E+00 0. -1.
         -2    1    6    6    0  503 -0.51854418252E+02  0.11795910151E+03 -0.14351902309E+02  0.12965032750E+03  0.00000000000E+00 0.  1.
<mgrwt>
<rscale>  0 0.19515514E+04</rscale>
<asrwt>0</asrwt>
<pdfrwt beam="1">  1        2 0.12467363E+00 0.19515514E+04</pdfrwt>
<pdfrwt beam="2">  1       -1 0.18075847E+00 0.19515514E+04</pdfrwt>
<totfact> 0.74065209E+00</totfact>
</mgrwt>
</event>
<event>
12    7  0.1546317E-007  0.1630901E+04  0.7818608E-02  0.8801786E-01
         -1   -1    0    0    0  501 -0.00000000000E+00  0.00000000000E+00  0.20214921415E+03  0.20214921415E+03  0.00000000000E+00 0.  1.
          2   -1    0    0  501    0  0.00000000000E+00 -0.00000000000E+00 -0.32894477024E+04  0.32894477024E+04  0.00000000000E+00 0. -1.
         24    2    1    2    0    0 -0.69305878574E+02  0.10657978900E+03 -0.21727830349E+04  0.21779757445E+04  0.80185227297E+02 0.  0.
        254    2    1    2    0    0  0.69305878574E+02 -0.10657978900E+03 -0.91451545332E+03  0.13136211720E+04  0.93439794145E+03 0.  0.
         23    2    4    4    0    0 -0.29625206583E+03 -0.37063940539E+03 -0.45229588752E+03  0.66154025075E+03  0.89022908032E+02 0.  0.
         23    2    4    4    0    0  0.36555794441E+03  0.26405961639E+03 -0.46221956580E+03  0.65208092128E+03  0.90567704804E+02 0.  0.
          4    1    3    3  502    0 -0.23687619788E+02  0.85551185697E+02 -0.17444864602E+04  0.17467435755E+04  0.00000000000E+00 0. -1.
         -3    1    3    3    0  502 -0.45618258786E+02  0.21028603304E+02 -0.42829657475E+03  0.43123216906E+03  0.00000000000E+00 0.  1.
         13    1    5    5    0    0 -0.72375353593E+02 -0.14346022819E+03 -0.18801873275E+03  0.24732584326E+03  0.00000000000E+00 0. -1.
        -13    1    5    5    0    0 -0.22387671224E+03 -0.22717917719E+03 -0.26427715478E+03  0.41421440749E+03  0.00000000000E+00 0.  1.
          1    1    6    6  503    0  0.39112830216E+02  0.43966845855E+02 -0.10550512093E+03  0.12080657087E+03  0.00000000000E+00 0.  1.
         -1    1    6    6    0  503  0.32644511419E+03  0.22009277053E+03 -0.35671444487E+03  0.53127435041E+03  0.00000000000E+00 0. -1.
<mgrwt>
<rscale>  0 0.16309007E+04</rscale>
<asrwt>0</asrwt>
<pdfrwt beam="1">  1        2 0.50606885E+00 0.16309007E+04</pdfrwt>
<pdfrwt beam="2">  1       -1 0.31099881E-01 0.16309007E+04</pdfrwt>
<totfact> 0.11911187E+01</totfact>
</mgrwt>
</event>
<event>
12    7  0.1546317E-007  0.1154312E+04  0.7818608E-02  0.9153815E-01
          2   -1    0    0  501    0  0.00000000000E+00  0.00000000000E+00  0.24514459621E+04  0.24514459621E+04  0.00000000000E+00 0. -1.
         -1   -1    0    0    0  501 -0.00000000000E+00 -0.00000000000E+00 -0.13588271240E+03  0.13588271240E+03  0.00000000000E+00 0.  1.
         24    2    1    2    0    0  0.18327408682E+03  0.62424893937E+01  0.20500950408E+03  0.28632960290E+03  0.79544862560E+02 0.  0.
        254    2    1    2    0    0 -0.18327408682E+03 -0.62424893937E+01  0.21105537456E+04  0.23009990715E+04  0.89807085173E+03 0.  0.
         23    2    4    4    0    0 -0.51559894870E+03  0.12854131505E+03  0.13863367164E+04  0.14875244684E+04  0.91839028743E+02 0.  0.
         23    2    4    4    0    0  0.33232486188E+03 -0.13478380445E+03  0.72421702918E+03  0.81347460317E+03  0.92973850599E+02 0.  0.
          2    1    3    3  502    0  0.79369460280E+01  0.14576544884E+02  0.48114741033E+02  0.50896945662E+02  0.00000000000E+00 0. -1.
         -1    1    3    3    0  502  0.17533714080E+03 -0.83340554902E+01  0.15689476305E+03  0.23543265724E+03  0.00000000000E+00 0.  1.
         13    1    5    5    0    0 -0.37304429465E+03  0.12602553808E+03  0.10827388977E+04  0.11521145788E+04  0.00000000000E+00 0. -1.
        -13    1    5    5    0    0 -0.14255465405E+03  0.25157769683E+01  0.30359781866E+03  0.33540988957E+03  0.00000000000E+00 0.  1.
          2    1    6    6  503    0 -0.26379447570E+01 -0.53382099365E+01  0.42914945822E+02  0.43326063896E+02  0.00000000000E+00 0.  1.
         -2    1    6    6    0  503  0.33496280663E+03 -0.12944559451E+03  0.68130208335E+03  0.77014853927E+03  0.00000000000E+00 0. -1.
<mgrwt>
<rscale>  0 0.11543121E+04</rscale>
<asrwt>0</asrwt>
<pdfrwt beam="1">  1        2 0.37714550E+00 0.11543121E+04</pdfrwt>
<pdfrwt beam="2">  1       -1 0.20905035E-01 0.11543121E+04</pdfrwt>
<totfact> 0.80021772E+01</totfact>
</mgrwt>
</event>
<event>
12    7  0.1546317E-007  0.1903006E+04  0.7818608E-02  0.8653362E-01
          2   -1    0    0  501    0  0.00000000000E+00  0.00000000000E+00  0.10160976907E+04  0.10160976907E+04  0.00000000000E+00 0. -1.
         -1   -1    0    0    0  501 -0.00000000000E+00 -0.00000000000E+00 -0.89101435873E+03  0.89101435873E+03  0.00000000000E+00 0.  1.
         24    2    1    2    0    0 -0.36728644725E+03 -0.35127793031E+03 -0.48601775200E+03  0.70767857314E+03  0.79373729640E+02 0.  0.
        254    2    1    2    0    0  0.36728644725E+03  0.35127793031E+03  0.61110108401E+03  0.11994334763E+04  0.89827646668E+03 0.  0.
         23    2    4    4    0    0  0.26867045784E+03  0.32487921182E+03 -0.12626726708E+03  0.44953707442E+03  0.91705187168E+02 0.  0.
         23    2    4    4    0    0  0.98615989417E+02  0.26398718493E+02  0.73736835109E+03  0.74989640191E+03  0.90611934623E+02 0.  0.
          2    1    3    3  502    0 -0.11251843512E+02 -0.26226529804E+02 -0.10176734180E+02  0.30298527465E+02  0.00000000000E+00 0. -1.
         -1    1    3    3    0  502 -0.35603460374E+03 -0.32505140051E+03 -0.47584101782E+03  0.67738004567E+03  0.00000000000E+00 0.  1.
         13    1    5    5    0    0  0.59107665216E+02  0.24620383207E+02 -0.68404929478E+01  0.64394655836E+02  0.00000000000E+00 0. -1.
        -13    1    5    5    0    0  0.20956279262E+03  0.30025882861E+03 -0.11942677413E+03  0.38514241858E+03  0.00000000000E+00 0.  1.
          4    1    6    6  503    0  0.23772102645E+02 -0.42062634043E+01  0.46876176307E+03  0.46938299504E+03  0.00000000000E+00 0. -1.
         -4    1    6    6    0  503  0.74843886771E+02  0.30604981898E+02  0.26860658802E+03  0.28051340686E+03  0.00000000000E+00 0.  1.
<mgrwt>
<rscale>  0 0.19030057E+04</rscale>
<asrwt>0</asrwt>
<pdfrwt beam="1">  1        2 0.15632272E+00 0.19030057E+04</pdfrwt>
<pdfrwt beam="2">  1       -1 0.13707913E+00 0.19030057E+04</pdfrwt>
<totfact> 0.11635696E+01</totfact>
</mgrwt>
</event>
<event>
12    7  0.1546317E-007  0.1616880E+04  0.7818608E-02  0.8810245E-01
          2   -1    0    0  501    0  0.00000000000E+00  0.00000000000E+00  0.13186115916E+04  0.13186115916E+04  0.00000000000E+00 0. -1.
         -1   -1    0    0    0  501 -0.00000000000E+00 -0.00000000000E+00 -0.49565396394E+03  0.49565396394E+03  0.00000000000E+00 0.  1.
         24    2    1    2    0    0 -0.28240757375E+03  0.48781981018E+03  0.24341093480E+03  0.61804525917E+03  0.70773259715E+02 0.  0.
        254    2    1    2    0    0  0.28240757375E+03 -0.48781981018E+03  0.57954669290E+03  0.11962202964E+04  0.88167251482E+03 0.  0.
         23    2    4    4    0    0  0.42116809841E+03 -0.27276202926E+03 -0.48084388164E+02  0.51223336377E+03  0.91045147358E+02 0.  0.
         23    2    4    4    0    0 -0.13876052466E+03 -0.21505778092E+03  0.62763108106E+03  0.68398693264E+03  0.91722504165E+02 0.  0.
          4    1    3    3  502    0 -0.18416074424E+03  0.37961503504E+03  0.17890405152E+03  0.45828966189E+03  0.00000000000E+00 0. -1.
         -1    1    3    3    0  502 -0.98246829510E+02  0.10820477514E+03  0.64506883282E+02  0.15975559728E+03  0.00000000000E+00 0.  1.
         13    1    5    5    0    0  0.38667883041E+02  0.13182966479E+01  0.35317506714E+01  0.38851207803E+02  0.00000000000E+00 0. -1.
        -13    1    5    5    0    0  0.38250021537E+03 -0.27408032591E+03 -0.51616138836E+02  0.47338215597E+03  0.00000000000E+00 0.  1.
          3    1    6    6  503    0 -0.97336769034E+02 -0.19843475238E+03  0.45740053886E+03  0.50800201821E+03  0.00000000000E+00 0. -1.
         -3    1    6    6    0  503 -0.41423755626E+02 -0.16623028541E+02  0.17023054221E+03  0.17598491444E+03  0.00000000000E+00 0.  1.
<mgrwt>
<rscale>  0 0.16168798E+04</rscale>
<asrwt>0</asrwt>
<pdfrwt beam="1">  1        2 0.20286332E+00 0.16168798E+04</pdfrwt>
<pdfrwt beam="2">  1       -1 0.76254457E-01 0.16168798E+04</pdfrwt>
<totfact> 0.30395653E+01</totfact>
</mgrwt>
</event>
<event>
12    7  0.1546317E-007  0.1483634E+04  0.7818608E-02  0.8895409E-01
          2   -1    0    0  501    0  0.00000000000E+00  0.00000000000E+00  0.21372344250E+04  0.21372344250E+04  0.00000000000E+00 0. -1.
         -1   -1    0    0    0  501 -0.00000000000E+00 -0.00000000000E+00 -0.25747888551E+03  0.25747888551E+03  0.00000000000E+00 0.  1.
         24    2    1    2    0    0  0.46320420160E+03 -0.44879054806E+02  0.67178197397E+03  0.82117759972E+03  0.80432380207E+02 0.  0.
        254    2    1    2    0    0 -0.46320420160E+03  0.44879054806E+02  0.12079735655E+04  0.15735357108E+04  0.89456259489E+03 0.  0.
         23    2    4    4    0    0 -0.43562456218E+03  0.23525351917E+03  0.12547548642E+04  0.13520071024E+04  0.91654014174E+02 0.  0.
         23    2    4    4    0    0 -0.27579639419E+02 -0.19037446436E+03 -0.46781298700E+02  0.22152860834E+03  0.99415095511E+02 0.  0.
          2    1    3    3  502    0  0.12687247804E+03 -0.21343749992E+01  0.12710408475E+03  0.17960130735E+03  0.00000000000E+00 0. -1.
         -3    1    3    3    0  502  0.33633172356E+03 -0.42744679807E+02  0.54467788923E+03  0.64157629237E+03  0.00000000000E+00 0.  1.
         13    1    5    5    0    0 -0.14696182978E+03  0.37572785811E+02  0.43603986014E+03  0.46167115274E+03  0.00000000000E+00 0.  1.
        -13    1    5    5    0    0 -0.28866273240E+03  0.19768073336E+03  0.81871500407E+03  0.89033594969E+03  0.00000000000E+00 0. -1.
          1    1    6    6  503    0 -0.62598579453E+00 -0.17573162824E+03 -0.13474051887E+02  0.17624853785E+03  0.00000000000E+00 0. -1.
         -1    1    6    6    0  503 -0.26953653625E+02 -0.14642836125E+02 -0.33307246813E+02  0.45280070492E+02  0.00000000000E+00 0.  1.
<mgrwt>
<rscale>  0 0.14836344E+04</rscale>
<asrwt>0</asrwt>
<pdfrwt beam="1">  1        2 0.32880528E+00 0.14836344E+04</pdfrwt>
<pdfrwt beam="2">  1       -1 0.39612138E-01 0.14836344E+04</pdfrwt>
<totfact> 0.38297526E+01</totfact>
</mgrwt>
</event>
<event>
12    7  0.1546317E-007  0.1732449E+04  0.7818608E-02  0.8743071E-01
         -1   -1    0    0    0  501 -0.00000000000E+00  0.00000000000E+00  0.33246791709E+03  0.33246791709E+03  0.00000000000E+00 0.  1.
          2   -1    0    0  501    0  0.00000000000E+00 -0.00000000000E+00 -0.22568952942E+04  0.22568952942E+04  0.00000000000E+00 0. -1.
         24    2    1    2    0    0  0.84835350436E+02 -0.44140309519E+03 -0.13513915459E+04  0.14263876929E+04  0.79303285786E+02 0.  0.
        254    2    1    2    0    0 -0.84835350436E+02  0.44140309519E+03 -0.57303583126E+03  0.11629755184E+04  0.90670186024E+03 0.  0.
         23    2    4    4    0    0 -0.76280482725E+02 -0.54551494324E+02  0.20031348848E+03  0.23951974999E+03  0.91921920084E+02 0.  0.
         23    2    4    4    0    0 -0.85548677110E+01  0.49595458951E+03 -0.77334931974E+03  0.92345576841E+03  0.93044318672E+02 0.  0.
          2    1    3    3  502    0  0.44717081120E+02 -0.13866987162E+03 -0.54399804580E+03  0.56317210911E+03  0.00000000000E+00 0. -1.
         -1    1    3    3    0  502  0.40118269317E+02 -0.30273322357E+03 -0.80739350009E+03  0.86321558383E+03  0.00000000000E+00 0.  1.
         13    1    5    5    0    0  0.12486713641E+02 -0.27713554960E+02  0.92204890170E+02  0.97086049035E+02  0.00000000000E+00 0.  1.
        -13    1    5    5    0    0 -0.88767196366E+02 -0.26837939364E+02  0.10810859831E+03  0.14243370096E+03  0.00000000000E+00 0. -1.
          2    1    6    6  503    0  0.71557322629E+01  0.31140616472E+03 -0.56105256434E+03  0.64172033152E+03  0.00000000000E+00 0. -1.
         -2    1    6    6    0  503 -0.15710599974E+02  0.18454842479E+03 -0.21229675540E+03  0.28173543689E+03  0.00000000000E+00 0.  1.
<mgrwt>
<rscale>  0 0.17324495E+04</rscale>
<asrwt>0</asrwt>
<pdfrwt beam="1">  1        2 0.34721466E+00 0.17324495E+04</pdfrwt>
<pdfrwt beam="2">  1       -1 0.51148910E-01 0.17324495E+04</pdfrwt>
<totfact> 0.19934226E+01</totfact>
</mgrwt>
</event>
<event>
12    7  0.1546317E-007  0.1179711E+04  0.7818608E-02  0.9130803E-01
         -1   -1    0    0    0  501 -0.00000000000E+00  0.00000000000E+00  0.11825264221E+03  0.11825264221E+03  0.00000000000E+00 0.  1.
          2   -1    0    0  501    0  0.00000000000E+00 -0.00000000000E+00 -0.29422576199E+04  0.29422576199E+04  0.00000000000E+00 0. -1.
         24    2    1    2    0    0 -0.15445541407E+03 -0.29362992519E+02 -0.13892030121E+03  0.22390267810E+03  0.78197819092E+02 0.  0.
        254    2    1    2    0    0  0.15445541407E+03  0.29362992519E+02 -0.26850846765E+04  0.28366075840E+04  0.90107946683E+03 0.  0.
         23    2    4    4    0    0  0.34502412438E+03 -0.29009152341E+03 -0.19915007808E+04  0.20439922164E+04  0.92919764034E+02 0.  0.
         23    2    4    4    0    0 -0.19056871032E+03  0.31945451593E+03 -0.69358389566E+03  0.79261536756E+03  0.93876937922E+02 0.  0.
          4    1    3    3  502    0  0.11987597020E+01 -0.12467902064E+02  0.26699574153E+01  0.12806805976E+02  0.00000000000E+00 0. -1.
         -1    1    3    3    0  502 -0.15565417377E+03 -0.16895090455E+02 -0.14159025862E+03  0.21109587213E+03  0.00000000000E+00 0.  1.
         13    1    5    5    0    0  0.10768572982E+03 -0.10573877384E+03 -0.49014232537E+03  0.51285124921E+03  0.00000000000E+00 0. -1.
        -13    1    5    5    0    0  0.23733839456E+03 -0.18435274957E+03 -0.15013584554E+04  0.15311409672E+04  0.00000000000E+00 0.  1.
          1    1    6    6  503    0 -0.77133785805E+01  0.89245488747E+02 -0.15567206853E+03  0.17960525157E+03  0.00000000000E+00 0. -1.
         -1    1    6    6    0  503 -0.18285533174E+03  0.23020902718E+03 -0.53791182713E+03  0.61301011599E+03  0.00000000000E+00 0.  1.
<mgrwt>
<rscale>  0 0.11797114E+04</rscale>
<asrwt>0</asrwt>
<pdfrwt beam="1">  1        2 0.45265505E+00 0.11797114E+04</pdfrwt>
<pdfrwt beam="2">  1       -1 0.18192713E-01 0.11797114E+04</pdfrwt>
<totfact> 0.51727402E+01</totfact>
</mgrwt>
</event>
<event>
12    7  0.1546317E-007  0.2393642E+04  0.7818608E-02  0.8441888E-01
          2   -1    0    0  501    0  0.00000000000E+00  0.00000000000E+00  0.28351172791E+04  0.28351172791E+04  0.00000000000E+00 0. -1.
         -1   -1    0    0    0  501 -0.00000000000E+00 -0.00000000000E+00 -0.50522784955E+03  0.50522784955E+03  0.00000000000E+00 0.  1.
         24    2    1    2    0    0  0.77338985767E+03  0.53918643235E+03  0.43374180662E+03  0.10412880757E+04  0.85410895438E+02 0.  0.
        254    2    1    2    0    0 -0.77338985767E+03 -0.53918643235E+03  0.18961476229E+04  0.22990570529E+04  0.89522826354E+03 0.  0.
         23    2    4    4    0    0  0.11792949175E+03 -0.14639078554E+03  0.81339343308E+03  0.83990403045E+03  0.92153547220E+02 0.  0.
         23    2    4    4    0    0 -0.89131934942E+03 -0.39279564681E+03  0.10827541898E+04  0.14591530225E+04  0.89623125032E+02 0.  0.
          4    1    3    3  502    0  0.29479059829E+03  0.23683022641E+03  0.21026661360E+03  0.43266858191E+03  0.00000000000E+00 0. -1.
         -3    1    3    3    0  502  0.47859925938E+03  0.30235620594E+03  0.22347519302E+03  0.60861949381E+03  0.00000000000E+00 0.  1.
         13    1    5    5    0    0  0.12214952511E+03 -0.13217216572E+03  0.79975532844E+03  0.81975519104E+03  0.00000000000E+00 0.  1.
        -13    1    5    5    0    0 -0.42200333623E+01 -0.14218619816E+02  0.13638104645E+02  0.20148839405E+02  0.00000000000E+00 0. -1.
          2    1    6    6  503    0 -0.31709719268E+03 -0.10606632996E+03  0.32781825641E+03  0.46825794728E+03  0.00000000000E+00 0. -1.
         -2    1    6    6    0  503 -0.57422215674E+03 -0.28672931686E+03  0.75493593342E+03  0.99089507518E+03  0.00000000000E+00 0.  1.
<mgrwt>
<rscale>  0 0.23936417E+04</rscale>
<asrwt>0</asrwt>
<pdfrwt beam="1">  1        2 0.43617188E+00 0.23936417E+04</pdfrwt>
<pdfrwt beam="2">  1       -1 0.77727363E-01 0.23936417E+04</pdfrwt>
<totfact> 0.37372658E+00</totfact>
</mgrwt>
</event>
<event>
12    7  0.1546317E-007  0.2930373E+04  0.7818608E-02  0.8263898E-01
         -1   -1    0    0    0  501 -0.00000000000E+00  0.00000000000E+00  0.50826510337E+03  0.50826510337E+03  0.00000000000E+00 0.  1.
          2   -1    0    0  501    0  0.00000000000E+00 -0.00000000000E+00 -0.42237242090E+04  0.42237242090E+04  0.00000000000E+00 0. -1.
         24    2    1    2    0    0  0.13011956475E+03 -0.48200944790E+03  0.31090389731E+03  0.59343995535E+03  0.79028717859E+02 0.  0.
        254    2    1    2    0    0 -0.13011956475E+03  0.48200944790E+03 -0.40263630029E+04  0.41385493570E+04  0.81653385731E+03 0.  0.
         23    2    4    4    0    0 -0.45217355678E+03  0.18743465050E+03 -0.17844225813E+04  0.18526958365E+04  0.93408994233E+02 0.  0.
         23    2    4    4    0    0  0.32205399202E+03  0.29457479740E+03 -0.22419404216E+04  0.22858535205E+04  0.91303768695E+02 0.  0.
          2    1    3    3  502    0  0.21669333213E+02 -0.19531655671E+02  0.28643829526E+02  0.40884160075E+02  0.00000000000E+00 0. -1.
         -1    1    3    3    0  502  0.10845023154E+03 -0.46247779223E+03  0.28226006778E+03  0.55255579527E+03  0.00000000000E+00 0.  1.
         13    1    5    5    0    0 -0.25876372553E+03  0.12767756883E+03 -0.88815113307E+03  0.93384830803E+03  0.00000000000E+00 0. -1.
        -13    1    5    5    0    0 -0.19340983125E+03  0.59757081669E+02 -0.89627144824E+03  0.91884752846E+03  0.00000000000E+00 0.  1.
          3    1    6    6  503    0  0.24858414467E+03  0.25067247988E+03 -0.19469529157E+04  0.19787006911E+04  0.00000000000E+00 0. -1.
         -3    1    6    6    0  503  0.73469847359E+02  0.43902317517E+02 -0.29498750587E+03  0.30715282934E+03  0.00000000000E+00 0.  1.
<mgrwt>
<rscale>  0 0.29303731E+04</rscale>
<asrwt>0</asrwt>
<pdfrwt beam="1">  1        2 0.64980373E+00 0.29303731E+04</pdfrwt>
<pdfrwt beam="2">  1       -1 0.78194631E-01 0.29303731E+04</pdfrwt>
<totfact> 0.35513063E-01</totfact>
</mgrwt>
</event>
<event>
12    7  0.1546317E-007  0.3788915E+04  0.7818608E-02  0.8048538E-01
         -1   -1    0    0    0  501 -0.00000000000E+00  0.00000000000E+00  0.10753605378E+04  0.10753605378E+04  0.00000000000E+00 0.  1.
          2   -1    0    0  501    0  0.00000000000E+00 -0.00000000000E+00 -0.33374565425E+04  0.33374565425E+04  0.00000000000E+00 0. -1.
         24    2    1    2    0    0  0.30489973192E+03  0.15296332021E+04 -0.61995716260E+02  0.15630922063E+04  0.81683518084E+02 0.  0.
        254    2    1    2    0    0 -0.30489973192E+03 -0.15296332021E+04 -0.22001002884E+04  0.28497248739E+04  0.92073285934E+03 0.  0.
         23    2    4    4    0    0  0.12802680304E+03 -0.99334034084E+03 -0.79536761188E+03  0.12823763568E+04  0.93614034887E+02 0.  0.
         23    2    4    4    0    0 -0.43292653496E+03 -0.53629286128E+03 -0.14047326766E+04  0.15673485171E+04  0.90950885883E+02 0.  0.
          2    1    3    3  502    0  0.25295509825E+03  0.12472688247E+04 -0.81952714085E+02  0.12752968479E+04  0.00000000000E+00 0. -1.
         -1    1    3    3    0  502  0.51944633664E+02  0.28236437737E+03  0.19956997826E+02  0.28779535843E+03  0.00000000000E+00 0.  1.
         13    1    5    5    0    0  0.45267480963E+02 -0.21249528638E+03 -0.13018433168E+03  0.25328117139E+03  0.00000000000E+00 0.  1.
        -13    1    5    5    0    0  0.82759322080E+02 -0.78084505446E+03 -0.66518328020E+03  0.10290951855E+04  0.00000000000E+00 0. -1.
          2    1    6    6  503    0 -0.17125261465E+03 -0.17273456688E+03 -0.41625299451E+03  0.48211123619E+03  0.00000000000E+00 0. -1.
         -2    1    6    6    0  503 -0.26167392031E+03 -0.36355829440E+03 -0.98847968205E+03  0.10852372809E+04  0.00000000000E+00 0.  1.
<mgrwt>
<rscale>  0 0.37889149E+04</rscale>
<asrwt>0</asrwt>
<pdfrwt beam="1">  1        2 0.51345485E+00 0.37889149E+04</pdfrwt>
<pdfrwt beam="2">  1       -1 0.16544008E+00 0.37889149E+04</pdfrwt>
<totfact> 0.25436336E-01</totfact>
</mgrwt>
</event>
<event>
12    7  0.1546317E-007  0.1279352E+04  0.7818608E-02  0.9046102E-01
         -1   -1    0    0    0  501 -0.00000000000E+00  0.00000000000E+00  0.22894978856E+03  0.22894978856E+03  0.00000000000E+00 0.  1.
          2   -1    0    0  501    0  0.00000000000E+00 -0.00000000000E+00 -0.17872267775E+04  0.17872267775E+04  0.00000000000E+00 0. -1.
         24    2    1    2    0    0  0.80789622348E+02 -0.26333411423E+03 -0.41420648673E+03  0.50424692918E+03  0.82620416023E+02 0.  0.
        254    2    1    2    0    0 -0.80789622348E+02  0.26333411423E+03 -0.11440705022E+04  0.15119296369E+04  0.94929557781E+03 0.  0.
         23    2    4    4    0    0 -0.29514256585E+03 -0.22439295953E+03 -0.21662791293E+03  0.43895909986E+03  0.91082952446E+02 0.  0.
         23    2    4    4    0    0  0.21435294350E+03  0.48772707376E+03 -0.92744258927E+03  0.10729705370E+04  0.85388137629E+02 0.  0.
          4    1    3    3  502    0  0.30546979144E+02 -0.20522344335E+03 -0.33390417149E+03  0.39311801711E+03  0.00000000000E+00 0. -1.
         -3    1    3    3    0  502  0.50242643203E+02 -0.58110670879E+02 -0.80302315241E+02  0.11112891208E+03  0.00000000000E+00 0.  1.
         13    1    5    5    0    0 -0.10310788759E+03 -0.69799498309E+02 -0.25686736564E+02  0.12713384633E+03  0.00000000000E+00 0.  1.
        -13    1    5    5    0    0 -0.19203467826E+03 -0.15459346122E+03 -0.19094117637E+03  0.31182525353E+03  0.00000000000E+00 0. -1.
          3    1    6    6  503    0  0.12483604699E+03  0.22949513784E+03 -0.38065525775E+03  0.46168223073E+03  0.00000000000E+00 0. -1.
         -3    1    6    6    0  503  0.89516896506E+02  0.25823193592E+03 -0.54678733152E+03  0.61128830628E+03  0.00000000000E+00 0.  1.
<mgrwt>
<rscale>  0 0.12793517E+04</rscale>
<asrwt>0</asrwt>
<pdfrwt beam="1">  1        2 0.27495798E+00 0.12793517E+04</pdfrwt>
<pdfrwt beam="2">  1       -1 0.35223043E-01 0.12793517E+04</pdfrwt>
<totfact> 0.75250059E+01</totfact>
</mgrwt>
</event>
<event>
12    7  0.2145342E-007  0.2094632E+04  0.7818608E-02  0.8563612E-01
          2   -1    0    0  501    0  0.00000000000E+00  0.00000000000E+00  0.25181744187E+04  0.25181744187E+04  0.00000000000E+00 0. -1.
         -1   -1    0    0    0  501 -0.00000000000E+00 -0.00000000000E+00 -0.43558159717E+03  0.43558159717E+03  0.00000000000E+00 0.  1.
         24    2    1    2    0    0  0.60910993152E+03  0.37533838962E+03  0.15159383981E+04  0.16781771105E+04  0.79469314830E+02 0.  0.
        254    2    1    2    0    0 -0.60910993152E+03 -0.37533838962E+03  0.56665442338E+03  0.12755789053E+04  0.89112877448E+03 0.  0.
         23    2    4    4    0    0 -0.44608165215E+03 -0.38064194986E+03  0.78737228816E+03  0.98601252269E+03  0.91588429140E+02 0.  0.
         23    2    4    4    0    0 -0.16302827938E+03  0.53035602388E+01 -0.22071786479E+03  0.28956638261E+03  0.92336160174E+02 0.  0.
          2    1    3    3  502    0  0.56965920267E+03  0.37180726262E+03  0.14323499956E+04  0.15856792733E+04  0.00000000000E+00 0. -1.
         -1    1    3    3    0  502  0.39450728851E+02  0.35311270021E+01  0.83588402485E+02  0.92497837244E+02  0.00000000000E+00 0.  1.
         13    1    5    5    0    0 -0.36298414253E+03 -0.27051057845E+03  0.64242597969E+03  0.78590368377E+03  0.00000000000E+00 0. -1.
        -13    1    5    5    0    0 -0.83097509618E+02 -0.11013137141E+03  0.14494630848E+03  0.20010883892E+03  0.00000000000E+00 0.  1.
          2    1    6    6  503    0 -0.15071300011E+03  0.39312112900E+01 -0.22934940821E+03  0.27446495927E+03  0.00000000000E+00 0. -1.
         -2    1    6    6    0  503 -0.12315279269E+02  0.13723489488E+01  0.86315434194E+01  0.15101423340E+02  0.00000000000E+00 0.  1.
<mgrwt>
<rscale>  0 0.20946316E+04</rscale>
<asrwt>0</asrwt>
<pdfrwt beam="1">  1        2 0.38741144E+00 0.20946316E+04</pdfrwt>
<pdfrwt beam="2">  1       -1 0.67012555E-01 0.20946316E+04</pdfrwt>
<totfact> 0.80451683E+00</totfact>
</mgrwt>
</event>
<event>
12    7  0.1546317E-007  0.1336897E+04  0.7818608E-02  0.9000806E-01
          2   -1    0    0  501    0  0.00000000000E+00  0.00000000000E+00  0.16937483831E+04  0.16937483831E+04  0.00000000000E+00 0. -1.
         -1   -1    0    0    0  501 -0.00000000000E+00 -0.00000000000E+00 -0.26380748704E+03  0.26380748704E+03  0.00000000000E+00 0.  1.
         24    2    1    2    0    0  0.79680481767E+02  0.67409358815E+02  0.90494515674E+03  0.91437857606E+03  0.79179813186E+02 0.  0.
        254    2    1    2    0    0 -0.79680481767E+02 -0.67409358815E+02  0.52499573935E+03  0.10431772941E+04  0.89537999743E+03 0.  0.
         23    2    4    4    0    0 -0.34652438238E+03  0.53893010814E+02 -0.73195585314E+02  0.37003892406E+03  0.92669344491E+02 0.  0.
         23    2    4    4    0    0  0.26684390062E+03 -0.12130236963E+03  0.59819132466E+03  0.67313837006E+03  0.96759868585E+02 0.  0.
          4    1    3    3  502    0  0.86336706927E+02  0.70413569425E+02  0.66092528427E+03  0.67024945289E+03  0.00000000000E+00 0. -1.
         -3    1    3    3    0  502 -0.66562251594E+01 -0.30042106103E+01  0.24401987248E+03  0.24412912317E+03  0.00000000000E+00 0.  1.
         13    1    5    5    0    0 -0.29319645498E+03  0.10385906038E+02 -0.67023105106E+02  0.30093873941E+03  0.00000000000E+00 0. -1.
        -13    1    5    5    0    0 -0.53327927401E+02  0.43507104776E+02 -0.61724802087E+01  0.69100184651E+02  0.00000000000E+00 0.  1.
          2    1    6    6  503    0  0.25146958451E+03 -0.95580702072E+02  0.57639146287E+03  0.63608155217E+03  0.00000000000E+00 0. -1.
         -2    1    6    6    0  503  0.15374316106E+02 -0.25721667556E+02  0.21799861787E+02  0.37056817882E+02  0.00000000000E+00 0.  1.
<mgrwt>
<rscale>  0 0.13368972E+04</rscale>
<asrwt>0</asrwt>
<pdfrwt beam="1">  1        2 0.26057667E+00 0.13368972E+04</pdfrwt>
<pdfrwt beam="2">  1       -1 0.40585768E-01 0.13368972E+04</pdfrwt>
<totfact> 0.65297015E+01</totfact>
</mgrwt>
</event>
<event>
12    7  0.1546317E-007  0.2021826E+04  0.7818608E-02  0.8596484E-01
         -1   -1    0    0    0  501 -0.00000000000E+00  0.00000000000E+00  0.53226992442E+03  0.53226992442E+03  0.00000000000E+00 0.  1.
          2   -1    0    0  501    0  0.00000000000E+00 -0.00000000000E+00 -0.19199748587E+04  0.19199748587E+04  0.00000000000E+00 0. -1.
         24    2    1    2    0    0  0.43650643515E+03 -0.55575440359E+03 -0.10175255494E+04  0.12413913021E+04  0.79330298322E+02 0.  0.
        254    2    1    2    0    0 -0.43650643515E+03  0.55575440359E+03 -0.37017938489E+03  0.12108534810E+04  0.91089656407E+03 0.  0.
         23    2    4    4    0    0 -0.26134545182E+03  0.70349065912E+03  0.11824094266E+02  0.75601503079E+03  0.90655198003E+02 0.  0.
         23    2    4    4    0    0 -0.17516098333E+03 -0.14773625552E+03 -0.38200347915E+03  0.45483845022E+03  0.91891166241E+02 0.  0.
          4    1    3    3  502    0  0.16010876169E+03 -0.22553542843E+03 -0.46258489043E+03  0.53896736997E+03  0.00000000000E+00 0. -1.
         -3    1    3    3    0  502  0.27639767346E+03 -0.33021897517E+03 -0.55494065895E+03  0.70242393211E+03  0.00000000000E+00 0.  1.
         13    1    5    5    0    0 -0.24162948172E+02  0.45417428498E+02  0.23146199538E+02  0.56412209927E+02  0.00000000000E+00 0. -1.
        -13    1    5    5    0    0 -0.23718250365E+03  0.65807323062E+03 -0.11322105272E+02  0.69960282086E+03  0.00000000000E+00 0.  1.
          1    1    6    6  503    0 -0.75833563947E+01  0.12504191772E+02 -0.17068470455E+02  0.22476538652E+02  0.00000000000E+00 0. -1.
         -1    1    6    6    0  503 -0.16757762693E+03 -0.16024044730E+03 -0.36493500870E+03  0.43236191156E+03  0.00000000000E+00 0.  1.
<mgrwt>
<rscale>  0 0.20218258E+04</rscale>
<asrwt>0</asrwt>
<pdfrwt beam="1">  1        2 0.29538074E+00 0.20218258E+04</pdfrwt>
<pdfrwt beam="2">  1       -1 0.81887683E-01 0.20218258E+04</pdfrwt>
<totfact> 0.11598208E+01</totfact>
</mgrwt>
</event>
<event>
12    7  0.1546317E-007  0.1425861E+04  0.7818608E-02  0.8935309E-01
          2   -1    0    0  501    0  0.00000000000E+00  0.00000000000E+00  0.12510222277E+04  0.12510222277E+04  0.00000000000E+00 0. -1.
         -1   -1    0    0    0  501 -0.00000000000E+00 -0.00000000000E+00 -0.40628355491E+03  0.40628355491E+03  0.00000000000E+00 0.  1.
         24    2    1    2    0    0 -0.32431286499E+03  0.17245505295E+03  0.35249334869E+03  0.51532446351E+03  0.79925979081E+02 0.  0.
        254    2    1    2    0    0  0.32431286499E+03 -0.17245505295E+03  0.49224532408E+03  0.11419813191E+04  0.96275453486E+03 0.  0.
         23    2    4    4    0    0  0.47119186690E+03  0.18796590679E+03  0.52955606240E+03  0.73886893387E+03  0.90248106085E+02 0.  0.
         23    2    4    4    0    0 -0.14687900192E+03 -0.36042095974E+03 -0.37310738319E+02  0.40311238523E+03  0.98136611436E+02 0.  0.
          4    1    3    3  502    0 -0.15740519055E+03  0.10971378371E+03  0.22729499912E+03  0.29745003777E+03  0.00000000000E+00 0. -1.
         -3    1    3    3    0  502 -0.16690767444E+03  0.62741269247E+02  0.12519834957E+03  0.21787442574E+03  0.00000000000E+00 0.  1.
         13    1    5    5    0    0  0.38758120508E+03  0.18923228716E+03  0.43350237755E+03  0.61151644326E+03  0.00000000000E+00 0.  1.
        -13    1    5    5    0    0  0.83610661827E+02 -0.12663803677E+01  0.96053684854E+02  0.12735249061E+03  0.00000000000E+00 0. -1.
          3    1    6    6  503    0 -0.96186887631E+02 -0.11317459269E+03 -0.23202883368E+02  0.15032890467E+03  0.00000000000E+00 0. -1.
         -3    1    6    6    0  503 -0.50692114286E+02 -0.24724636705E+03 -0.14107854951E+02  0.25278348056E+03  0.00000000000E+00 0.  1.
<mgrwt>
<rscale>  0 0.14258608E+04</rscale>
<asrwt>0</asrwt>
<pdfrwt beam="1">  1        2 0.19246496E+00 0.14258608E+04</pdfrwt>
<pdfrwt beam="2">  1       -1 0.62505163E-01 0.14258608E+04</pdfrwt>
<totfact> 0.50788259E+01</totfact>
</mgrwt>
</event>
<event>
12    7  0.1546317E-007  0.1459329E+04  0.7818608E-02  0.8911959E-01
         -1   -1    0    0    0  501 -0.00000000000E+00  0.00000000000E+00  0.11578107687E+03  0.11578107687E+03  0.00000000000E+00 0.  1.
          2   -1    0    0  501    0  0.00000000000E+00 -0.00000000000E+00 -0.45984201640E+04  0.45984201640E+04  0.00000000000E+00 0. -1.
         24    2    1    2    0    0 -0.15601636768E+03 -0.40163814799E+03 -0.10387895263E+04  0.11274019569E+04  0.79354795083E+02 0.  0.
        254    2    1    2    0    0  0.15601636768E+03  0.40163814799E+03 -0.34438495608E+04  0.35867992840E+04  0.90519334797E+03 0.  0.
         23    2    4    4    0    0 -0.14893057863E+03  0.46613280046E+03 -0.95575718889E+03  0.10775843791E+04  0.90863551968E+02 0.  0.
         23    2    4    4    0    0  0.30494694631E+03 -0.64494652465E+02 -0.24880923719E+04  0.25092149048E+04  0.91671082631E+02 0.  0.
          2    1    3    3  502    0 -0.18104757139E+02 -0.68651843539E+02 -0.10777254391E+03  0.12905727052E+03  0.00000000000E+00 0. -1.
         -1    1    3    3    0  502 -0.13791161054E+03 -0.33298630445E+03 -0.93101698244E+03  0.99834468640E+03  0.00000000000E+00 0.  1.
         13    1    5    5    0    0 -0.13430430011E+02  0.14985591483E+03 -0.34912205479E+03  0.38016230849E+03  0.00000000000E+00 0. -1.
        -13    1    5    5    0    0 -0.13550014862E+03  0.31627688562E+03 -0.60663513410E+03  0.69742207062E+03  0.00000000000E+00 0.  1.
          1    1    6    6  503    0  0.50606924989E+02 -0.41338609007E+02 -0.36339583417E+03  0.36922415109E+03  0.00000000000E+00 0. -1.
         -1    1    6    6    0  503  0.25434002132E+03 -0.23156043458E+02 -0.21246965377E+04  0.21399907538E+04  0.00000000000E+00 0.  1.
<mgrwt>
<rscale>  0 0.14593287E+04</rscale>
<asrwt>0</asrwt>
<pdfrwt beam="1">  1        2 0.70744921E+00 0.14593287E+04</pdfrwt>
<pdfrwt beam="2">  1       -1 0.17812475E-01 0.14593287E+04</pdfrwt>
<totfact> 0.27981234E+00</totfact>
</mgrwt>
</event>
<event>
12    7  0.1546317E-007  0.1904520E+04  0.7818608E-02  0.8652610E-01
          2   -1    0    0  501    0  0.00000000000E+00  0.00000000000E+00  0.12330187798E+04  0.12330187798E+04  0.00000000000E+00 0. -1.
         -1   -1    0    0    0  501 -0.00000000000E+00 -0.00000000000E+00 -0.73542983923E+03  0.73542983923E+03  0.00000000000E+00 0.  1.
         24    2    1    2    0    0  0.21272619942E+03  0.59348660058E+03  0.58171321574E+03  0.86172329496E+03  0.81841253160E+02 0.  0.
        254    2    1    2    0    0 -0.21272619942E+03 -0.59348660058E+03 -0.84124275141E+02  0.11067253241E+04  0.90569601320E+03 0.  0.
         23    2    4    4    0    0 -0.25490226171E+03 -0.68565793342E+03 -0.34421441389E+03  0.81348623741E+03  0.90412007143E+02 0.  0.
         23    2    4    4    0    0  0.42176062284E+02  0.92171332838E+02  0.26009013875E+03  0.29323908668E+03  0.89821527809E+02 0.  0.
          2    1    3    3  502    0  0.11723694520E+03  0.40662341412E+03  0.35057629074E+03  0.54953693039E+03  0.00000000000E+00 0. -1.
         -1    1    3    3    0  502  0.95489254221E+02  0.18686318646E+03  0.23113692500E+03  0.31218636457E+03  0.00000000000E+00 0.  1.
         13    1    5    5    0    0 -0.10924689350E+03 -0.25176465955E+03 -0.84075843845E+02  0.28703497184E+03  0.00000000000E+00 0. -1.
        -13    1    5    5    0    0 -0.14565536821E+03 -0.43389327387E+03 -0.26013857005E+03  0.52645126557E+03  0.00000000000E+00 0.  1.
          2    1    6    6  503    0  0.48703431424E+02  0.21077099000E+02  0.56596200339E+02  0.77584780901E+02  0.00000000000E+00 0. -1.
         -2    1    6    6    0  503 -0.65273691397E+01  0.71094233838E+02  0.20349393841E+03  0.21565430578E+03  0.00000000000E+00 0.  1.
<mgrwt>
<rscale>  0 0.19045197E+04</rscale>
<asrwt>0</asrwt>
<pdfrwt beam="1">  1        2 0.18969520E+00 0.19045197E+04</pdfrwt>
<pdfrwt beam="2">  1       -1 0.11314305E+00 0.19045197E+04</pdfrwt>
<totfact> 0.13791628E+01</totfact>
</mgrwt>
</event>
<event>
12    7  0.1546317E-007  0.1877587E+04  0.7818608E-02  0.8666094E-01
          2   -1    0    0  501    0  0.00000000000E+00  0.00000000000E+00  0.59550046274E+03  0.59550046274E+03  0.00000000000E+00 0. -1.
         -1   -1    0    0    0  501 -0.00000000000E+00 -0.00000000000E+00 -0.14799873834E+04  0.14799873834E+04  0.00000000000E+00 0.  1.
         24    2    1    2    0    0 -0.25737360894E+02 -0.18150568950E+02 -0.11440542824E+04  0.11472241978E+04  0.79191565639E+02 0.  0.
        254    2    1    2    0    0  0.25737360894E+02  0.18150568950E+02  0.25956736174E+03  0.92826364832E+03  0.89067745599E+03 0.  0.
         23    2    4    4    0    0  0.14433293758E+03  0.41064141951E+03  0.24046655583E+03  0.50607924910E+03  0.93987603435E+02 0.  0.
         23    2    4    4    0    0 -0.11859557669E+03 -0.39249085056E+03  0.19100805910E+02  0.42218439922E+03  0.98797001844E+02 0.  0.
          2    1    3    3  502    0 -0.39673589186E+02  0.20070271274E+02 -0.57246304415E+03  0.57418703084E+03  0.00000000000E+00 0. -1.
         -1    1    3    3    0  502  0.13936228292E+02 -0.38220840224E+02 -0.57159123825E+03  0.57303716697E+03  0.00000000000E+00 0.  1.
         13    1    5    5    0    0  0.36909263449E+00  0.22245910511E+02  0.40296408345E+02  0.46030612524E+02  0.00000000000E+00 0. -1.
        -13    1    5    5    0    0  0.14396384495E+03  0.38839550900E+03  0.20017014749E+03  0.46004863657E+03  0.00000000000E+00 0.  1.
          3    1    6    6  503    0 -0.98140512542E+02 -0.30257682553E+03  0.55775057206E+02  0.32294760033E+03  0.00000000000E+00 0. -1.
         -3    1    6    6    0  503 -0.20455064149E+02 -0.89914025032E+02 -0.36674251296E+02  0.99236798895E+02  0.00000000000E+00 0.  1.
<mgrwt>
<rscale>  0 0.18775869E+04</rscale>
<asrwt>0</asrwt>
<pdfrwt beam="1">  1        2 0.91615457E-01 0.18775869E+04</pdfrwt>
<pdfrwt beam="2">  1       -1 0.22769036E+00 0.18775869E+04</pdfrwt>
<totfact> 0.52441304E+00</totfact>
</mgrwt>
</event>
<event>
12    7  0.1546317E-007  0.1589750E+04  0.7818608E-02  0.8826870E-01
          2   -1    0    0  501    0  0.00000000000E+00  0.00000000000E+00  0.10864246342E+04  0.10864246342E+04  0.00000000000E+00 0. -1.
         -1   -1    0    0    0  501 -0.00000000000E+00 -0.00000000000E+00 -0.58156459698E+03  0.58156459698E+03  0.00000000000E+00 0.  1.
         24    2    1    2    0    0 -0.24137508052E+03 -0.46767343365E+03  0.12990270414E+03  0.54786002093E+03  0.79344312644E+02 0.  0.
        254    2    1    2    0    0  0.24137508052E+03  0.46767343365E+03  0.37495733305E+03  0.11201292102E+04  0.91494047672E+03 0.  0.
         23    2    4    4    0    0 -0.21174001877E+03 -0.32188985839E+02  0.37132083174E+03  0.43913682692E+03  0.95352117540E+02 0.  0.
         23    2    4    4    0    0  0.45311509928E+03  0.49986241949E+03  0.36365013180E+01  0.68099238330E+03  0.92529294587E+02 0.  0.
          4    1    3    3  502    0 -0.18980627797E+03 -0.39381515710E+03  0.78547672176E+02  0.44416949234E+03  0.00000000000E+00 0. -1.
         -3    1    3    3    0  502 -0.51568802542E+02 -0.73858276554E+02  0.51355031965E+02  0.10369052859E+03  0.00000000000E+00 0.  1.
         13    1    5    5    0    0 -0.21936652583E+03 -0.22624755510E+02  0.33740818025E+03  0.40308539085E+03  0.00000000000E+00 0. -1.
        -13    1    5    5    0    0  0.76265070662E+01 -0.95642303299E+01  0.33912651483E+02  0.36051436066E+02  0.00000000000E+00 0.  1.
          4    1    6    6  503    0  0.24953132572E+03  0.34159285511E+03  0.75870940166E+01  0.42309470000E+03  0.00000000000E+00 0. -1.
         -4    1    6    6    0  503  0.20358377356E+03  0.15826956438E+03 -0.39505926986E+01  0.25789768330E+03  0.00000000000E+00 0.  1.
<mgrwt>
<rscale>  0 0.15897498E+04</rscale>
<asrwt>0</asrwt>
<pdfrwt beam="1">  1        2 0.16714225E+00 0.15897498E+04</pdfrwt>
<pdfrwt beam="2">  1       -1 0.89471477E-01 0.15897498E+04</pdfrwt>
<totfact> 0.29760387E+01</totfact>
</mgrwt>
</event>
<event>
12    7  0.1546317E-007  0.2009390E+04  0.7818608E-02  0.8602243E-01
          2   -1    0    0  501    0  0.00000000000E+00  0.00000000000E+00  0.14697833693E+04  0.14697833693E+04  0.00000000000E+00 0. -1.
         -1   -1    0    0    0  501 -0.00000000000E+00 -0.00000000000E+00 -0.68677602241E+03  0.68677602241E+03  0.00000000000E+00 0.  1.
         24    2    1    2    0    0  0.14719045447E+03  0.44310908007E+03  0.10083130825E+04  0.11139790741E+04  0.79015304410E+02 0.  0.
        254    2    1    2    0    0 -0.14719045447E+03 -0.44310908007E+03 -0.22530573564E+03  0.10425803176E+04  0.90454428167E+03 0.  0.
         23    2    4    4    0    0 -0.26364700433E+03  0.20941141292E+03 -0.91891022524E+02  0.36043193461E+03  0.90024089638E+02 0.  0.
         23    2    4    4    0    0  0.11645654985E+03 -0.65252049299E+03 -0.13341471311E+03  0.68214838304E+03  0.90453352743E+02 0.  0.
          4    1    3    3  502    0  0.95559572519E+02  0.31113566455E+03  0.61331019954E+03  0.69432444470E+03  0.00000000000E+00 0. -1.
         -3    1    3    3    0  502  0.51630881956E+02  0.13197341553E+03  0.39500288301E+03  0.41965462938E+03  0.00000000000E+00 0.  1.
         13    1    5    5    0    0 -0.22361534629E+03  0.17989397094E+03 -0.11021041143E+03  0.30742803819E+03  0.00000000000E+00 0. -1.
        -13    1    5    5    0    0 -0.40031658035E+02  0.29517441985E+02  0.18319388904E+02  0.53003896425E+02  0.00000000000E+00 0.  1.
          1    1    6    6  503    0  0.10421133577E+03 -0.44821704376E+03 -0.57046097375E+02  0.46369470349E+03  0.00000000000E+00 0. -1.
         -1    1    6    6    0  503  0.12245214081E+02 -0.20430344924E+03 -0.76368615737E+02  0.21845367955E+03  0.00000000000E+00 0.  1.
<mgrwt>
<rscale>  0 0.20093899E+04</rscale>
<asrwt>0</asrwt>
<pdfrwt beam="1">  1        2 0.22612052E+00 0.20093899E+04</pdfrwt>
<pdfrwt beam="2">  1       -1 0.10565785E+00 0.20093899E+04</pdfrwt>
<totfact> 0.11719266E+01</totfact>
</mgrwt>
</event>
<event>
12    7  0.1546317E-007  0.1957888E+04  0.7818608E-02  0.8626567E-01
          2   -1    0    0  501    0  0.00000000000E+00  0.00000000000E+00  0.13942785432E+04  0.13942785432E+04  0.00000000000E+00 0. -1.
         -1   -1    0    0    0  501 -0.00000000000E+00 -0.00000000000E+00 -0.68733106456E+03  0.68733106456E+03  0.00000000000E+00 0.  1.
         24    2    1    2    0    0  0.42609107599E+03  0.64751881258E+03  0.23014240964E+03  0.81234575475E+03  0.78140123325E+02 0.  0.
        254    2    1    2    0    0 -0.42609107599E+03 -0.64751881258E+03  0.47680506895E+03  0.12692638530E+04  0.88479005249E+03 0.  0.
         23    2    4    4    0    0  0.25514151273E+03 -0.27706449292E+03  0.22857782129E+03  0.44998872849E+03  0.91542944151E+02 0.  0.
         23    2    4    4    0    0 -0.68123258872E+03 -0.37045431965E+03  0.24822724766E+03  0.81927512448E+03  0.90998462715E+02 0.  0.
          2    1    3    3  502    0  0.88346183891E+02  0.12652513089E+03  0.78818083051E+02  0.17327996760E+03  0.00000000000E+00 0. -1.
         -1    1    3    3    0  502  0.33774489210E+03  0.52099368168E+03  0.15132432659E+03  0.63906578715E+03  0.00000000000E+00 0.  1.
         13    1    5    5    0    0  0.24819966546E+03 -0.26214355149E+03  0.23665449849E+03  0.43165688593E+03  0.00000000000E+00 0. -1.
        -13    1    5    5    0    0  0.69418472741E+01 -0.14920941435E+02 -0.80766771980E+01  0.18331842555E+02  0.00000000000E+00 0.  1.
          4    1    6    6  503    0 -0.67940730757E+03 -0.35783750166E+03  0.24607452340E+03  0.80634647531E+03  0.00000000000E+00 0. -1.
         -4    1    6    6    0  503 -0.18252811522E+01 -0.12616817996E+02  0.21527242661E+01  0.12928649171E+02  0.00000000000E+00 0.  1.
<mgrwt>
<rscale>  0 0.19578876E+04</rscale>
<asrwt>0</asrwt>
<pdfrwt beam="1">  1        2 0.21450439E+00 0.19578876E+04</pdfrwt>
<pdfrwt beam="2">  1       -1 0.10574324E+00 0.19578876E+04</pdfrwt>
<totfact> 0.12973028E+01</totfact>
</mgrwt>
</event>
<event>
12    7  0.1546317E-007  0.1602664E+04  0.7818608E-02  0.8818913E-01
          2   -1    0    0  501    0  0.00000000000E+00  0.00000000000E+00  0.10237352251E+04  0.10237352251E+04  0.00000000000E+00 0. -1.
         -1   -1    0    0    0  501 -0.00000000000E+00 -0.00000000000E+00 -0.62724549010E+03  0.62724549010E+03  0.00000000000E+00 0.  1.
         24    2    1    2    0    0  0.52028372460E+03 -0.87412062582E+02 -0.76634169833E+01  0.53321359363E+03  0.76954439192E+02 0.  0.
        254    2    1    2    0    0 -0.52028372460E+03  0.87412062582E+02  0.40415315199E+03  0.11177671216E+04  0.89873663832E+03 0.  0.
         23    2    4    4    0    0  0.28462301425E+02 -0.33217034260E+03  0.14039706698E+03  0.37267091260E+03  0.89582551710E+02 0.  0.
         23    2    4    4    0    0 -0.54874602602E+03  0.41958240518E+03  0.26375608501E+03  0.74509620898E+03  0.91812267432E+02 0.  0.
          2    1    3    3  502    0  0.39740455264E+03 -0.72407577111E+02  0.26435789302E+02  0.40481117406E+03  0.00000000000E+00 0. -1.
         -1    1    3    3    0  502  0.12287917195E+03 -0.15004485471E+02 -0.34099206285E+02  0.12840241958E+03  0.00000000000E+00 0.  1.
         13    1    5    5    0    0 -0.10449236998E+02 -0.28077615334E+02 -0.94809078953E+01  0.31423345639E+02  0.00000000000E+00 0. -1.
        -13    1    5    5    0    0  0.38911538423E+02 -0.30409272727E+03  0.14987797488E+03  0.34124756696E+03  0.00000000000E+00 0.  1.
          1    1    6    6  503    0 -0.48853760272E+03  0.33241607181E+03  0.22250481274E+03  0.63140939632E+03  0.00000000000E+00 0.  1.
         -1    1    6    6    0  503 -0.60208423304E+02  0.87166333374E+02  0.41251272270E+02  0.11368681267E+03  0.00000000000E+00 0. -1.
<mgrwt>
<rscale>  0 0.16026644E+04</rscale>
<asrwt>0</asrwt>
<pdfrwt beam="1">  1        2 0.15749773E+00 0.16026644E+04</pdfrwt>
<pdfrwt beam="2">  1       -1 0.96499306E-01 0.16026644E+04</pdfrwt>
<totfact> 0.27502981E+01</totfact>
</mgrwt>
</event>
<event>
12    7  0.1546317E-007  0.1557193E+04  0.7818608E-02  0.8847286E-01
          2   -1    0    0  501    0  0.00000000000E+00  0.00000000000E+00  0.11527384485E+04  0.11527384485E+04  0.00000000000E+00 0. -1.
         -1   -1    0    0    0  501 -0.00000000000E+00 -0.00000000000E+00 -0.52588906133E+03  0.52588906133E+03  0.00000000000E+00 0.  1.
         24    2    1    2    0    0 -0.51005276898E+03 -0.13600952006E+03  0.20549589258E+03  0.57209932543E+03  0.80104054787E+02 0.  0.
        254    2    1    2    0    0  0.51005276898E+03  0.13600952006E+03  0.42135349456E+03  0.11065281844E+04  0.87647785982E+03 0.  0.
         23    2    4    4    0    0  0.59396845606E+03 -0.14057670295E+03  0.49866755655E+03  0.79357827368E+03  0.92394849945E+02 0.  0.
         23    2    4    4    0    0 -0.83915687082E+02  0.27658622301E+03 -0.77314061988E+02  0.31294991070E+03  0.91751845373E+02 0.  0.
          4    1    3    3  502    0 -0.63041106403E+02  0.54109984386E+01  0.40211259791E+02  0.74969363173E+02  0.00000000000E+00 0. -1.
         -3    1    3    3    0  502 -0.44701166258E+03 -0.14142051850E+03  0.16528463279E+03  0.49712996226E+03  0.00000000000E+00 0.  1.
         13    1    5    5    0    0  0.12218616213E+03  0.13409630476E+01  0.71928532077E+02  0.14179199598E+03  0.00000000000E+00 0. -1.
        -13    1    5    5    0    0  0.47178229393E+03 -0.14191766600E+03  0.42673902447E+03  0.65178627770E+03  0.00000000000E+00 0.  1.
          3    1    6    6  503    0 -0.79281693218E+02  0.10491003380E+03 -0.32106057520E+02  0.13536063313E+03  0.00000000000E+00 0. -1.
         -3    1    6    6    0  503 -0.46339938636E+01  0.17167618921E+03 -0.45208004468E+02  0.17758927757E+03  0.00000000000E+00 0.  1.
<mgrwt>
<rscale>  0 0.15571930E+04</rscale>
<asrwt>0</asrwt>
<pdfrwt beam="1">  1        2 0.17734438E+00 0.15571930E+04</pdfrwt>
<pdfrwt beam="2">  1       -1 0.80906010E-01 0.15571930E+04</pdfrwt>
<totfact> 0.33795035E+01</totfact>
</mgrwt>
</event>
<event>
12    7  0.1546317E-007  0.2617468E+04  0.7818608E-02  0.8362292E-01
         -1   -1    0    0    0  501 -0.00000000000E+00  0.00000000000E+00  0.10127210074E+04  0.10127210074E+04  0.00000000000E+00 0.  1.
          2   -1    0    0  501    0  0.00000000000E+00 -0.00000000000E+00 -0.16912694162E+04  0.16912694162E+04  0.00000000000E+00 0. -1.
         24    2    1    2    0    0  0.13521630039E+03 -0.66176236079E+03 -0.12638775147E+04  0.14352953144E+04  0.80457425252E+02 0.  0.
        254    2    1    2    0    0 -0.13521630039E+03  0.66176236079E+03  0.58532910588E+03  0.12686951092E+04  0.90042448200E+03 0.  0.
         23    2    4    4    0    0  0.28884141516E+03  0.23760329515E+03  0.53628827613E+03  0.65994063503E+03  0.89620520376E+02 0.  0.
         23    2    4    4    0    0 -0.42405771555E+03  0.42415906564E+03  0.49040829753E+02  0.60875447414E+03  0.91875718880E+02 0.  0.
          2    1    3    3  502    0  0.56327579664E+02 -0.29413060556E+03 -0.64532459250E+03  0.71142774689E+03  0.00000000000E+00 0. -1.
         -1    1    3    3    0  502  0.78888720722E+02 -0.36763175523E+03 -0.61855292225E+03  0.72386756754E+03  0.00000000000E+00 0.  1.
         13    1    5    5    0    0  0.25705104207E+03  0.16937090011E+03  0.40654187033E+03  0.50993924379E+03  0.00000000000E+00 0. -1.
        -13    1    5    5    0    0  0.31790373097E+02  0.68232395046E+02  0.12974640580E+03  0.15000139124E+03  0.00000000000E+00 0.  1.
          1    1    6    6  503    0 -0.25423598791E+03  0.30632301863E+03  0.55624309525E+02  0.40194998831E+03  0.00000000000E+00 0. -1.
         -1    1    6    6    0  503 -0.16982172764E+03  0.11783604701E+03 -0.65834797719E+01  0.20680448583E+03  0.00000000000E+00 0.  1.
<mgrwt>
<rscale>  0 0.26174675E+04</rscale>
<asrwt>0</asrwt>
<pdfrwt beam="1">  1        2 0.26019529E+00 0.26174675E+04</pdfrwt>
<pdfrwt beam="2">  1       -1 0.15580323E+00 0.26174675E+04</pdfrwt>
<totfact> 0.31376603E+00</totfact>
</mgrwt>
</event>
<event>
12    7  0.1546317E-007  0.1764745E+04  0.7818608E-02  0.8725276E-01
         -1   -1    0    0    0  501 -0.00000000000E+00  0.00000000000E+00  0.56412779950E+03  0.56412779950E+03  0.00000000000E+00 0.  1.
          2   -1    0    0  501    0  0.00000000000E+00 -0.00000000000E+00 -0.13801505784E+04  0.13801505784E+04  0.00000000000E+00 0. -1.
         24    2    1    2    0    0  0.13572770599E+03  0.33504088235E+03 -0.89646539207E+03  0.96984753035E+03  0.79244116114E+02 0.  0.
        254    2    1    2    0    0 -0.13572770599E+03 -0.33504088235E+03  0.80442613186E+02  0.97443084753E+03  0.90131573801E+03 0.  0.
         23    2    4    4    0    0  0.22496038884E+03  0.84238795536E+02 -0.22173608249E+03  0.33852546631E+03  0.87916152330E+02 0.  0.
         23    2    4    4    0    0 -0.36068809484E+03 -0.41927967788E+03  0.30217869568E+03  0.63590538121E+03  0.84689666976E+02 0.  0.
          2    1    3    3  502    0  0.13562325560E+03  0.30948789452E+03 -0.86875137820E+03  0.93215094349E+03  0.00000000000E+00 0. -1.
         -1    1    3    3    0  502  0.10445038800E+00  0.25552987828E+02 -0.27714013864E+02  0.37696586865E+02  0.00000000000E+00 0.  1.
         13    1    5    5    0    0  0.53287031096E+02 -0.12345801539E+02 -0.75343652165E+02  0.93105276006E+02  0.00000000000E+00 0. -1.
        -13    1    5    5    0    0  0.17167335775E+03  0.96584597075E+02 -0.14639243033E+03  0.24542019031E+03  0.00000000000E+00 0.  1.
          1    1    6    6  503    0 -0.34862894159E+03 -0.37521172065E+03  0.29017831498E+03  0.58866750268E+03  0.00000000000E+00 0. -1.
         -1    1    6    6    0  503 -0.12059153250E+02 -0.44067957228E+02  0.12000380699E+02  0.47237878533E+02  0.00000000000E+00 0.  1.
<mgrwt>
<rscale>  0 0.17647451E+04</rscale>
<asrwt>0</asrwt>
<pdfrwt beam="1">  1        2 0.21233086E+00 0.17647451E+04</pdfrwt>
<pdfrwt beam="2">  1       -1 0.86788892E-01 0.17647451E+04</pdfrwt>
<totfact> 0.20972954E+01</totfact>
</mgrwt>
</event>
<event>
12    7  0.1546317E-007  0.3079974E+04  0.7818608E-02  0.8221255E-01
         -1   -1    0    0    0  501 -0.00000000000E+00  0.00000000000E+00  0.10568871196E+04  0.10568871196E+04  0.00000000000E+00 0.  1.
          2   -1    0    0  501    0  0.00000000000E+00 -0.00000000000E+00 -0.22439102169E+04  0.22439102169E+04  0.00000000000E+00 0. -1.
         24    2    1    2    0    0  0.13453096339E+03  0.13428528591E+04 -0.95791547564E+03  0.16568571831E+04  0.78875124594E+02 0.  0.
        254    2    1    2    0    0 -0.13453096339E+03 -0.13428528591E+04 -0.22910762161E+03  0.16439401534E+04  0.91032771256E+03 0.  0.
         23    2    4    4    0    0  0.13758492350E+03 -0.74631590290E+03  0.27426990247E+03  0.81226427255E+03  0.92909800179E+02 0.  0.
         23    2    4    4    0    0 -0.27211588689E+03 -0.59653695623E+03 -0.50337752408E+03  0.83167588084E+03  0.91610277663E+02 0.  0.
          2    1    3    3  502    0  0.59225796659E+02  0.30037788447E+03 -0.19788869035E+03  0.36454698221E+03  0.00000000000E+00 0. -1.
         -1    1    3    3    0  502  0.75305166734E+02  0.10424749747E+04 -0.76002678529E+03  0.12923102009E+04  0.00000000000E+00 0.  1.
         13    1    5    5    0    0  0.12887736755E+03 -0.52857918649E+03  0.16526482220E+03  0.56861040591E+03  0.00000000000E+00 0. -1.
        -13    1    5    5    0    0  0.87075559515E+01 -0.21773671641E+03  0.10900508027E+03  0.24365386664E+03  0.00000000000E+00 0.  1.
          1    1    6    6  503    0 -0.21125443409E+03 -0.37538794533E+03 -0.29788193218E+03  0.52371575396E+03  0.00000000000E+00 0. -1.
         -1    1    6    6    0  503 -0.60861452796E+02 -0.22114901090E+03 -0.20549559190E+03  0.30796012688E+03  0.00000000000E+00 0.  1.
<mgrwt>
<rscale>  0 0.30799739E+04</rscale>
<asrwt>0</asrwt>
<pdfrwt beam="1">  1        2 0.34521696E+00 0.30799739E+04</pdfrwt>
<pdfrwt beam="2">  1       -1 0.16259802E+00 0.30799739E+04</pdfrwt>
<totfact> 0.13172742E+00</totfact>
</mgrwt>
</event>
<event>
12    7  0.1546317E-007  0.2469717E+04  0.7818608E-02  0.8413854E-01
         -1   -1    0    0    0  501 -0.00000000000E+00  0.00000000000E+00  0.18070718669E+04  0.18070718669E+04  0.00000000000E+00 0.  1.
          2   -1    0    0  501    0  0.00000000000E+00 -0.00000000000E+00 -0.84383792396E+03  0.84383792396E+03  0.00000000000E+00 0. -1.
         24    2    1    2    0    0  0.99620024620E+03 -0.22493405809E+03  0.76312386776E+03  0.12773651407E+04  0.79330978780E+02 0.  0.
        254    2    1    2    0    0 -0.99620024620E+03  0.22493405809E+03  0.20011007520E+03  0.13735446501E+04  0.89642099636E+03 0.  0.
         23    2    4    4    0    0 -0.10427255843E+04  0.93978374753E+02 -0.72158571644E+02  0.10532931499E+04  0.90061208103E+02 0.  0.
         23    2    4    4    0    0  0.46525338094E+02  0.13095568334E+03  0.27226864685E+03  0.32025150019E+03  0.95481983832E+02 0.  0.
          2    1    3    3  502    0  0.54114566940E+03 -0.10505224627E+03  0.36684785394E+03  0.66215704927E+03  0.00000000000E+00 0. -1.
         -1    1    3    3    0  502  0.45505457680E+03 -0.11988181182E+03  0.39627601382E+03  0.61520809146E+03  0.00000000000E+00 0.  1.
         13    1    5    5    0    0 -0.10040177544E+04  0.10503000147E+03 -0.60155585187E+02  0.10112871238E+04  0.00000000000E+00 0.  1.
        -13    1    5    5    0    0 -0.38707829931E+02 -0.11051626715E+02 -0.12002986457E+02  0.42006026174E+02  0.00000000000E+00 0. -1.
          1    1    6    6  503    0  0.48229663610E+02  0.35290316699E+02  0.48780365041E+02  0.77142925263E+02  0.00000000000E+00 0. -1.
         -1    1    6    6    0  503 -0.17043255159E+01  0.95665366641E+02  0.22348828180E+03  0.24310857493E+03  0.00000000000E+00 0.  1.
<mgrwt>
<rscale>  0 0.24697172E+04</rscale>
<asrwt>0</asrwt>
<pdfrwt beam="1">  1        2 0.12982122E+00 0.24697172E+04</pdfrwt>
<pdfrwt beam="2">  1       -1 0.27801106E+00 0.24697172E+04</pdfrwt>
<totfact> 0.14986505E+00</totfact>
</mgrwt>
</event>
<event>
12    7  0.1546317E-007  0.2701512E+04  0.7818608E-02  0.8334515E-01
         -1   -1    0    0    0  501 -0.00000000000E+00  0.00000000000E+00  0.15073042725E+04  0.15073042725E+04  0.00000000000E+00 0.  1.
          2   -1    0    0  501    0  0.00000000000E+00 -0.00000000000E+00 -0.12104668025E+04  0.12104668025E+04  0.00000000000E+00 0. -1.
         24    2    1    2    0    0  0.65178551887E+01 -0.74072985289E+03 -0.81790109103E+03  0.11061262398E+04  0.76353560840E+02 0.  0.
        254    2    1    2    0    0 -0.65178551887E+01  0.74072985289E+03  0.11147385610E+04  0.16116448352E+04  0.89779386168E+03 0.  0.
         23    2    4    4    0    0 -0.77050755584E+02  0.13546430961E+03 -0.12934958281E+03  0.22325845533E+03  0.93944798624E+02 0.  0.
         23    2    4    4    0    0  0.70532900395E+02  0.60526554328E+03  0.12440881438E+04  0.13883863799E+04  0.92412998746E+02 0.  0.
          2    1    3    3  502    0 -0.53299236460E+01 -0.72476973922E+03 -0.79485176124E+03  0.10756899671E+04  0.00000000000E+00 0. -1.
         -1    1    3    3    0  502  0.11847778835E+02 -0.15960113673E+02 -0.23049329796E+02  0.30436272699E+02  0.00000000000E+00 0.  1.
         13    1    5    5    0    0 -0.41985411294E+02  0.21904449046E+00 -0.24893567829E+02  0.48810987095E+02  0.00000000000E+00 0.  1.
        -13    1    5    5    0    0 -0.35065344290E+02  0.13524526512E+03 -0.10445601498E+03  0.17444746823E+03  0.00000000000E+00 0. -1.
          3    1    6    6  503    0  0.44994785418E+02  0.33003500305E+03  0.78122127338E+03  0.84926692620E+03  0.00000000000E+00 0. -1.
         -3    1    6    6    0  503  0.25538114977E+02  0.27523054023E+03  0.46286687042E+03  0.53911945367E+03  0.00000000000E+00 0.  1.
<mgrwt>
<rscale>  0 0.27015120E+04</rscale>
<asrwt>0</asrwt>
<pdfrwt beam="1">  1        2 0.18622566E+00 0.27015120E+04</pdfrwt>
<pdfrwt beam="2">  1       -1 0.23189296E+00 0.27015120E+04</pdfrwt>
<totfact> 0.17112581E+00</totfact>
</mgrwt>
</event>
<event>
12    7  0.1546317E-007  0.1590514E+04  0.7818608E-02  0.8826397E-01
         -1   -1    0    0    0  501 -0.00000000000E+00  0.00000000000E+00  0.16309893722E+03  0.16309893722E+03  0.00000000000E+00 0.  1.
          2   -1    0    0  501    0  0.00000000000E+00 -0.00000000000E+00 -0.38776057256E+04  0.38776057256E+04  0.00000000000E+00 0. -1.
         24    2    1    2    0    0 -0.22425366712E+03 -0.42342842783E+03 -0.65527593199E+03  0.81678479343E+03  0.90385347380E+02 0.  0.
        254    2    1    2    0    0  0.22425366712E+03  0.42342842783E+03 -0.30592308564E+04  0.32239198694E+04  0.89732076252E+03 0.  0.
         23    2    4    4    0    0 -0.17195166526E+03  0.37439557930E+03 -0.61507266711E+03  0.74565836861E+03  0.89177305809E+02 0.  0.
         23    2    4    4    0    0  0.39620533238E+03  0.49032848527E+02 -0.24441581893E+04  0.24782615008E+04  0.92129942742E+02 0.  0.
          2    1    3    3  502    0 -0.13957868633E+03 -0.17093727968E+03 -0.31720067255E+03  0.38641691206E+03  0.00000000000E+00 0. -1.
         -1    1    3    3    0  502 -0.84674980784E+02 -0.25249114815E+03 -0.33807525944E+03  0.43036788137E+03  0.00000000000E+00 0.  1.
         13    1    5    5    0    0 -0.12007243641E+02  0.66123763998E+02 -0.15729629120E+03  0.17105159832E+03  0.00000000000E+00 0. -1.
        -13    1    5    5    0    0 -0.15994442162E+03  0.30827181531E+03 -0.45777637591E+03  0.57460677029E+03  0.00000000000E+00 0.  1.
          2    1    6    6  503    0  0.38853373619E+00  0.79490340429E+01 -0.12145989003E+03  0.12172034747E+03  0.00000000000E+00 0. -1.
         -2    1    6    6    0  503  0.39581679864E+03  0.41083814484E+02 -0.23226982993E+04  0.23565411534E+04  0.00000000000E+00 0.  1.
<mgrwt>
<rscale>  0 0.15905136E+04</rscale>
<asrwt>0</asrwt>
<pdfrwt beam="1">  1        2 0.59655471E+00 0.15905136E+04</pdfrwt>
<pdfrwt beam="2">  1       -1 0.25092145E-01 0.15905136E+04</pdfrwt>
<totfact> 0.66288321E+00</totfact>
</mgrwt>
</event>
<event>
12    7  0.1546317E-007  0.1226155E+04  0.7818608E-02  0.9090266E-01
         -1   -1    0    0    0  501 -0.00000000000E+00  0.00000000000E+00  0.41172281037E+03  0.41172281037E+03  0.00000000000E+00 0.  1.
          2   -1    0    0  501    0  0.00000000000E+00 -0.00000000000E+00 -0.91290535496E+03  0.91290535496E+03  0.00000000000E+00 0. -1.
         24    2    1    2    0    0 -0.18332393058E+01 -0.15033631093E+03 -0.35440822947E+03  0.39306239972E+03  0.79299998820E+02 0.  0.
        254    2    1    2    0    0  0.18332393058E+01  0.15033631093E+03 -0.14677431513E+03  0.93156576561E+03  0.90756140780E+03 0.  0.
         23    2    4    4    0    0  0.28429926264E+01  0.30729977425E+03 -0.46541899950E+03  0.56500414531E+03  0.90407993325E+02 0.  0.
         23    2    4    4    0    0 -0.10097533206E+01 -0.15696346333E+03  0.31864468437E+03  0.36656162030E+03  0.90523136153E+02 0.  0.
          2    1    3    3  502    0 -0.28415034241E+02 -0.10700071431E+03 -0.29373385523E+03  0.31390467461E+03  0.00000000000E+00 0. -1.
         -1    1    3    3    0  502  0.26581794935E+02 -0.43335596613E+02 -0.60674374235E+02  0.79157725110E+02  0.00000000000E+00 0.  1.
         13    1    5    5    0    0  0.13751077863E+02  0.83096392121E+01 -0.68534999525E+01  0.17467475714E+02  0.00000000000E+00 0. -1.
        -13    1    5    5    0    0 -0.10908085236E+02  0.29899013504E+03 -0.45856549955E+03  0.54753666959E+03  0.00000000000E+00 0.  1.
          4    1    6    6  503    0  0.37844901188E+02 -0.35920740164E+02  0.11818068289E+03  0.12918672505E+03  0.00000000000E+00 0. -1.
         -4    1    6    6    0  503 -0.38854654508E+02 -0.12104272316E+03  0.20046400148E+03  0.23737489525E+03  0.00000000000E+00 0.  1.
<mgrwt>
<rscale>  0 0.12261549E+04</rscale>
<asrwt>0</asrwt>
<pdfrwt beam="1">  1        2 0.14044698E+00 0.12261549E+04</pdfrwt>
<pdfrwt beam="2">  1       -1 0.63341971E-01 0.12261549E+04</pdfrwt>
<totfact> 0.81670245E+01</totfact>
</mgrwt>
</event>
<event>
12    7  0.1546317E-007  0.1613521E+04  0.7818608E-02  0.8812285E-01
         -1   -1    0    0    0  501 -0.00000000000E+00  0.00000000000E+00  0.29089630709E+03  0.29089630709E+03  0.00000000000E+00 0.  1.
          2   -1    0    0  501    0  0.00000000000E+00 -0.00000000000E+00 -0.22374372437E+04  0.22374372437E+04  0.00000000000E+00 0. -1.
         24    2    1    2    0    0  0.36051557600E+03 -0.18538854684E+03 -0.12195302660E+04  0.12878591946E+04  0.83587328537E+02 0.  0.
        254    2    1    2    0    0 -0.36051557600E+03  0.18538854684E+03 -0.72701067061E+03  0.12404743562E+04  0.91972371908E+03 0.  0.
         23    2    4    4    0    0 -0.63015551907E+02  0.10512291034E+03 -0.87392135570E+03  0.88738419996E+03  0.93222295217E+02 0.  0.
         23    2    4    4    0    0 -0.29750002410E+03  0.80265636492E+02  0.14691068509E+03  0.35309015627E+03  0.90227891061E+02 0.  0.
          4    1    3    3  502    0  0.86116596785E+02 -0.46939368535E+02 -0.41974924289E+03  0.43105544825E+03  0.00000000000E+00 0. -1.
         -3    1    3    3    0  502  0.27439897922E+03 -0.13844917830E+03 -0.79978102314E+03  0.85680374634E+03  0.00000000000E+00 0.  1.
         13    1    5    5    0    0 -0.66618625910E+01 -0.11039697891E+02 -0.24542479051E+03  0.24576326646E+03  0.00000000000E+00 0.  1.
        -13    1    5    5    0    0 -0.56353689316E+02  0.11616260823E+03 -0.62849656519E+03  0.64162093350E+03  0.00000000000E+00 0. -1.
          1    1    6    6  503    0 -0.10669502777E+03  0.27915170940E+01  0.89534237365E+02  0.13931260237E+03  0.00000000000E+00 0. -1.
         -1    1    6    6    0  503 -0.19080499633E+03  0.77474119398E+02  0.57376447724E+02  0.21377755391E+03  0.00000000000E+00 0.  1.
<mgrwt>
<rscale>  0 0.16135207E+04</rscale>
<asrwt>0</asrwt>
<pdfrwt beam="1">  1        2 0.34422112E+00 0.16135207E+04</pdfrwt>
<pdfrwt beam="2">  1       -1 0.44753277E-01 0.16135207E+04</pdfrwt>
<totfact> 0.26576101E+01</totfact>
</mgrwt>
</event>
<event>
12    7  0.1546317E-007  0.4234174E+04  0.7818608E-02  0.7958903E-01
         -1   -1    0    0    0  501 -0.00000000000E+00  0.00000000000E+00  0.19488983414E+04  0.19488983414E+04  0.00000000000E+00 0.  1.
          2   -1    0    0  501    0  0.00000000000E+00 -0.00000000000E+00 -0.22997904416E+04  0.22997904416E+04  0.00000000000E+00 0. -1.
         24    2    1    2    0    0  0.57178577907E+03  0.19215950946E+04 -0.41542490067E+03  0.20496172518E+04  0.94267417651E+02 0.  0.
        254    2    1    2    0    0 -0.57178577907E+03 -0.19215950946E+04  0.64532800518E+02  0.21990715312E+04  0.90126823539E+03 0.  0.
         23    2    4    4    0    0 -0.47948981785E+03 -0.16216394123E+04  0.38850687047E+03  0.17375711387E+04  0.92687672553E+02 0.  0.
         23    2    4    4    0    0 -0.92295961220E+02 -0.29995568228E+03 -0.32397406996E+03  0.46150039246E+03  0.97629188514E+02 0.  0.
          4    1    3    3  502    0  0.39102044784E+03  0.13864821915E+04 -0.33609618216E+03  0.14792533595E+04  0.00000000000E+00 0. -1.
         -3    1    3    3    0  502  0.18076533122E+03  0.53511290314E+03 -0.79328718513E+02  0.57036389231E+03  0.00000000000E+00 0.  1.
         13    1    5    5    0    0 -0.44545239266E+03 -0.15680429176E+04  0.37346830260E+03  0.16723232339E+04  0.00000000000E+00 0.  1.
        -13    1    5    5    0    0 -0.34037425184E+02 -0.53596494763E+02  0.15038567873E+02  0.65247904853E+02  0.00000000000E+00 0. -1.
          2    1    6    6  503    0 -0.48948317908E+02 -0.58504991114E+02 -0.39626563702E+02  0.85959504198E+02  0.00000000000E+00 0. -1.
         -2    1    6    6    0  503 -0.43347643312E+02 -0.24145069117E+03 -0.28434750625E+03  0.37554088827E+03  0.00000000000E+00 0.  1.
<mgrwt>
<rscale>  0 0.42341742E+04</rscale>
<asrwt>0</asrwt>
<pdfrwt beam="1">  1        2 0.35381391E+00 0.42341742E+04</pdfrwt>
<pdfrwt beam="2">  1       -1 0.29983051E+00 0.42341742E+04</pdfrwt>
<totfact> 0.13218636E-01</totfact>
</mgrwt>
</event>
<event>
12    7  0.1546317E-007  0.1252589E+04  0.7818608E-02  0.9068032E-01
         -1   -1    0    0    0  501 -0.00000000000E+00  0.00000000000E+00  0.28016787727E+03  0.28016787727E+03  0.00000000000E+00 0.  1.
          2   -1    0    0  501    0  0.00000000000E+00 -0.00000000000E+00 -0.14000340175E+04  0.14000340175E+04  0.00000000000E+00 0. -1.
         24    2    1    2    0    0 -0.18585493901E+03  0.36167146140E+02 -0.57306766114E+03  0.60894187578E+03  0.80953956160E+02 0.  0.
        254    2    1    2    0    0  0.18585493901E+03 -0.36167146140E+02 -0.54679847904E+03  0.10712600190E+04  0.90153165818E+03 0.  0.
         23    2    4    4    0    0 -0.33338114610E+03  0.23507394316E+02 -0.60191162567E+02  0.35162875217E+03  0.91237147814E+02 0.  0.
         23    2    4    4    0    0  0.51923608510E+03 -0.59674540455E+02 -0.48660731648E+03  0.71963126678E+03  0.88968066340E+02 0.  0.
          4    1    3    3  502    0 -0.14549127881E+03  0.28337799266E+02 -0.52580333737E+03  0.54629652448E+03  0.00000000000E+00 0. -1.
         -3    1    3    3    0  502 -0.40363660200E+02  0.78293468732E+01 -0.47264323778E+02  0.62645351299E+02  0.00000000000E+00 0.  1.
         13    1    5    5    0    0 -0.73267497916E+02 -0.32060643346E+01  0.23613635575E+02  0.77045498794E+02  0.00000000000E+00 0.  1.
        -13    1    5    5    0    0 -0.26011364818E+03  0.26713458650E+02 -0.83804798141E+02  0.27458325338E+03  0.00000000000E+00 0. -1.
          2    1    6    6  503    0  0.30311149287E+02 -0.25783309944E+02 -0.30588098626E+02  0.50191399864E+02  0.00000000000E+00 0. -1.
         -2    1    6    6    0  503  0.48892493582E+03 -0.33891230511E+02 -0.45601921785E+03  0.66943986692E+03  0.00000000000E+00 0.  1.
<mgrwt>
<rscale>  0 0.12525886E+04</rscale>
<asrwt>0</asrwt>
<pdfrwt beam="1">  1        2 0.21538985E+00 0.12525886E+04</pdfrwt>
<pdfrwt beam="2">  1       -1 0.43102750E-01 0.12525886E+04</pdfrwt>
<totfact> 0.86014412E+01</totfact>
</mgrwt>
</event>
<event>
12    7  0.1546317E-007  0.1910213E+04  0.7818608E-02  0.8649789E-01
          2   -1    0    0  501    0  0.00000000000E+00  0.00000000000E+00  0.15232514655E+04  0.15232514655E+04  0.00000000000E+00 0. -1.
         -1   -1    0    0    0  501 -0.00000000000E+00 -0.00000000000E+00 -0.59886920931E+03  0.59886920931E+03  0.00000000000E+00 0.  1.
         24    2    1    2    0    0  0.41623142568E+03  0.22432335816E+03  0.98087197526E+03  0.10918349287E+04  0.80150551851E+02 0.  0.
        254    2    1    2    0    0 -0.41623142568E+03 -0.22432335816E+03 -0.56489719044E+02  0.10302857461E+04  0.91363453393E+03 0.  0.
         23    2    4    4    0    0  0.58527452138E+02 -0.24695601233E+03  0.31705812123E+03  0.41912599657E+03  0.10357612698E+03 0.  0.
         23    2    4    4    0    0 -0.47475887782E+03  0.22632654171E+02 -0.37354784028E+03  0.61115974956E+03  0.89833297868E+02 0.  0.
          2    1    3    3  502    0  0.26930939417E+03  0.18313508209E+03  0.70460419653E+03  0.77623004441E+03  0.00000000000E+00 0. -1.
         -1    1    3    3    0  502  0.14692203151E+03  0.41188276072E+02  0.27626777872E+03  0.31560488430E+03  0.00000000000E+00 0.  1.
         13    1    5    5    0    0  0.37280793886E+02 -0.13440976717E+02  0.47024346322E+02  0.61496394975E+02  0.00000000000E+00 0.  1.
        -13    1    5    5    0    0  0.21246658252E+02 -0.23351503561E+03  0.27003377491E+03  0.35762960160E+03  0.00000000000E+00 0. -1.
          1    1    6    6  503    0 -0.37299115578E+03  0.53985527128E+02 -0.28150296032E+03  0.47040488528E+03  0.00000000000E+00 0. -1.
         -1    1    6    6    0  503 -0.10176772204E+03 -0.31352872957E+02 -0.92044879961E+02  0.14075486428E+03  0.00000000000E+00 0.  1.
<mgrwt>
<rscale>  0 0.19102130E+04</rscale>
<asrwt>0</asrwt>
<pdfrwt beam="1">  1        2 0.23434638E+00 0.19102130E+04</pdfrwt>
<pdfrwt beam="2">  1       -1 0.92133725E-01 0.19102130E+04</pdfrwt>
<totfact> 0.15058545E+01</totfact>
</mgrwt>
</event>
<event>
12    7  0.1546317E-007  0.1377999E+04  0.7818608E-02  0.8969899E-01
         -1   -1    0    0    0  501 -0.00000000000E+00  0.00000000000E+00  0.48435728446E+03  0.48435728446E+03  0.00000000000E+00 0.  1.
          2   -1    0    0  501    0  0.00000000000E+00 -0.00000000000E+00 -0.98010429092E+03  0.98010429092E+03  0.00000000000E+00 0. -1.
         24    2    1    2    0    0  0.31940803083E+03  0.10915981185E+03  0.70637432711E+02  0.35251404262E+03  0.73069478286E+02 0.  0.
        254    2    1    2    0    0 -0.31940803083E+03 -0.10915981185E+03 -0.56638443917E+03  0.11119475328E+04  0.89537624941E+03 0.  0.
         23    2    4    4    0    0  0.13986866544E+03  0.29318939910E+03 -0.23180546506E+03  0.40951988370E+03  0.91921130320E+02 0.  0.
         23    2    4    4    0    0 -0.45927669627E+03 -0.40234921095E+03 -0.33457897411E+03  0.70242764907E+03  0.92959889025E+02 0.  0.
          4    1    3    3  502    0 -0.30981995949E+01  0.42230903458E+01  0.46526711365E+01  0.70057605942E+01  0.00000000000E+00 0. -1.
         -3    1    3    3    0  502  0.32250623043E+03  0.10493672150E+03  0.65984761574E+02  0.34550828202E+03  0.00000000000E+00 0.  1.
         13    1    5    5    0    0  0.73449059798E+02  0.10761653843E+03 -0.14263592725E+03  0.19318667519E+03  0.00000000000E+00 0. -1.
        -13    1    5    5    0    0  0.66419605640E+02  0.18557286067E+03 -0.89169537802E+02  0.21633320850E+03  0.00000000000E+00 0.  1.
          4    1    6    6  503    0 -0.42926055589E+03 -0.39804107564E+03 -0.32923207622E+03  0.67163612377E+03  0.00000000000E+00 0.  1.
         -4    1    6    6    0  503 -0.30016140379E+02 -0.43081353074E+01 -0.53468978970E+01  0.30791525298E+02  0.00000000000E+00 0. -1.
<mgrwt>
<rscale>  0 0.13779995E+04</rscale>
<asrwt>0</asrwt>
<pdfrwt beam="1">  1        2 0.15078528E+00 0.13779995E+04</pdfrwt>
<pdfrwt beam="2">  1       -1 0.74516505E-01 0.13779995E+04</pdfrwt>
<totfact> 0.52310744E+01</totfact>
</mgrwt>
</event>
<event>
12    7  0.1546317E-007  0.2804823E+04  0.7818608E-02  0.8301773E-01
          2   -1    0    0  501    0  0.00000000000E+00  0.00000000000E+00  0.44449886383E+04  0.44449886383E+04  0.00000000000E+00 0. -1.
         -1   -1    0    0    0  501 -0.00000000000E+00 -0.00000000000E+00 -0.44246640575E+03  0.44246640575E+03  0.00000000000E+00 0.  1.
         24    2    1    2    0    0 -0.15609926976E+02  0.54414322670E+03 -0.17679049664E+03  0.57799899417E+03  0.80575657506E+02 0.  0.
        254    2    1    2    0    0  0.15609926976E+02 -0.54414322670E+03  0.41793127292E+04  0.43094560499E+04  0.89912237015E+03 0.  0.
         23    2    4    4    0    0  0.34430673418E+03  0.28096662705E+02  0.10231078193E+04  0.10837312615E+04  0.91582135665E+02 0.  0.
         23    2    4    4    0    0 -0.32869680721E+03 -0.57223988940E+03  0.31562049099E+04  0.32257247884E+04  0.90393003507E+02 0.  0.
          4    1    3    3  502    0 -0.10923524689E+01  0.31624375765E+00  0.44416915505E+01  0.45849610533E+01  0.00000000000E+00 0. -1.
         -3    1    3    3    0  502 -0.14517574507E+02  0.54382698294E+03 -0.18123218819E+03  0.57341403312E+03  0.00000000000E+00 0.  1.
         13    1    5    5    0    0  0.76983103880E+02  0.31669709283E+02  0.16290910565E+03  0.18294465140E+03  0.00000000000E+00 0. -1.
        -13    1    5    5    0    0  0.26732363030E+03 -0.35730465775E+01  0.86019871364E+03  0.90078661010E+03  0.00000000000E+00 0.  1.
          4    1    6    6  503    0 -0.63360042269E+02 -0.13571812043E+03  0.90303433079E+03  0.91537145780E+03  0.00000000000E+00 0. -1.
         -4    1    6    6    0  503 -0.26533676494E+03 -0.43652176897E+03  0.22531705791E+04  0.23103533306E+04  0.00000000000E+00 0.  1.
<mgrwt>
<rscale>  0 0.28048231E+04</rscale>
<asrwt>0</asrwt>
<pdfrwt beam="1">  1        2 0.68384437E+00 0.28048231E+04</pdfrwt>
<pdfrwt beam="2">  1       -1 0.68071758E-01 0.28048231E+04</pdfrwt>
<totfact> 0.30093040E-01</totfact>
</mgrwt>
</event>
<event>
12    7  0.1546317E-007  0.1337461E+04  0.7818608E-02  0.9000375E-01
         -1   -1    0    0    0  501 -0.00000000000E+00  0.00000000000E+00  0.63335893723E+03  0.63335893723E+03  0.00000000000E+00 0.  1.
          2   -1    0    0  501    0  0.00000000000E+00 -0.00000000000E+00 -0.70607749255E+03  0.70607749255E+03  0.00000000000E+00 0. -1.
         24    2    1    2    0    0 -0.10538502628E+03 -0.32372271136E+03 -0.11414583557E+03  0.36820256246E+03  0.81495138542E+02 0.  0.
        254    2    1    2    0    0  0.10538502628E+03  0.32372271136E+03  0.41427280251E+02  0.97123386733E+03  0.90866749028E+03 0.  0.
         23    2    4    4    0    0  0.43651337864E+03  0.29847289654E+03  0.22371475945E+03  0.58146704093E+03  0.91791210842E+02 0.  0.
         23    2    4    4    0    0 -0.33112835236E+03  0.25249814819E+02 -0.18228747920E+03  0.38976682640E+03  0.91683777184E+02 0.  0.
          2    1    3    3  502    0 -0.35819710696E+02 -0.39507669589E+02 -0.39102560475E+02  0.66128041453E+02  0.00000000000E+00 0. -1.
         -1    1    3    3    0  502 -0.69565315581E+02 -0.28421504177E+03 -0.75043275091E+02  0.30207452100E+03  0.00000000000E+00 0.  1.
         13    1    5    5    0    0  0.50548942220E+02  0.45477397963E+02  0.63271808672E+02  0.92880089673E+02  0.00000000000E+00 0. -1.
        -13    1    5    5    0    0  0.38596443642E+03  0.25299549858E+03  0.16044295078E+03  0.48858695126E+03  0.00000000000E+00 0.  1.
          1    1    6    6  503    0 -0.75804982540E+02 -0.61484414714E+01 -0.28243216200E+01  0.76106343382E+02  0.00000000000E+00 0. -1.
         -1    1    6    6    0  503 -0.25532336983E+03  0.31398256291E+02 -0.17946315758E+03  0.31366048302E+03  0.00000000000E+00 0.  1.
<mgrwt>
<rscale>  0 0.13374610E+04</rscale>
<asrwt>0</asrwt>
<pdfrwt beam="1">  1        2 0.10862731E+00 0.13374610E+04</pdfrwt>
<pdfrwt beam="2">  1       -1 0.97439837E-01 0.13374610E+04</pdfrwt>
<totfact> 0.45779188E+01</totfact>
</mgrwt>
</event>
<event>
12    7  0.1546317E-007  0.2393907E+04  0.7818608E-02  0.8441788E-01
         -1   -1    0    0    0  501 -0.00000000000E+00  0.00000000000E+00  0.72316676613E+03  0.72316676613E+03  0.00000000000E+00 0.  1.
          2   -1    0    0  501    0  0.00000000000E+00 -0.00000000000E+00 -0.19811450501E+04  0.19811450501E+04  0.00000000000E+00 0. -1.
         24    2    1    2    0    0  0.36724913742E+03 -0.31564445249E+03 -0.15618561342E+04  0.16372649700E+04  0.82089272582E+02 0.  0.
        254    2    1    2    0    0 -0.36724913742E+03  0.31564445249E+03  0.30387785027E+03  0.10670468462E+04  0.90096829844E+03 0.  0.
         23    2    4    4    0    0 -0.62050479410E+03  0.14788617965E+03  0.24702102605E+02  0.64413737173E+03  0.86059503534E+02 0.  0.
         23    2    4    4    0    0  0.25325565668E+03  0.16775827284E+03  0.27917574766E+03  0.42290947448E+03  0.92908878884E+02 0.  0.
          4    1    3    3  502    0  0.21736549455E+03 -0.17291924846E+03 -0.76125688127E+03  0.81034613838E+03  0.00000000000E+00 0. -1.
         -3    1    3    3    0  502  0.14988364287E+03 -0.14272520403E+03 -0.80059925295E+03  0.82691883162E+03  0.00000000000E+00 0.  1.
         13    1    5    5    0    0 -0.44407144643E+03  0.10731285388E+03 -0.21284825621E+02  0.45734947463E+03  0.00000000000E+00 0. -1.
        -13    1    5    5    0    0 -0.17643334767E+03  0.40573325764E+02  0.45986928225E+02  0.18678789710E+03  0.00000000000E+00 0.  1.
          1    1    6    6  503    0  0.18442680606E+03  0.92820207395E+02  0.23256620603E+03  0.31099176497E+03  0.00000000000E+00 0. -1.
         -1    1    6    6    0  503  0.68828850622E+02  0.74938065445E+02  0.46609541637E+02  0.11191770951E+03  0.00000000000E+00 0.  1.
<mgrwt>
<rscale>  0 0.23939075E+04</rscale>
<asrwt>0</asrwt>
<pdfrwt beam="1">  1        2 0.30479154E+00 0.23939075E+04</pdfrwt>
<pdfrwt beam="2">  1       -1 0.11125643E+00 0.23939075E+04</pdfrwt>
<totfact> 0.52058035E+00</totfact>
</mgrwt>
</event>
<event>
12    7  0.1546317E-007  0.1380174E+04  0.7818608E-02  0.8968296E-01
         -1   -1    0    0    0  501 -0.00000000000E+00  0.00000000000E+00  0.10841837431E+03  0.10841837431E+03  0.00000000000E+00 0.  1.
          2   -1    0    0  501    0  0.00000000000E+00 -0.00000000000E+00 -0.43924264966E+04  0.43924264966E+04  0.00000000000E+00 0. -1.
         24    2    1    2    0    0  0.21975368074E+03 -0.31352561342E+03 -0.96889963936E+03  0.10447982514E+04  0.79037235403E+02 0.  0.
        254    2    1    2    0    0 -0.21975368074E+03  0.31352561342E+03 -0.33151084830E+04  0.34560466195E+04  0.89873466155E+03 0.  0.
         23    2    4    4    0    0 -0.31070839493E+03  0.47464548745E+03 -0.31190254658E+04  0.31713618377E+04  0.85953497140E+02 0.  0.
         23    2    4    4    0    0  0.90954714191E+02 -0.16111987403E+03 -0.19608301717E+03  0.28468478184E+03  0.91457648927E+02 0.  0.
          4    1    3    3  502    0  0.68066300778E+02 -0.10035342916E+03 -0.21564070321E+03  0.24739592747E+03  0.00000000000E+00 0. -1.
         -3    1    3    3    0  502  0.15168737996E+03 -0.21317218426E+03 -0.75325893615E+03  0.79740232397E+03  0.00000000000E+00 0.  1.
         13    1    5    5    0    0 -0.11562363895E+02  0.38810534974E+02 -0.34951867649E+03  0.35185686166E+03  0.00000000000E+00 0. -1.
        -13    1    5    5    0    0 -0.29914603104E+03  0.43583495247E+03 -0.27695067893E+04  0.28195049760E+04  0.00000000000E+00 0.  1.
          3    1    6    6  503    0 -0.33732488822E+01  0.76138572133E+01 -0.25661367460E+02  0.26978795555E+02  0.00000000000E+00 0. -1.
         -3    1    6    6    0  503  0.94327963074E+02 -0.16873373124E+03 -0.17042164971E+03  0.25770598628E+03  0.00000000000E+00 0.  1.
<mgrwt>
<rscale>  0 0.13801735E+04</rscale>
<asrwt>0</asrwt>
<pdfrwt beam="1">  1        2 0.67575784E+00 0.13801735E+04</pdfrwt>
<pdfrwt beam="2">  1       -1 0.16679752E-01 0.13801735E+04</pdfrwt>
<totfact> 0.49833805E+00</totfact>
</mgrwt>
</event>
<event>
12    7  0.1546317E-007  0.2340443E+04  0.7818608E-02  0.8462143E-01
          2   -1    0    0  501    0  0.00000000000E+00  0.00000000000E+00  0.16460886151E+04  0.16460886151E+04  0.00000000000E+00 0. -1.
         -1   -1    0    0    0  501 -0.00000000000E+00 -0.00000000000E+00 -0.83192288739E+03  0.83192288739E+03  0.00000000000E+00 0.  1.
         24    2    1    2    0    0  0.35638038782E+03 -0.65660090634E+03 -0.34870409891E+03  0.82832472185E+03  0.79972277796E+02 0.  0.
        254    2    1    2    0    0 -0.35638038782E+03  0.65660090634E+03  0.11628698266E+04  0.16496867806E+04  0.90059342073E+03 0.  0.
         23    2    4    4    0    0 -0.32428908519E+03  0.54893988696E+03  0.12985697572E+04  0.14496907537E+04  0.93922610283E+02 0.  0.
         23    2    4    4    0    0 -0.32091302624E+02  0.10766101937E+03 -0.13569993065E+03  0.19999602688E+03  0.94674140044E+02 0.  0.
          4    1    3    3  502    0  0.15674888347E+03 -0.30555423536E+03 -0.11735981201E+03  0.36291449225E+03  0.00000000000E+00 0. -1.
         -3    1    3    3    0  502  0.19963150435E+03 -0.35104667098E+03 -0.23134428690E+03  0.46541022960E+03  0.00000000000E+00 0.  1.
         13    1    5    5    0    0 -0.20995353151E+02  0.60711242031E+01  0.32732839401E+02  0.39358635371E+02  0.00000000000E+00 0. -1.
        -13    1    5    5    0    0 -0.30329373204E+03  0.54286876276E+03  0.12658369178E+04  0.14103321183E+04  0.00000000000E+00 0.  1.
          4    1    6    6  503    0 -0.17016811066E+02 -0.15263777961E+02 -0.25156245714E+02  0.33991049923E+02  0.00000000000E+00 0. -1.
         -4    1    6    6    0  503 -0.15074491558E+02  0.12292479733E+03 -0.11054368494E+03  0.16600497696E+03  0.00000000000E+00 0.  1.
<mgrwt>
<rscale>  0 0.23404434E+04</rscale>
<asrwt>0</asrwt>
<pdfrwt beam="1">  1        2 0.25324440E+00 0.23404434E+04</pdfrwt>
<pdfrwt beam="2">  1       -1 0.12798814E+00 0.23404434E+04</pdfrwt>
<totfact> 0.57046145E+00</totfact>
</mgrwt>
</event>
<event>
12    7  0.1546317E-007  0.1149100E+04  0.7818608E-02  0.9158614E-01
          2   -1    0    0  501    0  0.00000000000E+00  0.00000000000E+00  0.24020960846E+03  0.24020960846E+03  0.00000000000E+00 0. -1.
         -1   -1    0    0    0  501 -0.00000000000E+00 -0.00000000000E+00 -0.13742486491E+04  0.13742486491E+04  0.00000000000E+00 0.  1.
         24    2    1    2    0    0 -0.12252341914E+03  0.19033458545E+03 -0.33823676934E+03  0.41478647222E+03  0.80027887318E+02 0.  0.
        254    2    1    2    0    0  0.12252341914E+03 -0.19033458545E+03 -0.79580227134E+03  0.11996717854E+04  0.86871853607E+03 0.  0.
         23    2    4    4    0    0  0.89567449651E+02 -0.30965829659E+03  0.50753764657E+02  0.33910199907E+03  0.92215142265E+02 0.  0.
         23    2    4    4    0    0  0.32955969491E+02  0.11932371114E+03 -0.84655603600E+03  0.86056978631E+03  0.92730745013E+02 0.  0.
          4    1    3    3  502    0 -0.52404904563E+02  0.10725601535E+03 -0.11156007625E+03  0.16338842512E+03  0.00000000000E+00 0. -1.
         -3    1    3    3    0  502 -0.70118514580E+02  0.83078570105E+02 -0.22667669309E+03  0.25139804710E+03  0.00000000000E+00 0.  1.
         13    1    5    5    0    0  0.12276890209E+02  0.19084385000E+01  0.90999640443E+01  0.15400438835E+02  0.00000000000E+00 0.  1.
        -13    1    5    5    0    0  0.77290559442E+02 -0.31156673509E+03  0.41653800613E+02  0.32370156023E+03  0.00000000000E+00 0. -1.
          1    1    6    6  503    0  0.78459545032E+01  0.12473740081E+03 -0.61344134925E+03  0.62604414152E+03  0.00000000000E+00 0. -1.
         -1    1    6    6    0  503  0.25110014988E+02 -0.54136896772E+01 -0.23311468675E+03  0.23452564479E+03  0.00000000000E+00 0.  1.
<mgrwt>
<rscale>  0 0.11491000E+04</rscale>
<asrwt>0</asrwt>
<pdfrwt beam="1">  1        2 0.36955325E-01 0.11491000E+04</pdfrwt>
<pdfrwt beam="2">  1       -1 0.21142286E+00 0.11491000E+04</pdfrwt>
<totfact> 0.20110906E+01</totfact>
</mgrwt>
</event>
<event>
12    7  0.1546317E-007  0.1734781E+04  0.7818608E-02  0.8741772E-01
         -1   -1    0    0    0  501 -0.00000000000E+00  0.00000000000E+00  0.57334942251E+03  0.57334942251E+03  0.00000000000E+00 0.  1.
          2   -1    0    0  501    0  0.00000000000E+00 -0.00000000000E+00 -0.13122299041E+04  0.13122299041E+04  0.00000000000E+00 0. -1.
         24    2    1    2    0    0 -0.59633202390E+02  0.18565177189E+03  0.37700901184E+03  0.43227528082E+03  0.81874441448E+02 0.  0.
        254    2    1    2    0    0  0.59633202390E+02 -0.18565177189E+03 -0.11158894934E+04  0.14533040457E+04  0.91041780995E+03 0.  0.
         23    2    4    4    0    0 -0.17142129294E+03 -0.35899275664E+03 -0.10721411938E+04  0.11472375607E+04  0.91685451768E+02 0.  0.
         23    2    4    4    0    0  0.23105449533E+03  0.17334098474E+03 -0.43748299548E+02  0.30606648508E+03  0.91266109659E+02 0.  0.
          4    1    3    3  502    0  0.11652075563E+02  0.23608579258E+02  0.17705145573E+02  0.31727087154E+02  0.00000000000E+00 0. -1.
         -3    1    3    3    0  502 -0.71285277953E+02  0.16204319264E+03  0.35930386627E+03  0.40054819366E+03  0.00000000000E+00 0.  1.
         13    1    5    5    0    0 -0.10545933483E+03 -0.29028806488E+03 -0.74414012217E+03  0.80568812412E+03  0.00000000000E+00 0.  1.
        -13    1    5    5    0    0 -0.65961958115E+02 -0.68704691754E+02 -0.32800107167E+03  0.34154943654E+03  0.00000000000E+00 0. -1.
          4    1    6    6  503    0  0.22397655519E+03  0.12999404134E+03 -0.39053975067E+02  0.26189532456E+03  0.00000000000E+00 0. -1.
         -4    1    6    6    0  503  0.70779401385E+01  0.43346943406E+02 -0.46943244812E+01  0.44171160518E+02  0.00000000000E+00 0.  1.
<mgrwt>
<rscale>  0 0.17347810E+04</rscale>
<asrwt>0</asrwt>
<pdfrwt beam="1">  1        2 0.20188152E+00 0.17347810E+04</pdfrwt>
<pdfrwt beam="2">  1       -1 0.88207604E-01 0.17347810E+04</pdfrwt>
<totfact> 0.22214550E+01</totfact>
</mgrwt>
</event>
<event>
12    7  0.1546317E-007  0.2392366E+04  0.7818608E-02  0.8442367E-01
         -1   -1    0    0    0  501 -0.00000000000E+00  0.00000000000E+00  0.40765574617E+03  0.40765574617E+03  0.00000000000E+00 0.  1.
          2   -1    0    0  501    0  0.00000000000E+00 -0.00000000000E+00 -0.35099551545E+04  0.35099551545E+04  0.00000000000E+00 0. -1.
         24    2    1    2    0    0 -0.99486814942E+03 -0.18864581129E+03 -0.10906041155E+04  0.14903796733E+04  0.80401225744E+02 0.  0.
        254    2    1    2    0    0  0.99486814942E+03  0.18864581129E+03 -0.20116952929E+04  0.24272312274E+04  0.90508762164E+03 0.  0.
         23    2    4    4    0    0  0.46160669087E+03  0.37579087682E+03 -0.16311932783E+04  0.17387915183E+04  0.91131293987E+02 0.  0.
         23    2    4    4    0    0  0.53326145856E+03 -0.18714506553E+03 -0.38050201457E+03  0.68843970907E+03  0.98875635037E+02 0.  0.
          4    1    3    3  502    0 -0.11637898533E+02 -0.55688814307E+01 -0.29669361980E+02  0.32353116742E+02  0.00000000000E+00 0. -1.
         -3    1    3    3    0  502 -0.98323025089E+03 -0.18307692986E+03 -0.10609347535E+04  0.14580265566E+04  0.00000000000E+00 0.  1.
         13    1    5    5    0    0  0.14214296897E+03  0.74532613198E+02 -0.36881640735E+03  0.40222540495E+03  0.00000000000E+00 0. -1.
        -13    1    5    5    0    0  0.31946372190E+03  0.30125826362E+03 -0.12623768709E+04  0.13365661133E+04  0.00000000000E+00 0.  1.
          3    1    6    6  503    0  0.12193224195E+03 -0.32449926141E+02 -0.39552638379E+02  0.13223040700E+03  0.00000000000E+00 0. -1.
         -3    1    6    6    0  503  0.41132921661E+03 -0.15469513938E+03 -0.34094937619E+03  0.55620930207E+03  0.00000000000E+00 0.  1.
<mgrwt>
<rscale>  0 0.23923657E+04</rscale>
<asrwt>0</asrwt>
<pdfrwt beam="1">  1        2 0.53999308E+00 0.23923657E+04</pdfrwt>
<pdfrwt beam="2">  1       -1 0.62716271E-01 0.23923657E+04</pdfrwt>
<totfact> 0.21157684E+00</totfact>
</mgrwt>
</event>
<event>
12    7  0.1546317E-007  0.1937872E+04  0.7818608E-02  0.8636232E-01
         -1   -1    0    0    0  501 -0.00000000000E+00  0.00000000000E+00  0.50782435248E+03  0.50782435248E+03  0.00000000000E+00 0.  1.
          2   -1    0    0  501    0  0.00000000000E+00 -0.00000000000E+00 -0.18487425996E+04  0.18487425996E+04  0.00000000000E+00 0. -1.
         24    2    1    2    0    0  0.35237957180E+02 -0.26735368945E+03 -0.13836077838E+04  0.14118463377E+04  0.78866171387E+02 0.  0.
        254    2    1    2    0    0 -0.35237957180E+02  0.26735368945E+03  0.42689536666E+02  0.94472061439E+03  0.90440860999E+03 0.  0.
         23    2    4    4    0    0  0.25242436988E+03  0.14327501621E+03 -0.33032158923E+03  0.44862420702E+03  0.88913070075E+02 0.  0.
         23    2    4    4    0    0 -0.28766232706E+03  0.12407867324E+03  0.37301112590E+03  0.49609640737E+03  0.93963896257E+02 0.  0.
          4    1    3    3  502    0  0.56031424306E+02 -0.23819580177E+03 -0.11785415575E+04  0.12036764363E+04  0.00000000000E+00 0. -1.
         -3    1    3    3    0  502 -0.20793467126E+02 -0.29157887681E+02 -0.20506622631E+03  0.20816990143E+03  0.00000000000E+00 0.  1.
         13    1    5    5    0    0  0.12499698682E+03  0.11945298171E+03 -0.20691633640E+03  0.26964352731E+03  0.00000000000E+00 0. -1.
        -13    1    5    5    0    0  0.12742738305E+03  0.23822034503E+02 -0.12340525283E+03  0.17898067970E+03  0.00000000000E+00 0.  1.
          1    1    6    6  503    0 -0.41768286441E+02 -0.14890220279E+02  0.57874535971E+02  0.72909329486E+02  0.00000000000E+00 0. -1.
         -1    1    6    6    0  503 -0.24589404061E+03  0.13896889352E+03  0.31513658993E+03  0.42318707788E+03  0.00000000000E+00 0.  1.
<mgrwt>
<rscale>  0 0.19378715E+04</rscale>
<asrwt>0</asrwt>
<pdfrwt beam="1">  1        2 0.28442193E+00 0.19378715E+04</pdfrwt>
<pdfrwt beam="2">  1       -1 0.78126825E-01 0.19378715E+04</pdfrwt>
<totfact> 0.14141687E+01</totfact>
</mgrwt>
</event>
<event>
12    7  0.1546317E-007  0.2058810E+04  0.7818608E-02  0.8579608E-01
         -1   -1    0    0    0  501 -0.00000000000E+00  0.00000000000E+00  0.29181844086E+03  0.29181844086E+03  0.00000000000E+00 0.  1.
          2   -1    0    0  501    0  0.00000000000E+00 -0.00000000000E+00 -0.36312812359E+04  0.36312812359E+04  0.00000000000E+00 0. -1.
         24    2    1    2    0    0  0.20760456899E+03  0.22807498172E+03  0.11280576192E+03  0.33863070488E+03  0.82630260883E+02 0.  0.
        254    2    1    2    0    0 -0.20760456899E+03 -0.22807498172E+03 -0.34522685570E+04  0.35844689719E+04  0.91386091213E+03 0.  0.
         23    2    4    4    0    0 -0.47669281485E+03  0.13473229640E+03 -0.17094618133E+04  0.17817960078E+04  0.84548748113E+02 0.  0.
         23    2    4    4    0    0  0.26908824586E+03 -0.36280727812E+03 -0.17428067437E+04  0.18026729641E+04  0.90646922977E+02 0.  0.
          4    1    3    3  502    0 -0.10173156656E+01  0.52140830078E+01 -0.85967758713E+01  0.10105748273E+02  0.00000000000E+00 0. -1.
         -3    1    3    3    0  502  0.20862188466E+03  0.22286089872E+03  0.12140253779E+03  0.32852495661E+03  0.00000000000E+00 0.  1.
         13    1    5    5    0    0 -0.28958130099E+03  0.11099484025E+03 -0.11658880873E+04  0.12064295324E+04  0.00000000000E+00 0.  1.
        -13    1    5    5    0    0 -0.18711151386E+03  0.23737456143E+02 -0.54357372595E+03  0.57536647537E+03  0.00000000000E+00 0. -1.
          3    1    6    6  503    0  0.18347780014E+03 -0.17297335144E+03 -0.92164847995E+03  0.95552069786E+03  0.00000000000E+00 0. -1.
         -3    1    6    6    0  503  0.85610445723E+02 -0.18983392668E+03 -0.82115826374E+03  0.84715226627E+03  0.00000000000E+00 0.  1.
<mgrwt>
<rscale>  0 0.20588102E+04</rscale>
<asrwt>0</asrwt>
<pdfrwt beam="1">  1        2 0.55865869E+00 0.20588102E+04</pdfrwt>
<pdfrwt beam="2">  1       -1 0.44895142E-01 0.20588102E+04</pdfrwt>
<totfact> 0.34129582E+00</totfact>
</mgrwt>
</event>
<event>
12    7  0.1546317E-007  0.1511317E+04  0.7818608E-02  0.8876962E-01
         -1   -1    0    0    0  501 -0.00000000000E+00  0.00000000000E+00  0.26031484962E+03  0.26031484962E+03  0.00000000000E+00 0.  1.
          2   -1    0    0  501    0  0.00000000000E+00 -0.00000000000E+00 -0.21935733044E+04  0.21935733044E+04  0.00000000000E+00 0. -1.
         24    2    1    2    0    0  0.43562340361E+03 -0.21518276884E+03 -0.63356299639E+03  0.80238843358E+03  0.79710439540E+02 0.  0.
        254    2    1    2    0    0 -0.43562340361E+03  0.21518276884E+03 -0.12996954584E+04  0.16514997204E+04  0.89564036770E+03 0.  0.
         23    2    4    4    0    0 -0.98545876463E+01  0.42853190588E+03 -0.96775220759E+03  0.10624374084E+04  0.92153156862E+02 0.  0.
         23    2    4    4    0    0 -0.42576881596E+03 -0.21334913704E+03 -0.33194325078E+03  0.58906231197E+03  0.10005571808E+03 0.  0.
          2    1    3    3  502    0  0.35449605730E+03 -0.19736913447E+03 -0.55930839687E+03  0.69097605798E+03  0.00000000000E+00 0. -1.
         -1    1    3    3    0  502  0.81127346303E+02 -0.17813634367E+02 -0.74254599513E+02  0.11141237560E+03  0.00000000000E+00 0.  1.
         13    1    5    5    0    0 -0.25771639645E+02  0.32884407601E+03 -0.64790829467E+03  0.72704041293E+03  0.00000000000E+00 0. -1.
        -13    1    5    5    0    0  0.15917051998E+02  0.99687829875E+02 -0.31984391292E+03  0.33539699551E+03  0.00000000000E+00 0.  1.
          1    1    6    6  503    0 -0.34325711717E+03 -0.18934279018E+03 -0.31155923168E+03  0.50074474088E+03  0.00000000000E+00 0. -1.
         -1    1    6    6    0  503 -0.82511698796E+02 -0.24006346861E+02 -0.20384019107E+02  0.88317571087E+02  0.00000000000E+00 0.  1.
<mgrwt>
<rscale>  0 0.15113169E+04</rscale>
<asrwt>0</asrwt>
<pdfrwt beam="1">  1        2 0.33747283E+00 0.15113169E+04</pdfrwt>
<pdfrwt beam="2">  1       -1 0.40048437E-01 0.15113169E+04</pdfrwt>
<totfact> 0.34830242E+01</totfact>
</mgrwt>
</event>
<event>
12    7  0.1546317E-007  0.2588397E+04  0.7818608E-02  0.8372153E-01
          2   -1    0    0  501    0  0.00000000000E+00  0.00000000000E+00  0.13718755815E+04  0.13718755815E+04  0.00000000000E+00 0. -1.
         -1   -1    0    0    0  501 -0.00000000000E+00 -0.00000000000E+00 -0.12209198252E+04  0.12209198252E+04  0.00000000000E+00 0.  1.
         24    2    1    2    0    0 -0.61004801138E+03  0.32593725704E+03 -0.82934968992E+03  0.10829770086E+04  0.81391776651E+02 0.  0.
        254    2    1    2    0    0  0.61004801138E+03 -0.32593725704E+03  0.98030544629E+03  0.15098183981E+04  0.91660196129E+03 0.  0.
         23    2    4    4    0    0 -0.26088510655E+02 -0.21238047350E+03 -0.96226474781E+02  0.25058923922E+03  0.88030429100E+02 0.  0.
         23    2    4    4    0    0  0.63613652203E+03 -0.11355678354E+03  0.10765319211E+04  0.12592291589E+04  0.95772019403E+02 0.  0.
          2    1    3    3  502    0 -0.14641201500E+02  0.20774991752E+02 -0.16999858379E+02  0.30577119691E+02  0.00000000000E+00 0. -1.
         -1    1    3    3    0  502 -0.59540680988E+03  0.30516226529E+03 -0.81234983154E+03  0.10523998889E+04  0.00000000000E+00 0.  1.
         13    1    5    5    0    0  0.18480810382E+02 -0.16193539503E+03 -0.56920495020E+02  0.17263995849E+03  0.00000000000E+00 0. -1.
        -13    1    5    5    0    0 -0.44569321036E+02 -0.50445078478E+02 -0.39305979761E+02  0.77949280723E+02  0.00000000000E+00 0.  1.
          1    1    6    6  503    0  0.36389397830E+03 -0.44838050632E+02  0.69154175772E+03  0.78272554634E+03  0.00000000000E+00 0. -1.
         -1    1    6    6    0  503  0.27224254373E+03 -0.68718732908E+02  0.38499016336E+03  0.47650361253E+03  0.00000000000E+00 0.  1.
<mgrwt>
<rscale>  0 0.25883973E+04</rscale>
<asrwt>0</asrwt>
<pdfrwt beam="1">  1        2 0.21105778E+00 0.25883973E+04</pdfrwt>
<pdfrwt beam="2">  1       -1 0.18783382E+00 0.25883973E+04</pdfrwt>
<totfact> 0.27726786E+00</totfact>
</mgrwt>
</event>
<event>
12    7  0.1546317E-007  0.1232925E+04  0.7818608E-02  0.9084516E-01
          2   -1    0    0  501    0  0.00000000000E+00  0.00000000000E+00  0.23363346070E+04  0.23363346070E+04  0.00000000000E+00 0. -1.
         -1   -1    0    0    0  501 -0.00000000000E+00 -0.00000000000E+00 -0.16265910153E+03  0.16265910153E+03  0.00000000000E+00 0.  1.
         24    2    1    2    0    0  0.25746473438E+03  0.51844029856E+01  0.45541823707E+03  0.52902824405E+03  0.78422859314E+02 0.  0.
        254    2    1    2    0    0 -0.25746473438E+03 -0.51844029856E+01  0.17182572684E+04  0.19699654645E+04  0.92846158958E+03 0.  0.
         23    2    4    4    0    0 -0.39028011943E+03  0.26696251473E+03  0.43763341437E+03  0.65037119757E+03  0.88725043646E+02 0.  0.
         23    2    4    4    0    0  0.13281538505E+03 -0.27214691771E+03  0.12806238540E+04  0.13195942669E+04  0.98120856108E+02 0.  0.
          2    1    3    3  502    0  0.21449520631E+03  0.28383884720E+02  0.33177795765E+03  0.39609399342E+03  0.00000000000E+00 0. -1.
         -1    1    3    3    0  502  0.42969528072E+02 -0.23199481734E+02  0.12364027942E+03  0.13293425063E+03  0.00000000000E+00 0.  1.
         13    1    5    5    0    0 -0.34563105124E+03  0.23585713484E+03  0.42074846912E+03  0.59339589306E+03  0.00000000000E+00 0. -1.
        -13    1    5    5    0    0 -0.44649068188E+02  0.31105379888E+02  0.16884945248E+02  0.56975304511E+02  0.00000000000E+00 0.  1.
          3    1    6    6  503    0  0.90531396415E+02 -0.18484714952E+03  0.65743687206E+03  0.68890321757E+03  0.00000000000E+00 0. -1.
         -3    1    6    6    0  503  0.42283988634E+02 -0.87299768193E+02  0.62318698197E+03  0.63069104934E+03  0.00000000000E+00 0.  1.
<mgrwt>
<rscale>  0 0.12329251E+04</rscale>
<asrwt>0</asrwt>
<pdfrwt beam="1">  1        2 0.35943607E+00 0.12329251E+04</pdfrwt>
<pdfrwt beam="2">  1       -1 0.25024479E-01 0.12329251E+04</pdfrwt>
<totfact> 0.68063760E+01</totfact>
</mgrwt>
</event>
<event>
12    7  0.1546317E-007  0.1560056E+04  0.7818608E-02  0.8845470E-01
         -1   -1    0    0    0  501 -0.00000000000E+00  0.00000000000E+00  0.20450975107E+03  0.20450975107E+03  0.00000000000E+00 0.  1.
          2   -1    0    0  501    0  0.00000000000E+00 -0.00000000000E+00 -0.29751324709E+04  0.29751324709E+04  0.00000000000E+00 0. -1.
         24    2    1    2    0    0 -0.34947331287E+03  0.30932243430E+03 -0.14204886085E+04  0.14977899395E+04  0.88175116009E+02 0.  0.
        254    2    1    2    0    0  0.34947331287E+03 -0.30932243430E+03 -0.13501341113E+04  0.16818522825E+04  0.88766717684E+03 0.  0.
         23    2    4    4    0    0  0.53423692031E+03 -0.18549033636E+03 -0.39328305841E+03  0.69516302002E+03  0.93617885432E+02 0.  0.
         23    2    4    4    0    0 -0.18476360744E+03 -0.12383209794E+03 -0.95685105285E+03  0.98668926244E+03  0.92302676815E+02 0.  0.
          4    1    3    3  502    0 -0.24488236370E+03  0.16354951150E+03 -0.93069283502E+03  0.97616851410E+03  0.00000000000E+00 0. -1.
         -3    1    3    3    0  502 -0.10459094917E+03  0.14577292280E+03 -0.48979577351E+03  0.52162142538E+03  0.00000000000E+00 0.  1.
         13    1    5    5    0    0  0.15344888738E+03 -0.49304285324E+02 -0.16551198847E+03  0.23102314152E+03  0.00000000000E+00 0.  1.
        -13    1    5    5    0    0  0.38078803292E+03 -0.13618605103E+03 -0.22777106994E+03  0.46413987850E+03  0.00000000000E+00 0. -1.
          2    1    6    6  503    0 -0.15192220644E+03 -0.12189764913E+03 -0.66350892050E+03  0.69150812089E+03  0.00000000000E+00 0. -1.
         -2    1    6    6    0  503 -0.32841400999E+02 -0.19344488120E+01 -0.29334213235E+03  0.29518114154E+03  0.00000000000E+00 0.  1.
<mgrwt>
<rscale>  0 0.15600559E+04</rscale>
<asrwt>0</asrwt>
<pdfrwt beam="1">  1        2 0.45771268E+00 0.15600559E+04</pdfrwt>
<pdfrwt beam="2">  1       -1 0.31463039E-01 0.15600559E+04</pdfrwt>
<totfact> 0.18660323E+01</totfact>
</mgrwt>
</event>
<event>
12    7  0.1546317E-007  0.1304098E+04  0.7818608E-02  0.9026322E-01
          2   -1    0    0  501    0  0.00000000000E+00  0.00000000000E+00  0.13672294533E+04  0.13672294533E+04  0.00000000000E+00 0. -1.
         -1   -1    0    0    0  501 -0.00000000000E+00 -0.00000000000E+00 -0.31097050462E+03  0.31097050462E+03  0.00000000000E+00 0.  1.
         24    2    1    2    0    0 -0.23843871883E+03  0.10812046610E+02  0.50353852364E+03  0.56296847650E+03  0.80078322650E+02 0.  0.
        254    2    1    2    0    0  0.23843871883E+03 -0.10812046610E+02  0.55272042506E+03  0.11152314814E+04  0.93876060097E+03 0.  0.
         23    2    4    4    0    0  0.42820042078E+03  0.47948791948E+02 -0.78057713218E+02  0.44758433571E+03  0.92650115863E+02 0.  0.
         23    2    4    4    0    0 -0.18976170195E+03 -0.58760838558E+02  0.63077813828E+03  0.66764714574E+03  0.91702299849E+02 0.  0.
          2    1    3    3  502    0 -0.24030080749E+03  0.20045735570E+02  0.49313666923E+03  0.54893540980E+03  0.00000000000E+00 0. -1.
         -1    1    3    3    0  502  0.18620886559E+01 -0.92336889593E+01  0.10401854411E+02  0.14033066705E+02  0.00000000000E+00 0.  1.
         13    1    5    5    0    0  0.65515920178E+02  0.41797899752E+02 -0.19833134937E+02  0.80204447894E+02  0.00000000000E+00 0. -1.
        -13    1    5    5    0    0  0.36268450060E+03  0.61508921956E+01 -0.58224578281E+02  0.36737988781E+03  0.00000000000E+00 0.  1.
          1    1    6    6  503    0 -0.13940144171E+03 -0.66680884647E+02  0.55650895489E+03  0.57756499132E+03  0.00000000000E+00 0. -1.
         -1    1    6    6    0  503 -0.50360260248E+02  0.79200460891E+01  0.74269183395E+02  0.90082154417E+02  0.00000000000E+00 0.  1.
<mgrwt>
<rscale>  0 0.13040982E+04</rscale>
<asrwt>0</asrwt>
<pdfrwt beam="1">  1        2 0.21034299E+00 0.13040982E+04</pdfrwt>
<pdfrwt beam="2">  1       -1 0.47841617E-01 0.13040982E+04</pdfrwt>
<totfact> 0.73642777E+01</totfact>
</mgrwt>
</event>
<event>
12    7  0.1546317E-007  0.1265403E+04  0.7818608E-02  0.9057460E-01
          2   -1    0    0  501    0  0.00000000000E+00  0.00000000000E+00  0.11017762208E+04  0.11017762208E+04  0.00000000000E+00 0. -1.
         -1   -1    0    0    0  501 -0.00000000000E+00 -0.00000000000E+00 -0.36333282378E+03  0.36333282378E+03  0.00000000000E+00 0.  1.
         24    2    1    2    0    0  0.25764450966E+03  0.11345864788E+03  0.64644185433E+02  0.29962573814E+03  0.79643920729E+02 0.  0.
        254    2    1    2    0    0 -0.25764450966E+03 -0.11345864788E+03  0.67379921163E+03  0.11654833065E+04  0.90834597040E+03 0.  0.
         23    2    4    4    0    0 -0.23667531054E+03 -0.45874751258E+03  0.17721644451E+03  0.55346181895E+03  0.91922978136E+02 0.  0.
         23    2    4    4    0    0 -0.20969199115E+02  0.34528886470E+03  0.49658276711E+03  0.61202148753E+03  0.91168795144E+02 0.  0.
          4    1    3    3  502    0  0.16035201838E+03  0.92049773796E+02  0.74878845031E+02  0.19948125749E+03  0.00000000000E+00 0. -1.
         -3    1    3    3    0  502  0.97292491271E+02  0.21408874085E+02 -0.10234659598E+02  0.10014448065E+03  0.00000000000E+00 0.  1.
         13    1    5    5    0    0 -0.19574784473E+03 -0.43458242098E+03  0.15716701498E+03  0.50187704663E+03  0.00000000000E+00 0. -1.
        -13    1    5    5    0    0 -0.40927465815E+02 -0.24165091598E+02  0.20049429533E+02  0.51584772313E+02  0.00000000000E+00 0.  1.
          3    1    6    6  503    0  0.11925938652E+02  0.27042584291E+03  0.42194676966E+03  0.50130972558E+03  0.00000000000E+00 0. -1.
         -3    1    6    6    0  503 -0.32895137768E+02  0.74863021783E+02  0.74635997450E+02  0.11071176195E+03  0.00000000000E+00 0.  1.
<mgrwt>
<rscale>  0 0.12654034E+04</rscale>
<asrwt>0</asrwt>
<pdfrwt beam="1">  1        2 0.16950403E+00 0.12654034E+04</pdfrwt>
<pdfrwt beam="2">  1       -1 0.55897358E-01 0.12654034E+04</pdfrwt>
<totfact> 0.78816735E+01</totfact>
</mgrwt>
</event>
<event>
12    7  0.1546317E-007  0.2399000E+04  0.7818608E-02  0.8439878E-01
         -1   -1    0    0    0  501 -0.00000000000E+00  0.00000000000E+00  0.18870002336E+04  0.18870002336E+04  0.00000000000E+00 0.  1.
          2   -1    0    0  501    0  0.00000000000E+00 -0.00000000000E+00 -0.76247995649E+03  0.76247995649E+03  0.00000000000E+00 0. -1.
         24    2    1    2    0    0 -0.33125115168E+03 -0.37563909590E+03 -0.50698053976E+03  0.71699860587E+03  0.78902961064E+02 0.  0.
        254    2    1    2    0    0  0.33125115168E+03  0.37563909590E+03  0.16315008169E+04  0.19324815842E+04  0.90656389849E+03 0.  0.
         23    2    4    4    0    0  0.48235418848E+03  0.58320425008E+03  0.11468752331E+04  0.13770411118E+04  0.90148005424E+02 0.  0.
         23    2    4    4    0    0 -0.15110303680E+03 -0.20756515419E+03  0.48462558382E+03  0.55544047245E+03  0.87958745865E+02 0.  0.
          2    1    3    3  502    0 -0.32423165712E+03 -0.33672620516E+03 -0.46588100582E+03  0.65996652666E+03  0.00000000000E+00 0. -1.
         -1    1    3    3    0  502 -0.70194945626E+01 -0.38912890737E+02 -0.41099533940E+02  0.57032079214E+02  0.00000000000E+00 0.  1.
         13    1    5    5    0    0  0.90125262402E+02  0.16568786697E+03  0.31030859179E+03  0.36313420979E+03  0.00000000000E+00 0.  1.
        -13    1    5    5    0    0  0.39222892608E+03  0.41751638311E+03  0.83656664128E+03  0.10139069020E+04  0.00000000000E+00 0. -1.
          2    1    6    6  503    0 -0.11765633134E+03 -0.92702592519E+02  0.23587262508E+03  0.27941488547E+03  0.00000000000E+00 0. -1.
         -2    1    6    6    0  503 -0.33446705462E+02 -0.11486256167E+03  0.24875295875E+03  0.27602558697E+03  0.00000000000E+00 0.  1.
<mgrwt>
<rscale>  0 0.23989997E+04</rscale>
<asrwt>0</asrwt>
<pdfrwt beam="1">  1        2 0.11730461E+00 0.23989997E+04</pdfrwt>
<pdfrwt beam="2">  1       -1 0.29030773E+00 0.23989997E+04</pdfrwt>
<totfact> 0.14371790E+00</totfact>
</mgrwt>
</event>
<event>
12    7  0.1546317E-007  0.1721540E+04  0.7818608E-02  0.8749174E-01
          2   -1    0    0  501    0  0.00000000000E+00  0.00000000000E+00  0.12821621277E+04  0.12821621277E+04  0.00000000000E+00 0. -1.
         -1   -1    0    0    0  501 -0.00000000000E+00 -0.00000000000E+00 -0.57787168164E+03  0.57787168164E+03  0.00000000000E+00 0.  1.
         24    2    1    2    0    0  0.41045421535E+03  0.12385943271E+02 -0.24256992233E+03  0.48378300251E+03  0.81115669314E+02 0.  0.
        254    2    1    2    0    0 -0.41045421535E+03 -0.12385943271E+02  0.94686036843E+03  0.13762508069E+04  0.91043706628E+03 0.  0.
         23    2    4    4    0    0  0.10046772668E+03 -0.35233446972E+03  0.32822119413E+03  0.50013483058E+03  0.90401072043E+02 0.  0.
         23    2    4    4    0    0 -0.51092194203E+03  0.33994852645E+03  0.61863917431E+03  0.87611597631E+03  0.90876534240E+02 0.  0.
          2    1    3    3  502    0  0.25706131962E+03  0.31240927838E+02 -0.11480102290E+03  0.28325923194E+03  0.00000000000E+00 0. -1.
         -1    1    3    3    0  502  0.15339289572E+03 -0.18854984567E+02 -0.12776889943E+03  0.20052377057E+03  0.00000000000E+00 0.  1.
         13    1    5    5    0    0  0.65093068558E+02 -0.31603927554E+03  0.25593041050E+03  0.41184743082E+03  0.00000000000E+00 0. -1.
        -13    1    5    5    0    0  0.35374658125E+02 -0.36295194180E+02  0.72290783627E+02  0.88287399755E+02  0.00000000000E+00 0.  1.
          4    1    6    6  503    0 -0.26724570168E+03  0.22342379089E+03  0.38249266382E+03  0.51733847071E+03  0.00000000000E+00 0. -1.
         -4    1    6    6    0  503 -0.24367624035E+03  0.11652473556E+03  0.23614651049E+03  0.35877750560E+03  0.00000000000E+00 0.  1.
<mgrwt>
<rscale>  0 0.17215402E+04</rscale>
<asrwt>0</asrwt>
<pdfrwt beam="1">  1        2 0.19725571E+00 0.17215402E+04</pdfrwt>
<pdfrwt beam="2">  1       -1 0.88903336E-01 0.17215402E+04</pdfrwt>
<totfact> 0.22761048E+01</totfact>
</mgrwt>
</event>
<event>
12    7  0.1546317E-007  0.2325918E+04  0.7818608E-02  0.8467772E-01
         -1   -1    0    0    0  501 -0.00000000000E+00  0.00000000000E+00  0.89400046455E+03  0.89400046455E+03  0.00000000000E+00 0.  1.
          2   -1    0    0  501    0  0.00000000000E+00 -0.00000000000E+00 -0.15128331871E+04  0.15128331871E+04  0.00000000000E+00 0. -1.
         24    2    1    2    0    0  0.14239738039E+03 -0.36395150244E+03  0.67406334899E+03  0.78324467721E+03  0.79831797294E+02 0.  0.
        254    2    1    2    0    0 -0.14239738039E+03  0.36395150244E+03 -0.12928960715E+04  0.16235889744E+04  0.90095682249E+03 0.  0.
         23    2    4    4    0    0 -0.49480240649E+03  0.93999960128E+02 -0.53233989877E+03  0.73840292395E+03  0.90485890017E+02 0.  0.
         23    2    4    4    0    0  0.35240502610E+03  0.26995154232E+03 -0.76055617275E+03  0.88518605046E+03  0.89696791508E+02 0.  0.
          2    1    3    3  502    0  0.15880042877E+02 -0.47942828386E+01  0.44354889398E+02  0.47355222766E+02  0.00000000000E+00 0. -1.
         -1    1    3    3    0  502  0.12651733752E+03 -0.35915721960E+03  0.62970845959E+03  0.73588945445E+03  0.00000000000E+00 0.  1.
         13    1    5    5    0    0 -0.82816325357E+02  0.65876516990E+00 -0.13553075000E+03  0.15883186681E+03  0.00000000000E+00 0. -1.
        -13    1    5    5    0    0 -0.41198608114E+03  0.93341194958E+02 -0.39680914877E+03  0.57957105714E+03  0.00000000000E+00 0.  1.
          4    1    6    6  503    0  0.15294691808E+03  0.14335365148E+03 -0.28078041543E+03  0.35040072893E+03  0.00000000000E+00 0. -1.
         -4    1    6    6    0  503  0.19945810803E+03  0.12659789083E+03 -0.47977575732E+03  0.53478532153E+03  0.00000000000E+00 0.  1.
<mgrwt>
<rscale>  0 0.23259179E+04</rscale>
<asrwt>0</asrwt>
<pdfrwt beam="1">  1        2 0.23274357E+00 0.23259179E+04</pdfrwt>
<pdfrwt beam="2">  1       -1 0.13753853E+00 0.23259179E+04</pdfrwt>
<totfact> 0.56481373E+00</totfact>
</mgrwt>
</event>
<event>
12    7  0.1546317E-007  0.1240055E+04  0.7818608E-02  0.9078501E-01
         -1   -1    0    0    0  501 -0.00000000000E+00  0.00000000000E+00  0.45450310042E+03  0.45450310042E+03  0.00000000000E+00 0.  1.
          2   -1    0    0  501    0  0.00000000000E+00 -0.00000000000E+00 -0.84583427395E+03  0.84583427395E+03  0.00000000000E+00 0. -1.
         24    2    1    2    0    0 -0.12479338995E+03  0.12170401737E+03 -0.32331232412E+03  0.37565438329E+03  0.78740705746E+02 0.  0.
        254    2    1    2    0    0  0.12479338995E+03 -0.12170401737E+03 -0.68018849418E+02  0.92468299108E+03  0.90555331819E+03 0.  0.
         23    2    4    4    0    0 -0.21722369837E+03 -0.39878271800E+03  0.28769703894E+02  0.46423218910E+03  0.92032810593E+02 0.  0.
         23    2    4    4    0    0  0.34201708833E+03  0.27707870062E+03 -0.96788553312E+02  0.46045080198E+03  0.94332507354E+02 0.  0.
          4    1    3    3  502    0 -0.97852842374E+02  0.12965269079E+03 -0.26292917157E+03  0.30905783966E+03  0.00000000000E+00 0. -1.
         -3    1    3    3    0  502 -0.26940547581E+02 -0.79486734199E+01 -0.60383152541E+02  0.66596543633E+02  0.00000000000E+00 0.  1.
         13    1    5    5    0    0 -0.84321222316E+02 -0.85735687711E+02  0.30805565572E+02  0.12413564980E+03  0.00000000000E+00 0. -1.
        -13    1    5    5    0    0 -0.13290247606E+03 -0.31304703029E+03 -0.20358616780E+01  0.34009653930E+03  0.00000000000E+00 0.  1.
          4    1    6    6  503    0  0.79045408759E+02  0.20218100479E+02 -0.60438062075E+01  0.81813665279E+02  0.00000000000E+00 0. -1.
         -4    1    6    6    0  503  0.26297167957E+03  0.25686060014E+03 -0.90744747104E+02  0.37863713670E+03  0.00000000000E+00 0.  1.
<mgrwt>
<rscale>  0 0.12400553E+04</rscale>
<asrwt>0</asrwt>
<pdfrwt beam="1">  1        2 0.13012835E+00 0.12400553E+04</pdfrwt>
<pdfrwt beam="2">  1       -1 0.69923554E-01 0.12400553E+04</pdfrwt>
<totfact> 0.74244216E+01</totfact>
</mgrwt>
</event>
<event>
12    7  0.1546317E-007  0.1875689E+04  0.7818608E-02  0.8667053E-01
          2   -1    0    0  501    0  0.00000000000E+00  0.00000000000E+00  0.14663985899E+04  0.14663985899E+04  0.00000000000E+00 0. -1.
         -1   -1    0    0    0  501 -0.00000000000E+00 -0.00000000000E+00 -0.59980436640E+03  0.59980436640E+03  0.00000000000E+00 0.  1.
         24    2    1    2    0    0 -0.68257645825E+03  0.45061986925E+02  0.57510864544E+03  0.89728062168E+03  0.80133363547E+02 0.  0.
        254    2    1    2    0    0  0.68257645825E+03 -0.45061986925E+02  0.29148557804E+03  0.11689223346E+04  0.90192814465E+03 0.  0.
         23    2    4    4    0    0  0.64565439643E+03 -0.32086467995E+03  0.43022159563E+03  0.84458775464E+03  0.91728465986E+02 0.  0.
         23    2    4    4    0    0  0.36922061818E+02  0.27580269302E+03 -0.13873601759E+03  0.32433457996E+03  0.92276069788E+02 0.  0.
          2    1    3    3  502    0 -0.61318487920E+03  0.16996678993E+02  0.52255722872E+03  0.80582295851E+03  0.00000000000E+00 0. -1.
         -1    1    3    3    0  502 -0.69391579051E+02  0.28065307932E+02  0.52551416724E+02  0.91457663168E+02  0.00000000000E+00 0.  1.
         13    1    5    5    0    0 -0.98531905052E+00  0.31874758734E+01  0.33273887323E+01  0.47119392877E+01  0.00000000000E+00 0. -1.
        -13    1    5    5    0    0  0.64663971548E+03 -0.32405215582E+03  0.42689420690E+03  0.83987581535E+03  0.00000000000E+00 0.  1.
          3    1    6    6  503    0  0.17974134484E+02  0.88001667021E+02  0.43669742680E+00  0.89819561420E+02  0.00000000000E+00 0. -1.
         -3    1    6    6    0  503  0.18947927334E+02  0.18780102600E+03 -0.13917271501E+03  0.23451501854E+03  0.00000000000E+00 0.  1.
<mgrwt>
<rscale>  0 0.18756890E+04</rscale>
<asrwt>0</asrwt>
<pdfrwt beam="1">  1        2 0.22559978E+00 0.18756890E+04</pdfrwt>
<pdfrwt beam="2">  1       -1 0.92277595E-01 0.18756890E+04</pdfrwt>
<totfact> 0.16206618E+01</totfact>
</mgrwt>
</event>
<event>
12    7  0.1546317E-007  0.1821522E+04  0.7818608E-02  0.8694938E-01
          2   -1    0    0  501    0  0.00000000000E+00  0.00000000000E+00  0.29504420793E+04  0.29504420793E+04  0.00000000000E+00 0. -1.
         -1   -1    0    0    0  501 -0.00000000000E+00 -0.00000000000E+00 -0.28113930693E+03  0.28113930693E+03  0.00000000000E+00 0.  1.
         24    2    1    2    0    0  0.38816720332E+03  0.55414298075E+03  0.89009502116E+03  0.11211302528E+04  0.83160545436E+02 0.  0.
        254    2    1    2    0    0 -0.38816720332E+03 -0.55414298075E+03  0.17792077512E+04  0.21104511334E+04  0.91141403523E+03 0.  0.
         23    2    4    4    0    0 -0.21745208991E+03  0.15752770637E+03  0.99249348981E+03  0.10320103376E+04  0.88891056978E+02 0.  0.
         23    2    4    4    0    0 -0.17071511342E+03 -0.71167068712E+03  0.78671426142E+03  0.10784407958E+04  0.92175940439E+02 0.  0.
          2    1    3    3  502    0  0.24346475237E+03  0.32912022927E+03  0.47243129239E+03  0.62512921623E+03  0.00000000000E+00 0. -1.
         -1    1    3    3    0  502  0.14470245096E+03  0.22502275147E+03  0.41766372877E+03  0.49600103661E+03  0.00000000000E+00 0.  1.
         13    1    5    5    0    0 -0.77393518516E+02  0.11036250238E+03  0.45118327808E+03  0.47088851022E+03  0.00000000000E+00 0.  1.
        -13    1    5    5    0    0 -0.14005857139E+03  0.47165203993E+02  0.54131021174E+03  0.56112182743E+03  0.00000000000E+00 0. -1.
          2    1    6    6  503    0  0.11021512844E+02 -0.25410927196E+02  0.31340863382E+02  0.41826291778E+02  0.00000000000E+00 0. -1.
         -2    1    6    6    0  503 -0.18173662626E+03 -0.68625975992E+03  0.75537339804E+03  0.10366145040E+04  0.00000000000E+00 0.  1.
<mgrwt>
<rscale>  0 0.18215216E+04</rscale>
<asrwt>0</asrwt>
<pdfrwt beam="1">  1        2 0.45391414E+00 0.18215216E+04</pdfrwt>
<pdfrwt beam="2">  1       -1 0.43252203E-01 0.18215216E+04</pdfrwt>
<totfact> 0.10613208E+01</totfact>
</mgrwt>
</event>
<event>
12    7  0.1546317E-007  0.2004931E+04  0.7818608E-02  0.8604319E-01
         -1   -1    0    0    0  501 -0.00000000000E+00  0.00000000000E+00  0.80487614848E+03  0.80487614848E+03  0.00000000000E+00 0.  1.
          2   -1    0    0  501    0  0.00000000000E+00 -0.00000000000E+00 -0.12485609097E+04  0.12485609097E+04  0.00000000000E+00 0. -1.
         24    2    1    2    0    0 -0.21249557699E+03 -0.49867976896E+02 -0.96467149874E+03  0.99224873479E+03  0.79531539898E+02 0.  0.
        254    2    1    2    0    0  0.21249557699E+03  0.49867976896E+02  0.52098673751E+03  0.10611883234E+04  0.89836089169E+03 0.  0.
         23    2    4    4    0    0  0.38708192863E+03  0.15277507454E+03  0.67057270689E+03  0.79436701589E+03  0.90435379392E+02 0.  0.
         23    2    4    4    0    0 -0.17458635163E+03 -0.10290709764E+03 -0.14958596938E+03  0.26682130752E+03  0.88019219438E+02 0.  0.
          4    1    3    3  502    0 -0.22608397619E+02  0.12489328398E+02 -0.20913644481E+03  0.21072535565E+03  0.00000000000E+00 0. -1.
         -3    1    3    3    0  502 -0.18988717937E+03 -0.62357305294E+02 -0.75553505393E+03  0.78152337914E+03  0.00000000000E+00 0.  1.
         13    1    5    5    0    0  0.81499986750E+02 -0.55241809983E+01  0.13143376505E+03  0.15475011797E+03  0.00000000000E+00 0.  1.
        -13    1    5    5    0    0  0.30558194188E+03  0.15829925554E+03  0.53913894184E+03  0.63961689793E+03  0.00000000000E+00 0. -1.
          2    1    6    6  503    0 -0.11570276780E+03 -0.11178246515E+03 -0.11712925994E+03  0.19900179276E+03  0.00000000000E+00 0. -1.
         -2    1    6    6    0  503 -0.58883583836E+02  0.88753675076E+01 -0.32456709440E+02  0.67819514753E+02  0.00000000000E+00 0.  1.
<mgrwt>
<rscale>  0 0.20049308E+04</rscale>
<asrwt>0</asrwt>
<pdfrwt beam="1">  1        2 0.19208629E+00 0.20049308E+04</pdfrwt>
<pdfrwt beam="2">  1       -1 0.12382710E+00 0.20049308E+04</pdfrwt>
<totfact> 0.10750476E+01</totfact>
</mgrwt>
</event>
<event>
12    7  0.1546317E-007  0.1391241E+04  0.7818608E-02  0.8960183E-01
          2   -1    0    0  501    0  0.00000000000E+00  0.00000000000E+00  0.60341996300E+03  0.60341996300E+03  0.00000000000E+00 0. -1.
         -1   -1    0    0    0  501 -0.00000000000E+00 -0.00000000000E+00 -0.80190947527E+03  0.80190947527E+03  0.00000000000E+00 0.  1.
         24    2    1    2    0    0  0.34984736071E+03  0.14765617974E+03  0.53461263120E+02  0.39271411524E+03  0.84680260056E+02 0.  0.
        254    2    1    2    0    0 -0.34984736071E+03 -0.14765617974E+03 -0.25195077539E+03  0.10126153230E+04  0.90427599547E+03 0.  0.
         23    2    4    4    0    0  0.27972295788E+03  0.37940376521E+02  0.19924418870E+02  0.29662422173E+03  0.88907486264E+02 0.  0.
         23    2    4    4    0    0 -0.62957031859E+03 -0.18559655626E+03 -0.27187519426E+03  0.71599110129E+03  0.89007123999E+02 0.  0.
          2    1    3    3  502    0  0.24235713823E+03  0.93753289884E+02  0.75189896173E+02  0.27051835853E+03  0.00000000000E+00 0. -1.
         -1    1    3    3    0  502  0.10749022248E+03  0.53902889856E+02 -0.21728633053E+02  0.12219575671E+03  0.00000000000E+00 0.  1.
         13    1    5    5    0    0  0.17039618634E+03 -0.20863833194E+02  0.16181006740E+02  0.17242965184E+03  0.00000000000E+00 0. -1.
        -13    1    5    5    0    0  0.10932677154E+03  0.58804209716E+02  0.37434121295E+01  0.12419456989E+03  0.00000000000E+00 0.  1.
          1    1    6    6  503    0 -0.24897597316E+03 -0.30917079254E+02 -0.87749083931E+02  0.26579090040E+03  0.00000000000E+00 0. -1.
         -1    1    6    6    0  503 -0.38059434543E+03 -0.15467947701E+03 -0.18412611033E+03  0.45020020090E+03  0.00000000000E+00 0.  1.
<mgrwt>
<rscale>  0 0.13912414E+04</rscale>
<asrwt>0</asrwt>
<pdfrwt beam="1">  1        2 0.92833841E-01 0.13912414E+04</pdfrwt>
<pdfrwt beam="2">  1       -1 0.12337069E+00 0.13912414E+04</pdfrwt>
<totfact> 0.31706129E+01</totfact>
</mgrwt>
</event>
<event>
12    7  0.1546317E-007  0.3122746E+04  0.7818608E-02  0.8209523E-01
         -1   -1    0    0    0  501 -0.00000000000E+00  0.00000000000E+00  0.49414912784E+03  0.49414912784E+03  0.00000000000E+00 0.  1.
          2   -1    0    0  501    0  0.00000000000E+00 -0.00000000000E+00 -0.49335009129E+04  0.49335009129E+04  0.00000000000E+00 0. -1.
         24    2    1    2    0    0 -0.20807192124E+03 -0.13967841946E+04 -0.16342572165E+04  0.21614297797E+04  0.81743698380E+02 0.  0.
        254    2    1    2    0    0  0.20807192124E+03  0.13967841946E+04 -0.28050945686E+04  0.32662202611E+04  0.89740695579E+03 0.  0.
         23    2    4    4    0    0  0.15808293932E+03  0.14925356643E+04 -0.26986249024E+04  0.30891855067E+04  0.88531382310E+02 0.  0.
         23    2    4    4    0    0  0.49988981927E+02 -0.95751469699E+02 -0.10646966616E+03  0.17703475439E+03  0.91314140125E+02 0.  0.
          4    1    3    3  502    0 -0.16844414562E+03 -0.10599366392E+04 -0.11895768096E+04  0.16021648153E+04  0.00000000000E+00 0. -1.
         -3    1    3    3    0  502 -0.39627775618E+02 -0.33684755536E+03 -0.44468040682E+03  0.55926496436E+03  0.00000000000E+00 0.  1.
         13    1    5    5    0    0  0.29353393025E+02  0.52848564674E+03 -0.10196597881E+04  0.11488536825E+04  0.00000000000E+00 0.  1.
        -13    1    5    5    0    0  0.12872954629E+03  0.96405001756E+03 -0.16789651144E+04  0.19403318241E+04  0.00000000000E+00 0. -1.
          2    1    6    6  503    0 -0.16426743048E+02 -0.57518458535E+02 -0.23993146266E+02  0.64450616965E+02  0.00000000000E+00 0. -1.
         -2    1    6    6    0  503  0.66415724974E+02 -0.38233011164E+02 -0.82476519890E+02  0.11258413742E+03  0.00000000000E+00 0.  1.
<mgrwt>
<rscale>  0 0.31227457E+04</rscale>
<asrwt>0</asrwt>
<pdfrwt beam="1">  1        2 0.75900015E+00 0.31227457E+04</pdfrwt>
<pdfrwt beam="2">  1       -1 0.76022942E-01 0.31227457E+04</pdfrwt>
<totfact> 0.69267900E-02</totfact>
</mgrwt>
</event>
<event>
12    7  0.1546317E-007  0.2575962E+04  0.7818608E-02  0.8376412E-01
          2   -1    0    0  501    0  0.00000000000E+00  0.00000000000E+00  0.21995420166E+04  0.21995420166E+04  0.00000000000E+00 0. -1.
         -1   -1    0    0    0  501 -0.00000000000E+00 -0.00000000000E+00 -0.75420041272E+03  0.75420041272E+03  0.00000000000E+00 0.  1.
         24    2    1    2    0    0  0.47203611865E+03 -0.94785392072E+03  0.93967622497E+03  0.14179652560E+04  0.79930639539E+02 0.  0.
        254    2    1    2    0    0 -0.47203611865E+03  0.94785392072E+03  0.50566537891E+03  0.15357771733E+04  0.99079205603E+03 0.  0.
         23    2    4    4    0    0 -0.59262957042E+03  0.20742768590E+03  0.45020214989E+03  0.77806239739E+03  0.91994922987E+02 0.  0.
         23    2    4    4    0    0  0.12059345177E+03  0.74042623482E+03  0.55463229024E+02  0.75771477592E+03  0.91003967240E+02 0.  0.
          4    1    3    3  502    0  0.15734487752E+03 -0.34239356824E+03  0.38362195231E+03  0.53773280386E+03  0.00000000000E+00 0. -1.
         -3    1    3    3    0  502  0.31469124112E+03 -0.60546035248E+03  0.55605427266E+03  0.88023245214E+03  0.00000000000E+00 0.  1.
         13    1    5    5    0    0 -0.58230234938E+03  0.20501581854E+03  0.45451862875E+03  0.76661248087E+03  0.00000000000E+00 0.  1.
        -13    1    5    5    0    0 -0.10327221037E+02  0.24118673592E+01 -0.43164788619E+01  0.11449916518E+02  0.00000000000E+00 0. -1.
          1    1    6    6  503    0 -0.24577396042E-01  0.36028079316E+02  0.22141151411E+02  0.42287748687E+02  0.00000000000E+00 0. -1.
         -1    1    6    6    0  503  0.12061802916E+03  0.70439815551E+03  0.33322077612E+02  0.71542702723E+03  0.00000000000E+00 0.  1.
<mgrwt>
<rscale>  0 0.25759623E+04</rscale>
<asrwt>0</asrwt>
<pdfrwt beam="1">  1        2 0.33839108E+00 0.25759623E+04</pdfrwt>
<pdfrwt beam="2">  1       -1 0.11603083E+00 0.25759623E+04</pdfrwt>
<totfact> 0.34991700E+00</totfact>
</mgrwt>
</event>
<event>
12    7  0.1546317E-007  0.1585805E+04  0.7818608E-02  0.8829316E-01
          2   -1    0    0  501    0  0.00000000000E+00  0.00000000000E+00  0.15920155371E+04  0.15920155371E+04  0.00000000000E+00 0. -1.
         -1   -1    0    0    0  501 -0.00000000000E+00 -0.00000000000E+00 -0.39490454906E+03  0.39490454906E+03  0.00000000000E+00 0.  1.
         24    2    1    2    0    0 -0.10407904541E+03 -0.12001453294E+03  0.10570783499E+04  0.10717662550E+04  0.77668087648E+02 0.  0.
        254    2    1    2    0    0  0.10407904541E+03  0.12001453294E+03  0.14003263814E+03  0.91515383111E+03  0.89031537055E+03 0.  0.
         23    2    4    4    0    0 -0.23695175642E+03 -0.30536819385E+02 -0.25537544869E+03  0.36390007471E+03  0.10063802650E+03 0.  0.
         23    2    4    4    0    0  0.34103080182E+03  0.15055135233E+03  0.39540808683E+03  0.55125375640E+03  0.92549615500E+02 0.  0.
          4    1    3    3  502    0 -0.28373067655E+02 -0.66773576825E+02  0.66336752494E+03  0.66732317109E+03  0.00000000000E+00 0. -1.
         -3    1    3    3    0  502 -0.75705977754E+02 -0.53240956117E+02  0.39371082493E+03  0.40444308393E+03  0.00000000000E+00 0.  1.
         13    1    5    5    0    0 -0.13499939961E+03 -0.65638280586E+02 -0.13041376008E+03  0.19884911514E+03  0.00000000000E+00 0. -1.
        -13    1    5    5    0    0 -0.10195235681E+03  0.35101461201E+02 -0.12496168861E+03  0.16505095958E+03  0.00000000000E+00 0.  1.
          3    1    6    6  503    0  0.13161551935E+03  0.54952355430E+02  0.89418361681E+02  0.16833909144E+03  0.00000000000E+00 0. -1.
         -3    1    6    6    0  503  0.20941528248E+03  0.95598996897E+02  0.30598972515E+03  0.38291466496E+03  0.00000000000E+00 0.  1.
<mgrwt>
<rscale>  0 0.15858048E+04</rscale>
<asrwt>0</asrwt>
<pdfrwt beam="1">  1        2 0.24492546E+00 0.15858048E+04</pdfrwt>
<pdfrwt beam="2">  1       -1 0.60754547E-01 0.15858048E+04</pdfrwt>
<totfact> 0.33857579E+01</totfact>
</mgrwt>
</event>
<event>
12    7  0.1546317E-007  0.2367101E+04  0.7818608E-02  0.8451924E-01
          2   -1    0    0  501    0  0.00000000000E+00  0.00000000000E+00  0.15784663245E+04  0.15784663245E+04  0.00000000000E+00 0. -1.
         -1   -1    0    0    0  501 -0.00000000000E+00 -0.00000000000E+00 -0.88743824540E+03  0.88743824540E+03  0.00000000000E+00 0.  1.
         24    2    1    2    0    0 -0.79680710904E+03 -0.57574592714E+03  0.59289487618E+02  0.98815144334E+03  0.80889368909E+02 0.  0.
        254    2    1    2    0    0  0.79680710904E+03  0.57574592714E+03  0.63173859149E+03  0.14777531266E+04  0.90458593482E+03 0.  0.
         23    2    4    4    0    0  0.73811849293E+03  0.89301853011E+02  0.11191775258E+03  0.75752434155E+03  0.92324504525E+02 0.  0.
         23    2    4    4    0    0  0.58688616108E+02  0.48644407413E+03  0.51982083891E+03  0.72022878502E+03  0.91889103228E+02 0.  0.
          4    1    3    3  502    0 -0.13946598263E+03 -0.13832326851E+03  0.11124367537E+01  0.19643147517E+03  0.00000000000E+00 0. -1.
         -3    1    3    3    0  502 -0.65734112641E+03 -0.43742265863E+03  0.58177050865E+02  0.79171996817E+03  0.00000000000E+00 0.  1.
         13    1    5    5    0    0  0.98570897608E+01  0.39290847255E+01  0.14299305775E+02  0.17806461495E+02  0.00000000000E+00 0.  1.
        -13    1    5    5    0    0  0.72826140317E+03  0.85372768286E+02  0.97618446801E+02  0.73971788005E+03  0.00000000000E+00 0. -1.
          1    1    6    6  503    0  0.67369099593E+02  0.25367814200E+03  0.31533817708E+03  0.41027961348E+03  0.00000000000E+00 0. -1.
         -1    1    6    6    0  503 -0.86804834855E+01  0.23276593213E+03  0.20448266183E+03  0.30994917154E+03  0.00000000000E+00 0.  1.
<mgrwt>
<rscale>  0 0.23671007E+04</rscale>
<asrwt>0</asrwt>
<pdfrwt beam="1">  1        2 0.24284097E+00 0.23671007E+04</pdfrwt>
<pdfrwt beam="2">  1       -1 0.13652896E+00 0.23671007E+04</pdfrwt>
<totfact> 0.52690982E+00</totfact>
</mgrwt>
</event>
<event>
12    7  0.1546317E-007  0.1217836E+04  0.7818608E-02  0.9097386E-01
          2   -1    0    0  501    0  0.00000000000E+00  0.00000000000E+00  0.12915902964E+04  0.12915902964E+04  0.00000000000E+00 0. -1.
         -1   -1    0    0    0  501 -0.00000000000E+00 -0.00000000000E+00 -0.28707346485E+03  0.28707346485E+03  0.00000000000E+00 0.  1.
         24    2    1    2    0    0  0.23270848661E+03  0.95213888224E+01  0.66467946880E+02  0.25492908984E+03  0.79542166802E+02 0.  0.
        254    2    1    2    0    0 -0.23270848661E+03 -0.95213888224E+01  0.93804888462E+03  0.13237346714E+04  0.90448541925E+03 0.  0.
         23    2    4    4    0    0  0.23233434849E+03 -0.28646586756E+03  0.31576255961E+03  0.49381601484E+03  0.90035102618E+02 0.  0.
         23    2    4    4    0    0 -0.46504283510E+03  0.27694447874E+03  0.62228632502E+03  0.82991865651E+03  0.92529040575E+02 0.  0.
          4    1    3    3  502    0  0.14347241125E+01  0.35670026243E+01 -0.10443887344E+02  0.11129093577E+02  0.00000000000E+00 0. -1.
         -3    1    3    3    0  502  0.23127376250E+03  0.59543861981E+01  0.76911834224E+02  0.24379999626E+03  0.00000000000E+00 0.  1.
         13    1    5    5    0    0  0.96887120582E+02 -0.66117940607E+02  0.13168876382E+03  0.17635369778E+03  0.00000000000E+00 0.  1.
        -13    1    5    5    0    0  0.13544722790E+03 -0.22034792695E+03  0.18407379579E+03  0.31746231706E+03  0.00000000000E+00 0. -1.
          1    1    6    6  503    0 -0.89566927311E+02  0.76691231955E+02  0.18785237353E+03  0.22179335826E+03  0.00000000000E+00 0. -1.
         -1    1    6    6    0  503 -0.37547590779E+03  0.20025324678E+03  0.43443395149E+03  0.60812529826E+03  0.00000000000E+00 0.  1.
<mgrwt>
<rscale>  0 0.12178363E+04</rscale>
<asrwt>0</asrwt>
<pdfrwt beam="1">  1        2 0.19870620E+00 0.12178363E+04</pdfrwt>
<pdfrwt beam="2">  1       -1 0.44165149E-01 0.12178363E+04</pdfrwt>
<totfact> 0.95215515E+01</totfact>
</mgrwt>
</event>
<event>
12    7  0.1546317E-007  0.1449987E+04  0.7818608E-02  0.8918409E-01
         -1   -1    0    0    0  501 -0.00000000000E+00  0.00000000000E+00  0.39772281314E+03  0.39772281314E+03  0.00000000000E+00 0.  1.
          2   -1    0    0  501    0  0.00000000000E+00 -0.00000000000E+00 -0.13215628851E+04  0.13215628851E+04  0.00000000000E+00 0. -1.
         24    2    1    2    0    0 -0.19866406531E+03 -0.33345392181E+03 -0.33261021674E+02  0.39753030168E+03  0.79152488132E+02 0.  0.
        254    2    1    2    0    0  0.19866406531E+03  0.33345392181E+03 -0.89057905028E+03  0.13217553966E+04  0.89624067900E+03 0.  0.
         23    2    4    4    0    0  0.33336251949E+03  0.18876059528E+02 -0.90289152065E+03  0.96671952161E+03  0.88581377093E+02 0.  0.
         23    2    4    4    0    0 -0.13469845418E+03  0.31457786228E+03  0.12312470371E+02  0.35503587494E+03  0.93786835816E+02 0.  0.
          2    1    3    3  502    0 -0.11930962303E+03 -0.21056640815E+03 -0.58742094788E+02  0.24904544182E+03  0.00000000000E+00 0. -1.
         -1    1    3    3    0  502 -0.79354442273E+02 -0.12288751366E+03  0.25481073114E+02  0.14848485986E+03  0.00000000000E+00 0.  1.
         13    1    5    5    0    0  0.22417826143E+03  0.52168572217E+02 -0.63938708103E+03  0.67955374490E+03  0.00000000000E+00 0.  1.
        -13    1    5    5    0    0  0.10918425806E+03 -0.33292512689E+02 -0.26350443963E+03  0.28716577671E+03  0.00000000000E+00 0. -1.
          1    1    6    6  503    0 -0.77504329806E+02  0.25808626130E+03  0.34420179065E+02  0.27166190042E+03  0.00000000000E+00 0. -1.
         -1    1    6    6    0  503 -0.57194124376E+02  0.56491600982E+02 -0.22107708694E+02  0.83373974527E+02  0.00000000000E+00 0.  1.
<mgrwt>
<rscale>  0 0.14499872E+04</rscale>
<asrwt>0</asrwt>
<pdfrwt beam="1">  1        2 0.20331737E+00 0.14499872E+04</pdfrwt>
<pdfrwt beam="2">  1       -1 0.61188125E-01 0.14499872E+04</pdfrwt>
<totfact> 0.48090796E+01</totfact>
</mgrwt>
</event>
<event>
12    7  0.1546317E-007  0.1931021E+04  0.7818608E-02  0.8639567E-01
          2   -1    0    0  501    0  0.00000000000E+00  0.00000000000E+00  0.22998820287E+04  0.22998820287E+04  0.00000000000E+00 0. -1.
         -1   -1    0    0    0  501 -0.00000000000E+00 -0.00000000000E+00 -0.40532984122E+03  0.40532984122E+03  0.00000000000E+00 0.  1.
         24    2    1    2    0    0 -0.25081880538E+03 -0.64338852011E+02  0.17329394151E+04  0.17541007610E+04  0.82102999747E+02 0.  0.
        254    2    1    2    0    0  0.25081880538E+03  0.64338852011E+02  0.16161277244E+03  0.95111110891E+03  0.90080191622E+03 0.  0.
         23    2    4    4    0    0  0.60212590777E+02 -0.40460381921E+03  0.12409605050E+03  0.43686578816E+03  0.90122586017E+02 0.  0.
         23    2    4    4    0    0  0.19060621460E+03  0.46894267122E+03  0.37516721946E+02  0.51424532075E+03  0.82479012754E+02 0.  0.
          2    1    3    3  502    0 -0.22799597237E+03 -0.77060864805E+02  0.16397581164E+04  0.16573253213E+04  0.00000000000E+00 0. -1.
         -1    1    3    3    0  502 -0.22822833012E+02  0.12722012794E+02  0.93181298651E+02  0.96775439728E+02  0.00000000000E+00 0.  1.
         13    1    5    5    0    0  0.83378658022E+02 -0.28573549905E+03  0.92793773948E+02  0.31178110994E+03  0.00000000000E+00 0. -1.
        -13    1    5    5    0    0 -0.23166067245E+02 -0.11886832016E+03  0.31302276551E+02  0.12508467823E+03  0.00000000000E+00 0.  1.
          2    1    6    6  503    0  0.68234862578E+02  0.27034485849E+03  0.63042175749E+01  0.27889439246E+03  0.00000000000E+00 0. -1.
         -2    1    6    6    0  503  0.12237135202E+03  0.19859781273E+03  0.31212504371E+02  0.23535092829E+03  0.00000000000E+00 0.  1.
<mgrwt>
<rscale>  0 0.19310213E+04</rscale>
<asrwt>0</asrwt>
<pdfrwt beam="1">  1        2 0.35382800E+00 0.19310213E+04</pdfrwt>
<pdfrwt beam="2">  1       -1 0.62358439E-01 0.19310213E+04</pdfrwt>
<totfact> 0.12583154E+01</totfact>
</mgrwt>
</event>
<event>
12    7  0.1546317E-007  0.2330826E+04  0.7818608E-02  0.8465865E-01
          2   -1    0    0  501    0  0.00000000000E+00  0.00000000000E+00  0.18038416242E+04  0.18038416242E+04  0.00000000000E+00 0. -1.
         -1   -1    0    0    0  501 -0.00000000000E+00 -0.00000000000E+00 -0.75294157837E+03  0.75294157837E+03  0.00000000000E+00 0.  1.
         24    2    1    2    0    0  0.53393077542E+03 -0.50173903415E+02 -0.46685841115E+03  0.71561659940E+03  0.80937307542E+02 0.  0.
        254    2    1    2    0    0 -0.53393077542E+03  0.50173903415E+02  0.15177584570E+04  0.18411666032E+04  0.89370254191E+03 0.  0.
         23    2    4    4    0    0 -0.73094856264E+03  0.19699560235E+03  0.12656722056E+04  0.14776119013E+04  0.91201590371E+02 0.  0.
         23    2    4    4    0    0  0.19701778722E+03 -0.14682169894E+03  0.25208625137E+03  0.36355470193E+03  0.90840098005E+02 0.  0.
          2    1    3    3  502    0  0.20049204458E+03 -0.77443900087E+01 -0.22532029938E+03  0.30170560622E+03  0.00000000000E+00 0. -1.
         -1    1    3    3    0  502  0.33343873085E+03 -0.42429513406E+02 -0.24153811177E+03  0.41391099318E+03  0.00000000000E+00 0.  1.
         13    1    5    5    0    0 -0.56275311572E+03  0.18168477314E+03  0.10297113045E+04  0.11874366495E+04  0.00000000000E+00 0.  1.
        -13    1    5    5    0    0 -0.16819544692E+03  0.15310829214E+02  0.23596090115E+03  0.29017525175E+03  0.00000000000E+00 0. -1.
          1    1    6    6  503    0  0.16377093636E+03 -0.69799346862E+02  0.17451938569E+03  0.24929878540E+03  0.00000000000E+00 0. -1.
         -1    1    6    6    0  503  0.33246850860E+02 -0.77022352077E+02  0.77566865673E+02  0.11425591653E+03  0.00000000000E+00 0.  1.
<mgrwt>
<rscale>  0 0.23308259E+04</rscale>
<asrwt>0</asrwt>
<pdfrwt beam="1">  1        2 0.27751410E+00 0.23308259E+04</pdfrwt>
<pdfrwt beam="2">  1       -1 0.11583717E+00 0.23308259E+04</pdfrwt>
<totfact> 0.59626867E+00</totfact>
</mgrwt>
</event>
<event>
12    7  0.1546317E-007  0.1733404E+04  0.7818608E-02  0.8742539E-01
         -3   -1    0    0    0  501 -0.00000000000E+00  0.00000000000E+00  0.63521284948E+03  0.63521284948E+03  0.00000000000E+00 0.  1.
          4   -1    0    0  501    0  0.00000000000E+00 -0.00000000000E+00 -0.11825524567E+04  0.11825524567E+04  0.00000000000E+00 0. -1.
         24    2    1    2    0    0 -0.48250723771E+03 -0.36309727217E+03 -0.36075438947E+03  0.70792617339E+03  0.79767624715E+02 0.  0.
        254    2    1    2    0    0  0.48250723771E+03  0.36309727217E+03 -0.18658521778E+03  0.11098391328E+04  0.91229161661E+03 0.  0.
         23    2    4    4    0    0  0.50090448220E+03 -0.15879280247E+03  0.36682036792E+02  0.53461534618E+03  0.91364884619E+02 0.  0.
         23    2    4    4    0    0 -0.18397244496E+02  0.52189007465E+03 -0.22326725457E+03  0.57522378664E+03  0.91249269202E+02 0.  0.
          2    1    3    3  502    0 -0.24144219941E+03 -0.18914465199E+03 -0.13731876035E+03  0.33604534958E+03  0.00000000000E+00 0. -1.
         -1    1    3    3    0  502 -0.24106503830E+03 -0.17395262019E+03 -0.22343562911E+03  0.37188082381E+03  0.00000000000E+00 0.  1.
         13    1    5    5    0    0  0.19865092106E+03 -0.16973796338E+02  0.84722276932E+01  0.19955469637E+03  0.00000000000E+00 0.  1.
        -13    1    5    5    0    0  0.30225356114E+03 -0.14181900613E+03  0.28209809099E+02  0.33506064981E+03  0.00000000000E+00 0. -1.
          1    1    6    6  503    0  0.35654845322E+02  0.22057195460E+03 -0.81142436693E+02  0.23771274720E+03  0.00000000000E+00 0. -1.
         -1    1    6    6    0  503 -0.54052089818E+02  0.30131812005E+03 -0.14212481788E+03  0.33751103943E+03  0.00000000000E+00 0.  1.
<mgrwt>
<rscale>  0 0.17334042E+04</rscale>
<asrwt>0</asrwt>
<pdfrwt beam="1">  1        4 0.18193115E+00 0.17334042E+04</pdfrwt>
<pdfrwt beam="2">  1       -3 0.97725054E-01 0.17334042E+04</pdfrwt>
<totfact> 0.34852823E-01</totfact>
</mgrwt>
</event>
<event>
12    7  0.1546317E-007  0.1418524E+04  0.7818608E-02  0.8940518E-01
         -1   -1    0    0    0  501 -0.00000000000E+00  0.00000000000E+00  0.14889168214E+04  0.14889168214E+04  0.00000000000E+00 0.  1.
          2   -1    0    0  501    0  0.00000000000E+00 -0.00000000000E+00 -0.33786483592E+03  0.33786483592E+03  0.00000000000E+00 0. -1.
         24    2    1    2    0    0 -0.20655410574E+02  0.62360357163E+02  0.87719456499E+03  0.88383949400E+03  0.85944669235E+02 0.  0.
        254    2    1    2    0    0  0.20655410574E+02 -0.62360357163E+02  0.27385742053E+03  0.94294216336E+03  0.89990364847E+03 0.  0.
         23    2    4    4    0    0 -0.90131516823E+02 -0.46139821476E+03  0.15516027543E+03  0.50346052491E+03  0.91573938260E+02 0.  0.
         23    2    4    4    0    0  0.11078692740E+03  0.39903785759E+03  0.11869714511E+03  0.43948163845E+03  0.86891560030E+02 0.  0.
          2    1    3    3  502    0  0.28707714754E+01  0.45734997206E+02  0.17028424318E+03  0.17634243611E+03  0.00000000000E+00 0. -1.
         -1    1    3    3    0  502 -0.23526182049E+02  0.16625359957E+02  0.70691032181E+03  0.70749705789E+03  0.00000000000E+00 0.  1.
         13    1    5    5    0    0 -0.75259967884E+02 -0.21029669937E+03  0.40421344139E+02  0.22698601189E+03  0.00000000000E+00 0.  1.
        -13    1    5    5    0    0 -0.14871548939E+02 -0.25110151539E+03  0.11473893129E+03  0.27647451303E+03  0.00000000000E+00 0. -1.
          1    1    6    6  503    0  0.35833979549E+02  0.14313438014E+03 -0.12407940409E+00  0.14755182230E+03  0.00000000000E+00 0. -1.
         -1    1    6    6    0  503  0.74952947848E+02  0.25590347745E+03  0.11882122451E+03  0.29192981615E+03  0.00000000000E+00 0.  1.
<mgrwt>
<rscale>  0 0.14185241E+04</rscale>
<asrwt>0</asrwt>
<pdfrwt beam="1">  1        2 0.51979206E-01 0.14185241E+04</pdfrwt>
<pdfrwt beam="2">  1       -1 0.22906412E+00 0.14185241E+04</pdfrwt>
<totfact> 0.10246961E+01</totfact>
</mgrwt>
</event>
<event>
12    7  0.1546317E-007  0.1585517E+04  0.7818608E-02  0.8829495E-01
         -1   -1    0    0    0  501 -0.00000000000E+00  0.00000000000E+00  0.59120857876E+03  0.59120857876E+03  0.00000000000E+00 0.  1.
          2   -1    0    0  501    0  0.00000000000E+00 -0.00000000000E+00 -0.10630195526E+04  0.10630195526E+04  0.00000000000E+00 0. -1.
         24    2    1    2    0    0 -0.11223142649E+03  0.20373935329E+03 -0.66075097694E+03  0.70518943757E+03  0.81207586850E+02 0.  0.
        254    2    1    2    0    0  0.11223142649E+03 -0.20373935329E+03  0.18894000314E+03  0.94903869375E+03  0.90048348140E+03 0.  0.
         23    2    4    4    0    0 -0.30613310422E+03  0.83665787108E+02  0.27024094141E+03  0.42686296702E+03  0.92002091069E+02 0.  0.
         23    2    4    4    0    0  0.41836453071E+03 -0.28740514040E+03 -0.81300938270E+02  0.52217572673E+03  0.91798974616E+02 0.  0.
          2    1    3    3  502    0 -0.52592178465E+01  0.68912535370E+02 -0.26031893932E+03  0.26933723670E+03  0.00000000000E+00 0. -1.
         -1    1    3    3    0  502 -0.10697220864E+03  0.13482681792E+03 -0.40043203762E+03  0.43585220088E+03  0.00000000000E+00 0.  1.
         13    1    5    5    0    0 -0.48192889194E+02 -0.15463384276E+02  0.66355993926E+02  0.83455309910E+02  0.00000000000E+00 0.  1.
        -13    1    5    5    0    0 -0.25794021503E+03  0.99129171384E+02  0.20388494749E+03  0.34340765711E+03  0.00000000000E+00 0. -1.
          3    1    6    6  503    0  0.39134935791E+03 -0.29208628960E+03 -0.78719667677E+02  0.49463674205E+03  0.00000000000E+00 0. -1.
         -3    1    6    6    0  503  0.27015172803E+02  0.46811492019E+01 -0.25812705932E+01  0.27538984682E+02  0.00000000000E+00 0.  1.
<mgrwt>
<rscale>  0 0.15855173E+04</rscale>
<asrwt>0</asrwt>
<pdfrwt beam="1">  1        2 0.16354147E+00 0.15855173E+04</pdfrwt>
<pdfrwt beam="2">  1       -1 0.90955167E-01 0.15855173E+04</pdfrwt>
<totfact> 0.29690295E+01</totfact>
</mgrwt>
</event>
<event>
12    7  0.1546317E-007  0.2218883E+04  0.7818608E-02  0.8510610E-01
          2   -1    0    0  501    0  0.00000000000E+00  0.00000000000E+00  0.10380537738E+04  0.10380537738E+04  0.00000000000E+00 0. -1.
         -1   -1    0    0    0  501 -0.00000000000E+00 -0.00000000000E+00 -0.11857383343E+04  0.11857383343E+04  0.00000000000E+00 0.  1.
         24    2    1    2    0    0 -0.64850464457E+03 -0.64783423922E+03  0.68324564328E+02  0.92277769097E+03  0.81258509193E+02 0.  0.
        254    2    1    2    0    0  0.64850464457E+03  0.64783423922E+03 -0.21600912479E+03  0.13010144172E+04  0.89762525374E+03 0.  0.
         23    2    4    4    0    0  0.67149545278E+03  0.68189257003E+03  0.10227016168E+03  0.96719397151E+03  0.95505876176E+02 0.  0.
         23    2    4    4    0    0 -0.22990808212E+02 -0.34058330812E+02 -0.31827928647E+03  0.33382044566E+03  0.91901243659E+02 0.  0.
          4    1    3    3  502    0 -0.20994130563E+03 -0.26065788224E+03  0.96900106401E+01  0.33483097182E+03  0.00000000000E+00 0. -1.
         -3    1    3    3    0  502 -0.43856333894E+03 -0.38717635698E+03  0.58634553688E+02  0.58794671914E+03  0.00000000000E+00 0.  1.
         13    1    5    5    0    0  0.63114154878E+03  0.62703038093E+03  0.71726235669E+02  0.89255330714E+03  0.00000000000E+00 0.  1.
        -13    1    5    5    0    0  0.40353903998E+02  0.54862189103E+02  0.30543926009E+02  0.74640664367E+02  0.00000000000E+00 0. -1.
          1    1    6    6  503    0  0.34631615273E+02 -0.16775734704E+02 -0.15813408921E+03  0.16274877641E+03  0.00000000000E+00 0. -1.
         -1    1    6    6    0  503 -0.57622423486E+02 -0.17282596108E+02 -0.16014519726E+03  0.17107166925E+03  0.00000000000E+00 0.  1.
<mgrwt>
<rscale>  0 0.22188827E+04</rscale>
<asrwt>0</asrwt>
<pdfrwt beam="1">  1        2 0.15970058E+00 0.22188827E+04</pdfrwt>
<pdfrwt beam="2">  1       -1 0.18242128E+00 0.22188827E+04</pdfrwt>
<totfact> 0.49565577E+00</totfact>
</mgrwt>
</event>
<event>
12    7  0.1546317E-007  0.2650802E+04  0.7818608E-02  0.8351147E-01
         -3   -1    0    0    0  501 -0.00000000000E+00  0.00000000000E+00  0.11019472500E+04  0.11019472500E+04  0.00000000000E+00 0.  1.
          2   -1    0    0  501    0  0.00000000000E+00 -0.00000000000E+00 -0.15941670142E+04  0.15941670142E+04  0.00000000000E+00 0. -1.
         24    2    1    2    0    0 -0.78552957354E+03 -0.67725484015E+03 -0.77639226425E+03  0.12979458416E+04  0.78406825547E+02 0.  0.
        254    2    1    2    0    0  0.78552957354E+03  0.67725484015E+03  0.28417250002E+03  0.13981684226E+04  0.89352677561E+03 0.  0.
         23    2    4    4    0    0  0.68392785762E+03  0.83480300741E+03  0.40502695780E+03  0.11570672205E+04  0.10052034942E+03 0.  0.
         23    2    4    4    0    0  0.10160171591E+03 -0.15754816726E+03 -0.12085445779E+03  0.24110120206E+03  0.91540460924E+02 0.  0.
          4    1    3    3  502    0 -0.68994512888E+03 -0.61382124612E+03 -0.71441034463E+03  0.11675542572E+04  0.00000000000E+00 0. -1.
         -3    1    3    3    0  502 -0.95584444654E+02 -0.63433594035E+02 -0.61981919624E+02  0.13039158436E+03  0.00000000000E+00 0.  1.
         13    1    5    5    0    0  0.50454855230E+03  0.67054761715E+03  0.33889205740E+03  0.90501446125E+03  0.00000000000E+00 0. -1.
        -13    1    5    5    0    0  0.17937930532E+03  0.16425539026E+03  0.66134900396E+02  0.25205275927E+03  0.00000000000E+00 0.  1.
          4    1    6    6  503    0  0.60262686600E+02 -0.12308981368E+03 -0.12711017688E+03  0.18692161645E+03  0.00000000000E+00 0. -1.
         -4    1    6    6    0  503  0.41339029313E+02 -0.34458353578E+02  0.62557190986E+01  0.54179585614E+02  0.00000000000E+00 0.  1.
<mgrwt>
<rscale>  0 0.26508021E+04</rscale>
<asrwt>0</asrwt>
<pdfrwt beam="1">  1        2 0.24525646E+00 0.26508021E+04</pdfrwt>
<pdfrwt beam="2">  1       -3 0.16953035E+00 0.26508021E+04</pdfrwt>
<totfact> 0.14600918E+00</totfact>
</mgrwt>
</event>
<event>
12    7  0.1546317E-007  0.2488646E+04  0.7818608E-02  0.8407042E-01
          2   -1    0    0  501    0  0.00000000000E+00  0.00000000000E+00  0.16969839319E+04  0.16969839319E+04  0.00000000000E+00 0. -1.
         -1   -1    0    0    0  501 -0.00000000000E+00 -0.00000000000E+00 -0.91240690220E+03  0.91240690220E+03  0.00000000000E+00 0.  1.
         24    2    1    2    0    0 -0.63473669218E+03  0.60499728837E+03 -0.32453940408E+03  0.93929847944E+03  0.89685123263E+02 0.  0.
        254    2    1    2    0    0  0.63473669218E+03 -0.60499728837E+03  0.11091164337E+04  0.16700923546E+04  0.88890765663E+03 0.  0.
         23    2    4    4    0    0 -0.11276317389E+03 -0.25055427145E+03  0.66844082741E+03  0.72841997992E+03  0.91046971751E+02 0.  0.
         23    2    4    4    0    0  0.74749986607E+03 -0.35444301692E+03  0.44067560633E+03  0.94167237470E+03  0.90365752628E+02 0.  0.
          4    1    3    3  502    0 -0.41006530866E+02  0.14892271365E+02 -0.80380508425E+01  0.44361307256E+02  0.00000000000E+00 0. -1.
         -3    1    3    3    0  502 -0.59373016131E+03  0.59010501700E+03 -0.31650135324E+03  0.89493717218E+03  0.00000000000E+00 0.  1.
         13    1    5    5    0    0 -0.11220580926E+03 -0.23379334195E+03  0.66104473516E+03  0.71009127037E+03  0.00000000000E+00 0. -1.
        -13    1    5    5    0    0 -0.55736462784E+00 -0.16760929503E+02  0.73960922506E+01  0.18328709548E+02  0.00000000000E+00 0.  1.
          4    1    6    6  503    0  0.65510952723E+03 -0.33311825016E+03  0.41233697568E+03  0.84270875322E+03  0.00000000000E+00 0. -1.
         -4    1    6    6    0  503  0.92390338840E+02 -0.21324766758E+02  0.28338630657E+02  0.98963621477E+02  0.00000000000E+00 0.  1.
<mgrwt>
<rscale>  0 0.24886461E+04</rscale>
<asrwt>0</asrwt>
<pdfrwt beam="1">  1        2 0.26107445E+00 0.24886461E+04</pdfrwt>
<pdfrwt beam="2">  1       -1 0.14037029E+00 0.24886461E+04</pdfrwt>
<totfact> 0.41653332E+00</totfact>
</mgrwt>
</event>
<event>
12    7  0.1546317E-007  0.1655155E+04  0.7818608E-02  0.8787363E-01
          2   -1    0    0  501    0  0.00000000000E+00  0.00000000000E+00  0.99245550936E+03  0.99245550936E+03  0.00000000000E+00 0. -1.
         -1   -1    0    0    0  501 -0.00000000000E+00 -0.00000000000E+00 -0.69009101535E+03  0.69009101535E+03  0.00000000000E+00 0.  1.
         24    2    1    2    0    0  0.14502317573E+03 -0.43142939040E+03  0.47452792505E+03  0.66227849408E+03  0.79202346419E+02 0.  0.
        254    2    1    2    0    0 -0.14502317573E+03  0.43142939040E+03 -0.17216343104E+03  0.10202680306E+04  0.89674052374E+03 0.  0.
         23    2    4    4    0    0  0.96146925413E+02  0.30730234744E+03  0.31281541118E+03  0.45742309199E+03  0.87769240682E+02 0.  0.
         23    2    4    4    0    0 -0.24117010114E+03  0.12412704296E+03 -0.48497884222E+03  0.56284493863E+03  0.89551142141E+02 0.  0.
          4    1    3    3  502    0  0.94910027808E+02 -0.37361174248E+03  0.39612784866E+03  0.55273042252E+03  0.00000000000E+00 0. -1.
         -3    1    3    3    0  502  0.50113147922E+02 -0.57817647920E+02  0.78400076388E+02  0.10954807156E+03  0.00000000000E+00 0.  1.
         13    1    5    5    0    0 -0.87672657362E+01  0.16257140518E+02  0.15101421145E+01  0.18532136831E+02  0.00000000000E+00 0.  1.
        -13    1    5    5    0    0  0.10491419115E+03  0.29104520692E+03  0.31130526907E+03  0.43889095516E+03  0.00000000000E+00 0. -1.
          3    1    6    6  503    0 -0.19412288639E+03  0.11889560854E+03 -0.33076050637E+03  0.40152505939E+03  0.00000000000E+00 0. -1.
         -3    1    6    6    0  503 -0.47047214755E+02  0.52314344176E+01 -0.15421833586E+03  0.16131987924E+03  0.00000000000E+00 0.  1.
<mgrwt>
<rscale>  0 0.16551551E+04</rscale>
<asrwt>0</asrwt>
<pdfrwt beam="1">  1        2 0.15268546E+00 0.16551551E+04</pdfrwt>
<pdfrwt beam="2">  1       -1 0.10616785E+00 0.16551551E+04</pdfrwt>
<totfact> 0.23027851E+01</totfact>
</mgrwt>
</event>
<event>
12    7  0.1546317E-007  0.1440240E+04  0.7818608E-02  0.8925195E-01
         -1   -1    0    0    0  501 -0.00000000000E+00  0.00000000000E+00  0.57177118323E+03  0.57177118323E+03  0.00000000000E+00 0.  1.
          2   -1    0    0  501    0  0.00000000000E+00 -0.00000000000E+00 -0.90695919441E+03  0.90695919441E+03  0.00000000000E+00 0. -1.
         24    2    1    2    0    0 -0.39787004381E+03 -0.72772734142E+02  0.51268703600E+02  0.41540253551E+03  0.79588591785E+02 0.  0.
        254    2    1    2    0    0  0.39787004381E+03  0.72772734142E+02 -0.38645671478E+03  0.10633278421E+04  0.90427919631E+03 0.  0.
         23    2    4    4    0    0  0.64343348559E+03  0.16868100619E+03 -0.40612552670E+03  0.78407236012E+03  0.85857965487E+02 0.  0.
         23    2    4    4    0    0 -0.24556344178E+03 -0.95908272048E+02  0.19668811928E+02  0.27925548202E+03  0.89983117799E+02 0.  0.
          2    1    3    3  502    0 -0.29052735122E+02 -0.68767332169E+01  0.26511597144E+02  0.39927630294E+02  0.00000000000E+00 0. -1.
         -1    1    3    3    0  502 -0.36881730868E+03 -0.65896000925E+02  0.24757106456E+02  0.37547490521E+03  0.00000000000E+00 0.  1.
         13    1    5    5    0    0  0.15700227887E+03  0.80126431525E+02 -0.10591183392E+03  0.20563870541E+03  0.00000000000E+00 0. -1.
        -13    1    5    5    0    0  0.48643120672E+03  0.88554574666E+02 -0.30021369278E+03  0.57843365470E+03  0.00000000000E+00 0.  1.
          4    1    6    6  503    0 -0.49568902587E+02  0.28202743814E+01  0.32637936425E+02  0.59416032730E+02  0.00000000000E+00 0. -1.
         -4    1    6    6    0  503 -0.19599453919E+03 -0.98728546430E+02 -0.12969124497E+02  0.21983944929E+03  0.00000000000E+00 0.  1.
<mgrwt>
<rscale>  0 0.14402404E+04</rscale>
<asrwt>0</asrwt>
<pdfrwt beam="1">  1        2 0.13953218E+00 0.14402404E+04</pdfrwt>
<pdfrwt beam="2">  1       -1 0.87964798E-01 0.14402404E+04</pdfrwt>
<totfact> 0.40824039E+01</totfact>
</mgrwt>
</event>
<event>
12    7  0.1546317E-007  0.2315629E+04  0.7818608E-02  0.8471784E-01
         -1   -1    0    0    0  501 -0.00000000000E+00  0.00000000000E+00  0.14668961663E+04  0.14668961663E+04  0.00000000000E+00 0.  1.
          2   -1    0    0  501    0  0.00000000000E+00 -0.00000000000E+00 -0.91385791325E+03  0.91385791325E+03  0.00000000000E+00 0. -1.
         24    2    1    2    0    0  0.51182162220E+03 -0.42535524399E+03  0.98515929471E+03  0.11912156001E+04  0.74614431919E+02 0.  0.
        254    2    1    2    0    0 -0.51182162220E+03  0.42535524399E+03 -0.43212104167E+03  0.11895384794E+04  0.88621935368E+03 0.  0.
         23    2    4    4    0    0 -0.55779757173E+03 -0.64855967808E+02 -0.38620679387E+03  0.68623900206E+03  0.80148940923E+02 0.  0.
         23    2    4    4    0    0  0.45975949531E+02  0.49021121180E+03 -0.45914247802E+02  0.50329947737E+03  0.93709261326E+02 0.  0.
          2    1    3    3  502    0  0.68448921584E+00 -0.58654386282E+00  0.16275990064E+02  0.16300932849E+02  0.00000000000E+00 0. -1.
         -1    1    3    3    0  502  0.51113713298E+03 -0.42476870013E+03  0.96888330464E+03  0.11749146673E+04  0.00000000000E+00 0.  1.
         13    1    5    5    0    0 -0.30201797155E+03 -0.21746874554E+02 -0.16215964759E+03  0.34348731126E+03  0.00000000000E+00 0.  1.
        -13    1    5    5    0    0 -0.25577960018E+03 -0.43109093254E+02 -0.22404714628E+03  0.34275169080E+03  0.00000000000E+00 0. -1.
          3    1    6    6  503    0 -0.48656092696E+01  0.37768877640E+03 -0.35603193047E+02  0.37939435068E+03  0.00000000000E+00 0. -1.
         -3    1    6    6    0  503  0.50841558801E+02  0.11252243540E+03 -0.10311054755E+02  0.12390512668E+03  0.00000000000E+00 0.  1.
<mgrwt>
<rscale>  0 0.23156292E+04</rscale>
<asrwt>0</asrwt>
<pdfrwt beam="1">  1        2 0.14059353E+00 0.23156292E+04</pdfrwt>
<pdfrwt beam="2">  1       -1 0.22567633E+00 0.23156292E+04</pdfrwt>
<totfact> 0.29884409E+00</totfact>
</mgrwt>
</event>
<event>
12    7  0.1546317E-007  0.2128929E+04  0.7818608E-02  0.8548606E-01
         -1   -1    0    0    0  501 -0.00000000000E+00  0.00000000000E+00  0.20509822639E+04  0.20509822639E+04  0.00000000000E+00 0.  1.
          2   -1    0    0  501    0  0.00000000000E+00 -0.00000000000E+00 -0.55245960479E+03  0.55245960479E+03  0.00000000000E+00 0. -1.
         24    2    1    2    0    0 -0.72564849009E+03 -0.46588269526E+03  0.68295883722E+03  0.11030018187E+04  0.81042099565E+02 0.  0.
        254    2    1    2    0    0  0.72564849009E+03  0.46588269526E+03  0.81556382193E+03  0.15004400500E+04  0.91791262059E+03 0.  0.
         23    2    4    4    0    0  0.23534762317E+03  0.49776339920E+03  0.83084555442E+03  0.10003519642E+04  0.85104709941E+02 0.  0.
         23    2    4    4    0    0  0.49030086692E+03 -0.31880703947E+02 -0.15281732484E+02  0.50008808579E+03  0.91887119950E+02 0.  0.
          4    1    3    3  502    0 -0.60658144534E+03 -0.35879882162E+03  0.53296605564E+03  0.88358953179E+03  0.00000000000E+00 0. -1.
         -3    1    3    3    0  502 -0.11906704475E+03 -0.10708387364E+03  0.14999278158E+03  0.21941228695E+03  0.00000000000E+00 0.  1.
         13    1    5    5    0    0  0.14505618119E+03  0.21712627101E+03  0.42322081327E+03  0.49729364569E+03  0.00000000000E+00 0. -1.
        -13    1    5    5    0    0  0.90291441982E+02  0.28063712820E+03  0.40762474115E+03  0.50305831850E+03  0.00000000000E+00 0.  1.
          2    1    6    6  503    0  0.13214140288E+03  0.27779376053E+02 -0.22664415718E+02  0.13691866136E+03  0.00000000000E+00 0. -1.
         -2    1    6    6    0  503  0.35815946405E+03 -0.59660080000E+02  0.73826832340E+01  0.36316942443E+03  0.00000000000E+00 0.  1.
<mgrwt>
<rscale>  0 0.21289292E+04</rscale>
<asrwt>0</asrwt>
<pdfrwt beam="1">  1        2 0.84993786E-01 0.21289292E+04</pdfrwt>
<pdfrwt beam="2">  1       -1 0.31553573E+00 0.21289292E+04</pdfrwt>
<totfact> 0.15056453E+00</totfact>
</mgrwt>
</event>
<event>
12    7  0.1546317E-007  0.1501532E+04  0.7818608E-02  0.8883435E-01
          2   -1    0    0  501    0  0.00000000000E+00  0.00000000000E+00  0.25772293574E+04  0.25772293574E+04  0.00000000000E+00 0. -1.
         -1   -1    0    0    0  501 -0.00000000000E+00 -0.00000000000E+00 -0.21870382258E+03  0.21870382258E+03  0.00000000000E+00 0.  1.
         24    2    1    2    0    0  0.29224838083E+03  0.10591487658E+03  0.95186512687E+02  0.33481214300E+03  0.80072602840E+02 0.  0.
        254    2    1    2    0    0 -0.29224838083E+03 -0.10591487658E+03  0.22633390222E+04  0.24611210370E+04  0.91530658926E+03 0.  0.
         23    2    4    4    0    0 -0.20996060198E+03 -0.48805276429E+03  0.15777673070E+04  0.16667823275E+04  0.80837473119E+02 0.  0.
         23    2    4    4    0    0 -0.82287778852E+02  0.38213788771E+03  0.68557171515E+03  0.79433870950E+03  0.90359089395E+02 0.  0.
          2    1    3    3  502    0  0.19242015683E+02 -0.42912510260E+01 -0.10087262911E+02  0.22145493356E+02  0.00000000000E+00 0. -1.
         -3    1    3    3    0  502  0.27300636515E+03  0.11020612760E+03  0.10527377560E+03  0.31266664965E+03  0.00000000000E+00 0.  1.
         13    1    5    5    0    0 -0.58641830373E+02 -0.18291356624E+03  0.67884190197E+03  0.70549455339E+03  0.00000000000E+00 0.  1.
        -13    1    5    5    0    0 -0.15131877161E+03 -0.30513919804E+03  0.89892540506E+03  0.96128777413E+03  0.00000000000E+00 0. -1.
          2    1    6    6  503    0 -0.11023346820E+02  0.15536296147E+03  0.35012860855E+03  0.38320908978E+03  0.00000000000E+00 0. -1.
         -2    1    6    6    0  503 -0.71264432033E+02  0.22677492624E+03  0.33544310660E+03  0.41112961972E+03  0.00000000000E+00 0.  1.
<mgrwt>
<rscale>  0 0.15015324E+04</rscale>
<asrwt>0</asrwt>
<pdfrwt beam="1">  1        2 0.39649680E+00 0.15015324E+04</pdfrwt>
<pdfrwt beam="2">  1       -1 0.33646744E-01 0.15015324E+04</pdfrwt>
<totfact> 0.28849107E+01</totfact>
</mgrwt>
</event>
<event>
12    7  0.1546317E-007  0.3545920E+04  0.7818608E-02  0.8102993E-01
          2   -1    0    0  501    0  0.00000000000E+00  0.00000000000E+00  0.15455178768E+04  0.15455178768E+04  0.00000000000E+00 0. -1.
         -1   -1    0    0    0  501 -0.00000000000E+00 -0.00000000000E+00 -0.20338727519E+04  0.20338727519E+04  0.00000000000E+00 0.  1.
         24    2    1    2    0    0  0.13093942939E+04 -0.51737275372E+03  0.65553926212E+03  0.15551657571E+04  0.81368451346E+02 0.  0.
        254    2    1    2    0    0 -0.13093942939E+04  0.51737275372E+03 -0.11438941372E+04  0.20242248715E+04  0.89822299588E+03 0.  0.
         23    2    4    4    0    0 -0.11426700234E+04  0.49067494344E+03 -0.48544820848E+03  0.13380966176E+04  0.91574627729E+02 0.  0.
         23    2    4    4    0    0 -0.16672427048E+03  0.26697810283E+02 -0.65844592870E+03  0.68612825393E+03  0.93333725809E+02 0.  0.
          2    1    3    3  502    0  0.12364807065E+04 -0.49810575157E+03  0.60194316349E+03  0.14626446764E+04  0.00000000000E+00 0. -1.
         -1    1    3    3    0  502  0.72913587425E+02 -0.19267002148E+02  0.53596098624E+02  0.92521080791E+02  0.00000000000E+00 0.  1.
         13    1    5    5    0    0 -0.10500668960E+03  0.69029246751E+02 -0.67133810566E+02  0.14247241940E+03  0.00000000000E+00 0. -1.
        -13    1    5    5    0    0 -0.10376633338E+04  0.42164569669E+03 -0.41831439791E+03  0.11956241982E+04  0.00000000000E+00 0.  1.
          1    1    6    6  503    0 -0.17274723069E+03  0.36422448599E+02 -0.64366859605E+03  0.66744098017E+03  0.00000000000E+00 0.  1.
         -1    1    6    6    0  503  0.60229602120E+01 -0.97246383167E+01 -0.14777332656E+02  0.18687273759E+02  0.00000000000E+00 0. -1.
<mgrwt>
<rscale>  0 0.35459197E+04</rscale>
<asrwt>0</asrwt>
<pdfrwt beam="1">  1        2 0.23777198E+00 0.35459197E+04</pdfrwt>
<pdfrwt beam="2">  1       -1 0.31290350E+00 0.35459197E+04</pdfrwt>
<totfact> 0.30355915E-01</totfact>
</mgrwt>
</event>
<event>
12    7  0.1546317E-007  0.1357909E+04  0.7818608E-02  0.8984862E-01
          2   -1    0    0  501    0  0.00000000000E+00  0.00000000000E+00  0.30327726691E+04  0.30327726691E+04  0.00000000000E+00 0. -1.
         -1   -1    0    0    0  501 -0.00000000000E+00 -0.00000000000E+00 -0.15199934644E+03  0.15199934644E+03  0.00000000000E+00 0.  1.
         24    2    1    2    0    0  0.22061124599E+03 -0.16383213254E+02  0.15090511614E+04  0.15272792924E+04  0.80055591504E+02 0.  0.
        254    2    1    2    0    0 -0.22061124599E+03  0.16383213254E+02  0.13717221612E+04  0.16574927231E+04  0.90372712034E+03 0.  0.
         23    2    4    4    0    0 -0.98166895665E+02  0.43163891796E+03  0.46599662180E+03  0.64922779702E+03  0.91624156165E+02 0.  0.
         23    2    4    4    0    0 -0.12244435032E+03 -0.41525570471E+03  0.90572553939E+03  0.10082649261E+04  0.93965361752E+02 0.  0.
          2    1    3    3  502    0  0.21438983884E+03 -0.25194012339E+02  0.14884859431E+04  0.15040572277E+04  0.00000000000E+00 0. -1.
         -1    1    3    3    0  502  0.62214071472E+01  0.88107990848E+01  0.20565218349E+02  0.23222064791E+02  0.00000000000E+00 0.  1.
         13    1    5    5    0    0 -0.14307405847E+02  0.44900671306E+02  0.98438849900E+02  0.10913743315E+03  0.00000000000E+00 0. -1.
        -13    1    5    5    0    0 -0.83859489817E+02  0.38673824665E+03  0.36755777190E+03  0.54009036387E+03  0.00000000000E+00 0.  1.
          4    1    6    6  503    0 -0.42434752612E+01 -0.10353502971E+03  0.15041811971E+03  0.18265574231E+03  0.00000000000E+00 0. -1.
         -4    1    6    6    0  503 -0.11820087506E+03 -0.31172067499E+03  0.75530741967E+03  0.82560918375E+03  0.00000000000E+00 0.  1.
<mgrwt>
<rscale>  0 0.13579094E+04</rscale>
<asrwt>0</asrwt>
<pdfrwt beam="1">  1        2 0.46658036E+00 0.13579094E+04</pdfrwt>
<pdfrwt beam="2">  1       -1 0.23384517E-01 0.13579094E+04</pdfrwt>
<totfact> 0.29296264E+01</totfact>
</mgrwt>
</event>
<event>
12    7  0.1546317E-007  0.1227956E+04  0.7818608E-02  0.9088732E-01
         -1   -1    0    0    0  501 -0.00000000000E+00  0.00000000000E+00  0.20491776725E+03  0.20491776725E+03  0.00000000000E+00 0.  1.
          2   -1    0    0  501    0  0.00000000000E+00 -0.00000000000E+00 -0.18396113962E+04  0.18396113962E+04  0.00000000000E+00 0. -1.
         24    2    1    2    0    0 -0.17009675004E+02  0.50081428924E+02 -0.94442770349E+03  0.95004515079E+03  0.88569875547E+02 0.  0.
        254    2    1    2    0    0  0.17009675004E+02 -0.50081428924E+02 -0.69026592544E+03  0.10944840126E+04  0.84772090190E+03 0.  0.
         23    2    4    4    0    0 -0.14878798438E+03 -0.40598668018E+03 -0.30287986861E+03  0.53545923726E+03  0.89539550956E+02 0.  0.
         23    2    4    4    0    0  0.16579765938E+03  0.35590525125E+03 -0.38738605683E+03  0.55902477537E+03  0.91012805299E+02 0.  0.
          2    1    3    3  502    0  0.64250661033E+01  0.40514024771E+02 -0.87800667650E+03  0.87896438589E+03  0.00000000000E+00 0. -1.
         -1    1    3    3    0  502 -0.23434741107E+02  0.95674041526E+01 -0.66421026989E+02  0.71080764903E+02  0.00000000000E+00 0.  1.
         13    1    5    5    0    0 -0.57671135403E+02 -0.25020900654E+03 -0.21418101103E+03  0.33437106976E+03  0.00000000000E+00 0.  1.
        -13    1    5    5    0    0 -0.91116848973E+02 -0.15577767364E+03 -0.88698857584E+02  0.20108816750E+03  0.00000000000E+00 0. -1.
          4    1    6    6  503    0  0.14875578944E+03  0.22247563302E+03 -0.23990183702E+03  0.35941144053E+03  0.00000000000E+00 0. -1.
         -4    1    6    6    0  503  0.17041869937E+02  0.13342961823E+03 -0.14748421981E+03  0.19961333484E+03  0.00000000000E+00 0.  1.
<mgrwt>
<rscale>  0 0.12279561E+04</rscale>
<asrwt>0</asrwt>
<pdfrwt beam="1">  1        2 0.28301713E+00 0.12279561E+04</pdfrwt>
<pdfrwt beam="2">  1       -1 0.31525811E-01 0.12279561E+04</pdfrwt>
<totfact> 0.86078823E+01</totfact>
</mgrwt>
</event>
<event>
12    7  0.1546317E-007  0.1639858E+04  0.7818608E-02  0.8796429E-01
         -1   -1    0    0    0  501 -0.00000000000E+00  0.00000000000E+00  0.22867112306E+03  0.22867112306E+03  0.00000000000E+00 0.  1.
          2   -1    0    0  501    0  0.00000000000E+00 -0.00000000000E+00 -0.29399581196E+04  0.29399581196E+04  0.00000000000E+00 0. -1.
         24    2    1    2    0    0 -0.26959504918E+03 -0.45481075251E+03 -0.56226736469E+03  0.77571218687E+03  0.77784936367E+02 0.  0.
        254    2    1    2    0    0  0.26959504918E+03  0.45481075251E+03 -0.21490196319E+04  0.23929170558E+04  0.91007271508E+03 0.  0.
         23    2    4    4    0    0  0.95271641957E+02  0.65928073234E+03 -0.96986285154E+03  0.11802143846E+04  0.92435236376E+02 0.  0.
         23    2    4    4    0    0  0.17432340722E+03 -0.20446997983E+03 -0.11791567803E+04  0.12127026713E+04  0.89668463426E+02 0.  0.
          2    1    3    3  502    0 -0.17107883816E+03 -0.26707236892E+03 -0.28290795511E+03  0.42500885893E+03  0.00000000000E+00 0. -1.
         -1    1    3    3    0  502 -0.98516211017E+02 -0.18773838359E+03 -0.27935940958E+03  0.35070332794E+03  0.00000000000E+00 0.  1.
         13    1    5    5    0    0  0.75421358588E+02  0.34424123704E+03 -0.57885315307E+03  0.67768826420E+03  0.00000000000E+00 0. -1.
        -13    1    5    5    0    0  0.19850283370E+02  0.31503949529E+03 -0.39100969847E+03  0.50252612036E+03  0.00000000000E+00 0.  1.
          1    1    6    6  503    0  0.13192144762E+02 -0.65945919061E+02 -0.20923928136E+03  0.21978165025E+03  0.00000000000E+00 0. -1.
         -1    1    6    6    0  503  0.16113126246E+03 -0.13852406077E+03 -0.96991749899E+03  0.99292102102E+03  0.00000000000E+00 0.  1.
<mgrwt>
<rscale>  0 0.16398580E+04</rscale>
<asrwt>0</asrwt>
<pdfrwt beam="1">  1        2 0.45230125E+00 0.16398580E+04</pdfrwt>
<pdfrwt beam="2">  1       -1 0.35180173E-01 0.16398580E+04</pdfrwt>
<totfact> 0.15964367E+01</totfact>
</mgrwt>
</event>
<event>
12    7  0.1546317E-007  0.1161937E+04  0.7818608E-02  0.9146841E-01
          2   -1    0    0  501    0  0.00000000000E+00  0.00000000000E+00  0.14730750031E+04  0.14730750031E+04  0.00000000000E+00 0. -1.
         -1   -1    0    0    0  501 -0.00000000000E+00 -0.00000000000E+00 -0.22912929111E+03  0.22912929111E+03  0.00000000000E+00 0.  1.
         24    2    1    2    0    0  0.11092476109E+03  0.11362996250E+03  0.33079327738E+02  0.18103067793E+03  0.80385281160E+02 0.  0.
        254    2    1    2    0    0 -0.11092476109E+03 -0.11362996250E+03  0.12108663842E+04  0.15211736163E+04  0.90694856488E+03 0.  0.
         23    2    4    4    0    0  0.11808492957E+03  0.20685897125E+03  0.10586529284E+04  0.10889483459E+04  0.91256740092E+02 0.  0.
         23    2    4    4    0    0 -0.22900969065E+03 -0.32048893375E+03  0.15221345578E+03  0.43222527032E+03  0.92147453115E+02 0.  0.
          4    1    3    3  502    0  0.36974172352E+02 -0.40635149892E+01  0.17672143513E+02  0.41181382098E+02  0.00000000000E+00 0. -1.
         -3    1    3    3    0  502  0.73950588734E+02  0.11769347749E+03  0.15407184226E+02  0.13984929583E+03  0.00000000000E+00 0.  1.
         13    1    5    5    0    0  0.66678759537E+02  0.13969574176E+03  0.48525091206E+03  0.50934212951E+03  0.00000000000E+00 0.  1.
        -13    1    5    5    0    0  0.51406170028E+02  0.67163229489E+02  0.57340201639E+03  0.57960621642E+03  0.00000000000E+00 0. -1.
          1    1    6    6  503    0 -0.16491024854E+03 -0.17098736855E+03  0.59096726207E+02  0.24479479840E+03  0.00000000000E+00 0. -1.
         -1    1    6    6    0  503 -0.64099442107E+02 -0.14950156521E+03  0.93116729572E+02  0.18743047192E+03  0.00000000000E+00 0.  1.
<mgrwt>
<rscale>  0 0.11619374E+04</rscale>
<asrwt>0</asrwt>
<pdfrwt beam="1">  1        2 0.22662692E+00 0.11619374E+04</pdfrwt>
<pdfrwt beam="2">  1       -1 0.35250661E-01 0.11619374E+04</pdfrwt>
<totfact> 0.11344960E+02</totfact>
</mgrwt>
</event>
<event>
12    7  0.1546317E-007  0.2103588E+04  0.7818608E-02  0.8559665E-01
         -1   -1    0    0    0  501 -0.00000000000E+00  0.00000000000E+00  0.14795618031E+04  0.14795618031E+04  0.00000000000E+00 0.  1.
          2   -1    0    0  501    0  0.00000000000E+00 -0.00000000000E+00 -0.74770147398E+03  0.74770147398E+03  0.00000000000E+00 0. -1.
         24    2    1    2    0    0 -0.20002177369E+03  0.60634843207E+03 -0.30318014111E+03  0.71230693518E+03  0.88294059361E+02 0.  0.
        254    2    1    2    0    0  0.20002177369E+03 -0.60634843207E+03  0.10350404702E+04  0.15149563419E+04  0.90339183735E+03 0.  0.
         23    2    4    4    0    0  0.53012611629E+03 -0.20797439490E+03  0.47705729383E+03  0.74853407750E+03  0.91828946894E+02 0.  0.
         23    2    4    4    0    0 -0.33010434259E+03 -0.39837403717E+03  0.55798317637E+03  0.76642226436E+03  0.91581175508E+02 0.  0.
          2    1    3    3  502    0 -0.18716001913E+03  0.45163273564E+03 -0.24122596897E+03  0.54515224366E+03  0.00000000000E+00 0. -1.
         -1    1    3    3    0  502 -0.12861754567E+02  0.15471569642E+03 -0.61954172138E+02  0.16715469152E+03  0.00000000000E+00 0.  1.
         13    1    5    5    0    0  0.49310474193E+03 -0.21507712287E+03  0.45676461913E+03  0.70572258897E+03  0.00000000000E+00 0. -1.
        -13    1    5    5    0    0  0.37021374356E+02  0.71027279744E+01  0.20292674701E+02  0.42811488533E+02  0.00000000000E+00 0.  1.
          3    1    6    6  503    0 -0.27282422975E+03 -0.28775001777E+03  0.38029224313E+03  0.54941361764E+03  0.00000000000E+00 0. -1.
         -3    1    6    6    0  503 -0.57280112842E+02 -0.11062401940E+03  0.17769093324E+03  0.21700864672E+03  0.00000000000E+00 0.  1.
<mgrwt>
<rscale>  0 0.21035879E+04</rscale>
<asrwt>0</asrwt>
<pdfrwt beam="1">  1        2 0.11503100E+00 0.21035879E+04</pdfrwt>
<pdfrwt beam="2">  1       -1 0.22762489E+00 0.21035879E+04</pdfrwt>
<totfact> 0.38744205E+00</totfact>
</mgrwt>
</event>
<event>
12    7  0.1546317E-007  0.1332971E+04  0.7818608E-02  0.9003820E-01
          2   -1    0    0  501    0  0.00000000000E+00  0.00000000000E+00  0.16466002373E+04  0.16466002373E+04  0.00000000000E+00 0. -1.
         -1   -1    0    0    0  501 -0.00000000000E+00 -0.00000000000E+00 -0.26976968668E+03  0.26976968668E+03  0.00000000000E+00 0.  1.
         24    2    1    2    0    0 -0.90206306861E+02 -0.10424450904E+03  0.85588291309E+03  0.87075660134E+03  0.81715374213E+02 0.  0.
        254    2    1    2    0    0  0.90206306861E+02  0.10424450904E+03  0.52094763750E+03  0.10456133226E+04  0.89605618348E+03 0.  0.
         23    2    4    4    0    0 -0.13776887664E+03  0.42465316554E+03  0.10863480548E+03  0.46864948152E+03  0.92305152601E+02 0.  0.
         23    2    4    4    0    0  0.22797518350E+03 -0.32040865650E+03  0.41231283202E+03  0.57696384109E+03  0.90835075956E+02 0.  0.
          2    1    3    3  502    0 -0.13319088147E+02 -0.40583148591E+02  0.47823670828E+03  0.48014033283E+03  0.00000000000E+00 0. -1.
         -1    1    3    3    0  502 -0.76887218714E+02 -0.63661360448E+02  0.37764620481E+03  0.39061626851E+03  0.00000000000E+00 0.  1.
         13    1    5    5    0    0 -0.10559782656E+03  0.35305092117E+03  0.52682248343E+02  0.37225162619E+03  0.00000000000E+00 0. -1.
        -13    1    5    5    0    0 -0.32171050086E+02  0.71602244371E+02  0.55952557137E+02  0.96397855333E+02  0.00000000000E+00 0.  1.
          4    1    6    6  503    0  0.17958410756E+03 -0.29553090956E+03  0.37947914768E+03  0.51341347248E+03  0.00000000000E+00 0. -1.
         -4    1    6    6    0  503  0.48391075945E+02 -0.24877746939E+02  0.32833684337E+02  0.63550368614E+02  0.00000000000E+00 0.  1.
<mgrwt>
<rscale>  0 0.13329709E+04</rscale>
<asrwt>0</asrwt>
<pdfrwt beam="1">  1        2 0.25332311E+00 0.13329709E+04</pdfrwt>
<pdfrwt beam="2">  1       -1 0.41503030E-01 0.13329709E+04</pdfrwt>
<totfact> 0.66590657E+01</totfact>
</mgrwt>
</event>
<event>
12    7  0.1546317E-007  0.2102743E+04  0.7818608E-02  0.8560036E-01
          2   -1    0    0  501    0  0.00000000000E+00  0.00000000000E+00  0.19274037818E+04  0.19274037818E+04  0.00000000000E+00 0. -1.
         -1   -1    0    0    0  501 -0.00000000000E+00 -0.00000000000E+00 -0.57350850108E+03  0.57350850108E+03  0.00000000000E+00 0.  1.
         24    2    1    2    0    0 -0.26632716781E+03 -0.69939483543E+03  0.56253173736E+02  0.75479572212E+03  0.80429263505E+02 0.  0.
        254    2    1    2    0    0  0.26632716781E+03  0.69939483543E+03  0.12976421070E+04  0.17461165608E+04  0.89719825557E+03 0.  0.
         23    2    4    4    0    0 -0.13039742764E+03 -0.12361018914E+03  0.46339396160E+03  0.50554508760E+03  0.92514344590E+02 0.  0.
         23    2    4    4    0    0  0.39672459545E+03  0.82300502457E+03  0.83424814538E+03  0.12405714732E+04  0.91213687724E+02 0.  0.
          2    1    3    3  502    0 -0.19635541681E+03 -0.42133400652E+03  0.54815265626E+02  0.46806250449E+03  0.00000000000E+00 0. -1.
         -1    1    3    3    0  502 -0.69971751004E+02 -0.27806082891E+03  0.14379081094E+01  0.28673321763E+03  0.00000000000E+00 0.  1.
         13    1    5    5    0    0 -0.35306071993E+02 -0.97161160711E+02  0.24019145843E+03  0.26149330120E+03  0.00000000000E+00 0.  1.
        -13    1    5    5    0    0 -0.95091355644E+02 -0.26449028432E+02  0.22320250318E+03  0.24405178640E+03  0.00000000000E+00 0. -1.
          4    1    6    6  503    0  0.33016667238E+03  0.74730907039E+03  0.75359622338E+03  0.11114801600E+04  0.00000000000E+00 0. -1.
         -4    1    6    6    0  503  0.66557923069E+02  0.75695954180E+02  0.80651921996E+02  0.12909131312E+03  0.00000000000E+00 0.  1.
<mgrwt>
<rscale>  0 0.21027434E+04</rscale>
<asrwt>0</asrwt>
<pdfrwt beam="1">  1        2 0.29652366E+00 0.21027434E+04</pdfrwt>
<pdfrwt beam="2">  1       -1 0.88232078E-01 0.21027434E+04</pdfrwt>
<totfact> 0.97045210E+00</totfact>
</mgrwt>
</event>
<event>
12    7  0.1546317E-007  0.2460392E+04  0.7818608E-02  0.8417234E-01
          2   -1    0    0  501    0  0.00000000000E+00  0.00000000000E+00  0.12932280184E+04  0.12932280184E+04  0.00000000000E+00 0. -1.
         -1   -1    0    0    0  501 -0.00000000000E+00 -0.00000000000E+00 -0.11702361525E+04  0.11702361525E+04  0.00000000000E+00 0.  1.
         24    2    1    2    0    0  0.89693744669E+03  0.53162526398E+03 -0.15793870800E+03  0.10574490473E+04  0.78304837312E+02 0.  0.
        254    2    1    2    0    0 -0.89693744669E+03 -0.53162526398E+03  0.28093057382E+03  0.14060151236E+04  0.90046340067E+03 0.  0.
         23    2    4    4    0    0 -0.80593252060E+03 -0.22933487917E+03 -0.15793089348E+03  0.85748788369E+03  0.90672978291E+02 0.  0.
         23    2    4    4    0    0 -0.91004926091E+02 -0.30229038481E+03  0.43886146730E+03  0.54852723992E+03  0.92851344311E+02 0.  0.
          4    1    3    3  502    0  0.12791049802E+03  0.46155865672E+02 -0.26853007665E+02  0.13860931953E+03  0.00000000000E+00 0. -1.
         -3    1    3    3    0  502  0.76902694867E+03  0.48546939831E+03 -0.13108570034E+03  0.91883972776E+03  0.00000000000E+00 0.  1.
         13    1    5    5    0    0 -0.11622765259E+03 -0.29701322098E+01 -0.10257692324E+02  0.11671721880E+03  0.00000000000E+00 0. -1.
        -13    1    5    5    0    0 -0.68970486800E+03 -0.22636474696E+03 -0.14767320115E+03  0.74077066489E+03  0.00000000000E+00 0.  1.
          3    1    6    6  503    0  0.10394167914E+01 -0.31335503247E+01 -0.46437750185E+01  0.56977338763E+01  0.00000000000E+00 0. -1.
         -3    1    6    6    0  503 -0.92044342883E+02 -0.29915683448E+03  0.44350524232E+03  0.54282950605E+03  0.00000000000E+00 0.  1.
<mgrwt>
<rscale>  0 0.24603920E+04</rscale>
<asrwt>0</asrwt>
<pdfrwt beam="1">  1        2 0.19895816E+00 0.24603920E+04</pdfrwt>
<pdfrwt beam="2">  1       -1 0.18003633E+00 0.24603920E+04</pdfrwt>
<totfact> 0.35379892E+00</totfact>
</mgrwt>
</event>
<event>
12    7  0.1546317E-007  0.1682580E+04  0.7818608E-02  0.8771362E-01
          2   -1    0    0  501    0  0.00000000000E+00  0.00000000000E+00  0.14848707871E+04  0.14848707871E+04  0.00000000000E+00 0. -1.
         -1   -1    0    0    0  501 -0.00000000000E+00 -0.00000000000E+00 -0.47665369282E+03  0.47665369282E+03  0.00000000000E+00 0.  1.
         24    2    1    2    0    0  0.27184273322E+03 -0.48875164627E+03  0.12019790830E+03  0.57769821261E+03  0.80691042639E+02 0.  0.
        254    2    1    2    0    0 -0.27184273322E+03  0.48875164627E+03  0.88801918594E+03  0.13838262673E+04  0.90200910197E+03 0.  0.
         23    2    4    4    0    0  0.80301042183E+02 -0.74129386259E+02 -0.11398104136E+03  0.17845920161E+03  0.83141960329E+02 0.  0.
         23    2    4    4    0    0 -0.35214377540E+03  0.56288103253E+03  0.10020002273E+04  0.12053670657E+04  0.89805412560E+02 0.  0.
          2    1    3    3  502    0  0.47235544107E+01 -0.84989169474E+01 -0.89170828919E+01  0.13193101336E+02  0.00000000000E+00 0. -1.
         -1    1    3    3    0  502  0.26711917881E+03 -0.48025272932E+03  0.12911499119E+03  0.56450511128E+03  0.00000000000E+00 0.  1.
         13    1    5    5    0    0 -0.16657542015E+02 -0.11447003370E+02 -0.80026502173E+01  0.21738215259E+02  0.00000000000E+00 0.  1.
        -13    1    5    5    0    0  0.96958584197E+02 -0.62682382888E+02 -0.10597839114E+03  0.15672098635E+03  0.00000000000E+00 0. -1.
          3    1    6    6  503    0 -0.29092935604E+03  0.40087781677E+03  0.77668612110E+03  0.92118632475E+03  0.00000000000E+00 0. -1.
         -3    1    6    6    0  503 -0.61214419369E+02  0.16200321575E+03  0.22531410619E+03  0.28418074091E+03  0.00000000000E+00 0.  1.
<mgrwt>
<rscale>  0 0.16825803E+04</rscale>
<asrwt>0</asrwt>
<pdfrwt beam="1">  1        2 0.22844166E+00 0.16825803E+04</pdfrwt>
<pdfrwt beam="2">  1       -1 0.73331338E-01 0.16825803E+04</pdfrwt>
<totfact> 0.26342289E+01</totfact>
</mgrwt>
</event>
<event>
12    7  0.1546317E-007  0.2336805E+04  0.7818608E-02  0.8463549E-01
          2   -1    0    0  501    0  0.00000000000E+00  0.00000000000E+00  0.12207931807E+04  0.12207931807E+04  0.00000000000E+00 0. -1.
         -1   -1    0    0    0  501 -0.00000000000E+00 -0.00000000000E+00 -0.11182598954E+04  0.11182598954E+04  0.00000000000E+00 0.  1.
         24    2    1    2    0    0  0.29351364664E+03  0.67668966500E+03  0.70564242462E+03  0.10238108864E+04  0.78729512343E+02 0.  0.
        254    2    1    2    0    0 -0.29351364664E+03 -0.67668966500E+03 -0.60310913926E+03  0.13152421897E+04  0.90667646948E+03 0.  0.
         23    2    4    4    0    0 -0.38740118229E+03 -0.26498348354E+03 -0.72288907226E+03  0.86683415606E+03  0.92395458347E+02 0.  0.
         23    2    4    4    0    0  0.93887535644E+02 -0.41170618146E+03  0.11977993301E+03  0.44840803367E+03  0.91682512555E+02 0.  0.
          2    1    3    3  502    0  0.28972989514E+03  0.67653583032E+03  0.69401899434E+03  0.10115861339E+04  0.00000000000E+00 0. -1.
         -1    1    3    3    0  502  0.37837514993E+01  0.15383468287E+00  0.11623430284E+02  0.12224752434E+02  0.00000000000E+00 0.  1.
         13    1    5    5    0    0 -0.10274618678E+02 -0.34941179155E+02 -0.48764552347E+02  0.60864072780E+02  0.00000000000E+00 0.  1.
        -13    1    5    5    0    0 -0.37712656361E+03 -0.23004230438E+03 -0.67412451992E+03  0.80597008328E+03  0.00000000000E+00 0. -1.
          1    1    6    6  503    0  0.82368822269E+02 -0.34603741307E+03  0.13422829873E+03  0.38018909810E+03  0.00000000000E+00 0. -1.
         -1    1    6    6    0  503  0.11518713374E+02 -0.65668768384E+02 -0.14448365726E+02  0.68218935575E+02  0.00000000000E+00 0.  1.
<mgrwt>
<rscale>  0 0.23368047E+04</rscale>
<asrwt>0</asrwt>
<pdfrwt beam="1">  1        2 0.18781434E+00 0.23368047E+04</pdfrwt>
<pdfrwt beam="2">  1       -1 0.17203998E+00 0.23368047E+04</pdfrwt>
<totfact> 0.45084656E+00</totfact>
</mgrwt>
</event>
<event>
12    7  0.1546317E-007  0.2053612E+04  0.7818608E-02  0.8581958E-01
          2   -1    0    0  501    0  0.00000000000E+00  0.00000000000E+00  0.17134412360E+04  0.17134412360E+04  0.00000000000E+00 0. -1.
         -1   -1    0    0    0  501 -0.00000000000E+00 -0.00000000000E+00 -0.61532920888E+03  0.61532920888E+03  0.00000000000E+00 0.  1.
         24    2    1    2    0    0 -0.16008396190E+03  0.80610823195E+03  0.60523390784E+03  0.10234911101E+04  0.76082933185E+02 0.  0.
        254    2    1    2    0    0  0.16008396190E+03 -0.80610823195E+03  0.49287811925E+03  0.13052793348E+04  0.88622116025E+03 0.  0.
         23    2    4    4    0    0  0.85398020187E+01 -0.37052417103E+03 -0.22815022509E+03  0.44447257094E+03  0.90234425646E+02 0.  0.
         23    2    4    4    0    0  0.15154415988E+03 -0.43558406092E+03  0.72102834434E+03  0.86080676383E+03  0.91691356191E+02 0.  0.
          2    1    3    3  502    0 -0.79182912223E+02  0.31854608394E+03  0.20001805370E+03  0.38438101279E+03  0.00000000000E+00 0. -1.
         -1    1    3    3    0  502 -0.80901049680E+02  0.48756214801E+03  0.40521585414E+03  0.63911009729E+03  0.00000000000E+00 0.  1.
         13    1    5    5    0    0  0.16170183053E+02 -0.34972399262E+03 -0.18501093500E+03  0.39597650423E+03  0.00000000000E+00 0. -1.
        -13    1    5    5    0    0 -0.76303810345E+01 -0.20800178413E+02 -0.43139290090E+02  0.48496066709E+02  0.00000000000E+00 0.  1.
          2    1    6    6  503    0 -0.63251070531E+01 -0.38655198963E+02  0.96656274261E+02  0.10429125917E+03  0.00000000000E+00 0.  1.
         -2    1    6    6    0  503  0.15786926694E+03 -0.39692886196E+03  0.62437207008E+03  0.75651550466E+03  0.00000000000E+00 0. -1.
<mgrwt>
<rscale>  0 0.20536119E+04</rscale>
<asrwt>0</asrwt>
<pdfrwt beam="1">  1        2 0.26360634E+00 0.20536119E+04</pdfrwt>
<pdfrwt beam="2">  1       -1 0.94666033E-01 0.20536119E+04</pdfrwt>
<totfact> 0.10959794E+01</totfact>
</mgrwt>
</event>
<event>
12    7  0.1546317E-007  0.1777086E+04  0.7818608E-02  0.8718581E-01
          2   -1    0    0  501    0  0.00000000000E+00  0.00000000000E+00  0.89354120088E+03  0.89354120088E+03  0.00000000000E+00 0. -1.
         -1   -1    0    0    0  501 -0.00000000000E+00 -0.00000000000E+00 -0.88357258638E+03  0.88357258638E+03  0.00000000000E+00 0.  1.
         24    2    1    2    0    0 -0.38503384508E+03 -0.13809550789E+03  0.52573245611E+03  0.67059059642E+03  0.77302661295E+02 0.  0.
        254    2    1    2    0    0  0.38503384508E+03  0.13809550789E+03 -0.51576384161E+03  0.11065231908E+04  0.88941542621E+03 0.  0.
         23    2    4    4    0    0  0.37178886600E+03  0.83333559862E+02 -0.75087374851E+03  0.84785147887E+03  0.99344355305E+02 0.  0.
         23    2    4    4    0    0  0.13244979079E+02  0.54761948029E+02  0.23510990690E+03  0.25867171197E+03  0.91978724851E+02 0.  0.
          2    1    3    3  502    0 -0.30843322597E+03 -0.12536402276E+03  0.37817705548E+03  0.50385025392E+03  0.00000000000E+00 0. -1.
         -1    1    3    3    0  502 -0.76600619112E+02 -0.12731485127E+02  0.14755540063E+03  0.16674034250E+03  0.00000000000E+00 0.  1.
         13    1    5    5    0    0  0.20331453977E+03  0.13649044520E+02 -0.31239231694E+03  0.37297728910E+03  0.00000000000E+00 0.  1.
        -13    1    5    5    0    0  0.16847432623E+03  0.69684515342E+02 -0.43848143157E+03  0.47487418977E+03  0.00000000000E+00 0. -1.
          4    1    6    6  503    0  0.42930812796E+02  0.30007480691E+02  0.19899361810E+03  0.20577162980E+03  0.00000000000E+00 0. -1.
         -4    1    6    6    0  503 -0.29685833717E+02  0.24754467338E+02  0.36116288801E+02  0.52900082168E+02  0.00000000000E+00 0.  1.
<mgrwt>
<rscale>  0 0.17770858E+04</rscale>
<asrwt>0</asrwt>
<pdfrwt beam="1">  1        2 0.13746788E+00 0.17770858E+04</pdfrwt>
<pdfrwt beam="2">  1       -1 0.13593424E+00 0.17770858E+04</pdfrwt>
<totfact> 0.14469278E+01</totfact>
</mgrwt>
</event>
<event>
12    7  0.1546317E-007  0.1334372E+04  0.7818608E-02  0.9002744E-01
          4   -1    0    0  501    0  0.00000000000E+00  0.00000000000E+00  0.41010949358E+03  0.41010949358E+03  0.00000000000E+00 0. -1.
         -3   -1    0    0    0  501 -0.00000000000E+00 -0.00000000000E+00 -0.10854097663E+04  0.10854097663E+04  0.00000000000E+00 0.  1.
         24    2    1    2    0    0  0.24853201635E+03  0.61386627971E+02  0.10040459095E+03  0.28604734838E+03  0.78775138104E+02 0.  0.
        254    2    1    2    0    0 -0.24853201635E+03 -0.61386627971E+02 -0.77570486372E+03  0.12094719116E+04  0.89194606787E+03 0.  0.
         23    2    4    4    0    0 -0.41165273343E+03 -0.25533800075E+03 -0.12969854152E+03  0.50952413474E+03  0.90209005349E+02 0.  0.
         23    2    4    4    0    0  0.16312071707E+03  0.19395137278E+03 -0.64600632220E+03  0.69994777681E+03  0.91527146794E+02 0.  0.
          2    1    3    3  502    0  0.19497964189E+03  0.66258027321E+02  0.10665731696E+03  0.23191155685E+03  0.00000000000E+00 0. -1.
         -1    1    3    3    0  502  0.53552374460E+02 -0.48713993501E+01 -0.62527260142E+01  0.54135791529E+02  0.00000000000E+00 0.  1.
         13    1    5    5    0    0 -0.28338923326E+03 -0.19240932907E+03 -0.50696720396E+02  0.34626718715E+03  0.00000000000E+00 0.  1.
        -13    1    5    5    0    0 -0.12826350017E+03 -0.62928671684E+02 -0.79001821126E+02  0.16325694759E+03  0.00000000000E+00 0. -1.
          3    1    6    6  503    0  0.11981673773E+03  0.76579090108E+02 -0.29935164471E+03  0.33140883343E+03  0.00000000000E+00 0. -1.
         -3    1    6    6    0  503  0.43303979341E+02  0.11737228267E+03 -0.34665467749E+03  0.36853894338E+03  0.00000000000E+00 0.  1.
<mgrwt>
<rscale>  0 0.13343715E+04</rscale>
<asrwt>0</asrwt>
<pdfrwt beam="1">  1        4 0.63093768E-01 0.13343715E+04</pdfrwt>
<pdfrwt beam="2">  1       -3 0.16698612E+00 0.13343715E+04</pdfrwt>
<totfact> 0.12776829E+00</totfact>
</mgrwt>
</event>
<event>
12    7  0.1546317E-007  0.1421563E+04  0.7818608E-02  0.8938357E-01
          2   -1    0    0  501    0  0.00000000000E+00  0.00000000000E+00  0.10260795213E+04  0.10260795213E+04  0.00000000000E+00 0. -1.
         -1   -1    0    0    0  501 -0.00000000000E+00 -0.00000000000E+00 -0.49236939560E+03  0.49236939560E+03  0.00000000000E+00 0.  1.
         24    2    1    2    0    0 -0.34616446612E+02 -0.32990911008E+03 -0.11523887764E+03  0.36001052496E+03  0.79304854032E+02 0.  0.
        254    2    1    2    0    0  0.34616446612E+02  0.32990911008E+03  0.64894900337E+03  0.11584383920E+04  0.90044787729E+03 0.  0.
         23    2    4    4    0    0  0.40509159945E+03  0.39440739110E+03  0.38641046336E+03  0.69084516192E+03  0.91091149165E+02 0.  0.
         23    2    4    4    0    0 -0.37047515283E+03 -0.64498281020E+02  0.26253854001E+03  0.46759323005E+03  0.91132193404E+02 0.  0.
          4    1    3    3  502    0  0.44624318033E+01 -0.47228568147E+02 -0.46609996874E+02  0.66505208483E+02  0.00000000000E+00 0. -1.
         -3    1    3    3    0  502 -0.39078878416E+02 -0.28268054193E+03 -0.68628880771E+02  0.29350531648E+03  0.00000000000E+00 0.  1.
         13    1    5    5    0    0  0.35492179471E+03  0.31348110308E+03  0.35024654845E+03  0.58899280730E+03  0.00000000000E+00 0.  1.
        -13    1    5    5    0    0  0.50169804737E+02  0.80926288020E+02  0.36163914907E+02  0.10185235462E+03  0.00000000000E+00 0. -1.
          1    1    6    6  503    0 -0.31202280511E+03 -0.75610056033E+02  0.24969935659E+03  0.40672457531E+03  0.00000000000E+00 0. -1.
         -1    1    6    6    0  503 -0.58452347720E+02  0.11111775013E+02  0.12839183417E+02  0.60868654730E+02  0.00000000000E+00 0.  1.
<mgrwt>
<rscale>  0 0.14215627E+04</rscale>
<asrwt>0</asrwt>
<pdfrwt beam="1">  1        2 0.15785839E+00 0.14215627E+04</pdfrwt>
<pdfrwt beam="2">  1       -1 0.75749138E-01 0.14215627E+04</pdfrwt>
<totfact> 0.47062425E+01</totfact>
</mgrwt>
</event>
<event>
12    7  0.1546317E-007  0.1780242E+04  0.7818608E-02  0.8716878E-01
         -1   -1    0    0    0  501 -0.00000000000E+00  0.00000000000E+00  0.28101592535E+03  0.28101592535E+03  0.00000000000E+00 0.  1.
          2   -1    0    0  501    0  0.00000000000E+00 -0.00000000000E+00 -0.28194681984E+04  0.28194681984E+04  0.00000000000E+00 0. -1.
         24    2    1    2    0    0 -0.32688575727E+03  0.42752268797E+03 -0.15875067120E+04  0.16782092647E+04  0.81109977265E+02 0.  0.
        254    2    1    2    0    0  0.32688575727E+03 -0.42752268797E+03 -0.95094556104E+03  0.14222748591E+04  0.91046052501E+03 0.  0.
         23    2    4    4    0    0  0.28291958968E+03 -0.21335563489E+03 -0.10883783318E+04  0.11480936346E+04  0.89372700091E+02 0.  0.
         23    2    4    4    0    0  0.43966167593E+02 -0.21416705308E+03  0.13743277071E+03  0.27418122450E+03  0.92125061103E+02 0.  0.
          2    1    3    3  502    0 -0.28262294875E+03  0.34604383274E+03 -0.13895151831E+04  0.14595802511E+04  0.00000000000E+00 0. -1.
         -3    1    3    3    0  502 -0.44262808516E+02  0.81478855230E+02 -0.19799152893E+03  0.21862901362E+03  0.00000000000E+00 0.  1.
         13    1    5    5    0    0  0.11010819516E+03 -0.13850182377E+03 -0.54544191350E+03  0.57342257615E+03  0.00000000000E+00 0.  1.
        -13    1    5    5    0    0  0.17281139451E+03 -0.74853811120E+02 -0.54293641825E+03  0.57467105841E+03  0.00000000000E+00 0. -1.
          4    1    6    6  503    0 -0.11932396808E+02 -0.15219203537E+03  0.10145249407E+03  0.18329595270E+03  0.00000000000E+00 0. -1.
         -4    1    6    6    0  503  0.55898564401E+02 -0.61975017710E+02  0.35980276646E+02  0.90885271797E+02  0.00000000000E+00 0.  1.
<mgrwt>
<rscale>  0 0.17802421E+04</rscale>
<asrwt>0</asrwt>
<pdfrwt beam="1">  1        2 0.43376434E+00 0.17802421E+04</pdfrwt>
<pdfrwt beam="2">  1       -1 0.43233219E-01 0.17802421E+04</pdfrwt>
<totfact> 0.12820971E+01</totfact>
</mgrwt>
</event>
<event>
12    7  0.1546317E-007  0.1298782E+04  0.7818608E-02  0.9030532E-01
          2   -1    0    0  501    0  0.00000000000E+00  0.00000000000E+00  0.56288208192E+03  0.56288208192E+03  0.00000000000E+00 0. -1.
         -1   -1    0    0    0  501 -0.00000000000E+00 -0.00000000000E+00 -0.74919546281E+03  0.74919546281E+03  0.00000000000E+00 0.  1.
         24    2    1    2    0    0 -0.29641756655E+03 -0.14434770773E+03 -0.76294457979E+01  0.34040722781E+03  0.84375575956E+02 0.  0.
        254    2    1    2    0    0  0.29641756655E+03  0.14434770773E+03 -0.17868393510E+03  0.97167031692E+03  0.89639032884E+03 0.  0.
         23    2    4    4    0    0  0.48441837956E+03 -0.21510205416E+03 -0.73177819305E+02  0.54288622154E+03  0.91871628629E+02 0.  0.
         23    2    4    4    0    0 -0.18800081301E+03  0.35944976189E+03 -0.10550611579E+03  0.42878409538E+03  0.90420257503E+02 0.  0.
          4    1    3    3  502    0 -0.66566946287E+02 -0.29253941839E+02  0.33541536098E+02  0.80074878052E+02  0.00000000000E+00 0. -1.
         -3    1    3    3    0  502 -0.22985062026E+03 -0.11509376589E+03 -0.41170981896E+02  0.26033234976E+03  0.00000000000E+00 0.  1.
         13    1    5    5    0    0  0.57990464496E+02 -0.19351010261E+02 -0.38821771076E+02  0.72418819930E+02  0.00000000000E+00 0. -1.
        -13    1    5    5    0    0  0.42642791506E+03 -0.19575104390E+03 -0.34356048229E+02  0.47046740161E+03  0.00000000000E+00 0.  1.
          4    1    6    6  503    0 -0.65702639430E+02  0.13222637909E+03  0.57826582234E+01  0.14776363318E+03  0.00000000000E+00 0. -1.
         -4    1    6    6    0  503 -0.12229817358E+03  0.22722338280E+03 -0.11128877401E+03  0.28102046220E+03  0.00000000000E+00 0.  1.
<mgrwt>
<rscale>  0 0.12987820E+04</rscale>
<asrwt>0</asrwt>
<pdfrwt beam="1">  1        2 0.86597244E-01 0.12987820E+04</pdfrwt>
<pdfrwt beam="2">  1       -1 0.11526084E+00 0.12987820E+04</pdfrwt>
<totfact> 0.40984287E+01</totfact>
</mgrwt>
</event>
<event>
12    7  0.1546317E-007  0.1852947E+04  0.7818608E-02  0.8678639E-01
         -1   -1    0    0    0  501 -0.00000000000E+00  0.00000000000E+00  0.13215308936E+04  0.13215308936E+04  0.00000000000E+00 0.  1.
          2   -1    0    0  501    0  0.00000000000E+00 -0.00000000000E+00 -0.64951447817E+03  0.64951447817E+03  0.00000000000E+00 0. -1.
         24    2    1    2    0    0  0.48388396186E+03 -0.50337140882E+03  0.14086444628E+03  0.71685302998E+03  0.80678439478E+02 0.  0.
        254    2    1    2    0    0 -0.48388396186E+03  0.50337140882E+03  0.53115196915E+03  0.12541923418E+04  0.89629769168E+03 0.  0.
         23    2    4    4    0    0 -0.97398442850E+02 -0.23383433485E+03  0.25924246902E+03  0.37379400201E+03  0.91380224180E+02 0.  0.
         23    2    4    4    0    0 -0.38648551901E+03  0.73720574367E+03  0.27190950012E+03  0.88039833978E+03  0.91231000878E+02 0.  0.
          4    1    3    3  502    0  0.25485731169E+02 -0.18528913142E+02  0.23659568337E+02  0.39403277647E+02  0.00000000000E+00 0. -1.
         -3    1    3    3    0  502  0.45839823069E+03 -0.48484249568E+03  0.11720487794E+03  0.67744975233E+03  0.00000000000E+00 0.  1.
         13    1    5    5    0    0 -0.35589086060E+02 -0.60686224205E+02  0.13397965785E+03  0.15132729288E+03  0.00000000000E+00 0. -1.
        -13    1    5    5    0    0 -0.61809356791E+02 -0.17314811065E+03  0.12526281118E+03  0.22246670913E+03  0.00000000000E+00 0.  1.
          1    1    6    6  503    0 -0.24794924836E+01  0.58445751132E+01 -0.61209522888E+01  0.88189000534E+01  0.00000000000E+00 0. -1.
         -1    1    6    6    0  503 -0.38400602652E+03  0.73136116856E+03  0.27803045241E+03  0.87157943973E+03  0.00000000000E+00 0.  1.
<mgrwt>
<rscale>  0 0.18529473E+04</rscale>
<asrwt>0</asrwt>
<pdfrwt beam="1">  1        2 0.99925305E-01 0.18529473E+04</pdfrwt>
<pdfrwt beam="2">  1       -1 0.20331244E+00 0.18529473E+04</pdfrwt>
<totfact> 0.68984168E+00</totfact>
</mgrwt>
</event>
<event>
12    7  0.1546317E-007  0.1390076E+04  0.7818608E-02  0.8961034E-01
          2   -1    0    0  501    0  0.00000000000E+00  0.00000000000E+00  0.19920316191E+04  0.19920316191E+04  0.00000000000E+00 0. -1.
         -1   -1    0    0    0  501 -0.00000000000E+00 -0.00000000000E+00 -0.24250500210E+03  0.24250500210E+03  0.00000000000E+00 0.  1.
         24    2    1    2    0    0 -0.90011576898E+02  0.26866873616E+03  0.63053240522E+02  0.30044504311E+03  0.77501864635E+02 0.  0.
        254    2    1    2    0    0  0.90011576898E+02 -0.26866873616E+03  0.16864733765E+04  0.19340915781E+04  0.90345603607E+03 0.  0.
         23    2    4    4    0    0  0.31347436298E+03 -0.83623178202E+02  0.15270544337E+03  0.37022460823E+03  0.92131948447E+02 0.  0.
         23    2    4    4    0    0 -0.22346278608E+03 -0.18504555796E+03  0.15337679331E+04  0.15638669699E+04  0.95175372418E+02 0.  0.
          4    1    3    3  502    0  0.86762860091E+01  0.61230680613E+02  0.28686199756E+02  0.68171638118E+02  0.00000000000E+00 0. -1.
         -3    1    3    3    0  502 -0.98687862907E+02  0.20743805555E+03  0.34367040765E+02  0.23227340499E+03  0.00000000000E+00 0.  1.
         13    1    5    5    0    0  0.26657742311E+03 -0.77393903997E+02  0.16286678338E+03  0.32183680339E+03  0.00000000000E+00 0.  1.
        -13    1    5    5    0    0  0.46896939870E+02 -0.62292742051E+01 -0.10161340009E+02  0.48387804839E+02  0.00000000000E+00 0. -1.
          1    1    6    6  503    0 -0.17380970897E+03 -0.87442548069E+02  0.10481052005E+04  0.10660115034E+04  0.00000000000E+00 0.  1.
         -1    1    6    6    0  503 -0.49653077110E+02 -0.97603009892E+02  0.48566273267E+03  0.49785546649E+03  0.00000000000E+00 0. -1.
<mgrwt>
<rscale>  0 0.13900757E+04</rscale>
<asrwt>0</asrwt>
<pdfrwt beam="1">  1        2 0.30646639E+00 0.13900757E+04</pdfrwt>
<pdfrwt beam="2">  1       -1 0.37308463E-01 0.13900757E+04</pdfrwt>
<totfact> 0.51820345E+01</totfact>
</mgrwt>
</event>
<event>
12    7  0.1546317E-007  0.1445832E+04  0.7818608E-02  0.8921295E-01
          2   -1    0    0  501    0  0.00000000000E+00  0.00000000000E+00  0.10057210649E+04  0.10057210649E+04  0.00000000000E+00 0. -1.
         -1   -1    0    0    0  501 -0.00000000000E+00 -0.00000000000E+00 -0.51963499012E+03  0.51963499012E+03  0.00000000000E+00 0.  1.
         24    2    1    2    0    0  0.21657506263E+03  0.76730349604E+02 -0.25296938436E+03  0.35045221655E+03  0.77659142120E+02 0.  0.
        254    2    1    2    0    0 -0.21657506263E+03 -0.76730349604E+02  0.73905545915E+03  0.11749038385E+04  0.88397044842E+03 0.  0.
         23    2    4    4    0    0  0.89392366151E+02  0.17537035916E+03  0.73674066858E+03  0.76809788842E+03  0.91879243855E+02 0.  0.
         23    2    4    4    0    0 -0.30596742878E+03 -0.25210070876E+03  0.23147905641E+01  0.40680595006E+03  0.91186007234E+02 0.  0.
          4    1    3    3  502    0  0.27762643265E+02  0.16234498123E+02 -0.43462389770E+01  0.32453244577E+02  0.00000000000E+00 0. -1.
         -3    1    3    3    0  502  0.18881241937E+03  0.60495851481E+02 -0.24862314538E+03  0.31799897197E+03  0.00000000000E+00 0.  1.
         13    1    5    5    0    0  0.46396539240E+01  0.10978049541E+03  0.35732673052E+03  0.37383910431E+03  0.00000000000E+00 0. -1.
        -13    1    5    5    0    0  0.84752712227E+02  0.65589863746E+02  0.37941393806E+03  0.39425878411E+03  0.00000000000E+00 0.  1.
          1    1    6    6  503    0 -0.16767145414E+03 -0.19440293872E+03  0.80313358728E+01  0.25684766199E+03  0.00000000000E+00 0. -1.
         -1    1    6    6    0  503 -0.13829597464E+03 -0.57697770048E+02 -0.57165453087E+01  0.14995828807E+03  0.00000000000E+00 0.  1.
<mgrwt>
<rscale>  0 0.14458324E+04</rscale>
<asrwt>0</asrwt>
<pdfrwt beam="1">  1        2 0.15472632E+00 0.14458324E+04</pdfrwt>
<pdfrwt beam="2">  1       -1 0.79943845E-01 0.14458324E+04</pdfrwt>
<totfact> 0.43193612E+01</totfact>
</mgrwt>
</event>
<event>
12    7  0.1546317E-007  0.1470988E+04  0.7818608E-02  0.8903978E-01
         -1   -1    0    0    0  501 -0.00000000000E+00  0.00000000000E+00  0.24588466065E+03  0.24588466065E+03  0.00000000000E+00 0.  1.
          2   -1    0    0  501    0  0.00000000000E+00 -0.00000000000E+00 -0.22000222030E+04  0.22000222030E+04  0.00000000000E+00 0. -1.
         24    2    1    2    0    0  0.40670799283E+03 -0.85818673281E+02 -0.90536921707E+03  0.99942943774E+03  0.79934633921E+02 0.  0.
        254    2    1    2    0    0 -0.40670799283E+03  0.85818673281E+02 -0.10487683253E+04  0.14464774259E+04  0.90532077598E+03 0.  0.
         23    2    4    4    0    0 -0.17493558736E+03  0.11075173727E+03 -0.11508602241E+04  0.11725335086E+04  0.86528414348E+02 0.  0.
         23    2    4    4    0    0 -0.23177240547E+03 -0.24933063990E+02  0.10209189879E+03  0.27394391726E+03  0.10140221097E+03 0.  0.
          2    1    3    3  502    0  0.25179348728E+03 -0.58844116438E+02 -0.64981453277E+03  0.69937223084E+03  0.00000000000E+00 0. -1.
         -1    1    3    3    0  502  0.15491450555E+03 -0.26974556843E+02 -0.25555468430E+03  0.30005720690E+03  0.00000000000E+00 0.  1.
         13    1    5    5    0    0  0.33277787528E+01  0.27073001580E+01 -0.16901605645E+01  0.46108815108E+01  0.00000000000E+00 0.  1.
        -13    1    5    5    0    0 -0.17826336612E+03  0.10804443711E+03 -0.11491700635E+04  0.11679226271E+04  0.00000000000E+00 0. -1.
          2    1    6    6  503    0 -0.28028213399E+02 -0.18642325746E+02 -0.17158944805E+02  0.37782885575E+02  0.00000000000E+00 0.  1.
         -2    1    6    6    0  503 -0.20374419207E+03 -0.62907382441E+01  0.11925084360E+03  0.23616103169E+03  0.00000000000E+00 0. -1.
<mgrwt>
<rscale>  0 0.14709884E+04</rscale>
<asrwt>0</asrwt>
<pdfrwt beam="1">  1        2 0.33846494E+00 0.14709884E+04</pdfrwt>
<pdfrwt beam="2">  1       -1 0.37828411E-01 0.14709884E+04</pdfrwt>
<totfact> 0.38451646E+01</totfact>
</mgrwt>
</event>
<event>
12    7  0.1546317E-007  0.1316037E+04  0.7818608E-02  0.9016944E-01
         -1   -1    0    0    0  501 -0.00000000000E+00  0.00000000000E+00  0.21678481934E+03  0.21678481934E+03  0.00000000000E+00 0.  1.
          2   -1    0    0  501    0  0.00000000000E+00 -0.00000000000E+00 -0.19973183621E+04  0.19973183621E+04  0.00000000000E+00 0. -1.
         24    2    1    2    0    0 -0.29552881163E+03  0.16740318195E+03 -0.56952956352E+03  0.66797038394E+03  0.80370431548E+02 0.  0.
        254    2    1    2    0    0  0.29552881163E+03 -0.16740318195E+03 -0.12110039793E+04  0.15461327975E+04  0.89924128349E+03 0.  0.
         23    2    4    4    0    0 -0.10265954630E+03 -0.27543276213E+03 -0.10497373063E+04  0.10938833350E+04  0.90720170725E+02 0.  0.
         23    2    4    4    0    0  0.39818835793E+03  0.10802958018E+03 -0.16126667299E+03  0.45224946257E+03  0.91094884568E+02 0.  0.
          2    1    3    3  502    0 -0.35339051082E+02  0.24780922425E+00 -0.31240172834E+02  0.47168404038E+02  0.00000000000E+00 0. -1.
         -1    1    3    3    0  502 -0.26018976055E+03  0.16715537272E+03 -0.53828939068E+03  0.62080197990E+03  0.00000000000E+00 0.  1.
         13    1    5    5    0    0 -0.32362168745E+02 -0.20651654479E+03 -0.69790687463E+03  0.72853990892E+03  0.00000000000E+00 0.  1.
        -13    1    5    5    0    0 -0.70297377551E+02 -0.68916217338E+02 -0.35183043167E+03  0.36534342604E+03  0.00000000000E+00 0. -1.
          4    1    6    6  503    0  0.37238610322E+03  0.12166805087E+03 -0.15958752869E+03  0.42301619802E+03  0.00000000000E+00 0.  1.
         -4    1    6    6    0  503  0.25802254711E+02 -0.13638470684E+02 -0.16791442913E+01  0.29233264552E+02  0.00000000000E+00 0. -1.
<mgrwt>
<rscale>  0 0.13160369E+04</rscale>
<asrwt>0</asrwt>
<pdfrwt beam="1">  1        2 0.30727975E+00 0.13160369E+04</pdfrwt>
<pdfrwt beam="2">  1       -1 0.33351510E-01 0.13160369E+04</pdfrwt>
<totfact> 0.63305974E+01</totfact>
</mgrwt>
</event>
<event>
12    7  0.1546317E-007  0.2070389E+04  0.7818608E-02  0.8574401E-01
          2   -1    0    0  501    0  0.00000000000E+00  0.00000000000E+00  0.11651678953E+04  0.11651678953E+04  0.00000000000E+00 0. -1.
         -1   -1    0    0    0  501 -0.00000000000E+00 -0.00000000000E+00 -0.91971917237E+03  0.91971917237E+03  0.00000000000E+00 0.  1.
         24    2    1    2    0    0  0.52768433671E+03 -0.54169308881E+03  0.46927588528E+03  0.89369235733E+03  0.81141921119E+02 0.  0.
        254    2    1    2    0    0 -0.52768433671E+03  0.54169308881E+03 -0.22382716240E+03  0.11911947103E+04  0.89272844557E+03 0.  0.
         23    2    4    4    0    0 -0.75400608314E+03  0.43882390878E+03 -0.60396753048E+02  0.87970802337E+03  0.95639125264E+02 0.  0.
         23    2    4    4    0    0  0.22632174643E+03  0.10286918004E+03 -0.16343040935E+03  0.31148668692E+03  0.92254302439E+02 0.  0.
          4    1    3    3  502    0  0.51545588590E+03 -0.50430879300E+03  0.44831924659E+03  0.84912441719E+03  0.00000000000E+00 0. -1.
         -3    1    3    3    0  502  0.12228450806E+02 -0.37384295817E+02  0.20956638691E+02  0.44567940138E+02  0.00000000000E+00 0.  1.
         13    1    5    5    0    0 -0.11543992616E+03  0.82009372742E+02  0.23054697892E+02  0.14346927498E+03  0.00000000000E+00 0. -1.
        -13    1    5    5    0    0 -0.63856615698E+03  0.35681453604E+03 -0.83451450940E+02  0.73623874839E+03  0.00000000000E+00 0.  1.
          1    1    6    6  503    0 -0.75022173124E+01 -0.12655480551E+01  0.33740149331E+00  0.76156888231E+01  0.00000000000E+00 0. -1.
         -1    1    6    6    0  503  0.23382396374E+03  0.10413472809E+03 -0.16376781084E+03  0.30387099809E+03  0.00000000000E+00 0.  1.
<mgrwt>
<rscale>  0 0.20703886E+04</rscale>
<asrwt>0</asrwt>
<pdfrwt beam="1">  1        2 0.17925660E+00 0.20703886E+04</pdfrwt>
<pdfrwt beam="2">  1       -1 0.14149526E+00 0.20703886E+04</pdfrwt>
<totfact> 0.85348921E+00</totfact>
</mgrwt>
</event>
<event>
12    7  0.1546317E-007  0.2461505E+04  0.7818608E-02  0.8416829E-01
         -1   -1    0    0    0  501 -0.00000000000E+00  0.00000000000E+00  0.14021608981E+04  0.14021608981E+04  0.00000000000E+00 0.  1.
          2   -1    0    0  501    0  0.00000000000E+00 -0.00000000000E+00 -0.10802982520E+04  0.10802982520E+04  0.00000000000E+00 0. -1.
         24    2    1    2    0    0  0.66376350358E+03  0.14185762175E+02 -0.69611781118E+03  0.96526794985E+03  0.79868538514E+02 0.  0.
        254    2    1    2    0    0 -0.66376350358E+03 -0.14185762175E+02  0.10179804573E+04  0.15171912002E+04  0.90818594025E+03 0.  0.
         23    2    4    4    0    0 -0.86608525745E+03 -0.11161339775E+03  0.75364682180E+03  0.11572586960E+04  0.93289515342E+02 0.  0.
         23    2    4    4    0    0  0.20232175387E+03  0.97427635571E+02  0.26433363549E+03  0.35993250424E+03  0.96191998092E+02 0.  0.
          2    1    3    3  502    0  0.50097859748E+03 -0.17951970171E+02 -0.54995119944E+03  0.74414256036E+03  0.00000000000E+00 0. -1.
         -1    1    3    3    0  502  0.16278490610E+03  0.32137732345E+02 -0.14616661173E+03  0.22112538950E+03  0.00000000000E+00 0.  1.
         13    1    5    5    0    0 -0.51308484241E+03 -0.86944281941E+02  0.50182268323E+03  0.72293939516E+03  0.00000000000E+00 0.  1.
        -13    1    5    5    0    0 -0.35300041504E+03 -0.24669115804E+02  0.25182413857E+03  0.43431930081E+03  0.00000000000E+00 0. -1.
          4    1    6    6  503    0  0.50728114474E+02 -0.83994152729E+00  0.11445929445E+03  0.12519974914E+03  0.00000000000E+00 0. -1.
         -4    1    6    6    0  503  0.15159363940E+03  0.98267577099E+02  0.14987434104E+03  0.23473275510E+03  0.00000000000E+00 0.  1.
<mgrwt>
<rscale>  0 0.24615052E+04</rscale>
<asrwt>0</asrwt>
<pdfrwt beam="1">  1        2 0.16619973E+00 0.24615052E+04</pdfrwt>
<pdfrwt beam="2">  1       -1 0.21571706E+00 0.24615052E+04</pdfrwt>
<totfact> 0.26875617E+00</totfact>
</mgrwt>
</event>
<event>
12    7  0.1546317E-007  0.1662269E+04  0.7818608E-02  0.8783181E-01
          2   -1    0    0  501    0  0.00000000000E+00  0.00000000000E+00  0.74410666144E+03  0.74410666144E+03  0.00000000000E+00 0. -1.
         -1   -1    0    0    0  501 -0.00000000000E+00 -0.00000000000E+00 -0.92834096229E+03  0.92834096229E+03  0.00000000000E+00 0.  1.
         24    2    1    2    0    0  0.13652541048E+03  0.47679658428E+03 -0.34449116408E+03  0.60914839521E+03  0.80083923290E+02 0.  0.
        254    2    1    2    0    0 -0.13652541048E+03 -0.47679658428E+03  0.16025686322E+03  0.10632992285E+04  0.92679491619E+03 0.  0.
         23    2    4    4    0    0  0.12313359362E+03 -0.46927428431E+03 -0.26238407423E+03  0.55904843677E+03  0.91156549143E+02 0.  0.
         23    2    4    4    0    0 -0.25965900410E+03 -0.75222999667E+01  0.42264093745E+03  0.50425079175E+03  0.90355495482E+02 0.  0.
          2    1    3    3  502    0  0.15632254877E+02  0.12790412785E+03 -0.55684881535E+02  0.14037321448E+03  0.00000000000E+00 0. -1.
         -1    1    3    3    0  502  0.12089315560E+03  0.34889245643E+03 -0.28880628254E+03  0.46877518072E+03  0.00000000000E+00 0.  1.
         13    1    5    5    0    0  0.87683429464E+01 -0.18127191737E+02  0.69692359580E+01  0.21308429509E+02  0.00000000000E+00 0.  1.
        -13    1    5    5    0    0  0.11436525068E+03 -0.45114709258E+03 -0.26935331019E+03  0.53774000726E+03  0.00000000000E+00 0. -1.
          1    1    6    6  503    0 -0.24298915392E+03 -0.22616480164E+02  0.41315011375E+03  0.47984190167E+03  0.00000000000E+00 0. -1.
         -1    1    6    6    0  503 -0.16669850176E+02  0.15094180197E+02  0.94908236997E+01  0.24408890086E+02  0.00000000000E+00 0.  1.
<mgrwt>
<rscale>  0 0.16622692E+04</rscale>
<asrwt>0</asrwt>
<pdfrwt beam="1">  1        2 0.11447795E+00 0.16622692E+04</pdfrwt>
<pdfrwt beam="2">  1       -1 0.14282169E+00 0.16622692E+04</pdfrwt>
<totfact> 0.16421822E+01</totfact>
</mgrwt>
</event>
<event>
12    7  0.1546317E-007  0.1981979E+04  0.7818608E-02  0.8615093E-01
          2   -1    0    0  501    0  0.00000000000E+00  0.00000000000E+00  0.22570965301E+04  0.22570965301E+04  0.00000000000E+00 0. -1.
         -1   -1    0    0    0  501 -0.00000000000E+00 -0.00000000000E+00 -0.43509880988E+03  0.43509880988E+03  0.00000000000E+00 0.  1.
         24    2    1    2    0    0 -0.24307189234E+03  0.62831420973E+03  0.18001105191E+03  0.70184498209E+03  0.79496597914E+02 0.  0.
        254    2    1    2    0    0  0.24307189234E+03 -0.62831420973E+03  0.16419866683E+04  0.19903503579E+04  0.90083940700E+03 0.  0.
         23    2    4    4    0    0 -0.17370077416E+03 -0.34341752331E+03  0.16811021060E+03  0.42953189618E+03  0.90161259243E+02 0.  0.
         23    2    4    4    0    0  0.41677266650E+03 -0.28489668642E+03  0.14738764577E+04  0.15608184617E+04  0.94746400107E+02 0.  0.
          2    1    3    3  502    0 -0.23374671890E+02  0.86343239709E+02  0.51028868514E+02  0.10298289058E+03  0.00000000000E+00 0. -1.
         -1    1    3    3    0  502 -0.21969722045E+03  0.54197097002E+03  0.12898218340E+03  0.59886209152E+03  0.00000000000E+00 0.  1.
         13    1    5    5    0    0 -0.59190092963E+02 -0.19081266199E+03  0.11894025884E+03  0.23250747139E+03  0.00000000000E+00 0. -1.
        -13    1    5    5    0    0 -0.11451068120E+03 -0.15260486132E+03  0.49169951760E+02  0.19702442479E+03  0.00000000000E+00 0.  1.
          1    1    6    6  503    0  0.98148099197E+02 -0.30085125114E+02  0.36937700876E+03  0.38337649737E+03  0.00000000000E+00 0. -1.
         -1    1    6    6    0  503  0.31862456730E+03 -0.25481156131E+03  0.11044994489E+04  0.11774419643E+04  0.00000000000E+00 0.  1.
<mgrwt>
<rscale>  0 0.19819788E+04</rscale>
<asrwt>0</asrwt>
<pdfrwt beam="1">  1        2 0.34724561E+00 0.19819788E+04</pdfrwt>
<pdfrwt beam="2">  1       -1 0.66938280E-01 0.19819788E+04</pdfrwt>
<totfact> 0.11483755E+01</totfact>
</mgrwt>
</event>
<event>
12    7  0.1546317E-007  0.2210699E+04  0.7818608E-02  0.8513988E-01
          2   -1    0    0  501    0  0.00000000000E+00  0.00000000000E+00  0.83064230782E+03  0.83064230782E+03  0.00000000000E+00 0. -1.
         -1   -1    0    0    0  501 -0.00000000000E+00 -0.00000000000E+00 -0.14709068304E+04  0.14709068304E+04  0.00000000000E+00 0.  1.
         24    2    1    2    0    0  0.51841026751E+03  0.75496855132E+03 -0.28310120033E+03  0.96183219126E+03  0.79045275533E+02 0.  0.
        254    2    1    2    0    0 -0.51841026751E+03 -0.75496855132E+03 -0.35716332226E+03  0.13397169470E+04  0.91024674693E+03 0.  0.
         23    2    4    4    0    0 -0.36518580925E+03 -0.47267885404E+02  0.19311215461E+03  0.42553732730E+03  0.90525048447E+02 0.  0.
         23    2    4    4    0    0 -0.15322445826E+03 -0.70770066591E+03 -0.55027547688E+03  0.91417961967E+03  0.92754026518E+02 0.  0.
          2    1    3    3  502    0  0.15430562170E+03  0.28438661152E+03 -0.11742102402E+03  0.34420003862E+03  0.00000000000E+00 0. -1.
         -1    1    3    3    0  502  0.36410464581E+03  0.47058193979E+03 -0.16568017631E+03  0.61763215264E+03  0.00000000000E+00 0.  1.
         13    1    5    5    0    0 -0.11826909710E+03 -0.29442520087E+01  0.18156026177E+02  0.11969080681E+03  0.00000000000E+00 0.  1.
        -13    1    5    5    0    0 -0.24691671215E+03 -0.44323633395E+02  0.17495612844E+03  0.30584652049E+03  0.00000000000E+00 0. -1.
          3    1    6    6  503    0 -0.58264838125E+02 -0.47499444969E+03 -0.35273839492E+03  0.59450726981E+03  0.00000000000E+00 0. -1.
         -3    1    6    6    0  503 -0.94959620132E+02 -0.23270621622E+03 -0.19753708195E+03  0.31967234987E+03  0.00000000000E+00 0.  1.
<mgrwt>
<rscale>  0 0.22106989E+04</rscale>
<asrwt>0</asrwt>
<pdfrwt beam="1">  1        2 0.12779113E+00 0.22106989E+04</pdfrwt>
<pdfrwt beam="2">  1       -1 0.22629335E+00 0.22106989E+04</pdfrwt>
<totfact> 0.34084069E+00</totfact>
</mgrwt>
</event>
<event>
12    7  0.1546317E-007  0.1848136E+04  0.7818608E-02  0.8681112E-01
          2   -1    0    0  501    0  0.00000000000E+00  0.00000000000E+00  0.99675986816E+03  0.99675986816E+03  0.00000000000E+00 0. -1.
         -1   -1    0    0    0  501 -0.00000000000E+00 -0.00000000000E+00 -0.85667784259E+03  0.85667784259E+03  0.00000000000E+00 0.  1.
         24    2    1    2    0    0  0.69250574981E+03  0.10874825109E+03  0.64500574117E+02  0.70852448563E+03  0.80350650563E+02 0.  0.
        254    2    1    2    0    0 -0.69250574981E+03 -0.10874825109E+03  0.75581451456E+02  0.11449132251E+04  0.90206615146E+03 0.  0.
         23    2    4    4    0    0  0.75866767770E+02 -0.12684549755E+03 -0.25069198087E+03  0.30495749738E+03  0.91143070145E+02 0.  0.
         23    2    4    4    0    0 -0.76837251758E+03  0.18097246466E+02  0.32627343233E+03  0.83995572774E+03  0.91364302728E+02 0.  0.
          4    1    3    3  502    0  0.98576262007E+02  0.44221488332E+02  0.14537335521E+02  0.10901446503E+03  0.00000000000E+00 0. -1.
         -3    1    3    3    0  502  0.59392948780E+03  0.64526762756E+02  0.49963238596E+02  0.59951002060E+03  0.00000000000E+00 0.  1.
         13    1    5    5    0    0  0.52808594521E+02 -0.12772089392E+03 -0.24483592882E+03  0.28115121632E+03  0.00000000000E+00 0. -1.
        -13    1    5    5    0    0  0.23058173249E+02  0.87539636832E+00 -0.58560520570E+01  0.23806281064E+02  0.00000000000E+00 0.  1.
          4    1    6    6  503    0 -0.51936926562E+03  0.10075133440E+02  0.26611210158E+03  0.58366222509E+03  0.00000000000E+00 0. -1.
         -4    1    6    6    0  503 -0.24900325196E+03  0.80221130260E+01  0.60161330749E+02  0.25629350265E+03  0.00000000000E+00 0.  1.
<mgrwt>
<rscale>  0 0.18481365E+04</rscale>
<asrwt>0</asrwt>
<pdfrwt beam="1">  1        2 0.15334767E+00 0.18481365E+04</pdfrwt>
<pdfrwt beam="2">  1       -1 0.13179659E+00 0.18481365E+04</pdfrwt>
<totfact> 0.13301661E+01</totfact>
</mgrwt>
</event>
<event>
12    7  0.1546317E-007  0.1993588E+04  0.7818608E-02  0.8609625E-01
          2   -1    0    0  501    0  0.00000000000E+00  0.00000000000E+00  0.19494302557E+04  0.19494302557E+04  0.00000000000E+00 0. -1.
         -1   -1    0    0    0  501 -0.00000000000E+00 -0.00000000000E+00 -0.50968629398E+03  0.50968629398E+03  0.00000000000E+00 0.  1.
         24    2    1    2    0    0 -0.71652616839E+03  0.26246394756E+03  0.79906484861E+03  0.11077918440E+04  0.80006646983E+02 0.  0.
        254    2    1    2    0    0  0.71652616839E+03 -0.26246394756E+03  0.64067911314E+03  0.13513247057E+04  0.91285905841E+03 0.  0.
         23    2    4    4    0    0  0.56627486714E+03  0.20428910939E+03  0.59355036014E+03  0.85026950892E+03  0.90856713598E+02 0.  0.
         23    2    4    4    0    0  0.15025130126E+03 -0.46675305696E+03  0.47128753004E+02  0.50105519681E+03  0.91658721259E+02 0.  0.
          2    1    3    3  502    0 -0.63852501791E+03  0.20871109782E+03  0.68337788603E+03  0.95826919807E+03  0.00000000000E+00 0. -1.
         -1    1    3    3    0  502 -0.78001150482E+02  0.53752849742E+02  0.11568696259E+03  0.14952264592E+03  0.00000000000E+00 0.  1.
         13    1    5    5    0    0  0.76743564130E+02  0.23028278932E+02  0.12693520332E+03  0.15010803478E+03  0.00000000000E+00 0. -1.
        -13    1    5    5    0    0  0.48953130301E+03  0.18126083046E+03  0.46661515682E+03  0.70016147413E+03  0.00000000000E+00 0.  1.
          2    1    6    6  503    0  0.11092021539E+03 -0.21718045948E+03 -0.95333743656E+00  0.24386790484E+03  0.00000000000E+00 0. -1.
         -2    1    6    6    0  503  0.39331085870E+02 -0.24957259748E+03  0.48082090440E+02  0.25718729197E+03  0.00000000000E+00 0.  1.
<mgrwt>
<rscale>  0 0.19935876E+04</rscale>
<asrwt>0</asrwt>
<pdfrwt beam="1">  1        2 0.29991234E+00 0.19935876E+04</pdfrwt>
<pdfrwt beam="2">  1       -1 0.78413277E-01 0.19935876E+04</pdfrwt>
<totfact> 0.12280179E+01</totfact>
</mgrwt>
</event>
<event>
12    7  0.1546317E-007  0.1634367E+04  0.7818608E-02  0.8799709E-01
          2   -1    0    0  501    0  0.00000000000E+00  0.00000000000E+00  0.59174934206E+03  0.59174934206E+03  0.00000000000E+00 0. -1.
         -1   -1    0    0    0  501 -0.00000000000E+00 -0.00000000000E+00 -0.11284994052E+04  0.11284994052E+04  0.00000000000E+00 0.  1.
         24    2    1    2    0    0 -0.11298615512E+03  0.50492380672E+03  0.61773820326E+02  0.52612120162E+03  0.72619502024E+02 0.  0.
        254    2    1    2    0    0  0.11298615512E+03 -0.50492380672E+03 -0.59852388344E+03  0.11941275456E+04  0.89442486229E+03 0.  0.
         23    2    4    4    0    0 -0.20875175601E+03 -0.55710362128E+03 -0.13039520993E+03  0.61604089441E+03  0.92529629440E+02 0.  0.
         23    2    4    4    0    0  0.32173791113E+03  0.52179814558E+02 -0.46812867351E+03  0.57808665120E+03  0.93817401492E+02 0.  0.
          4    1    3    3  502    0 -0.61182246246E+02  0.40259594014E+03  0.37981511079E+02  0.40898576193E+03  0.00000000000E+00 0. -1.
         -3    1    3    3    0  502 -0.51803908870E+02  0.10232786658E+03  0.23792309247E+02  0.11713543970E+03  0.00000000000E+00 0.  1.
         13    1    5    5    0    0 -0.70198038379E+02 -0.22172619970E+03 -0.67094778535E+01  0.23266991494E+03  0.00000000000E+00 0. -1.
        -13    1    5    5    0    0 -0.13855371763E+03 -0.33537742159E+03 -0.12368573207E+03  0.38337097947E+03  0.00000000000E+00 0.  1.
          2    1    6    6  503    0  0.23995425497E+03  0.25338541063E+02 -0.40467754832E+03  0.47115178473E+03  0.00000000000E+00 0. -1.
         -2    1    6    6    0  503  0.81783656162E+02  0.26841273495E+02 -0.63451125191E+02  0.10693486647E+03  0.00000000000E+00 0.  1.
<mgrwt>
<rscale>  0 0.16343669E+04</rscale>
<asrwt>0</asrwt>
<pdfrwt beam="1">  1        2 0.91038361E-01 0.16343669E+04</pdfrwt>
<pdfrwt beam="2">  1       -1 0.17361529E+00 0.16343669E+04</pdfrwt>
<totfact> 0.12757682E+01</totfact>
</mgrwt>
</event>
<event>
12    7  0.1546317E-007  0.2471533E+04  0.7818608E-02  0.8413198E-01
         -1   -1    0    0    0  501 -0.00000000000E+00  0.00000000000E+00  0.10138751678E+04  0.10138751678E+04  0.00000000000E+00 0.  1.
          2   -1    0    0  501    0  0.00000000000E+00 -0.00000000000E+00 -0.15062197281E+04  0.15062197281E+04  0.00000000000E+00 0. -1.
         24    2    1    2    0    0 -0.30721243242E+03  0.37776361245E+03  0.76401548243E+03  0.90946926338E+03  0.79560405463E+02 0.  0.
        254    2    1    2    0    0  0.30721243242E+03 -0.37776361245E+03 -0.12563600427E+04  0.16106256325E+04  0.88237721291E+03 0.  0.
         23    2    4    4    0    0 -0.87866175568E+02  0.64710400932E+02  0.66826453542E+02  0.15778488961E+03  0.92316822398E+02 0.  0.
         23    2    4    4    0    0  0.39507860799E+03 -0.44247401338E+03 -0.13231864962E+04  0.14528407429E+04  0.89740523608E+02 0.  0.
          4    1    3    3  502    0 -0.27577001082E+02  0.72743319046E+01  0.33985082015E+02  0.44366571796E+02  0.00000000000E+00 0. -1.
         -3    1    3    3    0  502 -0.27963543134E+03  0.37048928054E+03  0.73003040041E+03  0.86510269158E+03  0.00000000000E+00 0.  1.
         13    1    5    5    0    0 -0.20334821859E+02  0.26531914491E+02 -0.21872223038E+02  0.39947986272E+02  0.00000000000E+00 0. -1.
        -13    1    5    5    0    0 -0.67531353708E+02  0.38178486442E+02  0.88698676579E+02  0.11783690333E+03  0.00000000000E+00 0.  1.
          1    1    6    6  503    0  0.28533181714E+03 -0.34197472499E+03 -0.89829697245E+03  0.10026457047E+04  0.00000000000E+00 0. -1.
         -1    1    6    6    0  503  0.10974679086E+03 -0.10049928839E+03 -0.42488952376E+03  0.45019503826E+03  0.00000000000E+00 0.  1.
<mgrwt>
<rscale>  0 0.24715329E+04</rscale>
<asrwt>0</asrwt>
<pdfrwt beam="1">  1        2 0.23172611E+00 0.24715329E+04</pdfrwt>
<pdfrwt beam="2">  1       -1 0.15598080E+00 0.24715329E+04</pdfrwt>
<totfact> 0.40212580E+00</totfact>
</mgrwt>
</event>
<event>
12    7  0.1546317E-007  0.1749951E+04  0.7818608E-02  0.8733377E-01
          2   -1    0    0  501    0  0.00000000000E+00  0.00000000000E+00  0.12451782542E+04  0.12451782542E+04  0.00000000000E+00 0. -1.
         -3   -1    0    0    0  501 -0.00000000000E+00 -0.00000000000E+00 -0.61483733914E+03  0.61483733914E+03  0.00000000000E+00 0.  1.
         24    2    1    2    0    0 -0.83389564401E+02  0.53296620065E+03 -0.13975611839E+03  0.56293410588E+03  0.79726058775E+02 0.  0.
        254    2    1    2    0    0  0.83389564401E+02 -0.53296620065E+03  0.77009703344E+03  0.12970814874E+04  0.89351225713E+03 0.  0.
         23    2    4    4    0    0  0.26949747901E+03 -0.71431029719E+03  0.56070043779E+03  0.95171831276E+03  0.92274991476E+02 0.  0.
         23    2    4    4    0    0 -0.18610791461E+03  0.18134409654E+03  0.20939659566E+03  0.34536317467E+03  0.88921037562E+02 0.  0.
          2    1    3    3  502    0 -0.33952189143E+02  0.20750351246E+03 -0.14668972738E+02  0.21077390159E+03  0.00000000000E+00 0. -1.
         -1    1    3    3    0  502 -0.49437375258E+02  0.32546268820E+03 -0.12508714566E+03  0.35216020430E+03  0.00000000000E+00 0.  1.
         13    1    5    5    0    0  0.34207121476E+02 -0.15374317624E+03  0.15400158027E+03  0.22028068033E+03  0.00000000000E+00 0. -1.
        -13    1    5    5    0    0  0.23529035753E+03 -0.56056712095E+03  0.40669885751E+03  0.73143763243E+03  0.00000000000E+00 0.  1.
          1    1    6    6  503    0 -0.12997600433E+01  0.11840161394E+02 -0.72720185420E+01  0.13955681699E+02  0.00000000000E+00 0. -1.
         -1    1    6    6    0  503 -0.18480815456E+03  0.16950393514E+03  0.21666861420E+03  0.33140749298E+03  0.00000000000E+00 0.  1.
<mgrwt>
<rscale>  0 0.17499510E+04</rscale>
<asrwt>0</asrwt>
<pdfrwt beam="1">  1        2 0.19156589E+00 0.17499510E+04</pdfrwt>
<pdfrwt beam="2">  1       -3 0.94590360E-01 0.17499510E+04</pdfrwt>
<totfact> 0.10664561E+01</totfact>
</mgrwt>
</event>
<event>
12    7  0.1546317E-007  0.2177859E+04  0.7818608E-02  0.8527701E-01
         -1   -1    0    0    0  501 -0.00000000000E+00  0.00000000000E+00  0.39478134458E+03  0.39478134458E+03  0.00000000000E+00 0.  1.
          2   -1    0    0  501    0  0.00000000000E+00 -0.00000000000E+00 -0.30036045937E+04  0.30036045937E+04  0.00000000000E+00 0. -1.
         24    2    1    2    0    0 -0.23707712079E+03 -0.32903093985E+03  0.17214407513E+03  0.44761061887E+03  0.79087059287E+02 0.  0.
        254    2    1    2    0    0  0.23707712079E+03  0.32903093985E+03 -0.27809673243E+04  0.29507753194E+04  0.89934910158E+03 0.  0.
         23    2    4    4    0    0 -0.27380212249E+03  0.36010402989E+03 -0.11518523060E+04  0.12407437489E+04  0.89659360581E+02 0.  0.
         23    2    4    4    0    0  0.51087924328E+03 -0.31073090044E+02 -0.16291150182E+04  0.17100315705E+04  0.90714339341E+02 0.  0.
          2    1    3    3  502    0 -0.20944923775E+02 -0.22848758957E+02 -0.76625695502E+01  0.31929149534E+02  0.00000000000E+00 0. -1.
         -3    1    3    3    0  502 -0.21613219701E+03 -0.30618218089E+03  0.17980664468E+03  0.41568146934E+03  0.00000000000E+00 0.  1.
         13    1    5    5    0    0 -0.73229239137E+02  0.65428189004E+02 -0.34404039492E+03  0.35778088646E+03  0.00000000000E+00 0.  1.
        -13    1    5    5    0    0 -0.20057288335E+03  0.29467584089E+03 -0.80781191112E+03  0.88296286246E+03  0.00000000000E+00 0. -1.
          1    1    6    6  503    0  0.21545496678E+03 -0.91257639105E+01 -0.83702102537E+03  0.86435427875E+03  0.00000000000E+00 0. -1.
         -1    1    6    6    0  503  0.29542427650E+03 -0.21947326133E+02 -0.79209399286E+03  0.84567729176E+03  0.00000000000E+00 0.  1.
<mgrwt>
<rscale>  0 0.21778586E+04</rscale>
<asrwt>0</asrwt>
<pdfrwt beam="1">  1        2 0.46209302E+00 0.21778586E+04</pdfrwt>
<pdfrwt beam="2">  1       -1 0.60735591E-01 0.21778586E+04</pdfrwt>
<totfact> 0.49686307E+00</totfact>
</mgrwt>
</event>
<event>
12    7  0.1546317E-007  0.2159708E+04  0.7818608E-02  0.8535388E-01
         -1   -1    0    0    0  501 -0.00000000000E+00  0.00000000000E+00  0.71773896594E+03  0.71773896594E+03  0.00000000000E+00 0.  1.
          2   -1    0    0  501    0  0.00000000000E+00 -0.00000000000E+00 -0.16246639223E+04  0.16246639223E+04  0.00000000000E+00 0. -1.
         24    2    1    2    0    0 -0.67166821827E+03  0.39053493755E+03 -0.84784081956E+03  0.11527800542E+04  0.80075372279E+02 0.  0.
        254    2    1    2    0    0  0.67166821827E+03 -0.39053493755E+03 -0.59084136777E+02  0.11896228340E+04  0.89891925057E+03 0.  0.
         23    2    4    4    0    0  0.64327899008E+03 -0.29738541631E+03 -0.40361143491E+03  0.82058273346E+03  0.90597390368E+02 0.  0.
         23    2    4    4    0    0  0.28389228184E+02 -0.93149521238E+02  0.34452729813E+03  0.36904010053E+03  0.89491647962E+02 0.  0.
          4    1    3    3  502    0 -0.54355328249E+03  0.34980151429E+03 -0.69066230986E+03  0.94595226971E+03  0.00000000000E+00 0. -1.
         -3    1    3    3    0  502 -0.12811493578E+03  0.40733423263E+02 -0.15717850970E+03  0.20682778453E+03  0.00000000000E+00 0.  1.
         13    1    5    5    0    0  0.94748660966E+02 -0.12761260066E+02 -0.68315857788E+02  0.11750410605E+03  0.00000000000E+00 0. -1.
        -13    1    5    5    0    0  0.54853032912E+03 -0.28462415624E+03 -0.33529557712E+03  0.70307862741E+03  0.00000000000E+00 0.  1.
          4    1    6    6  503    0  0.27240440286E+02  0.10049227529E+02  0.73330761318E+02  0.78869697073E+02  0.00000000000E+00 0. -1.
         -4    1    6    6    0  503  0.11487878979E+01 -0.10319874877E+03  0.27119653681E+03  0.29017040345E+03  0.00000000000E+00 0.  1.
<mgrwt>
<rscale>  0 0.21597079E+04</rscale>
<asrwt>0</asrwt>
<pdfrwt beam="1">  1        2 0.24994829E+00 0.21597079E+04</pdfrwt>
<pdfrwt beam="2">  1       -1 0.11042138E+00 0.21597079E+04</pdfrwt>
<totfact> 0.85339790E+00</totfact>
</mgrwt>
</event>
<event>
12    7  0.1546317E-007  0.1310703E+04  0.7818608E-02  0.9021121E-01
          2   -1    0    0  501    0  0.00000000000E+00  0.00000000000E+00  0.15456183782E+04  0.15456183782E+04  0.00000000000E+00 0. -1.
         -1   -1    0    0    0  501 -0.00000000000E+00 -0.00000000000E+00 -0.27787292115E+03  0.27787292115E+03  0.00000000000E+00 0.  1.
         24    2    1    2    0    0  0.24598215739E+03  0.23511646823E+03  0.49021559226E+03  0.60197851263E+03  0.79245361905E+02 0.  0.
        254    2    1    2    0    0 -0.24598215739E+03 -0.23511646823E+03  0.77752986475E+03  0.12215127867E+04  0.87849520323E+03 0.  0.
         23    2    4    4    0    0  0.13677239685E+03  0.13101879407E+03 -0.65083683126E+02  0.22173061062E+03  0.95162833797E+02 0.  0.
         23    2    4    4    0    0 -0.38275455424E+03 -0.36613526230E+03  0.84261354788E+03  0.99978217608E+03  0.94924862111E+02 0.  0.
          4    1    3    3  502    0  0.60021918477E+02  0.16866029013E+02  0.97440515311E+02  0.11567950405E+03  0.00000000000E+00 0. -1.
         -3    1    3    3    0  502  0.18596023891E+03  0.21825043921E+03  0.39277507695E+03  0.48629900858E+03  0.00000000000E+00 0.  1.
         13    1    5    5    0    0  0.14012416046E+03  0.81040287598E+02 -0.49339124306E+02  0.16922369145E+03  0.00000000000E+00 0. -1.
        -13    1    5    5    0    0 -0.33517636120E+01  0.49978506474E+02 -0.15744558821E+02  0.52506919174E+02  0.00000000000E+00 0.  1.
          3    1    6    6  503    0 -0.10134315649E+02 -0.42081550559E+02  0.85980876691E+02  0.96261479356E+02  0.00000000000E+00 0. -1.
         -3    1    6    6    0  503 -0.37262023859E+03 -0.32405371174E+03  0.75663267119E+03  0.90352069672E+03  0.00000000000E+00 0.  1.
<mgrwt>
<rscale>  0 0.13107029E+04</rscale>
<asrwt>0</asrwt>
<pdfrwt beam="1">  1        2 0.23778744E+00 0.13107029E+04</pdfrwt>
<pdfrwt beam="2">  1       -1 0.42749681E-01 0.13107029E+04</pdfrwt>
<totfact> 0.71924644E+01</totfact>
</mgrwt>
</event>
<event>
12    7  0.1546317E-007  0.1468101E+04  0.7818608E-02  0.8905947E-01
         -1   -1    0    0    0  501 -0.00000000000E+00  0.00000000000E+00  0.32022515740E+03  0.32022515740E+03  0.00000000000E+00 0.  1.
          2   -1    0    0  501    0  0.00000000000E+00 -0.00000000000E+00 -0.16826603198E+04  0.16826603198E+04  0.00000000000E+00 0. -1.
         24    2    1    2    0    0  0.25178695142E+03  0.36690858672E+03 -0.63562644771E+03  0.77995937944E+03  0.79354096521E+02 0.  0.
        254    2    1    2    0    0 -0.25178695142E+03 -0.36690858672E+03 -0.72680871470E+03  0.12229260978E+04  0.87708537379E+03 0.  0.
         23    2    4    4    0    0 -0.54714862275E+03 -0.37748624949E+03 -0.45295113761E+03  0.80981955165E+03  0.93677581381E+02 0.  0.
         23    2    4    4    0    0  0.29536167132E+03  0.10577662775E+02 -0.27385757710E+03  0.41310654611E+03  0.91151752979E+02 0.  0.
          4    1    3    3  502    0  0.25516517444E+03  0.35257618931E+03 -0.62577582885E+03  0.76224315247E+03  0.00000000000E+00 0. -1.
         -3    1    3    3    0  502 -0.33782230165E+01  0.14332397404E+02 -0.98506188623E+01  0.17716226970E+02  0.00000000000E+00 0.  1.
         13    1    5    5    0    0 -0.17920612272E+03 -0.11822142639E+03 -0.20046082660E+03  0.29372722563E+03  0.00000000000E+00 0. -1.
        -13    1    5    5    0    0 -0.36794250003E+03 -0.25926482310E+03 -0.25249031101E+03  0.51609232602E+03  0.00000000000E+00 0.  1.
          3    1    6    6  503    0  0.12265026633E+03 -0.38881365858E+02 -0.13053744290E+03  0.18328904070E+03  0.00000000000E+00 0. -1.
         -3    1    6    6    0  503  0.17271140499E+03  0.49459028633E+02 -0.14332013420E+03  0.22981750541E+03  0.00000000000E+00 0.  1.
<mgrwt>
<rscale>  0 0.14681010E+04</rscale>
<asrwt>0</asrwt>
<pdfrwt beam="1">  1        2 0.25887082E+00 0.14681010E+04</pdfrwt>
<pdfrwt beam="2">  1       -1 0.49265408E-01 0.14681010E+04</pdfrwt>
<totfact> 0.45676368E+01</totfact>
</mgrwt>
</event>
<event>
12    7  0.1546317E-007  0.1749313E+04  0.7818608E-02  0.8733729E-01
         -1   -1    0    0    0  501 -0.00000000000E+00  0.00000000000E+00  0.43482293230E+03  0.43482293230E+03  0.00000000000E+00 0.  1.
          2   -1    0    0  501    0  0.00000000000E+00 -0.00000000000E+00 -0.17593919616E+04  0.17593919616E+04  0.00000000000E+00 0. -1.
         24    2    1    2    0    0 -0.63306720039E+02  0.56172251870E+03 -0.91527142012E+03  0.10787119097E+04  0.79735078987E+02 0.  0.
        254    2    1    2    0    0  0.63306720039E+02 -0.56172251870E+03 -0.40929760919E+03  0.11155029842E+04  0.87021976883E+03 0.  0.
         23    2    4    4    0    0 -0.56542850362E+02 -0.52693497763E+03 -0.64126535932E+03  0.83682949372E+03  0.90580218145E+02 0.  0.
         23    2    4    4    0    0  0.11984957040E+03 -0.34787541072E+02  0.23196775013E+03  0.27867349049E+03  0.90971339770E+02 0.  0.
          4    1    3    3  502    0 -0.15900492310E+02  0.31325781464E+03 -0.57138805381E+03  0.65181868041E+03  0.00000000000E+00 0. -1.
         -3    1    3    3    0  502 -0.47406227728E+02  0.24846470407E+03 -0.34388336631E+03  0.42689322930E+03  0.00000000000E+00 0.  1.
         13    1    5    5    0    0 -0.79497077126E+02 -0.39496680927E+03 -0.50063024818E+03  0.64261124413E+03  0.00000000000E+00 0. -1.
        -13    1    5    5    0    0  0.22954226764E+02 -0.13196816836E+03 -0.14063511115E+03  0.19421824959E+03  0.00000000000E+00 0.  1.
          4    1    6    6  503    0  0.68726558946E+02 -0.38235388350E+01  0.19866736301E+03  0.21025384771E+03  0.00000000000E+00 0. -1.
         -4    1    6    6    0  503  0.51123011454E+02 -0.30964002237E+02  0.33300387125E+02  0.68419642774E+02  0.00000000000E+00 0.  1.
<mgrwt>
<rscale>  0 0.17493130E+04</rscale>
<asrwt>0</asrwt>
<pdfrwt beam="1">  1        2 0.27067568E+00 0.17493130E+04</pdfrwt>
<pdfrwt beam="2">  1       -1 0.66895836E-01 0.17493130E+04</pdfrwt>
<totfact> 0.22214094E+01</totfact>
</mgrwt>
</event>
<event>
12    7  0.1546317E-007  0.2268896E+04  0.7818608E-02  0.8490287E-01
         -1   -1    0    0    0  501 -0.00000000000E+00  0.00000000000E+00  0.50554145197E+03  0.50554145197E+03  0.00000000000E+00 0.  1.
          2   -1    0    0  501    0  0.00000000000E+00 -0.00000000000E+00 -0.25457298648E+04  0.25457298648E+04  0.00000000000E+00 0. -1.
         24    2    1    2    0    0 -0.83104862447E+03  0.42959120804E+03 -0.72660658533E+03  0.11872050443E+04  0.79424587214E+02 0.  0.
        254    2    1    2    0    0  0.83104862447E+03 -0.42959120804E+03 -0.13135818275E+04  0.18640662725E+04  0.93490931565E+03 0.  0.
         23    2    4    4    0    0  0.31294587836E+03 -0.87868361039E+02  0.69228461008E+02  0.34571547490E+03  0.95239897694E+02 0.  0.
         23    2    4    4    0    0  0.51810274610E+03 -0.34172284700E+03 -0.13828102885E+04  0.15183507976E+04  0.89553843638E+02 0.  0.
          2    1    3    3  502    0 -0.15853426992E+03  0.11622766552E+03 -0.16587952124E+03  0.25721197588E+03  0.00000000000E+00 0. -1.
         -1    1    3    3    0  502 -0.67251435455E+03  0.31336354252E+03 -0.56072706409E+03  0.92999306839E+03  0.00000000000E+00 0.  1.
         13    1    5    5    0    0  0.30697336902E+03 -0.74426580885E+02  0.81887779392E+02  0.32630901557E+03  0.00000000000E+00 0. -1.
        -13    1    5    5    0    0  0.59725093451E+01 -0.13441780155E+02 -0.12659318385E+02  0.19406459326E+02  0.00000000000E+00 0.  1.
          4    1    6    6  503    0  0.98335315164E+02 -0.38149676981E+02 -0.29997882444E+03  0.31798196045E+03  0.00000000000E+00 0. -1.
         -4    1    6    6    0  503  0.41976743094E+03 -0.30357317002E+03 -0.10828314641E+04  0.12003688372E+04  0.00000000000E+00 0.  1.
<mgrwt>
<rscale>  0 0.22688957E+04</rscale>
<asrwt>0</asrwt>
<pdfrwt beam="1">  1        2 0.39165074E+00 0.22688957E+04</pdfrwt>
<pdfrwt beam="2">  1       -1 0.77775609E-01 0.22688957E+04</pdfrwt>
<totfact> 0.56085095E+00</totfact>
</mgrwt>
</event>
<event>
12    7  0.1546317E-007  0.3264650E+04  0.7818608E-02  0.8171949E-01
         -1   -1    0    0    0  501 -0.00000000000E+00  0.00000000000E+00  0.16905025241E+04  0.16905025241E+04  0.00000000000E+00 0.  1.
          2   -1    0    0  501    0  0.00000000000E+00 -0.00000000000E+00 -0.15761492813E+04  0.15761492813E+04  0.00000000000E+00 0. -1.
         24    2    1    2    0    0 -0.60012788920E+03 -0.12386751133E+04 -0.56279090155E+03  0.14891415403E+04  0.79620401054E+02 0.  0.
        254    2    1    2    0    0  0.60012788920E+03  0.12386751133E+04  0.67714414433E+03  0.17775102652E+04  0.89808074859E+03 0.  0.
         23    2    4    4    0    0  0.23070546527E+03 -0.14616649652E+02  0.34737135124E+03  0.42692293434E+03  0.90319865194E+02 0.  0.
         23    2    4    4    0    0  0.36942242393E+03  0.12532917630E+04  0.32977279309E+03  0.13505873309E+04  0.90126981664E+02 0.  0.
          4    1    3    3  502    0 -0.22595698014E+03 -0.54386610164E+03 -0.26241672803E+03  0.64475532766E+03  0.00000000000E+00 0. -1.
         -3    1    3    3    0  502 -0.37417090906E+03 -0.69480901168E+03 -0.30037417352E+03  0.84438621260E+03  0.00000000000E+00 0.  1.
         13    1    5    5    0    0  0.14904672676E+02 -0.16715462353E+02  0.81321785755E+02  0.84349207391E+02  0.00000000000E+00 0. -1.
        -13    1    5    5    0    0  0.21580079259E+03  0.20988127008E+01  0.26604956549E+03  0.34257372695E+03  0.00000000000E+00 0.  1.
          3    1    6    6  503    0  0.29707917395E+03  0.88421731424E+03  0.25656910987E+03  0.96743165264E+03  0.00000000000E+00 0. -1.
         -3    1    6    6    0  503  0.72343249983E+02  0.36907444874E+03  0.73203683215E+02  0.38315567824E+03  0.00000000000E+00 0.  1.
<mgrwt>
<rscale>  0 0.32646497E+04</rscale>
<asrwt>0</asrwt>
<pdfrwt beam="1">  1        2 0.24248451E+00 0.32646497E+04</pdfrwt>
<pdfrwt beam="2">  1       -1 0.26007731E+00 0.32646497E+04</pdfrwt>
<totfact> 0.65719635E-01</totfact>
</mgrwt>
</event>
<event>
12    7  0.1546317E-007  0.2118977E+04  0.7818608E-02  0.8552930E-01
         -1   -1    0    0    0  501 -0.00000000000E+00  0.00000000000E+00  0.13139566711E+04  0.13139566711E+04  0.00000000000E+00 0.  1.
          2   -1    0    0  501    0  0.00000000000E+00 -0.00000000000E+00 -0.85430215414E+03  0.85430215414E+03  0.00000000000E+00 0. -1.
         24    2    1    2    0    0 -0.54606757793E+02  0.69993555716E+03  0.70419045339E+03  0.99755544734E+03  0.79630356641E+02 0.  0.
        254    2    1    2    0    0  0.54606757793E+02 -0.69993555716E+03 -0.24453593642E+03  0.11707033779E+04  0.90435440656E+03 0.  0.
         23    2    4    4    0    0  0.27807075724E+03 -0.81924358187E+03 -0.23636485042E+03  0.90158857893E+03  0.92250911478E+02 0.  0.
         23    2    4    4    0    0 -0.22346399945E+03  0.11930802472E+03 -0.81710860085E+01  0.26911479898E+03  0.90473446778E+02 0.  0.
          2    1    3    3  502    0 -0.31217495106E+02  0.21834270567E+03  0.17420174996E+03  0.28105927989E+03  0.00000000000E+00 0. -1.
         -1    1    3    3    0  502 -0.23389262687E+02  0.48159285148E+03  0.52998870343E+03  0.71649616745E+03  0.00000000000E+00 0.  1.
         13    1    5    5    0    0  0.19319187723E+03 -0.67437325607E+03 -0.20436360665E+03  0.73066194212E+03  0.00000000000E+00 0. -1.
        -13    1    5    5    0    0  0.84878880010E+02 -0.14487032580E+03 -0.32001243769E+02  0.17092663681E+03  0.00000000000E+00 0.  1.
          3    1    6    6  503    0 -0.19656930079E+03  0.13371919512E+03 -0.13576282884E+02  0.23812733697E+03  0.00000000000E+00 0. -1.
         -3    1    6    6    0  503 -0.26894698660E+02 -0.14411170404E+02  0.54051968753E+01  0.30987462008E+02  0.00000000000E+00 0.  1.
<mgrwt>
<rscale>  0 0.21189771E+04</rscale>
<asrwt>0</asrwt>
<pdfrwt beam="1">  1        2 0.13143110E+00 0.21189771E+04</pdfrwt>
<pdfrwt beam="2">  1       -1 0.20214718E+00 0.21189771E+04</pdfrwt>
<totfact> 0.48129628E+00</totfact>
</mgrwt>
</event>
<event>
12    7  0.1546317E-007  0.1292769E+04  0.7818608E-02  0.9035319E-01
          2   -1    0    0  501    0  0.00000000000E+00  0.00000000000E+00  0.28524045144E+03  0.28524045144E+03  0.00000000000E+00 0. -1.
         -1   -1    0    0    0  501 -0.00000000000E+00 -0.00000000000E+00 -0.14647753938E+04  0.14647753938E+04  0.00000000000E+00 0.  1.
         24    2    1    2    0    0  0.56803316311E+02  0.13152883905E+02 -0.74646636106E+03  0.75312578538E+03  0.81159135719E+02 0.  0.
        254    2    1    2    0    0 -0.56803316311E+02 -0.13152883905E+02 -0.43306858133E+03  0.99689005990E+03  0.89601438620E+03 0.  0.
         23    2    4    4    0    0  0.97911972468E+02 -0.29302323918E+03  0.12674044207E+03  0.34599392517E+03  0.90549895331E+02 0.  0.
         23    2    4    4    0    0 -0.15471528878E+03  0.27987035527E+03 -0.55980902341E+03  0.65089613473E+03  0.89528761710E+02 0.  0.
          4    1    3    3  502    0  0.56253120833E+02 -0.19545841636E+02 -0.32639112653E+03  0.33177947647E+03  0.00000000000E+00 0. -1.
         -3    1    3    3    0  502  0.55019547827E+00  0.32698725540E+02 -0.42007523453E+03  0.42134630891E+03  0.00000000000E+00 0.  1.
         13    1    5    5    0    0  0.26138840934E+02 -0.22047330190E+02  0.39862078300E+02  0.52519606436E+02  0.00000000000E+00 0. -1.
        -13    1    5    5    0    0  0.71773131534E+02 -0.27097590899E+03  0.86878363773E+02  0.29347431873E+03  0.00000000000E+00 0.  1.
          1    1    6    6  503    0 -0.57078804562E+02  0.35442879149E+02 -0.14199219052E+03  0.15708586755E+03  0.00000000000E+00 0. -1.
         -1    1    6    6    0  503 -0.97636484217E+02  0.24442747613E+03 -0.41781683288E+03  0.49381026718E+03  0.00000000000E+00 0.  1.
<mgrwt>
<rscale>  0 0.12927694E+04</rscale>
<asrwt>0</asrwt>
<pdfrwt beam="1">  1        2 0.43883146E-01 0.12927694E+04</pdfrwt>
<pdfrwt beam="2">  1       -1 0.22535006E+00 0.12927694E+04</pdfrwt>
<totfact> 0.13236141E+01</totfact>
</mgrwt>
</event>
<event>
12    7  0.1546317E-007  0.1226300E+04  0.7818608E-02  0.9090142E-01
          2   -1    0    0  501    0  0.00000000000E+00  0.00000000000E+00  0.75651232207E+03  0.75651232207E+03  0.00000000000E+00 0. -1.
         -1   -1    0    0    0  501 -0.00000000000E+00 -0.00000000000E+00 -0.49695585060E+03  0.49695585060E+03  0.00000000000E+00 0.  1.
         24    2    1    2    0    0  0.87185325411E+02  0.94831192804E+02 -0.17903296701E+03  0.23460621911E+03  0.79956479876E+02 0.  0.
        254    2    1    2    0    0 -0.87185325411E+02 -0.94831192804E+02  0.43858943848E+03  0.10188619536E+04  0.91056287469E+03 0.  0.
         23    2    4    4    0    0 -0.11035338993E+03 -0.61992099689E+02 -0.26548542875E+03  0.30782433718E+03  0.90842823535E+02 0.  0.
         23    2    4    4    0    0  0.23168064521E+02 -0.32839093115E+02  0.70407486723E+03  0.71103761638E+03  0.90762921930E+02 0.  0.
          2    1    3    3  502    0  0.14636973884E+02  0.73460093161E+02 -0.10307207617E+03  0.12741459562E+03  0.00000000000E+00 0. -1.
         -1    1    3    3    0  502  0.72548351526E+02  0.21371099643E+02 -0.75960890842E+02  0.10719162349E+03  0.00000000000E+00 0.  1.
         13    1    5    5    0    0 -0.58965050097E+02 -0.31294607232E+01 -0.19082297487E+03  0.19975003979E+03  0.00000000000E+00 0. -1.
        -13    1    5    5    0    0 -0.51388339835E+02 -0.58862638965E+02 -0.74662453879E+02  0.10807429739E+03  0.00000000000E+00 0.  1.
          1    1    6    6  503    0 -0.27602593670E+02  0.12781597289E+02  0.25436658931E+03  0.25617891046E+03  0.00000000000E+00 0.  1.
         -1    1    6    6    0  503  0.50770658191E+02 -0.45620690404E+02  0.44970827792E+03  0.45485870592E+03  0.00000000000E+00 0. -1.
<mgrwt>
<rscale>  0 0.12263005E+04</rscale>
<asrwt>0</asrwt>
<pdfrwt beam="1">  1        2 0.11638651E+00 0.12263005E+04</pdfrwt>
<pdfrwt beam="2">  1       -1 0.76454746E-01 0.12263005E+04</pdfrwt>
<totfact> 0.71651061E+01</totfact>
</mgrwt>
</event>
<event>
12    7  0.1546317E-007  0.1380836E+04  0.7818608E-02  0.8967809E-01
          2   -1    0    0  501    0  0.00000000000E+00  0.00000000000E+00  0.99121434402E+03  0.99121434402E+03  0.00000000000E+00 0. -1.
         -1   -1    0    0    0  501 -0.00000000000E+00 -0.00000000000E+00 -0.48090182245E+03  0.48090182245E+03  0.00000000000E+00 0.  1.
         24    2    1    2    0    0  0.72946465426E+02  0.36832781290E+03  0.32455218612E+03  0.50327192491E+03  0.83438266509E+02 0.  0.
        254    2    1    2    0    0 -0.72946465426E+02 -0.36832781290E+03  0.18576033545E+03  0.96884424156E+03  0.87359355401E+03 0.  0.
         23    2    4    4    0    0 -0.26807597017E+03  0.18804948892E+03 -0.13382647750E+02  0.33964000931E+03  0.89156629599E+02 0.  0.
         23    2    4    4    0    0  0.19512950474E+03 -0.55637730181E+03  0.19914298320E+03  0.62920423225E+03  0.92783686749E+02 0.  0.
          4    1    3    3  502    0  0.48356342028E+02  0.33917268285E+03  0.31126046408E+03  0.46288175715E+03  0.00000000000E+00 0. -1.
         -3    1    3    3    0  502  0.24590123398E+02  0.29155130050E+02  0.13291722039E+02  0.40390167761E+02  0.00000000000E+00 0.  1.
         13    1    5    5    0    0 -0.24529826487E+03  0.15361257397E+03  0.14546782814E+02  0.28979246111E+03  0.00000000000E+00 0. -1.
        -13    1    5    5    0    0 -0.22777705304E+02  0.34436914946E+02 -0.27929430564E+02  0.49847548200E+02  0.00000000000E+00 0.  1.
          3    1    6    6  503    0  0.14386649669E+03 -0.49740942827E+03  0.16095537833E+03  0.54223642631E+03  0.00000000000E+00 0. -1.
         -3    1    6    6    0  503  0.51263008050E+02 -0.58967873547E+02  0.38187604862E+02  0.86967805940E+02  0.00000000000E+00 0.  1.
<mgrwt>
<rscale>  0 0.13808357E+04</rscale>
<asrwt>0</asrwt>
<pdfrwt beam="1">  1        2 0.15249451E+00 0.13808357E+04</pdfrwt>
<pdfrwt beam="2">  1       -1 0.73984896E-01 0.13808357E+04</pdfrwt>
<totfact> 0.52213227E+01</totfact>
</mgrwt>
</event>
<event>
12    7  0.1546317E-007  0.2119285E+04  0.7818608E-02  0.8552795E-01
         -1   -1    0    0    0  501 -0.00000000000E+00  0.00000000000E+00  0.33758655513E+03  0.33758655513E+03  0.00000000000E+00 0.  1.
          2   -1    0    0  501    0  0.00000000000E+00 -0.00000000000E+00 -0.33260875904E+04  0.33260875904E+04  0.00000000000E+00 0. -1.
         24    2    1    2    0    0  0.44132758034E+03  0.51566413083E+02 -0.25042507317E+04  0.25446301980E+04  0.80262003446E+02 0.  0.
        254    2    1    2    0    0 -0.44132758034E+03 -0.51566413083E+02 -0.48425030355E+03  0.11190439475E+04  0.90572174086E+03 0.  0.
         23    2    4    4    0    0  0.16925527259E+03  0.25189758243E+03 -0.10593463662E+03  0.33395463083E+03  0.90574879983E+02 0.  0.
         23    2    4    4    0    0 -0.61058285292E+03 -0.30346399552E+03 -0.37831566693E+03  0.78508931669E+03  0.91327293162E+02 0.  0.
          4    1    3    3  502    0  0.41605827459E+03  0.59552066880E+02 -0.22429807831E+04  0.22820196602E+04  0.00000000000E+00 0. -1.
         -3    1    3    3    0  502  0.25269305747E+02 -0.79856537969E+01 -0.26126994861E+03  0.26261053773E+03  0.00000000000E+00 0.  1.
         13    1    5    5    0    0  0.57224748563E+02  0.14446559371E+03 -0.85618024785E+02  0.17741314997E+03  0.00000000000E+00 0.  1.
        -13    1    5    5    0    0  0.11203052402E+03  0.10743198873E+03 -0.20316611835E+02  0.15654148086E+03  0.00000000000E+00 0. -1.
          3    1    6    6  503    0 -0.50349483174E+02 -0.28414320157E+02 -0.64179126973E+02  0.86379421073E+02  0.00000000000E+00 0. -1.
         -3    1    6    6    0  503 -0.56023336975E+03 -0.27504967536E+03 -0.31413653995E+03  0.69870989562E+03  0.00000000000E+00 0.  1.
<mgrwt>
<rscale>  0 0.21192852E+04</rscale>
<asrwt>0</asrwt>
<pdfrwt beam="1">  1        2 0.51170577E+00 0.21192852E+04</pdfrwt>
<pdfrwt beam="2">  1       -1 0.51936395E-01 0.21192852E+04</pdfrwt>
<totfact> 0.41949658E+00</totfact>
</mgrwt>
</event>
<event>
12    7  0.1546317E-007  0.2009170E+04  0.7818608E-02  0.8602345E-01
         -1   -1    0    0    0  501 -0.00000000000E+00  0.00000000000E+00  0.58853460314E+03  0.58853460314E+03  0.00000000000E+00 0.  1.
          2   -1    0    0  501    0  0.00000000000E+00 -0.00000000000E+00 -0.17147518020E+04  0.17147518020E+04  0.00000000000E+00 0. -1.
         24    2    1    2    0    0  0.42233802711E+03 -0.16928478918E+03 -0.12118380065E+04  0.12967204431E+04  0.76849232123E+02 0.  0.
        254    2    1    2    0    0 -0.42233802711E+03  0.16928478918E+03  0.85620807650E+02  0.10065659621E+04  0.89376583303E+03 0.  0.
         23    2    4    4    0    0 -0.50395869766E+03 -0.11266361710E+03 -0.22444327209E+03  0.57000536601E+03  0.88678494170E+02 0.  0.
         23    2    4    4    0    0  0.81620670552E+02  0.28194840627E+03  0.31006407974E+03  0.43656059606E+03  0.91041654326E+02 0.  0.
          2    1    3    3  502    0  0.36668341529E+03 -0.17010177744E+03 -0.10970511537E+04  0.11691503648E+04  0.00000000000E+00 0. -1.
         -1    1    3    3    0  502  0.55654611821E+02  0.81698826218E+00 -0.11478685281E+03  0.12757007825E+03  0.00000000000E+00 0.  1.
         13    1    5    5    0    0 -0.60556362028E+02  0.12258615736E+02 -0.13020755196E+02  0.63141798420E+02  0.00000000000E+00 0. -1.
        -13    1    5    5    0    0 -0.44340233563E+03 -0.12492223283E+03 -0.21142251689E+03  0.50686356759E+03  0.00000000000E+00 0.  1.
          3    1    6    6  503    0  0.54274331098E+01  0.17974975481E+03  0.17948928230E+03  0.25407840098E+03  0.00000000000E+00 0. -1.
         -3    1    6    6    0  503  0.76193237442E+02  0.10219865146E+03  0.13057479744E+03  0.18248219507E+03  0.00000000000E+00 0.  1.
<mgrwt>
<rscale>  0 0.20091698E+04</rscale>
<asrwt>0</asrwt>
<pdfrwt beam="1">  1        2 0.26380796E+00 0.20091698E+04</pdfrwt>
<pdfrwt beam="2">  1       -1 0.90543787E-01 0.20091698E+04</pdfrwt>
<totfact> 0.12127708E+01</totfact>
</mgrwt>
</event>
<event>
12    7  0.1546317E-007  0.1563652E+04  0.7818608E-02  0.8843194E-01
         -1   -1    0    0    0  501 -0.00000000000E+00  0.00000000000E+00  0.45208813013E+03  0.45208813013E+03  0.00000000000E+00 0.  1.
          2   -1    0    0  501    0  0.00000000000E+00 -0.00000000000E+00 -0.13520641226E+04  0.13520641226E+04  0.00000000000E+00 0. -1.
         24    2    1    2    0    0 -0.17469173772E+02 -0.27965899112E+03 -0.80794797248E+03  0.85884266987E+03  0.79476298441E+02 0.  0.
        254    2    1    2    0    0  0.17469173772E+02  0.27965899112E+03 -0.92028019999E+02  0.94530958286E+03  0.89812400460E+03 0.  0.
         23    2    4    4    0    0 -0.39341493139E+03 -0.49010386154E+02 -0.44327744875E+02  0.40911577108E+03  0.90738299456E+02 0.  0.
         23    2    4    4    0    0  0.41088410516E+03  0.32866937727E+03 -0.47700275124E+02  0.53619381178E+03  0.91537861666E+02 0.  0.
          2    1    3    3  502    0 -0.31789389757E+02 -0.27394392599E+03 -0.76882063599E+03  0.81678700419E+03  0.00000000000E+00 0. -1.
         -1    1    3    3    0  502  0.14320215985E+02 -0.57150651263E+01 -0.39127336493E+02  0.42055665686E+02  0.00000000000E+00 0.  1.
         13    1    5    5    0    0 -0.20991522238E+03 -0.63109310842E+02 -0.50627647523E+02  0.22496742963E+03  0.00000000000E+00 0.  1.
        -13    1    5    5    0    0 -0.18349970901E+03  0.14098924687E+02  0.62999026481E+01  0.18414834144E+03  0.00000000000E+00 0. -1.
          1    1    6    6  503    0  0.16273462935E+03  0.18862902791E+03 -0.21115263829E+02  0.25001864756E+03  0.00000000000E+00 0. -1.
         -1    1    6    6    0  503  0.24814947581E+03  0.14004034936E+03 -0.26585011296E+02  0.28617516422E+03  0.00000000000E+00 0.  1.
<mgrwt>
<rscale>  0 0.15636523E+04</rscale>
<asrwt>0</asrwt>
<pdfrwt beam="1">  1        2 0.20800986E+00 0.15636523E+04</pdfrwt>
<pdfrwt beam="2">  1       -1 0.69552020E-01 0.15636523E+04</pdfrwt>
<totfact> 0.35333681E+01</totfact>
</mgrwt>
</event>
<event>
12    7  0.1546317E-007  0.2120379E+04  0.7818608E-02  0.8552319E-01
         -1   -1    0    0    0  501 -0.00000000000E+00  0.00000000000E+00  0.52528221646E+03  0.52528221646E+03  0.00000000000E+00 0.  1.
          2   -1    0    0  501    0  0.00000000000E+00 -0.00000000000E+00 -0.21398047565E+04  0.21398047565E+04  0.00000000000E+00 0. -1.
         24    2    1    2    0    0 -0.10235806376E+03  0.30077171706E+03 -0.16729450562E+04  0.17047449837E+04  0.80433197307E+02 0.  0.
        254    2    1    2    0    0  0.10235806376E+03 -0.30077171706E+03  0.58422516188E+02  0.96034198927E+03  0.90437975816E+03 0.  0.
         23    2    4    4    0    0  0.11812457755E+03 -0.47026219805E+03 -0.28219942519E+03  0.56842924254E+03  0.91516869788E+02 0.  0.
         23    2    4    4    0    0 -0.15766513793E+02  0.16949048099E+03  0.34062194138E+03  0.39191274674E+03  0.92718326157E+02 0.  0.
          2    1    3    3  502    0 -0.10957589972E+03  0.21450593393E+03 -0.12618565561E+04  0.12846406664E+04  0.00000000000E+00 0. -1.
         -1    1    3    3    0  502  0.72178359640E+01  0.86265783132E+02 -0.41108850008E+03  0.42010431728E+03  0.00000000000E+00 0.  1.
         13    1    5    5    0    0 -0.19154895392E+01  0.20098422104E+01  0.27776356661E+01  0.39273178862E+01  0.00000000000E+00 0.  1.
        -13    1    5    5    0    0  0.12004006709E+03 -0.47227204026E+03 -0.28497706086E+03  0.56450192465E+03  0.00000000000E+00 0. -1.
          3    1    6    6  503    0 -0.47594701349E+02  0.13795543960E+03  0.28750682813E+03  0.32242384393E+03  0.00000000000E+00 0. -1.
         -3    1    6    6    0  503  0.31828187557E+02  0.31535041388E+02  0.53115113248E+02  0.69488902811E+02  0.00000000000E+00 0.  1.
<mgrwt>
<rscale>  0 0.21203786E+04</rscale>
<asrwt>0</asrwt>
<pdfrwt beam="1">  1        2 0.32920073E+00 0.21203786E+04</pdfrwt>
<pdfrwt beam="2">  1       -1 0.80812648E-01 0.21203786E+04</pdfrwt>
<totfact> 0.89231474E+00</totfact>
</mgrwt>
</event>
<event>
12    7  0.1546317E-007  0.1320053E+04  0.7818608E-02  0.9013812E-01
         -1   -1    0    0    0  501 -0.00000000000E+00  0.00000000000E+00  0.31073348236E+03  0.31073348236E+03  0.00000000000E+00 0.  1.
          2   -1    0    0  501    0  0.00000000000E+00 -0.00000000000E+00 -0.14019573449E+04  0.14019573449E+04  0.00000000000E+00 0. -1.
         24    2    1    2    0    0  0.34267507888E+03 -0.54104579157E+02 -0.31976116894E+03  0.47845098690E+03  0.79464624440E+02 0.  0.
        254    2    1    2    0    0 -0.34267507888E+03  0.54104579157E+02 -0.77146269361E+03  0.12342398404E+04  0.89879907697E+03 0.  0.
         23    2    4    4    0    0 -0.17846296074E+03  0.44097993667E+03 -0.21244318387E+03  0.52898673127E+03  0.91556117167E+02 0.  0.
         23    2    4    4    0    0 -0.16421211814E+03 -0.38687535751E+03 -0.55901950974E+03  0.70525310910E+03  0.90779808481E+02 0.  0.
          4    1    3    3  502    0  0.34255879255E+03 -0.44692515736E+02 -0.30441513160E+03  0.46044817261E+03  0.00000000000E+00 0. -1.
         -3    1    3    3    0  502  0.11628633082E+00 -0.94120634209E+01 -0.15346037347E+02  0.18002814297E+02  0.00000000000E+00 0.  1.
         13    1    5    5    0    0  0.81539008831E+01  0.14236475319E+02 -0.17744005961E+02  0.24166362504E+02  0.00000000000E+00 0. -1.
        -13    1    5    5    0    0 -0.18661686162E+03  0.42674346135E+03 -0.19469917790E+03  0.50482036877E+03  0.00000000000E+00 0.  1.
          3    1    6    6  503    0 -0.45707475528E+02 -0.11730728774E+03 -0.10417099544E+03  0.16340676047E+03  0.00000000000E+00 0. -1.
         -3    1    6    6    0  503 -0.11850464261E+03 -0.26956806978E+03 -0.45484851431E+03  0.54184634863E+03  0.00000000000E+00 0.  1.
<mgrwt>
<rscale>  0 0.13200532E+04</rscale>
<asrwt>0</asrwt>
<pdfrwt beam="1">  1        2 0.21568574E+00 0.13200532E+04</pdfrwt>
<pdfrwt beam="2">  1       -1 0.47805152E-01 0.13200532E+04</pdfrwt>
<totfact> 0.70357785E+01</totfact>
</mgrwt>
</event>
<event>
12    7  0.1546317E-007  0.1886667E+04  0.7818608E-02  0.8661522E-01
          2   -1    0    0  501    0  0.00000000000E+00  0.00000000000E+00  0.51674389031E+03  0.51674389031E+03  0.00000000000E+00 0. -1.
         -1   -1    0    0    0  501 -0.00000000000E+00 -0.00000000000E+00 -0.17220870936E+04  0.17220870936E+04  0.00000000000E+00 0.  1.
         24    2    1    2    0    0  0.20435976601E+03 -0.18705301484E+03 -0.12549953446E+04  0.12875213041E+04  0.77110628341E+02 0.  0.
        254    2    1    2    0    0 -0.20435976601E+03  0.18705301484E+03  0.49652141394E+02  0.95130967981E+03  0.90872054419E+03 0.  0.
         23    2    4    4    0    0 -0.45999580497E+03  0.31941850292E+03 -0.15432108971E+03  0.58788285803E+03  0.90371098447E+02 0.  0.
         23    2    4    4    0    0  0.25563603896E+03 -0.13236548808E+03  0.20397323110E+03  0.36342682178E+03  0.87198445728E+02 0.  0.
          2    1    3    3  502    0  0.62116436579E+02 -0.24041742971E+02 -0.40411487568E+03  0.40956719820E+03  0.00000000000E+00 0. -1.
         -1    1    3    3    0  502  0.14224332943E+03 -0.16301127187E+03 -0.85088046896E+03  0.87795410585E+03  0.00000000000E+00 0.  1.
         13    1    5    5    0    0 -0.17420200983E+03  0.14572401203E+03 -0.10357194307E+03  0.24961765823E+03  0.00000000000E+00 0.  1.
        -13    1    5    5    0    0 -0.28579379514E+03  0.17369449089E+03 -0.50749146638E+02  0.33826519979E+03  0.00000000000E+00 0. -1.
          4    1    6    6  503    0  0.20528662778E+03 -0.99912940105E+02  0.11361626124E+03  0.25501735228E+03  0.00000000000E+00 0. -1.
         -4    1    6    6    0  503  0.50349411181E+02 -0.32452547978E+02  0.90356969860E+02  0.10840946951E+03  0.00000000000E+00 0.  1.
<mgrwt>
<rscale>  0 0.18866669E+04</rscale>
<asrwt>0</asrwt>
<pdfrwt beam="1">  1        2 0.79499060E-01 0.18866669E+04</pdfrwt>
<pdfrwt beam="2">  1       -1 0.26493648E+00 0.18866669E+04</pdfrwt>
<totfact> 0.35382635E+00</totfact>
</mgrwt>
</event>
<event>
12    7  0.1546317E-007  0.2317380E+04  0.7818608E-02  0.8471100E-01
          2   -1    0    0  501    0  0.00000000000E+00  0.00000000000E+00  0.14359921285E+04  0.14359921285E+04  0.00000000000E+00 0. -1.
         -1   -1    0    0    0  501 -0.00000000000E+00 -0.00000000000E+00 -0.93493689340E+03  0.93493689340E+03  0.00000000000E+00 0.  1.
         24    2    1    2    0    0  0.70259918654E+03 -0.67157598091E+03  0.13395348147E+03  0.98425939274E+03  0.78505426093E+02 0.  0.
        254    2    1    2    0    0 -0.70259918654E+03  0.67157598091E+03  0.36710175368E+03  0.13866696292E+04  0.91838393276E+03 0.  0.
         23    2    4    4    0    0 -0.18467063362E+03 -0.18730306036E+03  0.24612063976E+03  0.37180039310E+03  0.92056958746E+02 0.  0.
         23    2    4    4    0    0 -0.51792855292E+03  0.85887904127E+03  0.12098111392E+03  0.10148692361E+04  0.96953303181E+02 0.  0.
          2    1    3    3  502    0  0.13130105947E+03 -0.13561385913E+03  0.56782269751E+02  0.19711751105E+03  0.00000000000E+00 0. -1.
         -3    1    3    3    0  502  0.57129812708E+03 -0.53596212179E+03  0.77171211718E+02  0.78714188169E+03  0.00000000000E+00 0.  1.
         13    1    5    5    0    0 -0.13151267172E+03 -0.12894696538E+03  0.22364719288E+03  0.28972567989E+03  0.00000000000E+00 0. -1.
        -13    1    5    5    0    0 -0.53157961903E+02 -0.58356094977E+02  0.22473446881E+02  0.82074713215E+02  0.00000000000E+00 0.  1.
          1    1    6    6  503    0 -0.29564527391E+03  0.57407785434E+03  0.94650460136E+02  0.65263329706E+03  0.00000000000E+00 0. -1.
         -1    1    6    6    0  503 -0.22228327901E+03  0.28480118693E+03  0.26330653784E+02  0.36223593904E+03  0.00000000000E+00 0.  1.
<mgrwt>
<rscale>  0 0.23173796E+04</rscale>
<asrwt>0</asrwt>
<pdfrwt beam="1">  1        2 0.22092187E+00 0.23173796E+04</pdfrwt>
<pdfrwt beam="2">  1       -1 0.14383644E+00 0.23173796E+04</pdfrwt>
<totfact> 0.55568240E+00</totfact>
</mgrwt>
</event>
<event>
12    7  0.1546317E-007  0.1046469E+04  0.7818608E-02  0.9258997E-01
          2   -1    0    0  501    0  0.00000000000E+00  0.00000000000E+00  0.58332766509E+03  0.58332766509E+03  0.00000000000E+00 0. -1.
         -1   -1    0    0    0  501 -0.00000000000E+00 -0.00000000000E+00 -0.46933204340E+03  0.46933204340E+03  0.00000000000E+00 0.  1.
         24    2    1    2    0    0  0.10528969532E+03  0.13850331435E+02  0.26419740047E+02  0.13835069689E+03  0.84647274290E+02 0.  0.
        254    2    1    2    0    0 -0.10528969532E+03 -0.13850331435E+02  0.87575881643E+02  0.91430901160E+03  0.90388809153E+03 0.  0.
         23    2    4    4    0    0 -0.14040520275E+03  0.41897007962E+03  0.12957812225E+03  0.46932575947E+03  0.90700772651E+02 0.  0.
         23    2    4    4    0    0  0.35115507422E+02 -0.43282041105E+03 -0.42002240603E+02  0.44498325213E+03  0.87631611726E+02 0.  0.
          2    1    3    3  502    0  0.71073692731E+02  0.57243704812E+01  0.57358485727E+02  0.91510841438E+02  0.00000000000E+00 0. -1.
         -1    1    3    3    0  502  0.34216002593E+02  0.81259609534E+01 -0.30938745680E+02  0.46839855456E+02  0.00000000000E+00 0.  1.
         13    1    5    5    0    0 -0.41714483507E+02  0.25995149809E+03  0.63277610895E+02  0.27077469515E+03  0.00000000000E+00 0.  1.
        -13    1    5    5    0    0 -0.98690719239E+02  0.15901858153E+03  0.66300511351E+02  0.19855106432E+03  0.00000000000E+00 0. -1.
          1    1    6    6  503    0  0.94954162488E+00 -0.38026237180E+03 -0.38288938162E+02  0.38218636268E+03  0.00000000000E+00 0. -1.
         -1    1    6    6    0  503  0.34165965797E+02 -0.52558039257E+02 -0.37133024412E+01  0.62796889448E+02  0.00000000000E+00 0.  1.
<mgrwt>
<rscale>  0 0.10464690E+04</rscale>
<asrwt>0</asrwt>
<pdfrwt beam="1">  1        2 0.89742717E-01 0.10464690E+04</pdfrwt>
<pdfrwt beam="2">  1       -1 0.72204930E-01 0.10464690E+04</pdfrwt>
<totfact> 0.11307709E+02</totfact>
</mgrwt>
</event>
<event>
12    7  0.1546317E-007  0.2046526E+04  0.7818608E-02  0.8585172E-01
          2   -1    0    0  501    0  0.00000000000E+00  0.00000000000E+00  0.14802344197E+04  0.14802344197E+04  0.00000000000E+00 0. -1.
         -1   -1    0    0    0  501 -0.00000000000E+00 -0.00000000000E+00 -0.70736597386E+03  0.70736597386E+03  0.00000000000E+00 0.  1.
         24    2    1    2    0    0  0.39116766237E+03  0.66596931100E+03  0.21792225975E+01  0.77712350412E+03  0.85958875978E+02 0.  0.
        254    2    1    2    0    0 -0.39116766237E+03 -0.66596931100E+03  0.77068922328E+03  0.14104768895E+04  0.89384333841E+03 0.  0.
         23    2    4    4    0    0 -0.56923827100E+03 -0.75687265328E+03  0.69283397519E+03  0.11768931618E+04  0.90389018269E+02 0.  0.
         23    2    4    4    0    0  0.17807060862E+03  0.90903342281E+02  0.77855248094E+02  0.23358372771E+03  0.92343699839E+02 0.  0.
          4    1    3    3  502    0  0.22118783138E+03  0.35482112397E+03  0.42572430794E+02  0.42027907232E+03  0.00000000000E+00 0. -1.
         -3    1    3    3    0  502  0.16997983099E+03  0.31114818703E+03 -0.40393208197E+02  0.35684443180E+03  0.00000000000E+00 0.  1.
         13    1    5    5    0    0 -0.39053568281E+03 -0.47809374362E+03  0.49395733908E+03  0.79062355143E+03  0.00000000000E+00 0. -1.
        -13    1    5    5    0    0 -0.17870258818E+03 -0.27877890966E+03  0.19887663610E+03  0.38626961035E+03  0.00000000000E+00 0.  1.
          4    1    6    6  503    0  0.15901558881E+03  0.10844137530E+03  0.78024881438E+02  0.20768575177E+03  0.00000000000E+00 0. -1.
         -4    1    6    6    0  503  0.19055019812E+02 -0.17538033023E+02 -0.16963334394E+00  0.25897975941E+02  0.00000000000E+00 0.  1.
<mgrwt>
<rscale>  0 0.20465263E+04</rscale>
<asrwt>0</asrwt>
<pdfrwt beam="1">  1        2 0.22772837E+00 0.20465263E+04</pdfrwt>
<pdfrwt beam="2">  1       -1 0.10882553E+00 0.20465263E+04</pdfrwt>
<totfact> 0.10752681E+01</totfact>
</mgrwt>
</event>
<event>
12    7  0.1546317E-007  0.2777117E+04  0.7818608E-02  0.8310408E-01
         -1   -1    0    0    0  501 -0.00000000000E+00  0.00000000000E+00  0.98377425258E+03  0.98377425258E+03  0.00000000000E+00 0.  1.
          2   -1    0    0  501    0  0.00000000000E+00 -0.00000000000E+00 -0.19598956139E+04  0.19598956139E+04  0.00000000000E+00 0. -1.
         24    2    1    2    0    0  0.25364361951E+03  0.10815572852E+04  0.15018918122E+03  0.11238334597E+04  0.79646770484E+02 0.  0.
        254    2    1    2    0    0 -0.25364361951E+03 -0.10815572852E+04 -0.11263105425E+04  0.18198364068E+04  0.89951534868E+03 0.  0.
         23    2    4    4    0    0  0.13032266351E+03 -0.50086553442E+03 -0.96548557582E+03  0.10993936167E+04  0.93024981368E+02 0.  0.
         23    2    4    4    0    0 -0.38396628302E+03 -0.58069175077E+03 -0.16082496673E+03  0.72044279012E+03  0.92412812977E+02 0.  0.
          4    1    3    3  502    0  0.69698598523E+02  0.20293305958E+03  0.52210808929E+02  0.22082954937E+03  0.00000000000E+00 0. -1.
         -3    1    3    3    0  502  0.18394502099E+03  0.87862422561E+03  0.97978372287E+02  0.90300391029E+03  0.00000000000E+00 0.  1.
         13    1    5    5    0    0  0.21770226204E+02 -0.21545350956E+03 -0.33572552991E+03  0.39950693230E+03  0.00000000000E+00 0. -1.
        -13    1    5    5    0    0  0.10855243731E+03 -0.28541202486E+03 -0.62976004591E+03  0.69988668441E+03  0.00000000000E+00 0.  1.
          2    1    6    6  503    0 -0.35375121583E+03 -0.51316548665E+03 -0.11611694754E+03  0.63400464107E+03  0.00000000000E+00 0. -1.
         -2    1    6    6    0  503 -0.30215067188E+02 -0.67526264121E+02 -0.44708019192E+02  0.86438149051E+02  0.00000000000E+00 0.  1.
<mgrwt>
<rscale>  0 0.27771171E+04</rscale>
<asrwt>0</asrwt>
<pdfrwt beam="1">  1        2 0.30152240E+00 0.27771171E+04</pdfrwt>
<pdfrwt beam="2">  1       -1 0.15134989E+00 0.27771171E+04</pdfrwt>
<totfact> 0.23756732E+00</totfact>
</mgrwt>
</event>
<event>
12    7  0.1546317E-007  0.2419334E+04  0.7818608E-02  0.8432300E-01
          2   -1    0    0  501    0  0.00000000000E+00  0.00000000000E+00  0.45243856876E+04  0.45243856876E+04  0.00000000000E+00 0. -1.
         -1   -1    0    0    0  501 -0.00000000000E+00 -0.00000000000E+00 -0.32342389998E+03  0.32342389998E+03  0.00000000000E+00 0.  1.
         24    2    1    2    0    0 -0.28751554549E+03 -0.91591177478E+03  0.26277341878E+04  0.27988059888E+04  0.82270487208E+02 0.  0.
        254    2    1    2    0    0  0.28751554549E+03  0.91591177478E+03  0.15732275998E+04  0.20490035988E+04  0.89543905375E+03 0.  0.
         23    2    4    4    0    0 -0.28705715025E+03  0.19579618545E+03  0.63859740876E+03  0.73332539169E+03  0.96028776256E+02 0.  0.
         23    2    4    4    0    0  0.57457269573E+03  0.72011558933E+03  0.93463019106E+03  0.13156782071E+04  0.93676603051E+02 0.  0.
          4    1    3    3  502    0 -0.17630928861E+02 -0.32213799999E+02  0.14888396391E+03  0.15334605724E+03  0.00000000000E+00 0. -1.
         -3    1    3    3    0  502 -0.26988461663E+03 -0.88369797478E+03  0.24788502239E+04  0.26454599315E+04  0.00000000000E+00 0.  1.
         13    1    5    5    0    0 -0.27293679197E+03  0.19263409132E+03  0.54965073087E+03  0.64320938387E+03  0.00000000000E+00 0. -1.
        -13    1    5    5    0    0 -0.14120358277E+02  0.31620941334E+01  0.88946677895E+02  0.90116007822E+02  0.00000000000E+00 0.  1.
          3    1    6    6  503    0  0.56292340023E+03  0.67330543868E+03  0.89086768806E+03  0.12505471626E+04  0.00000000000E+00 0. -1.
         -3    1    6    6    0  503  0.11649295506E+02  0.46810150653E+02  0.43762503006E+02  0.65131044512E+02  0.00000000000E+00 0.  1.
<mgrwt>
<rscale>  0 0.24193342E+04</rscale>
<asrwt>0</asrwt>
<pdfrwt beam="1">  1        2 0.69605929E+00 0.24193342E+04</pdfrwt>
<pdfrwt beam="2">  1       -1 0.49757526E-01 0.24193342E+04</pdfrwt>
<totfact> 0.48545984E-01</totfact>
</mgrwt>
</event>
<event>
12    7  0.1546317E-007  0.1929470E+04  0.7818608E-02  0.8640325E-01
          2   -1    0    0  501    0  0.00000000000E+00  0.00000000000E+00  0.78577886291E+03  0.78577886291E+03  0.00000000000E+00 0. -1.
         -1   -1    0    0    0  501 -0.00000000000E+00 -0.00000000000E+00 -0.11844474818E+04  0.11844474818E+04  0.00000000000E+00 0.  1.
         24    2    1    2    0    0  0.16764977302E+03  0.69397184698E+03  0.87638046312E+02  0.72379063197E+03  0.80554832120E+02 0.  0.
        254    2    1    2    0    0 -0.16764977302E+03 -0.69397184698E+03 -0.48630666518E+03  0.12464357127E+04  0.89855686662E+03 0.  0.
         23    2    4    4    0    0 -0.34875652396E+03 -0.67154796806E+03 -0.49384830293E+02  0.76436971476E+03  0.95991733890E+02 0.  0.
         23    2    4    4    0    0  0.18110675094E+03 -0.22423878924E+02 -0.43692183489E+03  0.48206599796E+03  0.90467955667E+02 0.  0.
          2    1    3    3  502    0  0.24145375399E+02  0.10113877382E+03 -0.15651521483E+02  0.10515236967E+03  0.00000000000E+00 0. -1.
         -1    1    3    3    0  502  0.14350439762E+03  0.59283307316E+03  0.10328956779E+03  0.61863826231E+03  0.00000000000E+00 0.  1.
         13    1    5    5    0    0 -0.24496878273E+03 -0.38348441881E+03 -0.53253811610E+02  0.45815496553E+03  0.00000000000E+00 0. -1.
        -13    1    5    5    0    0 -0.10378774122E+03 -0.28806354924E+03  0.38689813173E+01  0.30621474923E+03  0.00000000000E+00 0.  1.
          2    1    6    6  503    0  0.14225714205E+03 -0.50346587417E+02 -0.28082402349E+03  0.31880088691E+03  0.00000000000E+00 0. -1.
         -2    1    6    6    0  503  0.38849608895E+02  0.27922708493E+02 -0.15609781140E+03  0.16326511105E+03  0.00000000000E+00 0.  1.
<mgrwt>
<rscale>  0 0.19294702E+04</rscale>
<asrwt>0</asrwt>
<pdfrwt beam="1">  1        2 0.12088906E+00 0.19294702E+04</pdfrwt>
<pdfrwt beam="2">  1       -1 0.18222269E+00 0.19294702E+04</pdfrwt>
<totfact> 0.75467427E+00</totfact>
</mgrwt>
</event>
<event>
12    7  0.1546317E-007  0.2547848E+04  0.7818608E-02  0.8386135E-01
          2   -1    0    0  501    0  0.00000000000E+00  0.00000000000E+00  0.10681895571E+04  0.10681895571E+04  0.00000000000E+00 0. -1.
         -1   -1    0    0    0  501 -0.00000000000E+00 -0.00000000000E+00 -0.15192834919E+04  0.15192834919E+04  0.00000000000E+00 0.  1.
         24    2    1    2    0    0  0.42259279341E+03  0.16368008047E+03 -0.12263779608E+04  0.13099629178E+04  0.81388606773E+02 0.  0.
        254    2    1    2    0    0 -0.42259279341E+03 -0.16368008047E+03  0.77528402605E+03  0.12775101312E+04  0.90862036985E+03 0.  0.
         23    2    4    4    0    0 -0.62709926801E+03 -0.44248023089E+02  0.80145446578E+03  0.10225405327E+04  0.89713436710E+02 0.  0.
         23    2    4    4    0    0  0.20450647460E+03 -0.11943205739E+03 -0.26170439731E+02  0.25496959855E+03  0.90761719817E+02 0.  0.
          2    1    3    3  502    0  0.16622915674E+03  0.26694403473E+02 -0.50015436257E+03  0.52773014896E+03  0.00000000000E+00 0. -1.
         -1    1    3    3    0  502  0.25636363667E+03  0.13698567700E+03 -0.72622359826E+03  0.78223276879E+03  0.00000000000E+00 0.  1.
         13    1    5    5    0    0 -0.41567917049E+03 -0.96806323932E+00  0.57734117784E+03  0.71141615497E+03  0.00000000000E+00 0. -1.
        -13    1    5    5    0    0 -0.21142009752E+03 -0.43279959850E+02  0.22411328794E+03  0.31112437769E+03  0.00000000000E+00 0.  1.
          2    1    6    6  503    0  0.13366010266E+03 -0.89488968648E+02  0.24724820286E+02  0.16274094534E+03  0.00000000000E+00 0. -1.
         -2    1    6    6    0  503  0.70846371939E+02 -0.29943088738E+02 -0.50895260017E+02  0.92228653206E+02  0.00000000000E+00 0.  1.
<mgrwt>
<rscale>  0 0.25478483E+04</rscale>
<asrwt>0</asrwt>
<pdfrwt beam="1">  1        2 0.16433686E+00 0.25478483E+04</pdfrwt>
<pdfrwt beam="2">  1       -1 0.23373592E+00 0.25478483E+04</pdfrwt>
<totfact> 0.20586906E+00</totfact>
</mgrwt>
</event>
<event>
12    7  0.1546317E-007  0.2490484E+04  0.7818608E-02  0.8406383E-01
          2   -1    0    0  501    0  0.00000000000E+00  0.00000000000E+00  0.15983898360E+04  0.15983898360E+04  0.00000000000E+00 0. -1.
         -1   -1    0    0    0  501 -0.00000000000E+00 -0.00000000000E+00 -0.97011860662E+03  0.97011860662E+03  0.00000000000E+00 0.  1.
         24    2    1    2    0    0  0.67115663917E+03  0.22349034116E+03 -0.56791937859E+03  0.91075232069E+03  0.80859150175E+02 0.  0.
        254    2    1    2    0    0 -0.67115663917E+03 -0.22349034116E+03  0.11961906079E+04  0.16577561219E+04  0.90381647599E+03 0.  0.
         23    2    4    4    0    0  0.85614315395E+02 -0.33828093650E+03  0.51652809431E+03  0.63002928540E+03  0.91497678908E+02 0.  0.
         23    2    4    4    0    0 -0.75677095456E+03  0.11479059534E+03  0.67966251363E+03  0.10277268365E+04  0.91663294623E+02 0.  0.
          4    1    3    3  502    0  0.57326034044E+03  0.16530133978E+03 -0.45440810422E+03  0.74995911624E+03  0.00000000000E+00 0. -1.
         -3    1    3    3    0  502  0.97896298731E+02  0.58189001384E+02 -0.11351127437E+03  0.16079320445E+03  0.00000000000E+00 0.  1.
         13    1    5    5    0    0  0.10144325089E+03 -0.23120784645E+03  0.35825880663E+03  0.43828891606E+03  0.00000000000E+00 0. -1.
        -13    1    5    5    0    0 -0.15828935491E+02 -0.10707309005E+03  0.15826928768E+03  0.19174036934E+03  0.00000000000E+00 0.  1.
          4    1    6    6  503    0 -0.43856003470E+03  0.10677586693E+03  0.37000778983E+03  0.58364522985E+03  0.00000000000E+00 0.  1.
         -4    1    6    6    0  503 -0.31821091986E+03  0.80147284102E+01  0.30965472380E+03  0.44408160664E+03  0.00000000000E+00 0. -1.
<mgrwt>
<rscale>  0 0.24904841E+04</rscale>
<asrwt>0</asrwt>
<pdfrwt beam="1">  1        2 0.24590613E+00 0.24904841E+04</pdfrwt>
<pdfrwt beam="2">  1       -1 0.14924902E+00 0.24904841E+04</pdfrwt>
<totfact> 0.40172200E+00</totfact>
</mgrwt>
</event>
<event>
12    7  0.1842512E-007  0.2136656E+04  0.7818608E-02  0.8545266E-01
          2   -1    0    0  501    0  0.00000000000E+00  0.00000000000E+00  0.24824247685E+04  0.24824247685E+04  0.00000000000E+00 0. -1.
         -1   -1    0    0    0  501 -0.00000000000E+00 -0.00000000000E+00 -0.45976217415E+03  0.45976217415E+03  0.00000000000E+00 0.  1.
         24    2    1    2    0    0 -0.31017277204E+03  0.83430786479E+02 -0.29073157084E+03  0.44048272899E+03  0.79576024105E+02 0.  0.
        254    2    1    2    0    0  0.31017277204E+03 -0.83430786479E+02  0.23133941652E+04  0.25017042137E+04  0.89641707059E+03 0.  0.
         23    2    4    4    0    0  0.39583449029E+03 -0.38155173486E+03  0.96818564021E+03  0.11179948805E+04  0.10130374549E+03 0.  0.
         23    2    4    4    0    0 -0.85661718257E+02  0.29812094838E+03  0.13452085250E+04  0.13837093332E+04  0.94082480458E+02 0.  0.
          2    1    3    3  502    0 -0.48728896817E+02  0.45119757021E+01 -0.86806835450E+02  0.99650840391E+02  0.00000000000E+00 0. -1.
         -1    1    3    3    0  502 -0.26144387522E+03  0.78918810777E+02 -0.20392473539E+03  0.34083188860E+03  0.00000000000E+00 0.  1.
         13    1    5    5    0    0  0.18351084367E+03 -0.23730856956E+03  0.47014809961E+03  0.55770137395E+03  0.00000000000E+00 0. -1.
        -13    1    5    5    0    0  0.21232364662E+03 -0.14424316530E+03  0.49803754059E+03  0.56029350656E+03  0.00000000000E+00 0.  1.
          2    1    6    6  503    0 -0.36948752347E+02  0.28369313260E+02  0.13387861223E+03  0.14175158217E+03  0.00000000000E+00 0.  1.
         -2    1    6    6    0  503 -0.48712965910E+02  0.26975163512E+03  0.12113299128E+04  0.12419577510E+04  0.00000000000E+00 0. -1.
<mgrwt>
<rscale>  0 0.21366563E+04</rscale>
<asrwt>0</asrwt>
<pdfrwt beam="1">  1        2 0.38191150E+00 0.21366563E+04</pdfrwt>
<pdfrwt beam="2">  1       -1 0.70732643E-01 0.21366563E+04</pdfrwt>
<totfact> 0.75269830E+00</totfact>
</mgrwt>
</event>
<event>
12    7  0.1546317E-007  0.1767871E+04  0.7818608E-02  0.8723574E-01
         -3   -1    0    0    0  501 -0.00000000000E+00  0.00000000000E+00  0.12911521474E+04  0.12911521474E+04  0.00000000000E+00 0.  1.
          2   -1    0    0  501    0  0.00000000000E+00 -0.00000000000E+00 -0.60515112139E+03  0.60515112139E+03  0.00000000000E+00 0. -1.
         24    2    1    2    0    0  0.32814043193E+01  0.30543698449E+03  0.88796168871E+03  0.94257012459E+03  0.81608578316E+02 0.  0.
        254    2    1    2    0    0 -0.32814043193E+01 -0.30543698449E+03 -0.20196066272E+03  0.95373314416E+03  0.88063402266E+03 0.  0.
         23    2    4    4    0    0 -0.23804071444E+03 -0.49238066369E+03  0.42094676292E+02  0.55626242367E+03  0.92486877479E+02 0.  0.
         23    2    4    4    0    0  0.23475931012E+03  0.18694367919E+03 -0.24405533902E+03  0.39747072050E+03  0.91433540181E+02 0.  0.
          4    1    3    3  502    0 -0.19493653130E+00  0.10718837746E+03  0.20397668941E+03  0.23042542413E+03  0.00000000000E+00 0. -1.
         -3    1    3    3    0  502  0.34763408506E+01  0.19824860703E+03  0.68398499929E+03  0.71214470046E+03  0.00000000000E+00 0.  1.
         13    1    5    5    0    0 -0.86543062857E+02 -0.15985271563E+03  0.57124609021E+02  0.19054084439E+03  0.00000000000E+00 0. -1.
        -13    1    5    5    0    0 -0.15149765158E+03 -0.33252794805E+03 -0.15029932728E+02  0.36572157928E+03  0.00000000000E+00 0.  1.
          3    1    6    6  503    0  0.26733671794E+02  0.38693461041E+02 -0.83274851171E+02  0.95637722539E+02  0.00000000000E+00 0. -1.
         -3    1    6    6    0  503  0.20802563833E+03  0.14825021815E+03 -0.16078048784E+03  0.30183299796E+03  0.00000000000E+00 0.  1.
<mgrwt>
<rscale>  0 0.17678712E+04</rscale>
<asrwt>0</asrwt>
<pdfrwt beam="1">  1        2 0.93100173E-01 0.17678712E+04</pdfrwt>
<pdfrwt beam="2">  1       -3 0.19863879E+00 0.17678712E+04</pdfrwt>
<totfact> 0.43494513E+00</totfact>
</mgrwt>
</event>
<event>
12    7  0.1546317E-007  0.1729263E+04  0.7818608E-02  0.8744848E-01
          2   -1    0    0  501    0  0.00000000000E+00  0.00000000000E+00  0.15417954255E+04  0.15417954255E+04  0.00000000000E+00 0. -1.
         -1   -1    0    0    0  501 -0.00000000000E+00 -0.00000000000E+00 -0.48488143732E+03  0.48488143732E+03  0.00000000000E+00 0.  1.
         24    2    1    2    0    0  0.32562274372E+03  0.46146233269E+01 -0.24712416676E+03  0.41638117291E+03  0.79066183569E+02 0.  0.
        254    2    1    2    0    0 -0.32562274372E+03 -0.46146233269E+01  0.13040381550E+04  0.16102956899E+04  0.88684002698E+03 0.  0.
         23    2    4    4    0    0  0.20515894072E+03  0.22635354117E+03  0.25286904318E+03  0.40684673276E+03  0.90859201002E+02 0.  0.
         23    2    4    4    0    0 -0.53078168444E+03 -0.23096816450E+03  0.10511691118E+04  0.12034489572E+04  0.90870244813E+02 0.  0.
          4    1    3    3  502    0  0.68356778063E+02  0.33005816176E+02 -0.47884090820E+02  0.89749201457E+02  0.00000000000E+00 0. -1.
         -3    1    3    3    0  502  0.25726596566E+03 -0.28391192849E+02 -0.19924007594E+03  0.32663197146E+03  0.00000000000E+00 0.  1.
         13    1    5    5    0    0  0.18246752850E+03  0.14876984426E+03  0.20932848535E+03  0.31503218930E+03  0.00000000000E+00 0.  1.
        -13    1    5    5    0    0  0.22691412218E+02  0.77583696914E+02  0.43540557822E+02  0.91814543460E+02  0.00000000000E+00 0. -1.
          4    1    6    6  503    0 -0.25240623340E+03 -0.10563362041E+03  0.59036228873E+03  0.65068809761E+03  0.00000000000E+00 0. -1.
         -4    1    6    6    0  503 -0.27837545104E+03 -0.12533454409E+03  0.46080682305E+03  0.55276085955E+03  0.00000000000E+00 0.  1.
<mgrwt>
<rscale>  0 0.17292634E+04</rscale>
<asrwt>0</asrwt>
<pdfrwt beam="1">  1        2 0.23719929E+00 0.17292634E+04</pdfrwt>
<pdfrwt beam="2">  1       -1 0.74597145E-01 0.17292634E+04</pdfrwt>
<totfact> 0.23516255E+01</totfact>
</mgrwt>
</event>
<event>
12    7  0.1546317E-007  0.1362447E+04  0.7818608E-02  0.8981459E-01
         -1   -1    0    0    0  501 -0.00000000000E+00  0.00000000000E+00  0.38400642993E+03  0.38400642993E+03  0.00000000000E+00 0.  1.
          2   -1    0    0  501    0  0.00000000000E+00 -0.00000000000E+00 -0.12084832504E+04  0.12084832504E+04  0.00000000000E+00 0. -1.
         24    2    1    2    0    0  0.20755097650E+03 -0.18720946133E+03  0.64258698223E+02  0.29710842365E+03  0.77585081329E+02 0.  0.
        254    2    1    2    0    0 -0.20755097650E+03  0.18720946133E+03 -0.88873551869E+03  0.12953812567E+04  0.90002054851E+03 0.  0.
         23    2    4    4    0    0 -0.36688446974E+03  0.10604746017E+03 -0.99408028682E+03  0.10687426449E+04  0.90360093444E+02 0.  0.
         23    2    4    4    0    0  0.15933349324E+03  0.81162001165E+02  0.10534476813E+03  0.22663861177E+03  0.91066501353E+02 0.  0.
          4    1    3    3  502    0  0.89004976804E+02 -0.57193397474E+02 -0.97181281142E+01  0.10624223560E+03  0.00000000000E+00 0. -1.
         -3    1    3    3    0  502  0.11854599970E+03 -0.13001606386E+03  0.73976826337E+02  0.19086618805E+03  0.00000000000E+00 0.  1.
         13    1    5    5    0    0 -0.99199647902E+01 -0.28055416086E+01 -0.91118873820E+02  0.91700195918E+02  0.00000000000E+00 0. -1.
        -13    1    5    5    0    0 -0.35696450495E+03  0.10885300178E+03 -0.90296141300E+03  0.97704244901E+03  0.00000000000E+00 0.  1.
          2    1    6    6  503    0  0.16545722711E+03  0.58383446190E+02  0.10161900522E+03  0.20275882968E+03  0.00000000000E+00 0.  1.
         -2    1    6    6    0  503 -0.61237338668E+01  0.22778554975E+02  0.37257629141E+01  0.23879782087E+02  0.00000000000E+00 0. -1.
<mgrwt>
<rscale>  0 0.13624468E+04</rscale>
<asrwt>0</asrwt>
<pdfrwt beam="1">  1        2 0.18592050E+00 0.13624468E+04</pdfrwt>
<pdfrwt beam="2">  1       -1 0.59077912E-01 0.13624468E+04</pdfrwt>
<totfact> 0.60493671E+01</totfact>
</mgrwt>
</event>
<event>
12    7  0.1546317E-007  0.3181814E+04  0.7818608E-02  0.8193637E-01
          2   -1    0    0  501    0  0.00000000000E+00  0.00000000000E+00  0.19346928527E+04  0.19346928527E+04  0.00000000000E+00 0. -1.
         -1   -1    0    0    0  501 -0.00000000000E+00 -0.00000000000E+00 -0.13082102427E+04  0.13082102427E+04  0.00000000000E+00 0.  1.
         24    2    1    2    0    0 -0.25572440850E+03 -0.71807848851E+03  0.15615912551E+04  0.17396115416E+04  0.81543724076E+02 0.  0.
        254    2    1    2    0    0  0.25572440850E+03  0.71807848851E+03 -0.93510864506E+03  0.15032915537E+04  0.89689778053E+03 0.  0.
         23    2    4    4    0    0  0.42696391349E+03  0.54095745276E+02 -0.57300898852E+03  0.72255753506E+03  0.92333945377E+02 0.  0.
         23    2    4    4    0    0 -0.17123950499E+03  0.66398274323E+03 -0.36209965654E+03  0.78073401868E+03  0.90738058581E+02 0.  0.
          2    1    3    3  502    0 -0.18872932593E+03 -0.58246707335E+03  0.11863804842E+04  0.13350600373E+04  0.00000000000E+00 0. -1.
         -1    1    3    3    0  502 -0.66995082565E+02 -0.13561141516E+03  0.37521077092E+03  0.40455150429E+03  0.00000000000E+00 0.  1.
         13    1    5    5    0    0  0.34532731668E+03  0.31063920798E+02 -0.39643008676E+03  0.52666188063E+03  0.00000000000E+00 0.  1.
        -13    1    5    5    0    0  0.81636596805E+02  0.23031824477E+02 -0.17657890176E+03  0.19589565443E+03  0.00000000000E+00 0. -1.
          3    1    6    6  503    0 -0.43824744965E+02  0.24448456023E+03 -0.87135532785E+02  0.26322216764E+03  0.00000000000E+00 0. -1.
         -3    1    6    6    0  503 -0.12741476003E+03  0.41949818300E+03 -0.27496412376E+03  0.51751185104E+03  0.00000000000E+00 0.  1.
<mgrwt>
<rscale>  0 0.31818140E+04</rscale>
<asrwt>0</asrwt>
<pdfrwt beam="1">  1        2 0.29764505E+00 0.31818140E+04</pdfrwt>
<pdfrwt beam="2">  1       -1 0.20126311E+00 0.31818140E+04</pdfrwt>
<totfact> 0.10280309E+00</totfact>
</mgrwt>
</event>
<event>
12    7  0.1546317E-007  0.2134357E+04  0.7818608E-02  0.8546258E-01
          2   -1    0    0  501    0  0.00000000000E+00  0.00000000000E+00  0.23991582721E+04  0.23991582721E+04  0.00000000000E+00 0. -1.
         -1   -1    0    0    0  501 -0.00000000000E+00 -0.00000000000E+00 -0.47469577683E+03  0.47469577683E+03  0.00000000000E+00 0.  1.
         24    2    1    2    0    0  0.27702626063E+03 -0.80645855133E+03  0.53183935742E+03  0.10081568421E+04  0.80051059352E+02 0.  0.
        254    2    1    2    0    0 -0.27702626063E+03  0.80645855133E+03  0.13926231379E+04  0.18656972068E+04  0.90239011487E+03 0.  0.
         23    2    4    4    0    0 -0.30370031844E+03  0.85975423844E+03  0.14679083188E+04  0.17305010452E+04  0.92020655156E+02 0.  0.
         23    2    4    4    0    0  0.26674057813E+02 -0.53295687110E+02 -0.75285180947E+02  0.13519616167E+03  0.95174618651E+02 0.  0.
          2    1    3    3  502    0  0.27335763084E+03 -0.72450401991E+03  0.47713978145E+03  0.90955639751E+03  0.00000000000E+00 0. -1.
         -1    1    3    3    0  502  0.36686297876E+01 -0.81954531413E+02  0.54699575967E+02  0.98600444596E+02  0.00000000000E+00 0.  1.
         13    1    5    5    0    0 -0.17263766253E+03  0.49654472077E+03  0.93089126401E+03  0.10690738832E+04  0.00000000000E+00 0. -1.
        -13    1    5    5    0    0 -0.13106265591E+03  0.36320951767E+03  0.53701705481E+03  0.66142716202E+03  0.00000000000E+00 0.  1.
          1    1    6    6  503    0  0.39981677844E+02 -0.33953891529E+02 -0.92325944761E+02  0.10618606966E+03  0.00000000000E+00 0. -1.
         -1    1    6    6    0  503 -0.13307620032E+02 -0.19341795581E+02  0.17040763814E+02  0.29010092013E+02  0.00000000000E+00 0.  1.
<mgrwt>
<rscale>  0 0.21343573E+04</rscale>
<asrwt>0</asrwt>
<pdfrwt beam="1">  1        2 0.36910127E+00 0.21343573E+04</pdfrwt>
<pdfrwt beam="2">  1       -1 0.73030121E-01 0.21343573E+04</pdfrwt>
<totfact> 0.78682908E+00</totfact>
</mgrwt>
</event>
<event>
12    7  0.1546317E-007  0.2245253E+04  0.7818608E-02  0.8499825E-01
         -1   -1    0    0    0  501 -0.00000000000E+00  0.00000000000E+00  0.12068096970E+04  0.12068096970E+04  0.00000000000E+00 0.  1.
          2   -1    0    0  501    0  0.00000000000E+00 -0.00000000000E+00 -0.10443159486E+04  0.10443159486E+04  0.00000000000E+00 0. -1.
         24    2    1    2    0    0  0.41447750125E+03 -0.35192113274E+03  0.84064653564E+03  0.10043512060E+04  0.79966645541E+02 0.  0.
        254    2    1    2    0    0 -0.41447750125E+03  0.35192113274E+03 -0.67815278727E+03  0.12467744396E+04  0.89382057347E+03 0.  0.
         23    2    4    4    0    0 -0.59820665600E+03 -0.31674216158E+02 -0.46236547868E+03  0.76221941585E+03  0.91335331406E+02 0.  0.
         23    2    4    4    0    0  0.18372915475E+03  0.38359534890E+03 -0.21578730859E+03  0.48455502372E+03  0.85601486320E+02 0.  0.
          4    1    3    3  502    0  0.18510567525E+03 -0.12344648097E+03  0.28904465213E+03  0.36476013433E+03  0.00000000000E+00 0. -1.
         -3    1    3    3    0  502  0.22937182600E+03 -0.22847465177E+03  0.55160188351E+03  0.63959107167E+03  0.00000000000E+00 0.  1.
         13    1    5    5    0    0 -0.10565757591E+03 -0.97495648100E+01 -0.12912114442E+03  0.16712524435E+03  0.00000000000E+00 0. -1.
        -13    1    5    5    0    0 -0.49254908009E+03 -0.21924651348E+02 -0.33324433425E+03  0.59509417150E+03  0.00000000000E+00 0.  1.
          1    1    6    6  503    0 -0.37748788837E+01  0.28803973179E+02 -0.31876124379E+02  0.43127785555E+02  0.00000000000E+00 0. -1.
         -1    1    6    6    0  503  0.18750403364E+03  0.35479137572E+03 -0.18391118421E+03  0.44142723816E+03  0.00000000000E+00 0.  1.
<mgrwt>
<rscale>  0 0.22452533E+04</rscale>
<asrwt>0</asrwt>
<pdfrwt beam="1">  1        2 0.16066399E+00 0.22452533E+04</pdfrwt>
<pdfrwt beam="2">  1       -1 0.18566303E+00 0.22452533E+04</pdfrwt>
<totfact> 0.46471382E+00</totfact>
</mgrwt>
</event>
<event>
12    7  0.1546317E-007  0.1370873E+04  0.7818608E-02  0.8975176E-01
         -1   -1    0    0    0  501 -0.00000000000E+00  0.00000000000E+00  0.20174110882E+03  0.20174110882E+03  0.00000000000E+00 0.  1.
          2   -1    0    0  501    0  0.00000000000E+00 -0.00000000000E+00 -0.23288416550E+04  0.23288416550E+04  0.00000000000E+00 0. -1.
         24    2    1    2    0    0  0.10278868703E+03  0.35708308768E+03 -0.80497613918E+03  0.89028194822E+03  0.80879645070E+02 0.  0.
        254    2    1    2    0    0 -0.10278868703E+03 -0.35708308768E+03 -0.13221244070E+04  0.16403008156E+04  0.89693922446E+03 0.  0.
         23    2    4    4    0    0 -0.97533945645E+02 -0.63409566256E+03 -0.10867815457E+04  0.12653381634E+04  0.91631652491E+02 0.  0.
         23    2    4    4    0    0 -0.52547413813E+01  0.27701257488E+03 -0.23534286125E+03  0.37496265220E+03  0.91908374204E+02 0.  0.
          2    1    3    3  502    0  0.42136328199E+02  0.14295006313E+03 -0.41930868883E+03  0.44500558112E+03  0.00000000000E+00 0. -1.
         -1    1    3    3    0  502  0.60652358828E+02  0.21413302455E+03 -0.38566745035E+03  0.44527636710E+03  0.00000000000E+00 0.  1.
         13    1    5    5    0    0 -0.11236488316E+03 -0.52709410996E+03 -0.93162773059E+03  0.10762826284E+04  0.00000000000E+00 0. -1.
        -13    1    5    5    0    0  0.14830937519E+02 -0.10700155260E+03 -0.15515381515E+03  0.18905553502E+03  0.00000000000E+00 0.  1.
          1    1    6    6  503    0  0.26564445704E+02  0.24127269172E+03 -0.18258167241E+03  0.30373384508E+03  0.00000000000E+00 0. -1.
         -1    1    6    6    0  503 -0.31819187086E+02  0.35739883162E+02 -0.52761188845E+02  0.71228807119E+02  0.00000000000E+00 0.  1.
<mgrwt>
<rscale>  0 0.13708729E+04</rscale>
<asrwt>0</asrwt>
<pdfrwt beam="1">  1        2 0.35828333E+00 0.13708729E+04</pdfrwt>
<pdfrwt beam="2">  1       -1 0.31037094E-01 0.13708729E+04</pdfrwt>
<totfact> 0.46729043E+01</totfact>
</mgrwt>
</event>
<event>
12    7  0.1546317E-007  0.2320186E+04  0.7818608E-02  0.8470004E-01
          2   -1    0    0  501    0  0.00000000000E+00  0.00000000000E+00  0.30793667745E+04  0.30793667745E+04  0.00000000000E+00 0. -1.
         -1   -1    0    0    0  501 -0.00000000000E+00 -0.00000000000E+00 -0.43704288419E+03  0.43704288419E+03  0.00000000000E+00 0.  1.
         24    2    1    2    0    0  0.11101746100E+03 -0.95557057491E+03  0.81837220249E+03  0.12656319478E+04  0.81554675413E+02 0.  0.
        254    2    1    2    0    0 -0.11101746100E+03  0.95557057491E+03  0.18239516879E+04  0.22507777110E+04  0.90208677205E+03 0.  0.
         23    2    4    4    0    0 -0.24997881955E+03  0.10693394559E+04  0.16558497673E+04  0.19888387160E+04  0.87548295611E+02 0.  0.
         23    2    4    4    0    0  0.13896135855E+03 -0.11376888102E+03  0.16810192053E+03  0.26193899498E+03  0.90000910789E+02 0.  0.
          4    1    3    3  502    0 -0.72454861925E+01 -0.19369815013E+03  0.14656860595E+03  0.24300993125E+03  0.00000000000E+00 0. -1.
         -3    1    3    3    0  502  0.11826294719E+03 -0.76187242478E+03  0.67180359655E+03  0.10226220165E+04  0.00000000000E+00 0.  1.
         13    1    5    5    0    0 -0.67517619368E+02  0.30494359192E+03  0.40211555778E+03  0.50916219910E+03  0.00000000000E+00 0. -1.
        -13    1    5    5    0    0 -0.18246120018E+03  0.76439586401E+03  0.12537342095E+04  0.14796765169E+04  0.00000000000E+00 0.  1.
          1    1    6    6  503    0 -0.98869649940E+01 -0.25857983346E+02  0.18228793326E+02  0.33146286151E+02  0.00000000000E+00 0. -1.
         -1    1    6    6    0  503  0.14884832355E+03 -0.87910897677E+02  0.14987312721E+03  0.22879270883E+03  0.00000000000E+00 0.  1.
<mgrwt>
<rscale>  0 0.23201856E+04</rscale>
<asrwt>0</asrwt>
<pdfrwt beam="1">  1        2 0.47374872E+00 0.23201856E+04</pdfrwt>
<pdfrwt beam="2">  1       -1 0.67237369E-01 0.23201856E+04</pdfrwt>
<totfact> 0.35820126E+00</totfact>
</mgrwt>
</event>
<event>
12    7  0.1546317E-007  0.1511992E+04  0.7818608E-02  0.8876518E-01
          4   -1    0    0  501    0  0.00000000000E+00  0.00000000000E+00  0.41709950189E+03  0.41709950189E+03  0.00000000000E+00 0. -1.
         -3   -1    0    0    0  501 -0.00000000000E+00 -0.00000000000E+00 -0.13702476669E+04  0.13702476669E+04  0.00000000000E+00 0.  1.
         24    2    1    2    0    0  0.31302193209E+03 -0.70092230378E+01 -0.74271037921E+03  0.80987839368E+03  0.79072409788E+02 0.  0.
        254    2    1    2    0    0 -0.31302193209E+03  0.70092230378E+01 -0.21043778578E+03  0.97746877508E+03  0.90173681604E+03 0.  0.
         23    2    4    4    0    0 -0.34475233611E+03 -0.18917404979E+03  0.24495072168E+03  0.47229518418E+03  0.91765410610E+02 0.  0.
         23    2    4    4    0    0  0.31730404016E+02  0.19618327283E+03 -0.45538850746E+03  0.50517359090E+03  0.91252228148E+02 0.  0.
          4    1    3    3  502    0  0.13188045461E+03 -0.19314906558E+02 -0.22820538432E+03  0.26427867367E+03  0.00000000000E+00 0. -1.
         -3    1    3    3    0  502  0.18114147748E+03  0.12305683521E+02 -0.51450499489E+03  0.54559972001E+03  0.00000000000E+00 0.  1.
         13    1    5    5    0    0 -0.34675015940E+03 -0.18700654960E+03  0.22819102811E+03  0.45527823136E+03  0.00000000000E+00 0.  1.
        -13    1    5    5    0    0  0.19978232921E+01 -0.21675001909E+01  0.16759693566E+02  0.17016952824E+02  0.00000000000E+00 0. -1.
          2    1    6    6  503    0  0.10114875825E+02 -0.13118261766E+01 -0.78184096353E+02  0.78846588534E+02  0.00000000000E+00 0. -1.
         -2    1    6    6    0  503  0.21615528191E+02  0.19749509901E+03 -0.37720441111E+03  0.42632700237E+03  0.00000000000E+00 0.  1.
<mgrwt>
<rscale>  0 0.15119916E+04</rscale>
<asrwt>0</asrwt>
<pdfrwt beam="1">  1        4 0.64169153E-01 0.15119916E+04</pdfrwt>
<pdfrwt beam="2">  1       -3 0.21080734E+00 0.15119916E+04</pdfrwt>
<totfact> 0.62836333E-01</totfact>
</mgrwt>
</event>
<event>
12    7  0.1546317E-007  0.3086061E+04  0.7818608E-02  0.8219574E-01
          2   -1    0    0  501    0  0.00000000000E+00  0.00000000000E+00  0.21561280811E+04  0.21561280811E+04  0.00000000000E+00 0. -1.
         -1   -1    0    0    0  501 -0.00000000000E+00 -0.00000000000E+00 -0.11042681741E+04  0.11042681741E+04  0.00000000000E+00 0.  1.
         24    2    1    2    0    0  0.11125045107E+04 -0.61524722877E+03 -0.16390980608E+03  0.12842361628E+04  0.78744260048E+02 0.  0.
        254    2    1    2    0    0 -0.11125045107E+04  0.61524722877E+03  0.12157697130E+04  0.19761600925E+04  0.90050945421E+03 0.  0.
         23    2    4    4    0    0 -0.17086853954E+03 -0.17400377770E+03  0.23103767666E+02  0.26160407267E+03  0.91812495335E+02 0.  0.
         23    2    4    4    0    0 -0.94163597114E+03  0.78925100648E+03  0.11926659454E+04  0.17145560198E+04  0.87491910428E+02 0.  0.
          2    1    3    3  502    0  0.32109745713E+03 -0.18558617417E+03 -0.83341904397E+02  0.38012060987E+03  0.00000000000E+00 0. -1.
         -1    1    3    3    0  502  0.79140705354E+03 -0.42966105460E+03 -0.80567901681E+02  0.90411555291E+03  0.00000000000E+00 0.  1.
         13    1    5    5    0    0 -0.16491670552E+02 -0.75895402041E+02  0.72940509178E+01  0.78008271531E+02  0.00000000000E+00 0. -1.
        -13    1    5    5    0    0 -0.15437686898E+03 -0.98108375661E+02  0.15809716748E+02  0.18359580114E+03  0.00000000000E+00 0.  1.
          4    1    6    6  503    0 -0.35334756036E+03  0.24945303533E+03  0.44925385373E+03  0.62362676365E+03  0.00000000000E+00 0. -1.
         -4    1    6    6    0  503 -0.58828841078E+03  0.53979797115E+03  0.74341209165E+03  0.10909292561E+04  0.00000000000E+00 0.  1.
<mgrwt>
<rscale>  0 0.30860613E+04</rscale>
<asrwt>0</asrwt>
<pdfrwt beam="1">  1        2 0.33171201E+00 0.30860613E+04</pdfrwt>
<pdfrwt beam="2">  1       -1 0.16988741E+00 0.30860613E+04</pdfrwt>
<totfact> 0.13023374E+00</totfact>
</mgrwt>
</event>
<event>
12    7  0.1546317E-007  0.2710040E+04  0.7818608E-02  0.8331755E-01
         -1   -1    0    0    0  501 -0.00000000000E+00  0.00000000000E+00  0.11253144186E+04  0.11253144186E+04  0.00000000000E+00 0.  1.
          2   -1    0    0  501    0  0.00000000000E+00 -0.00000000000E+00 -0.16316141376E+04  0.16316141376E+04  0.00000000000E+00 0. -1.
         24    2    1    2    0    0  0.35562724035E+03 -0.66023671564E+03  0.73713380873E+03  0.10550227983E+04  0.85578023858E+02 0.  0.
        254    2    1    2    0    0 -0.35562724035E+03  0.66023671564E+03 -0.12434335277E+04  0.17019057580E+04  0.88767844206E+03 0.  0.
         23    2    4    4    0    0 -0.23925376339E+02  0.48494264005E+03 -0.12198121839E+04  0.13161158463E+04  0.92072630100E+02 0.  0.
         23    2    4    4    0    0 -0.33170186401E+03  0.17529407559E+03 -0.23621343810E+02  0.38578991166E+03  0.86728014681E+02 0.  0.
          2    1    3    3  502    0  0.52947242452E+02 -0.71739413758E+02  0.12506852719E+03  0.15359716945E+03  0.00000000000E+00 0. -1.
         -1    1    3    3    0  502  0.30267999790E+03 -0.58849730189E+03  0.61206528153E+03  0.90142562883E+03  0.00000000000E+00 0.  1.
         13    1    5    5    0    0  0.23465966130E+02  0.15979514432E+03 -0.48496247770E+03  0.51114943460E+03  0.00000000000E+00 0.  1.
        -13    1    5    5    0    0 -0.47391342469E+02  0.32514749573E+03 -0.73484970620E+03  0.80496641174E+03  0.00000000000E+00 0. -1.
          2    1    6    6  503    0 -0.37738110078E+02 -0.31605097265E+00 -0.21348491166E+02  0.43359231030E+02  0.00000000000E+00 0. -1.
         -2    1    6    6    0  503 -0.29396375393E+03  0.17561012656E+03 -0.22728526436E+01  0.34243068063E+03  0.00000000000E+00 0.  1.
<mgrwt>
<rscale>  0 0.27100398E+04</rscale>
<asrwt>0</asrwt>
<pdfrwt beam="1">  1        2 0.25101756E+00 0.27100398E+04</pdfrwt>
<pdfrwt beam="2">  1       -1 0.17312530E+00 0.27100398E+04</pdfrwt>
<totfact> 0.24943920E+00</totfact>
</mgrwt>
</event>
<event>
12    7  0.1546317E-007  0.1878301E+04  0.7818608E-02  0.8665733E-01
          2   -1    0    0  501    0  0.00000000000E+00  0.00000000000E+00  0.10097495494E+04  0.10097495494E+04  0.00000000000E+00 0. -1.
         -1   -1    0    0    0  501 -0.00000000000E+00 -0.00000000000E+00 -0.87348787801E+03  0.87348787801E+03  0.00000000000E+00 0.  1.
         24    2    1    2    0    0 -0.26232003725E+03  0.47195510482E+03  0.56092098854E+03  0.78265918896E+03  0.79809947845E+02 0.  0.
        254    2    1    2    0    0  0.26232003725E+03 -0.47195510482E+03 -0.42465931716E+03  0.11005782384E+04  0.85987411889E+03 0.  0.
         23    2    4    4    0    0  0.25506244803E+03 -0.17722813499E+02 -0.55577052550E+03  0.61888409790E+03  0.93625312312E+02 0.  0.
         23    2    4    4    0    0  0.72575892184E+01 -0.45423229132E+03  0.13111120833E+03  0.48169414053E+03  0.91975262938E+02 0.  0.
          4    1    3    3  502    0 -0.20565050971E+03  0.41973027752E+03  0.49980016739E+03  0.68429952896E+03  0.00000000000E+00 0. -1.
         -3    1    3    3    0  502 -0.56669527538E+02  0.52224827306E+02  0.61120821147E+02  0.98359660004E+02  0.00000000000E+00 0.  1.
         13    1    5    5    0    0  0.40806762191E+02  0.22348697126E+02 -0.50843659064E+02  0.68918312303E+02  0.00000000000E+00 0. -1.
        -13    1    5    5    0    0  0.21425568584E+03 -0.40071510625E+02 -0.50492686643E+03  0.54996578559E+03  0.00000000000E+00 0.  1.
          1    1    6    6  503    0 -0.21850322185E+02 -0.24615786208E+03  0.31331824238E+02  0.24910402015E+03  0.00000000000E+00 0. -1.
         -1    1    6    6    0  503  0.29107911404E+02 -0.20807442924E+03  0.99779384095E+02  0.23259012038E+03  0.00000000000E+00 0.  1.
<mgrwt>
<rscale>  0 0.18783014E+04</rscale>
<asrwt>0</asrwt>
<pdfrwt beam="1">  1        2 0.15534608E+00 0.18783014E+04</pdfrwt>
<pdfrwt beam="2">  1       -1 0.13438275E+00 0.18783014E+04</pdfrwt>
<totfact> 0.12386345E+01</totfact>
</mgrwt>
</event>
<event>
12    7  0.1546317E-007  0.1559109E+04  0.7818608E-02  0.8846070E-01
          2   -1    0    0  501    0  0.00000000000E+00  0.00000000000E+00  0.19568614165E+04  0.19568614165E+04  0.00000000000E+00 0. -1.
         -1   -1    0    0    0  501 -0.00000000000E+00 -0.00000000000E+00 -0.31055110746E+03  0.31055110746E+03  0.00000000000E+00 0.  1.
         24    2    1    2    0    0  0.20313811284E+03  0.84870667793E+02  0.12176900304E+04  0.12398897504E+04  0.78034990326E+02 0.  0.
        254    2    1    2    0    0 -0.20313811284E+03 -0.84870667793E+02  0.42862027861E+03  0.10275227736E+04  0.90753489404E+03 0.  0.
         23    2    4    4    0    0  0.23997377202E+03  0.15378061094E+02 -0.14059735460E+03  0.29364180492E+03  0.92919306152E+02 0.  0.
         23    2    4    4    0    0 -0.44311188485E+03 -0.10024872889E+03  0.56921763320E+03  0.73388096869E+03  0.90413561525E+02 0.  0.
          4    1    3    3  502    0  0.18317486292E+03  0.87246564911E+02  0.94887780365E+03  0.97032679018E+03  0.00000000000E+00 0. -1.
         -3    1    3    3    0  502  0.19963249920E+02 -0.23758971176E+01  0.26881222677E+03  0.26956296017E+03  0.00000000000E+00 0.  1.
         13    1    5    5    0    0  0.15656613484E+03 -0.34740432694E+02 -0.83275313646E+02  0.18070592162E+03  0.00000000000E+00 0. -1.
        -13    1    5    5    0    0  0.83407637172E+02  0.50118493788E+02 -0.57322040949E+02  0.11293588330E+03  0.00000000000E+00 0.  1.
          1    1    6    6  503    0 -0.10945535408E+03  0.14199527976E+02  0.14247644197E+03  0.18022662858E+03  0.00000000000E+00 0. -1.
         -1    1    6    6    0  503 -0.33365653077E+03 -0.11444825686E+03  0.42674119123E+03  0.55365434011E+03  0.00000000000E+00 0.  1.
<mgrwt>
<rscale>  0 0.15591093E+04</rscale>
<asrwt>0</asrwt>
<pdfrwt beam="1">  1        2 0.30105560E+00 0.15591093E+04</pdfrwt>
<pdfrwt beam="2">  1       -1 0.47777095E-01 0.15591093E+04</pdfrwt>
<totfact> 0.33860155E+01</totfact>
</mgrwt>
</event>
<event>
12    7  0.1546317E-007  0.2846973E+04  0.7818608E-02  0.8288832E-01
         -1   -1    0    0    0  501 -0.00000000000E+00  0.00000000000E+00  0.11890819566E+04  0.11890819566E+04  0.00000000000E+00 0.  1.
          2   -1    0    0  501    0  0.00000000000E+00 -0.00000000000E+00 -0.17040997378E+04  0.17040997378E+04  0.00000000000E+00 0. -1.
         24    2    1    2    0    0 -0.73367332621E+03 -0.91081662529E+03 -0.75589357851E+03  0.13948397666E+04  0.79620335857E+02 0.  0.
        254    2    1    2    0    0  0.73367332621E+03  0.91081662529E+03  0.24087579723E+03  0.14983419278E+04  0.90506569292E+03 0.  0.
         23    2    4    4    0    0  0.22302882840E+03 -0.93250698648E+02  0.26213795545E+03  0.36813998526E+03  0.91505136288E+02 0.  0.
         23    2    4    4    0    0  0.51064449781E+03  0.10040673239E+04 -0.21262158212E+02  0.11302019426E+04  0.89416762806E+02 0.  0.
          2    1    3    3  502    0 -0.12286357346E+03 -0.16879246591E+03 -0.17012447103E+03  0.26931151085E+03  0.00000000000E+00 0. -1.
         -1    1    3    3    0  502 -0.61080975275E+03 -0.74202415938E+03 -0.58576910748E+03  0.11255282557E+04  0.00000000000E+00 0.  1.
         13    1    5    5    0    0 -0.52909958101E+01 -0.61525859393E+01 -0.19405507799E+01  0.83435416780E+01  0.00000000000E+00 0. -1.
        -13    1    5    5    0    0  0.22831982421E+03 -0.87098112709E+02  0.26407850623E+03  0.35979644358E+03  0.00000000000E+00 0.  1.
          1    1    6    6  503    0  0.25308126947E+03  0.45552392603E+03 -0.50131259393E+02  0.52351248248E+03  0.00000000000E+00 0. -1.
         -1    1    6    6    0  503  0.25756322834E+03  0.54854339791E+03  0.28869101181E+02  0.60668946010E+03  0.00000000000E+00 0.  1.
<mgrwt>
<rscale>  0 0.28469733E+04</rscale>
<asrwt>0</asrwt>
<pdfrwt beam="1">  1        2 0.26216919E+00 0.28469733E+04</pdfrwt>
<pdfrwt beam="2">  1       -1 0.18293568E+00 0.28469733E+04</pdfrwt>
<totfact> 0.19085512E+00</totfact>
</mgrwt>
</event>
<event>
12    7  0.1546317E-007  0.3124902E+04  0.7818608E-02  0.8208937E-01
          2   -1    0    0  501    0  0.00000000000E+00  0.00000000000E+00  0.30720529828E+04  0.30720529828E+04  0.00000000000E+00 0. -1.
         -1   -1    0    0    0  501 -0.00000000000E+00 -0.00000000000E+00 -0.79466510886E+03  0.79466510886E+03  0.00000000000E+00 0.  1.
         24    2    1    2    0    0 -0.13282195834E+03 -0.10258594605E+04 -0.18089836315E+03  0.10531574645E+04  0.79919470490E+02 0.  0.
        254    2    1    2    0    0  0.13282195834E+03  0.10258594605E+04  0.24582862371E+04  0.28135606272E+04  0.89605963757E+03 0.  0.
         23    2    4    4    0    0  0.95191669400E+02  0.10092676396E+03 -0.19686367526E+02  0.16679219037E+03  0.90467762747E+02 0.  0.
         23    2    4    4    0    0  0.37630288940E+02  0.92493269658E+03  0.24779726046E+04  0.26467684368E+04  0.90102148225E+02 0.  0.
          4    1    3    3  502    0 -0.68270641315E+02 -0.31910276765E+03 -0.83221164290E+02  0.33676879157E+03  0.00000000000E+00 0. -1.
         -3    1    3    3    0  502 -0.64551317025E+02 -0.70675669289E+03 -0.97677198856E+02  0.71638867289E+03  0.00000000000E+00 0.  1.
         13    1    5    5    0    0  0.19995414915E+01  0.32430171759E+02 -0.37668400223E+02  0.49745578516E+02  0.00000000000E+00 0.  1.
        -13    1    5    5    0    0  0.93192127909E+02  0.68496592201E+02  0.17982032697E+02  0.11704661186E+03  0.00000000000E+00 0. -1.
          1    1    6    6  503    0 -0.90008762057E+01  0.46482783053E+03  0.13429296570E+04  0.14211284219E+04  0.00000000000E+00 0. -1.
         -1    1    6    6    0  503  0.46631165146E+02  0.46010486605E+03  0.11350429477E+04  0.12256400150E+04  0.00000000000E+00 0.  1.
<mgrwt>
<rscale>  0 0.31249021E+04</rscale>
<asrwt>0</asrwt>
<pdfrwt beam="1">  1        2 0.47262353E+00 0.31249021E+04</pdfrwt>
<pdfrwt beam="2">  1       -1 0.12225617E+00 0.31249021E+04</pdfrwt>
<totfact> 0.89166325E-01</totfact>
</mgrwt>
</event>
<event>
12    7  0.1546317E-007  0.1267636E+04  0.7818608E-02  0.9055631E-01
          2   -1    0    0  501    0  0.00000000000E+00  0.00000000000E+00  0.59985265784E+03  0.59985265784E+03  0.00000000000E+00 0. -1.
         -1   -1    0    0    0  501 -0.00000000000E+00 -0.00000000000E+00 -0.66970628426E+03  0.66970628426E+03  0.00000000000E+00 0.  1.
         24    2    1    2    0    0  0.97059408614E+02  0.26463362073E+03  0.10086242829E+03  0.30964694758E+03  0.79098171170E+02 0.  0.
        254    2    1    2    0    0 -0.97059408614E+02 -0.26463362073E+03 -0.17071605472E+03  0.95991199452E+03  0.90157394808E+03 0.  0.
         23    2    4    4    0    0  0.34322697640E+03 -0.12556844453E+03  0.13402765795E+03  0.39931503509E+03  0.88976921529E+02 0.  0.
         23    2    4    4    0    0 -0.44028638501E+03 -0.13906517620E+03 -0.30474371267E+03  0.56059695943E+03  0.90603512358E+02 0.  0.
          4    1    3    3  502    0  0.68495227334E+02  0.20677494800E+03  0.41040036966E+02  0.22165685174E+03  0.00000000000E+00 0. -1.
         -3    1    3    3    0  502  0.28564181280E+02  0.57858672731E+02  0.59822391324E+02  0.87990095841E+02  0.00000000000E+00 0.  1.
         13    1    5    5    0    0  0.90215738528E+01 -0.25472594955E+02  0.13511689883E+02  0.30212706797E+02  0.00000000000E+00 0. -1.
        -13    1    5    5    0    0  0.33420540254E+03 -0.10009584958E+03  0.12051596807E+03  0.36910232829E+03  0.00000000000E+00 0.  1.
          2    1    6    6  503    0 -0.46551200283E+02 -0.10053386831E+02 -0.69162651473E+02  0.83973550558E+02  0.00000000000E+00 0. -1.
         -2    1    6    6    0  503 -0.39373518473E+03 -0.12901178937E+03 -0.23558106119E+03  0.47662340887E+03  0.00000000000E+00 0.  1.
<mgrwt>
<rscale>  0 0.12676357E+04</rscale>
<asrwt>0</asrwt>
<pdfrwt beam="1">  1        2 0.92285025E-01 0.12676357E+04</pdfrwt>
<pdfrwt beam="2">  1       -1 0.10303174E+00 0.12676357E+04</pdfrwt>
<totfact> 0.49576178E+01</totfact>
</mgrwt>
</event>
<event>
12    7  0.1546317E-007  0.1513478E+04  0.7818608E-02  0.8875539E-01
         -1   -1    0    0    0  501 -0.00000000000E+00  0.00000000000E+00  0.38733552839E+03  0.38733552839E+03  0.00000000000E+00 0.  1.
          2   -1    0    0  501    0  0.00000000000E+00 -0.00000000000E+00 -0.14784447101E+04  0.14784447101E+04  0.00000000000E+00 0. -1.
         24    2    1    2    0    0  0.43247582041E+03  0.22824530459E+02 -0.65501660708E+03  0.78941524086E+03  0.81076337620E+02 0.  0.
        254    2    1    2    0    0 -0.43247582041E+03 -0.22824530459E+02 -0.43609257460E+03  0.10763649976E+04  0.88364505318E+03 0.  0.
         23    2    4    4    0    0  0.32483105967E-01 -0.95954582456E+02  0.23561824179E+03  0.26989599901E+03  0.90114435419E+02 0.  0.
         23    2    4    4    0    0 -0.43250830352E+03  0.73130051996E+02 -0.67171081638E+03  0.80646899859E+03  0.82373464959E+02 0.  0.
          4    1    3    3  502    0  0.34982826385E+03  0.34297701186E+02 -0.57423937343E+03  0.67328077686E+03  0.00000000000E+00 0. -1.
         -3    1    3    3    0  502  0.82647556562E+02 -0.11473170727E+02 -0.80777233650E+02  0.11613446400E+03  0.00000000000E+00 0.  1.
         13    1    5    5    0    0 -0.37248386108E+02 -0.45807119589E+02  0.63118908495E+02  0.86427606020E+02  0.00000000000E+00 0. -1.
        -13    1    5    5    0    0  0.37280869214E+02 -0.50147462866E+02  0.17249933329E+03  0.18346839299E+03  0.00000000000E+00 0.  1.
          1    1    6    6  503    0 -0.37634899056E+03  0.87175232977E+02 -0.55529472246E+03  0.67645422072E+03  0.00000000000E+00 0. -1.
         -1    1    6    6    0  503 -0.56159312954E+02 -0.14045180981E+02 -0.11641609392E+03  0.13001477787E+03  0.00000000000E+00 0.  1.
<mgrwt>
<rscale>  0 0.15134783E+04</rscale>
<asrwt>0</asrwt>
<pdfrwt beam="1">  1        2 0.22745303E+00 0.15134783E+04</pdfrwt>
<pdfrwt beam="2">  1       -1 0.59590081E-01 0.15134783E+04</pdfrwt>
<totfact> 0.40995676E+01</totfact>
</mgrwt>
</event>
<event>
12    7  0.1546317E-007  0.1908619E+04  0.7818608E-02  0.8650578E-01
          2   -1    0    0  501    0  0.00000000000E+00  0.00000000000E+00  0.20997038257E+04  0.20997038257E+04  0.00000000000E+00 0. -1.
         -1   -1    0    0    0  501 -0.00000000000E+00 -0.00000000000E+00 -0.43373113712E+03  0.43373113712E+03  0.00000000000E+00 0.  1.
         24    2    1    2    0    0 -0.78709155991E+02  0.62222924984E+03  0.11691423843E+04  0.13291176177E+04  0.79343281297E+02 0.  0.
        254    2    1    2    0    0  0.78709155991E+02 -0.62222924984E+03  0.49683030424E+03  0.12043173451E+04  0.90009752021E+03 0.  0.
         23    2    4    4    0    0  0.36885692258E+03 -0.66629053313E+03  0.23855885707E+03  0.80297621803E+03  0.88667776306E+02 0.  0.
         23    2    4    4    0    0 -0.29014776658E+03  0.44061283286E+02  0.25827144717E+03  0.40134112707E+03  0.90793373757E+02 0.  0.
          4    1    3    3  502    0 -0.39100919224E+02  0.52893600889E+03  0.99949639232E+03  0.11315013131E+04  0.00000000000E+00 0. -1.
         -1    1    3    3    0  502 -0.39608236766E+02  0.93293240956E+02  0.16964599198E+03  0.19761630454E+03  0.00000000000E+00 0.  1.
         13    1    5    5    0    0  0.20014285444E+02 -0.56827383685E+02  0.42995067790E+02  0.74016883295E+02  0.00000000000E+00 0. -1.
        -13    1    5    5    0    0  0.34884263713E+03 -0.60946314945E+03  0.19556378928E+03  0.72895933473E+03  0.00000000000E+00 0.  1.
          1    1    6    6  503    0 -0.49579343484E+01 -0.12737687345E+02  0.21444457367E+01  0.13835766673E+02  0.00000000000E+00 0. -1.
         -1    1    6    6    0  503 -0.28518983224E+03  0.56798970632E+02  0.25612700143E+03  0.38750536040E+03  0.00000000000E+00 0.  1.
<mgrwt>
<rscale>  0 0.19086193E+04</rscale>
<asrwt>0</asrwt>
<pdfrwt beam="1">  1        2 0.32303135E+00 0.19086193E+04</pdfrwt>
<pdfrwt beam="2">  1       -1 0.66727869E-01 0.19086193E+04</pdfrwt>
<totfact> 0.14253992E+01</totfact>
</mgrwt>
</event>
<event>
12    7  0.1546317E-007  0.3008142E+04  0.7818608E-02  0.8241410E-01
         -1   -1    0    0    0  501 -0.00000000000E+00  0.00000000000E+00  0.16765764952E+04  0.16765764952E+04  0.00000000000E+00 0.  1.
          2   -1    0    0  501    0  0.00000000000E+00 -0.00000000000E+00 -0.13493146896E+04  0.13493146896E+04  0.00000000000E+00 0. -1.
         24    2    1    2    0    0 -0.90877675476E+03  0.45460160604E+03  0.10735645794E+04  0.14802905144E+04  0.78621184117E+02 0.  0.
        254    2    1    2    0    0  0.90877675476E+03 -0.45460160604E+03 -0.74630277390E+03  0.15456006704E+04  0.89407817986E+03 0.  0.
         23    2    4    4    0    0  0.27661813345E+03 -0.39585767552E+03 -0.75819926847E+03  0.90363355998E+03  0.92014069511E+02 0.  0.
         23    2    4    4    0    0  0.63215862131E+03 -0.58743930516E+02  0.11896494561E+02  0.64196711039E+03  0.94365631363E+02 0.  0.
          4    1    3    3  502    0 -0.35708336817E+03  0.22022350035E+03  0.42663198125E+03  0.59834920352E+03  0.00000000000E+00 0. -1.
         -3    1    3    3    0  502 -0.55169338659E+03  0.23437810568E+03  0.64693259819E+03  0.88194131088E+03  0.00000000000E+00 0.  1.
         13    1    5    5    0    0 -0.42780881981E+01 -0.30153408342E+02 -0.44595194191E+02  0.54002420485E+02  0.00000000000E+00 0. -1.
        -13    1    5    5    0    0  0.28089622165E+03 -0.36570426718E+03 -0.71360407427E+03  0.84963113949E+03  0.00000000000E+00 0.  1.
          1    1    6    6  503    0  0.28010522474E+03 -0.62517993797E+02  0.35067969296E+02  0.28913180203E+03  0.00000000000E+00 0. -1.
         -1    1    6    6    0  503  0.35205339657E+03  0.37740632811E+01 -0.23171474735E+02  0.35283530836E+03  0.00000000000E+00 0.  1.
<mgrwt>
<rscale>  0 0.30081418E+04</rscale>
<asrwt>0</asrwt>
<pdfrwt beam="1">  1        2 0.20758688E+00 0.30081418E+04</pdfrwt>
<pdfrwt beam="2">  1       -1 0.25793485E+00 0.30081418E+04</pdfrwt>
<totfact> 0.93312691E-01</totfact>
</mgrwt>
</event>
<event>
12    7  0.1546317E-007  0.1351299E+04  0.7818608E-02  0.8989846E-01
         -3   -1    0    0    0  501 -0.00000000000E+00  0.00000000000E+00  0.43340931908E+04  0.43340931908E+04  0.00000000000E+00 0.  1.
          2   -1    0    0  501    0  0.00000000000E+00 -0.00000000000E+00 -0.10532812797E+03  0.10532812797E+03  0.00000000000E+00 0. -1.
         24    2    1    2    0    0  0.36493018265E+03  0.23571654007E+02  0.83550310208E+03  0.91620770036E+03  0.87415419264E+02 0.  0.
        254    2    1    2    0    0 -0.36493018265E+03 -0.23571654007E+02  0.33932619607E+04  0.35232136184E+04  0.87468726162E+03 0.  0.
         23    2    4    4    0    0 -0.80836316153E+02 -0.36141422212E+03  0.74777904694E+03  0.83961109722E+03  0.92836100563E+02 0.  0.
         23    2    4    4    0    0 -0.28409386650E+03  0.33784256812E+03  0.26454829138E+04  0.26836025212E+04  0.91080836082E+02 0.  0.
          4    1    3    3  502    0  0.10027909698E+03  0.13296461289E+02  0.33512593646E+03  0.35006011836E+03  0.00000000000E+00 0. -1.
         -3    1    3    3    0  502  0.26465108568E+03  0.10275192717E+02  0.50037716562E+03  0.56614758200E+03  0.00000000000E+00 0.  1.
         13    1    5    5    0    0 -0.79091769130E+02 -0.14372811209E+03  0.32854530517E+03  0.36722649101E+03  0.00000000000E+00 0. -1.
        -13    1    5    5    0    0 -0.17445470230E+01 -0.21768611004E+03  0.41923374177E+03  0.47238460621E+03  0.00000000000E+00 0.  1.
          1    1    6    6  503    0 -0.25428176819E+03  0.26065299993E+03  0.20052948183E+04  0.20380889363E+04  0.00000000000E+00 0. -1.
         -1    1    6    6    0  503 -0.29812098316E+02  0.77189568189E+02  0.64018809551E+03  0.64551358489E+03  0.00000000000E+00 0.  1.
<mgrwt>
<rscale>  0 0.13512985E+04</rscale>
<asrwt>0</asrwt>
<pdfrwt beam="1">  1        2 0.16204331E-01 0.13512985E+04</pdfrwt>
<pdfrwt beam="2">  1       -3 0.66678343E+00 0.13512985E+04</pdfrwt>
<totfact> 0.86876448E-02</totfact>
</mgrwt>
</event>
<event>
12    7  0.1546317E-007  0.1891633E+04  0.7818608E-02  0.8659032E-01
         -1   -1    0    0    0  501 -0.00000000000E+00  0.00000000000E+00  0.46013493930E+03  0.46013493930E+03  0.00000000000E+00 0.  1.
          2   -1    0    0  501    0  0.00000000000E+00 -0.00000000000E+00 -0.19441446341E+04  0.19441446341E+04  0.00000000000E+00 0. -1.
         24    2    1    2    0    0  0.20099410814E+03  0.56429949715E+03 -0.11017639261E+04  0.12566921542E+04  0.80986835845E+02 0.  0.
        254    2    1    2    0    0 -0.20099410814E+03 -0.56429949715E+03 -0.38224576872E+03  0.11475874192E+04  0.90111736363E+03 0.  0.
         23    2    4    4    0    0  0.73080551970E+02  0.21570309732E+03 -0.49148240998E+02  0.25143842753E+03  0.94536447867E+02 0.  0.
         23    2    4    4    0    0 -0.27407466011E+03 -0.78000259448E+03 -0.33309752772E+03  0.89614899168E+03  0.92779769397E+02 0.  0.
          4    1    3    3  502    0  0.13728929851E+03  0.30512572408E+03 -0.67438940978E+03  0.75282875543E+03  0.00000000000E+00 0. -1.
         -3    1    3    3    0  502  0.63704809626E+02  0.25917377308E+03 -0.42737451631E+03  0.50386339877E+03  0.00000000000E+00 0.  1.
         13    1    5    5    0    0  0.38444091517E+01  0.13819295456E+03 -0.51376904172E+02  0.14748443461E+03  0.00000000000E+00 0. -1.
        -13    1    5    5    0    0  0.69236142819E+02  0.77510142765E+02  0.22286631748E+01  0.10395399292E+03  0.00000000000E+00 0.  1.
          1    1    6    6  503    0 -0.21556904639E+03 -0.64274893798E+03 -0.30891257378E+03  0.74499878474E+03  0.00000000000E+00 0. -1.
         -1    1    6    6    0  503 -0.58505613720E+02 -0.13725365650E+03 -0.24184953942E+02  0.15115020694E+03  0.00000000000E+00 0.  1.
<mgrwt>
<rscale>  0 0.18916330E+04</rscale>
<asrwt>0</asrwt>
<pdfrwt beam="1">  1        2 0.29909917E+00 0.18916330E+04</pdfrwt>
<pdfrwt beam="2">  1       -1 0.70789993E-01 0.18916330E+04</pdfrwt>
<totfact> 0.15440526E+01</totfact>
</mgrwt>
</event>
<event>
12    7  0.1546317E-007  0.2580950E+04  0.7818608E-02  0.8374701E-01
         -1   -1    0    0    0  501 -0.00000000000E+00  0.00000000000E+00  0.50351473265E+03  0.50351473265E+03  0.00000000000E+00 0.  1.
          2   -1    0    0  501    0  0.00000000000E+00 -0.00000000000E+00 -0.33074018502E+04  0.33074018502E+04  0.00000000000E+00 0. -1.
         24    2    1    2    0    0  0.20473039432E+03  0.74276163896E+03 -0.76380312018E+01  0.77460194866E+03  0.79626959452E+02 0.  0.
        254    2    1    2    0    0 -0.20473039432E+03 -0.74276163896E+03 -0.27962490864E+04  0.30363146342E+04  0.89810256556E+03 0.  0.
         23    2    4    4    0    0 -0.43783329331E+03 -0.18270150196E+03 -0.18286176164E+04  0.18913863024E+04  0.91771052493E+02 0.  0.
         23    2    4    4    0    0  0.23310289900E+03 -0.56006013700E+03 -0.96763146994E+03  0.11449283319E+04  0.80906766677E+02 0.  0.
          4    1    3    3  502    0 -0.69338203355E+01  0.14715836227E+02  0.16832433459E+01  0.16354418622E+02  0.00000000000E+00 0. -1.
         -3    1    3    3    0  502  0.21166421465E+03  0.72804580274E+03 -0.93212745477E+01  0.75824753004E+03  0.00000000000E+00 0.  1.
         13    1    5    5    0    0 -0.28274519260E+03 -0.16160015760E+03 -0.12915819725E+04  0.13320072998E+04  0.00000000000E+00 0. -1.
        -13    1    5    5    0    0 -0.15508810071E+03 -0.21101344356E+02 -0.53703564388E+03  0.55937900257E+03  0.00000000000E+00 0.  1.
          1    1    6    6  503    0  0.13054840673E+03 -0.21344851028E+03 -0.37732115442E+03  0.45274099285E+03  0.00000000000E+00 0. -1.
         -1    1    6    6    0  503  0.10255449226E+03 -0.34661162673E+03 -0.59031031552E+03  0.69218733900E+03  0.00000000000E+00 0.  1.
<mgrwt>
<rscale>  0 0.25809499E+04</rscale>
<asrwt>0</asrwt>
<pdfrwt beam="1">  1        2 0.50883107E+00 0.25809499E+04</pdfrwt>
<pdfrwt beam="2">  1       -1 0.77463803E-01 0.25809499E+04</pdfrwt>
<totfact> 0.18537019E+00</totfact>
</mgrwt>
</event>
<event>
12    7  0.1546317E-007  0.1308895E+04  0.7818608E-02  0.9022541E-01
         -1   -1    0    0    0  501 -0.00000000000E+00  0.00000000000E+00  0.26361602249E+03  0.26361602249E+03  0.00000000000E+00 0.  1.
          2   -1    0    0  501    0  0.00000000000E+00 -0.00000000000E+00 -0.16247176316E+04  0.16247176316E+04  0.00000000000E+00 0. -1.
         24    2    1    2    0    0  0.25056477938E+03 -0.18308450526E+03 -0.54436885705E+03  0.63137604936E+03  0.77431378913E+02 0.  0.
        254    2    1    2    0    0 -0.25056477938E+03  0.18308450526E+03 -0.81673275203E+03  0.12569576047E+04  0.90365224896E+03 0.  0.
         23    2    4    4    0    0 -0.67533997626E+02 -0.31390746540E+03 -0.58219905507E+03  0.67112731585E+03  0.91418798352E+02 0.  0.
         23    2    4    4    0    0 -0.18303078176E+03  0.49699197066E+03 -0.23453369696E+03  0.58583028885E+03  0.87691426900E+02 0.  0.
          2    1    3    3  502    0  0.25512594417E+03 -0.17588873718E+03 -0.53751334594E+03  0.62044072426E+03  0.00000000000E+00 0. -1.
         -3    1    3    3    0  502 -0.45611647808E+01 -0.71957680809E+01 -0.68555111063E+01  0.10935325096E+02  0.00000000000E+00 0.  1.
         13    1    5    5    0    0  0.14782487086E+02 -0.54706615429E+02 -0.61123631128E+02  0.83351268607E+02  0.00000000000E+00 0. -1.
        -13    1    5    5    0    0 -0.82316484711E+02 -0.25920084997E+03 -0.52107542394E+03  0.58777604725E+03  0.00000000000E+00 0.  1.
          1    1    6    6  503    0 -0.14935275264E+03  0.29354715934E+03 -0.12455315991E+03  0.35212166806E+03  0.00000000000E+00 0. -1.
         -1    1    6    6    0  503 -0.33678029116E+02  0.20344481132E+03 -0.10998053705E+03  0.23370862079E+03  0.00000000000E+00 0.  1.
<mgrwt>
<rscale>  0 0.13088951E+04</rscale>
<asrwt>0</asrwt>
<pdfrwt beam="1">  1        2 0.24995656E+00 0.13088951E+04</pdfrwt>
<pdfrwt beam="2">  1       -1 0.40556311E-01 0.13088951E+04</pdfrwt>
<totfact> 0.71580905E+01</totfact>
</mgrwt>
</event>
<event>
12    7  0.1546317E-007  0.1991030E+04  0.7818608E-02  0.8610826E-01
          2   -1    0    0  501    0  0.00000000000E+00  0.00000000000E+00  0.16030726590E+04  0.16030726590E+04  0.00000000000E+00 0. -1.
         -1   -1    0    0    0  501 -0.00000000000E+00 -0.00000000000E+00 -0.61821886949E+03  0.61821886949E+03  0.00000000000E+00 0.  1.
         24    2    1    2    0    0  0.60630216225E+03  0.32940062655E+03 -0.41680645181E+02  0.69494350347E+03  0.71429070441E+02 0.  0.
        254    2    1    2    0    0 -0.60630216225E+03 -0.32940062655E+03  0.10265344346E+04  0.15263480250E+04  0.89434795416E+03 0.  0.
         23    2    4    4    0    0 -0.42003178825E+03 -0.62522001153E+03  0.60497414250E+03  0.97044591874E+03  0.91895604592E+02 0.  0.
         23    2    4    4    0    0 -0.18627037400E+03  0.29581938497E+03  0.42156029214E+03  0.55590210624E+03  0.95437471953E+02 0.  0.
          4    1    3    3  502    0  0.24548691019E+03  0.94139314142E+02 -0.19223059704E+02  0.26362010463E+03  0.00000000000E+00 0. -1.
         -3    1    3    3    0  502  0.36081525206E+03  0.23526131241E+03 -0.22457585477E+02  0.43132339884E+03  0.00000000000E+00 0.  1.
         13    1    5    5    0    0 -0.19575412813E+03 -0.21144619451E+03  0.23033685277E+03  0.36889597124E+03  0.00000000000E+00 0.  1.
        -13    1    5    5    0    0 -0.22427766012E+03 -0.41377381701E+03  0.37463728973E+03  0.60154994750E+03  0.00000000000E+00 0. -1.
          3    1    6    6  503    0 -0.18703289426E+03  0.30238772329E+03  0.41615504296E+03  0.54736154278E+03  0.00000000000E+00 0. -1.
         -3    1    6    6    0  503  0.76252026156E+00 -0.65683383201E+01  0.54052491778E+01  0.85405634539E+01  0.00000000000E+00 0.  1.
<mgrwt>
<rscale>  0 0.19910297E+04</rscale>
<asrwt>0</asrwt>
<pdfrwt beam="1">  1        2 0.24662656E+00 0.19910297E+04</pdfrwt>
<pdfrwt beam="2">  1       -1 0.95110596E-01 0.19910297E+04</pdfrwt>
<totfact> 0.12563710E+01</totfact>
</mgrwt>
</event>
<event>
12    7  0.1546317E-007  0.1602460E+04  0.7818608E-02  0.8819038E-01
         -1   -1    0    0    0  501 -0.00000000000E+00  0.00000000000E+00  0.68815163611E+03  0.68815163611E+03  0.00000000000E+00 0.  1.
          2   -1    0    0  501    0  0.00000000000E+00 -0.00000000000E+00 -0.93289012699E+03  0.93289012699E+03  0.00000000000E+00 0. -1.
         24    2    1    2    0    0 -0.10663124085E+03 -0.26217835103E+03 -0.55900296863E+03  0.63158318244E+03  0.79405844492E+02 0.  0.
        254    2    1    2    0    0  0.10663124085E+03  0.26217835103E+03  0.31426447775E+03  0.98945858066E+03  0.89451574139E+03 0.  0.
         23    2    4    4    0    0  0.80387380854E+02  0.14051076299E+02 -0.29780049443E+03  0.32210832236E+03  0.91700998385E+02 0.  0.
         23    2    4    4    0    0  0.26243859993E+02  0.24812727473E+03  0.61206497218E+03  0.66735025830E+03  0.92070366799E+02 0.  0.
          4    1    3    3  502    0 -0.93908395521E+02 -0.12970524694E+03 -0.28276263461E+03  0.32495683616E+03  0.00000000000E+00 0. -1.
         -3    1    3    3    0  502 -0.12722845327E+02 -0.13247310409E+03 -0.27624033401E+03  0.30662634628E+03  0.00000000000E+00 0.  1.
         13    1    5    5    0    0  0.15110964572E+02 -0.36462826923E+02 -0.11357173949E+03  0.12023484939E+03  0.00000000000E+00 0.  1.
        -13    1    5    5    0    0  0.65276416282E+02  0.50513903221E+02 -0.18422875494E+03  0.20187347296E+03  0.00000000000E+00 0. -1.
          2    1    6    6  503    0 -0.16140964056E+02  0.15650817740E+03  0.44679646280E+03  0.47369021468E+03  0.00000000000E+00 0. -1.
         -2    1    6    6    0  503  0.42384824049E+02  0.91619097326E+02  0.16526850937E+03  0.19366004362E+03  0.00000000000E+00 0.  1.
<mgrwt>
<rscale>  0 0.16024604E+04</rscale>
<asrwt>0</asrwt>
<pdfrwt beam="1">  1        2 0.14352156E+00 0.16024604E+04</pdfrwt>
<pdfrwt beam="2">  1       -1 0.10586948E+00 0.16024604E+04</pdfrwt>
<totfact> 0.25468991E+01</totfact>
</mgrwt>
</event>
<event>
12    7  0.1546317E-007  0.1245665E+04  0.7818608E-02  0.9073799E-01
         -1   -1    0    0    0  501 -0.00000000000E+00  0.00000000000E+00  0.26503457059E+03  0.26503457059E+03  0.00000000000E+00 0.  1.
          2   -1    0    0  501    0  0.00000000000E+00 -0.00000000000E+00 -0.14636594606E+04  0.14636594606E+04  0.00000000000E+00 0. -1.
         24    2    1    2    0    0 -0.18552934413E+03 -0.56245248444E+02  0.11965494235E+02  0.20940968550E+03  0.78259681968E+02 0.  0.
        254    2    1    2    0    0  0.18552934413E+03  0.56245248444E+02 -0.12105903842E+04  0.15192843457E+04  0.89727987780E+03 0.  0.
         23    2    4    4    0    0  0.48307382213E+03 -0.13984314184E+03 -0.91164084553E+03  0.10448883073E+04  0.88239002317E+02 0.  0.
         23    2    4    4    0    0 -0.29754447800E+03  0.19608839028E+03 -0.29894953870E+03  0.47439603838E+03  0.93259859266E+02 0.  0.
          4    1    3    3  502    0 -0.10583767844E+03 -0.75993293652E+00 -0.18905494616E+02  0.10751562399E+03  0.00000000000E+00 0. -1.
         -1    1    3    3    0  502 -0.79691665690E+02 -0.55485315508E+02  0.30870988851E+02  0.10189406151E+03  0.00000000000E+00 0.  1.
         13    1    5    5    0    0  0.23774680207E+03 -0.66806939568E+02 -0.35770859434E+03  0.43467476064E+03  0.00000000000E+00 0.  1.
        -13    1    5    5    0    0  0.24532702006E+03 -0.73036202270E+02 -0.55393225119E+03  0.61021354666E+03  0.00000000000E+00 0. -1.
          1    1    6    6  503    0 -0.27310516885E+03  0.14322165614E+03 -0.26733754286E+03  0.40812772249E+03  0.00000000000E+00 0. -1.
         -1    1    6    6    0  503 -0.24439309149E+02  0.52866734139E+02 -0.31611995846E+02  0.66268315895E+02  0.00000000000E+00 0.  1.
<mgrwt>
<rscale>  0 0.12456651E+04</rscale>
<asrwt>0</asrwt>
<pdfrwt beam="1">  1        2 0.22517838E+00 0.12456651E+04</pdfrwt>
<pdfrwt beam="2">  1       -1 0.40774550E-01 0.12456651E+04</pdfrwt>
<totfact> 0.87699970E+01</totfact>
</mgrwt>
</event>
<event>
12    7  0.1546317E-007  0.2522562E+04  0.7818608E-02  0.8394991E-01
         -1   -1    0    0    0  501 -0.00000000000E+00  0.00000000000E+00  0.13818119190E+04  0.13818119190E+04  0.00000000000E+00 0.  1.
          2   -1    0    0  501    0  0.00000000000E+00 -0.00000000000E+00 -0.11512639187E+04  0.11512639187E+04  0.00000000000E+00 0. -1.
         24    2    1    2    0    0  0.57682634134E+03  0.26076308875E+03 -0.79101579110E+03  0.10163103918E+04  0.80341858425E+02 0.  0.
        254    2    1    2    0    0 -0.57682634134E+03 -0.26076308875E+03  0.10215637914E+04  0.15167654459E+04  0.92534254274E+03 0.  0.
         23    2    4    4    0    0 -0.81839644538E+03 -0.13299380587E+03  0.76958367910E+03  0.11346437670E+04  0.87734512130E+02 0.  0.
         23    2    4    4    0    0  0.24157010404E+03 -0.12776928287E+03  0.25198011228E+03  0.38212167888E+03  0.88554478587E+02 0.  0.
          2    1    3    3  502    0  0.25503542852E+03  0.11682136745E+03 -0.41476894801E+03  0.50072305911E+03  0.00000000000E+00 0. -1.
         -1    1    3    3    0  502  0.32179091282E+03  0.14394172130E+03 -0.37624684309E+03  0.51558733270E+03  0.00000000000E+00 0.  1.
         13    1    5    5    0    0 -0.95536096330E+02 -0.19287444079E+02  0.13206806189E+03  0.16413751604E+03  0.00000000000E+00 0. -1.
        -13    1    5    5    0    0 -0.72286034905E+03 -0.11370636180E+03  0.63751561721E+03  0.97050625094E+03  0.00000000000E+00 0.  1.
          1    1    6    6  503    0  0.34888999715E+02 -0.33430224514E+02  0.93078217028E+02  0.10487314574E+03  0.00000000000E+00 0. -1.
         -1    1    6    6    0  503  0.20668110432E+03 -0.94339058357E+02  0.15890189525E+03  0.27724853314E+03  0.00000000000E+00 0.  1.
<mgrwt>
<rscale>  0 0.25225624E+04</rscale>
<asrwt>0</asrwt>
<pdfrwt beam="1">  1        2 0.17711753E+00 0.25225624E+04</pdfrwt>
<pdfrwt beam="2">  1       -1 0.21258645E+00 0.25225624E+04</pdfrwt>
<totfact> 0.25388894E+00</totfact>
</mgrwt>
</event>
<event>
12    7  0.1546317E-007  0.2058225E+04  0.7818608E-02  0.8579872E-01
          2   -1    0    0  501    0  0.00000000000E+00  0.00000000000E+00  0.24374911103E+04  0.24374911103E+04  0.00000000000E+00 0. -1.
         -1   -1    0    0    0  501 -0.00000000000E+00 -0.00000000000E+00 -0.43449286031E+03  0.43449286031E+03  0.00000000000E+00 0.  1.
         24    2    1    2    0    0  0.89807144334E+02  0.82152627892E+03  0.77194265659E+03  0.11343907149E+04  0.89308895441E+02 0.  0.
        254    2    1    2    0    0 -0.89807144334E+02 -0.82152627892E+03  0.12310555934E+04  0.17375932557E+04  0.90595899365E+03 0.  0.
         23    2    4    4    0    0 -0.63113812682E+02 -0.79542014725E+03  0.39510425423E+03  0.89599566327E+03  0.10012139071E+03 0.  0.
         23    2    4    4    0    0 -0.26693331651E+02 -0.26106131671E+02  0.83595133916E+03  0.84159759246E+03  0.89876593791E+02 0.  0.
          2    1    3    3  502    0  0.24544478635E+01  0.10911466280E+03  0.14428960268E+03  0.18091855459E+03  0.00000000000E+00 0. -1.
         -1    1    3    3    0  502  0.87352696470E+02  0.71241161612E+03  0.62765305390E+03  0.95347216028E+03  0.00000000000E+00 0.  1.
         13    1    5    5    0    0 -0.54675968748E+02 -0.17790422225E+03  0.10478090183E+03  0.21358466996E+03  0.00000000000E+00 0. -1.
        -13    1    5    5    0    0 -0.84378439343E+01 -0.61751592500E+03  0.29032335240E+03  0.68241099330E+03  0.00000000000E+00 0.  1.
          2    1    6    6  503    0  0.61998099382E+01  0.29232003929E+02  0.17652475588E+03  0.17903613360E+03  0.00000000000E+00 0. -1.
         -2    1    6    6    0  503 -0.32893141590E+02 -0.55338135600E+02  0.65942658329E+03  0.66256145886E+03  0.00000000000E+00 0.  1.
<mgrwt>
<rscale>  0 0.20582249E+04</rscale>
<asrwt>0</asrwt>
<pdfrwt beam="1">  1        2 0.37499862E+00 0.20582249E+04</pdfrwt>
<pdfrwt beam="2">  1       -1 0.66845057E-01 0.20582249E+04</pdfrwt>
<totfact> 0.90306491E+00</totfact>
</mgrwt>
</event>
<event>
12    7  0.1546317E-007  0.3574597E+04  0.7818608E-02  0.8096336E-01
         -1   -1    0    0    0  501 -0.00000000000E+00  0.00000000000E+00  0.85331889881E+03  0.85331889881E+03  0.00000000000E+00 0.  1.
          2   -1    0    0  501    0  0.00000000000E+00 -0.00000000000E+00 -0.37435424174E+04  0.37435424174E+04  0.00000000000E+00 0. -1.
         24    2    1    2    0    0  0.68388214724E+03  0.14563272238E+04 -0.19315773342E+04  0.25149397086E+04  0.73122950194E+02 0.  0.
        254    2    1    2    0    0 -0.68388214724E+03 -0.14563272238E+04 -0.95864618434E+03  0.20819216076E+04  0.90929164692E+03 0.  0.
         23    2    4    4    0    0 -0.46575308277E+03 -0.12735147087E+03 -0.33236662598E+03  0.59333894583E+03  0.91865114910E+02 0.  0.
         23    2    4    4    0    0 -0.21812906447E+03 -0.13289757529E+04 -0.62627955837E+03  0.14885826617E+04  0.99475700100E+02 0.  0.
          2    1    3    3  502    0  0.61179124263E+03  0.12993518429E+04 -0.17579724614E+04  0.22700376453E+04  0.00000000000E+00 0. -1.
         -1    1    3    3    0  502  0.72090904607E+02  0.15697538090E+03 -0.17360487285E+03  0.24490206331E+03  0.00000000000E+00 0.  1.
         13    1    5    5    0    0 -0.97887455304E+02 -0.54281820848E+02 -0.11197610061E+03  0.15832598362E+03  0.00000000000E+00 0. -1.
        -13    1    5    5    0    0 -0.36786562747E+03 -0.73069650024E+02 -0.22039052537E+03  0.43501296222E+03  0.00000000000E+00 0.  1.
          4    1    6    6  503    0 -0.87481734203E+02 -0.28064727812E+03 -0.13990602855E+03  0.32556050952E+03  0.00000000000E+00 0. -1.
         -4    1    6    6    0  503 -0.13064733027E+03 -0.10483284748E+04 -0.48637352981E+03  0.11630221522E+04  0.00000000000E+00 0.  1.
<mgrwt>
<rscale>  0 0.35745968E+04</rscale>
<asrwt>0</asrwt>
<pdfrwt beam="1">  1        2 0.57592960E+00 0.35745968E+04</pdfrwt>
<pdfrwt beam="2">  1       -1 0.13127983E+00 0.35745968E+04</pdfrwt>
<totfact> 0.24787330E-01</totfact>
</mgrwt>
</event>
<event>
12    7  0.1546317E-007  0.1663387E+04  0.7818608E-02  0.8782526E-01
          2   -1    0    0  501    0  0.00000000000E+00  0.00000000000E+00  0.97231044331E+03  0.97231044331E+03  0.00000000000E+00 0. -1.
         -1   -1    0    0    0  501 -0.00000000000E+00 -0.00000000000E+00 -0.71141306479E+03  0.71141306479E+03  0.00000000000E+00 0.  1.
         24    2    1    2    0    0 -0.39950748557E+03  0.28993461155E+03 -0.22119440101E+03  0.54677760481E+03  0.79815262247E+02 0.  0.
        254    2    1    2    0    0  0.39950748557E+03 -0.28993461155E+03  0.48209177953E+03  0.11369459033E+04  0.90363996874E+03 0.  0.
         23    2    4    4    0    0  0.51493725647E+03 -0.97546847555E+01 -0.41981058158E+02  0.52471708728E+03  0.91159642739E+02 0.  0.
         23    2    4    4    0    0 -0.11542977090E+03 -0.28017992680E+03  0.52407283769E+03  0.61222881601E+03  0.91361701799E+02 0.  0.
          2    1    3    3  502    0 -0.13863063181E+03  0.12371339476E+03 -0.12054693903E+03  0.22148368027E+03  0.00000000000E+00 0. -1.
         -1    1    3    3    0  502 -0.26087685376E+03  0.16622121679E+03 -0.10064746198E+03  0.32529392454E+03  0.00000000000E+00 0.  1.
         13    1    5    5    0    0  0.27865945513E+03 -0.17580075242E+01  0.22779520023E+02  0.27959450828E+03  0.00000000000E+00 0. -1.
        -13    1    5    5    0    0  0.23627780133E+03 -0.79966772314E+01 -0.64760578181E+02  0.24512257900E+03  0.00000000000E+00 0.  1.
          1    1    6    6  503    0  0.34500765787E+01 -0.70608827014E+02  0.78177562796E+02  0.10540038333E+03  0.00000000000E+00 0. -1.
         -1    1    6    6    0  503 -0.11887984748E+03 -0.20957109978E+03  0.44589527489E+03  0.50682843268E+03  0.00000000000E+00 0.  1.
<mgrwt>
<rscale>  0 0.16633873E+04</rscale>
<asrwt>0</asrwt>
<pdfrwt beam="1">  1        2 0.14958622E+00 0.16633873E+04</pdfrwt>
<pdfrwt beam="2">  1       -1 0.10944816E+00 0.16633873E+04</pdfrwt>
<totfact> 0.22079198E+01</totfact>
</mgrwt>
</event>
<event>
12    7  0.1546317E-007  0.1321223E+04  0.7818608E-02  0.9012903E-01
         -1   -1    0    0    0  501 -0.00000000000E+00  0.00000000000E+00  0.28278699273E+03  0.28278699273E+03  0.00000000000E+00 0.  1.
          2   -1    0    0  501    0  0.00000000000E+00 -0.00000000000E+00 -0.15432368070E+04  0.15432368070E+04  0.00000000000E+00 0. -1.
         24    2    1    2    0    0 -0.13510209436E+03  0.31715430484E+03 -0.38577096973E+03  0.52492305357E+03  0.88800574902E+02 0.  0.
        254    2    1    2    0    0  0.13510209436E+03 -0.31715430484E+03 -0.87467884459E+03  0.13011007462E+04  0.89942239333E+03 0.  0.
         23    2    4    4    0    0  0.13288998145E+03 -0.30268084499E+03  0.71153201153E+02  0.35067815219E+03  0.92935177910E+02 0.  0.
         23    2    4    4    0    0  0.22121129114E+01 -0.14473459847E+02 -0.94583204574E+03  0.95042259401E+03  0.92143767973E+02 0.  0.
          2    1    3    3  502    0  0.11526882456E+02  0.10279819229E+02 -0.22499439459E+02  0.27290446652E+02  0.00000000000E+00 0. -1.
         -1    1    3    3    0  502 -0.14662897682E+03  0.30687448561E+03 -0.36327153027E+03  0.49763260692E+03  0.00000000000E+00 0.  1.
         13    1    5    5    0    0  0.26368029188E+02 -0.80022324566E+02  0.60305142846E+02  0.10361252649E+03  0.00000000000E+00 0. -1.
        -13    1    5    5    0    0  0.10652195227E+03 -0.22265852043E+03  0.10848058306E+02  0.24706562570E+03  0.00000000000E+00 0.  1.
          1    1    6    6  503    0  0.45378647278E+02 -0.14786535497E+02 -0.60250718856E+03  0.60439455286E+03  0.00000000000E+00 0. -1.
         -1    1    6    6    0  503 -0.43166534366E+02  0.31307564984E+00 -0.34332485718E+03  0.34602804115E+03  0.00000000000E+00 0.  1.
<mgrwt>
<rscale>  0 0.13212226E+04</rscale>
<asrwt>0</asrwt>
<pdfrwt beam="1">  1        2 0.23742105E+00 0.13212226E+04</pdfrwt>
<pdfrwt beam="2">  1       -1 0.43505691E-01 0.13212226E+04</pdfrwt>
<totfact> 0.69787245E+01</totfact>
</mgrwt>
</event>
<event>
12    7  0.1546317E-007  0.1575807E+04  0.7818608E-02  0.8835550E-01
          2   -1    0    0  501    0  0.00000000000E+00  0.00000000000E+00  0.20293075815E+04  0.20293075815E+04  0.00000000000E+00 0. -1.
         -1   -1    0    0    0  501 -0.00000000000E+00 -0.00000000000E+00 -0.30591303676E+03  0.30591303676E+03  0.00000000000E+00 0.  1.
         24    2    1    2    0    0 -0.47243066840E+03  0.59758019028E+02  0.26681023082E+03  0.55163435786E+03  0.79693213119E+02 0.  0.
        254    2    1    2    0    0  0.47243066840E+03 -0.59758019028E+02  0.14565843139E+04  0.17835862604E+04  0.91256798512E+03 0.  0.
         23    2    4    4    0    0  0.10883172713E+03 -0.40025609398E+03  0.29537731663E+03  0.51669849966E+03  0.87637291013E+02 0.  0.
         23    2    4    4    0    0  0.36359894127E+03  0.34049807495E+03  0.11612069973E+04  0.12668877607E+04  0.91977054906E+02 0.  0.
          2    1    3    3  502    0 -0.42728292173E+03  0.47340998954E+02  0.26450777035E+03  0.50475362897E+03  0.00000000000E+00 0. -1.
         -1    1    3    3    0  502 -0.45147746676E+02  0.12417020074E+02  0.23024604723E+01  0.46880728894E+02  0.00000000000E+00 0.  1.
         13    1    5    5    0    0  0.91754185570E+01  0.11056827355E+01  0.12956951233E+02  0.15915194792E+02  0.00000000000E+00 0.  1.
        -13    1    5    5    0    0  0.99656308574E+02 -0.40136177671E+03  0.28242036540E+03  0.50078330487E+03  0.00000000000E+00 0. -1.
          3    1    6    6  503    0  0.36253417502E+03  0.32170350975E+03  0.10841177432E+04  0.11875333500E+04  0.00000000000E+00 0. -1.
         -3    1    6    6    0  503  0.10647662556E+01  0.18794565202E+02  0.77089254114E+02  0.79354410767E+02  0.00000000000E+00 0.  1.
<mgrwt>
<rscale>  0 0.15758066E+04</rscale>
<asrwt>0</asrwt>
<pdfrwt beam="1">  1        2 0.31220116E+00 0.15758066E+04</pdfrwt>
<pdfrwt beam="2">  1       -1 0.47063545E-01 0.15758066E+04</pdfrwt>
<totfact> 0.31710208E+01</totfact>
</mgrwt>
</event>
<event>
12    7  0.1546317E-007  0.1326805E+04  0.7818608E-02  0.9008574E-01
         -1   -1    0    0    0  501 -0.00000000000E+00  0.00000000000E+00  0.38650245655E+03  0.38650245655E+03  0.00000000000E+00 0.  1.
          2   -1    0    0  501    0  0.00000000000E+00 -0.00000000000E+00 -0.11386808593E+04  0.11386808593E+04  0.00000000000E+00 0. -1.
         24    2    1    2    0    0  0.52129191245E+02 -0.32052091772E+03 -0.48007016024E+02  0.33785202382E+03  0.79926248098E+02 0.  0.
        254    2    1    2    0    0 -0.52129191245E+02  0.32052091772E+03 -0.70417138677E+03  0.11873312921E+04  0.89913688830E+03 0.  0.
         23    2    4    4    0    0  0.64408118355E+02  0.23052973645E+03 -0.89411106131E+03  0.93005846155E+03  0.91004323254E+02 0.  0.
         23    2    4    4    0    0 -0.11653730960E+03  0.89991181269E+02  0.18993967454E+03  0.25727283052E+03  0.91830670944E+02 0.  0.
          4    1    3    3  502    0  0.26954221542E+02 -0.78394696271E+02 -0.45164666642E+02  0.94403948939E+02  0.00000000000E+00 0. -1.
         -3    1    3    3    0  502  0.25174969703E+02 -0.24212622145E+03 -0.28423493819E+01  0.24344807488E+03  0.00000000000E+00 0.  1.
         13    1    5    5    0    0  0.21827221511E+02  0.13842150827E+03 -0.66306260745E+03  0.67770861212E+03  0.00000000000E+00 0.  1.
        -13    1    5    5    0    0  0.42580896844E+02  0.92108228184E+02 -0.23104845386E+03  0.25234984943E+03  0.00000000000E+00 0. -1.
          1    1    6    6  503    0 -0.13216551480E+03  0.75508257010E+02  0.16584194760E+03  0.22510613445E+03  0.00000000000E+00 0. -1.
         -1    1    6    6    0  503  0.15628205205E+02  0.14482924259E+02  0.24097726933E+02  0.32166696075E+02  0.00000000000E+00 0.  1.
<mgrwt>
<rscale>  0 0.13268051E+04</rscale>
<asrwt>0</asrwt>
<pdfrwt beam="1">  1        2 0.17518167E+00 0.13268051E+04</pdfrwt>
<pdfrwt beam="2">  1       -1 0.59461918E-01 0.13268051E+04</pdfrwt>
<totfact> 0.65981257E+01</totfact>
</mgrwt>
</event>
<event>
12    7  0.1546317E-007  0.2216639E+04  0.7818608E-02  0.8511535E-01
         -1   -1    0    0    0  501 -0.00000000000E+00  0.00000000000E+00  0.62100892512E+03  0.62100892512E+03  0.00000000000E+00 0.  1.
          2   -1    0    0  501    0  0.00000000000E+00 -0.00000000000E+00 -0.19780256487E+04  0.19780256487E+04  0.00000000000E+00 0. -1.
         24    2    1    2    0    0  0.55644306495E+02  0.33458004145E+03  0.44148490251E+03  0.56173167230E+03  0.74789434706E+02 0.  0.
        254    2    1    2    0    0 -0.55644306495E+02 -0.33458004145E+03 -0.17985016261E+04  0.20373029015E+04  0.89496084860E+03 0.  0.
         23    2    4    4    0    0 -0.46032432294E+03 -0.20902356149E+03 -0.11129450160E+04  0.12257376051E+04  0.90535829044E+02 0.  0.
         23    2    4    4    0    0  0.40468001645E+03 -0.12555647996E+03 -0.68555661013E+03  0.81156529647E+03  0.95498792495E+02 0.  0.
          2    1    3    3  502    0  0.39964133577E+02  0.12427040400E+03  0.12042346777E+03  0.17760089209E+03  0.00000000000E+00 0. -1.
         -1    1    3    3    0  502  0.15680172918E+02  0.21030963745E+03  0.32106143474E+03  0.38413078021E+03  0.00000000000E+00 0.  1.
         13    1    5    5    0    0 -0.16743097152E+03 -0.10656356004E+03 -0.51834894254E+03  0.55504463674E+03  0.00000000000E+00 0.  1.
        -13    1    5    5    0    0 -0.29289335143E+03 -0.10246000145E+03 -0.59459607344E+03  0.67069296832E+03  0.00000000000E+00 0. -1.
          2    1    6    6  503    0  0.10346999792E+03 -0.13149782577E+02 -0.10541026989E+03  0.14829120760E+03  0.00000000000E+00 0. -1.
         -2    1    6    6    0  503  0.30121001852E+03 -0.11240669739E+03 -0.58014634024E+03  0.66327408887E+03  0.00000000000E+00 0.  1.
<mgrwt>
<rscale>  0 0.22166385E+04</rscale>
<asrwt>0</asrwt>
<pdfrwt beam="1">  1        2 0.30431164E+00 0.22166385E+04</pdfrwt>
<pdfrwt beam="2">  1       -1 0.95539833E-01 0.22166385E+04</pdfrwt>
<totfact> 0.75476781E+00</totfact>
</mgrwt>
</event>
<event>
12    7  0.1546317E-007  0.2286822E+04  0.7818608E-02  0.8483135E-01
          2   -1    0    0  501    0  0.00000000000E+00  0.00000000000E+00  0.64721638945E+03  0.64721638945E+03  0.00000000000E+00 0. -1.
         -1   -1    0    0    0  501 -0.00000000000E+00 -0.00000000000E+00 -0.20200173258E+04  0.20200173258E+04  0.00000000000E+00 0.  1.
         24    2    1    2    0    0  0.79276857986E+03 -0.29515912310E+03 -0.44945382238E+02  0.85085637244E+03  0.79596168085E+02 0.  0.
        254    2    1    2    0    0 -0.79276857986E+03  0.29515912310E+03 -0.13278555541E+04  0.18163773428E+04  0.90577334345E+03 0.  0.
         23    2    4    4    0    0 -0.73360048100E+03  0.47959637482E+03 -0.62176610897E+03  0.10784506969E+04  0.90997048331E+02 0.  0.
         23    2    4    4    0    0 -0.59168098857E+02 -0.18443725172E+03 -0.70608944512E+03  0.73792664594E+03  0.91953610736E+02 0.  0.
          4    1    3    3  502    0  0.29997101019E+03 -0.71677950986E+02 -0.23977798852E+02  0.30934652163E+03  0.00000000000E+00 0. -1.
         -3    1    3    3    0  502  0.49279756968E+03 -0.22348117211E+03 -0.20967583386E+02  0.54150985081E+03  0.00000000000E+00 0.  1.
         13    1    5    5    0    0 -0.47068226571E+03  0.26663095916E+03 -0.34808324518E+03  0.64326962404E+03  0.00000000000E+00 0. -1.
        -13    1    5    5    0    0 -0.26291821529E+03  0.21296541566E+03 -0.27368286379E+03  0.43518107281E+03  0.00000000000E+00 0.  1.
          1    1    6    6  503    0 -0.61319717116E+02 -0.17912067638E+03 -0.70718331414E+03  0.73208781182E+03  0.00000000000E+00 0. -1.
         -1    1    6    6    0  503  0.21516182584E+01 -0.53165753417E+01  0.10938690150E+01  0.58388341230E+01  0.00000000000E+00 0.  1.
<mgrwt>
<rscale>  0 0.22868217E+04</rscale>
<asrwt>0</asrwt>
<pdfrwt beam="1">  1        2 0.99571752E-01 0.22868217E+04</pdfrwt>
<pdfrwt beam="2">  1       -1 0.31077190E+00 0.22868217E+04</pdfrwt>
<totfact> 0.13165971E+00</totfact>
</mgrwt>
</event>
<event>
12    7  0.1546317E-007  0.2118610E+04  0.7818608E-02  0.8553090E-01
          2   -1    0    0  501    0  0.00000000000E+00  0.00000000000E+00  0.17760023689E+04  0.17760023689E+04  0.00000000000E+00 0. -1.
         -1   -1    0    0    0  501 -0.00000000000E+00 -0.00000000000E+00 -0.63182740609E+03  0.63182740609E+03  0.00000000000E+00 0.  1.
         24    2    1    2    0    0  0.59513178736E+03  0.60396044890E+02 -0.23197950467E+03  0.64595255378E+03  0.74904503088E+02 0.  0.
        254    2    1    2    0    0 -0.59513178736E+03 -0.60396044890E+02  0.13761544675E+04  0.17618772212E+04  0.92335296487E+03 0.  0.
         23    2    4    4    0    0 -0.30734437438E+03 -0.41748045347E+03  0.10982102781E+04  0.12177721244E+04  0.90291962886E+02 0.  0.
         23    2    4    4    0    0 -0.28778741298E+03  0.35708440858E+03  0.27794418941E+03  0.54410509684E+03  0.92013662323E+02 0.  0.
          2    1    3    3  502    0  0.16458400048E+03  0.15636467024E+02 -0.10085629589E+03  0.19366048832E+03  0.00000000000E+00 0. -1.
         -1    1    3    3    0  502  0.43054778688E+03  0.44759577866E+02 -0.13112320878E+03  0.45229206546E+03  0.00000000000E+00 0.  1.
         13    1    5    5    0    0 -0.30894330715E+03 -0.38805836793E+03  0.10204391428E+04  0.11346062348E+04  0.00000000000E+00 0.  1.
        -13    1    5    5    0    0  0.15989327668E+01 -0.29422085538E+02  0.77771135284E+02  0.83165889562E+02  0.00000000000E+00 0. -1.
          3    1    6    6  503    0 -0.17860729808E+03  0.18217946048E+03  0.19807513689E+03  0.32299176863E+03  0.00000000000E+00 0. -1.
         -3    1    6    6    0  503 -0.10918011490E+03  0.17490494810E+03  0.79869052518E+02  0.22111332821E+03  0.00000000000E+00 0.  1.
<mgrwt>
<rscale>  0 0.21186099E+04</rscale>
<asrwt>0</asrwt>
<pdfrwt beam="1">  1        2 0.27323113E+00 0.21186099E+04</pdfrwt>
<pdfrwt beam="2">  1       -1 0.97204217E-01 0.21186099E+04</pdfrwt>
<totfact> 0.94782181E+00</totfact>
</mgrwt>
</event>
<event>
12    7  0.1546317E-007  0.2545102E+04  0.7818608E-02  0.8387092E-01
          2   -1    0    0  501    0  0.00000000000E+00  0.00000000000E+00  0.16925568909E+04  0.16925568909E+04  0.00000000000E+00 0. -1.
         -1   -1    0    0    0  501 -0.00000000000E+00 -0.00000000000E+00 -0.95676925143E+03  0.95676925143E+03  0.00000000000E+00 0.  1.
         24    2    1    2    0    0 -0.14042029135E+03 -0.26937701267E+03 -0.78705899936E+03  0.84749629735E+03  0.80661467678E+02 0.  0.
        254    2    1    2    0    0  0.14042029135E+03  0.26937701267E+03  0.15228466389E+04  0.18018298450E+04  0.91391852577E+03 0.  0.
         23    2    4    4    0    0 -0.28965990703E+02  0.13279176388E+03  0.15548503840E+04  0.15634843485E+04  0.91928832226E+02 0.  0.
         23    2    4    4    0    0  0.16938628205E+03  0.13658524879E+03 -0.32003745083E+02  0.23834549658E+03  0.91853651566E+02 0.  0.
          2    1    3    3  502    0 -0.43105359628E+02 -0.21982214298E+02 -0.12788344932E+03  0.13673136577E+03  0.00000000000E+00 0. -1.
         -1    1    3    3    0  502 -0.97314931723E+02 -0.24739479837E+03 -0.65917555003E+03  0.71076493158E+03  0.00000000000E+00 0.  1.
         13    1    5    5    0    0 -0.34078453238E+02  0.32509792947E+01  0.35807315658E+03  0.35970584552E+03  0.00000000000E+00 0.  1.
        -13    1    5    5    0    0  0.51124625351E+01  0.12954078458E+03  0.11967772274E+04  0.12037785029E+04  0.00000000000E+00 0. -1.
          4    1    6    6  503    0  0.12803785043E+03  0.14438198477E+03 -0.17204510322E+02  0.19374169362E+03  0.00000000000E+00 0. -1.
         -4    1    6    6    0  503  0.41348431620E+02 -0.77967359796E+01 -0.14799234762E+02  0.44603802965E+02  0.00000000000E+00 0.  1.
<mgrwt>
<rscale>  0 0.25451023E+04</rscale>
<asrwt>0</asrwt>
<pdfrwt beam="1">  1        2 0.26039337E+00 0.25451023E+04</pdfrwt>
<pdfrwt beam="2">  1       -1 0.14719527E+00 0.25451023E+04</pdfrwt>
<totfact> 0.36766674E+00</totfact>
</mgrwt>
</event>
<event>
12    7  0.1546317E-007  0.1545012E+04  0.7818608E-02  0.8855060E-01
         -1   -1    0    0    0  501 -0.00000000000E+00  0.00000000000E+00  0.45893768088E+03  0.45893768088E+03  0.00000000000E+00 0.  1.
          2   -1    0    0  501    0  0.00000000000E+00 -0.00000000000E+00 -0.13003198073E+04  0.13003198073E+04  0.00000000000E+00 0. -1.
         24    2    1    2    0    0 -0.20676016200E+03 -0.68182255478E+02  0.23874432454E+03  0.33276480582E+03  0.79592580959E+02 0.  0.
        254    2    1    2    0    0  0.20676016200E+03  0.68182255478E+02 -0.10801264509E+04  0.14264926823E+04  0.90598545142E+03 0.  0.
         23    2    4    4    0    0 -0.13851562689E+03  0.40685845444E+03 -0.50220539239E+03  0.66728207338E+03  0.91294734095E+02 0.  0.
         23    2    4    4    0    0  0.34527578889E+03 -0.33867619896E+03 -0.57792105854E+03  0.75921060895E+03  0.92146951646E+02 0.  0.
          4    1    3    3  502    0 -0.26406737923E+01  0.11899830027E+02  0.16995811239E+02  0.20914987746E+02  0.00000000000E+00 0. -1.
         -3    1    3    3    0  502 -0.20411948821E+03 -0.80082085505E+02  0.22174851330E+03  0.31184981807E+03  0.00000000000E+00 0.  1.
         13    1    5    5    0    0 -0.11600318146E+02  0.68614131032E+01 -0.43675078502E+02  0.45707317281E+02  0.00000000000E+00 0.  1.
        -13    1    5    5    0    0 -0.12691530874E+03  0.39999704134E+03 -0.45853031389E+03  0.62157475610E+03  0.00000000000E+00 0. -1.
          2    1    6    6  503    0  0.25487963683E+03 -0.29438884165E+03 -0.48726695310E+03  0.62374474181E+03  0.00000000000E+00 0. -1.
         -2    1    6    6    0  503  0.90396152060E+02 -0.44287357315E+02 -0.90654105440E+02  0.13546586713E+03  0.00000000000E+00 0.  1.
<mgrwt>
<rscale>  0 0.15450123E+04</rscale>
<asrwt>0</asrwt>
<pdfrwt beam="1">  1        2 0.20004920E+00 0.15450123E+04</pdfrwt>
<pdfrwt beam="2">  1       -1 0.70605797E-01 0.15450123E+04</pdfrwt>
<totfact> 0.36768136E+01</totfact>
</mgrwt>
</event>
<event>
12    7  0.1546317E-007  0.2049325E+04  0.7818608E-02  0.8583900E-01
          2   -1    0    0  501    0  0.00000000000E+00  0.00000000000E+00  0.19141034858E+04  0.19141034858E+04  0.00000000000E+00 0. -1.
         -1   -1    0    0    0  501 -0.00000000000E+00 -0.00000000000E+00 -0.54852504952E+03  0.54852504952E+03  0.00000000000E+00 0.  1.
         24    2    1    2    0    0 -0.81323522223E+03 -0.97732559816E+02  0.67686674171E+03  0.10675416675E+04  0.10292446651E+03 0.  0.
        254    2    1    2    0    0  0.81323522223E+03  0.97732559816E+02  0.68871169461E+03  0.13950868679E+04  0.89500859813E+03 0.  0.
         23    2    4    4    0    0  0.50691043088E+03 -0.37434862677E+03  0.43375051561E+03  0.77080137923E+03  0.94340750106E+02 0.  0.
         23    2    4    4    0    0  0.30632479135E+03  0.47208118658E+03  0.25496117900E+03  0.62428548866E+03  0.89619440032E+02 0.  0.
          4    1    3    3  502    0 -0.75618573821E+03 -0.11340983443E+03  0.60915903509E+03  0.97762640679E+03  0.00000000000E+00 0. -1.
         -3    1    3    3    0  502 -0.57049484027E+02  0.15677274611E+02  0.67707706620E+02  0.89915260677E+02  0.00000000000E+00 0.  1.
         13    1    5    5    0    0  0.17302046738E+02 -0.22871843896E+02  0.76281438161E+00  0.28689091138E+02  0.00000000000E+00 0.  1.
        -13    1    5    5    0    0  0.48960838414E+03 -0.35147678287E+03  0.43298770123E+03  0.74211228809E+03  0.00000000000E+00 0. -1.
          3    1    6    6  503    0  0.22581676706E+03  0.40222943541E+03  0.22689459842E+03  0.51406506376E+03  0.00000000000E+00 0. -1.
         -3    1    6    6    0  503  0.80508024299E+02  0.69851751176E+02  0.28066580579E+02  0.11022042490E+03  0.00000000000E+00 0.  1.
<mgrwt>
<rscale>  0 0.20493255E+04</rscale>
<asrwt>0</asrwt>
<pdfrwt beam="1">  1        2 0.29447746E+00 0.20493255E+04</pdfrwt>
<pdfrwt beam="2">  1       -1 0.84388470E-01 0.20493255E+04</pdfrwt>
<totfact> 0.10926669E+01</totfact>
</mgrwt>
</event>
<event>
12    7  0.1546317E-007  0.1402954E+04  0.7818608E-02  0.8951683E-01
         -1   -1    0    0    0  501 -0.00000000000E+00  0.00000000000E+00  0.23883267893E+03  0.23883267893E+03  0.00000000000E+00 0.  1.
          2   -1    0    0  501    0  0.00000000000E+00 -0.00000000000E+00 -0.20603122010E+04  0.20603122010E+04  0.00000000000E+00 0. -1.
         24    2    1    2    0    0  0.63297455305E+02 -0.28181914440E+03 -0.66439104664E+02  0.30835829138E+03  0.85100430287E+02 0.  0.
        254    2    1    2    0    0 -0.63297455305E+02  0.28181914440E+03 -0.17550404174E+04  0.19907865885E+04  0.89422356067E+03 0.  0.
         23    2    4    4    0    0 -0.45672176745E+03  0.23076714694E+03 -0.11458542225E+04  0.12582251151E+04  0.91105938679E+02 0.  0.
         23    2    4    4    0    0  0.39342431215E+03  0.51051997454E+02 -0.60918619489E+03  0.73256147345E+03  0.90274561774E+02 0.  0.
          4    1    3    3  502    0  0.36452274917E+02 -0.22900543565E+03 -0.83890579224E+02  0.24659660822E+03  0.00000000000E+00 0. -1.
         -3    1    3    3    0  502  0.26845180388E+02 -0.52813708747E+02  0.17451474561E+02  0.61761683154E+02  0.00000000000E+00 0.  1.
         13    1    5    5    0    0 -0.86622409805E+02  0.38846721959E+02 -0.13753337202E+03  0.16711654050E+03  0.00000000000E+00 0.  1.
        -13    1    5    5    0    0 -0.37009935765E+03  0.19192042498E+03 -0.10083208505E+04  0.10911085746E+04  0.00000000000E+00 0. -1.
          1    1    6    6  503    0  0.29876642627E+03  0.57708676411E+02 -0.39764961979E+03  0.50071637573E+03  0.00000000000E+00 0. -1.
         -1    1    6    6    0  503  0.94657885873E+02 -0.66566789564E+01 -0.21153657510E+03  0.23184509772E+03  0.00000000000E+00 0.  1.
<mgrwt>
<rscale>  0 0.14029539E+04</rscale>
<asrwt>0</asrwt>
<pdfrwt beam="1">  1        2 0.31697111E+00 0.14029539E+04</pdfrwt>
<pdfrwt beam="2">  1       -1 0.36743489E-01 0.14029539E+04</pdfrwt>
<totfact> 0.48767964E+01</totfact>
</mgrwt>
</event>
<event>
12    7  0.1546317E-007  0.2841516E+04  0.7818608E-02  0.8290494E-01
          2   -1    0    0  501    0  0.00000000000E+00  0.00000000000E+00  0.16102423594E+04  0.16102423594E+04  0.00000000000E+00 0. -1.
         -1   -1    0    0    0  501 -0.00000000000E+00 -0.00000000000E+00 -0.12535710037E+04  0.12535710037E+04  0.00000000000E+00 0.  1.
         24    2    1    2    0    0  0.36130073872E+03  0.12173005823E+04  0.26394472637E+03  0.12994632492E+04  0.81110948235E+02 0.  0.
        254    2    1    2    0    0 -0.36130073872E+03 -0.12173005823E+04  0.92726629242E+02  0.15643501139E+04  0.90897421277E+03 0.  0.
         23    2    4    4    0    0 -0.50357940705E+03 -0.25289067868E+03  0.12592796604E+03  0.58461645005E+03  0.91502057184E+02 0.  0.
         23    2    4    4    0    0  0.14227866832E+03 -0.96440990366E+03 -0.33201336802E+02  0.97973366384E+03  0.91902347980E+02 0.  0.
          4    1    3    3  502    0  0.35555178445E+03  0.11279748053E+04  0.25092081984E+03  0.12090101284E+04  0.00000000000E+00 0. -1.
         -3    1    3    3    0  502  0.57489542781E+01  0.89325777057E+02  0.13023906523E+02  0.90453120804E+02  0.00000000000E+00 0.  1.
         13    1    5    5    0    0 -0.22956255994E+03 -0.16229170583E+03  0.43594480888E+02  0.28449612558E+03  0.00000000000E+00 0. -1.
        -13    1    5    5    0    0 -0.27401684711E+03 -0.90598972856E+02  0.82333485157E+02  0.30012032447E+03  0.00000000000E+00 0.  1.
          4    1    6    6  503    0  0.91832776453E+02 -0.47304348952E+03  0.24068605403E+02  0.48247559480E+03  0.00000000000E+00 0. -1.
         -4    1    6    6    0  503  0.50445891871E+02 -0.49136641414E+03 -0.57269942206E+02  0.49725806904E+03  0.00000000000E+00 0.  1.
<mgrwt>
<rscale>  0 0.28415159E+04</rscale>
<asrwt>0</asrwt>
<pdfrwt beam="1">  1        2 0.24772959E+00 0.28415159E+04</pdfrwt>
<pdfrwt beam="2">  1       -1 0.19285708E+00 0.28415159E+04</pdfrwt>
<totfact> 0.18335436E+00</totfact>
</mgrwt>
</event>
<event>
12    7  0.1546317E-007  0.1002731E+04  0.7818608E-02  0.9305554E-01
          2   -1    0    0  501    0  0.00000000000E+00  0.00000000000E+00  0.93941417107E+03  0.93941417107E+03  0.00000000000E+00 0. -1.
         -1   -1    0    0    0  501 -0.00000000000E+00 -0.00000000000E+00 -0.26757889377E+03  0.26757889377E+03  0.00000000000E+00 0.  1.
         24    2    1    2    0    0  0.23852956975E+02  0.40884674093E+02  0.25664060400E+02  0.96784753528E+02  0.80424650371E+02 0.  0.
        254    2    1    2    0    0 -0.23852956975E+02 -0.40884674093E+02  0.64617121690E+03  0.11102083113E+04  0.90154574638E+03 0.  0.
         23    2    4    4    0    0  0.42681253779E+03  0.25077145011E+02  0.32630733332E+03  0.54620905666E+03  0.95236821556E+02 0.  0.
         23    2    4    4    0    0 -0.45066549476E+03 -0.65961819103E+02  0.31986388358E+03  0.56399925466E+03  0.91279271944E+02 0.  0.
          4    1    3    3  502    0 -0.13706563585E+02 -0.15223146295E+02  0.20639306297E+02  0.29079116783E+02  0.00000000000E+00 0. -1.
         -3    1    3    3    0  502  0.37559520560E+02  0.56107820388E+02  0.50247541030E+01  0.67705636746E+02  0.00000000000E+00 0.  1.
         13    1    5    5    0    0  0.27013399201E+03 -0.19769127759E+02  0.16638457701E+03  0.31787893846E+03  0.00000000000E+00 0. -1.
        -13    1    5    5    0    0  0.15667854578E+03  0.44846272770E+02  0.15992275631E+03  0.22833011819E+03  0.00000000000E+00 0.  1.
          3    1    6    6  503    0 -0.44354278352E+03 -0.65430227398E+02  0.32619897243E+03  0.55445205842E+03  0.00000000000E+00 0. -1.
         -3    1    6    6    0  503 -0.71227112407E+01 -0.53159170559E+00 -0.63350888545E+01  0.95471962352E+01  0.00000000000E+00 0.  1.
<mgrwt>
<rscale>  0 0.10027311E+04</rscale>
<asrwt>0</asrwt>
<pdfrwt beam="1">  1        2 0.14452526E+00 0.10027311E+04</pdfrwt>
<pdfrwt beam="2">  1       -1 0.41165984E-01 0.10027311E+04</pdfrwt>
<totfact> 0.18132289E+02</totfact>
</mgrwt>
</event>
<event>
12    7  0.1546317E-007  0.1396941E+04  0.7818608E-02  0.8956036E-01
         -1   -1    0    0    0  501 -0.00000000000E+00  0.00000000000E+00  0.19580062480E+03  0.19580062480E+03  0.00000000000E+00 0.  1.
          2   -1    0    0  501    0  0.00000000000E+00 -0.00000000000E+00 -0.24916212405E+04  0.24916212405E+04  0.00000000000E+00 0. -1.
         24    2    1    2    0    0  0.21581498332E+03 -0.42653878851E+02 -0.13166161886E+04  0.13372712046E+04  0.80128809120E+02 0.  0.
        254    2    1    2    0    0 -0.21581498332E+03  0.42653878851E+02 -0.97920442708E+03  0.13501506607E+04  0.90314452677E+03 0.  0.
         23    2    4    4    0    0 -0.35232890252E+03  0.37153879914E+03 -0.76002775610E+03  0.92094024645E+03  0.91170240087E+02 0.  0.
         23    2    4    4    0    0  0.13651391920E+03 -0.32888492029E+03 -0.21917667098E+03  0.42921041427E+03  0.96859824955E+02 0.  0.
          4    1    3    3  502    0  0.20670010397E+03 -0.53391046190E+02 -0.12856278647E+04  0.13032323444E+04  0.00000000000E+00 0. -1.
         -3    1    3    3    0  502  0.91148793509E+01  0.10737167339E+02 -0.30988323900E+02  0.34038860237E+02  0.00000000000E+00 0.  1.
         13    1    5    5    0    0 -0.50975209013E+02  0.22368987393E+02 -0.11736113334E+03  0.12989410744E+03  0.00000000000E+00 0. -1.
        -13    1    5    5    0    0 -0.30135369351E+03  0.34916981175E+03 -0.64266662276E+03  0.79104613901E+03  0.00000000000E+00 0.  1.
          3    1    6    6  503    0  0.53064060001E+02 -0.51611453985E+02 -0.16707665648E+02  0.75885985120E+02  0.00000000000E+00 0. -1.
         -3    1    6    6    0  503  0.83449859198E+02 -0.27727346630E+03 -0.20246900534E+03  0.35332442915E+03  0.00000000000E+00 0.  1.
<mgrwt>
<rscale>  0 0.13969409E+04</rscale>
<asrwt>0</asrwt>
<pdfrwt beam="1">  1        2 0.38332634E+00 0.13969409E+04</pdfrwt>
<pdfrwt beam="2">  1       -1 0.30123174E-01 0.13969409E+04</pdfrwt>
<totfact> 0.39685153E+01</totfact>
</mgrwt>
</event>
<event>
12    7  0.1546317E-007  0.2110551E+04  0.7818608E-02  0.8556610E-01
         -1   -1    0    0    0  501 -0.00000000000E+00  0.00000000000E+00  0.20307262700E+04  0.20307262700E+04  0.00000000000E+00 0.  1.
          2   -1    0    0  501    0  0.00000000000E+00 -0.00000000000E+00 -0.54837831473E+03  0.54837831473E+03  0.00000000000E+00 0. -1.
         24    2    1    2    0    0 -0.42283559373E+03  0.29492527929E+03  0.14522639390E+04  0.15431588953E+04  0.80609973784E+02 0.  0.
        254    2    1    2    0    0  0.42283559373E+03 -0.29492527929E+03  0.30084016233E+02  0.10359456894E+04  0.89805766167E+03 0.  0.
         23    2    4    4    0    0 -0.23666405728E+03  0.72735741009E+02  0.74126929673E+02  0.27388104617E+03  0.90640287500E+02 0.  0.
         23    2    4    4    0    0  0.65949965101E+03 -0.36766102030E+03 -0.44042913440E+02  0.76206464324E+03  0.93211194198E+02 0.  0.
          4    1    3    3  502    0 -0.84923575224E+02  0.80266249574E+02  0.42106866330E+03  0.43698226927E+03  0.00000000000E+00 0. -1.
         -3    1    3    3    0  502 -0.33791201850E+03  0.21465902971E+03  0.10311952757E+04  0.11061766260E+04  0.00000000000E+00 0.  1.
         13    1    5    5    0    0 -0.23610774391E+03  0.56388651113E+02  0.55348515554E+02  0.24897792047E+03  0.00000000000E+00 0. -1.
        -13    1    5    5    0    0 -0.55631337262E+00  0.16347089896E+02  0.18778414119E+02  0.24903125696E+02  0.00000000000E+00 0.  1.
          1    1    6    6  503    0  0.55530154457E+03 -0.27230308736E+03 -0.20067234481E+02  0.61879840876E+03  0.00000000000E+00 0. -1.
         -1    1    6    6    0  503  0.10419810644E+03 -0.95357932938E+02 -0.23975678959E+02  0.14326623448E+03  0.00000000000E+00 0.  1.
<mgrwt>
<rscale>  0 0.21105509E+04</rscale>
<asrwt>0</asrwt>
<pdfrwt beam="1">  1        2 0.84365896E-01 0.21105509E+04</pdfrwt>
<pdfrwt beam="2">  1       -1 0.31241942E+00 0.21105509E+04</pdfrwt>
<totfact> 0.15940830E+00</totfact>
</mgrwt>
</event>
<event>
12    7  0.1546317E-007  0.2691514E+04  0.7818608E-02  0.8337763E-01
         -1   -1    0    0    0  501 -0.00000000000E+00  0.00000000000E+00  0.10339761380E+04  0.10339761380E+04  0.00000000000E+00 0.  1.
          2   -1    0    0  501    0  0.00000000000E+00 -0.00000000000E+00 -0.17515515867E+04  0.17515515867E+04  0.00000000000E+00 0. -1.
         24    2    1    2    0    0  0.88837675616E+02 -0.71681755781E+03  0.66537972197E+03  0.98531744830E+03  0.80004723115E+02 0.  0.
        254    2    1    2    0    0 -0.88837675616E+02  0.71681755781E+03 -0.13829551707E+04  0.18002102765E+04  0.89803813478E+03 0.  0.
         23    2    4    4    0    0  0.25211707032E+03  0.29014209039E+03 -0.10726606537E+03  0.40954065952E+03  0.92043974579E+02 0.  0.
         23    2    4    4    0    0 -0.34095474593E+03  0.42667546742E+03 -0.12756891053E+04  0.13906696169E+04  0.90979100711E+02 0.  0.
          4    1    3    3  502    0 -0.49841137501E+01 -0.17241309649E+03  0.12961223191E+03  0.21575552807E+03  0.00000000000E+00 0. -1.
         -3    1    3    3    0  502  0.93821789366E+02 -0.54440446132E+03  0.53576749006E+03  0.76956192023E+03  0.00000000000E+00 0.  1.
         13    1    5    5    0    0  0.23336391463E+03  0.28559987553E+03 -0.11828488337E+03  0.38732069295E+03  0.00000000000E+00 0. -1.
        -13    1    5    5    0    0  0.18753155688E+02  0.45422148599E+01  0.11018818000E+02  0.22219966566E+02  0.00000000000E+00 0.  1.
          1    1    6    6  503    0 -0.23028047741E+03  0.35003358110E+03 -0.95491472966E+03  0.10427918043E+04  0.00000000000E+00 0. -1.
         -1    1    6    6    0  503 -0.11067426852E+03  0.76641886321E+02 -0.32077437566E+03  0.34787781265E+03  0.00000000000E+00 0.  1.
<mgrwt>
<rscale>  0 0.26915145E+04</rscale>
<asrwt>0</asrwt>
<pdfrwt beam="1">  1        2 0.26946947E+00 0.26915145E+04</pdfrwt>
<pdfrwt beam="2">  1       -1 0.15907325E+00 0.26915145E+04</pdfrwt>
<totfact> 0.27248284E+00</totfact>
</mgrwt>
</event>
<event>
12    7  0.1546317E-007  0.1076178E+04  0.7818608E-02  0.9228726E-01
         -3   -1    0    0    0  501 -0.00000000000E+00  0.00000000000E+00  0.11531899475E+03  0.11531899475E+03  0.00000000000E+00 0.  1.
          4   -1    0    0  501    0  0.00000000000E+00 -0.00000000000E+00 -0.25107730856E+04  0.25107730856E+04  0.00000000000E+00 0. -1.
         24    2    1    2    0    0  0.34981872816E+02 -0.10857556282E+03 -0.17138164108E+03  0.22154200723E+03  0.81834038165E+02 0.  0.
        254    2    1    2    0    0 -0.34981872816E+02  0.10857556282E+03 -0.22240724498E+04  0.24045500732E+04  0.90683538091E+03 0.  0.
         23    2    4    4    0    0 -0.46880990174E+02  0.24789289424E+02 -0.22733187237E+04  0.22757454986E+04  0.90704016299E+02 0.  0.
         23    2    4    4    0    0  0.11899117358E+02  0.83786273393E+02  0.49246273939E+02  0.12880457455E+03  0.83688077563E+02 0.  0.
          4    1    3    3  502    0  0.23881180513E+02 -0.97005172006E+02 -0.17806142625E+03  0.20417195130E+03  0.00000000000E+00 0. -1.
         -3    1    3    3    0  502  0.11100692303E+02 -0.11570390811E+02  0.66797851730E+01  0.17370055932E+02  0.00000000000E+00 0.  1.
         13    1    5    5    0    0 -0.30569792439E+02 -0.29227255837E+02 -0.60697299849E+03  0.60844471038E+03  0.00000000000E+00 0.  1.
        -13    1    5    5    0    0 -0.16311197735E+02  0.54016545261E+02 -0.16663457252E+04  0.16673007882E+04  0.00000000000E+00 0. -1.
          4    1    6    6  503    0 -0.15627720125E+02 -0.66338465720E+01  0.26691511972E+02  0.31633374275E+02  0.00000000000E+00 0. -1.
         -4    1    6    6    0  503  0.27526837483E+02  0.90420119965E+02  0.22554761967E+02  0.97171200279E+02  0.00000000000E+00 0.  1.
<mgrwt>
<rscale>  0 0.10761781E+04</rscale>
<asrwt>0</asrwt>
<pdfrwt beam="1">  1        4 0.38627281E+00 0.10761781E+04</pdfrwt>
<pdfrwt beam="2">  1       -3 0.17741383E-01 0.10761781E+04</pdfrwt>
<totfact> 0.56620869E-01</totfact>
</mgrwt>
</event>
<event>
12    7  0.1546317E-007  0.3368607E+04  0.7818608E-02  0.8145654E-01
         -1   -1    0    0    0  501 -0.00000000000E+00  0.00000000000E+00  0.97606770942E+03  0.97606770942E+03  0.00000000000E+00 0.  1.
          2   -1    0    0  501    0  0.00000000000E+00 -0.00000000000E+00 -0.29064363254E+04  0.29064363254E+04  0.00000000000E+00 0. -1.
         24    2    1    2    0    0  0.11251857014E+04  0.86165575272E+02 -0.21344500449E+04  0.24157309238E+04  0.80072048379E+02 0.  0.
        254    2    1    2    0    0 -0.11251857014E+04 -0.86165575272E+02  0.20408142889E+03  0.14667731111E+04  0.91449809229E+03 0.  0.
         23    2    4    4    0    0 -0.11296936742E+04 -0.27699702578E+03 -0.86596048543E+01  0.11668551716E+04  0.92416736265E+02 0.  0.
         23    2    4    4    0    0  0.45079727637E+01  0.19083145050E+03  0.21274103374E+03  0.29991793943E+03  0.90857353219E+02 0.  0.
          2    1    3    3  502    0  0.69250348913E+03  0.84557747354E+02 -0.12679597681E+04  0.14472156262E+04  0.00000000000E+00 0. -1.
         -1    1    3    3    0  502  0.43268221226E+03  0.16078279181E+01 -0.86649027675E+03  0.96851529756E+03  0.00000000000E+00 0.  1.
         13    1    5    5    0    0 -0.77574587937E+03 -0.14622590991E+03 -0.12367301139E+02  0.78950404446E+03  0.00000000000E+00 0.  1.
        -13    1    5    5    0    0 -0.35394779478E+03 -0.13077111587E+03  0.37076962843E+01  0.37735112719E+03  0.00000000000E+00 0. -1.
          1    1    6    6  503    0 -0.31722329834E+02  0.63929903063E+02  0.37736536665E+02  0.80730322155E+02  0.00000000000E+00 0. -1.
         -1    1    6    6    0  503  0.36230302598E+02  0.12690154744E+03  0.17500449708E+03  0.21918761728E+03  0.00000000000E+00 0.  1.
<mgrwt>
<rscale>  0 0.33686072E+04</rscale>
<asrwt>0</asrwt>
<pdfrwt beam="1">  1        2 0.44714404E+00 0.33686072E+04</pdfrwt>
<pdfrwt beam="2">  1       -1 0.15016427E+00 0.33686072E+04</pdfrwt>
<totfact> 0.65292330E-01</totfact>
</mgrwt>
</event>
<event>
12    7  0.1546317E-007  0.2473441E+04  0.7818608E-02  0.8412509E-01
          2   -1    0    0  501    0  0.00000000000E+00  0.00000000000E+00  0.27895127394E+04  0.27895127394E+04  0.00000000000E+00 0. -1.
         -1   -1    0    0    0  501 -0.00000000000E+00 -0.00000000000E+00 -0.54829543517E+03  0.54829543517E+03  0.00000000000E+00 0.  1.
         24    2    1    2    0    0 -0.81054640961E+03  0.66846905434E+03  0.12888689930E+04  0.16645441935E+04  0.75417054326E+02 0.  0.
        254    2    1    2    0    0  0.81054640961E+03 -0.66846905434E+03  0.95234831121E+03  0.16732639811E+04  0.88826160889E+03 0.  0.
         23    2    4    4    0    0  0.50283730643E+03 -0.72880896885E+03  0.10062430391E+04  0.13433486259E+04  0.89736320099E+02 0.  0.
         23    2    4    4    0    0  0.30770910318E+03  0.60339914501E+02 -0.53894727859E+02  0.32991535523E+03  0.87256532477E+02 0.  0.
          4    1    3    3  502    0 -0.68138359768E+03  0.52694257625E+03  0.10710144054E+04  0.13744176739E+04  0.00000000000E+00 0. -1.
         -3    1    3    3    0  502 -0.12916281193E+03  0.14152647809E+03  0.21785458762E+03  0.29012651953E+03  0.00000000000E+00 0.  1.
         13    1    5    5    0    0  0.23300286799E+03 -0.30602969254E+03  0.49870739339E+03  0.62980439299E+03  0.00000000000E+00 0.  1.
        -13    1    5    5    0    0  0.26983443844E+03 -0.42277927630E+03  0.50753564568E+03  0.71354423288E+03  0.00000000000E+00 0. -1.
          3    1    6    6  503    0  0.23554019916E+03  0.83118805624E+02 -0.43229647216E+02  0.25348909970E+03  0.00000000000E+00 0. -1.
         -3    1    6    6    0  503  0.72168904025E+02 -0.22778891123E+02 -0.10665080643E+02  0.76426255528E+02  0.00000000000E+00 0.  1.
<mgrwt>
<rscale>  0 0.24734406E+04</rscale>
<asrwt>0</asrwt>
<pdfrwt beam="1">  1        2 0.42915580E+00 0.24734406E+04</pdfrwt>
<pdfrwt beam="2">  1       -1 0.84353145E-01 0.24734406E+04</pdfrwt>
<totfact> 0.33202738E+00</totfact>
</mgrwt>
</event>
<event>
12    7  0.1546317E-007  0.1731585E+04  0.7818608E-02  0.8743552E-01
          2   -1    0    0  501    0  0.00000000000E+00  0.00000000000E+00  0.21097753866E+04  0.21097753866E+04  0.00000000000E+00 0. -1.
         -1   -1    0    0    0  501 -0.00000000000E+00 -0.00000000000E+00 -0.35529697623E+03  0.35529697623E+03  0.00000000000E+00 0.  1.
         24    2    1    2    0    0 -0.10650165779E+03 -0.17011091715E+02  0.15268856515E+04  0.15327559746E+04  0.79555669709E+02 0.  0.
        254    2    1    2    0    0  0.10650165779E+03  0.17011091715E+02  0.22759275882E+03  0.93231638816E+03  0.89765438974E+03 0.  0.
         23    2    4    4    0    0 -0.36000806307E+03 -0.13868205331E+03  0.41421563873E+02  0.39844334871E+03  0.90569524657E+02 0.  0.
         23    2    4    4    0    0  0.46650972085E+03  0.15569314503E+03  0.18617119494E+03  0.53387303945E+03  0.92135950465E+02 0.  0.
          4    1    3    3  502    0 -0.10887426046E+03 -0.40945066939E+01  0.10396247529E+04  0.10453181316E+04  0.00000000000E+00 0. -1.
         -3    1    3    3    0  502  0.23726026773E+01 -0.12916585021E+02  0.48726089868E+03  0.48743784300E+03  0.00000000000E+00 0.  1.
         13    1    5    5    0    0 -0.10127433046E+03 -0.25124623107E+02  0.50109733138E+02  0.11575284900E+03  0.00000000000E+00 0. -1.
        -13    1    5    5    0    0 -0.25873373261E+03 -0.11355743020E+03 -0.86881692651E+01  0.28269049972E+03  0.00000000000E+00 0.  1.
          3    1    6    6  503    0  0.31428394524E+03  0.70116476488E+02  0.89255892275E+02  0.33415166140E+03  0.00000000000E+00 0. -1.
         -3    1    6    6    0  503  0.15222577561E+03  0.85576668538E+02  0.96915302667E+02  0.19972137804E+03  0.00000000000E+00 0.  1.
<mgrwt>
<rscale>  0 0.17315852E+04</rscale>
<asrwt>0</asrwt>
<pdfrwt beam="1">  1        2 0.32458082E+00 0.17315852E+04</pdfrwt>
<pdfrwt beam="2">  1       -1 0.54661075E-01 0.17315852E+04</pdfrwt>
<totfact> 0.21214655E+01</totfact>
</mgrwt>
</event>
<event>
12    7  0.1546317E-007  0.2456235E+04  0.7818608E-02  0.8418745E-01
         -3   -1    0    0    0  501 -0.00000000000E+00  0.00000000000E+00  0.64169501185E+03  0.64169501185E+03  0.00000000000E+00 0.  1.
          4   -1    0    0  501    0  0.00000000000E+00 -0.00000000000E+00 -0.23504505179E+04  0.23504505179E+04  0.00000000000E+00 0. -1.
         24    2    1    2    0    0 -0.15373546384E+03  0.23365237977E+03  0.50982315617E+03  0.58688852326E+03  0.79312424964E+02 0.  0.
        254    2    1    2    0    0  0.15373546384E+03 -0.23365237977E+03 -0.22185786622E+04  0.24052570065E+04  0.88596950254E+03 0.  0.
         23    2    4    4    0    0  0.51045469622E+03 -0.16596376268E+03 -0.11360994554E+04  0.12596577451E+04  0.88925220546E+02 0.  0.
         23    2    4    4    0    0 -0.35671923238E+03 -0.67688617084E+02 -0.10824792069E+04  0.11455992614E+04  0.93840688688E+02 0.  0.
          2    1    3    3  502    0 -0.76169449263E+02  0.11979808058E+03  0.33837456870E+03  0.36694783534E+03  0.00000000000E+00 0. -1.
         -1    1    3    3    0  502 -0.77566014579E+02  0.11385429918E+03  0.17144858746E+03  0.21994068792E+03  0.00000000000E+00 0.  1.
         13    1    5    5    0    0  0.42958629526E+03 -0.15757505378E+03 -0.89442609201E+03  0.10046752295E+04  0.00000000000E+00 0. -1.
        -13    1    5    5    0    0  0.80868400961E+02 -0.83887089015E+01 -0.24167336337E+03  0.25498251562E+03  0.00000000000E+00 0.  1.
          4    1    6    6  503    0 -0.35217889860E+03 -0.77152094229E+02 -0.10709526186E+04  0.11300097050E+04  0.00000000000E+00 0. -1.
         -4    1    6    6    0  503 -0.45403337789E+01  0.94634771454E+01 -0.11526588282E+02  0.15589556373E+02  0.00000000000E+00 0.  1.
<mgrwt>
<rscale>  0 0.24562348E+04</rscale>
<asrwt>0</asrwt>
<pdfrwt beam="1">  1        4 0.36160777E+00 0.24562348E+04</pdfrwt>
<pdfrwt beam="2">  1       -3 0.98722310E-01 0.24562348E+04</pdfrwt>
<totfact> 0.22795130E-02</totfact>
</mgrwt>
</event>
<event>
12    7  0.1546317E-007  0.1841341E+04  0.7818608E-02  0.8684619E-01
          2   -1    0    0  501    0  0.00000000000E+00  0.00000000000E+00  0.17037854218E+04  0.17037854218E+04  0.00000000000E+00 0. -1.
         -1   -1    0    0    0  501 -0.00000000000E+00 -0.00000000000E+00 -0.49750058986E+03  0.49750058986E+03  0.00000000000E+00 0.  1.
         24    2    1    2    0    0 -0.29018201876E+03  0.56417126195E+03  0.13505884147E+03  0.65413985260E+03  0.84635921913E+02 0.  0.
        254    2    1    2    0    0  0.29018201876E+03 -0.56417126195E+03  0.10712259904E+04  0.15471461590E+04  0.91849948176E+03 0.  0.
         23    2    4    4    0    0  0.47984930259E+03 -0.78136273167E+02  0.21352070017E+03  0.53934634690E+03  0.94566178566E+02 0.  0.
         23    2    4    4    0    0 -0.18966728383E+03 -0.48603498878E+03  0.85770529027E+03  0.10077998121E+04  0.88308592468E+02 0.  0.
          2    1    3    3  502    0 -0.29077483779E+03  0.51938904995E+03  0.12676963139E+03  0.60859307500E+03  0.00000000000E+00 0. -1.
         -1    1    3    3    0  502  0.59281902251E+00  0.44782211996E+02  0.82892100850E+01  0.45546777597E+02  0.00000000000E+00 0.  1.
         13    1    5    5    0    0  0.18715183008E+03 -0.72536802651E+02  0.64343742432E+02  0.21077834906E+03  0.00000000000E+00 0. -1.
        -13    1    5    5    0    0  0.29269747251E+03 -0.55994705161E+01  0.14917695774E+03  0.32856799784E+03  0.00000000000E+00 0.  1.
          1    1    6    6  503    0 -0.83335327560E+01 -0.11586768833E+02  0.47017575177E+01  0.15026892691E+02  0.00000000000E+00 0. -1.
         -1    1    6    6    0  503 -0.18133375108E+03 -0.47444821995E+03  0.85300353275E+03  0.99277291944E+03  0.00000000000E+00 0.  1.
<mgrwt>
<rscale>  0 0.18413411E+04</rscale>
<asrwt>0</asrwt>
<pdfrwt beam="1">  1        2 0.26212083E+00 0.18413411E+04</pdfrwt>
<pdfrwt beam="2">  1       -1 0.76538553E-01 0.18413411E+04</pdfrwt>
<totfact> 0.17919909E+01</totfact>
</mgrwt>
</event>
<event>
12    7  0.1546317E-007  0.2371244E+04  0.7818608E-02  0.8450349E-01
         -1   -1    0    0    0  501 -0.00000000000E+00  0.00000000000E+00  0.47228186532E+03  0.47228186532E+03  0.00000000000E+00 0.  1.
          2   -1    0    0  501    0  0.00000000000E+00 -0.00000000000E+00 -0.29763993545E+04  0.29763993545E+04  0.00000000000E+00 0. -1.
         24    2    1    2    0    0  0.16440164622E+03 -0.58128857833E+03 -0.22377090261E+04  0.23191424036E+04  0.78456932450E+02 0.  0.
        254    2    1    2    0    0 -0.16440164622E+03  0.58128857833E+03 -0.26640846306E+03  0.11295388162E+04  0.91649340176E+03 0.  0.
         23    2    4    4    0    0 -0.76788976155E+02  0.69967533589E+03 -0.47794193653E+03  0.85589912710E+03  0.93234642453E+02 0.  0.
         23    2    4    4    0    0 -0.87612670065E+02 -0.11838675756E+03  0.21153347347E+03  0.27363968908E+03  0.91874178729E+02 0.  0.
          4    1    3    3  502    0  0.10176469892E+03 -0.45854029062E+03 -0.17985164729E+04  0.18588374742E+04  0.00000000000E+00 0. -1.
         -3    1    3    3    0  502  0.62636947304E+02 -0.12274828772E+03 -0.43919255318E+03  0.46030492945E+03  0.00000000000E+00 0.  1.
         13    1    5    5    0    0 -0.70697705869E+02  0.69892916369E+03 -0.46765325100E+03  0.84391925244E+03  0.00000000000E+00 0. -1.
        -13    1    5    5    0    0 -0.60912702864E+01  0.74617219838E+00 -0.10288685536E+02  0.11979874653E+02  0.00000000000E+00 0.  1.
          3    1    6    6  503    0 -0.47091897456E+02 -0.11326896917E+03  0.19324097457E+03  0.22888770267E+03  0.00000000000E+00 0. -1.
         -3    1    6    6    0  503 -0.40520772609E+02 -0.51177883877E+01  0.18292498904E+02  0.44751986402E+02  0.00000000000E+00 0.  1.
<mgrwt>
<rscale>  0 0.23712439E+04</rscale>
<asrwt>0</asrwt>
<pdfrwt beam="1">  1        2 0.45790760E+00 0.23712439E+04</pdfrwt>
<pdfrwt beam="2">  1       -1 0.72658748E-01 0.23712439E+04</pdfrwt>
<totfact> 0.35299002E+00</totfact>
</mgrwt>
</event>
<event>
12    7  0.1776836E-007  0.2515870E+04  0.7818608E-02  0.8397354E-01
         -1   -1    0    0    0  501 -0.00000000000E+00  0.00000000000E+00  0.77729799536E+03  0.77729799536E+03  0.00000000000E+00 0.  1.
          2   -1    0    0  501    0  0.00000000000E+00 -0.00000000000E+00 -0.20357704570E+04  0.20357704570E+04  0.00000000000E+00 0. -1.
         24    2    1    2    0    0  0.49909985427E+03 -0.90584014009E+03 -0.18454594187E+03  0.10536440047E+04  0.80383207066E+02 0.  0.
        254    2    1    2    0    0 -0.49909985427E+03  0.90584014009E+03 -0.10739265197E+04  0.17594244477E+04  0.93413553261E+03 0.  0.
         23    2    4    4    0    0 -0.32471802817E+03  0.23828864795E+03 -0.97196321437E+03  0.10561394156E+04  0.92166683859E+02 0.  0.
         23    2    4    4    0    0 -0.17438182610E+03  0.66755149214E+03 -0.10196330537E+03  0.70328503202E+03  0.90439508447E+02 0.  0.
          2    1    3    3  502    0  0.13694608091E+03 -0.25277481075E+03 -0.14998090626E+02  0.28787892724E+03  0.00000000000E+00 0. -1.
         -1    1    3    3    0  502  0.36215377336E+03 -0.65306532934E+03 -0.16954785124E+03  0.76576507743E+03  0.00000000000E+00 0.  1.
         13    1    5    5    0    0 -0.25598064620E+03  0.19647762006E+03 -0.85768717942E+03  0.91638247700E+03  0.00000000000E+00 0. -1.
        -13    1    5    5    0    0 -0.68737381969E+02  0.41811027887E+02 -0.11427603495E+03  0.13975693864E+03  0.00000000000E+00 0.  1.
          2    1    6    6  503    0 -0.17962736614E+03  0.61899234606E+03 -0.79125158129E+02  0.64936761991E+03  0.00000000000E+00 0. -1.
         -2    1    6    6    0  503  0.52455400425E+01  0.48559146082E+02 -0.22838147242E+02  0.53917412105E+02  0.00000000000E+00 0.  1.
<mgrwt>
<rscale>  0 0.25158699E+04</rscale>
<asrwt>0</asrwt>
<pdfrwt beam="1">  1        2 0.31319545E+00 0.25158699E+04</pdfrwt>
<pdfrwt beam="2">  1       -1 0.11958431E+00 0.25158699E+04</pdfrwt>
<totfact> 0.40379086E+00</totfact>
</mgrwt>
</event>
<event>
12    7  0.1546317E-007  0.1867907E+04  0.7818608E-02  0.8670998E-01
         -1   -1    0    0    0  501 -0.00000000000E+00  0.00000000000E+00  0.70332785791E+03  0.70332785791E+03  0.00000000000E+00 0.  1.
          2   -1    0    0  501    0  0.00000000000E+00 -0.00000000000E+00 -0.12402024009E+04  0.12402024009E+04  0.00000000000E+00 0. -1.
         24    2    1    2    0    0 -0.57882242372E+03  0.39743858643E+03 -0.70012274346E+02  0.71018712696E+03  0.80443822293E+02 0.  0.
        254    2    1    2    0    0  0.57882242372E+03 -0.39743858643E+03 -0.46686226864E+03  0.12333431318E+04  0.90010114698E+03 0.  0.
         23    2    4    4    0    0  0.78725323114E+03 -0.20464888744E+03 -0.45217770964E+03  0.93517638731E+03  0.91876967750E+02 0.  0.
         23    2    4    4    0    0 -0.20843080742E+03 -0.19278969899E+03 -0.14684558994E+02  0.29816674453E+03  0.89869359381E+02 0.  0.
          2    1    3    3  502    0 -0.26404734484E+03  0.21554285409E+03 -0.51198902098E+01  0.34088991705E+03  0.00000000000E+00 0. -1.
         -1    1    3    3    0  502 -0.31477507888E+03  0.18189573234E+03 -0.64892384137E+02  0.36929720991E+03  0.00000000000E+00 0.  1.
         13    1    5    5    0    0  0.36376769927E+03 -0.62833959451E+02 -0.16605916114E+03  0.40478474587E+03  0.00000000000E+00 0.  1.
        -13    1    5    5    0    0  0.42348553187E+03 -0.14181492799E+03 -0.28611854850E+03  0.53039164144E+03  0.00000000000E+00 0. -1.
          2    1    6    6  503    0 -0.16695282559E+03 -0.14922779116E+03  0.26177891252E+02  0.22544946577E+03  0.00000000000E+00 0. -1.
         -2    1    6    6    0  503 -0.41477981832E+02 -0.43561907829E+02 -0.40862450246E+02  0.72717278763E+02  0.00000000000E+00 0.  1.
<mgrwt>
<rscale>  0 0.18679067E+04</rscale>
<asrwt>0</asrwt>
<pdfrwt beam="1">  1        2 0.19080037E+00 0.18679067E+04</pdfrwt>
<pdfrwt beam="2">  1       -1 0.10820429E+00 0.18679067E+04</pdfrwt>
<totfact> 0.15226985E+01</totfact>
</mgrwt>
</event>
<event>
12    7  0.1546317E-007  0.1847327E+04  0.7818608E-02  0.8681529E-01
          2   -1    0    0  501    0  0.00000000000E+00  0.00000000000E+00  0.21398843978E+04  0.21398843978E+04  0.00000000000E+00 0. -1.
         -1   -1    0    0    0  501 -0.00000000000E+00 -0.00000000000E+00 -0.39869184088E+03  0.39869184088E+03  0.00000000000E+00 0.  1.
         24    2    1    2    0    0 -0.45085616049E+02  0.14679477297E+03  0.15995585528E+04  0.16088406005E+04  0.78734336193E+02 0.  0.
        254    2    1    2    0    0  0.45085616049E+02 -0.14679477297E+03  0.14163400413E+03  0.92973563823E+03  0.90596178050E+03 0.  0.
         23    2    4    4    0    0  0.24894382551E+03  0.67593867305E+02  0.42651195257E+03  0.50904969871E+03  0.10333049361E+03 0.  0.
         23    2    4    4    0    0 -0.20385820946E+03 -0.21438864027E+03 -0.28487794844E+03  0.42068593952E+03  0.91107384785E+02 0.  0.
          4    1    3    3  502    0 -0.15059825265E+02  0.60850344475E+02  0.10432972847E+04  0.10451788302E+04  0.00000000000E+00 0. -1.
         -3    1    3    3    0  502 -0.30025790784E+02  0.85944428495E+02  0.55626126810E+03  0.56366177030E+03  0.00000000000E+00 0.  1.
         13    1    5    5    0    0  0.25427678778E+03  0.71721542149E+02  0.42717442621E+03  0.50227348608E+03  0.00000000000E+00 0.  1.
        -13    1    5    5    0    0 -0.53329622753E+01 -0.41276748439E+01 -0.66247363487E+00  0.67762126268E+01  0.00000000000E+00 0. -1.
          4    1    6    6  503    0 -0.85839514074E+02 -0.11911621397E+03 -0.19598312944E+03  0.24488054564E+03  0.00000000000E+00 0. -1.
         -4    1    6    6    0  503 -0.11801869538E+03 -0.95272426304E+02 -0.88894819003E+02  0.17580539389E+03  0.00000000000E+00 0.  1.
<mgrwt>
<rscale>  0 0.18473272E+04</rscale>
<asrwt>0</asrwt>
<pdfrwt beam="1">  1        2 0.32921298E+00 0.18473272E+04</pdfrwt>
<pdfrwt beam="2">  1       -1 0.61337207E-01 0.18473272E+04</pdfrwt>
<totfact> 0.16115652E+01</totfact>
</mgrwt>
</event>
<event>
12    7  0.1546317E-007  0.1367446E+04  0.7818608E-02  0.8977725E-01
          2   -1    0    0  501    0  0.00000000000E+00  0.00000000000E+00  0.18049596365E+04  0.18049596365E+04  0.00000000000E+00 0. -1.
         -1   -1    0    0    0  501 -0.00000000000E+00 -0.00000000000E+00 -0.25899604972E+03  0.25899604972E+03  0.00000000000E+00 0.  1.
         24    2    1    2    0    0  0.24600452302E+03  0.19113001094E+03  0.11127518168E+03  0.34023457982E+03  0.79551849899E+02 0.  0.
        254    2    1    2    0    0 -0.24600452302E+03 -0.19113001094E+03  0.14346884051E+04  0.17237211064E+04  0.90323569819E+03 0.  0.
         23    2    4    4    0    0  0.14800382169E+03  0.24728379159E+03  0.23612934152E+03  0.38462710840E+03  0.95532935545E+02 0.  0.
         23    2    4    4    0    0 -0.39400834471E+03 -0.43841380253E+03  0.11985590636E+04  0.13390939980E+04  0.95810587286E+02 0.  0.
          4    1    3    3  502    0  0.83735481088E+01  0.11081507219E+02 -0.11277646325E+02  0.17891378281E+02  0.00000000000E+00 0. -1.
         -3    1    3    3    0  502  0.23763097491E+03  0.18004850372E+03  0.12255282800E+03  0.32234320154E+03  0.00000000000E+00 0.  1.
         13    1    5    5    0    0  0.11557620579E+03  0.10016271547E+03  0.12123726571E+03  0.19516378637E+03  0.00000000000E+00 0.  1.
        -13    1    5    5    0    0  0.32427615908E+02  0.14712107611E+03  0.11489207581E+03  0.18946332203E+03  0.00000000000E+00 0. -1.
          3    1    6    6  503    0 -0.37735274617E+02 -0.95521664835E+02  0.20799787249E+03  0.23197296042E+03  0.00000000000E+00 0. -1.
         -3    1    6    6    0  503 -0.35627307009E+03 -0.34289213769E+03  0.99056119107E+03  0.11071210376E+04  0.00000000000E+00 0.  1.
<mgrwt>
<rscale>  0 0.13674464E+04</rscale>
<asrwt>0</asrwt>
<pdfrwt beam="1">  1        2 0.27768609E+00 0.13674464E+04</pdfrwt>
<pdfrwt beam="2">  1       -1 0.39845547E-01 0.13674464E+04</pdfrwt>
<totfact> 0.58461646E+01</totfact>
</mgrwt>
</event>
<event>
12    7  0.1546317E-007  0.2053291E+04  0.7818608E-02  0.8582103E-01
         -1   -1    0    0    0  501 -0.00000000000E+00  0.00000000000E+00  0.86169695963E+03  0.86169695963E+03  0.00000000000E+00 0.  1.
          2   -1    0    0  501    0  0.00000000000E+00 -0.00000000000E+00 -0.12231695286E+04  0.12231695286E+04  0.00000000000E+00 0. -1.
         24    2    1    2    0    0 -0.77878379885E+02  0.61161365015E+03 -0.72717606891E+03  0.95697610188E+03  0.82957370224E+02 0.  0.
        254    2    1    2    0    0  0.77878379885E+02 -0.61161365015E+03  0.36570349995E+03  0.11278903863E+04  0.87078204772E+03 0.  0.
         23    2    4    4    0    0  0.34225047761E+03 -0.45703132172E+03 -0.76075829679E+02  0.58307392905E+03  0.90413806554E+02 0.  0.
         23    2    4    4    0    0 -0.26437209773E+03 -0.15458232843E+03  0.44177932962E+03  0.54481645730E+03  0.88700021088E+02 0.  0.
          4    1    3    3  502    0 -0.93120474771E+02  0.56997639015E+03 -0.68187295263E+03  0.89358560400E+03  0.00000000000E+00 0. -1.
         -3    1    3    3    0  502  0.15242094886E+02  0.41637260008E+02 -0.45303116275E+02  0.63390497882E+02  0.00000000000E+00 0.  1.
         13    1    5    5    0    0  0.11830837585E+03 -0.97167288090E+02 -0.36424602916E+02  0.15736932791E+03  0.00000000000E+00 0. -1.
        -13    1    5    5    0    0  0.22394210176E+03 -0.35986403363E+03 -0.39651226763E+02  0.42570460113E+03  0.00000000000E+00 0.  1.
          3    1    6    6  503    0 -0.36204931846E+02 -0.56195963587E+02  0.63310594202E+02  0.92070705177E+02  0.00000000000E+00 0. -1.
         -3    1    6    6    0  503 -0.22816716588E+03 -0.98386364848E+02  0.37846873542E+03  0.45274575212E+03  0.00000000000E+00 0.  1.
<mgrwt>
<rscale>  0 0.20532915E+04</rscale>
<asrwt>0</asrwt>
<pdfrwt beam="1">  1        2 0.18817993E+00 0.20532915E+04</pdfrwt>
<pdfrwt beam="2">  1       -1 0.13256876E+00 0.20532915E+04</pdfrwt>
<totfact> 0.93380808E+00</totfact>
</mgrwt>
</event>
<event>
12    7  0.1546317E-007  0.1358082E+04  0.7818608E-02  0.8984733E-01
          2   -1    0    0  501    0  0.00000000000E+00  0.00000000000E+00  0.29733270869E+04  0.29733270869E+04  0.00000000000E+00 0. -1.
         -1   -1    0    0    0  501 -0.00000000000E+00 -0.00000000000E+00 -0.15507764123E+03  0.15507764123E+03  0.00000000000E+00 0.  1.
         24    2    1    2    0    0 -0.14360762762E+03  0.19500739306E+03  0.14550722657E+04  0.14771453496E+04  0.77923368631E+02 0.  0.
        254    2    1    2    0    0  0.14360762762E+03 -0.19500739306E+03  0.13631771799E+04  0.16512593784E+04  0.89986358803E+03 0.  0.
         23    2    4    4    0    0  0.27702544685E+03 -0.49735906254E+03  0.97838139502E+03  0.11356569439E+04  0.91528164392E+02 0.  0.
         23    2    4    4    0    0 -0.13341781923E+03  0.30235166948E+03  0.38479578486E+03  0.51560243451E+03  0.92526903652E+02 0.  0.
          4    1    3    3  502    0 -0.13088202737E+03  0.15053879796E+03  0.13034250513E+04  0.13186011145E+04  0.00000000000E+00 0. -1.
         -3    1    3    3    0  502 -0.12725600247E+02  0.44468595099E+02  0.15164721445E+03  0.15854423516E+03  0.00000000000E+00 0.  1.
         13    1    5    5    0    0  0.38273345401E+02 -0.40008361912E+02  0.14842978775E+03  0.15842007412E+03  0.00000000000E+00 0. -1.
        -13    1    5    5    0    0  0.23875210145E+03 -0.45735070063E+03  0.82995160727E+03  0.97723686981E+03  0.00000000000E+00 0.  1.
          3    1    6    6  503    0 -0.22500811178E+02  0.57225736489E+02  0.25104964694E+02  0.66417849051E+02  0.00000000000E+00 0. -1.
         -3    1    6    6    0  503 -0.11091700806E+03  0.24512593299E+03  0.35969082017E+03  0.44918458546E+03  0.00000000000E+00 0.  1.
<mgrwt>
<rscale>  0 0.13580818E+04</rscale>
<asrwt>0</asrwt>
<pdfrwt beam="1">  1        2 0.45743489E+00 0.13580818E+04</pdfrwt>
<pdfrwt beam="2">  1       -1 0.23858101E-01 0.13580818E+04</pdfrwt>
<totfact> 0.30823606E+01</totfact>
</mgrwt>
</event>
<event>
12    7  0.1546317E-007  0.1176125E+04  0.7818608E-02  0.9134014E-01
          2   -1    0    0  501    0  0.00000000000E+00  0.00000000000E+00  0.23373974434E+04  0.23373974434E+04  0.00000000000E+00 0. -1.
         -1   -1    0    0    0  501 -0.00000000000E+00 -0.00000000000E+00 -0.14794989488E+03  0.14794989488E+03  0.00000000000E+00 0.  1.
         24    2    1    2    0    0  0.93874335285E+02  0.41139593359E+02  0.17776549251E+02  0.12946897339E+03  0.77080168662E+02 0.  0.
        254    2    1    2    0    0 -0.93874335285E+02 -0.41139593359E+02  0.21716709993E+04  0.23558783649E+04  0.90747070702E+03 0.  0.
         23    2    4    4    0    0 -0.44679824591E+03  0.90219612148E+02  0.75106132077E+03  0.88329628897E+03  0.91383672438E+02 0.  0.
         23    2    4    4    0    0  0.35292391062E+03 -0.13135920551E+03  0.14206096785E+04  0.14725820759E+04  0.92496400476E+02 0.  0.
          4    1    3    3  502    0 -0.59485197714E+01  0.26182233327E+02  0.82239019450E+01  0.28080719234E+02  0.00000000000E+00 0. -1.
         -3    1    3    3    0  502  0.99822855056E+02  0.14957360031E+02  0.95526473063E+01  0.10138825416E+03  0.00000000000E+00 0.  1.
         13    1    5    5    0    0  0.15404032625E+00  0.94411388510E+01  0.26656049857E+02  0.28279035082E+02  0.00000000000E+00 0. -1.
        -13    1    5    5    0    0 -0.44695228623E+03  0.80778473297E+02  0.72440527092E+03  0.85501725389E+03  0.00000000000E+00 0.  1.
          4    1    6    6  503    0  0.35549129631E+02  0.13239605821E+02  0.17524650357E+03  0.17930522801E+03  0.00000000000E+00 0. -1.
         -4    1    6    6    0  503  0.31737478099E+03 -0.14459881133E+03  0.12453631749E+04  0.12932768479E+04  0.00000000000E+00 0.  1.
<mgrwt>
<rscale>  0 0.11761253E+04</rscale>
<asrwt>0</asrwt>
<pdfrwt beam="1">  1        2 0.35959958E+00 0.11761253E+04</pdfrwt>
<pdfrwt beam="2">  1       -1 0.22761524E-01 0.11761253E+04</pdfrwt>
<totfact> 0.80285515E+01</totfact>
</mgrwt>
</event>
<event>
12    7  0.1546317E-007  0.2797603E+04  0.7818608E-02  0.8304013E-01
          2   -1    0    0  501    0  0.00000000000E+00  0.00000000000E+00  0.92427629712E+03  0.92427629712E+03  0.00000000000E+00 0. -1.
         -1   -1    0    0    0  501 -0.00000000000E+00 -0.00000000000E+00 -0.21169490460E+04  0.21169490460E+04  0.00000000000E+00 0.  1.
         24    2    1    2    0    0  0.44346511848E+03 -0.57126994908E+03  0.59020290395E+03  0.93682579657E+03  0.79324896803E+02 0.  0.
        254    2    1    2    0    0 -0.44346511848E+03  0.57126994908E+03 -0.17828756528E+04  0.21043995465E+04  0.85254981793E+03 0.  0.
         23    2    4    4    0    0 -0.18739948171E+02  0.38839295316E+03 -0.15052618783E+04  0.15573575781E+04  0.91373038780E+02 0.  0.
         23    2    4    4    0    0 -0.42472517031E+03  0.18287699592E+03 -0.27761377450E+03  0.54704196838E+03  0.91378561219E+02 0.  0.
          4    1    3    3  502    0  0.26278659712E+03 -0.36689136285E+03  0.41131150573E+03  0.61060889487E+03  0.00000000000E+00 0. -1.
         -1    1    3    3    0  502  0.18067852136E+03 -0.20437858624E+03  0.17889139822E+03  0.32621690169E+03  0.00000000000E+00 0.  1.
         13    1    5    5    0    0  0.25816200654E+01  0.18629683911E+03 -0.54940364286E+03  0.58013579428E+03  0.00000000000E+00 0. -1.
        -13    1    5    5    0    0 -0.21321568236E+02  0.20209611405E+03 -0.95585823544E+03  0.97722178386E+03  0.00000000000E+00 0.  1.
          4    1    6    6  503    0 -0.87910370707E+02  0.15292553813E+02 -0.89679473954E+02  0.12650890691E+03  0.00000000000E+00 0. -1.
         -4    1    6    6    0  503 -0.33681479960E+03  0.16758444210E+03 -0.18793430054E+03  0.42053306147E+03  0.00000000000E+00 0.  1.
<mgrwt>
<rscale>  0 0.27976031E+04</rscale>
<asrwt>0</asrwt>
<pdfrwt beam="1">  1        2 0.14219636E+00 0.27976031E+04</pdfrwt>
<pdfrwt beam="2">  1       -1 0.32568446E+00 0.27976031E+04</pdfrwt>
<totfact> 0.62942851E-01</totfact>
</mgrwt>
</event>
<event>
12    7  0.1546317E-007  0.1199966E+04  0.7818608E-02  0.9112886E-01
          2   -1    0    0  501    0  0.00000000000E+00  0.00000000000E+00  0.59849589624E+03  0.59849589624E+03  0.00000000000E+00 0. -1.
         -1   -1    0    0    0  501 -0.00000000000E+00 -0.00000000000E+00 -0.60147420242E+03  0.60147420242E+03  0.00000000000E+00 0.  1.
         24    2    1    2    0    0 -0.15681978946E+03  0.18479693496E+03 -0.82092078052E+02  0.26809705396E+03  0.79966039837E+02 0.  0.
        254    2    1    2    0    0  0.15681978946E+03 -0.18479693496E+03  0.79113771868E+02  0.93187304470E+03  0.89631804009E+03 0.  0.
         23    2    4    4    0    0 -0.17992319703E+03  0.28054446095E+03  0.50720996902E+02  0.34955052643E+03  0.92387226392E+02 0.  0.
         23    2    4    4    0    0  0.33674298649E+03 -0.46534139592E+03  0.28392774967E+02  0.58232251827E+03  0.91405207226E+02 0.  0.
          2    1    3    3  502    0 -0.13272824384E+03  0.11249848115E+03 -0.32020440726E+02  0.17691241788E+03  0.00000000000E+00 0. -1.
         -1    1    3    3    0  502 -0.24091545616E+02  0.72298453809E+02 -0.50071637325E+02  0.91184636084E+02  0.00000000000E+00 0.  1.
         13    1    5    5    0    0 -0.52248886902E+02  0.35965013303E+02  0.36730640405E+02  0.73297805621E+02  0.00000000000E+00 0. -1.
        -13    1    5    5    0    0 -0.12767431013E+03  0.24457944765E+03  0.13990356496E+02  0.27625272081E+03  0.00000000000E+00 0.  1.
          3    1    6    6  503    0  0.10913401977E+03 -0.13855707770E+03  0.50525102726E+02  0.18346957257E+03  0.00000000000E+00 0. -1.
         -3    1    6    6    0  503  0.22760896672E+03 -0.32678431822E+03 -0.22132327759E+02  0.39885294570E+03  0.00000000000E+00 0.  1.
<mgrwt>
<rscale>  0 0.11999664E+04</rscale>
<asrwt>0</asrwt>
<pdfrwt beam="1">  1        2 0.92076291E-01 0.11999664E+04</pdfrwt>
<pdfrwt beam="2">  1       -1 0.92534493E-01 0.11999664E+04</pdfrwt>
<totfact> 0.63749659E+01</totfact>
</mgrwt>
</event>
<event>
12    7  0.1546317E-007  0.2075543E+04  0.7818608E-02  0.8572094E-01
         -3   -1    0    0    0  501 -0.00000000000E+00  0.00000000000E+00  0.69857915804E+03  0.69857915804E+03  0.00000000000E+00 0.  1.
          2   -1    0    0  501    0  0.00000000000E+00 -0.00000000000E+00 -0.15416578290E+04  0.15416578290E+04  0.00000000000E+00 0. -1.
         24    2    1    2    0    0 -0.78950967786E+03 -0.61047957629E+02 -0.67328509080E+03  0.10425622195E+04  0.81060368949E+02 0.  0.
        254    2    1    2    0    0  0.78950967786E+03  0.61047957629E+02 -0.16979358021E+03  0.11976747676E+04  0.88235061316E+03 0.  0.
         23    2    4    4    0    0 -0.16045894136E+03  0.86863744263E+02 -0.13112987017E+03  0.24205733597E+03  0.90024047445E+02 0.  0.
         23    2    4    4    0    0  0.94996861922E+03 -0.25815786634E+02 -0.38663710040E+02  0.95561743164E+03  0.92752147401E+02 0.  0.
          2    1    3    3  502    0 -0.71746529738E+03 -0.33581633026E+02 -0.62006655004E+03  0.94887654914E+03  0.00000000000E+00 0. -1.
         -1    1    3    3    0  502 -0.72044380477E+02 -0.27466324603E+02 -0.53218540759E+02  0.93685670335E+02  0.00000000000E+00 0.  1.
         13    1    5    5    0    0 -0.13311333584E+03  0.10179285170E+03 -0.89248160168E+02  0.18985831278E+03  0.00000000000E+00 0. -1.
        -13    1    5    5    0    0 -0.27345605516E+02 -0.14929107440E+02 -0.41881710003E+02  0.52199023197E+02  0.00000000000E+00 0.  1.
          4    1    6    6  503    0  0.41130967561E+03  0.34735320789E+02 -0.18839299520E+02  0.41320347405E+03  0.00000000000E+00 0.  1.
         -4    1    6    6    0  503  0.53865894361E+03 -0.60551107423E+02 -0.19824410521E+02  0.54241395759E+03  0.00000000000E+00 0. -1.
<mgrwt>
<rscale>  0 0.20755433E+04</rscale>
<asrwt>0</asrwt>
<pdfrwt beam="1">  1        2 0.23717812E+00 0.20755433E+04</pdfrwt>
<pdfrwt beam="2">  1       -3 0.10747372E+00 0.20755433E+04</pdfrwt>
<totfact> 0.52045917E+00</totfact>
</mgrwt>
</event>
<event>
12    7  0.1546317E-007  0.1623601E+04  0.7818608E-02  0.8806179E-01
         -1   -1    0    0    0  501 -0.00000000000E+00  0.00000000000E+00  0.44273169452E+03  0.44273169452E+03  0.00000000000E+00 0.  1.
          2   -1    0    0  501    0  0.00000000000E+00 -0.00000000000E+00 -0.14885318783E+04  0.14885318783E+04  0.00000000000E+00 0. -1.
         24    2    1    2    0    0  0.13389886271E+03 -0.53259697542E+03 -0.47250050851E+03  0.73153988447E+03  0.10151565578E+03 0.  0.
        254    2    1    2    0    0 -0.13389886271E+03  0.53259697542E+03 -0.57329967529E+03  0.11997236884E+04  0.89948650189E+03 0.  0.
         23    2    4    4    0    0 -0.90467192060E+02 -0.73519808645E+02 -0.56676180717E+03  0.58517767890E+03  0.87318352633E+02 0.  0.
         23    2    4    4    0    0 -0.43431670652E+02  0.60611678406E+03 -0.65378681181E+01  0.61454600947E+03  0.91434064234E+02 0.  0.
          4    1    3    3  502    0  0.10775571685E+03 -0.23680262425E+03 -0.24618786338E+03  0.35818325120E+03  0.00000000000E+00 0. -1.
         -3    1    3    3    0  502  0.26143145857E+02 -0.29579435117E+03 -0.22631264512E+03  0.37335663327E+03  0.00000000000E+00 0.  1.
         13    1    5    5    0    0 -0.94807638897E+01  0.33331915034E+01 -0.30303109496E+01  0.10496562960E+02  0.00000000000E+00 0. -1.
        -13    1    5    5    0    0 -0.80986428170E+02 -0.76853000148E+02 -0.56373149622E+03  0.57468111594E+03  0.00000000000E+00 0.  1.
          2    1    6    6  503    0  0.35184514472E+00  0.54154709963E+02 -0.26914791559E+02  0.60475304140E+02  0.00000000000E+00 0. -1.
         -2    1    6    6    0  503 -0.43783515796E+02  0.55196207410E+03  0.20376923441E+02  0.55407070533E+03  0.00000000000E+00 0.  1.
<mgrwt>
<rscale>  0 0.16236012E+04</rscale>
<asrwt>0</asrwt>
<pdfrwt beam="1">  1        2 0.22900490E+00 0.16236012E+04</pdfrwt>
<pdfrwt beam="2">  1       -1 0.68112569E-01 0.16236012E+04</pdfrwt>
<totfact> 0.30668185E+01</totfact>
</mgrwt>
</event>
<event>
12    7  0.1546317E-007  0.2411550E+04  0.7818608E-02  0.8435192E-01
          2   -1    0    0  501    0  0.00000000000E+00  0.00000000000E+00  0.13576233768E+04  0.13576233768E+04  0.00000000000E+00 0. -1.
         -1   -1    0    0    0  501 -0.00000000000E+00 -0.00000000000E+00 -0.10709103734E+04  0.10709103734E+04  0.00000000000E+00 0.  1.
         24    2    1    2    0    0  0.21950616439E+03 -0.61462251491E+03  0.94291118041E+03  0.11495655506E+04  0.80471540787E+02 0.  0.
        254    2    1    2    0    0 -0.21950616439E+03  0.61462251491E+03 -0.65619817703E+03  0.12789681996E+04  0.88273428396E+03 0.  0.
         23    2    4    4    0    0 -0.31059924840E+03  0.13170370492E+03 -0.69476184302E+03  0.77754634894E+03  0.89813959088E+02 0.  0.
         23    2    4    4    0    0  0.91093084009E+02  0.48291880999E+03  0.38563665983E+02  0.50142185068E+03  0.91805168766E+02 0.  0.
          4    1    3    3  502    0  0.18976365440E+03 -0.58637381825E+03  0.89145105841E+03  0.10837571171E+04  0.00000000000E+00 0. -1.
         -1    1    3    3    0  502  0.29742509990E+02 -0.28248696661E+02  0.51460121996E+02  0.65808433498E+02  0.00000000000E+00 0.  1.
         13    1    5    5    0    0 -0.16462101813E+03  0.11683235589E+03 -0.42309315231E+03  0.46878320632E+03  0.00000000000E+00 0.  1.
        -13    1    5    5    0    0 -0.14597823027E+03  0.14871349030E+02 -0.27166869071E+03  0.30876314263E+03  0.00000000000E+00 0. -1.
          1    1    6    6  503    0  0.78518079578E+02  0.44941150435E+03  0.11176248846E+02  0.45635588919E+03  0.00000000000E+00 0. -1.
         -1    1    6    6    0  503  0.12575004431E+02  0.33507305642E+02  0.27387417136E+02  0.45065961492E+02  0.00000000000E+00 0.  1.
<mgrwt>
<rscale>  0 0.24115497E+04</rscale>
<asrwt>0</asrwt>
<pdfrwt beam="1">  1        2 0.20886514E+00 0.24115497E+04</pdfrwt>
<pdfrwt beam="2">  1       -1 0.16475544E+00 0.24115497E+04</pdfrwt>
<totfact> 0.42165707E+00</totfact>
</mgrwt>
</event>
<event>
12    7  0.1546317E-007  0.3743394E+04  0.7818608E-02  0.8058413E-01
         -1   -1    0    0    0  501 -0.00000000000E+00  0.00000000000E+00  0.94777629193E+03  0.94777629193E+03  0.00000000000E+00 0.  1.
          2   -1    0    0  501    0  0.00000000000E+00 -0.00000000000E+00 -0.36962835525E+04  0.36962835525E+04  0.00000000000E+00 0. -1.
         24    2    1    2    0    0  0.11943137451E+04  0.86930224049E+03 -0.99635831320E+02  0.14826170678E+04  0.78449751926E+02 0.  0.
        254    2    1    2    0    0 -0.11943137451E+04 -0.86930224049E+03 -0.26488714293E+04  0.31614427767E+04  0.89226054171E+03 0.  0.
         23    2    4    4    0    0 -0.87279330788E+03 -0.19729767410E+03 -0.18922560347E+04  0.20953220522E+04  0.95116091042E+02 0.  0.
         23    2    4    4    0    0 -0.32152043726E+03 -0.67200456640E+03 -0.75661539454E+03  0.10661207245E+04  0.95817614203E+02 0.  0.
          2    1    3    3  502    0  0.60522572099E+02  0.27292787835E+02 -0.13412062273E+02  0.67733015699E+02  0.00000000000E+00 0. -1.
         -1    1    3    3    0  502  0.11337911730E+04  0.84200945266E+03 -0.86223769047E+02  0.14148840521E+04  0.00000000000E+00 0.  1.
         13    1    5    5    0    0 -0.73731910898E+03 -0.13813937455E+03 -0.16283973257E+04  0.17928747323E+04  0.00000000000E+00 0. -1.
        -13    1    5    5    0    0 -0.13547419889E+03 -0.59158299543E+02 -0.26385870906E+03  0.30244731990E+03  0.00000000000E+00 0.  1.
          4    1    6    6  503    0 -0.23912086375E+03 -0.39996721061E+03 -0.49445839522E+03  0.67944216946E+03  0.00000000000E+00 0. -1.
         -4    1    6    6    0  503 -0.82399573513E+02 -0.27203735579E+03 -0.26215699932E+03  0.38667855507E+03  0.00000000000E+00 0.  1.
<mgrwt>
<rscale>  0 0.37433941E+04</rscale>
<asrwt>0</asrwt>
<pdfrwt beam="1">  1        2 0.56865901E+00 0.37433941E+04</pdfrwt>
<pdfrwt beam="2">  1       -1 0.14581174E+00 0.37433941E+04</pdfrwt>
<totfact> 0.20166806E-01</totfact>
</mgrwt>
</event>
<event>
12    7  0.1812721E-007  0.2681466E+04  0.7818608E-02  0.8341044E-01
          2   -1    0    0  501    0  0.00000000000E+00  0.00000000000E+00  0.26478687458E+04  0.26478687458E+04  0.00000000000E+00 0. -1.
         -1   -1    0    0    0  501 -0.00000000000E+00 -0.00000000000E+00 -0.67887234453E+03  0.67887234453E+03  0.00000000000E+00 0.  1.
         24    2    1    2    0    0  0.44566094127E+03  0.42181847600E+03 -0.35801707920E+03  0.71489049357E+03  0.79672376223E+02 0.  0.
        254    2    1    2    0    0 -0.44566094127E+03 -0.42181847600E+03  0.23270134805E+04  0.26118505968E+04  0.10150011331E+04 0.  0.
         23    2    4    4    0    0 -0.62342626631E+03 -0.61777339915E+03  0.15147803841E+04  0.17529860790E+04  0.89979435615E+02 0.  0.
         23    2    4    4    0    0  0.17776532505E+03  0.19595492315E+03  0.81223309639E+03  0.85886451781E+03  0.89032659023E+02 0.  0.
          4    1    3    3  502    0  0.13334489534E+02  0.10616364251E+02  0.33040139381E+01  0.17361806045E+02  0.00000000000E+00 0. -1.
         -3    1    3    3    0  502  0.43232645173E+03  0.41120211175E+03 -0.36132109314E+03  0.69752868752E+03  0.00000000000E+00 0.  1.
         13    1    5    5    0    0 -0.60846026043E+03 -0.59436854813E+03  0.14903293134E+04  0.17159776578E+04  0.00000000000E+00 0.  1.
        -13    1    5    5    0    0 -0.14966005885E+02 -0.23404851019E+02  0.24451070679E+02  0.37008421213E+02  0.00000000000E+00 0. -1.
          4    1    6    6  503    0  0.18741376140E+03  0.18700335994E+03  0.75301849786E+03  0.79820488141E+03  0.00000000000E+00 0.  1.
         -4    1    6    6    0  503 -0.96484363509E+01  0.89515632055E+01  0.59214598531E+02  0.60659636391E+02  0.00000000000E+00 0. -1.
<mgrwt>
<rscale>  0 0.26814659E+04</rscale>
<asrwt>0</asrwt>
<pdfrwt beam="1">  1        2 0.40736442E+00 0.26814659E+04</pdfrwt>
<pdfrwt beam="2">  1       -1 0.10444190E+00 0.26814659E+04</pdfrwt>
<totfact> 0.24548761E+00</totfact>
</mgrwt>
</event>
<event>
12    7  0.1546317E-007  0.3057793E+04  0.7818608E-02  0.8227418E-01
         -1   -1    0    0    0  501 -0.00000000000E+00  0.00000000000E+00  0.12740830907E+04  0.12740830907E+04  0.00000000000E+00 0.  1.
          2   -1    0    0  501    0  0.00000000000E+00 -0.00000000000E+00 -0.18346719540E+04  0.18346719540E+04  0.00000000000E+00 0. -1.
         24    2    1    2    0    0 -0.45276530956E+03 -0.97111928007E+03 -0.11736543615E+04  0.15910156894E+04  0.76139884119E+02 0.  0.
        254    2    1    2    0    0  0.45276530956E+03  0.97111928007E+03  0.61306549818E+03  0.15177393554E+04  0.88295773629E+03 0.  0.
         23    2    4    4    0    0 -0.51994514921E+02  0.32171502068E+03 -0.16932327932E+03  0.37867237831E+03  0.92295249380E+02 0.  0.
         23    2    4    4    0    0  0.50475982448E+03  0.64940425938E+03  0.78238877750E+03  0.11390669770E+04  0.93984075977E+02 0.  0.
          2    1    3    3  502    0 -0.43166445841E+03 -0.94667306009E+03 -0.11510758855E+04  0.15516119945E+04  0.00000000000E+00 0. -1.
         -1    1    3    3    0  502 -0.21100851151E+02 -0.24446219972E+02 -0.22578475964E+02  0.39403694840E+02  0.00000000000E+00 0.  1.
         13    1    5    5    0    0 -0.77238094927E+02  0.20913456425E+03 -0.10291114450E+03  0.24554774064E+03  0.00000000000E+00 0.  1.
        -13    1    5    5    0    0  0.25243580006E+02  0.11258045643E+03 -0.66412134819E+02  0.13312463766E+03  0.00000000000E+00 0. -1.
          3    1    6    6  503    0  0.40871138822E+03  0.57885019418E+03  0.67516224221E+03  0.97875257316E+03  0.00000000000E+00 0. -1.
         -3    1    6    6    0  503  0.96048436257E+02  0.70554065203E+02  0.10722653529E+03  0.16031440389E+03  0.00000000000E+00 0.  1.
<mgrwt>
<rscale>  0 0.30577930E+04</rscale>
<asrwt>0</asrwt>
<pdfrwt beam="1">  1        2 0.28225722E+00 0.30577930E+04</pdfrwt>
<pdfrwt beam="2">  1       -1 0.19601278E+00 0.30577930E+04</pdfrwt>
<totfact> 0.12835616E+00</totfact>
</mgrwt>
</event>
<event>
12    7  0.1546317E-007  0.3107353E+04  0.7818608E-02  0.8213723E-01
         -1   -1    0    0    0  501 -0.00000000000E+00  0.00000000000E+00  0.12843259870E+04  0.12843259870E+04  0.00000000000E+00 0.  1.
          2   -1    0    0  501    0  0.00000000000E+00 -0.00000000000E+00 -0.18795161067E+04  0.18795161067E+04  0.00000000000E+00 0. -1.
         24    2    1    2    0    0 -0.11005293424E+04 -0.51051859283E+03  0.48504975794E+03  0.13090282175E+04  0.80545263221E+02 0.  0.
        254    2    1    2    0    0  0.11005293424E+04  0.51051859283E+03 -0.10802398776E+04  0.18548138762E+04  0.89533359990E+03 0.  0.
         23    2    4    4    0    0  0.94390495131E+01 -0.40407313003E+02  0.10866430812E+03  0.14726698826E+03  0.90320470388E+02 0.  0.
         23    2    4    4    0    0  0.10910902929E+04  0.55092590583E+03 -0.11889041857E+04  0.17075468879E+04  0.90696365853E+02 0.  0.
          4    1    3    3  502    0 -0.55854505566E+02 -0.12843194914E+02  0.36630209657E+02  0.68017980763E+02  0.00000000000E+00 0. -1.
         -3    1    3    3    0  502 -0.10446748368E+04 -0.49767539791E+03  0.44841954828E+03  0.12410102367E+04  0.00000000000E+00 0.  1.
         13    1    5    5    0    0  0.14942436247E+01 -0.52697967579E+02  0.11845653834E+03  0.12965824318E+03  0.00000000000E+00 0.  1.
        -13    1    5    5    0    0  0.79448058885E+01  0.12290654575E+02 -0.97922302146E+01  0.17608745074E+02  0.00000000000E+00 0. -1.
          4    1    6    6  503    0  0.37175334652E+03  0.23089559833E+03 -0.39700604790E+03  0.59086980803E+03  0.00000000000E+00 0. -1.
         -4    1    6    6    0  503  0.71933694634E+03  0.32003030750E+03 -0.79189813783E+03  0.11166770799E+04  0.00000000000E+00 0.  1.
<mgrwt>
<rscale>  0 0.31073535E+04</rscale>
<asrwt>0</asrwt>
<pdfrwt beam="1">  1        2 0.28915633E+00 0.31073535E+04</pdfrwt>
<pdfrwt beam="2">  1       -1 0.19758861E+00 0.31073535E+04</pdfrwt>
<totfact> 0.11769652E+00</totfact>
</mgrwt>
</event>
<event>
12    7  0.1546317E-007  0.1297817E+04  0.7818608E-02  0.9031298E-01
          2   -1    0    0  501    0  0.00000000000E+00  0.00000000000E+00  0.23680328467E+04  0.23680328467E+04  0.00000000000E+00 0. -1.
         -1   -1    0    0    0  501 -0.00000000000E+00 -0.00000000000E+00 -0.17781948255E+03  0.17781948255E+03  0.00000000000E+00 0.  1.
         24    2    1    2    0    0  0.25203301268E+03 -0.17834268727E+03  0.41702007225E+03  0.52529241917E+03  0.81851276084E+02 0.  0.
        254    2    1    2    0    0 -0.25203301268E+03  0.17834268727E+03  0.17731932919E+04  0.20205599101E+04  0.91821628508E+03 0.  0.
         23    2    4    4    0    0 -0.23346103664E+03 -0.28152905720E+03  0.13002724137E+04  0.13537158188E+04  0.89863799186E+02 0.  0.
         23    2    4    4    0    0 -0.18571976042E+02  0.45987174448E+03  0.47292087816E+03  0.66684409130E+03  0.95916346021E+02 0.  0.
          2    1    3    3  502    0  0.22753344711E+03 -0.15311181472E+03  0.31647066527E+03  0.41877007932E+03  0.00000000000E+00 0. -1.
         -1    1    3    3    0  502  0.24499565572E+02 -0.25230872551E+02  0.10054940698E+03  0.10652233985E+03  0.00000000000E+00 0.  1.
         13    1    5    5    0    0 -0.10707735222E+02 -0.63127542695E+02  0.19348842728E+03  0.20380754091E+03  0.00000000000E+00 0. -1.
        -13    1    5    5    0    0 -0.22275330142E+03 -0.21840151451E+03  0.11067839864E+04  0.11499082779E+04  0.00000000000E+00 0.  1.
          3    1    6    6  503    0  0.13147280347E+02  0.74513742395E+02  0.12802393354E+03  0.14871205850E+03  0.00000000000E+00 0. -1.
         -3    1    6    6    0  503 -0.31719256389E+02  0.38535800208E+03  0.34489694462E+03  0.51813203279E+03  0.00000000000E+00 0.  1.
<mgrwt>
<rscale>  0 0.12978172E+04</rscale>
<asrwt>0</asrwt>
<pdfrwt beam="1">  1        2 0.36431272E+00 0.12978172E+04</pdfrwt>
<pdfrwt beam="2">  1       -1 0.27356845E-01 0.12978172E+04</pdfrwt>
<totfact> 0.55702284E+01</totfact>
</mgrwt>
</event>
<event>
12    7  0.1546317E-007  0.1441902E+04  0.7818608E-02  0.8924034E-01
          2   -1    0    0  501    0  0.00000000000E+00  0.00000000000E+00  0.80137522707E+03  0.80137522707E+03  0.00000000000E+00 0. -1.
         -1   -1    0    0    0  501 -0.00000000000E+00 -0.00000000000E+00 -0.64859779202E+03  0.64859779202E+03  0.00000000000E+00 0.  1.
         24    2    1    2    0    0  0.96957430252E+02 -0.29535922868E+03  0.34211698942E+03  0.46926903827E+03  0.80818182240E+02 0.  0.
        254    2    1    2    0    0 -0.96957430252E+02  0.29535922868E+03 -0.18933955438E+03  0.98070398082E+03  0.91065526621E+03 0.  0.
         23    2    4    4    0    0 -0.26067579011E+03 -0.18996923775E+03 -0.29752303770E+03  0.44982245002E+03  0.98894386757E+02 0.  0.
         23    2    4    4    0    0  0.16371835986E+03  0.48532846643E+03  0.10818348332E+03  0.53088153080E+03  0.88227614700E+02 0.  0.
          4    1    3    3  502    0  0.60911983308E+02 -0.25736327387E+03  0.31139544251E+03  0.40855017570E+03  0.00000000000E+00 0. -1.
         -3    1    3    3    0  502  0.36045446943E+02 -0.37995954811E+02  0.30721546911E+02  0.60718862572E+02  0.00000000000E+00 0.  1.
         13    1    5    5    0    0 -0.25678839614E+03 -0.16391458131E+03 -0.29377104128E+03  0.42321353363E+03  0.00000000000E+00 0.  1.
        -13    1    5    5    0    0 -0.38873939757E+01 -0.26054656434E+02 -0.37519964277E+01  0.26608916382E+02  0.00000000000E+00 0. -1.
          3    1    6    6  503    0  0.84475508196E+02  0.22979270352E+03  0.96271110739E+02  0.26307589178E+03  0.00000000000E+00 0. -1.
         -3    1    6    6    0  503  0.79242851667E+02  0.25553576291E+03  0.11912372584E+02  0.26780563902E+03  0.00000000000E+00 0.  1.
<mgrwt>
<rscale>  0 0.14419018E+04</rscale>
<asrwt>0</asrwt>
<pdfrwt beam="1">  1        2 0.12328850E+00 0.14419018E+04</pdfrwt>
<pdfrwt beam="2">  1       -1 0.99784275E-01 0.14419018E+04</pdfrwt>
<totfact> 0.36483774E+01</totfact>
</mgrwt>
</event>
<event>
12    7  0.1546317E-007  0.1967348E+04  0.7818608E-02  0.8622040E-01
         -1   -1    0    0    0  501 -0.00000000000E+00  0.00000000000E+00  0.90049998632E+03  0.90049998632E+03  0.00000000000E+00 0.  1.
          2   -1    0    0  501    0  0.00000000000E+00 -0.00000000000E+00 -0.10745308301E+04  0.10745308301E+04  0.00000000000E+00 0. -1.
         24    2    1    2    0    0 -0.66731616014E+03  0.39137783397E+03 -0.13668402512E+03  0.78971800503E+03  0.80526630644E+02 0.  0.
        254    2    1    2    0    0  0.66731616014E+03 -0.39137783397E+03 -0.37346818704E+02  0.11853128114E+04  0.89726484917E+03 0.  0.
         23    2    4    4    0    0  0.25476829523E+03 -0.51562898926E+03 -0.31766481021E+03  0.66372258754E+03  0.94003206006E+02 0.  0.
         23    2    4    4    0    0  0.41254786491E+03  0.12425115530E+03  0.28031799150E+03  0.52159022389E+03  0.88566894834E+02 0.  0.
          4    1    3    3  502    0 -0.15661783058E+03  0.78195239798E+02  0.84464382268E+00  0.17505528786E+03  0.00000000000E+00 0. -1.
         -3    1    3    3    0  502 -0.51069832956E+03  0.31318259417E+03 -0.13752866894E+03  0.61466271717E+03  0.00000000000E+00 0.  1.
         13    1    5    5    0    0  0.15425279334E+03 -0.35489981985E+03 -0.25756725212E+03  0.46485341318E+03  0.00000000000E+00 0.  1.
        -13    1    5    5    0    0  0.10051550189E+03 -0.16072916941E+03 -0.60097558090E+02  0.19886917436E+03  0.00000000000E+00 0. -1.
          3    1    6    6  503    0  0.14722011906E+03  0.77139434786E+02  0.72706266421E+02  0.18141239492E+03  0.00000000000E+00 0. -1.
         -3    1    6    6    0  503  0.26532774586E+03  0.47111720513E+02  0.20761172508E+03  0.34017782897E+03  0.00000000000E+00 0.  1.
<mgrwt>
<rscale>  0 0.19673485E+04</rscale>
<asrwt>0</asrwt>
<pdfrwt beam="1">  1        2 0.16531244E+00 0.19673485E+04</pdfrwt>
<pdfrwt beam="2">  1       -1 0.13853846E+00 0.19673485E+04</pdfrwt>
<totfact> 0.10342263E+01</totfact>
</mgrwt>
</event>
<event>
12    7  0.1546317E-007  0.2405078E+04  0.7818608E-02  0.8437605E-01
          2   -1    0    0  501    0  0.00000000000E+00  0.00000000000E+00  0.11983691365E+04  0.11983691365E+04  0.00000000000E+00 0. -1.
         -1   -1    0    0    0  501 -0.00000000000E+00 -0.00000000000E+00 -0.12067235030E+04  0.12067235030E+04  0.00000000000E+00 0.  1.
         24    2    1    2    0    0  0.96630412950E+03  0.15173418342E+03  0.31757882117E+03  0.10315205422E+04  0.80071145267E+02 0.  0.
        254    2    1    2    0    0 -0.96630412950E+03 -0.15173418342E+03 -0.32593318762E+03  0.13735720972E+04  0.90757971020E+03 0.  0.
         23    2    4    4    0    0 -0.32814136493E+03  0.27446187027E+03 -0.40602714975E+03  0.59668551607E+03  0.90385204275E+02 0.  0.
         23    2    4    4    0    0 -0.63816276457E+03 -0.42619605369E+03  0.80093962124E+02  0.77688658115E+03  0.90790566353E+02 0.  0.
          2    1    3    3  502    0  0.71012843980E+03  0.10939474912E+03  0.19565148124E+03  0.74466711641E+03  0.00000000000E+00 0. -1.
         -1    1    3    3    0  502  0.25617568969E+03  0.42339434303E+02  0.12192733993E+03  0.28685342583E+03  0.00000000000E+00 0.  1.
         13    1    5    5    0    0 -0.16112740461E+03  0.16063973805E+03 -0.15931527325E+03  0.27775622810E+03  0.00000000000E+00 0.  1.
        -13    1    5    5    0    0 -0.16701396032E+03  0.11382213222E+03 -0.24671187649E+03  0.31892928797E+03  0.00000000000E+00 0. -1.
          4    1    6    6  503    0 -0.50595888267E+03 -0.29118468005E+03  0.62943647083E+02  0.58714973521E+03  0.00000000000E+00 0. -1.
         -4    1    6    6    0  503 -0.13220388190E+03 -0.13501137364E+03  0.17150315041E+02  0.18973684594E+03  0.00000000000E+00 0.  1.
<mgrwt>
<rscale>  0 0.24050781E+04</rscale>
<asrwt>0</asrwt>
<pdfrwt beam="1">  1        2 0.18436448E+00 0.24050781E+04</pdfrwt>
<pdfrwt beam="2">  1       -1 0.18564977E+00 0.24050781E+04</pdfrwt>
<totfact> 0.36884567E+00</totfact>
</mgrwt>
</event>
<event>
12    7  0.1546317E-007  0.2134180E+04  0.7818608E-02  0.8546334E-01
          2   -1    0    0  501    0  0.00000000000E+00  0.00000000000E+00  0.17670360915E+04  0.17670360915E+04  0.00000000000E+00 0. -1.
         -1   -1    0    0    0  501 -0.00000000000E+00 -0.00000000000E+00 -0.64440172138E+03  0.64440172138E+03  0.00000000000E+00 0.  1.
         24    2    1    2    0    0  0.78338121018E+03  0.16888578901E+03  0.11082909729E+03  0.81309444196E+03  0.81430660963E+02 0.  0.
        254    2    1    2    0    0 -0.78338121018E+03 -0.16888578901E+03  0.10118052728E+04  0.15983433709E+04  0.94273171740E+03 0.  0.
         23    2    4    4    0    0 -0.85470674521E+03  0.62646292609E+02  0.43378479674E+03  0.96528311309E+03  0.95676853283E+02 0.  0.
         23    2    4    4    0    0  0.71325535034E+02 -0.23153208162E+03  0.57802047605E+03  0.63306025778E+03  0.89236665587E+02 0.  0.
          2    1    3    3  502    0  0.34960773210E+03  0.58622501112E+02  0.86367085511E+02  0.36485810590E+03  0.00000000000E+00 0. -1.
         -1    1    3    3    0  502  0.43377347808E+03  0.11026328790E+03  0.24462011782E+02  0.44823633606E+03  0.00000000000E+00 0.  1.
         13    1    5    5    0    0 -0.68564218586E+03  0.17707797499E+02  0.32211913251E+03  0.75774633530E+03  0.00000000000E+00 0. -1.
        -13    1    5    5    0    0 -0.16906455935E+03  0.44938495110E+02  0.11166566423E+03  0.20753677780E+03  0.00000000000E+00 0.  1.
          1    1    6    6  503    0  0.67078605165E+02 -0.17419112419E+03  0.51483877589E+03  0.54763222347E+03  0.00000000000E+00 0. -1.
         -1    1    6    6    0  503  0.42469298685E+01 -0.57340957429E+02  0.63181700155E+02  0.85428034313E+02  0.00000000000E+00 0.  1.
<mgrwt>
<rscale>  0 0.21341800E+04</rscale>
<asrwt>0</asrwt>
<pdfrwt beam="1">  1        2 0.27185170E+00 0.21341800E+04</pdfrwt>
<pdfrwt beam="2">  1       -1 0.99138727E-01 0.21341800E+04</pdfrwt>
<totfact> 0.91557303E+00</totfact>
</mgrwt>
</event>
<event>
12    7  0.1546317E-007  0.1447537E+04  0.7818608E-02  0.8920110E-01
          2   -1    0    0  501    0  0.00000000000E+00  0.00000000000E+00  0.20111678671E+04  0.20111678671E+04  0.00000000000E+00 0. -1.
         -1   -1    0    0    0  501 -0.00000000000E+00 -0.00000000000E+00 -0.26046605809E+03  0.26046605809E+03  0.00000000000E+00 0.  1.
         24    2    1    2    0    0  0.19103546974E+03  0.32238734236E+03  0.84652232676E+03  0.93009307983E+03  0.89693579703E+02 0.  0.
        254    2    1    2    0    0 -0.19103546974E+03 -0.32238734236E+03  0.90417948225E+03  0.13415408453E+04  0.91747651436E+03 0.  0.
         23    2    4    4    0    0 -0.41375887490E+03 -0.45222277412E+02  0.87266862332E+03  0.97102715902E+03  0.90009757827E+02 0.  0.
         23    2    4    4    0    0  0.22272340516E+03 -0.27716506495E+03  0.31510858926E+02  0.37051368632E+03  0.99303922820E+02 0.  0.
          2    1    3    3  502    0  0.17707262116E+03  0.22665211118E+03  0.60401629751E+03  0.66900043372E+03  0.00000000000E+00 0. -1.
         -3    1    3    3    0  502  0.13962848580E+02  0.95735231181E+02  0.24250602925E+03  0.26109264611E+03  0.00000000000E+00 0.  1.
         13    1    5    5    0    0 -0.39544867350E+03 -0.51986688541E+02  0.85934308316E+03  0.94739263441E+03  0.00000000000E+00 0. -1.
        -13    1    5    5    0    0 -0.18310201402E+02  0.67644111290E+01  0.13325540161E+02  0.23634524617E+02  0.00000000000E+00 0.  1.
          2    1    6    6  503    0  0.21652837847E+03 -0.20985965052E+03  0.27917093997E+02  0.30282829414E+03  0.00000000000E+00 0. -1.
         -2    1    6    6    0  503  0.61950266883E+01 -0.67305414435E+02  0.35937649288E+01  0.67685392178E+02  0.00000000000E+00 0.  1.
<mgrwt>
<rscale>  0 0.14475372E+04</rscale>
<asrwt>0</asrwt>
<pdfrwt beam="1">  1        2 0.30941043E+00 0.14475372E+04</pdfrwt>
<pdfrwt beam="2">  1       -1 0.40071703E-01 0.14475372E+04</pdfrwt>
<totfact> 0.44201679E+01</totfact>
</mgrwt>
</event>
<event>
12    7  0.1546317E-007  0.1402235E+04  0.7818608E-02  0.8952202E-01
         -1   -1    0    0    0  501 -0.00000000000E+00  0.00000000000E+00  0.65024340966E+03  0.65024340966E+03  0.00000000000E+00 0.  1.
          2   -1    0    0  501    0  0.00000000000E+00 -0.00000000000E+00 -0.75597200803E+03  0.75597200803E+03  0.00000000000E+00 0. -1.
         24    2    1    2    0    0  0.18654996857E+03 -0.23976928572E+03  0.21295160834E+03  0.37980541453E+03  0.81323823483E+02 0.  0.
        254    2    1    2    0    0 -0.18654996857E+03  0.23976928572E+03 -0.31868020671E+03  0.10264100032E+04  0.92718402666E+03 0.  0.
         23    2    4    4    0    0 -0.40671111327E+03 -0.20039425720E+03 -0.23501930592E+03  0.51891835209E+03  0.92034743487E+02 0.  0.
         23    2    4    4    0    0  0.22016114470E+03  0.44016354292E+03 -0.83660900784E+02  0.50749165106E+03  0.91289404797E+02 0.  0.
          4    1    3    3  502    0  0.25619085931E+02 -0.61324402276E+02  0.83951427369E+02  0.10707409601E+03  0.00000000000E+00 0. -1.
         -3    1    3    3    0  502  0.16093088264E+03 -0.17844488344E+03  0.12900018097E+03  0.27273131852E+03  0.00000000000E+00 0.  1.
         13    1    5    5    0    0 -0.15422718769E+03 -0.74549918747E+02 -0.14001824243E+03  0.22124381126E+03  0.00000000000E+00 0.  1.
        -13    1    5    5    0    0 -0.25248392558E+03 -0.12584433845E+03 -0.95001063494E+02  0.29767454083E+03  0.00000000000E+00 0. -1.
          4    1    6    6  503    0  0.46101736613E+02  0.75899677416E+02 -0.51124759823E+02  0.10246888414E+03  0.00000000000E+00 0. -1.
         -4    1    6    6    0  503  0.17405940809E+03  0.36426386550E+03 -0.32536140960E+02  0.40502276692E+03  0.00000000000E+00 0.  1.
<mgrwt>
<rscale>  0 0.14022351E+04</rscale>
<asrwt>0</asrwt>
<pdfrwt beam="1">  1        2 0.11630339E+00 0.14022351E+04</pdfrwt>
<pdfrwt beam="2">  1       -1 0.10003745E+00 0.14022351E+04</pdfrwt>
<totfact> 0.39294496E+01</totfact>
</mgrwt>
</event>
<event>
12    7  0.1546317E-007  0.1320027E+04  0.7818608E-02  0.9013833E-01
         -1   -1    0    0    0  501 -0.00000000000E+00  0.00000000000E+00  0.53928871655E+03  0.53928871655E+03  0.00000000000E+00 0.  1.
          2   -1    0    0  501    0  0.00000000000E+00 -0.00000000000E+00 -0.80776361563E+03  0.80776361563E+03  0.00000000000E+00 0. -1.
         24    2    1    2    0    0 -0.20334539087E+03 -0.12289507277E+03  0.16737986481E+03  0.30117096237E+03  0.78964438395E+02 0.  0.
        254    2    1    2    0    0  0.20334539087E+03  0.12289507277E+03 -0.43585476389E+03  0.10458813698E+04  0.92056825800E+03 0.  0.
         23    2    4    4    0    0  0.35036955219E+03  0.45162122239E+03 -0.26406969740E+03  0.63633834401E+03  0.92049613571E+02 0.  0.
         23    2    4    4    0    0 -0.14702416133E+03 -0.32872614962E+03 -0.17178506649E+03  0.40954302581E+03  0.92403438576E+02 0.  0.
          2    1    3    3  502    0 -0.68295427732E+02 -0.55035836394E+01  0.26632052075E+02  0.73510686840E+02  0.00000000000E+00 0. -1.
         -1    1    3    3    0  502 -0.13504996314E+03 -0.11739148913E+03  0.14074781274E+03  0.22766027553E+03  0.00000000000E+00 0.  1.
         13    1    5    5    0    0  0.32210505347E+03  0.42432311871E+03 -0.21753707312E+03  0.57543388215E+03  0.00000000000E+00 0. -1.
        -13    1    5    5    0    0  0.28264498719E+02  0.27298103684E+02 -0.46532624281E+02  0.60904461865E+02  0.00000000000E+00 0.  1.
          1    1    6    6  503    0 -0.15733189964E+03 -0.27667303274E+03 -0.15400123156E+03  0.35357838312E+03  0.00000000000E+00 0. -1.
         -1    1    6    6    0  503  0.10307738312E+02 -0.52053116881E+02 -0.17783834932E+02  0.55964642687E+02  0.00000000000E+00 0.  1.
<mgrwt>
<rscale>  0 0.13200270E+04</rscale>
<asrwt>0</asrwt>
<pdfrwt beam="1">  1        2 0.12427133E+00 0.13200270E+04</pdfrwt>
<pdfrwt beam="2">  1       -1 0.82967495E-01 0.13200270E+04</pdfrwt>
<totfact> 0.54845223E+01</totfact>
</mgrwt>
</event>
<event>
12    7  0.1546317E-007  0.2930049E+04  0.7818608E-02  0.8263993E-01
         -1   -1    0    0    0  501 -0.00000000000E+00  0.00000000000E+00  0.83174235269E+03  0.83174235269E+03  0.00000000000E+00 0.  1.
          2   -1    0    0  501    0  0.00000000000E+00 -0.00000000000E+00 -0.25804830979E+04  0.25804830979E+04  0.00000000000E+00 0. -1.
         24    2    1    2    0    0 -0.12494483788E+04 -0.41391012558E+03 -0.59239437410E+03  0.14458028187E+04  0.83497621496E+02 0.  0.
        254    2    1    2    0    0  0.12494483788E+04  0.41391012558E+03 -0.11563463711E+04  0.19664226319E+04  0.89288195958E+03 0.  0.
         23    2    4    4    0    0 -0.10247082416E+03  0.14540547036E+03 -0.22107311369E+03  0.29822027767E+03  0.91755064196E+02 0.  0.
         23    2    4    4    0    0  0.13519192030E+04  0.26850465522E+03 -0.93527325744E+03  0.16682023542E+04  0.91557343941E+02 0.  0.
          2    1    3    3  502    0 -0.10582793422E+04 -0.31843169321E+03 -0.50021708402E+03  0.12130832785E+04  0.00000000000E+00 0. -1.
         -1    1    3    3    0  502 -0.19116903657E+03 -0.95478432376E+02 -0.92177290076E+02  0.23271954022E+03  0.00000000000E+00 0.  1.
         13    1    5    5    0    0 -0.81037669673E+02  0.64943055991E+02 -0.17381698170E+03  0.20247727663E+03  0.00000000000E+00 0. -1.
        -13    1    5    5    0    0 -0.21433154489E+02  0.80462414366E+02 -0.47256131990E+02  0.95743001038E+02  0.00000000000E+00 0.  1.
          1    1    6    6  503    0  0.11670802280E+04  0.20175156756E+03 -0.81682190072E+03  0.14387418014E+04  0.00000000000E+00 0. -1.
         -1    1    6    6    0  503  0.18483897495E+03  0.66753087664E+02 -0.11845135672E+03  0.22946055278E+03  0.00000000000E+00 0.  1.
<mgrwt>
<rscale>  0 0.29300492E+04</rscale>
<asrwt>0</asrwt>
<pdfrwt beam="1">  1        2 0.39699739E+00 0.29300492E+04</pdfrwt>
<pdfrwt beam="2">  1       -1 0.12796037E+00 0.29300492E+04</pdfrwt>
<totfact> 0.16132417E+00</totfact>
</mgrwt>
</event>
<event>
12    7  0.1546317E-007  0.2322743E+04  0.7818608E-02  0.8469007E-01
          4   -1    0    0  501    0  0.00000000000E+00  0.00000000000E+00  0.10755893233E+04  0.10755893233E+04  0.00000000000E+00 0. -1.
         -3   -1    0    0    0  501 -0.00000000000E+00 -0.00000000000E+00 -0.12539954422E+04  0.12539954422E+04  0.00000000000E+00 0.  1.
         24    2    1    2    0    0 -0.77829080278E+03  0.11930187062E+03  0.51911042470E+03  0.94651331993E+03  0.80264075091E+02 0.  0.
        254    2    1    2    0    0  0.77829080278E+03 -0.11930187062E+03 -0.69751654359E+03  0.13830714455E+04  0.89799097140E+03 0.  0.
         23    2    4    4    0    0  0.83076002106E+03  0.14411097658E+03 -0.69841475488E+03  0.10993340145E+04  0.99105596968E+02 0.  0.
         23    2    4    4    0    0 -0.52469218275E+02 -0.26341284719E+03  0.89821129297E+00  0.28373743103E+03  0.91470082827E+02 0.  0.
          2    1    3    3  502    0 -0.58668477202E+03  0.12443789608E+03  0.38878612703E+03  0.71472964418E+03  0.00000000000E+00 0. -1.
         -1    1    3    3    0  502 -0.19160603076E+03 -0.51360254581E+01  0.13032429767E+03  0.23178367576E+03  0.00000000000E+00 0.  1.
         13    1    5    5    0    0  0.62098423469E+03  0.65466303007E+02 -0.49696247647E+03  0.79804696577E+03  0.00000000000E+00 0. -1.
        -13    1    5    5    0    0  0.20977578637E+03  0.78644673570E+02 -0.20145227842E+03  0.30128704869E+03  0.00000000000E+00 0.  1.
          3    1    6    6  503    0 -0.58608090117E+02 -0.98204419095E+02  0.23865866770E+02  0.11682720468E+03  0.00000000000E+00 0. -1.
         -3    1    6    6    0  503  0.61388718429E+01 -0.16520842810E+03 -0.22967655477E+02  0.16691022635E+03  0.00000000000E+00 0.  1.
<mgrwt>
<rscale>  0 0.23227433E+04</rscale>
<asrwt>0</asrwt>
<pdfrwt beam="1">  1        4 0.16547528E+00 0.23227433E+04</pdfrwt>
<pdfrwt beam="2">  1       -3 0.19292238E+00 0.23227433E+04</pdfrwt>
<totfact> 0.76522836E-02</totfact>
</mgrwt>
</event>
<event>
12    7  0.1546317E-007  0.1658740E+04  0.7818608E-02  0.8785253E-01
          2   -1    0    0  501    0  0.00000000000E+00  0.00000000000E+00  0.94856533030E+03  0.94856533030E+03  0.00000000000E+00 0. -1.
         -1   -1    0    0    0  501 -0.00000000000E+00 -0.00000000000E+00 -0.72515245820E+03  0.72515245820E+03  0.00000000000E+00 0.  1.
         24    2    1    2    0    0 -0.41622278163E+03  0.22781623945E+03 -0.25834147649E+03  0.54615405327E+03  0.80014301992E+02 0.  0.
        254    2    1    2    0    0  0.41622278163E+03 -0.22781623945E+03  0.48175434858E+03  0.11275637352E+04  0.90231429209E+03 0.  0.
         23    2    4    4    0    0  0.41853826373E+03 -0.44547428414E+03  0.30677063588E+02  0.61862955490E+03  0.90220994990E+02 0.  0.
         23    2    4    4    0    0 -0.23154820931E+01  0.21765804469E+03  0.45107728499E+03  0.50893418032E+03  0.90348752028E+02 0.  0.
          4    1    3    3  502    0 -0.17998430924E+03  0.75438574712E+02 -0.68018030593E+02  0.20666829127E+03  0.00000000000E+00 0. -1.
         -3    1    3    3    0  502 -0.23623847239E+03  0.15237766474E+03 -0.19032344590E+03  0.33948576201E+03  0.00000000000E+00 0.  1.
         13    1    5    5    0    0  0.34296979729E+03 -0.33489100719E+03 -0.73085527525E+01  0.47940972403E+03  0.00000000000E+00 0. -1.
        -13    1    5    5    0    0  0.75568466441E+02 -0.11058327694E+03  0.37985616341E+02  0.13921983087E+03  0.00000000000E+00 0.  1.
          3    1    6    6  503    0 -0.44921065059E+02  0.13485693109E+03  0.25760845702E+03  0.29422170395E+03  0.00000000000E+00 0. -1.
         -3    1    6    6    0  503  0.42605582966E+02  0.82801113596E+02  0.19346882797E+03  0.21471247637E+03  0.00000000000E+00 0.  1.
<mgrwt>
<rscale>  0 0.16587399E+04</rscale>
<asrwt>0</asrwt>
<pdfrwt beam="1">  1        2 0.14593313E+00 0.16587399E+04</pdfrwt>
<pdfrwt beam="2">  1       -1 0.11156192E+00 0.16587399E+04</pdfrwt>
<totfact> 0.21880064E+01</totfact>
</mgrwt>
</event>
<event>
12    7  0.1546317E-007  0.1604725E+04  0.7818608E-02  0.8817650E-01
          2   -1    0    0  501    0  0.00000000000E+00  0.00000000000E+00  0.18946205040E+04  0.18946205040E+04  0.00000000000E+00 0. -1.
         -1   -1    0    0    0  501 -0.00000000000E+00 -0.00000000000E+00 -0.33979665435E+03  0.33979665435E+03  0.00000000000E+00 0.  1.
         24    2    1    2    0    0  0.31396711185E+02  0.44918766896E+03  0.10207311522E+03  0.46893838070E+03  0.82030290876E+02 0.  0.
        254    2    1    2    0    0 -0.31396711185E+02 -0.44918766896E+03  0.14527507345E+04  0.17654787777E+04  0.89647939327E+03 0.  0.
         23    2    4    4    0    0  0.74271898160E+02 -0.62349350154E+03  0.14032895567E+04  0.15400828237E+04  0.91504439688E+02 0.  0.
         23    2    4    4    0    0 -0.10566860934E+03  0.17430583258E+03  0.49461177771E+02  0.22539595403E+03  0.82513936480E+02 0.  0.
          2    1    3    3  502    0 -0.17567253719E+02  0.28046526160E+03  0.47710933683E+02  0.28503632148E+03  0.00000000000E+00 0. -1.
         -1    1    3    3    0  502  0.48963964904E+02  0.16872240736E+03  0.54362181533E+02  0.18390205922E+03  0.00000000000E+00 0.  1.
         13    1    5    5    0    0  0.74080869132E+02 -0.62681176735E+03  0.13970480720E+04  0.15330115076E+04  0.00000000000E+00 0.  1.
        -13    1    5    5    0    0  0.19102902763E+00  0.33182658084E+01  0.62414846984E+01  0.70713160942E+01  0.00000000000E+00 0. -1.
          3    1    6    6  503    0 -0.58098918313E+02  0.66944395368E+02  0.60699669248E+02  0.10743130934E+03  0.00000000000E+00 0. -1.
         -3    1    6    6    0  503 -0.47569691031E+02  0.10736143721E+03 -0.11238491477E+02  0.11796464468E+03  0.00000000000E+00 0.  1.
<mgrwt>
<rscale>  0 0.16047252E+04</rscale>
<asrwt>0</asrwt>
<pdfrwt beam="1">  1        2 0.29148007E+00 0.16047252E+04</pdfrwt>
<pdfrwt beam="2">  1       -1 0.52276410E-01 0.16047252E+04</pdfrwt>
<totfact> 0.30773383E+01</totfact>
</mgrwt>
</event>
<event>
12    7  0.1546317E-007  0.2047114E+04  0.7818608E-02  0.8584905E-01
         -1   -1    0    0    0  501 -0.00000000000E+00  0.00000000000E+00  0.83503148813E+03  0.83503148813E+03  0.00000000000E+00 0.  1.
          2   -1    0    0  501    0  0.00000000000E+00 -0.00000000000E+00 -0.12546462882E+04  0.12546462882E+04  0.00000000000E+00 0. -1.
         24    2    1    2    0    0  0.34246654127E+03 -0.78881027856E+02 -0.92266388165E+03  0.99072030154E+03  0.81930024589E+02 0.  0.
        254    2    1    2    0    0 -0.34246654127E+03  0.78881027856E+02  0.50304908155E+03  0.10989574748E+04  0.91167077643E+03 0.  0.
         23    2    4    4    0    0 -0.20261015276E+03  0.11937827244E+03  0.75419818093E+03  0.79462954717E+03  0.85552178173E+02 0.  0.
         23    2    4    4    0    0 -0.13985638850E+03 -0.40497244586E+02 -0.25114909938E+03  0.30432792766E+03  0.91322402559E+02 0.  0.
          4    1    3    3  502    0  0.27122267243E+03 -0.81198757024E+02 -0.80283821716E+03  0.85129558856E+03  0.00000000000E+00 0. -1.
         -3    1    3    3    0  502  0.71243868843E+02  0.23177291680E+01 -0.11982566450E+03  0.13942471298E+03  0.00000000000E+00 0.  1.
         13    1    5    5    0    0 -0.10369513918E+03  0.32727985290E+02  0.45492476498E+03  0.46773961208E+03  0.00000000000E+00 0.  1.
        -13    1    5    5    0    0 -0.98915013580E+02  0.86650287152E+02  0.29927341595E+03  0.32688993510E+03  0.00000000000E+00 0. -1.
          2    1    6    6  503    0 -0.48181994735E+02 -0.23795784386E+02 -0.17778859165E+03  0.18573240776E+03  0.00000000000E+00 0. -1.
         -2    1    6    6    0  503 -0.91674393769E+02 -0.16701460200E+02 -0.73360507729E+02  0.11859551990E+03  0.00000000000E+00 0.  1.
<mgrwt>
<rscale>  0 0.20471142E+04</rscale>
<asrwt>0</asrwt>
<pdfrwt beam="1">  1        2 0.19302250E+00 0.20471142E+04</pdfrwt>
<pdfrwt beam="2">  1       -1 0.12846638E+00 0.20471142E+04</pdfrwt>
<totfact> 0.96913349E+00</totfact>
</mgrwt>
</event>
<event>
12    7  0.1546317E-007  0.1365675E+04  0.7818608E-02  0.8979047E-01
          2   -1    0    0  501    0  0.00000000000E+00  0.00000000000E+00  0.11373069347E+04  0.11373069347E+04  0.00000000000E+00 0. -1.
         -1   -1    0    0    0  501 -0.00000000000E+00 -0.00000000000E+00 -0.40997454894E+03  0.40997454894E+03  0.00000000000E+00 0.  1.
         24    2    1    2    0    0  0.39845682687E+02  0.37198837080E+03  0.38159362457E+03  0.54009946761E+03  0.78298877175E+02 0.  0.
        254    2    1    2    0    0 -0.39845682687E+02 -0.37198837080E+03  0.34573876120E+03  0.10071820160E+04  0.86885976775E+03 0.  0.
         23    2    4    4    0    0 -0.15921724748E+03  0.95643799707E+02  0.45894216545E+03  0.50344707038E+03  0.91286215432E+02 0.  0.
         23    2    4    4    0    0  0.11937156480E+03 -0.46763217050E+03 -0.11320340425E+03  0.50373494566E+03  0.89467688998E+02 0.  0.
          2    1    3    3  502    0  0.55797534003E+02  0.31131450452E+03  0.34243440925E+03  0.46614526723E+03  0.00000000000E+00 0. -1.
         -1    1    3    3    0  502 -0.15951851316E+02  0.60673866276E+02  0.39159215318E+02  0.73954200379E+02  0.00000000000E+00 0.  1.
         13    1    5    5    0    0 -0.10237495484E+03  0.21736324973E+02  0.31513539799E+03  0.33205935956E+03  0.00000000000E+00 0. -1.
        -13    1    5    5    0    0 -0.56842292647E+02  0.73907474734E+02  0.14380676746E+03  0.17138771083E+03  0.00000000000E+00 0.  1.
          1    1    6    6  503    0  0.64536175889E+02 -0.27888286867E+03 -0.11142264314E+03  0.30717353050E+03  0.00000000000E+00 0. -1.
         -1    1    6    6    0  503  0.54835388910E+02 -0.18874930183E+03 -0.17807611073E+01  0.19656141516E+03  0.00000000000E+00 0.  1.
<mgrwt>
<rscale>  0 0.13656748E+04</rscale>
<asrwt>0</asrwt>
<pdfrwt beam="1">  1        2 0.17497030E+00 0.13656748E+04</pdfrwt>
<pdfrwt beam="2">  1       -1 0.63073008E-01 0.13656748E+04</pdfrwt>
<totfact> 0.58628909E+01</totfact>
</mgrwt>
</event>
<event>
12    7  0.1546317E-007  0.2909968E+04  0.7818608E-02  0.8269918E-01
          2   -1    0    0  501    0  0.00000000000E+00  0.00000000000E+00  0.24113983337E+04  0.24113983337E+04  0.00000000000E+00 0. -1.
         -1   -1    0    0    0  501 -0.00000000000E+00 -0.00000000000E+00 -0.87790493757E+03  0.87790493757E+03  0.00000000000E+00 0.  1.
         24    2    1    2    0    0 -0.78442740312E+03  0.10381053969E+04  0.10045926109E+04  0.16457053378E+04  0.78425628779E+02 0.  0.
        254    2    1    2    0    0  0.78442740312E+03 -0.10381053969E+04  0.52890078523E+03  0.16435979334E+04  0.85363280186E+03 0.  0.
         23    2    4    4    0    0  0.49760723590E+03 -0.92587331699E+02  0.38153652778E+03  0.64042584403E+03  0.91595657428E+02 0.  0.
         23    2    4    4    0    0  0.28682016722E+03 -0.94551806518E+03  0.14736425745E+03  0.10031720894E+04  0.91475661792E+02 0.  0.
          4    1    3    3  502    0 -0.19992526156E+03  0.29091722288E+03  0.31229797403E+03  0.47130984009E+03  0.00000000000E+00 0. -1.
         -3    1    3    3    0  502 -0.58450214156E+03  0.74718817399E+03  0.69229463685E+03  0.11743954977E+04  0.00000000000E+00 0.  1.
         13    1    5    5    0    0  0.42310020887E+03 -0.93321338287E+02  0.28551076729E+03  0.51888250805E+03  0.00000000000E+00 0. -1.
        -13    1    5    5    0    0  0.74507027031E+02  0.73400658748E+00  0.96025760490E+02  0.12154333598E+03  0.00000000000E+00 0.  1.
          2    1    6    6  503    0  0.69102956098E+02 -0.37743822701E+03  0.47044333499E+02  0.38658505282E+03  0.00000000000E+00 0. -1.
         -2    1    6    6    0  503  0.21771721112E+03 -0.56807983816E+03  0.10031992395E+03  0.61658703659E+03  0.00000000000E+00 0.  1.
<mgrwt>
<rscale>  0 0.29099680E+04</rscale>
<asrwt>0</asrwt>
<pdfrwt beam="1">  1        2 0.37098436E+00 0.29099680E+04</pdfrwt>
<pdfrwt beam="2">  1       -1 0.13506230E+00 0.29099680E+04</pdfrwt>
<totfact> 0.17660515E+00</totfact>
</mgrwt>
</event>
<event>
12    7  0.1546317E-007  0.1421976E+04  0.7818608E-02  0.8938063E-01
         -1   -1    0    0    0  501 -0.00000000000E+00  0.00000000000E+00  0.36110841344E+03  0.36110841344E+03  0.00000000000E+00 0.  1.
          2   -1    0    0  501    0  0.00000000000E+00 -0.00000000000E+00 -0.13998671434E+04  0.13998671434E+04  0.00000000000E+00 0. -1.
         24    2    1    2    0    0 -0.34371793702E+03  0.22427064023E+03 -0.21859757646E+03  0.47222777006E+03  0.82309331651E+02 0.  0.
        254    2    1    2    0    0  0.34371793702E+03 -0.22427064023E+03 -0.82016115349E+03  0.12887477868E+04  0.90540996237E+03 0.  0.
         23    2    4    4    0    0  0.13396641875E+03 -0.52605274210E+03 -0.25071569240E+03  0.60478144252E+03  0.90684871856E+02 0.  0.
         23    2    4    4    0    0  0.20975151828E+03  0.30178210187E+03 -0.56944546110E+03  0.68396634426E+03  0.92052650659E+02 0.  0.
          2    1    3    3  502    0 -0.27336069183E+03  0.15518713771E+03 -0.19798362357E+03  0.37149243700E+03  0.00000000000E+00 0. -1.
         -1    1    3    3    0  502 -0.70357245196E+02  0.69083502522E+02 -0.20613952894E+02  0.10073533306E+03  0.00000000000E+00 0.  1.
         13    1    5    5    0    0  0.99860460579E+02 -0.44442185379E+03 -0.17374116010E+03  0.48751296026E+03  0.00000000000E+00 0. -1.
        -13    1    5    5    0    0  0.34105958167E+02 -0.81630888314E+02 -0.76974532301E+02  0.11726848226E+03  0.00000000000E+00 0.  1.
          2    1    6    6  503    0  0.49457124774E+02  0.15063733606E+03 -0.24002518419E+03  0.28766248148E+03  0.00000000000E+00 0.  1.
         -2    1    6    6    0  503  0.16029439350E+03  0.15114476582E+03 -0.32942027690E+03  0.39630386278E+03  0.00000000000E+00 0. -1.
<mgrwt>
<rscale>  0 0.14219758E+04</rscale>
<asrwt>0</asrwt>
<pdfrwt beam="1">  1        2 0.21536418E+00 0.14219758E+04</pdfrwt>
<pdfrwt beam="2">  1       -1 0.55555140E-01 0.14219758E+04</pdfrwt>
<totfact> 0.52513580E+01</totfact>
</mgrwt>
</event>
<event>
12    7  0.1546317E-007  0.2638722E+04  0.7818608E-02  0.8355166E-01
         -1   -1    0    0    0  501 -0.00000000000E+00  0.00000000000E+00  0.17780577423E+04  0.17780577423E+04  0.00000000000E+00 0.  1.
          2   -1    0    0  501    0  0.00000000000E+00 -0.00000000000E+00 -0.97899680203E+03  0.97899680203E+03  0.00000000000E+00 0. -1.
         24    2    1    2    0    0 -0.37048230709E+03 -0.74078389915E+03 -0.50604170507E+03  0.97386240211E+03  0.79447126300E+02 0.  0.
        254    2    1    2    0    0  0.37048230709E+03  0.74078389915E+03  0.13051026453E+04  0.17831921422E+04  0.88908007293E+03 0.  0.
         23    2    4    4    0    0 -0.75779136786E+02 -0.16044448719E+03  0.15132136985E+03  0.25019127091E+03  0.90623418753E+02 0.  0.
         23    2    4    4    0    0  0.44626144387E+03  0.90122838634E+03  0.11537812755E+04  0.15330008713E+04  0.86709625168E+02 0.  0.
          2    1    3    3  502    0 -0.16518642394E+03 -0.41370909975E+03 -0.28664514015E+03  0.52972371124E+03  0.00000000000E+00 0. -1.
         -1    1    3    3    0  502 -0.20529588314E+03 -0.32707479940E+03 -0.21939656491E+03  0.44413869087E+03  0.00000000000E+00 0.  1.
         13    1    5    5    0    0  0.14713899412E+02 -0.12726907553E+01  0.43282147061E+01  0.15389997408E+02  0.00000000000E+00 0. -1.
        -13    1    5    5    0    0 -0.90493036198E+02 -0.15917179644E+03  0.14699315514E+03  0.23480127351E+03  0.00000000000E+00 0.  1.
          3    1    6    6  503    0  0.13961136796E+03  0.26197623288E+03  0.28359235326E+03  0.41054537323E+03  0.00000000000E+00 0. -1.
         -3    1    6    6    0  503  0.30665007591E+03  0.63925215347E+03  0.87018892220E+03  0.11224554980E+04  0.00000000000E+00 0.  1.
<mgrwt>
<rscale>  0 0.26387215E+04</rscale>
<asrwt>0</asrwt>
<pdfrwt beam="1">  1        2 0.15061489E+00 0.26387215E+04</pdfrwt>
<pdfrwt beam="2">  1       -1 0.27354735E+00 0.26387215E+04</pdfrwt>
<totfact> 0.12800837E+00</totfact>
</mgrwt>
</event>
<event>
12    7  0.1546317E-007  0.2238122E+04  0.7818608E-02  0.8502726E-01
          2   -1    0    0  501    0  0.00000000000E+00  0.00000000000E+00  0.18071372921E+04  0.18071372921E+04  0.00000000000E+00 0. -1.
         -1   -1    0    0    0  501 -0.00000000000E+00 -0.00000000000E+00 -0.69297327768E+03  0.69297327768E+03  0.00000000000E+00 0.  1.
         24    2    1    2    0    0 -0.63893976622E+03  0.49296721130E+02 -0.29402533700E+03  0.71082082549E+03  0.90228352367E+02 0.  0.
        254    2    1    2    0    0  0.63893976622E+03 -0.49296721130E+02  0.14081893514E+04  0.17892897443E+04  0.89882498187E+03 0.  0.
         23    2    4    4    0    0  0.10778968180E+03 -0.34536013240E+02  0.12045174048E+04  0.12130617961E+04  0.88574211788E+02 0.  0.
         23    2    4    4    0    0  0.53115008442E+03 -0.14760707890E+02  0.20367194664E+03  0.57622794821E+03  0.90653713542E+02 0.  0.
          4    1    3    3  502    0 -0.37205666698E+01 -0.14862320554E+01 -0.14358758717E+02  0.14907228245E+02  0.00000000000E+00 0. -1.
         -3    1    3    3    0  502 -0.63521919955E+03  0.50782953185E+02 -0.27966657828E+03  0.69591359724E+03  0.00000000000E+00 0.  1.
         13    1    5    5    0    0  0.73045179668E+02 -0.61117763302E+02  0.66676097525E+03  0.67352889870E+03  0.00000000000E+00 0. -1.
        -13    1    5    5    0    0  0.34744502134E+02  0.26581750062E+02  0.53775642953E+03  0.53953289739E+03  0.00000000000E+00 0.  1.
          3    1    6    6  503    0  0.21934729494E+03  0.30100206847E+02  0.11215874325E+03  0.24819113992E+03  0.00000000000E+00 0. -1.
         -3    1    6    6    0  503  0.31180278948E+03 -0.44860914737E+02  0.91513203392E+02  0.32803680830E+03  0.00000000000E+00 0.  1.
<mgrwt>
<rscale>  0 0.22381223E+04</rscale>
<asrwt>0</asrwt>
<pdfrwt beam="1">  1        2 0.27802112E+00 0.22381223E+04</pdfrwt>
<pdfrwt beam="2">  1       -1 0.10661127E+00 0.22381223E+04</pdfrwt>
<totfact> 0.72872356E+00</totfact>
</mgrwt>
</event>
<event>
12    7  0.1546317E-007  0.1430897E+04  0.7818608E-02  0.8931752E-01
         -3   -1    0    0    0  501 -0.00000000000E+00  0.00000000000E+00  0.15989160951E+03  0.15989160951E+03  0.00000000000E+00 0.  1.
          2   -1    0    0  501    0  0.00000000000E+00 -0.00000000000E+00 -0.32013354637E+04  0.32013354637E+04  0.00000000000E+00 0. -1.
         24    2    1    2    0    0 -0.95118193466E+02  0.63514751467E+02  0.44034196052E+02  0.14655386654E+03  0.80358142044E+02 0.  0.
        254    2    1    2    0    0  0.95118193466E+02 -0.63514751467E+02 -0.30854780503E+04  0.32146732067E+04  0.89491196928E+03 0.  0.
         23    2    4    4    0    0 -0.33251601461E+03 -0.18852441239E+03 -0.89828093442E+03  0.98064044602E+03  0.92944570477E+02 0.  0.
         23    2    4    4    0    0  0.42763420808E+03  0.12500966092E+03 -0.21871971158E+04  0.22340327607E+04  0.92588989453E+02 0.  0.
          4    1    3    3  502    0  0.42146115087E+01  0.27261923576E+02 -0.79730316287E+01  0.28714885697E+02  0.00000000000E+00 0. -1.
         -3    1    3    3    0  502 -0.99332804975E+02  0.36252827891E+02  0.52007227681E+02  0.11783898084E+03  0.00000000000E+00 0.  1.
         13    1    5    5    0    0 -0.28278951115E+03 -0.12818261728E+03 -0.65018392721E+03  0.72051358779E+03  0.00000000000E+00 0. -1.
        -13    1    5    5    0    0 -0.49726503460E+02 -0.60341795113E+02 -0.24809700721E+03  0.26012685823E+03  0.00000000000E+00 0.  1.
          2    1    6    6  503    0  0.31213613824E+03  0.11315182893E+03 -0.14335845446E+04  0.14715287804E+04  0.00000000000E+00 0. -1.
         -2    1    6    6    0  503  0.11549806983E+03  0.11857831996E+02 -0.75361257127E+03  0.76250398025E+03  0.00000000000E+00 0.  1.
<mgrwt>
<rscale>  0 0.14308972E+04</rscale>
<asrwt>0</asrwt>
<pdfrwt beam="1">  1        2 0.49251309E+00 0.14308972E+04</pdfrwt>
<pdfrwt beam="2">  1       -3 0.24598712E-01 0.14308972E+04</pdfrwt>
<totfact> 0.13036947E+01</totfact>
</mgrwt>
</event>
<event>
12    7  0.1546317E-007  0.1473924E+04  0.7818608E-02  0.8901981E-01
          2   -1    0    0  501    0  0.00000000000E+00  0.00000000000E+00  0.11886159886E+04  0.11886159886E+04  0.00000000000E+00 0. -1.
         -1   -1    0    0    0  501 -0.00000000000E+00 -0.00000000000E+00 -0.45692892227E+03  0.45692892227E+03  0.00000000000E+00 0.  1.
         24    2    1    2    0    0 -0.44763422025E+03 -0.80445338242E+02  0.27129490213E+03  0.53597040653E+03  0.82556072832E+02 0.  0.
        254    2    1    2    0    0  0.44763422025E+03  0.80445338242E+02  0.46039216423E+03  0.11095745044E+04  0.90130282830E+03 0.  0.
         23    2    4    4    0    0  0.35083409273E+03  0.44343972010E+03  0.10153818612E+03  0.58178886500E+03  0.91896323156E+02 0.  0.
         23    2    4    4    0    0  0.96800127522E+02 -0.36299438185E+03  0.35885397811E+03  0.52778563939E+03  0.92985577340E+02 0.  0.
          4    1    3    3  502    0 -0.90010674373E+02 -0.49270717096E+02  0.48751488617E+02  0.11360560156E+03  0.00000000000E+00 0. -1.
         -3    1    3    3    0  502 -0.35762354588E+03 -0.31174621147E+02  0.22254341352E+03  0.42236480496E+03  0.00000000000E+00 0.  1.
         13    1    5    5    0    0  0.12249816152E+03  0.16573124607E+03 -0.70878213725E+01  0.20621077254E+03  0.00000000000E+00 0. -1.
        -13    1    5    5    0    0  0.22833593121E+03  0.27770847403E+03  0.10862600750E+03  0.37557809246E+03  0.00000000000E+00 0.  1.
          3    1    6    6  503    0 -0.14679746545E+02 -0.66731611489E+02  0.86281091159E+02  0.11005920962E+03  0.00000000000E+00 0. -1.
         -3    1    6    6    0  503  0.11147987407E+03 -0.29626277037E+03  0.27257288695E+03  0.41772642977E+03  0.00000000000E+00 0.  1.
<mgrwt>
<rscale>  0 0.14739240E+04</rscale>
<asrwt>0</asrwt>
<pdfrwt beam="1">  1        2 0.18286400E+00 0.14739240E+04</pdfrwt>
<pdfrwt beam="2">  1       -1 0.70296758E-01 0.14739240E+04</pdfrwt>
<totfact> 0.43445222E+01</totfact>
</mgrwt>
</event>
<event>
12    7  0.1546317E-007  0.1089918E+04  0.7818608E-02  0.9215075E-01
         -1   -1    0    0    0  501 -0.00000000000E+00  0.00000000000E+00  0.12031219238E+03  0.12031219238E+03  0.00000000000E+00 0.  1.
          2   -1    0    0  501    0  0.00000000000E+00 -0.00000000000E+00 -0.24684134332E+04  0.24684134332E+04  0.00000000000E+00 0. -1.
         24    2    1    2    0    0  0.88490701180E+02 -0.10121987976E+03 -0.17595373441E+03  0.23643133905E+03  0.82849219538E+02 0.  0.
        254    2    1    2    0    0 -0.88490701180E+02  0.10121987976E+03 -0.21721475064E+04  0.23522942865E+04  0.89274159337E+03 0.  0.
         23    2    4    4    0    0  0.22089667008E+03 -0.20455163549E+03 -0.15822429149E+04  0.16137330631E+04  0.10002523109E+03 0.  0.
         23    2    4    4    0    0 -0.30938737126E+03  0.30577151525E+03 -0.58990459146E+03  0.73856122335E+03  0.90931229905E+02 0.  0.
          4    1    3    3  502    0  0.20220906169E+02  0.23219060743E+00 -0.75549251301E+02  0.78208876292E+02  0.00000000000E+00 0. -1.
         -3    1    3    3    0  502  0.68269795011E+02 -0.10145207037E+03 -0.10040448311E+03  0.15822246276E+03  0.00000000000E+00 0.  1.
         13    1    5    5    0    0  0.96349373322E+02 -0.14727459038E+03 -0.10161689696E+04  0.10312964567E+04  0.00000000000E+00 0.  1.
        -13    1    5    5    0    0  0.12454729675E+03 -0.57277045107E+02 -0.56607394528E+03  0.58243660646E+03  0.00000000000E+00 0. -1.
          2    1    6    6  503    0 -0.25986715007E+02  0.11258273880E+02 -0.81226128492E+02  0.86021753280E+02  0.00000000000E+00 0. -1.
         -2    1    6    6    0  503 -0.28340065625E+03  0.29451324137E+03 -0.50867846297E+03  0.65253947007E+03  0.00000000000E+00 0.  1.
<mgrwt>
<rscale>  0 0.10899179E+04</rscale>
<asrwt>0</asrwt>
<pdfrwt beam="1">  1        2 0.37975590E+00 0.10899179E+04</pdfrwt>
<pdfrwt beam="2">  1       -1 0.18509569E-01 0.10899179E+04</pdfrwt>
<totfact> 0.96466897E+01</totfact>
</mgrwt>
</event>
<event>
12    7  0.1546317E-007  0.2468184E+04  0.7818608E-02  0.8414409E-01
          2   -1    0    0  501    0  0.00000000000E+00  0.00000000000E+00  0.17331535059E+04  0.17331535059E+04  0.00000000000E+00 0. -1.
         -1   -1    0    0    0  501 -0.00000000000E+00 -0.00000000000E+00 -0.87873521038E+03  0.87873521038E+03  0.00000000000E+00 0.  1.
         24    2    1    2    0    0  0.35556565831E+03  0.56785031640E+03  0.12515029800E+04  0.14214258138E+04  0.72874659998E+02 0.  0.
        254    2    1    2    0    0 -0.35556565831E+03 -0.56785031640E+03 -0.39708468444E+03  0.11904629025E+04  0.90035812673E+03 0.  0.
         23    2    4    4    0    0 -0.15716998684E+03 -0.53157285559E+03  0.16566272021E+03  0.58582806880E+03  0.92077596464E+02 0.  0.
         23    2    4    4    0    0 -0.19839567148E+03 -0.36277460814E+02 -0.56274740465E+03  0.60463483368E+03  0.90673833235E+02 0.  0.
          2    1    3    3  502    0  0.22763391617E+03  0.36139618173E+03  0.72192544113E+03  0.83880912162E+03  0.00000000000E+00 0. -1.
         -1    1    3    3    0  502  0.12793174215E+03  0.20645413468E+03  0.52957753886E+03  0.58261669221E+03  0.00000000000E+00 0.  1.
         13    1    5    5    0    0 -0.10473828040E+03 -0.26468753837E+03  0.12470459599E+03  0.31077457523E+03  0.00000000000E+00 0. -1.
        -13    1    5    5    0    0 -0.52431706434E+02 -0.26688531722E+03  0.40958124225E+02  0.27505349358E+03  0.00000000000E+00 0.  1.
          2    1    6    6  503    0 -0.32064180902E+02 -0.36527199394E+02 -0.19591840150E+03  0.20185729622E+03  0.00000000000E+00 0. -1.
         -2    1    6    6    0  503 -0.16633149058E+03  0.24973857927E+00 -0.36682900315E+03  0.40277753746E+03  0.00000000000E+00 0.  1.
<mgrwt>
<rscale>  0 0.24681840E+04</rscale>
<asrwt>0</asrwt>
<pdfrwt beam="1">  1        2 0.26663900E+00 0.24681840E+04</pdfrwt>
<pdfrwt beam="2">  1       -1 0.13519003E+00 0.24681840E+04</pdfrwt>
<totfact> 0.43918410E+00</totfact>
</mgrwt>
</event>
<event>
12    7  0.1546317E-007  0.1468064E+04  0.7818608E-02  0.8905972E-01
          2   -1    0    0  501    0  0.00000000000E+00  0.00000000000E+00  0.60973525409E+03  0.60973525409E+03  0.00000000000E+00 0. -1.
         -1   -1    0    0    0  501 -0.00000000000E+00 -0.00000000000E+00 -0.88366695264E+03  0.88366695264E+03  0.00000000000E+00 0.  1.
         24    2    1    2    0    0  0.11636739129E+03 -0.12707714549E+03  0.35050445288E+03  0.39858571093E+03  0.79543867208E+02 0.  0.
        254    2    1    2    0    0 -0.11636739129E+03  0.12707714549E+03 -0.62443615143E+03  0.10948164958E+04  0.88261695066E+03 0.  0.
         23    2    4    4    0    0 -0.23967599540E+03  0.33450333862E+03 -0.16533421035E+01  0.42085383136E+03  0.88193806527E+02 0.  0.
         23    2    4    4    0    0  0.12330860410E+03 -0.20742619313E+03 -0.62278280933E+03  0.67396266444E+03  0.90203148615E+02 0.  0.
          4    1    3    3  502    0  0.11532817050E+03 -0.13477998478E+03  0.30845562133E+03  0.35582453757E+03  0.00000000000E+00 0. -1.
         -3    1    3    3    0  502  0.10392207976E+01  0.77028392861E+01  0.42048831544E+02  0.42761173361E+02  0.00000000000E+00 0.  1.
         13    1    5    5    0    0 -0.16600042023E+03  0.22070156565E+03 -0.42163133834E+02  0.27936186292E+03  0.00000000000E+00 0. -1.
        -13    1    5    5    0    0 -0.73675575169E+02  0.11380177297E+03  0.40509791730E+02  0.14149196844E+03  0.00000000000E+00 0.  1.
          4    1    6    6  503    0  0.63293207827E+02 -0.17753180147E+03 -0.49477853634E+03  0.52946139681E+03  0.00000000000E+00 0. -1.
         -4    1    6    6    0  503  0.60015396276E+02 -0.29894391665E+02 -0.12800427299E+03  0.14450126763E+03  0.00000000000E+00 0.  1.
<mgrwt>
<rscale>  0 0.14680639E+04</rscale>
<asrwt>0</asrwt>
<pdfrwt beam="1">  1        2 0.93805424E-01 0.14680639E+04</pdfrwt>
<pdfrwt beam="2">  1       -1 0.13594876E+00 0.14680639E+04</pdfrwt>
<totfact> 0.24355467E+01</totfact>
</mgrwt>
</event>
<event>
12    7  0.1546317E-007  0.1780640E+04  0.7818608E-02  0.8716663E-01
          2   -1    0    0  501    0  0.00000000000E+00  0.00000000000E+00  0.31860818712E+04  0.31860818712E+04  0.00000000000E+00 0. -1.
         -1   -1    0    0    0  501 -0.00000000000E+00 -0.00000000000E+00 -0.24879131128E+03  0.24879131128E+03  0.00000000000E+00 0.  1.
         24    2    1    2    0    0 -0.49807276212E+03 -0.28188130137E+03  0.17173352317E+04  0.18119197701E+04  0.79242733348E+02 0.  0.
        254    2    1    2    0    0  0.49807276212E+03  0.28188130137E+03  0.12199553282E+04  0.16229534124E+04  0.90451823170E+03 0.  0.
         23    2    4    4    0    0  0.32559258618E+03 -0.23994384476E+03  0.87418125354E+03  0.96754881928E+03  0.91511053064E+02 0.  0.
         23    2    4    4    0    0  0.17248017594E+03  0.52182514613E+03  0.34577407467E+03  0.65540459309E+03  0.89132349386E+02 0.  0.
          2    1    3    3  502    0 -0.16086674119E+03 -0.66302946130E+02  0.43232358024E+03  0.46602346198E+03  0.00000000000E+00 0. -1.
         -1    1    3    3    0  502 -0.33720602093E+03 -0.21557835524E+03  0.12850116514E+04  0.13458963081E+04  0.00000000000E+00 0.  1.
         13    1    5    5    0    0  0.15154889832E+03 -0.14980967266E+03  0.53392217938E+03  0.57487642171E+03  0.00000000000E+00 0.  1.
        -13    1    5    5    0    0  0.17404368786E+03 -0.90134172094E+02  0.34025907416E+03  0.39267239757E+03  0.00000000000E+00 0. -1.
          3    1    6    6  503    0  0.13845155352E+01  0.19888081350E+02  0.36289851461E+02  0.41405385907E+02  0.00000000000E+00 0. -1.
         -3    1    6    6    0  503  0.17109566040E+03  0.50193706478E+03  0.30948422321E+03  0.61399920719E+03  0.00000000000E+00 0.  1.
<mgrwt>
<rscale>  0 0.17806398E+04</rscale>
<asrwt>0</asrwt>
<pdfrwt beam="1">  1        2 0.49016641E+00 0.17806398E+04</pdfrwt>
<pdfrwt beam="2">  1       -1 0.38275589E-01 0.17806398E+04</pdfrwt>
<totfact> 0.94615856E+00</totfact>
</mgrwt>
</event>
<event>
12    7  0.1546317E-007  0.1134343E+04  0.7818608E-02  0.9172350E-01
          2   -1    0    0  501    0  0.00000000000E+00  0.00000000000E+00  0.12603266060E+04  0.12603266060E+04  0.00000000000E+00 0. -1.
         -1   -1    0    0    0  501 -0.00000000000E+00 -0.00000000000E+00 -0.25523842103E+03  0.25523842103E+03  0.00000000000E+00 0.  1.
         24    2    1    2    0    0 -0.11837621446E+03 -0.68987590840E+02  0.40920131587E+03  0.43897546693E+03  0.80507936333E+02 0.  0.
        254    2    1    2    0    0  0.11837621446E+03  0.68987590840E+02  0.59588686909E+03  0.10765895601E+04  0.88611043572E+03 0.  0.
         23    2    4    4    0    0  0.38085362320E+03 -0.20336646944E+03  0.11265044694E+03  0.45527591964E+03  0.90435814847E+02 0.  0.
         23    2    4    4    0    0 -0.26247740874E+03  0.27235406028E+03  0.48323642215E+03  0.62131364045E+03  0.97170344622E+02 0.  0.
          4    1    3    3  502    0 -0.12278734538E+03 -0.73989556221E+02  0.40765825723E+03  0.43213012080E+03  0.00000000000E+00 0. -1.
         -3    1    3    3    0  502  0.44111309140E+01  0.50019653807E+01  0.15430586386E+01  0.68453461250E+01  0.00000000000E+00 0.  1.
         13    1    5    5    0    0  0.18020304713E+03 -0.73044667897E+02  0.92051224682E+02  0.21513272570E+03  0.00000000000E+00 0. -1.
        -13    1    5    5    0    0  0.20065057608E+03 -0.13032180154E+03  0.20599222262E+02  0.24014319394E+03  0.00000000000E+00 0.  1.
          4    1    6    6  503    0 -0.11650870170E+01  0.16441482947E+02  0.58605051292E+02  0.60878829048E+02  0.00000000000E+00 0. -1.
         -4    1    6    6    0  503 -0.26131232172E+03  0.25591257733E+03  0.42463137085E+03  0.56043481140E+03  0.00000000000E+00 0.  1.
<mgrwt>
<rscale>  0 0.11343435E+04</rscale>
<asrwt>0</asrwt>
<pdfrwt beam="1">  1        2 0.19389640E+00 0.11343435E+04</pdfrwt>
<pdfrwt beam="2">  1       -1 0.39267450E-01 0.11343435E+04</pdfrwt>
<totfact> 0.12400689E+02</totfact>
</mgrwt>
</event>
<event>
12    7  0.1546317E-007  0.3054471E+04  0.7818608E-02  0.8228345E-01
         -3   -1    0    0    0  501 -0.00000000000E+00  0.00000000000E+00  0.13409103551E+04  0.13409103551E+04  0.00000000000E+00 0.  1.
          2   -1    0    0  501    0  0.00000000000E+00 -0.00000000000E+00 -0.17394509474E+04  0.17394509474E+04  0.00000000000E+00 0. -1.
         24    2    1    2    0    0  0.10839638110E+04 -0.60110695351E+03 -0.82299625796E+03  0.14898217515E+04  0.77064242715E+02 0.  0.
        254    2    1    2    0    0 -0.10839638110E+04  0.60110695351E+03  0.42445566571E+03  0.15905395510E+04  0.90185716065E+03 0.  0.
         23    2    4    4    0    0 -0.36517936509E+03  0.59797439805E+03  0.49458958170E+03  0.86276332315E+03  0.93874107339E+02 0.  0.
         23    2    4    4    0    0 -0.71878444589E+03  0.31325554593E+01 -0.70133915993E+02  0.72777622790E+03  0.89880916576E+02 0.  0.
          4    1    3    3  502    0  0.80559387885E+02 -0.42594881908E+02 -0.85998553285E+02  0.12529920234E+03  0.00000000000E+00 0. -1.
         -3    1    3    3    0  502  0.10034044231E+04 -0.55851207161E+03 -0.73699770467E+03  0.13645225491E+04  0.00000000000E+00 0.  1.
         13    1    5    5    0    0 -0.17221216163E+03  0.34918822697E+03  0.23559912573E+03  0.45507844875E+03  0.00000000000E+00 0.  1.
        -13    1    5    5    0    0 -0.19296720346E+03  0.24878617108E+03  0.25899045597E+03  0.40768487440E+03  0.00000000000E+00 0. -1.
          1    1    6    6  503    0 -0.10953416211E+03 -0.64948311236E+01 -0.42983729910E+02  0.11784530766E+03  0.00000000000E+00 0. -1.
         -1    1    6    6    0  503 -0.60925028379E+03  0.96273865829E+01 -0.27150186083E+02  0.60993092025E+03  0.00000000000E+00 0.  1.
<mgrwt>
<rscale>  0 0.30544707E+04</rscale>
<asrwt>0</asrwt>
<pdfrwt beam="1">  1        2 0.26760784E+00 0.30544707E+04</pdfrwt>
<pdfrwt beam="2">  1       -3 0.20629390E+00 0.30544707E+04</pdfrwt>
<totfact> 0.67096357E-01</totfact>
</mgrwt>
</event>
<event>
12    7  0.1546317E-007  0.1386013E+04  0.7818608E-02  0.8964005E-01
         -1   -1    0    0    0  501 -0.00000000000E+00  0.00000000000E+00  0.76052636106E+03  0.76052636106E+03  0.00000000000E+00 0.  1.
          2   -1    0    0  501    0  0.00000000000E+00 -0.00000000000E+00 -0.63148137010E+03  0.63148137010E+03  0.00000000000E+00 0. -1.
         24    2    1    2    0    0 -0.34401521806E+03  0.59323462238E+02  0.21397084253E+03  0.41738657225E+03  0.81007936756E+02 0.  0.
        254    2    1    2    0    0  0.34401521806E+03 -0.59323462238E+02 -0.84925851577E+02  0.97462115890E+03  0.90598469065E+03 0.  0.
         23    2    4    4    0    0  0.51901601936E+02  0.14886046735E+02  0.39053221452E+03  0.40456858156E+03  0.90801739705E+02 0.  0.
         23    2    4    4    0    0  0.29211361612E+03 -0.74209508973E+02 -0.47545806610E+03  0.57005257735E+03  0.89789489243E+02 0.  0.
          2    1    3    3  502    0 -0.18254470667E+02 -0.13563735400E+02  0.41837527925E+01  0.23123676281E+02  0.00000000000E+00 0. -1.
         -1    1    3    3    0  502 -0.32576074739E+03  0.72887197638E+02  0.20978708974E+03  0.39426289597E+03  0.00000000000E+00 0.  1.
         13    1    5    5    0    0  0.38721050545E+02 -0.35728312507E+02  0.17349948157E+03  0.18132264662E+03  0.00000000000E+00 0. -1.
        -13    1    5    5    0    0  0.13180551391E+02  0.50614359243E+02  0.21703273295E+03  0.22324593494E+03  0.00000000000E+00 0.  1.
          4    1    6    6  503    0  0.75408120269E+02  0.20207232094E+02 -0.12167562893E+03  0.14456720066E+03  0.00000000000E+00 0. -1.
         -4    1    6    6    0  503  0.21670549585E+03 -0.94416741068E+02 -0.35378243716E+03  0.42548537669E+03  0.00000000000E+00 0.  1.
<mgrwt>
<rscale>  0 0.13860133E+04</rscale>
<asrwt>0</asrwt>
<pdfrwt beam="1">  1        2 0.97150980E-01 0.13860133E+04</pdfrwt>
<pdfrwt beam="2">  1       -1 0.11700406E+00 0.13860133E+04</pdfrwt>
<totfact> 0.34165197E+01</totfact>
</mgrwt>
</event>
<event>
12    7  0.1546317E-007  0.3521819E+04  0.7818608E-02  0.8108639E-01
          2   -1    0    0  501    0  0.00000000000E+00  0.00000000000E+00  0.32101162353E+04  0.32101162353E+04  0.00000000000E+00 0. -1.
         -1   -1    0    0    0  501 -0.00000000000E+00 -0.00000000000E+00 -0.96594683892E+03  0.96594683892E+03  0.00000000000E+00 0.  1.
         24    2    1    2    0    0 -0.45089331389E+02  0.12104837962E+04 -0.26838468767E+03  0.12433560043E+04  0.81238808979E+02 0.  0.
        254    2    1    2    0    0  0.45089331389E+02 -0.12104837962E+04  0.25125540841E+04  0.29327070699E+04  0.90583589242E+03 0.  0.
         23    2    4    4    0    0  0.27998184908E+03 -0.17321128250E+03  0.22632586420E+03  0.40939431344E+03  0.89377418138E+02 0.  0.
         23    2    4    4    0    0 -0.23489251769E+03 -0.10372725137E+04  0.22862282199E+04  0.25233127565E+04  0.95702827602E+02 0.  0.
          4    1    3    3  502    0 -0.14772162666E+02  0.20686339953E+03 -0.15776138894E+02  0.20798934928E+03  0.00000000000E+00 0. -1.
         -3    1    3    3    0  502 -0.30317168723E+02  0.10036203967E+04 -0.25260854878E+03  0.10353666550E+04  0.00000000000E+00 0.  1.
         13    1    5    5    0    0  0.25708042063E+03 -0.17629920148E+03  0.22802744688E+03  0.38622308015E+03  0.00000000000E+00 0. -1.
        -13    1    5    5    0    0  0.22901428449E+02  0.30879189719E+01 -0.17015826790E+01  0.23171233290E+02  0.00000000000E+00 0.  1.
          2    1    6    6  503    0 -0.20946364876E+03 -0.75545465397E+03  0.17250717031E+04  0.18948506894E+04  0.00000000000E+00 0. -1.
         -2    1    6    6    0  503 -0.25428868929E+02 -0.28181785975E+03  0.56115651679E+03  0.62846206710E+03  0.00000000000E+00 0.  1.
<mgrwt>
<rscale>  0 0.35218186E+04</rscale>
<asrwt>0</asrwt>
<pdfrwt beam="1">  1        2 0.49386403E+00 0.35218186E+04</pdfrwt>
<pdfrwt beam="2">  1       -1 0.14860721E+00 0.35218186E+04</pdfrwt>
<totfact> 0.42509921E-01</totfact>
</mgrwt>
</event>
<event>
12    7  0.1546317E-007  0.1673700E+04  0.7818608E-02  0.8776508E-01
         -1   -1    0    0    0  501 -0.00000000000E+00  0.00000000000E+00  0.35981448900E+03  0.35981448900E+03  0.00000000000E+00 0.  1.
          2   -1    0    0  501    0  0.00000000000E+00 -0.00000000000E+00 -0.19463305191E+04  0.19463305191E+04  0.00000000000E+00 0. -1.
         24    2    1    2    0    0 -0.32823805286E+03 -0.23311735382E+02 -0.12145410819E+04  0.12607659278E+04  0.78339190141E+02 0.  0.
        254    2    1    2    0    0  0.32823805286E+03  0.23311735382E+02 -0.37197494818E+03  0.10453790803E+04  0.91987412349E+03 0.  0.
         23    2    4    4    0    0 -0.13400406439E+03  0.10516650360E+03  0.21489049018E+03  0.28821873042E+03  0.88741371652E+02 0.  0.
         23    2    4    4    0    0  0.46224211725E+03 -0.81854768214E+02 -0.58686543836E+03  0.75716034985E+03  0.92264698613E+02 0.  0.
          2    1    3    3  502    0 -0.13342365990E+03 -0.29999912041E+02 -0.62672699515E+03  0.64147376735E+03  0.00000000000E+00 0. -1.
         -1    1    3    3    0  502 -0.19481439296E+03  0.66881766584E+01 -0.58781408678E+03  0.61929216047E+03  0.00000000000E+00 0.  1.
         13    1    5    5    0    0 -0.12598168014E+03  0.11901661709E+03  0.18021563494E+03  0.25002802633E+03  0.00000000000E+00 0. -1.
        -13    1    5    5    0    0 -0.80223842483E+01 -0.13850113491E+02  0.34674855242E+02  0.38190704089E+02  0.00000000000E+00 0.  1.
          1    1    6    6  503    0  0.46671139404E+03 -0.82118919787E+02 -0.58017616560E+03  0.74911109019E+03  0.00000000000E+00 0. -1.
         -1    1    6    6    0  503 -0.44692767909E+01  0.26415157237E+00 -0.66892727590E+01  0.80492596635E+01  0.00000000000E+00 0.  1.
<mgrwt>
<rscale>  0 0.16737000E+04</rscale>
<asrwt>0</asrwt>
<pdfrwt beam="1">  1        2 0.29943546E+00 0.16737000E+04</pdfrwt>
<pdfrwt beam="2">  1       -1 0.55356077E-01 0.16737000E+04</pdfrwt>
<totfact> 0.25645932E+01</totfact>
</mgrwt>
</event>
<event>
12    7  0.1546317E-007  0.1449906E+04  0.7818608E-02  0.8918466E-01
          2   -1    0    0  501    0  0.00000000000E+00  0.00000000000E+00  0.84459121578E+03  0.84459121578E+03  0.00000000000E+00 0. -1.
         -1   -1    0    0    0  501 -0.00000000000E+00 -0.00000000000E+00 -0.62226199676E+03  0.62226199676E+03  0.00000000000E+00 0.  1.
         24    2    1    2    0    0  0.25346387293E+03 -0.10862942368E+03 -0.27941851758E+03  0.40117328286E+03  0.82589396045E+02 0.  0.
        254    2    1    2    0    0 -0.25346387293E+03  0.10862942368E+03  0.50174773660E+03  0.10656799297E+04  0.89882069112E+03 0.  0.
         23    2    4    4    0    0  0.32279398172E+03 -0.22108899448E+02  0.12123485462E+03  0.35713683787E+03  0.90355259520E+02 0.  0.
         23    2    4    4    0    0 -0.57625785465E+03  0.13073832313E+03  0.38051288198E+03  0.70854309181E+03  0.89875666456E+02 0.  0.
          2    1    3    3  502    0  0.11521592950E+03 -0.49916756593E+02 -0.70921890777E+02  0.14420924933E+03  0.00000000000E+00 0. -1.
         -1    1    3    3    0  502  0.13824794343E+03 -0.58712667086E+02 -0.20849662681E+03  0.25696403353E+03  0.00000000000E+00 0.  1.
         13    1    5    5    0    0 -0.11113015993E+01 -0.61259038068E+01  0.14408113648E+02  0.15695713670E+02  0.00000000000E+00 0.  1.
        -13    1    5    5    0    0  0.32390528332E+03 -0.15982995641E+02  0.10682674097E+03  0.34144112420E+03  0.00000000000E+00 0. -1.
          3    1    6    6  503    0 -0.41809423213E+03  0.11568068369E+03  0.31770595574E+03  0.53770055034E+03  0.00000000000E+00 0. -1.
         -3    1    6    6    0  503 -0.15816362252E+03  0.15057639433E+02  0.62806926244E+02  0.17084254148E+03  0.00000000000E+00 0.  1.
<mgrwt>
<rscale>  0 0.14499062E+04</rscale>
<asrwt>0</asrwt>
<pdfrwt beam="1">  1        2 0.12993711E+00 0.14499062E+04</pdfrwt>
<pdfrwt beam="2">  1       -1 0.95732615E-01 0.14499062E+04</pdfrwt>
<totfact> 0.37314242E+01</totfact>
</mgrwt>
</event>
<event>
12    7  0.1546317E-007  0.1302456E+04  0.7818608E-02  0.9027620E-01
         -1   -1    0    0    0  501 -0.00000000000E+00  0.00000000000E+00  0.28955986505E+03  0.28955986505E+03  0.00000000000E+00 0.  1.
          2   -1    0    0  501    0  0.00000000000E+00 -0.00000000000E+00 -0.14646286468E+04  0.14646286468E+04  0.00000000000E+00 0. -1.
         24    2    1    2    0    0 -0.25999923366E+03 -0.97756729597E+02 -0.61969959301E+02  0.29563453764E+03  0.80022023887E+02 0.  0.
        254    2    1    2    0    0  0.25999923366E+03  0.97756729597E+02 -0.11130988225E+04  0.14585539742E+04  0.90068569849E+03 0.  0.
         23    2    4    4    0    0  0.48410575991E+01 -0.34377954737E+03 -0.19712184538E+03  0.40623176124E+03  0.89215519289E+02 0.  0.
         23    2    4    4    0    0  0.25515817606E+03  0.44153627697E+03 -0.91597697711E+03  0.10523222130E+04  0.91149540255E+02 0.  0.
          4    1    3    3  502    0 -0.19991108042E+03 -0.48163730049E+02 -0.18611506480E+02  0.20647172480E+03  0.00000000000E+00 0. -1.
         -3    1    3    3    0  502 -0.60088153242E+02 -0.49592999548E+02 -0.43358452821E+02  0.89162812849E+02  0.00000000000E+00 0.  1.
         13    1    5    5    0    0 -0.22649557756E+02 -0.74371080102E+02 -0.78826875662E+02  0.11071466185E+03  0.00000000000E+00 0.  1.
        -13    1    5    5    0    0  0.27490615355E+02 -0.26940846727E+03 -0.11829496972E+03  0.29551709939E+03  0.00000000000E+00 0. -1.
          1    1    6    6  503    0  0.63797682529E+02  0.19368381111E+03 -0.32978915144E+03  0.38774275930E+03  0.00000000000E+00 0. -1.
         -1    1    6    6    0  503  0.19136049353E+03  0.24785246586E+03 -0.58618782567E+03  0.66457945370E+03  0.00000000000E+00 0.  1.
<mgrwt>
<rscale>  0 0.13024556E+04</rscale>
<asrwt>0</asrwt>
<pdfrwt beam="1">  1        2 0.22532749E+00 0.13024556E+04</pdfrwt>
<pdfrwt beam="2">  1       -1 0.44547671E-01 0.13024556E+04</pdfrwt>
<totfact> 0.74066675E+01</totfact>
</mgrwt>
</event>
<event>
12    7  0.1546317E-007  0.1657338E+04  0.7818608E-02  0.8786077E-01
          2   -1    0    0  501    0  0.00000000000E+00  0.00000000000E+00  0.20924033702E+04  0.20924033702E+04  0.00000000000E+00 0. -1.
         -1   -1    0    0    0  501 -0.00000000000E+00 -0.00000000000E+00 -0.32818333586E+03  0.32818333586E+03  0.00000000000E+00 0.  1.
         24    2    1    2    0    0  0.67258458083E+02 -0.22210042256E+03 -0.15377651398E+03  0.29058200629E+03  0.83296988188E+02 0.  0.
        254    2    1    2    0    0 -0.67258458083E+02  0.22210042256E+03  0.19179965483E+04  0.21300046997E+04  0.89685950059E+03 0.  0.
         23    2    4    4    0    0 -0.30650848059E+03 -0.23720436913E+03  0.90977158882E+03  0.99294801504E+03  0.89710954380E+02 0.  0.
         23    2    4    4    0    0  0.23925002251E+03  0.45930479169E+03  0.10082249595E+04  0.11370566847E+04  0.90437107451E+02 0.  0.
          2    1    3    3  502    0 -0.17997347468E+02 -0.35570347910E+02 -0.37976026514E+02  0.55057540412E+02  0.00000000000E+00 0. -1.
         -1    1    3    3    0  502  0.85255805551E+02 -0.18653007465E+03 -0.11580048747E+03  0.23552446588E+03  0.00000000000E+00 0.  1.
         13    1    5    5    0    0 -0.73081209349E+02 -0.22299701801E+02  0.12556128013E+03  0.14698222657E+03  0.00000000000E+00 0.  1.
        -13    1    5    5    0    0 -0.23342727124E+03 -0.21490466732E+03  0.78421030869E+03  0.84596578846E+03  0.00000000000E+00 0. -1.
          1    1    6    6  503    0  0.11074064655E+03  0.30571706262E+03  0.60504626864E+03  0.68688237739E+03  0.00000000000E+00 0. -1.
         -1    1    6    6    0  503  0.12850937596E+03  0.15358772907E+03  0.40317869082E+03  0.45017430730E+03  0.00000000000E+00 0.  1.
<mgrwt>
<rscale>  0 0.16573375E+04</rscale>
<asrwt>0</asrwt>
<pdfrwt beam="1">  1        2 0.32190820E+00 0.16573375E+04</pdfrwt>
<pdfrwt beam="2">  1       -1 0.50489745E-01 0.16573375E+04</pdfrwt>
<totfact> 0.25428565E+01</totfact>
</mgrwt>
</event>
<event>
12    7  0.1546317E-007  0.1210823E+04  0.7818608E-02  0.9103436E-01
         -1   -1    0    0    0  501 -0.00000000000E+00  0.00000000000E+00  0.91248990625E+03  0.91248990625E+03  0.00000000000E+00 0.  1.
          2   -1    0    0  501    0  0.00000000000E+00 -0.00000000000E+00 -0.40167326065E+03  0.40167326065E+03  0.00000000000E+00 0. -1.
         24    2    1    2    0    0  0.27143264901E+03 -0.31918470126E+02  0.71817027006E+02  0.29334021548E+03  0.78716738773E+02 0.  0.
        254    2    1    2    0    0 -0.27143264901E+03  0.31918470126E+02  0.43899961860E+03  0.10208229514E+04  0.88015019249E+03 0.  0.
         23    2    4    4    0    0 -0.26143717719E+03  0.33011343779E+03  0.54251994216E+03  0.69255750610E+03  0.89351733005E+02 0.  0.
         23    2    4    4    0    0 -0.99954718254E+01 -0.29819496767E+03 -0.10352032356E+03  0.32826544532E+03  0.89563368631E+02 0.  0.
          2    1    3    3  502    0  0.18327912743E+03 -0.29600616613E+02  0.10533483879E+02  0.18595265349E+03  0.00000000000E+00 0. -1.
         -1    1    3    3    0  502  0.88153521579E+02 -0.23178535131E+01  0.61283543127E+02  0.10738756199E+03  0.00000000000E+00 0.  1.
         13    1    5    5    0    0 -0.92740364182E+02  0.81365338766E+02  0.10648939250E+03  0.16297571664E+03  0.00000000000E+00 0. -1.
        -13    1    5    5    0    0 -0.16869681301E+03  0.24874809903E+03  0.43603054966E+03  0.52958178946E+03  0.00000000000E+00 0.  1.
          1    1    6    6  503    0  0.37574180730E+01 -0.77940419517E+02  0.12366204192E+02  0.79004747902E+02  0.00000000000E+00 0. -1.
         -1    1    6    6    0  503 -0.13752889898E+02 -0.22025454815E+03 -0.11588652775E+03  0.24926069742E+03  0.00000000000E+00 0.  1.
<mgrwt>
<rscale>  0 0.12108225E+04</rscale>
<asrwt>0</asrwt>
<pdfrwt beam="1">  1        2 0.61795886E-01 0.12108225E+04</pdfrwt>
<pdfrwt beam="2">  1       -1 0.14038306E+00 0.12108225E+04</pdfrwt>
<totfact> 0.37177848E+01</totfact>
</mgrwt>
</event>
<event>
12    7  0.1546317E-007  0.1305206E+04  0.7818608E-02  0.9025447E-01
         -1   -1    0    0    0  501 -0.00000000000E+00  0.00000000000E+00  0.11874624415E+03  0.11874624415E+03  0.00000000000E+00 0.  1.
          2   -1    0    0  501    0  0.00000000000E+00 -0.00000000000E+00 -0.35865593476E+04  0.35865593476E+04  0.00000000000E+00 0. -1.
         24    2    1    2    0    0  0.21930417279E+03 -0.17360007508E+03 -0.14692446025E+04  0.14977289328E+04  0.79252431867E+02 0.  0.
        254    2    1    2    0    0 -0.21930417279E+03  0.17360007508E+03 -0.19985685010E+04  0.22075766589E+04  0.89492309492E+03 0.  0.
         23    2    4    4    0    0 -0.44799671063E+03  0.17158898377E+03 -0.53695105073E+03  0.72535782511E+03  0.87656782278E+02 0.  0.
         23    2    4    4    0    0  0.22869253785E+03  0.20110913117E+01 -0.14616174502E+04  0.14822188338E+04  0.91338815456E+02 0.  0.
          4    1    3    3  502    0  0.21096866123E+03 -0.14841489493E+03 -0.12134676174E+04  0.12405798707E+04  0.00000000000E+00 0. -1.
         -3    1    3    3    0  502  0.83355115578E+01 -0.25185180154E+02 -0.25577698508E+03  0.25714906212E+03  0.00000000000E+00 0.  1.
         13    1    5    5    0    0 -0.14285457210E+03  0.22867040375E+02 -0.20205331282E+03  0.24850728666E+03  0.00000000000E+00 0. -1.
        -13    1    5    5    0    0 -0.30514213854E+03  0.14872194340E+03 -0.33489773792E+03  0.47685053845E+03  0.00000000000E+00 0.  1.
          3    1    6    6  503    0  0.11602691882E+03 -0.10715611289E+02 -0.47388373383E+03  0.48799883545E+03  0.00000000000E+00 0. -1.
         -3    1    6    6    0  503  0.11266561902E+03  0.12726702601E+02 -0.98773371640E+03  0.99421999838E+03  0.00000000000E+00 0.  1.
<mgrwt>
<rscale>  0 0.13052057E+04</rscale>
<asrwt>0</asrwt>
<pdfrwt beam="1">  1        2 0.55177831E+00 0.13052057E+04</pdfrwt>
<pdfrwt beam="2">  1       -1 0.18268655E-01 0.13052057E+04</pdfrwt>
<totfact> 0.19169617E+01</totfact>
</mgrwt>
</event>
<event>
12    7  0.1546317E-007  0.2113678E+04  0.7818608E-02  0.8555242E-01
         -1   -1    0    0    0  501 -0.00000000000E+00  0.00000000000E+00  0.50729747845E+03  0.50729747845E+03  0.00000000000E+00 0.  1.
          2   -1    0    0  501    0  0.00000000000E+00 -0.00000000000E+00 -0.22016841605E+04  0.22016841605E+04  0.00000000000E+00 0. -1.
         24    2    1    2    0    0 -0.90052451725E+03 -0.15213315396E+03 -0.78579146970E+03  0.12074828698E+04  0.80360091971E+02 0.  0.
        254    2    1    2    0    0  0.90052451725E+03  0.15213315396E+03 -0.90859521238E+03  0.15014987692E+04  0.77127452383E+03 0.  0.
         23    2    4    4    0    0  0.72374030672E+03 -0.13225558588E+03 -0.88289926913E+03  0.11528682273E+04  0.91117827769E+02 0.  0.
         23    2    4    4    0    0  0.17678421053E+03  0.28438873984E+03 -0.25695943245E+02  0.34863054184E+03  0.93559396999E+02 0.  0.
          4    1    3    3  502    0 -0.81869502484E+03 -0.11665385572E+03 -0.69524820163E+03  0.10803886928E+04  0.00000000000E+00 0. -1.
         -3    1    3    3    0  502 -0.81829492409E+02 -0.35479298243E+02 -0.90543268068E+02  0.12709417699E+03  0.00000000000E+00 0.  1.
         13    1    5    5    0    0  0.29714212341E+03 -0.82841491367E+02 -0.42432105892E+03  0.52459938547E+03  0.00000000000E+00 0. -1.
        -13    1    5    5    0    0  0.42659818331E+03 -0.49414094508E+02 -0.45857821022E+03  0.62826884184E+03  0.00000000000E+00 0.  1.
          3    1    6    6  503    0  0.18808043604E+03  0.26601257775E+03 -0.27728011987E+02  0.32696450050E+03  0.00000000000E+00 0. -1.
         -3    1    6    6    0  503 -0.11296225510E+02  0.18376162090E+02  0.20320687414E+01  0.21666041339E+02  0.00000000000E+00 0.  1.
<mgrwt>
<rscale>  0 0.21136781E+04</rscale>
<asrwt>0</asrwt>
<pdfrwt beam="1">  1        2 0.33872064E+00 0.21136781E+04</pdfrwt>
<pdfrwt beam="2">  1       -1 0.78045765E-01 0.21136781E+04</pdfrwt>
<totfact> 0.88756355E+00</totfact>
</mgrwt>
</event>
<event>
12    7  0.1546317E-007  0.1793159E+04  0.7818608E-02  0.8709946E-01
          2   -1    0    0  501    0  0.00000000000E+00  0.00000000000E+00  0.29701873926E+04  0.29701873926E+04  0.00000000000E+00 0. -1.
         -1   -1    0    0    0  501 -0.00000000000E+00 -0.00000000000E+00 -0.27064098786E+03  0.27064098786E+03  0.00000000000E+00 0.  1.
         24    2    1    2    0    0 -0.59674380081E+03  0.18685220886E+03  0.51855265496E+03  0.81626317607E+03  0.79823585996E+02 0.  0.
        254    2    1    2    0    0  0.59674380081E+03 -0.18685220886E+03  0.21809937498E+04  0.24245652044E+04  0.85484839710E+03 0.  0.
         23    2    4    4    0    0  0.57298074113E+03 -0.47646930831E+03  0.14772540433E+04  0.16575962301E+04  0.10007908054E+03 0.  0.
         23    2    4    4    0    0  0.23763059681E+02  0.28961709946E+03  0.70373970655E+03  0.76696897429E+03  0.92461265610E+02 0.  0.
          2    1    3    3  502    0 -0.38237794438E+02 -0.88108414308E-01  0.53859924068E+02  0.66053221778E+02  0.00000000000E+00 0. -1.
         -1    1    3    3    0  502 -0.55850600637E+03  0.18694031727E+03  0.46469273089E+03  0.75020995429E+03  0.00000000000E+00 0.  1.
         13    1    5    5    0    0  0.21548202970E+03 -0.11823381617E+03  0.47980349903E+03  0.53909473943E+03  0.00000000000E+00 0.  1.
        -13    1    5    5    0    0  0.35749871143E+03 -0.35823549214E+03  0.99745054424E+03  0.11185014907E+04  0.00000000000E+00 0. -1.
          3    1    6    6  503    0  0.26802444525E+02  0.28918888563E+03  0.63616181405E+03  0.69932141126E+03  0.00000000000E+00 0. -1.
         -3    1    6    6    0  503 -0.30393848442E+01  0.42821382861E+00  0.67577892505E+02  0.67647563021E+02  0.00000000000E+00 0.  1.
<mgrwt>
<rscale>  0 0.17931586E+04</rscale>
<asrwt>0</asrwt>
<pdfrwt beam="1">  1        2 0.45695188E+00 0.17931586E+04</pdfrwt>
<pdfrwt beam="2">  1       -1 0.41637077E-01 0.17931586E+04</pdfrwt>
<totfact> 0.11099734E+01</totfact>
</mgrwt>
</event>
<event>
12    7  0.1546317E-007  0.1412909E+04  0.7818608E-02  0.8944527E-01
          2   -1    0    0  501    0  0.00000000000E+00  0.00000000000E+00  0.10771780348E+04  0.10771780348E+04  0.00000000000E+00 0. -1.
         -1   -1    0    0    0  501 -0.00000000000E+00 -0.00000000000E+00 -0.46332005765E+03  0.46332005765E+03  0.00000000000E+00 0.  1.
         24    2    1    2    0    0  0.38696104808E+03  0.77755180536E+02 -0.31056724181E+02  0.40200128065E+03  0.69683489406E+02 0.  0.
        254    2    1    2    0    0 -0.38696104808E+03 -0.77755180536E+02  0.64491470137E+03  0.11384968118E+04  0.85116114672E+03 0.  0.
         23    2    4    4    0    0  0.16925554750E+03 -0.22587726490E+03  0.41790075265E+03  0.51265209196E+03  0.92212521773E+02 0.  0.
         23    2    4    4    0    0 -0.55621659558E+03  0.14812208436E+03  0.22701394872E+03  0.62584471988E+03  0.93963968674E+02 0.  0.
          4    1    3    3  502    0  0.33760718375E+03  0.61830489758E+02 -0.34243413832E+01  0.34323948796E+03  0.00000000000E+00 0. -1.
         -3    1    3    3    0  502  0.49353864333E+02  0.15924690779E+02 -0.27632382798E+02  0.58761792690E+02  0.00000000000E+00 0.  1.
         13    1    5    5    0    0  0.44979497485E+02 -0.95575894876E+02  0.90924975593E+02  0.13937452444E+03  0.00000000000E+00 0. -1.
        -13    1    5    5    0    0  0.12427605002E+03 -0.13030137002E+03  0.32697577705E+03  0.37327756752E+03  0.00000000000E+00 0.  1.
          2    1    6    6  503    0 -0.72484876614E+02  0.54060728409E+02  0.36036156642E+02  0.97340763708E+02  0.00000000000E+00 0. -1.
         -2    1    6    6    0  503 -0.48373171897E+03  0.94061355953E+02  0.19097779208E+03  0.52850395617E+03  0.00000000000E+00 0.  1.
<mgrwt>
<rscale>  0 0.14129093E+04</rscale>
<asrwt>0</asrwt>
<pdfrwt beam="1">  1        2 0.16571970E+00 0.14129093E+04</pdfrwt>
<pdfrwt beam="2">  1       -1 0.71280009E-01 0.14129093E+04</pdfrwt>
<totfact> 0.49626032E+01</totfact>
</mgrwt>
</event>
<event>
12    7  0.1546317E-007  0.2522611E+04  0.7818608E-02  0.8394974E-01
          2   -1    0    0  501    0  0.00000000000E+00  0.00000000000E+00  0.26492024758E+04  0.26492024758E+04  0.00000000000E+00 0. -1.
         -1   -1    0    0    0  501 -0.00000000000E+00 -0.00000000000E+00 -0.60051732092E+03  0.60051732092E+03  0.00000000000E+00 0.  1.
         24    2    1    2    0    0  0.97443579742E+03 -0.43083887298E+03  0.12462093774E+04  0.16415766769E+04  0.81172137627E+02 0.  0.
        254    2    1    2    0    0 -0.97443579742E+03  0.43083887298E+03  0.80247577743E+03  0.16081431198E+04  0.89833716537E+03 0.  0.
         23    2    4    4    0    0  0.10806058678E+01  0.15115212250E+03  0.52052549262E+03  0.55102788231E+03  0.99180677405E+02 0.  0.
         23    2    4    4    0    0 -0.97551640329E+03  0.27968675049E+03  0.28195028481E+03  0.10571152375E+04  0.90220456597E+02 0.  0.
          2    1    3    3  502    0  0.24171561735E+02 -0.18800601297E+02  0.20493694007E+02  0.36847231916E+02  0.00000000000E+00 0. -1.
         -1    1    3    3    0  502  0.95026423568E+03 -0.41203827169E+03  0.12257156834E+04  0.16047294450E+04  0.00000000000E+00 0.  1.
         13    1    5    5    0    0  0.18894749456E+02 -0.50647413924E+01  0.10381403504E+03  0.10564098179E+03  0.00000000000E+00 0. -1.
        -13    1    5    5    0    0 -0.17814143588E+02  0.15621686389E+03  0.41671145758E+03  0.44538690052E+03  0.00000000000E+00 0.  1.
          4    1    6    6  503    0 -0.20130153262E+02  0.97826027101E+01 -0.64537303285E+01  0.23293196889E+02  0.00000000000E+00 0. -1.
         -4    1    6    6    0  503 -0.95538625002E+03  0.26990414778E+03  0.28840401514E+03  0.10338220406E+04  0.00000000000E+00 0.  1.
<mgrwt>
<rscale>  0 0.25226113E+04</rscale>
<asrwt>0</asrwt>
<pdfrwt beam="1">  1        2 0.40756961E+00 0.25226113E+04</pdfrwt>
<pdfrwt beam="2">  1       -1 0.92387281E-01 0.25226113E+04</pdfrwt>
<totfact> 0.32841043E+00</totfact>
</mgrwt>
</event>
<event>
12    7  0.1546317E-007  0.1446389E+04  0.7818608E-02  0.8920907E-01
         -3   -1    0    0    0  501 -0.00000000000E+00  0.00000000000E+00  0.74157442671E+03  0.74157442671E+03  0.00000000000E+00 0.  1.
          4   -1    0    0  501    0  0.00000000000E+00 -0.00000000000E+00 -0.70527057335E+03  0.70527057335E+03  0.00000000000E+00 0. -1.
         24    2    1    2    0    0 -0.25946473012E+03 -0.28313809868E+03  0.24273278656E+03  0.46144159105E+03  0.80746561415E+02 0.  0.
        254    2    1    2    0    0  0.25946473012E+03  0.28313809868E+03 -0.20642893320E+03  0.98540340901E+03  0.88369556123E+03 0.  0.
         23    2    4    4    0    0 -0.31919886368E+03  0.13637137902E+03 -0.54515854960E+02  0.36319199662E+03  0.91931389511E+02 0.  0.
         23    2    4    4    0    0  0.57866359379E+03  0.14676671966E+03 -0.15191307824E+03  0.62221141239E+03  0.87620965485E+02 0.  0.
          2    1    3    3  502    0  0.77237270640E+00  0.15206480849E+01  0.11761203739E+02  0.11884226671E+02  0.00000000000E+00 0. -1.
         -1    1    3    3    0  502 -0.26023710282E+03 -0.28465874676E+03  0.23097158283E+03  0.44955736438E+03  0.00000000000E+00 0.  1.
         13    1    5    5    0    0 -0.25200844056E+03  0.91577165849E+02 -0.44317648319E+01  0.26816836495E+03  0.00000000000E+00 0.  1.
        -13    1    5    5    0    0 -0.67190423114E+02  0.44794213167E+02 -0.50084090128E+02  0.95023631668E+02  0.00000000000E+00 0. -1.
          4    1    6    6  503    0  0.30802951984E+03  0.42822386387E+02 -0.50434461944E+02  0.31505487906E+03  0.00000000000E+00 0. -1.
         -4    1    6    6    0  503  0.27063407395E+03  0.10394433327E+03 -0.10147861630E+03  0.30715653333E+03  0.00000000000E+00 0.  1.
<mgrwt>
<rscale>  0 0.14463895E+04</rscale>
<asrwt>0</asrwt>
<pdfrwt beam="1">  1        4 0.10850317E+00 0.14463895E+04</pdfrwt>
<pdfrwt beam="2">  1       -3 0.11408837E+00 0.14463895E+04</pdfrwt>
<totfact> 0.96129457E-01</totfact>
</mgrwt>
</event>
<event>
12    7  0.1546317E-007  0.1995986E+04  0.7818608E-02  0.8608500E-01
          2   -1    0    0  501    0  0.00000000000E+00  0.00000000000E+00  0.17965359695E+04  0.17965359695E+04  0.00000000000E+00 0. -1.
         -1   -1    0    0    0  501 -0.00000000000E+00 -0.00000000000E+00 -0.55439464784E+03  0.55439464784E+03  0.00000000000E+00 0.  1.
         24    2    1    2    0    0 -0.25314274522E+03 -0.75884252292E+03  0.51039681717E+03  0.95160634097E+03  0.71599533094E+02 0.  0.
        254    2    1    2    0    0  0.25314274522E+03  0.75884252292E+03  0.73174450447E+03  0.13993242764E+04  0.88472322596E+03 0.  0.
         23    2    4    4    0    0  0.17938231183E+03  0.45890158140E+03  0.90421491124E+03  0.10342490134E+04  0.96424793732E+02 0.  0.
         23    2    4    4    0    0  0.73760433389E+02  0.29994094152E+03 -0.17247040677E+03  0.36507526295E+03  0.90159505724E+02 0.  0.
          2    1    3    3  502    0 -0.67255285022E+02 -0.15057807798E+03  0.77407979121E+02  0.18217855572E+03  0.00000000000E+00 0. -1.
         -1    1    3    3    0  502 -0.18588746020E+03 -0.60826444494E+03  0.43298883805E+03  0.76942778525E+03  0.00000000000E+00 0.  1.
         13    1    5    5    0    0  0.81722555290E+02  0.11810703051E+03  0.20510881044E+03  0.25039463017E+03  0.00000000000E+00 0.  1.
        -13    1    5    5    0    0  0.97659756544E+02  0.34079455089E+03  0.69910610080E+03  0.78385438325E+03  0.00000000000E+00 0. -1.
          3    1    6    6  503    0  0.66376789205E+02  0.24832964235E+03 -0.10003332925E+03  0.27582631560E+03  0.00000000000E+00 0. -1.
         -3    1    6    6    0  503  0.73836441834E+01  0.51611299164E+02 -0.72437077520E+02  0.89248947346E+02  0.00000000000E+00 0.  1.
<mgrwt>
<rscale>  0 0.19959859E+04</rscale>
<asrwt>0</asrwt>
<pdfrwt beam="1">  1        2 0.27639015E+00 0.19959859E+04</pdfrwt>
<pdfrwt beam="2">  1       -1 0.85291485E-01 0.19959859E+04</pdfrwt>
<totfact> 0.12464776E+01</totfact>
</mgrwt>
</event>
<event>
12    7  0.1546317E-007  0.1066064E+04  0.7818608E-02  0.9238915E-01
          2   -1    0    0  501    0  0.00000000000E+00  0.00000000000E+00  0.33104058784E+04  0.33104058784E+04  0.00000000000E+00 0. -1.
         -1   -1    0    0    0  501 -0.00000000000E+00 -0.00000000000E+00 -0.85827193982E+02  0.85827193982E+02  0.00000000000E+00 0.  1.
         24    2    1    2    0    0 -0.25749296448E+02 -0.29242936811E+02  0.58173133017E+02  0.10550538159E+03  0.78924625554E+02 0.  0.
        254    2    1    2    0    0  0.25749296448E+02  0.29242936811E+02  0.31664055514E+04  0.32907276908E+04  0.89512370284E+03 0.  0.
         23    2    4    4    0    0  0.19744698377E+03 -0.33852720923E+03  0.22331086998E+04  0.22689571404E+04  0.88351895170E+02 0.  0.
         23    2    4    4    0    0 -0.17169768733E+03  0.36777014604E+03  0.93329685169E+03  0.10217705504E+04  0.90758295272E+02 0.  0.
          2    1    3    3  502    0 -0.37453396900E+01  0.26686972826E+02  0.25476237616E+02  0.37084508505E+02  0.00000000000E+00 0. -1.
         -1    1    3    3    0  502 -0.22003956757E+02 -0.55929909637E+02  0.32696895401E+02  0.68420873086E+02  0.00000000000E+00 0.  1.
         13    1    5    5    0    0  0.26799586190E+02 -0.21946813085E+02  0.10216365999E+03  0.10787628955E+03  0.00000000000E+00 0.  1.
        -13    1    5    5    0    0  0.17064739758E+03 -0.31658039614E+03  0.21309450398E+04  0.21610808509E+04  0.00000000000E+00 0. -1.
          3    1    6    6  503    0 -0.14703213456E+03  0.35162877554E+03  0.81282582492E+03  0.89774554638E+03  0.00000000000E+00 0. -1.
         -3    1    6    6    0  503 -0.24665552769E+02  0.16141370501E+02  0.12047102677E+03  0.12402500403E+03  0.00000000000E+00 0.  1.
<mgrwt>
<rscale>  0 0.10660635E+04</rscale>
<asrwt>0</asrwt>
<pdfrwt beam="1">  1        2 0.50929311E+00 0.10660635E+04</pdfrwt>
<pdfrwt beam="2">  1       -1 0.13204186E-01 0.10660635E+04</pdfrwt>
<totfact> 0.51715225E+01</totfact>
</mgrwt>
</event>
<event>
12    7  0.1546317E-007  0.2109011E+04  0.7818608E-02  0.8557285E-01
         -1   -1    0    0    0  501 -0.00000000000E+00  0.00000000000E+00  0.48923060923E+03  0.48923060923E+03  0.00000000000E+00 0.  1.
          2   -1    0    0  501    0  0.00000000000E+00 -0.00000000000E+00 -0.22729186217E+04  0.22729186217E+04  0.00000000000E+00 0. -1.
         24    2    1    2    0    0 -0.24174882952E+03  0.47196411080E+03  0.15564641597E+03  0.55863858859E+03  0.81600535578E+02 0.  0.
        254    2    1    2    0    0  0.24174882952E+03 -0.47196411080E+03 -0.19393344284E+04  0.22035106423E+04  0.90180292034E+03 0.  0.
         23    2    4    4    0    0  0.30638182942E+03  0.19361636212E+02 -0.16684144551E+03  0.36080687215E+03  0.90004625997E+02 0.  0.
         23    2    4    4    0    0 -0.64632999896E+02 -0.49132574701E+03 -0.17724929829E+04  0.18427037702E+04  0.90815173729E+02 0.  0.
          4    1    3    3  502    0 -0.30023119062E+01 -0.26414330257E+01  0.50357640406E+01  0.64303938203E+01  0.00000000000E+00 0. -1.
         -3    1    3    3    0  502 -0.23874651761E+03  0.47460554382E+03  0.15061065193E+03  0.55220819477E+03  0.00000000000E+00 0.  1.
         13    1    5    5    0    0  0.91872333409E+01  0.20681794178E+02 -0.96876074423E+01  0.24616896735E+02  0.00000000000E+00 0.  1.
        -13    1    5    5    0    0  0.29719459608E+03 -0.13201579664E+01 -0.15715383807E+03  0.33618997542E+03  0.00000000000E+00 0. -1.
          4    1    6    6  503    0 -0.19516272849E+02 -0.32034531442E+03 -0.12729914703E+04  0.13128249269E+04  0.00000000000E+00 0. -1.
         -4    1    6    6    0  503 -0.45116727047E+02 -0.17098043259E+03 -0.49950151267E+03  0.52987884327E+03  0.00000000000E+00 0.  1.
<mgrwt>
<rscale>  0 0.21090105E+04</rscale>
<asrwt>0</asrwt>
<pdfrwt beam="1">  1        2 0.34967979E+00 0.21090105E+04</pdfrwt>
<pdfrwt beam="2">  1       -1 0.75266247E-01 0.21090105E+04</pdfrwt>
<totfact> 0.87366594E+00</totfact>
</mgrwt>
</event>
<event>
12    7  0.1546317E-007  0.1571981E+04  0.7818608E-02  0.8837949E-01
          2   -1    0    0  501    0  0.00000000000E+00  0.00000000000E+00  0.21571766896E+04  0.21571766896E+04  0.00000000000E+00 0. -1.
         -1   -1    0    0    0  501 -0.00000000000E+00 -0.00000000000E+00 -0.28638402139E+03  0.28638402139E+03  0.00000000000E+00 0.  1.
         24    2    1    2    0    0 -0.18940746992E+03  0.38108851737E+03  0.16271901827E+03  0.46281852616E+03  0.81362531411E+02 0.  0.
        254    2    1    2    0    0  0.18940746992E+03 -0.38108851737E+03  0.17080736500E+04  0.19807421849E+04  0.90814115723E+03 0.  0.
         23    2    4    4    0    0  0.23486461867E+03  0.17818451384E+03  0.11242328723E+04  0.11658778507E+04  0.91980984718E+02 0.  0.
         23    2    4    4    0    0 -0.45457148754E+02 -0.55927303121E+03  0.58384077769E+03  0.81486433417E+03  0.91000843904E+02 0.  0.
          4    1    3    3  502    0 -0.84374807214E+02  0.16177700150E+03  0.11302007937E+03  0.21462629067E+03  0.00000000000E+00 0. -1.
         -3    1    3    3    0  502 -0.10503266270E+03  0.21931151587E+03  0.49698938895E+02  0.24819223549E+03  0.00000000000E+00 0.  1.
         13    1    5    5    0    0  0.18176844961E+03  0.11996349988E+03  0.95018017443E+03  0.97481966253E+03  0.00000000000E+00 0.  1.
        -13    1    5    5    0    0  0.53096169065E+02  0.58221013965E+02  0.17405269787E+03  0.19105818818E+03  0.00000000000E+00 0. -1.
          1    1    6    6  503    0 -0.19462791087E+02 -0.18761705050E+02  0.33486956326E+02  0.43036938288E+02  0.00000000000E+00 0. -1.
         -1    1    6    6    0  503 -0.25994357667E+02 -0.54051132616E+03  0.55035382136E+03  0.77182739588E+03  0.00000000000E+00 0.  1.
<mgrwt>
<rscale>  0 0.15719808E+04</rscale>
<asrwt>0</asrwt>
<pdfrwt beam="1">  1        2 0.33187333E+00 0.15719808E+04</pdfrwt>
<pdfrwt beam="2">  1       -1 0.44059082E-01 0.15719808E+04</pdfrwt>
<totfact> 0.30455472E+01</totfact>
</mgrwt>
</event>
<event>
12    7  0.1546317E-007  0.1141497E+04  0.7818608E-02  0.9165664E-01
         -1   -1    0    0    0  501 -0.00000000000E+00  0.00000000000E+00  0.83914844180E+03  0.83914844180E+03  0.00000000000E+00 0.  1.
          2   -1    0    0  501    0  0.00000000000E+00 -0.00000000000E+00 -0.38819579830E+03  0.38819579830E+03  0.00000000000E+00 0. -1.
         24    2    1    2    0    0 -0.74133217166E+02 -0.32355200862E+02  0.28213700702E+03  0.30478386985E+03  0.82154267557E+02 0.  0.
        254    2    1    2    0    0  0.74133217166E+02  0.32355200862E+02  0.16881563648E+03  0.92256037025E+03  0.90336942871E+03 0.  0.
         23    2    4    4    0    0  0.33621565853E+03 -0.27126902862E+03  0.24432368974E+03  0.50417530122E+03  0.88717608542E+02 0.  0.
         23    2    4    4    0    0 -0.26208244136E+03  0.30362422948E+03 -0.75508053261E+02  0.41838506903E+03  0.92031087611E+02 0.  0.
          4    1    3    3  502    0 -0.22469164585E+02 -0.16947326503E+01  0.76453072968E+01  0.23794667461E+02  0.00000000000E+00 0. -1.
         -3    1    3    3    0  502 -0.51664052581E+02 -0.30660468211E+02  0.27449169973E+03  0.28098920239E+03  0.00000000000E+00 0.  1.
         13    1    5    5    0    0  0.34794252953E+02 -0.59623876436E+02  0.63830959312E+02  0.94021476517E+02  0.00000000000E+00 0.  1.
        -13    1    5    5    0    0  0.30142140557E+03 -0.21164515218E+03  0.18049273043E+03  0.41015382470E+03  0.00000000000E+00 0. -1.
          3    1    6    6  503    0 -0.85825182021E+02  0.10217138534E+03  0.18437069373E+02  0.13470293010E+03  0.00000000000E+00 0. -1.
         -3    1    6    6    0  503 -0.17625725934E+03  0.20145284414E+03 -0.93945122635E+02  0.28368213893E+03  0.00000000000E+00 0.  1.
<mgrwt>
<rscale>  0 0.11414971E+04</rscale>
<asrwt>0</asrwt>
<pdfrwt beam="1">  1        2 0.59722431E-01 0.11414971E+04</pdfrwt>
<pdfrwt beam="2">  1       -1 0.12909976E+00 0.11414971E+04</pdfrwt>
<totfact> 0.48144895E+01</totfact>
</mgrwt>
</event>
<event>
12    7  0.1546317E-007  0.1861673E+04  0.7818608E-02  0.8674173E-01
          2   -1    0    0  501    0  0.00000000000E+00  0.00000000000E+00  0.85903825530E+03  0.85903825530E+03  0.00000000000E+00 0. -1.
         -1   -1    0    0    0  501 -0.00000000000E+00 -0.00000000000E+00 -0.10086356008E+04  0.10086356008E+04  0.00000000000E+00 0.  1.
         24    2    1    2    0    0  0.31848039882E+03 -0.37234446940E+03 -0.57702814447E+03  0.76039794117E+03  0.71926219824E+02 0.  0.
        254    2    1    2    0    0 -0.31848039882E+03  0.37234446940E+03  0.42743079893E+03  0.11072759150E+04  0.89626597373E+03 0.  0.
         23    2    4    4    0    0 -0.38210144370E+03  0.61429768137E+03  0.19827374221E+03  0.75687162551E+03  0.10089115932E+03 0.  0.
         23    2    4    4    0    0  0.63621044879E+02 -0.24195321197E+03  0.22915705672E+03  0.35040428946E+03  0.87642542721E+02 0.  0.
          4    1    3    3  502    0  0.19157808059E+03 -0.19184596816E+03 -0.27312069336E+03  0.38484016111E+03  0.00000000000E+00 0. -1.
         -3    1    3    3    0  502  0.12690231823E+03 -0.18049850124E+03 -0.30390745111E+03  0.37555778006E+03  0.00000000000E+00 0.  1.
         13    1    5    5    0    0 -0.68791685453E+02  0.16229900853E+03  0.83507189741E+02  0.19505567128E+03  0.00000000000E+00 0. -1.
        -13    1    5    5    0    0 -0.31330975825E+03  0.45199867284E+03  0.11476655247E+03  0.56181595423E+03  0.00000000000E+00 0.  1.
          4    1    6    6  503    0  0.35180241032E+02 -0.14261338803E+03  0.75288952596E+02  0.16505954740E+03  0.00000000000E+00 0. -1.
         -4    1    6    6    0  503  0.28440803847E+02 -0.99339823940E+02  0.15386810412E+03  0.18534474206E+03  0.00000000000E+00 0.  1.
<mgrwt>
<rscale>  0 0.18616730E+04</rscale>
<asrwt>0</asrwt>
<pdfrwt beam="1">  1        2 0.13215973E+00 0.18616730E+04</pdfrwt>
<pdfrwt beam="2">  1       -1 0.15517471E+00 0.18616730E+04</pdfrwt>
<totfact> 0.10670121E+01</totfact>
</mgrwt>
</event>
<event>
12    7  0.1546317E-007  0.2702170E+04  0.7818608E-02  0.8334301E-01
          2   -1    0    0  501    0  0.00000000000E+00  0.00000000000E+00  0.11736318266E+04  0.11736318266E+04  0.00000000000E+00 0. -1.
         -1   -1    0    0    0  501 -0.00000000000E+00 -0.00000000000E+00 -0.15553694128E+04  0.15553694128E+04  0.00000000000E+00 0.  1.
         24    2    1    2    0    0 -0.82066967836E+03  0.34268608806E+02  0.71309007406E+03  0.10908003941E+04  0.81700596287E+02 0.  0.
        254    2    1    2    0    0  0.82066967836E+03 -0.34268608806E+02 -0.10948276603E+04  0.16382008454E+04  0.90021183375E+03 0.  0.
         23    2    4    4    0    0  0.31827545957E+03 -0.55839368756E+01 -0.10768491449E+04  0.11265795011E+04  0.90812129249E+02 0.  0.
         23    2    4    4    0    0  0.50239421879E+03 -0.28684671931E+02 -0.17978515360E+02  0.51162134432E+03  0.90611320872E+02 0.  0.
          2    1    3    3  502    0 -0.81197030589E+03  0.40660866468E+02  0.71048893269E+03  0.10796960717E+04  0.00000000000E+00 0. -1.
         -1    1    3    3    0  502 -0.86993724694E+01 -0.63922576613E+01  0.26011413773E+01  0.11104322394E+02  0.00000000000E+00 0.  1.
         13    1    5    5    0    0  0.18612018792E+03 -0.44331288732E+02 -0.68579332864E+03  0.71198207640E+03  0.00000000000E+00 0.  1.
        -13    1    5    5    0    0  0.13215527165E+03  0.38747351857E+02 -0.39105581629E+03  0.41459742469E+03  0.00000000000E+00 0. -1.
          4    1    6    6  503    0  0.49893537813E+03 -0.35990308956E+02 -0.10099757141E+02  0.50033370763E+03  0.00000000000E+00 0. -1.
         -4    1    6    6    0  503  0.34588406570E+01  0.73056370256E+01 -0.78787582195E+01  0.11287636693E+02  0.00000000000E+00 0.  1.
<mgrwt>
<rscale>  0 0.27021703E+04</rscale>
<asrwt>0</asrwt>
<pdfrwt beam="1">  1        2 0.18055874E+00 0.27021703E+04</pdfrwt>
<pdfrwt beam="2">  1       -1 0.23928760E+00 0.27021703E+04</pdfrwt>
<totfact> 0.16091540E+00</totfact>
</mgrwt>
</event>
<event>
12    7  0.1546317E-007  0.1359301E+04  0.7818608E-02  0.8983817E-01
         -1   -1    0    0    0  501 -0.00000000000E+00  0.00000000000E+00  0.24235011215E+03  0.24235011215E+03  0.00000000000E+00 0.  1.
          2   -1    0    0  501    0  0.00000000000E+00 -0.00000000000E+00 -0.19060221670E+04  0.19060221670E+04  0.00000000000E+00 0. -1.
         24    2    1    2    0    0 -0.51922847486E+02  0.42700119777E+02 -0.10431349348E+04  0.10483425264E+04  0.79826550446E+02 0.  0.
        254    2    1    2    0    0  0.51922847486E+02 -0.42700119777E+02 -0.62053712008E+03  0.11000297528E+04  0.90580343191E+03 0.  0.
         23    2    4    4    0    0 -0.32447915419E+03 -0.14350786773E+03 -0.46545261361E+01  0.36554717601E+03  0.87874021605E+02 0.  0.
         23    2    4    4    0    0  0.37640200168E+03  0.10080774795E+03 -0.61588259395E+03  0.73448257676E+03  0.91173554919E+02 0.  0.
          4    1    3    3  502    0 -0.70378144371E+02  0.30279384361E+02 -0.63561443281E+03  0.64021530091E+03  0.00000000000E+00 0. -1.
         -3    1    3    3    0  502  0.18455296884E+02  0.12420735416E+02 -0.40752050195E+03  0.40812722546E+03  0.00000000000E+00 0.  1.
         13    1    5    5    0    0 -0.79625714164E+02 -0.68284809129E+02 -0.27330626200E+02  0.10839756751E+03  0.00000000000E+00 0.  1.
        -13    1    5    5    0    0 -0.24485344003E+03 -0.75223058596E+02  0.22676100064E+02  0.25714960850E+03  0.00000000000E+00 0. -1.
          2    1    6    6  503    0  0.27256750284E+03  0.30232122890E+02 -0.43755106128E+03  0.51638934544E+03  0.00000000000E+00 0. -1.
         -2    1    6    6    0  503  0.10383449884E+03  0.70575625058E+02 -0.17833153267E+03  0.21809323132E+03  0.00000000000E+00 0.  1.
<mgrwt>
<rscale>  0 0.13593008E+04</rscale>
<asrwt>0</asrwt>
<pdfrwt beam="1">  1        2 0.29323418E+00 0.13593008E+04</pdfrwt>
<pdfrwt beam="2">  1       -1 0.37284633E-01 0.13593008E+04</pdfrwt>
<totfact> 0.58033083E+01</totfact>
</mgrwt>
</event>
<event>
12    7  0.1546317E-007  0.1926250E+04  0.7818608E-02  0.8641899E-01
          2   -1    0    0  501    0  0.00000000000E+00  0.00000000000E+00  0.40154752363E+04  0.40154752363E+04  0.00000000000E+00 0. -1.
         -1   -1    0    0    0  501 -0.00000000000E+00 -0.00000000000E+00 -0.23100871202E+03  0.23100871202E+03  0.00000000000E+00 0.  1.
         24    2    1    2    0    0 -0.65968621213E+02 -0.72221594264E+03  0.18875787985E+04  0.20235438187E+04  0.76342246865E+02 0.  0.
        254    2    1    2    0    0  0.65968621213E+02  0.72221594264E+03  0.18968877257E+04  0.22229401296E+04  0.90406418416E+03 0.  0.
         23    2    4    4    0    0 -0.10489385001E+03 -0.11246395726E+03  0.85741498496E+03  0.87583149550E+03  0.90936739669E+02 0.  0.
         23    2    4    4    0    0  0.17086247123E+03  0.83467989990E+03  0.10394727408E+04  0.13471086341E+04  0.91178802178E+02 0.  0.
          4    1    3    3  502    0 -0.60124789969E+02 -0.70673911164E+03  0.18666451527E+04  0.19968623609E+04  0.00000000000E+00 0. -1.
         -3    1    3    3    0  502 -0.58438312444E+01 -0.15476830997E+02  0.20933645850E+02  0.26681457791E+02  0.00000000000E+00 0.  1.
         13    1    5    5    0    0 -0.29241236896E+01 -0.51280383130E+02  0.15149796067E+03  0.15996831024E+03  0.00000000000E+00 0.  1.
        -13    1    5    5    0    0 -0.10196972632E+03 -0.61183574129E+02  0.70591702429E+03  0.71586318526E+03  0.00000000000E+00 0. -1.
          2    1    6    6  503    0  0.15822971313E+03  0.56592826531E+03  0.70036875575E+03  0.91423620450E+03  0.00000000000E+00 0. -1.
         -2    1    6    6    0  503  0.12632758092E+02  0.26875163459E+03  0.33910398501E+03  0.43287242962E+03  0.00000000000E+00 0.  1.
<mgrwt>
<rscale>  0 0.19262500E+04</rscale>
<asrwt>0</asrwt>
<pdfrwt beam="1">  1        2 0.61776537E+00 0.19262500E+04</pdfrwt>
<pdfrwt beam="2">  1       -1 0.35539805E-01 0.19262500E+04</pdfrwt>
<totfact> 0.27018076E+00</totfact>
</mgrwt>
</event>
<event>
12    7  0.1546317E-007  0.1239466E+04  0.7818608E-02  0.9078997E-01
         -1   -1    0    0    0  501 -0.00000000000E+00  0.00000000000E+00  0.79049216215E+03  0.79049216215E+03  0.00000000000E+00 0.  1.
          2   -1    0    0  501    0  0.00000000000E+00 -0.00000000000E+00 -0.48586053260E+03  0.48586053260E+03  0.00000000000E+00 0. -1.
         24    2    1    2    0    0  0.30402041053E+03 -0.10251854153E+02  0.11048887300E+03  0.33299326661E+03  0.78378657935E+02 0.  0.
        254    2    1    2    0    0 -0.30402041053E+03  0.10251854153E+02  0.19414275655E+03  0.94335942813E+03  0.87160890897E+03 0.  0.
         23    2    4    4    0    0 -0.33553665330E+03  0.20822201057E+03 -0.22956670763E+03  0.46571470637E+03  0.90818847619E+02 0.  0.
         23    2    4    4    0    0  0.31516242768E+02 -0.19797015642E+03  0.42370946419E+03  0.47764472176E+03  0.91811294487E+02 0.  0.
          4    1    3    3  502    0  0.24022498136E+03  0.66822864475E+01  0.54452408220E+02  0.24640973882E+03  0.00000000000E+00 0. -1.
         -3    1    3    3    0  502  0.63795429169E+02 -0.16934140600E+02  0.56036464778E+02  0.86583527796E+02  0.00000000000E+00 0.  1.
         13    1    5    5    0    0 -0.14427090698E+03  0.84019086147E+02 -0.46598104433E+02  0.17333402659E+03  0.00000000000E+00 0. -1.
        -13    1    5    5    0    0 -0.19126574632E+03  0.12420292442E+03 -0.18296860320E+03  0.29238067978E+03  0.00000000000E+00 0.  1.
          4    1    6    6  503    0  0.47887326307E+02 -0.79553719126E+02  0.12352411036E+03  0.15453218463E+03  0.00000000000E+00 0. -1.
         -4    1    6    6    0  503 -0.16371083539E+02 -0.11841643729E+03  0.30018535383E+03  0.32311253713E+03  0.00000000000E+00 0.  1.
<mgrwt>
<rscale>  0 0.12394659E+04</rscale>
<asrwt>0</asrwt>
<pdfrwt beam="1">  1        2 0.74747775E-01 0.12394659E+04</pdfrwt>
<pdfrwt beam="2">  1       -1 0.12161418E+00 0.12394659E+04</pdfrwt>
<totfact> 0.42947719E+01</totfact>
</mgrwt>
</event>
<event>
12    7  0.1546317E-007  0.2051804E+04  0.7818608E-02  0.8582776E-01
         -1   -1    0    0    0  501 -0.00000000000E+00  0.00000000000E+00  0.11416061695E+04  0.11416061695E+04  0.00000000000E+00 0.  1.
          2   -1    0    0  501    0  0.00000000000E+00 -0.00000000000E+00 -0.92192486790E+03  0.92192486790E+03  0.00000000000E+00 0. -1.
         24    2    1    2    0    0  0.19081869138E+02 -0.16190686327E+03 -0.72352797767E+03  0.74633751059E+03  0.83360633039E+02 0.  0.
        254    2    1    2    0    0 -0.19081869138E+02  0.16190686327E+03  0.94320927922E+03  0.13171935268E+04  0.90486302412E+03 0.  0.
         23    2    4    4    0    0  0.22169198199E+03 -0.22720315203E+03  0.73416549582E+03  0.80511885514E+03  0.91917291534E+02 0.  0.
         23    2    4    4    0    0 -0.24077385113E+03  0.38911001530E+03  0.20904378341E+03  0.51207467162E+03  0.95616497184E+02 0.  0.
          4    1    3    3  502    0 -0.20284162605E+02 -0.11335175606E+03 -0.54918053686E+03  0.56112327516E+03  0.00000000000E+00 0. -1.
         -3    1    3    3    0  502  0.39366031743E+02 -0.48555107211E+02 -0.17434744081E+03  0.18521423544E+03  0.00000000000E+00 0.  1.
         13    1    5    5    0    0  0.17165916246E+03 -0.21264755078E+03  0.66125386735E+03  0.71550159049E+03  0.00000000000E+00 0. -1.
        -13    1    5    5    0    0  0.50032819527E+02 -0.14555601258E+02  0.72911628465E+02  0.89617264649E+02  0.00000000000E+00 0.  1.
          2    1    6    6  503    0 -0.37536246121E+02  0.78809349323E+02  0.20970689172E+01  0.87317128970E+02  0.00000000000E+00 0.  1.
         -2    1    6    6    0  503 -0.20323760501E+03  0.31030066598E+03  0.20694671449E+03  0.42475754265E+03  0.00000000000E+00 0. -1.
<mgrwt>
<rscale>  0 0.20518042E+04</rscale>
<asrwt>0</asrwt>
<pdfrwt beam="1">  1        2 0.14183460E+00 0.20518042E+04</pdfrwt>
<pdfrwt beam="2">  1       -1 0.17563172E+00 0.20518042E+04</pdfrwt>
<totfact> 0.66947960E+00</totfact>
</mgrwt>
</event>
<event>
12    7  0.1546317E-007  0.1748758E+04  0.7818608E-02  0.8734034E-01
         -1   -1    0    0    0  501 -0.00000000000E+00  0.00000000000E+00  0.34291252506E+03  0.34291252506E+03  0.00000000000E+00 0.  1.
          2   -1    0    0  501    0  0.00000000000E+00 -0.00000000000E+00 -0.22295437190E+04  0.22295437190E+04  0.00000000000E+00 0. -1.
         24    2    1    2    0    0  0.40521535166E+03 -0.23971471536E+03 -0.53760229422E+02  0.47896608590E+03  0.69683019363E+02 0.  0.
        254    2    1    2    0    0 -0.40521535166E+03  0.23971471536E+03 -0.18328709645E+04  0.20934901582E+04  0.89533370524E+03 0.  0.
         23    2    4    4    0    0  0.19578149124E+03  0.10000694284E+03 -0.11260962060E+04  0.11509223775E+04  0.90542105604E+02 0.  0.
         23    2    4    4    0    0 -0.60099684290E+03  0.13970777252E+03 -0.70677475848E+03  0.94256778064E+03  0.90487540553E+02 0.  0.
          2    1    3    3  502    0  0.16460797485E+03 -0.76062605970E+02  0.79519848272E+01  0.18150630698E+03  0.00000000000E+00 0. -1.
         -1    1    3    3    0  502  0.24060737681E+03 -0.16365210939E+03 -0.61712214249E+02  0.29745977891E+03  0.00000000000E+00 0.  1.
         13    1    5    5    0    0  0.16209918535E+03  0.77078805539E+02 -0.69132745737E+03  0.71424851521E+03  0.00000000000E+00 0.  1.
        -13    1    5    5    0    0  0.33682305886E+02  0.22928137298E+02 -0.43476874867E+03  0.43667386231E+03  0.00000000000E+00 0. -1.
          4    1    6    6  503    0 -0.27175929342E+02  0.25401695472E+02 -0.58247870033E+02  0.69112890490E+02  0.00000000000E+00 0.  1.
         -4    1    6    6    0  503 -0.57382091356E+03  0.11430607705E+03 -0.64852688845E+03  0.87345489015E+03  0.00000000000E+00 0. -1.
<mgrwt>
<rscale>  0 0.17487578E+04</rscale>
<asrwt>0</asrwt>
<pdfrwt beam="1">  1        2 0.34300672E+00 0.17487578E+04</pdfrwt>
<pdfrwt beam="2">  1       -1 0.52755774E-01 0.17487578E+04</pdfrwt>
<totfact> 0.19437151E+01</totfact>
</mgrwt>
</event>
<event>
12    7  0.1546317E-007  0.3369887E+04  0.7818608E-02  0.8145337E-01
         -1   -1    0    0    0  501 -0.00000000000E+00  0.00000000000E+00  0.28103654475E+04  0.28103654475E+04  0.00000000000E+00 0.  1.
          2   -1    0    0  501    0  0.00000000000E+00 -0.00000000000E+00 -0.10102013989E+04  0.10102013989E+04  0.00000000000E+00 0. -1.
         24    2    1    2    0    0 -0.10463288405E+04 -0.22053367352E+03 -0.45570274605E+03  0.11649731715E+04  0.77835428361E+02 0.  0.
        254    2    1    2    0    0  0.10463288405E+04  0.22053367352E+03  0.22558667947E+04  0.26555936748E+04  0.90543007832E+03 0.  0.
         23    2    4    4    0    0  0.29918752134E+02  0.52199158485E+02  0.10966533126E+04  0.11020638827E+04  0.90974885255E+02 0.  0.
         23    2    4    4    0    0  0.10164100884E+04  0.16833451503E+03  0.11592134821E+04  0.15535297921E+04  0.90845699369E+02 0.  0.
          4    1    3    3  502    0 -0.86074193199E+03 -0.20965610539E+03 -0.36557086639E+03  0.95837070822E+03  0.00000000000E+00 0. -1.
         -3    1    3    3    0  502 -0.18558690856E+03 -0.10877568132E+02 -0.90131879658E+02  0.20660246331E+03  0.00000000000E+00 0.  1.
         13    1    5    5    0    0  0.31815182345E+02  0.37999108388E+02  0.10747466894E+04  0.10758887417E+04  0.00000000000E+00 0. -1.
        -13    1    5    5    0    0 -0.18964302112E+01  0.14200050097E+02  0.21906623149E+02  0.26175141033E+02  0.00000000000E+00 0.  1.
          2    1    6    6  503    0  0.63186839731E+03  0.81551138602E+02  0.65854172978E+03  0.91628896620E+03  0.00000000000E+00 0. -1.
         -2    1    6    6    0  503  0.38454169111E+03  0.86783376430E+02  0.50067175236E+03  0.63724082593E+03  0.00000000000E+00 0.  1.
<mgrwt>
<rscale>  0 0.33698873E+04</rscale>
<asrwt>0</asrwt>
<pdfrwt beam="1">  1        2 0.15541560E+00 0.33698873E+04</pdfrwt>
<pdfrwt beam="2">  1       -1 0.43236391E+00 0.33698873E+04</pdfrwt>
<totfact> 0.10047606E-01</totfact>
</mgrwt>
</event>
<event>
12    7  0.1546317E-007  0.2568135E+04  0.7818608E-02  0.8379106E-01
         -1   -1    0    0    0  501 -0.00000000000E+00  0.00000000000E+00  0.24194992466E+04  0.24194992466E+04  0.00000000000E+00 0.  1.
          2   -1    0    0  501    0  0.00000000000E+00 -0.00000000000E+00 -0.68147524910E+03  0.68147524910E+03  0.00000000000E+00 0. -1.
         24    2    1    2    0    0 -0.32472906685E+03 -0.32766655113E+03 -0.47823229430E+03  0.66933230181E+03  0.80531157573E+02 0.  0.
        254    2    1    2    0    0  0.32472906685E+03  0.32766655113E+03  0.22162562918E+04  0.24316421939E+04  0.88784991558E+03 0.  0.
         23    2    4    4    0    0  0.16883090624E+03 -0.14969730708E+03  0.11568848203E+03  0.26985554444E+03  0.92331096260E+02 0.  0.
         23    2    4    4    0    0  0.15589816061E+03  0.47736385822E+03  0.21005678098E+04  0.21617866495E+04  0.93572991388E+02 0.  0.
          4    1    3    3  502    0 -0.23286726969E+03 -0.19367348485E+03 -0.27455206510E+03  0.40879752993E+03  0.00000000000E+00 0. -1.
         -3    1    3    3    0  502 -0.91861797164E+02 -0.13399306628E+03 -0.20368022920E+03  0.26053477188E+03  0.00000000000E+00 0.  1.
         13    1    5    5    0    0 -0.79967135972E+01 -0.27563931476E+02  0.17165142625E+02  0.33441887927E+02  0.00000000000E+00 0. -1.
        -13    1    5    5    0    0  0.17682761984E+03 -0.12213337561E+03  0.98523339408E+02  0.23641365651E+03  0.00000000000E+00 0.  1.
          4    1    6    6  503    0  0.29597617871E+01 -0.34558181955E+01  0.43775280888E+02  0.44011113211E+02  0.00000000000E+00 0. -1.
         -4    1    6    6    0  503  0.15293839882E+03  0.48081967641E+03  0.20567925289E+04  0.21177755363E+04  0.00000000000E+00 0.  1.
<mgrwt>
<rscale>  0 0.25681346E+04</rscale>
<asrwt>0</asrwt>
<pdfrwt beam="1">  1        2 0.10484235E+00 0.25681346E+04</pdfrwt>
<pdfrwt beam="2">  1       -1 0.37223065E+00 0.25681346E+04</pdfrwt>
<totfact> 0.47339184E-01</totfact>
</mgrwt>
</event>
<event>
12    7  0.1546317E-007  0.1937380E+04  0.7818608E-02  0.8636470E-01
         -3   -1    0    0    0  501 -0.00000000000E+00  0.00000000000E+00  0.15323783502E+04  0.15323783502E+04  0.00000000000E+00 0.  1.
          2   -1    0    0  501    0  0.00000000000E+00 -0.00000000000E+00 -0.61235554780E+03  0.61235554780E+03  0.00000000000E+00 0. -1.
         24    2    1    2    0    0  0.24586180452E+03  0.63516845396E+03 -0.74657033079E+01  0.68590158885E+03  0.80735748205E+02 0.  0.
        254    2    1    2    0    0 -0.24586180452E+03 -0.63516845396E+03  0.92748850575E+03  0.14588323092E+04  0.89669938454E+03 0.  0.
         23    2    4    4    0    0 -0.18675030775E+02 -0.61665586071E+03  0.10206650643E+04  0.11960692711E+04  0.90616336436E+02 0.  0.
         23    2    4    4    0    0 -0.22718677374E+03 -0.18512593247E+02 -0.93176558511E+02  0.26276303815E+03  0.91684223762E+02 0.  0.
          4    1    3    3  502    0  0.18660924344E+03  0.45604849207E+03  0.29561244304E+02  0.49363661131E+03  0.00000000000E+00 0. -1.
         -3    1    3    3    0  502  0.59252561079E+02  0.17911996189E+03 -0.37026947612E+02  0.19226497754E+03  0.00000000000E+00 0.  1.
         13    1    5    5    0    0  0.98109302652E+01 -0.13599973818E+03  0.29766397386E+03  0.32740803971E+03  0.00000000000E+00 0. -1.
        -13    1    5    5    0    0 -0.28485961040E+02 -0.48065612253E+03  0.72300109041E+03  0.86866123134E+03  0.00000000000E+00 0.  1.
          3    1    6    6  503    0 -0.19626435202E+03 -0.32642543097E+02 -0.10718152928E+03  0.22599360989E+03  0.00000000000E+00 0. -1.
         -3    1    6    6    0  503 -0.30922421721E+02  0.14129949850E+02  0.14004970766E+02  0.36769428252E+02  0.00000000000E+00 0.  1.
<mgrwt>
<rscale>  0 0.19373801E+04</rscale>
<asrwt>0</asrwt>
<pdfrwt beam="1">  1        2 0.94208546E-01 0.19373801E+04</pdfrwt>
<pdfrwt beam="2">  1       -3 0.23575052E+00 0.19373801E+04</pdfrwt>
<totfact> 0.25051592E+00</totfact>
</mgrwt>
</event>
<event>
12    7  0.1546317E-007  0.1087367E+04  0.7818608E-02  0.9217593E-01
         -3   -1    0    0    0  501 -0.00000000000E+00  0.00000000000E+00  0.90957921244E+03  0.90957921244E+03  0.00000000000E+00 0.  1.
          2   -1    0    0  501    0  0.00000000000E+00 -0.00000000000E+00 -0.32497614134E+03  0.32497614134E+03  0.00000000000E+00 0. -1.
         24    2    1    2    0    0 -0.14823978799E+03  0.19954627795E+02  0.21944614447E+03  0.27451843322E+03  0.69502071477E+02 0.  0.
        254    2    1    2    0    0  0.14823978799E+03 -0.19954627795E+02  0.36515692663E+03  0.96003692056E+03  0.87519031408E+03 0.  0.
         23    2    4    4    0    0  0.49292097384E+03  0.94672275724E+02  0.23400430539E+03  0.56115926292E+03  0.90596783456E+02 0.  0.
         23    2    4    4    0    0 -0.34468118585E+03 -0.11462690352E+03  0.13115262124E+03  0.39887765765E+03  0.99789422400E+02 0.  0.
          2    1    3    3  502    0  0.43019709201E+01  0.11085958278E+02  0.12237568481E+02  0.17063513913E+02  0.00000000000E+00 0. -1.
         -1    1    3    3    0  502 -0.15254175891E+03  0.88686695172E+01  0.20720857599E+03  0.25745491930E+03  0.00000000000E+00 0.  1.
         13    1    5    5    0    0  0.49275292181E+02 -0.17276727990E+02  0.29633502687E+02  0.60039022570E+02  0.00000000000E+00 0.  1.
        -13    1    5    5    0    0  0.44364568166E+03  0.11194900371E+03  0.20437080271E+03  0.50112024035E+03  0.00000000000E+00 0. -1.
          4    1    6    6  503    0 -0.28101712692E+03 -0.60655134543E+02  0.71375882338E+02  0.29621645387E+03  0.00000000000E+00 0. -1.
         -4    1    6    6    0  503 -0.63664058933E+02 -0.53971768977E+02  0.59776738900E+02  0.10266120377E+03  0.00000000000E+00 0.  1.
<mgrwt>
<rscale>  0 0.10873666E+04</rscale>
<asrwt>0</asrwt>
<pdfrwt beam="1">  1        2 0.49996330E-01 0.10873666E+04</pdfrwt>
<pdfrwt beam="2">  1       -3 0.13993526E+00 0.10873666E+04</pdfrwt>
<totfact> 0.24051234E+01</totfact>
</mgrwt>
</event>
<event>
12    7  0.1546317E-007  0.3989674E+04  0.7818608E-02  0.8006633E-01
          2   -1    0    0  501    0  0.00000000000E+00  0.00000000000E+00  0.33045431734E+04  0.33045431734E+04  0.00000000000E+00 0. -1.
         -3   -1    0    0    0  501 -0.00000000000E+00 -0.00000000000E+00 -0.12042130627E+04  0.12042130627E+04  0.00000000000E+00 0.  1.
         24    2    1    2    0    0 -0.76186276079E+03  0.40220927332E+03 -0.90651548451E+03  0.12533697797E+04  0.83416515722E+02 0.  0.
        254    2    1    2    0    0  0.76186276079E+03 -0.40220927332E+03  0.30068455953E+04  0.32553864564E+04  0.90233773115E+03 0.  0.
         23    2    4    4    0    0  0.67469480508E+03 -0.56325018175E+03  0.28851370141E+04  0.30174657579E+04  0.92844833209E+02 0.  0.
         23    2    4    4    0    0  0.87167955716E+02  0.16104090842E+03  0.12170858118E+03  0.23792069849E+03  0.90889236682E+02 0.  0.
          2    1    3    3  502    0 -0.94887655969E+02  0.32210330305E+02 -0.76072085029E+02  0.12580991517E+03  0.00000000000E+00 0. -1.
         -1    1    3    3    0  502 -0.66697510482E+03  0.36999894302E+03 -0.83044339948E+03  0.11275598645E+04  0.00000000000E+00 0.  1.
         13    1    5    5    0    0  0.48321859674E+03 -0.34777708840E+03  0.19154357243E+04  0.20058272930E+04  0.00000000000E+00 0.  1.
        -13    1    5    5    0    0  0.19147620833E+03 -0.21547309335E+03  0.96970128982E+03  0.10116384650E+04  0.00000000000E+00 0. -1.
          1    1    6    6  503    0 -0.95425286335E+01 -0.77215048621E+00 -0.49827911466E+01  0.10792788180E+02  0.00000000000E+00 0. -1.
         -1    1    6    6    0  503  0.96710484350E+02  0.16181305891E+03  0.12669137233E+03  0.22712791031E+03  0.00000000000E+00 0.  1.
<mgrwt>
<rscale>  0 0.39896737E+04</rscale>
<asrwt>0</asrwt>
<pdfrwt beam="1">  1        2 0.50839125E+00 0.39896737E+04</pdfrwt>
<pdfrwt beam="2">  1       -3 0.18526355E+00 0.39896737E+04</pdfrwt>
<totfact> 0.10103456E-01</totfact>
</mgrwt>
</event>
<event>
12    7  0.1546317E-007  0.1788585E+04  0.7818608E-02  0.8712394E-01
          2   -1    0    0  501    0  0.00000000000E+00  0.00000000000E+00  0.20023653160E+04  0.20023653160E+04  0.00000000000E+00 0. -1.
         -1   -1    0    0    0  501 -0.00000000000E+00 -0.00000000000E+00 -0.39940712923E+03  0.39940712923E+03  0.00000000000E+00 0.  1.
         24    2    1    2    0    0  0.45838545822E+03 -0.11230707700E+03  0.12336505554E+04  0.13232288017E+04  0.79439668718E+02 0.  0.
        254    2    1    2    0    0 -0.45838545822E+03  0.11230707700E+03  0.36930763138E+03  0.10785436435E+04  0.89673750706E+03 0.  0.
         23    2    4    4    0    0 -0.39652320821E+03  0.45592353096E+03  0.37757405117E+03  0.71785760159E+03  0.87524004218E+02 0.  0.
         23    2    4    4    0    0 -0.61862250004E+02 -0.34361645396E+03 -0.82664197949E+01  0.36068604194E+03  0.90149219345E+02 0.  0.
          4    1    3    3  502    0  0.35511812426E+03 -0.68470149439E+02  0.10144191683E+04  0.10769602094E+04  0.00000000000E+00 0. -1.
         -3    1    3    3    0  502  0.10326733395E+03 -0.43836927560E+02  0.21923138705E+03  0.24626859229E+03  0.00000000000E+00 0.  1.
         13    1    5    5    0    0 -0.38760674227E+03  0.41358005280E+03  0.34351530457E+03  0.66278971869E+03  0.00000000000E+00 0.  1.
        -13    1    5    5    0    0 -0.89164659447E+01  0.42343478161E+02  0.34058746601E+02  0.55067882906E+02  0.00000000000E+00 0. -1.
          1    1    6    6  503    0 -0.18329815154E+02 -0.17715782568E+03 -0.47257483751E+02  0.18426651104E+03  0.00000000000E+00 0. -1.
         -1    1    6    6    0  503 -0.43532434849E+02 -0.16645862828E+03  0.38991063956E+02  0.17641953090E+03  0.00000000000E+00 0.  1.
<mgrwt>
<rscale>  0 0.17885849E+04</rscale>
<asrwt>0</asrwt>
<pdfrwt beam="1">  1        2 0.30805620E+00 0.17885849E+04</pdfrwt>
<pdfrwt beam="2">  1       -1 0.61447252E-01 0.17885849E+04</pdfrwt>
<totfact> 0.19255373E+01</totfact>
</mgrwt>
</event>
<event>
12    7  0.1546317E-007  0.2286023E+04  0.7818608E-02  0.8483453E-01
         -1   -1    0    0    0  501 -0.00000000000E+00  0.00000000000E+00  0.30718260873E+03  0.30718260873E+03  0.00000000000E+00 0.  1.
          2   -1    0    0  501    0  0.00000000000E+00 -0.00000000000E+00 -0.42530893591E+04  0.42530893591E+04  0.00000000000E+00 0. -1.
         24    2    1    2    0    0  0.44579120359E+03 -0.65355674230E+03 -0.56661775664E+03  0.97646903867E+03  0.81054850207E+02 0.  0.
        254    2    1    2    0    0 -0.44579120359E+03  0.65355674230E+03 -0.33792889937E+04  0.35838029292E+04  0.89341094648E+03 0.  0.
         23    2    4    4    0    0 -0.33125087406E+03 -0.10069313852E+03 -0.58372699004E+03  0.68457208905E+03  0.89640930946E+02 0.  0.
         23    2    4    4    0    0 -0.11454032954E+03  0.75424988082E+03 -0.27955620037E+04  0.28992308401E+04  0.91434008609E+02 0.  0.
          2    1    3    3  502    0  0.16537492418E+03 -0.20655525606E+03 -0.22978582317E+03  0.35045037293E+03  0.00000000000E+00 0. -1.
         -1    1    3    3    0  502  0.28041627941E+03 -0.44700148623E+03 -0.33683193346E+03  0.62601866574E+03  0.00000000000E+00 0.  1.
         13    1    5    5    0    0 -0.13458668381E+03 -0.83768529331E+02 -0.29358743552E+03  0.33365299978E+03  0.00000000000E+00 0.  1.
        -13    1    5    5    0    0 -0.19666419024E+03 -0.16924609189E+02 -0.29013955452E+03  0.35091908928E+03  0.00000000000E+00 0. -1.
          1    1    6    6  503    0 -0.26546263536E+02  0.89144068318E+02 -0.24998629621E+03  0.26672929595E+03  0.00000000000E+00 0. -1.
         -1    1    6    6    0  503 -0.87994065999E+02  0.66510581250E+03 -0.25455757075E+04  0.26325015442E+04  0.00000000000E+00 0.  1.
<mgrwt>
<rscale>  0 0.22860228E+04</rscale>
<asrwt>0</asrwt>
<pdfrwt beam="1">  1        2 0.65432141E+00 0.22860228E+04</pdfrwt>
<pdfrwt beam="2">  1       -1 0.47258865E-01 0.22860228E+04</pdfrwt>
<totfact> 0.97120168E-01</totfact>
</mgrwt>
</event>
<event>
12    7  0.1546317E-007  0.1545175E+04  0.7818608E-02  0.8854955E-01
          2   -1    0    0  501    0  0.00000000000E+00  0.00000000000E+00  0.88624229193E+03  0.88624229193E+03  0.00000000000E+00 0. -1.
         -1   -1    0    0    0  501 -0.00000000000E+00 -0.00000000000E+00 -0.67350850817E+03  0.67350850817E+03  0.00000000000E+00 0.  1.
         24    2    1    2    0    0  0.71089758268E+02  0.44237135892E+03 -0.15958565950E+03  0.48361844186E+03  0.87595899853E+02 0.  0.
        254    2    1    2    0    0 -0.71089758268E+02 -0.44237135892E+03  0.37231944326E+03  0.10761323582E+04  0.90481650720E+03 0.  0.
         23    2    4    4    0    0 -0.46967401428E+02  0.23850395424E+03 -0.57709767991E+02  0.26522690986E+03  0.89021477204E+02 0.  0.
         23    2    4    4    0    0 -0.24122356839E+02 -0.68087531316E+03  0.43002921125E+03  0.81090544839E+03  0.92029579613E+02 0.  0.
          2    1    3    3  502    0  0.15878494059E+02  0.40441197856E+02  0.88495930264E+01  0.44338835735E+02  0.00000000000E+00 0. -1.
         -3    1    3    3    0  502  0.55211264208E+02  0.40193016106E+03 -0.16843525253E+03  0.43927960613E+03  0.00000000000E+00 0.  1.
         13    1    5    5    0    0 -0.10418266852E+02  0.21530964149E+03 -0.49381096638E+02  0.22114537008E+03  0.00000000000E+00 0. -1.
        -13    1    5    5    0    0 -0.36549134576E+02  0.23194312750E+02 -0.83286713522E+01  0.44081539772E+02  0.00000000000E+00 0.  1.
          3    1    6    6  503    0  0.18738542547E+02 -0.51619322871E+03  0.30644765906E+03  0.60059699474E+03  0.00000000000E+00 0. -1.
         -3    1    6    6    0  503 -0.42860899386E+02 -0.16468208445E+03  0.12358155219E+03  0.21030845365E+03  0.00000000000E+00 0.  1.
<mgrwt>
<rscale>  0 0.15451754E+04</rscale>
<asrwt>0</asrwt>
<pdfrwt beam="1">  1        2 0.13634497E+00 0.15451754E+04</pdfrwt>
<pdfrwt beam="2">  1       -1 0.10361669E+00 0.15451754E+04</pdfrwt>
<totfact> 0.28920631E+01</totfact>
</mgrwt>
</event>
