<event>
12    1  0.4612066E-007  0.1478119E+04  0.7818608E-02  0.8899135E-01
          2   -1    0    0  501    0  0.00000000000E+00  0.00000000000E+00  0.31209738201E+04  0.31209738201E+04  0.00000000000E+00 0. -1.
         -2   -1    0    0    0  501 -0.00000000000E+00 -0.00000000000E+00 -0.17501241003E+03  0.17501241003E+03  0.00000000000E+00 0.  1.
         23    2    1    2    0    0  0.34145297721E+03 -0.26413184556E+03  0.12611945081E+04  0.13360826084E+04  0.90273925551E+02 0.  0.
        254    2    1    2    0    0 -0.34145297721E+03  0.26413184556E+03  0.16847669019E+04  0.19599036217E+04  0.90356345940E+03 0.  0.
        -24    2    4    4    0    0 -0.22752091416E+03  0.12733474545E+03  0.87938455238E+01  0.27263160393E+03  0.79188104952E+02 0.  0.
         24    2    4    4    0    0 -0.11393206305E+03  0.13679710011E+03  0.16759730564E+04  0.16872720178E+04  0.79417974404E+02 0.  0.
         11    1    3    3    0    0  0.14324023937E+03 -0.64433267427E+02  0.38448608907E+03  0.41532994693E+03  0.00000000000E+00 0.  1.
        -11    1    3    3    0    0  0.19821273784E+03 -0.19969857813E+03  0.87670841903E+03  0.92075266144E+03  0.00000000000E+00 0. -1.
          2    1    6    6  502    0 -0.90084548335E+02  0.11131368720E+03  0.15485080948E+04  0.15551151991E+04  0.00000000000E+00 0. -1.
          3    1    5    5  503    0 -0.16165826488E+03  0.11863216753E+03 -0.17286803159E+02  0.20126057572E+03  0.00000000000E+00 0. -1.
         -4    1    5    5    0  503 -0.65862649273E+02  0.87025779231E+01  0.26080648683E+02  0.71371028208E+02  0.00000000000E+00 0.  1.
         -1    1    6    6    0  502 -0.23847514719E+02  0.25483412910E+02  0.12746496161E+03  0.13215681871E+03  0.00000000000E+00 0.  1.
<mgrwt>
<rscale>  0 0.14781193E+04</rscale>
<asrwt>0</asrwt>
<pdfrwt beam="1">  1        2 0.48014978E+00 0.14781193E+04</pdfrwt>
<pdfrwt beam="2">  1       -2 0.26924989E-01 0.14781193E+04</pdfrwt>
<totfact> 0.17853749E+01</totfact>
</mgrwt>
</event>
<event>
12    1  0.4612066E-007  0.1660017E+04  0.7818608E-02  0.8784503E-01
          2   -1    0    0  501    0  0.00000000000E+00  0.00000000000E+00  0.28738333700E+04  0.28738333700E+04  0.00000000000E+00 0. -1.
         -2   -1    0    0    0  501 -0.00000000000E+00 -0.00000000000E+00 -0.23971948403E+03  0.23971948403E+03  0.00000000000E+00 0.  1.
         23    2    1    2    0    0 -0.27012043341E+03  0.14508179770E+03  0.34134490376E+01  0.31907672897E+03  0.88229987917E+02 0.  0.
        254    2    1    2    0    0  0.27012043341E+03 -0.14508179770E+03  0.26307004369E+04  0.27944761250E+04  0.89134631208E+03 0.  0.
        -24    2    4    4    0    0  0.95122113228E+02 -0.46516502085E+03  0.20393180438E+04  0.20953706302E+04  0.79581913619E+02 0.  0.
         24    2    4    4    0    0  0.17499832018E+03  0.32008322315E+03  0.59138239311E+03  0.69910549486E+03  0.77056318724E+02 0.  0.
         11    1    3    3    0    0 -0.64397987504E+02  0.51674988749E+02 -0.35392729929E+02  0.89833460295E+02  0.00000000000E+00 0. -1.
        -11    1    3    3    0    0 -0.20572244590E+03  0.93406808951E+02  0.38806178966E+02  0.22924326867E+03  0.00000000000E+00 0.  1.
          2    1    6    6  502    0  0.85977565092E+02  0.10834315960E+03  0.16971997753E+03  0.21894120833E+03  0.00000000000E+00 0. -1.
          3    1    5    5  503    0  0.46668750732E+02 -0.98141877199E+02  0.37850142378E+03  0.39379325560E+03  0.00000000000E+00 0. -1.
         -4    1    5    5    0  503  0.48453362496E+02 -0.36702314365E+03  0.16608166200E+04  0.17015773746E+04  0.00000000000E+00 0.  1.
         -1    1    6    6    0  502  0.89020755086E+02  0.21174006355E+03  0.42166241557E+03  0.48016428653E+03  0.00000000000E+00 0.  1.
<mgrwt>
<rscale>  0 0.16600167E+04</rscale>
<asrwt>0</asrwt>
<pdfrwt beam="1">  1        2 0.44212819E+00 0.16600167E+04</pdfrwt>
<pdfrwt beam="2">  1       -2 0.36879923E-01 0.16600167E+04</pdfrwt>
<totfact> 0.13843650E+01</totfact>
</mgrwt>
</event>
<event>
12    1  0.4612066E-007  0.1534569E+04  0.7818608E-02  0.8861785E-01
          2   -1    0    0  501    0  0.00000000000E+00  0.00000000000E+00  0.26928463641E+04  0.26928463641E+04  0.00000000000E+00 0. -1.
         -2   -1    0    0    0  501 -0.00000000000E+00 -0.00000000000E+00 -0.21862564351E+03  0.21862564351E+03  0.00000000000E+00 0.  1.
         23    2    1    2    0    0  0.21599336343E+03 -0.44941304258E+03  0.85515271229E+03  0.99481820958E+03  0.98751672858E+02 0.  0.
        254    2    1    2    0    0 -0.21599336343E+03  0.44941304258E+03  0.16190680083E+04  0.19166537981E+04  0.89641248884E+03 0.  0.
        -24    2    4    4    0    0 -0.37012051643E+03 -0.14317591625E+03  0.71739770140E+03  0.82376254992E+03  0.80229277703E+02 0.  0.
         24    2    4    4    0    0  0.15412715300E+03  0.59258895883E+03  0.90167030691E+03  0.10928912481E+04  0.80530022052E+02 0.  0.
         11    1    3    3    0    0  0.48133674597E+01 -0.21037435915E+02  0.92321703515E+02  0.94810543486E+02  0.00000000000E+00 0. -1.
        -11    1    3    3    0    0  0.21117999597E+03 -0.42837560666E+03  0.76283100878E+03  0.90000766610E+03  0.00000000000E+00 0.  1.
          4    1    6    6  502    0  0.98025772359E+02  0.49645122928E+03  0.72737574161E+03  0.88608596907E+03  0.00000000000E+00 0. -1.
          1    1    5    5  503    0 -0.31544847622E+03 -0.12612276530E+03  0.66200551829E+03  0.74408736000E+03  0.00000000000E+00 0. -1.
         -2    1    5    5    0  503 -0.54672040212E+02 -0.17053150944E+02  0.55392183115E+02  0.79675189917E+02  0.00000000000E+00 0.  1.
         -3    1    6    6    0  502  0.56101380641E+02  0.96137729549E+02  0.17429456531E+03  0.20680527906E+03  0.00000000000E+00 0.  1.
<mgrwt>
<rscale>  0 0.15345687E+04</rscale>
<asrwt>0</asrwt>
<pdfrwt beam="1">  1        2 0.41428403E+00 0.15345687E+04</pdfrwt>
<pdfrwt beam="2">  1       -2 0.33634716E-01 0.15345687E+04</pdfrwt>
<totfact> 0.21445091E+01</totfact>
</mgrwt>
</event>
<event>
12    1  0.4612066E-007  0.2780786E+04  0.7818608E-02  0.8309258E-01
         -2   -1    0    0    0  501 -0.00000000000E+00  0.00000000000E+00  0.76145562443E+03  0.76145562443E+03  0.00000000000E+00 0.  1.
          2   -1    0    0  501    0  0.00000000000E+00 -0.00000000000E+00 -0.25388121497E+04  0.25388121497E+04  0.00000000000E+00 0. -1.
         23    2    1    2    0    0 -0.30553669052E+03 -0.59141631295E+02 -0.22019803072E+04  0.22257069015E+04  0.90573374917E+02 0.  0.
        254    2    1    2    0    0  0.30553669052E+03  0.59141631295E+02  0.42462378187E+03  0.10745608727E+04  0.93676320976E+03 0.  0.
        -24    2    4    4    0    0  0.35083448033E+03 -0.36236525529E+03  0.38857413977E+03  0.64155373137E+03  0.78790337688E+02 0.  0.
         24    2    4    4    0    0 -0.45297789805E+02  0.42150688659E+03  0.36049642108E+02  0.43300714131E+03  0.80471501329E+02 0.  0.
         13    1    3    3    0    0 -0.20295228870E+03 -0.36087262293E+01 -0.15680165900E+04  0.15811004652E+04  0.00000000000E+00 0. -1.
        -13    1    3    3    0    0 -0.10258440182E+03 -0.55532905066E+02 -0.63396371716E+03  0.64460643630E+03  0.00000000000E+00 0.  1.
          2    1    6    6  502    0  0.65956558649E+01  0.20789539049E+03 -0.10667337368E+02  0.20827334959E+03  0.00000000000E+00 0. -1.
          3    1    5    5  503    0  0.27574860532E+03 -0.25106745281E+03  0.25229358786E+03  0.45024905738E+03  0.00000000000E+00 0. -1.
         -4    1    5    5    0  503  0.75085875006E+02 -0.11129780249E+03  0.13628055191E+03  0.19130467399E+03  0.00000000000E+00 0.  1.
         -1    1    6    6    0  502 -0.51893445670E+02  0.21361149610E+03  0.46716979476E+02  0.22473379172E+03  0.00000000000E+00 0.  1.
<mgrwt>
<rscale>  0 0.27807861E+04</rscale>
<asrwt>0</asrwt>
<pdfrwt beam="1">  1        2 0.39058648E+00 0.27807861E+04</pdfrwt>
<pdfrwt beam="2">  1       -2 0.11714702E+00 0.27807861E+04</pdfrwt>
<totfact> 0.16227229E+00</totfact>
</mgrwt>
</event>
<event>
12    1  0.4612066E-007  0.1881935E+04  0.7818608E-02  0.8663901E-01
         -2   -1    0    0    0  501 -0.00000000000E+00  0.00000000000E+00  0.45640324472E+03  0.45640324472E+03  0.00000000000E+00 0.  1.
          2   -1    0    0  501    0  0.00000000000E+00 -0.00000000000E+00 -0.19399945050E+04  0.19399945050E+04  0.00000000000E+00 0. -1.
         23    2    1    2    0    0  0.23765476798E+03  0.22084119752E+03 -0.14036110478E+04  0.14436283270E+04  0.93210245068E+02 0.  0.
        254    2    1    2    0    0 -0.23765476798E+03 -0.22084119752E+03 -0.79980212479E+02  0.95276942270E+03  0.89225675407E+03 0.  0.
        -24    2    4    4    0    0  0.65445978069E+02 -0.32304664920E+03  0.29744048453E+03  0.45147438787E+03  0.81951006461E+02 0.  0.
         24    2    4    4    0    0 -0.30310074605E+03  0.10220545168E+03 -0.37742069701E+03  0.50129503483E+03  0.80835096400E+02 0.  0.
         13    1    3    3    0    0  0.14346586229E+03  0.80619298328E+02 -0.80451072721E+03  0.82116955320E+03  0.00000000000E+00 0. -1.
        -13    1    3    3    0    0  0.94188905687E+02  0.14022189919E+03 -0.59910032058E+03  0.62245877381E+03  0.00000000000E+00 0.  1.
          2    1    6    6  502    0 -0.54542952473E+02  0.53859286450E+02 -0.91612836281E+02  0.11945153064E+03  0.00000000000E+00 0. -1.
          3    1    5    5  503    0  0.35670443316E+01 -0.16724113782E+02  0.50067086118E+02  0.52906832256E+02  0.00000000000E+00 0. -1.
         -4    1    5    5    0  503  0.61878933737E+02 -0.30632253542E+03  0.24737339841E+03  0.39856755561E+03  0.00000000000E+00 0.  1.
         -1    1    6    6    0  502 -0.24855779357E+03  0.48346165235E+02 -0.28580786073E+03  0.38184350419E+03  0.00000000000E+00 0.  1.
<mgrwt>
<rscale>  0 0.18819349E+04</rscale>
<asrwt>0</asrwt>
<pdfrwt beam="1">  1        2 0.29846070E+00 0.18819349E+04</pdfrwt>
<pdfrwt beam="2">  1       -2 0.70215883E-01 0.18819349E+04</pdfrwt>
<totfact> 0.12493615E+01</totfact>
</mgrwt>
</event>
<event>
12    1  0.4612066E-007  0.1636892E+04  0.7818608E-02  0.8798199E-01
         -1   -1    0    0    0  501 -0.00000000000E+00  0.00000000000E+00  0.19170832573E+03  0.19170832573E+03  0.00000000000E+00 0.  1.
          1   -1    0    0  501    0  0.00000000000E+00 -0.00000000000E+00 -0.34941296504E+04  0.34941296504E+04  0.00000000000E+00 0. -1.
         23    2    1    2    0    0 -0.17631773975E+03 -0.18134299977E+03 -0.16994294847E+02  0.26826098230E+03  0.87760581411E+02 0.  0.
        254    2    1    2    0    0  0.17631773975E+03  0.18134299977E+03 -0.32854270298E+04  0.34175769938E+04  0.90654757824E+03 0.  0.
        -24    2    4    4    0    0 -0.26720219862E+03 -0.19482990739E+03 -0.15019239456E+04  0.15400093039E+04  0.80606511776E+02 0.  0.
         24    2    4    4    0    0  0.44351993837E+03  0.37617290716E+03 -0.17835030842E+04  0.18775676900E+04  0.78493231126E+02 0.  0.
         13    1    3    3    0    0 -0.39948656328E+02 -0.99454855421E+02  0.69452544601E+01  0.10740297933E+03  0.00000000000E+00 0. -1.
        -13    1    3    3    0    0 -0.13636908342E+03 -0.81888144352E+02 -0.23939549307E+02  0.16085800297E+03  0.00000000000E+00 0.  1.
          4    1    6    6  502    0  0.37905727643E+03  0.32439565600E+03 -0.16068381943E+04  0.16825117959E+04  0.00000000000E+00 0. -1.
          3    1    5    5  503    0 -0.25012461879E+03 -0.15590256500E+03 -0.13722830436E+04  0.14035771039E+04  0.00000000000E+00 0. -1.
         -4    1    5    5    0  503 -0.17077579826E+02 -0.38927342396E+02 -0.12964090199E+03  0.13643219996E+03  0.00000000000E+00 0.  1.
         -3    1    6    6    0  502  0.64462661936E+02  0.51777251163E+02 -0.17666488983E+03  0.19505589409E+03  0.00000000000E+00 0.  1.
<mgrwt>
<rscale>  0 0.16368919E+04</rscale>
<asrwt>0</asrwt>
<pdfrwt beam="1">  1        1 0.53755843E+00 0.16368919E+04</pdfrwt>
<pdfrwt beam="2">  1       -1 0.29493588E-01 0.16368919E+04</pdfrwt>
<totfact> 0.25631294E+00</totfact>
</mgrwt>
</event>
<event>
12    1  0.4612066E-007  0.3082510E+04  0.7818608E-02  0.8220554E-01
         -1   -1    0    0    0  501 -0.00000000000E+00  0.00000000000E+00  0.85150496758E+03  0.85150496758E+03  0.00000000000E+00 0.  1.
          1   -1    0    0  501    0  0.00000000000E+00 -0.00000000000E+00 -0.27897274891E+04  0.27897274891E+04  0.00000000000E+00 0. -1.
         23    2    1    2    0    0 -0.23682753350E+03 -0.13127746509E+03 -0.25187752202E+04  0.25350009831E+04  0.93168238969E+02 0.  0.
        254    2    1    2    0    0  0.23682753350E+03  0.13127746509E+03  0.58055269869E+03  0.11062314736E+04  0.90187891857E+03 0.  0.
        -24    2    4    4    0    0 -0.25312018304E+03  0.31306771315E+03  0.22052887369E+03  0.46653362837E+03  0.83303194316E+02 0.  0.
         24    2    4    4    0    0  0.48994771654E+03 -0.18179024806E+03  0.36002382500E+03  0.63969784523E+03  0.80620837238E+02 0.  0.
         13    1    3    3    0    0  0.24095143050E+01 -0.39719001257E+01 -0.56869964050E+01  0.73432743313E+01  0.00000000000E+00 0.  1.
        -13    1    3    3    0    0 -0.23923704780E+03 -0.12730556496E+03 -0.25130882238E+04  0.25276577087E+04  0.00000000000E+00 0. -1.
          4    1    6    6  502    0  0.22697577935E+03 -0.88887413904E+02  0.11981720473E+03  0.27161579356E+03  0.00000000000E+00 0. -1.
          3    1    5    5  503    0 -0.96248832518E+02  0.88281098436E+02  0.33939853018E+02  0.13494185313E+03  0.00000000000E+00 0. -1.
         -4    1    5    5    0  503 -0.15687135053E+03  0.22478661471E+03  0.18658902068E+03  0.33159177524E+03  0.00000000000E+00 0.  1.
         -3    1    6    6    0  502  0.26297193719E+03 -0.92902834160E+02  0.24020662026E+03  0.36808205167E+03  0.00000000000E+00 0.  1.
<mgrwt>
<rscale>  0 0.30825099E+04</rscale>
<asrwt>0</asrwt>
<pdfrwt beam="1">  1        1 0.42918884E+00 0.30825099E+04</pdfrwt>
<pdfrwt beam="2">  1       -1 0.13100077E+00 0.30825099E+04</pdfrwt>
<totfact> 0.35603796E-01</totfact>
</mgrwt>
</event>
<event>
12    1  0.4612066E-007  0.1539836E+04  0.7818608E-02  0.8858386E-01
         -2   -1    0    0    0  501 -0.00000000000E+00  0.00000000000E+00  0.34122097434E+03  0.34122097434E+03  0.00000000000E+00 0.  1.
          2   -1    0    0  501    0  0.00000000000E+00 -0.00000000000E+00 -0.17372144772E+04  0.17372144772E+04  0.00000000000E+00 0. -1.
         23    2    1    2    0    0 -0.42337667668E+03 -0.45749260121E+02 -0.82566635911E+03  0.93335409385E+03  0.89911750023E+02 0.  0.
        254    2    1    2    0    0  0.42337667668E+03  0.45749260121E+02 -0.57032714379E+03  0.11450813577E+04  0.89699356727E+03 0.  0.
        -24    2    4    4    0    0 -0.13346684026E+03  0.14129307637E+03  0.12569134268E+03  0.24496053263E+03  0.80188640344E+02 0.  0.
         24    2    4    4    0    0  0.55684351694E+03 -0.95543816248E+02 -0.69601848647E+03  0.90012082510E+03  0.81070605561E+02 0.  0.
         13    1    3    3    0    0 -0.10915318555E+03 -0.54207410302E+01 -0.30376565183E+03  0.32282715744E+03  0.00000000000E+00 0. -1.
        -13    1    3    3    0    0 -0.31422349112E+03 -0.40328519091E+02 -0.52190070728E+03  0.61052693641E+03  0.00000000000E+00 0.  1.
          2    1    6    6  502    0  0.30742179521E+03 -0.36621698422E+02 -0.32173250307E+03  0.44649872620E+03  0.00000000000E+00 0. -1.
          3    1    5    5  503    0 -0.10461512820E+03  0.11276836742E+03  0.54820816427E+02  0.16329835165E+03  0.00000000000E+00 0. -1.
         -4    1    5    5    0  503 -0.28851712060E+02  0.28524708948E+02  0.70870526256E+02  0.81662180973E+02  0.00000000000E+00 0.  1.
         -1    1    6    6    0  502  0.24942172173E+03 -0.58922117826E+02 -0.37428598341E+03  0.45362209890E+03  0.00000000000E+00 0.  1.
<mgrwt>
<rscale>  0 0.15398364E+04</rscale>
<asrwt>0</asrwt>
<pdfrwt beam="1">  1        2 0.26726377E+00 0.15398364E+04</pdfrwt>
<pdfrwt beam="2">  1       -2 0.52495535E-01 0.15398364E+04</pdfrwt>
<totfact> 0.30839521E+01</totfact>
</mgrwt>
</event>
<event>
12    1  0.4612066E-007  0.1030090E+04  0.7818608E-02  0.9276145E-01
          1   -1    0    0  501    0  0.00000000000E+00  0.00000000000E+00  0.18434022088E+04  0.18434022088E+04  0.00000000000E+00 0. -1.
         -1   -1    0    0    0  501 -0.00000000000E+00 -0.00000000000E+00 -0.14390300214E+03  0.14390300214E+03  0.00000000000E+00 0.  1.
         23    2    1    2    0    0  0.39922634007E+02  0.73672300112E+02  0.18257678791E+03  0.22159412725E+03  0.93532075977E+02 0.  0.
        254    2    1    2    0    0 -0.39922634007E+02 -0.73672300112E+02  0.15169224187E+04  0.17657110837E+04  0.89981141473E+03 0.  0.
        -24    2    4    4    0    0  0.29181999620E+03  0.20610680298E+03  0.10973444269E+04  0.11567441034E+04  0.79077209616E+02 0.  0.
         24    2    4    4    0    0 -0.33174263020E+03 -0.27977910309E+03  0.41957799187E+03  0.60896698032E+03  0.80408784592E+02 0.  0.
         13    1    3    3    0    0  0.24006314409E+02  0.84020156264E+02  0.18279633020E+03  0.20260846015E+03  0.00000000000E+00 0. -1.
        -13    1    3    3    0    0  0.15916319597E+02 -0.10347856151E+02 -0.21954228368E+00  0.18985667101E+02  0.00000000000E+00 0.  1.
          2    1    6    6  502    0 -0.11153098847E+03 -0.63188740158E+02  0.86088391325E+02  0.15441240038E+03  0.00000000000E+00 0. -1.
          3    1    5    5  503    0  0.24676906267E+02  0.27517024715E+02  0.20497165812E+03  0.20827749995E+03  0.00000000000E+00 0. -1.
         -4    1    5    5    0  503  0.26714308993E+03  0.17858977826E+03  0.89237276874E+03  0.94846660341E+03  0.00000000000E+00 0.  1.
         -1    1    6    6    0  502 -0.22021164174E+03 -0.21659036293E+03  0.33348960054E+03  0.45455457994E+03  0.00000000000E+00 0.  1.
<mgrwt>
<rscale>  0 0.10300895E+04</rscale>
<asrwt>0</asrwt>
<pdfrwt beam="1">  1        1 0.28360032E+00 0.10300895E+04</pdfrwt>
<pdfrwt beam="2">  1       -1 0.22138925E-01 0.10300895E+04</pdfrwt>
<totfact> 0.65819414E+01</totfact>
</mgrwt>
</event>
<event>
12    1  0.4612066E-007  0.1811682E+04  0.7818608E-02  0.8700111E-01
         -1   -1    0    0    0  501 -0.00000000000E+00  0.00000000000E+00  0.50204477158E+03  0.50204477158E+03  0.00000000000E+00 0.  1.
          1   -1    0    0  501    0  0.00000000000E+00 -0.00000000000E+00 -0.16344125842E+04  0.16344125842E+04  0.00000000000E+00 0. -1.
         23    2    1    2    0    0  0.46132542753E+03  0.45504220916E+03 -0.68177930296E+03  0.94500856939E+03  0.91288641522E+02 0.  0.
        254    2    1    2    0    0 -0.46132542753E+03 -0.45504220916E+03 -0.45058850969E+03  0.11914487864E+04  0.89254447698E+03 0.  0.
        -24    2    4    4    0    0  0.14896826244E+03 -0.45016277383E+03 -0.12922457129E+03  0.49767349834E+03  0.78369987696E+02 0.  0.
         24    2    4    4    0    0 -0.61029368998E+03 -0.48794353307E+01 -0.32136393841E+03  0.69377528808E+03  0.74613487546E+02 0.  0.
         13    1    3    3    0    0  0.33183700554E+03  0.28517626334E+03 -0.50117455992E+03  0.66529485112E+03  0.00000000000E+00 0. -1.
        -13    1    3    3    0    0  0.12948842199E+03  0.16986594582E+03 -0.18060474305E+03  0.27971371827E+03  0.00000000000E+00 0.  1.
          2    1    6    6  502    0 -0.86162715381E+02 -0.99250703677E+01 -0.19451199630E+02  0.88886836543E+02  0.00000000000E+00 0. -1.
          1    1    5    5  503    0 -0.69844124163E+01 -0.16452962461E+02  0.31379244100E+01  0.18147411941E+02  0.00000000000E+00 0. -1.
         -2    1    5    5    0  503  0.15595267486E+03 -0.43370981136E+03 -0.13236249570E+03  0.47952608640E+03  0.00000000000E+00 0.  1.
         -1    1    6    6    0  502 -0.52413097459E+03  0.50456350371E+01 -0.30191273878E+03  0.60488845153E+03  0.00000000000E+00 0.  1.
<mgrwt>
<rscale>  0 0.18116824E+04</rscale>
<asrwt>0</asrwt>
<pdfrwt beam="1">  1        1 0.25144809E+00 0.18116824E+04</pdfrwt>
<pdfrwt beam="2">  1       -1 0.77237658E-01 0.18116824E+04</pdfrwt>
<totfact> 0.83721486E+00</totfact>
</mgrwt>
</event>
<event>
12    1  0.4612066E-007  0.2245397E+04  0.7818608E-02  0.8499767E-01
          2   -1    0    0  501    0  0.00000000000E+00  0.00000000000E+00  0.17551784272E+04  0.17551784272E+04  0.00000000000E+00 0. -1.
         -2   -1    0    0    0  501 -0.00000000000E+00 -0.00000000000E+00 -0.71813348091E+03  0.71813348091E+03  0.00000000000E+00 0.  1.
         23    2    1    2    0    0  0.90202224301E+03  0.11284702394E+03  0.71048799824E+03  0.11579219316E+04  0.98037882720E+02 0.  0.
        254    2    1    2    0    0 -0.90202224301E+03 -0.11284702394E+03  0.32655694810E+03  0.13153899765E+04  0.89287892362E+03 0.  0.
        -24    2    4    4    0    0 -0.74176817739E+02  0.21329158518E+03 -0.16972070444E+03  0.29339520338E+03  0.79247253907E+02 0.  0.
         24    2    4    4    0    0 -0.82784542527E+03 -0.32613860912E+03  0.49627765254E+03  0.10219947731E+04  0.80544195334E+02 0.  0.
         11    1    3    3    0    0  0.63477946709E+03  0.56194468219E+02  0.54498256668E+03  0.83851582459E+03  0.00000000000E+00 0. -1.
        -11    1    3    3    0    0  0.26724277591E+03  0.56652555724E+02  0.16550543156E+03  0.31940610705E+03  0.00000000000E+00 0.  1.
          4    1    6    6  502    0 -0.28198415049E+03 -0.70925314297E+02  0.16739617236E+03  0.33550996983E+03  0.00000000000E+00 0. -1.
          3    1    5    5  503    0  0.97402667700E+01  0.87876768207E+02 -0.61556310591E+02  0.10773290380E+03  0.00000000000E+00 0. -1.
         -4    1    5    5    0  503 -0.83917084509E+02  0.12541481697E+03 -0.10816439385E+03  0.18566229958E+03  0.00000000000E+00 0.  1.
         -3    1    6    6    0  502 -0.54586127478E+03 -0.25521329482E+03  0.32888148018E+03  0.68648480330E+03  0.00000000000E+00 0.  1.
<mgrwt>
<rscale>  0 0.22453974E+04</rscale>
<asrwt>0</asrwt>
<pdfrwt beam="1">  1        2 0.27002745E+00 0.22453974E+04</pdfrwt>
<pdfrwt beam="2">  1       -2 0.11048207E+00 0.22453974E+04</pdfrwt>
<totfact> 0.54100071E+00</totfact>
</mgrwt>
</event>
<event>
12    1  0.4612066E-007  0.2329255E+04  0.7818608E-02  0.8466475E-01
          1   -1    0    0  501    0  0.00000000000E+00  0.00000000000E+00  0.19162210486E+04  0.19162210486E+04  0.00000000000E+00 0. -1.
         -1   -1    0    0    0  501 -0.00000000000E+00 -0.00000000000E+00 -0.70782925985E+03  0.70782925985E+03  0.00000000000E+00 0.  1.
         23    2    1    2    0    0 -0.53776585478E+03 -0.62692750714E+03  0.11126484985E+04  0.13887344327E+04  0.91468188442E+02 0.  0.
        254    2    1    2    0    0  0.53776585478E+03  0.62692750714E+03  0.95743290292E+02  0.12353158758E+04  0.91356900212E+03 0.  0.
        -24    2    4    4    0    0  0.50275290005E+03  0.17412134999E+03 -0.30978759580E+03  0.62083264399E+03  0.79913042059E+02 0.  0.
         24    2    4    4    0    0  0.35012954722E+02  0.45280615715E+03  0.40553088609E+03  0.61448323183E+03  0.82915738419E+02 0.  0.
         11    1    3    3    0    0 -0.83883246917E+02 -0.13024843538E+03  0.16285732721E+03  0.22477447155E+03  0.00000000000E+00 0.  1.
        -11    1    3    3    0    0 -0.45388260786E+03 -0.49667907176E+03  0.94979117127E+03  0.11639599611E+04  0.00000000000E+00 0. -1.
          2    1    6    6  502    0 -0.11602849083E+02  0.79284188814E+01  0.87838075874E+01  0.16572302451E+02  0.00000000000E+00 0. -1.
          1    1    5    5  503    0  0.23138550566E+03  0.10685060143E+03 -0.18350276902E+03  0.31405345006E+03  0.00000000000E+00 0. -1.
         -2    1    5    5    0  503  0.27136739439E+03  0.67270748563E+02 -0.12628482678E+03  0.30677919393E+03  0.00000000000E+00 0.  1.
         -1    1    6    6    0  502  0.46615803805E+02  0.44487773827E+03  0.39674707851E+03  0.59791092938E+03  0.00000000000E+00 0.  1.
<mgrwt>
<rscale>  0 0.23292551E+04</rscale>
<asrwt>0</asrwt>
<pdfrwt beam="1">  1        1 0.29480324E+00 0.23292551E+04</pdfrwt>
<pdfrwt beam="2">  1       -1 0.10889681E+00 0.23292551E+04</pdfrwt>
<totfact> 0.23933376E+00</totfact>
</mgrwt>
</event>
<event>
12    1  0.4612066E-007  0.1933628E+04  0.7818608E-02  0.8638296E-01
         -1   -1    0    0    0  501 -0.00000000000E+00  0.00000000000E+00  0.11277636063E+04  0.11277636063E+04  0.00000000000E+00 0.  1.
          1   -1    0    0  501    0  0.00000000000E+00 -0.00000000000E+00 -0.82883481040E+03  0.82883481040E+03  0.00000000000E+00 0. -1.
         23    2    1    2    0    0 -0.68164861570E+03 -0.29633955140E+03  0.28444697095E+03  0.80110822381E+03  0.91664289495E+02 0.  0.
        254    2    1    2    0    0  0.68164861570E+03  0.29633955140E+03  0.14481824969E+02  0.11554901929E+04  0.88458232949E+03 0.  0.
        -24    2    4    4    0    0 -0.19703071806E+03  0.91371536068E+02 -0.79925276469E+02  0.24476274306E+03  0.79692465826E+02 0.  0.
         24    2    4    4    0    0  0.87867933376E+03  0.20496801534E+03  0.94407101439E+02  0.91072744985E+03  0.80140677719E+02 0.  0.
         11    1    3    3    0    0 -0.43667972785E+03 -0.21021505075E+03  0.22695474169E+03  0.53515232135E+03  0.00000000000E+00 0.  1.
        -11    1    3    3    0    0 -0.24496888785E+03 -0.86124500655E+02  0.57492229260E+02  0.26595590246E+03  0.00000000000E+00 0. -1.
          2    1    6    6  502    0  0.87440123574E+03  0.19741775486E+03  0.97068474931E+02  0.90165047542E+03  0.00000000000E+00 0. -1.
          1    1    5    5  503    0 -0.80235039041E+02  0.80618283886E+02 -0.45734603083E+02  0.12259128479E+03  0.00000000000E+00 0. -1.
         -2    1    5    5    0  503 -0.11679567902E+03  0.10753252181E+02 -0.34190673386E+02  0.12217145827E+03  0.00000000000E+00 0.  1.
         -3    1    6    6    0  502  0.42780980145E+01  0.75502604790E+01 -0.26613734921E+01  0.90769744291E+01  0.00000000000E+00 0.  1.
<mgrwt>
<rscale>  0 0.19336284E+04</rscale>
<asrwt>0</asrwt>
<pdfrwt beam="1">  1        1 0.12751305E+00 0.19336284E+04</pdfrwt>
<pdfrwt beam="2">  1       -1 0.17350209E+00 0.19336284E+04</pdfrwt>
<totfact> 0.45172877E+00</totfact>
</mgrwt>
</event>
<event>
12    1  0.4612066E-007  0.2342658E+04  0.7818608E-02  0.8461289E-01
          3   -1    0    0  501    0  0.00000000000E+00  0.00000000000E+00  0.11794661981E+04  0.11794661981E+04  0.00000000000E+00 0. -1.
         -3   -1    0    0    0  501 -0.00000000000E+00 -0.00000000000E+00 -0.11632477334E+04  0.11632477334E+04  0.00000000000E+00 0.  1.
         23    2    1    2    0    0 -0.92938418388E+03 -0.31017769888E+03  0.17008511707E+03  0.99888462457E+03  0.94214542557E+02 0.  0.
        254    2    1    2    0    0  0.92938418388E+03  0.31017769888E+03 -0.15386665239E+03  0.13438293068E+04  0.90677290050E+03 0.  0.
        -24    2    4    4    0    0 -0.16312607148E+03 -0.38379634298E+02 -0.23595056683E+02  0.18693470818E+03  0.79402436346E+02 0.  0.
         24    2    4    4    0    0  0.10925102554E+04  0.34855733318E+03 -0.13027159571E+03  0.11568945987E+04  0.79771869530E+02 0.  0.
         11    1    3    3    0    0 -0.24409865414E+03 -0.68121776190E+02  0.84206871002E+02  0.26704967041E+03  0.00000000000E+00 0. -1.
        -11    1    3    3    0    0 -0.68528552974E+03 -0.24205592269E+03  0.85878246070E+02  0.73183495416E+03  0.00000000000E+00 0.  1.
          2    1    6    6  502    0  0.92391998766E+03  0.32007589176E+03 -0.12585802350E+03  0.98585848993E+03  0.00000000000E+00 0. -1.
          3    1    5    5  503    0 -0.10819624206E+03 -0.26227013639E+02 -0.53171905591E+02  0.12337558342E+03  0.00000000000E+00 0. -1.
         -4    1    5    5    0  503 -0.54929829427E+02 -0.12152620659E+02  0.29576848908E+02  0.63559124767E+02  0.00000000000E+00 0.  1.
         -1    1    6    6    0  502  0.16859026771E+03  0.28481441415E+02 -0.44135722094E+01  0.17103610873E+03  0.00000000000E+00 0.  1.
<mgrwt>
<rscale>  0 0.23426578E+04</rscale>
<asrwt>0</asrwt>
<pdfrwt beam="1">  1        3 0.18145634E+00 0.23426578E+04</pdfrwt>
<pdfrwt beam="2">  1       -3 0.17896119E+00 0.23426578E+04</pdfrwt>
<totfact> 0.91875101E-02</totfact>
</mgrwt>
</event>
<event>
12    1  0.4612066E-007  0.1586170E+04  0.7818608E-02  0.8829090E-01
         -2   -1    0    0    0  501 -0.00000000000E+00  0.00000000000E+00  0.71358465619E+03  0.71358465619E+03  0.00000000000E+00 0.  1.
          2   -1    0    0  501    0  0.00000000000E+00 -0.00000000000E+00 -0.88144194042E+03  0.88144194042E+03  0.00000000000E+00 0. -1.
         23    2    1    2    0    0  0.13683675604E+03  0.30946596896E+03  0.36670629379E+03  0.50712454093E+03  0.90599726015E+02 0.  0.
        254    2    1    2    0    0 -0.13683675604E+03 -0.30946596896E+03 -0.53456357802E+03  0.10879020557E+04  0.88503060968E+03 0.  0.
        -24    2    4    4    0    0  0.24334095182E+03 -0.26978036455E+03 -0.58593619082E+03  0.69398774838E+03  0.79382058820E+02 0.  0.
         24    2    4    4    0    0 -0.38017770786E+03 -0.39685604418E+02  0.51372612796E+02  0.39391430731E+03  0.80120530511E+02 0.  0.
         13    1    3    3    0    0  0.12960272312E+03  0.28503628502E+03  0.29181123021E+03  0.42801441996E+03  0.00000000000E+00 0. -1.
        -13    1    3    3    0    0  0.72340329168E+01  0.24429683940E+02  0.74895063586E+02  0.79110120966E+02  0.00000000000E+00 0.  1.
          4    1    6    6  502    0 -0.34323325515E+01  0.44649167035E+01 -0.81935198561E+01  0.99423415524E+01  0.00000000000E+00 0. -1.
          1    1    5    5  503    0  0.60996055028E+02 -0.11071562748E+03 -0.24795399194E+03  0.27831573979E+03  0.00000000000E+00 0. -1.
         -2    1    5    5    0  503  0.18234489679E+03 -0.15906473706E+03 -0.33798219888E+03  0.41567200858E+03  0.00000000000E+00 0.  1.
         -3    1    6    6    0  502 -0.37674537530E+03 -0.44150521121E+02  0.59566132652E+02  0.38397196576E+03  0.00000000000E+00 0.  1.
<mgrwt>
<rscale>  0 0.15861695E+04</rscale>
<asrwt>0</asrwt>
<pdfrwt beam="1">  1        2 0.13560645E+00 0.15861695E+04</pdfrwt>
<pdfrwt beam="2">  1       -2 0.10978225E+00 0.15861695E+04</pdfrwt>
<totfact> 0.19133311E+01</totfact>
</mgrwt>
</event>
<event>
12    1  0.4612066E-007  0.2338270E+04  0.7818608E-02  0.8462983E-01
          2   -1    0    0  501    0  0.00000000000E+00  0.00000000000E+00  0.12806306278E+04  0.12806306278E+04  0.00000000000E+00 0. -1.
         -2   -1    0    0    0  501 -0.00000000000E+00 -0.00000000000E+00 -0.10673469648E+04  0.10673469648E+04  0.00000000000E+00 0.  1.
         23    2    1    2    0    0  0.95421422836E+03  0.29474006167E+03 -0.18131434828E+03  0.10191265533E+04  0.91364879544E+02 0.  0.
        254    2    1    2    0    0 -0.95421422836E+03 -0.29474006167E+03  0.39459801126E+03  0.13288510394E+04  0.78277774416E+03 0.  0.
        -24    2    4    4    0    0 -0.98913192543E+03 -0.10938602713E+03  0.15017214811E+03  0.10097105354E+04  0.81341394142E+02 0.  0.
         24    2    4    4    0    0  0.34917697073E+02 -0.18535403454E+03  0.24442586315E+03  0.31914050395E+03  0.80816427774E+02 0.  0.
         11    1    3    3    0    0  0.44998563296E+03  0.12658570342E+03 -0.40152705104E+02  0.46917294243E+03  0.00000000000E+00 0.  1.
        -11    1    3    3    0    0  0.50422859539E+03  0.16815435825E+03 -0.14116164318E+03  0.54995361087E+03  0.00000000000E+00 0. -1.
          4    1    6    6  502    0 -0.11390934977E+02 -0.10594973253E+02  0.55538362570E+02  0.57675961846E+02  0.00000000000E+00 0. -1.
          1    1    5    5  503    0 -0.10492003547E+02 -0.14588768815E+01 -0.69637325386E+01  0.12676909365E+02  0.00000000000E+00 0. -1.
         -2    1    5    5    0  503 -0.97863992188E+03 -0.10792715025E+03  0.15713588065E+03  0.99703362604E+03  0.00000000000E+00 0.  1.
         -3    1    6    6    0  502  0.46308632050E+02 -0.17475906129E+03  0.18888750058E+03  0.26146454211E+03  0.00000000000E+00 0.  1.
<mgrwt>
<rscale>  0 0.23382705E+04</rscale>
<asrwt>0</asrwt>
<pdfrwt beam="1">  1        2 0.19702010E+00 0.23382705E+04</pdfrwt>
<pdfrwt beam="2">  1       -2 0.16420722E+00 0.23382705E+04</pdfrwt>
<totfact> 0.35982654E+00</totfact>
</mgrwt>
</event>
<event>
12    1  0.4612066E-007  0.1402988E+04  0.7818608E-02  0.8951658E-01
          1   -1    0    0  501    0  0.00000000000E+00  0.00000000000E+00  0.96451458643E+03  0.96451458643E+03  0.00000000000E+00 0. -1.
         -1   -1    0    0    0  501 -0.00000000000E+00 -0.00000000000E+00 -0.51019852268E+03  0.51019852268E+03  0.00000000000E+00 0.  1.
         23    2    1    2    0    0 -0.14827763968E+03 -0.35442372318E+03  0.26016443051E+03  0.47287868094E+03  0.91248463019E+02 0.  0.
        254    2    1    2    0    0  0.14827763968E+03  0.35442372318E+03  0.19415163323E+03  0.10018344282E+04  0.90464077445E+03 0.  0.
        -24    2    4    4    0    0 -0.14516539241E+03 -0.86421100771E+02 -0.24516214055E+03  0.30894588589E+03  0.82471130896E+02 0.  0.
         24    2    4    4    0    0  0.29344303209E+03  0.44084482395E+03  0.43931377379E+03  0.69288854228E+03  0.81516674970E+02 0.  0.
         11    1    3    3    0    0 -0.13473094316E+03 -0.35576292149E+03  0.24493426157E+03  0.45245162818E+03  0.00000000000E+00 0.  1.
        -11    1    3    3    0    0 -0.13546696515E+02  0.13391983062E+01  0.15230168943E+02  0.20427052763E+02  0.00000000000E+00 0. -1.
          2    1    6    6  502    0  0.26264220248E+03  0.33955866141E+03  0.36588038717E+03  0.56404739941E+03  0.00000000000E+00 0. -1.
          1    1    5    5  503    0 -0.76522821644E+02 -0.90103662355E+02 -0.13898428666E+03  0.18245833536E+03  0.00000000000E+00 0. -1.
         -2    1    5    5    0  503 -0.68642570769E+02  0.36825615840E+01 -0.10617785389E+03  0.12648755053E+03  0.00000000000E+00 0.  1.
         -1    1    6    6    0  502  0.30800829608E+02  0.10128616254E+03  0.73433386620E+02  0.12884114287E+03  0.00000000000E+00 0.  1.
<mgrwt>
<rscale>  0 0.14029881E+04</rscale>
<asrwt>0</asrwt>
<pdfrwt beam="1">  1        1 0.14838686E+00 0.14029881E+04</pdfrwt>
<pdfrwt beam="2">  1       -1 0.78492080E-01 0.14029881E+04</pdfrwt>
<totfact> 0.25561291E+01</totfact>
</mgrwt>
</event>
<event>
12    1  0.4612066E-007  0.1644466E+04  0.7818608E-02  0.8793687E-01
          1   -1    0    0  501    0  0.00000000000E+00  0.00000000000E+00  0.44049936010E+03  0.44049936010E+03  0.00000000000E+00 0. -1.
         -1   -1    0    0    0  501 -0.00000000000E+00 -0.00000000000E+00 -0.15347748114E+04  0.15347748114E+04  0.00000000000E+00 0.  1.
         23    2    1    2    0    0  0.25998442315E+03  0.39557097180E+03 -0.74500614536E+03  0.88725278497E+03  0.90083593324E+02 0.  0.
        254    2    1    2    0    0 -0.25998442315E+03 -0.39557097180E+03 -0.34926930595E+03  0.10880213866E+04  0.91527766033E+03 0.  0.
        -24    2    4    4    0    0 -0.59227757904E+03 -0.32122118603E+03 -0.26329801122E+03  0.72781660474E+03  0.80096107519E+02 0.  0.
         24    2    4    4    0    0  0.33229315588E+03 -0.74349785770E+02 -0.85971294737E+02  0.36020478181E+03  0.80061159305E+02 0.  0.
         11    1    3    3    0    0  0.20590491520E+03  0.24952147240E+03 -0.54468321640E+03  0.63351211948E+03  0.00000000000E+00 0.  1.
        -11    1    3    3    0    0  0.54079507953E+02  0.14604949940E+03 -0.20032292896E+03  0.25374066549E+03  0.00000000000E+00 0. -1.
          4    1    6    6  502    0  0.21873377594E+03 -0.22478570890E+02 -0.83881398052E+02  0.23534196359E+03  0.00000000000E+00 0. -1.
          3    1    5    5  503    0 -0.57278256407E+03 -0.32491973039E+03 -0.25290984099E+03  0.70541908435E+03  0.00000000000E+00 0. -1.
         -4    1    5    5    0  503 -0.19495014970E+02  0.36985443550E+01 -0.10388170229E+02  0.22397520393E+02  0.00000000000E+00 0.  1.
         -3    1    6    6    0  502  0.11355937995E+03 -0.51871214880E+02 -0.20898966843E+01  0.12486281822E+03  0.00000000000E+00 0.  1.
<mgrwt>
<rscale>  0 0.16444663E+04</rscale>
<asrwt>0</asrwt>
<pdfrwt beam="1">  1        1 0.67769132E-01 0.16444663E+04</pdfrwt>
<pdfrwt beam="2">  1       -1 0.23611920E+00 0.16444663E+04</pdfrwt>
<totfact> 0.43331413E+00</totfact>
</mgrwt>
</event>
<event>
12    1  0.4612066E-007  0.1375261E+04  0.7818608E-02  0.8971923E-01
         -1   -1    0    0    0  501 -0.00000000000E+00  0.00000000000E+00  0.42025104018E+03  0.42025104018E+03  0.00000000000E+00 0.  1.
          1   -1    0    0  501    0  0.00000000000E+00 -0.00000000000E+00 -0.11251264995E+04  0.11251264995E+04  0.00000000000E+00 0. -1.
         23    2    1    2    0    0 -0.30643768171E+03  0.23668854220E+03 -0.11194085285E+03  0.41239365690E+03  0.87248237430E+02 0.  0.
        254    2    1    2    0    0  0.30643768171E+03 -0.23668854220E+03 -0.59293460650E+03  0.11329838828E+04  0.88439556327E+03 0.  0.
        -24    2    4    4    0    0 -0.60745584940E+02  0.14144168264E+03  0.14320450152E+03  0.22469981212E+03  0.79288716939E+02 0.  0.
         24    2    4    4    0    0  0.36718326665E+03 -0.37813022485E+03 -0.73613910801E+03  0.90828407069E+03  0.72616447597E+02 0.  0.
         13    1    3    3    0    0 -0.75143604181E+02  0.97547227791E+02 -0.88353120600E+01  0.12345074175E+03  0.00000000000E+00 0.  1.
        -13    1    3    3    0    0 -0.23129407753E+03  0.13914131441E+03 -0.10310554079E+03  0.28894291516E+03  0.00000000000E+00 0. -1.
          2    1    6    6  502    0  0.11679715862E+03 -0.13211377832E+03 -0.19146351231E+03  0.26029579949E+03  0.00000000000E+00 0. -1.
          3    1    5    5  503    0  0.12917951110E+02  0.35569371060E+02  0.96929150260E+01  0.39064129585E+02  0.00000000000E+00 0. -1.
         -4    1    5    5    0  503 -0.73663536051E+02  0.10587231158E+03  0.13351158649E+03  0.18563568254E+03  0.00000000000E+00 0.  1.
         -1    1    6    6    0  502  0.25038610803E+03 -0.24601644653E+03 -0.54467559570E+03  0.64798827120E+03  0.00000000000E+00 0.  1.
<mgrwt>
<rscale>  0 0.13752608E+04</rscale>
<asrwt>0</asrwt>
<pdfrwt beam="1">  1        1 0.17309639E+00 0.13752608E+04</pdfrwt>
<pdfrwt beam="2">  1       -1 0.64654005E-01 0.13752608E+04</pdfrwt>
<totfact> 0.28768657E+01</totfact>
</mgrwt>
</event>
<event>
12    1  0.7144017E-007  0.3365999E+04  0.7818608E-02  0.8146302E-01
          1   -1    0    0  501    0  0.00000000000E+00  0.00000000000E+00  0.23111347285E+04  0.23111347285E+04  0.00000000000E+00 0. -1.
         -1   -1    0    0    0  501 -0.00000000000E+00 -0.00000000000E+00 -0.12255831627E+04  0.12255831627E+04  0.00000000000E+00 0.  1.
         23    2    1    2    0    0 -0.15205169588E+04 -0.16612266669E+03  0.45869264717E+03  0.15993817802E+04  0.89747266024E+02 0.  0.
        254    2    1    2    0    0  0.15205169588E+04  0.16612266669E+03  0.62685891870E+03  0.19373361110E+04  0.10103219984E+04 0.  0.
        -24    2    4    4    0    0 -0.33763362893E+02 -0.12282064701E+03  0.27859243786E+03  0.31644404569E+03  0.79361272784E+02 0.  0.
         24    2    4    4    0    0  0.15542803217E+04  0.28894331370E+03  0.34826648084E+03  0.16208920653E+04  0.82012124692E+02 0.  0.
         13    1    3    3    0    0 -0.96075298299E+03 -0.14389491409E+03  0.31098031394E+03  0.10200298017E+04  0.00000000000E+00 0.  1.
        -13    1    3    3    0    0 -0.55976397586E+03 -0.22227752602E+02  0.14771233324E+03  0.57935197855E+03  0.00000000000E+00 0. -1.
          2    1    6    6  502    0  0.81615644928E+02  0.33262385984E+02  0.13421095919E+02  0.89149456724E+02  0.00000000000E+00 0. -1.
          1    1    5    5  503    0  0.24824741221E+01 -0.45488091065E+00  0.82133642551E+02  0.82172409196E+02  0.00000000000E+00 0. -1.
         -2    1    5    5    0  503 -0.36245837015E+02 -0.12236576610E+03  0.19645879531E+03  0.23427163650E+03  0.00000000000E+00 0.  1.
         -1    1    6    6    0  502  0.14726646768E+04  0.25568092772E+03  0.33484538493E+03  0.15317426086E+04  0.00000000000E+00 0.  1.
<mgrwt>
<rscale>  0 0.33659993E+04</rscale>
<asrwt>0</asrwt>
<pdfrwt beam="1">  1        1 0.35555919E+00 0.33659993E+04</pdfrwt>
<pdfrwt beam="2">  1       -1 0.18855126E+00 0.33659993E+04</pdfrwt>
<totfact> 0.27291156E-01</totfact>
</mgrwt>
</event>
<event>
12    1  0.5139470E-007  0.4368817E+04  0.7818608E-02  0.7934014E-01
          2   -1    0    0  501    0  0.00000000000E+00  0.00000000000E+00  0.35117115998E+04  0.35117115998E+04  0.00000000000E+00 0. -1.
         -2   -1    0    0    0  501 -0.00000000000E+00 -0.00000000000E+00 -0.13587789159E+04  0.13587789159E+04  0.00000000000E+00 0.  1.
         23    2    1    2    0    0  0.52010154312E+03  0.18918589154E+04  0.22281934220E+03  0.19768709731E+04  0.93459158837E+02 0.  0.
        254    2    1    2    0    0 -0.52010154312E+03 -0.18918589154E+04  0.19301133417E+04  0.28936195426E+04  0.89334247360E+03 0.  0.
        -24    2    4    4    0    0 -0.75316408025E+03 -0.14295007669E+04  0.13100121729E+04  0.20819218677E+04  0.86822783699E+02 0.  0.
         24    2    4    4    0    0  0.23306253713E+03 -0.46235814847E+03  0.62010116876E+03  0.81169767494E+03  0.78958548178E+02 0.  0.
         11    1    3    3    0    0  0.25914581292E+03  0.88044843277E+03  0.14812926090E+03  0.92967105637E+03  0.00000000000E+00 0. -1.
        -11    1    3    3    0    0  0.26095573021E+03  0.10114104826E+04  0.74690081295E+02  0.10471999167E+04  0.00000000000E+00 0.  1.
          4    1    6    6  502    0  0.66902805852E+02 -0.72353333890E+02  0.95576781239E+02  0.13728041181E+03  0.00000000000E+00 0. -1.
          3    1    5    5  503    0 -0.32221197119E+02 -0.10023587957E+03  0.10010625614E+03  0.14528144966E+03  0.00000000000E+00 0. -1.
         -4    1    5    5    0  503 -0.72094288314E+03 -0.13292648873E+04  0.12099059168E+04  0.19366404180E+04  0.00000000000E+00 0.  1.
         -3    1    6    6    0  502  0.16615973128E+03 -0.39000481458E+03  0.52452438752E+03  0.67441726313E+03  0.00000000000E+00 0.  1.
<mgrwt>
<rscale>  0 0.43688166E+04</rscale>
<asrwt>0</asrwt>
<pdfrwt beam="1">  1        2 0.54026332E+00 0.43688166E+04</pdfrwt>
<pdfrwt beam="2">  1       -2 0.20904291E+00 0.43688166E+04</pdfrwt>
<totfact> 0.70815698E-02</totfact>
</mgrwt>
</event>
<event>
12    1  0.4612066E-007  0.2706899E+04  0.7818608E-02  0.8332770E-01
         -2   -1    0    0    0  501 -0.00000000000E+00  0.00000000000E+00  0.17556806633E+04  0.17556806633E+04  0.00000000000E+00 0.  1.
          2   -1    0    0  501    0  0.00000000000E+00 -0.00000000000E+00 -0.10433703529E+04  0.10433703529E+04  0.00000000000E+00 0. -1.
         23    2    1    2    0    0 -0.36123838568E+03  0.95394265287E+03  0.98129132705E+03  0.14183145759E+04  0.90464420905E+02 0.  0.
        254    2    1    2    0    0  0.36123838568E+03 -0.95394265287E+03 -0.26898101663E+03  0.13807364404E+04  0.89083251747E+03 0.  0.
        -24    2    4    4    0    0  0.38396715510E+03 -0.55298917555E+03  0.24722939028E+03  0.72166220951E+03  0.80288036179E+02 0.  0.
         24    2    4    4    0    0 -0.22728769418E+02 -0.40095347732E+03 -0.51621040691E+03  0.65907423085E+03  0.81396373584E+02 0.  0.
         13    1    3    3    0    0 -0.25827173588E+02  0.16140733733E+03  0.15793874594E+03  0.22729720391E+03  0.00000000000E+00 0. -1.
        -13    1    3    3    0    0 -0.33541121209E+03  0.79253531554E+03  0.82335258111E+03  0.11910173720E+04  0.00000000000E+00 0.  1.
          2    1    6    6  502    0 -0.37394528804E+02 -0.38453970519E+03 -0.47437147720E+03  0.61179852405E+03  0.00000000000E+00 0. -1.
          1    1    5    5  503    0  0.38468295759E+03 -0.55058226309E+03  0.25109143314E+03  0.71705558647E+03  0.00000000000E+00 0. -1.
         -2    1    5    5    0  503 -0.71580249995E+00 -0.24069124583E+01 -0.38620428584E+01  0.46066230409E+01  0.00000000000E+00 0.  1.
         -1    1    6    6    0  502  0.14665759386E+02 -0.16413772133E+02 -0.41838929706E+02  0.47275706795E+02  0.00000000000E+00 0.  1.
<mgrwt>
<rscale>  0 0.27068987E+04</rscale>
<asrwt>0</asrwt>
<pdfrwt beam="1">  1        2 0.16051852E+00 0.27068987E+04</pdfrwt>
<pdfrwt beam="2">  1       -2 0.27010472E+00 0.27068987E+04</pdfrwt>
<totfact> 0.10028678E+00</totfact>
</mgrwt>
</event>
<event>
12    1  0.4612066E-007  0.1947530E+04  0.7818608E-02  0.8631553E-01
          1   -1    0    0  501    0  0.00000000000E+00  0.00000000000E+00  0.21762632277E+03  0.21762632277E+03  0.00000000000E+00 0. -1.
         -1   -1    0    0    0  501 -0.00000000000E+00 -0.00000000000E+00 -0.43570936341E+04  0.43570936341E+04  0.00000000000E+00 0.  1.
         23    2    1    2    0    0  0.31441355357E+03  0.49025375906E+03 -0.28577870444E+04  0.29179438889E+04  0.90802625253E+02 0.  0.
        254    2    1    2    0    0 -0.31441355357E+03 -0.49025375906E+03 -0.12816802669E+04  0.16567760679E+04  0.87349756827E+03 0.  0.
        -24    2    4    4    0    0  0.53604525380E+02 -0.59023436021E+03 -0.48470030080E+03  0.76975622064E+03  0.79625451328E+02 0.  0.
         24    2    4    4    0    0 -0.36801807895E+03  0.99980601156E+02 -0.79697996611E+03  0.88701984730E+03  0.78700165685E+02 0.  0.
         13    1    3    3    0    0  0.20380724453E+03  0.38450513925E+03 -0.21946106055E+04  0.22373415709E+04  0.00000000000E+00 0.  1.
        -13    1    3    3    0    0  0.11060630905E+03  0.10574861981E+03 -0.66317643888E+03  0.68060231800E+03  0.00000000000E+00 0. -1.
          2    1    6    6  502    0 -0.16963584123E+03  0.58809231574E+01 -0.33819845972E+03  0.37840335892E+03  0.00000000000E+00 0. -1.
          3    1    5    5  503    0 -0.15373461635E+02 -0.36069819102E+02 -0.38457098468E+02  0.54921066953E+02  0.00000000000E+00 0. -1.
         -4    1    5    5    0  503  0.68977987014E+02 -0.55416454111E+03 -0.44624320233E+03  0.71483515369E+03  0.00000000000E+00 0.  1.
         -1    1    6    6    0  502 -0.19838223772E+03  0.94099677998E+02 -0.45878150639E+03  0.50861648838E+03  0.00000000000E+00 0.  1.
<mgrwt>
<rscale>  0 0.19475300E+04</rscale>
<asrwt>0</asrwt>
<pdfrwt beam="1">  1        1 0.33480973E-01 0.19475300E+04</pdfrwt>
<pdfrwt beam="2">  1       -1 0.67032209E+00 0.19475300E+04</pdfrwt>
<totfact> 0.30646467E-02</totfact>
</mgrwt>
</event>
<event>
12    1  0.4612066E-007  0.1801719E+04  0.7818608E-02  0.8705386E-01
         -2   -1    0    0    0  501 -0.00000000000E+00  0.00000000000E+00  0.11464006233E+04  0.11464006233E+04  0.00000000000E+00 0.  1.
          2   -1    0    0  501    0  0.00000000000E+00 -0.00000000000E+00 -0.70790942258E+03  0.70790942258E+03  0.00000000000E+00 0. -1.
         23    2    1    2    0    0 -0.15066870092E+03 -0.70176252288E+03  0.52882961180E+02  0.72484595256E+03  0.86216885797E+02 0.  0.
        254    2    1    2    0    0  0.15066870092E+03  0.70176252288E+03  0.38560823952E+03  0.11294640933E+04  0.78219161828E+03 0.  0.
        -24    2    4    4    0    0  0.66276441203E+02  0.41354509359E+03  0.61051423476E+03  0.74501634417E+03  0.83124070781E+02 0.  0.
         24    2    4    4    0    0  0.84392259713E+02  0.28821742929E+03 -0.22490599524E+03  0.38444774913E+03  0.83821387914E+02 0.  0.
         13    1    3    3    0    0 -0.72152863481E+02 -0.30306686019E+03  0.65281127868E+02  0.31830360210E+03  0.00000000000E+00 0.  1.
        -13    1    3    3    0    0 -0.78515837435E+02 -0.39869566269E+03 -0.12398166688E+02  0.40654235045E+03  0.00000000000E+00 0. -1.
          2    1    6    6  502    0  0.65802835167E+02  0.28407721046E+03 -0.21841122120E+03  0.36432586535E+03  0.00000000000E+00 0. -1.
          1    1    5    5  503    0  0.44898089208E+02  0.36605725509E+03  0.57056382028E+03  0.67937973581E+03  0.00000000000E+00 0. -1.
         -2    1    5    5    0  503  0.21378351995E+02  0.47487838506E+02  0.39950414480E+02  0.65636608360E+02  0.00000000000E+00 0.  1.
         -1    1    6    6    0  502  0.18589424546E+02  0.41402188251E+01 -0.64947740419E+01  0.20121883777E+02  0.00000000000E+00 0.  1.
<mgrwt>
<rscale>  0 0.18017190E+04</rscale>
<asrwt>0</asrwt>
<pdfrwt beam="1">  1        2 0.10890914E+00 0.18017190E+04</pdfrwt>
<pdfrwt beam="2">  1       -2 0.17636933E+00 0.18017190E+04</pdfrwt>
<totfact> 0.73223846E+00</totfact>
</mgrwt>
</event>
<event>
12    1  0.4612066E-007  0.1906793E+04  0.7818608E-02  0.8651482E-01
          1   -1    0    0  501    0  0.00000000000E+00  0.00000000000E+00  0.21025528745E+04  0.21025528745E+04  0.00000000000E+00 0. -1.
         -1   -1    0    0    0  501 -0.00000000000E+00 -0.00000000000E+00 -0.43231485846E+03  0.43231485846E+03  0.00000000000E+00 0.  1.
         23    2    1    2    0    0  0.14437082207E+02  0.17030202959E+03  0.15987430894E+04  0.16103821684E+04  0.90222235789E+02 0.  0.
        254    2    1    2    0    0 -0.14437082207E+02 -0.17030202959E+03  0.71494926657E+02  0.92448556457E+03  0.90573220321E+03 0.  0.
        -24    2    4    4    0    0 -0.16693140964E+03  0.33520600762E+03 -0.16145317568E+02  0.38329470611E+03  0.80156081390E+02 0.  0.
         24    2    4    4    0    0  0.15249432743E+03 -0.50550803721E+03  0.87640244225E+02  0.54119085846E+03  0.80086436410E+02 0.  0.
         13    1    3    3    0    0  0.22994415147E+02  0.58563327030E+01  0.10823000871E+03  0.11080060715E+03  0.00000000000E+00 0.  1.
        -13    1    3    3    0    0 -0.85573329403E+01  0.16444569689E+03  0.14905130807E+04  0.14995815612E+04  0.00000000000E+00 0. -1.
          4    1    6    6  502    0  0.20117850326E+01 -0.39444503869E+01  0.11131139306E+02  0.11979492064E+02  0.00000000000E+00 0. -1.
          1    1    5    5  503    0 -0.23683787181E+02  0.13228722329E+03 -0.11237475139E+02  0.13485960132E+03  0.00000000000E+00 0. -1.
         -2    1    5    5    0  503 -0.14324762246E+03  0.20291878432E+03 -0.49078424290E+01  0.24843510478E+03  0.00000000000E+00 0.  1.
         -3    1    6    6    0  502  0.15048254240E+03 -0.50156358682E+03  0.76509104919E+02  0.52921136640E+03  0.00000000000E+00 0.  1.
<mgrwt>
<rscale>  0 0.19067930E+04</rscale>
<asrwt>0</asrwt>
<pdfrwt beam="1">  1        1 0.32346967E+00 0.19067930E+04</pdfrwt>
<pdfrwt beam="2">  1       -1 0.66509979E-01 0.19067930E+04</pdfrwt>
<totfact> 0.54372220E+00</totfact>
</mgrwt>
</event>
<event>
12    1  0.4612066E-007  0.2689137E+04  0.7818608E-02  0.8338538E-01
         -2   -1    0    0    0  501 -0.00000000000E+00  0.00000000000E+00  0.20144495410E+04  0.20144495410E+04  0.00000000000E+00 0.  1.
          2   -1    0    0  501    0  0.00000000000E+00 -0.00000000000E+00 -0.89744867411E+03  0.89744867411E+03  0.00000000000E+00 0. -1.
         23    2    1    2    0    0  0.12092233835E+03  0.10743603328E+04  0.10353646441E+04  0.14993230918E+04  0.84364984721E+02 0.  0.
        254    2    1    2    0    0 -0.12092233835E+03 -0.10743603328E+04  0.81636222803E+02  0.14125751233E+04  0.90544556403E+03 0.  0.
        -24    2    4    4    0    0  0.12983009563E+03 -0.82942665168E+03 -0.29273483115E+03  0.89271633755E+03  0.80276732033E+02 0.  0.
         24    2    4    4    0    0 -0.25075243398E+03 -0.24493368117E+03  0.37437105395E+03  0.51985878576E+03  0.85030463812E+02 0.  0.
         13    1    3    3    0    0  0.43193762811E+02  0.47729602080E+03  0.51531163848E+03  0.70372102241E+03  0.00000000000E+00 0.  1.
        -13    1    3    3    0    0  0.77728575542E+02  0.59706431204E+03  0.52005300558E+03  0.79560206937E+03  0.00000000000E+00 0. -1.
          4    1    6    6  502    0 -0.81110544723E+02 -0.65922370096E+02  0.60786690729E+02  0.12091195604E+03  0.00000000000E+00 0. -1.
          1    1    5    5  503    0  0.15631885190E+02 -0.34485584794E+03 -0.10817334084E+03  0.36176150067E+03  0.00000000000E+00 0. -1.
         -2    1    5    5    0  503  0.11419821044E+03 -0.48457080373E+03 -0.18456149031E+03  0.53095483688E+03  0.00000000000E+00 0.  1.
         -3    1    6    6    0  502 -0.16964188926E+03 -0.17901131107E+03  0.31358436323E+03  0.39894682972E+03  0.00000000000E+00 0.  1.
<mgrwt>
<rscale>  0 0.26891375E+04</rscale>
<asrwt>0</asrwt>
<pdfrwt beam="1">  1        2 0.13806903E+00 0.26891375E+04</pdfrwt>
<pdfrwt beam="2">  1       -2 0.30991531E+00 0.26891375E+04</pdfrwt>
<totfact> 0.71421681E-01</totfact>
</mgrwt>
</event>
<event>
12    1  0.4612066E-007  0.2200040E+04  0.7818608E-02  0.8518411E-01
          2   -1    0    0  501    0  0.00000000000E+00  0.00000000000E+00  0.95827047965E+03  0.95827047965E+03  0.00000000000E+00 0. -1.
         -2   -1    0    0    0  501 -0.00000000000E+00 -0.00000000000E+00 -0.12627374486E+04  0.12627374486E+04  0.00000000000E+00 0.  1.
         23    2    1    2    0    0  0.77345609724E+03  0.39632004816E+02  0.36234904001E+03  0.86005002886E+03  0.92650931895E+02 0.  0.
        254    2    1    2    0    0 -0.77345609724E+03 -0.39632004816E+02 -0.66681600900E+03  0.13609578994E+04  0.89875346120E+03 0.  0.
        -24    2    4    4    0    0 -0.68272973986E+03  0.31177406379E+03 -0.63795766732E+03  0.98827438825E+03  0.79833054735E+02 0.  0.
         24    2    4    4    0    0 -0.90726357377E+02 -0.35140606860E+03 -0.28858341683E+02  0.37268351119E+03  0.79641061360E+02 0.  0.
         13    1    3    3    0    0  0.38274826753E+03 -0.16508938360E+02  0.21052213581E+03  0.43713653589E+03  0.00000000000E+00 0. -1.
        -13    1    3    3    0    0  0.39070782971E+03  0.56140943176E+02  0.15182690420E+03  0.42291349297E+03  0.00000000000E+00 0.  1.
          4    1    6    6  502    0 -0.93060175094E+02 -0.33672497782E+03 -0.11099496443E+02  0.34952411318E+03  0.00000000000E+00 0. -1.
          1    1    5    5  503    0 -0.60289735980E+03  0.24596061153E+03 -0.54294633119E+03  0.84780455733E+03  0.00000000000E+00 0. -1.
         -2    1    5    5    0  503 -0.79832380061E+02  0.65813452254E+02 -0.95011336126E+02  0.14046983091E+03  0.00000000000E+00 0.  1.
         -3    1    6    6    0  502  0.23338177173E+01 -0.14681090783E+02 -0.17758845240E+02  0.23159398005E+02  0.00000000000E+00 0.  1.
<mgrwt>
<rscale>  0 0.22000400E+04</rscale>
<asrwt>0</asrwt>
<pdfrwt beam="1">  1        2 0.14742623E+00 0.22000400E+04</pdfrwt>
<pdfrwt beam="2">  1       -2 0.19426730E+00 0.22000400E+04</pdfrwt>
<totfact> 0.35559339E+00</totfact>
</mgrwt>
</event>
<event>
12    1  0.4612066E-007  0.1965031E+04  0.7818608E-02  0.8623147E-01
         -2   -1    0    0    0  501 -0.00000000000E+00  0.00000000000E+00  0.88472511335E+03  0.88472511335E+03  0.00000000000E+00 0.  1.
          2   -1    0    0  501    0  0.00000000000E+00 -0.00000000000E+00 -0.10911149710E+04  0.10911149710E+04  0.00000000000E+00 0. -1.
         23    2    1    2    0    0  0.41483680117E+03  0.65599459687E+03 -0.76762444454E+02  0.78538062658E+03  0.92259270564E+02 0.  0.
        254    2    1    2    0    0 -0.41483680117E+03 -0.65599459687E+03 -0.12962741316E+03  0.11904594577E+04  0.89329276923E+03 0.  0.
        -24    2    4    4    0    0  0.24951792171E+03 -0.36584019877E+03 -0.97241863897E+02  0.46029042780E+03  0.79454726371E+02 0.  0.
         24    2    4    4    0    0 -0.66435472288E+03 -0.29015439809E+03 -0.32385549261E+02  0.73016902993E+03  0.80877783914E+02 0.  0.
         11    1    3    3    0    0  0.38503898093E+03  0.63619927949E+03 -0.85538232139E+02  0.74854614367E+03  0.00000000000E+00 0. -1.
        -11    1    3    3    0    0  0.29797820243E+02  0.19795317380E+02  0.87757876849E+01  0.36834482905E+02  0.00000000000E+00 0.  1.
          4    1    6    6  502    0 -0.60506782037E+03 -0.25706427051E+03 -0.52090035939E+02  0.65947136273E+03  0.00000000000E+00 0. -1.
          3    1    5    5  503    0  0.17133016772E+03 -0.26070403822E+03 -0.31069644384E+02  0.31350589263E+03  0.00000000000E+00 0. -1.
         -4    1    5    5    0  503  0.78187753989E+02 -0.10513616055E+03 -0.66172219513E+02  0.14678453517E+03  0.00000000000E+00 0.  1.
         -3    1    6    6    0  502 -0.59286902507E+02 -0.33090127589E+02  0.19704486677E+02  0.70697667203E+02  0.00000000000E+00 0.  1.
<mgrwt>
<rscale>  0 0.19650311E+04</rscale>
<asrwt>0</asrwt>
<pdfrwt beam="1">  1        2 0.16786384E+00 0.19650311E+04</pdfrwt>
<pdfrwt beam="2">  1       -2 0.13611156E+00 0.19650311E+04</pdfrwt>
<totfact> 0.79417295E+00</totfact>
</mgrwt>
</event>
<event>
12    1  0.4612066E-007  0.1338638E+04  0.7818608E-02  0.8999474E-01
         -2   -1    0    0    0  501 -0.00000000000E+00  0.00000000000E+00  0.66665399288E+03  0.66665399288E+03  0.00000000000E+00 0.  1.
          2   -1    0    0  501    0  0.00000000000E+00 -0.00000000000E+00 -0.67199416185E+03  0.67199416185E+03  0.00000000000E+00 0. -1.
         23    2    1    2    0    0  0.92663369475E+02 -0.13738599883E+02 -0.34566259754E+03  0.37020085324E+03  0.93759219453E+02 0.  0.
        254    2    1    2    0    0 -0.92663369475E+02  0.13738599883E+02  0.34032242857E+03  0.96844730149E+03  0.90182901440E+03 0.  0.
        -24    2    4    4    0    0  0.18100024410E+03  0.18532556165E+03  0.52205550706E+03  0.58813582836E+03  0.79089493521E+02 0.  0.
         24    2    4    4    0    0 -0.27366361357E+03 -0.17158696176E+03 -0.18173307849E+03  0.38031147313E+03  0.85299741708E+02 0.  0.
         13    1    3    3    0    0  0.87503771974E+02 -0.45692393963E+02 -0.28207097734E+03  0.29884568130E+03  0.00000000000E+00 0. -1.
        -13    1    3    3    0    0  0.51595975017E+01  0.31953794081E+02 -0.63591620196E+02  0.71355171934E+02  0.00000000000E+00 0.  1.
          4    1    6    6  502    0 -0.17905093309E+03 -0.13795322658E+03 -0.16170950826E+03  0.27792138174E+03  0.00000000000E+00 0. -1.
          3    1    5    5  503    0  0.69260762262E+02  0.10282856346E+03  0.31783092125E+03  0.34115577257E+03  0.00000000000E+00 0. -1.
         -4    1    5    5    0  503  0.11173948184E+03  0.82496998182E+02  0.20422458581E+03  0.24698005580E+03  0.00000000000E+00 0.  1.
         -3    1    6    6    0  502 -0.94612680483E+02 -0.33633735180E+02 -0.20023570228E+02  0.10239009139E+03  0.00000000000E+00 0.  1.
<mgrwt>
<rscale>  0 0.13386375E+04</rscale>
<asrwt>0</asrwt>
<pdfrwt beam="1">  1        2 0.10338372E+00 0.13386375E+04</pdfrwt>
<pdfrwt beam="2">  1       -2 0.10256215E+00 0.13386375E+04</pdfrwt>
<totfact> 0.32799121E+01</totfact>
</mgrwt>
</event>
<event>
12    1  0.4612066E-007  0.3607174E+04  0.7818608E-02  0.8088850E-01
          1   -1    0    0  501    0  0.00000000000E+00  0.00000000000E+00  0.30752558813E+04  0.30752558813E+04  0.00000000000E+00 0. -1.
         -1   -1    0    0    0  501 -0.00000000000E+00 -0.00000000000E+00 -0.10577741489E+04  0.10577741489E+04  0.00000000000E+00 0.  1.
         23    2    1    2    0    0  0.15667371794E+04 -0.58185724254E+03  0.58131694907E+03  0.17718242895E+04  0.90601751039E+02 0.  0.
        254    2    1    2    0    0 -0.15667371794E+04  0.58185724254E+03  0.14361647833E+04  0.23612057407E+04  0.84823347310E+03 0.  0.
        -24    2    4    4    0    0 -0.16530807102E+04  0.58298585389E+03  0.13357782782E+04  0.22053619132E+04  0.82275264499E+02 0.  0.
         24    2    4    4    0    0  0.86343530787E+02 -0.11286113470E+01  0.10038650507E+03  0.15584382750E+03  0.82178884740E+02 0.  0.
         11    1    3    3    0    0  0.22473006022E+03 -0.11712345842E+03  0.95997491074E+02  0.27099266184E+03  0.00000000000E+00 0. -1.
        -11    1    3    3    0    0  0.13420071192E+04 -0.46473378412E+03  0.48531945800E+03  0.15008316276E+04  0.00000000000E+00 0.  1.
          2    1    6    6  502    0  0.14439439988E+02 -0.19159726009E+02 -0.73278463020E+01  0.25085650466E+02  0.00000000000E+00 0. -1.
          1    1    5    5  503    0 -0.42007474469E+03  0.16342969410E+03  0.38544177724E+03  0.59307454816E+03  0.00000000000E+00 0. -1.
         -2    1    5    5    0  503 -0.12330059655E+04  0.41955615980E+03  0.95033650099E+03  0.16122873650E+04  0.00000000000E+00 0.  1.
         -1    1    6    6    0  502  0.71904090799E+02  0.18031114662E+02  0.10771435137E+03  0.13075817703E+03  0.00000000000E+00 0.  1.
<mgrwt>
<rscale>  0 0.36071741E+04</rscale>
<asrwt>0</asrwt>
<pdfrwt beam="1">  1        1 0.47311629E+00 0.36071741E+04</pdfrwt>
<pdfrwt beam="2">  1       -1 0.16273449E+00 0.36071741E+04</pdfrwt>
<totfact> 0.11850221E-01</totfact>
</mgrwt>
</event>
<event>
12    1  0.4612066E-007  0.2640732E+04  0.7818608E-02  0.8354496E-01
          1   -1    0    0  501    0  0.00000000000E+00  0.00000000000E+00  0.20223365582E+04  0.20223365582E+04  0.00000000000E+00 0. -1.
         -1   -1    0    0    0  501 -0.00000000000E+00 -0.00000000000E+00 -0.86205579453E+03  0.86205579453E+03  0.00000000000E+00 0.  1.
         23    2    1    2    0    0  0.16728089831E+03 -0.44826926456E+03  0.16733523731E+04  0.17430287354E+04  0.95460858321E+02 0.  0.
        254    2    1    2    0    0 -0.16728089831E+03  0.44826926456E+03 -0.51307160941E+03  0.11413636173E+04  0.90030006003E+03 0.  0.
        -24    2    4    4    0    0 -0.45167998767E+03  0.49630479635E+03 -0.19110563409E+03  0.70231652993E+03  0.79961757659E+02 0.  0.
         24    2    4    4    0    0  0.28439908936E+03 -0.48035531784E+02 -0.32196597531E+03  0.43904708740E+03  0.76876533196E+02 0.  0.
         11    1    3    3    0    0  0.85781710238E+02 -0.29552640076E+03  0.12059980678E+04  0.12446387809E+04  0.00000000000E+00 0. -1.
        -11    1    3    3    0    0  0.81499188070E+02 -0.15274286380E+03  0.46735430524E+03  0.49838995447E+03  0.00000000000E+00 0.  1.
          4    1    6    6  502    0  0.78535080794E+02  0.19682459787E+01 -0.45633723177E+02  0.90851910263E+02  0.00000000000E+00 0. -1.
          3    1    5    5  503    0 -0.21219939832E+03  0.24280029637E+03 -0.13282982069E+03  0.34874679902E+03  0.00000000000E+00 0. -1.
         -4    1    5    5    0  503 -0.23948058935E+03  0.25350449998E+03 -0.58275813407E+02  0.35356973090E+03  0.00000000000E+00 0.  1.
         -3    1    6    6    0  502  0.20586400857E+03 -0.50003777762E+02 -0.27633225214E+03  0.34819517714E+03  0.00000000000E+00 0.  1.
<mgrwt>
<rscale>  0 0.26407324E+04</rscale>
<asrwt>0</asrwt>
<pdfrwt beam="1">  1        1 0.31112870E+00 0.26407324E+04</pdfrwt>
<pdfrwt beam="2">  1       -1 0.13262397E+00 0.26407324E+04</pdfrwt>
<totfact> 0.12172695E+00</totfact>
</mgrwt>
</event>
<event>
12    1  0.4612066E-007  0.1679477E+04  0.7818608E-02  0.8773157E-01
          2   -1    0    0  501    0  0.00000000000E+00  0.00000000000E+00  0.91842169044E+03  0.91842169044E+03  0.00000000000E+00 0. -1.
         -2   -1    0    0    0  501 -0.00000000000E+00 -0.00000000000E+00 -0.76779605481E+03  0.76779605481E+03  0.00000000000E+00 0.  1.
         23    2    1    2    0    0 -0.39501874334E+03  0.24827288892E+03  0.42500537668E+03  0.63725461261E+03  0.88230584948E+02 0.  0.
        254    2    1    2    0    0  0.39501874334E+03 -0.24827288892E+03 -0.27437974105E+03  0.10489631326E+04  0.89853223448E+03 0.  0.
        -24    2    4    4    0    0 -0.14587294606E+03 -0.40732242847E+03 -0.15491557415E+03  0.46655106086E+03  0.80502050599E+02 0.  0.
         24    2    4    4    0    0  0.54089168939E+03  0.15904953955E+03 -0.11946416690E+03  0.58241207179E+03  0.84092559159E+02 0.  0.
         13    1    3    3    0    0 -0.37047264127E+03  0.21450828173E+03  0.41038094685E+03  0.59302302013E+03  0.00000000000E+00 0. -1.
        -13    1    3    3    0    0 -0.24546102064E+02  0.33764607190E+02  0.14624429825E+02  0.44231592476E+02  0.00000000000E+00 0.  1.
          4    1    6    6  502    0  0.79710679707E+02  0.10758538264E+02  0.97956792188E+01  0.81027735599E+02  0.00000000000E+00 0. -1.
          1    1    5    5  503    0 -0.48706161884E+02 -0.11124887054E+03 -0.81964450714E+02  0.14651543463E+03  0.00000000000E+00 0. -1.
         -2    1    5    5    0  503 -0.97166784171E+02 -0.29607355792E+03 -0.72951123437E+02  0.32003562623E+03  0.00000000000E+00 0.  1.
         -3    1    6    6    0  502  0.46118100969E+03  0.14829100129E+03 -0.12925984612E+03  0.50138433619E+03  0.00000000000E+00 0.  1.
<mgrwt>
<rscale>  0 0.16794768E+04</rscale>
<asrwt>0</asrwt>
<pdfrwt beam="1">  1        2 0.14129564E+00 0.16794768E+04</pdfrwt>
<pdfrwt beam="2">  1       -2 0.11812247E+00 0.16794768E+04</pdfrwt>
<totfact> 0.14996528E+01</totfact>
</mgrwt>
</event>
<event>
12    1  0.4612066E-007  0.1926067E+04  0.7818608E-02  0.8641989E-01
          1   -1    0    0  501    0  0.00000000000E+00  0.00000000000E+00  0.15957525413E+04  0.15957525413E+04  0.00000000000E+00 0. -1.
         -1   -1    0    0    0  501 -0.00000000000E+00 -0.00000000000E+00 -0.58118863245E+03  0.58118863245E+03  0.00000000000E+00 0.  1.
         23    2    1    2    0    0  0.71434289163E+03 -0.20099198030E+03  0.51838711699E+03  0.90975496805E+03  0.90803941938E+02 0.  0.
        254    2    1    2    0    0 -0.71434289163E+03  0.20099198030E+03  0.49617679182E+03  0.12671862057E+04  0.89938085820E+03 0.  0.
        -24    2    4    4    0    0 -0.47141433277E+03 -0.26916974652E+03  0.16863407720E+02  0.54859890954E+03  0.77411649348E+02 0.  0.
         24    2    4    4    0    0 -0.24292855886E+03  0.47016172682E+03  0.47931338410E+03  0.71858729611E+03  0.80994122494E+02 0.  0.
         13    1    3    3    0    0  0.36231997805E+03 -0.64624925254E+02  0.22214169164E+03  0.42988263355E+03  0.00000000000E+00 0.  1.
        -13    1    3    3    0    0  0.35202291357E+03 -0.13636705504E+03  0.29624542535E+03  0.47987233450E+03  0.00000000000E+00 0. -1.
          2    1    6    6  502    0 -0.47018534193E+02  0.15921026140E+03  0.17738212819E+03  0.24294663878E+03  0.00000000000E+00 0. -1.
          3    1    5    5  503    0 -0.17822060113E+02 -0.24872752661E+02 -0.11337610752E+02  0.32631596179E+02  0.00000000000E+00 0. -1.
         -4    1    5    5    0  503 -0.45359227265E+03 -0.24429699386E+03  0.28201018472E+02  0.51596731337E+03  0.00000000000E+00 0.  1.
         -1    1    6    6    0  502 -0.19591002467E+03  0.31095146542E+03  0.30193125591E+03  0.47564065733E+03  0.00000000000E+00 0.  1.
<mgrwt>
<rscale>  0 0.19260667E+04</rscale>
<asrwt>0</asrwt>
<pdfrwt beam="1">  1        1 0.24550039E+00 0.19260667E+04</pdfrwt>
<pdfrwt beam="2">  1       -1 0.89413636E-01 0.19260667E+04</pdfrwt>
<totfact> 0.64265680E+00</totfact>
</mgrwt>
</event>
<event>
12    1  0.4612066E-007  0.1462126E+04  0.7818608E-02  0.8910037E-01
          2   -1    0    0  501    0  0.00000000000E+00  0.00000000000E+00  0.29362194428E+04  0.29362194428E+04  0.00000000000E+00 0. -1.
         -2   -1    0    0    0  501 -0.00000000000E+00 -0.00000000000E+00 -0.18202087358E+03  0.18202087358E+03  0.00000000000E+00 0.  1.
         23    2    1    2    0    0  0.19722472450E+02 -0.11011385756E+03 -0.63398067022E+02  0.15839892611E+03  0.92503336938E+02 0.  0.
        254    2    1    2    0    0 -0.19722472450E+02  0.11011385756E+03  0.28175966362E+04  0.29598413902E+04  0.89960892251E+03 0.  0.
        -24    2    4    4    0    0  0.15763423543E+03  0.11132902428E+03  0.27436328708E+04  0.27514112522E+04  0.74160937855E+02 0.  0.
         24    2    4    4    0    0 -0.17735670788E+03 -0.12151667161E+01  0.73963765357E+02  0.20843013807E+03  0.80719300105E+02 0.  0.
         11    1    3    3    0    0 -0.10434703892E+02 -0.23748818756E+02  0.21426396347E+02  0.33644908947E+02  0.00000000000E+00 0. -1.
        -11    1    3    3    0    0  0.30157176343E+02 -0.86365038803E+02 -0.84824463369E+02  0.12475401716E+03  0.00000000000E+00 0.  1.
          4    1    6    6  502    0 -0.11920133940E+02  0.24534360578E+02  0.13339039838E+02  0.30363702441E+02  0.00000000000E+00 0. -1.
          3    1    5    5  503    0  0.95036949020E+01  0.27519122630E+01  0.55428653118E+03  0.55437482978E+03  0.00000000000E+00 0. -1.
         -4    1    5    5    0  503  0.14813054053E+03  0.10857711201E+03  0.21893463397E+04  0.21970364224E+04  0.00000000000E+00 0.  1.
         -3    1    6    6    0  502 -0.16543657394E+03 -0.25749527294E+02  0.60624725519E+02  0.17806643563E+03  0.00000000000E+00 0.  1.
<mgrwt>
<rscale>  0 0.14621262E+04</rscale>
<asrwt>0</asrwt>
<pdfrwt beam="1">  1        2 0.45172603E+00 0.14621262E+04</pdfrwt>
<pdfrwt beam="2">  1       -2 0.28003213E-01 0.14621262E+04</pdfrwt>
<totfact> 0.21703796E+01</totfact>
</mgrwt>
</event>
<event>
12    1  0.4612066E-007  0.1455626E+04  0.7818608E-02  0.8914509E-01
          2   -1    0    0  501    0  0.00000000000E+00  0.00000000000E+00  0.15718811153E+04  0.15718811153E+04  0.00000000000E+00 0. -1.
         -2   -1    0    0    0  501 -0.00000000000E+00 -0.00000000000E+00 -0.33699228861E+03  0.33699228861E+03  0.00000000000E+00 0.  1.
         23    2    1    2    0    0  0.51884419516E+02 -0.18490831867E+03  0.91618147859E+03  0.94052744722E+03  0.91215667215E+02 0.  0.
        254    2    1    2    0    0 -0.51884419516E+02  0.18490831867E+03  0.31870734804E+03  0.96834595665E+03  0.89400024539E+03 0.  0.
        -24    2    4    4    0    0  0.39843801471E+03 -0.18154973074E+02  0.20210310140E+03  0.45452886072E+03  0.81660069910E+02 0.  0.
         24    2    4    4    0    0 -0.45032243423E+03  0.20306329174E+03  0.11660424665E+03  0.51381709593E+03  0.79915345943E+02 0.  0.
         11    1    3    3    0    0  0.22952175683E+02 -0.15860674791E+03  0.83716197205E+03  0.85236322674E+03  0.00000000000E+00 0. -1.
        -11    1    3    3    0    0  0.28932243833E+02 -0.26301570761E+02  0.79019506543E+02  0.88164220475E+02  0.00000000000E+00 0.  1.
          2    1    6    6  502    0 -0.25980562823E+03  0.14327341063E+03  0.10147770191E+03  0.31356651389E+03  0.00000000000E+00 0. -1.
          3    1    5    5  503    0  0.30652338609E+03 -0.21519814278E+02  0.11571327268E+03  0.32834318951E+03  0.00000000000E+00 0. -1.
         -4    1    5    5    0  503  0.91914628618E+02  0.33648412036E+01  0.86389828721E+02  0.12618567120E+03  0.00000000000E+00 0.  1.
         -1    1    6    6    0  502 -0.19051680600E+03  0.59789881117E+02  0.15126544741E+02  0.20025058204E+03  0.00000000000E+00 0.  1.
<mgrwt>
<rscale>  0 0.14556261E+04</rscale>
<asrwt>0</asrwt>
<pdfrwt beam="1">  1        2 0.24182786E+00 0.14556261E+04</pdfrwt>
<pdfrwt beam="2">  1       -2 0.51844968E-01 0.14556261E+04</pdfrwt>
<totfact> 0.39376693E+01</totfact>
</mgrwt>
</event>
<event>
12    1  0.4612066E-007  0.1200380E+04  0.7818608E-02  0.9112524E-01
         -1   -1    0    0    0  501 -0.00000000000E+00  0.00000000000E+00  0.14524356498E+04  0.14524356498E+04  0.00000000000E+00 0.  1.
          1   -1    0    0  501    0  0.00000000000E+00 -0.00000000000E+00 -0.24801655498E+03  0.24801655498E+03  0.00000000000E+00 0. -1.
         23    2    1    2    0    0 -0.88348442576E+02 -0.20412022996E+03  0.11545514947E+03  0.26670746966E+03  0.91282349072E+02 0.  0.
        254    2    1    2    0    0  0.88348442576E+02  0.20412022996E+03  0.10889639454E+04  0.14337447352E+04  0.90571020510E+03 0.  0.
        -24    2    4    4    0    0  0.42597033674E+03  0.14048811323E+03  0.24150790750E+03  0.51579676070E+03  0.80824446980E+02 0.  0.
         24    2    4    4    0    0 -0.33762189416E+03  0.63632116729E+02  0.84745603790E+03  0.91794797445E+03  0.80057216642E+02 0.  0.
         11    1    3    3    0    0  0.10976668244E+02 -0.25786850851E+02 -0.67067279337E+01  0.28817167143E+02  0.00000000000E+00 0. -1.
        -11    1    3    3    0    0 -0.99325110820E+02 -0.17833337911E+03  0.12216187740E+03  0.23789030252E+03  0.00000000000E+00 0.  1.
          2    1    6    6  502    0 -0.29399039733E+03  0.26691303304E+02  0.72546320417E+03  0.78322387604E+03  0.00000000000E+00 0. -1.
          3    1    5    5  503    0  0.82653549161E+02 -0.45223302454E+01  0.36766027079E+02  0.90574838707E+02  0.00000000000E+00 0. -1.
         -4    1    5    5    0  503  0.34331678757E+03  0.14501044348E+03  0.20474188042E+03  0.42522192200E+03  0.00000000000E+00 0.  1.
         -1    1    6    6    0  502 -0.43631496828E+02  0.36940813425E+02  0.12199283373E+03  0.13472409841E+03  0.00000000000E+00 0.  1.
<mgrwt>
<rscale>  0 0.12003801E+04</rscale>
<asrwt>0</asrwt>
<pdfrwt beam="1">  1        1 0.38156394E-01 0.12003801E+04</pdfrwt>
<pdfrwt beam="2">  1       -1 0.22345163E+00 0.12003801E+04</pdfrwt>
<totfact> 0.11617636E+01</totfact>
</mgrwt>
</event>
<event>
12    1  0.4612066E-007  0.1296200E+04  0.7818608E-02  0.9032584E-01
          2   -1    0    0  501    0  0.00000000000E+00  0.00000000000E+00  0.21888295156E+03  0.21888295156E+03  0.00000000000E+00 0. -1.
         -2   -1    0    0    0  501 -0.00000000000E+00 -0.00000000000E+00 -0.19189863675E+04  0.19189863675E+04  0.00000000000E+00 0.  1.
         23    2    1    2    0    0  0.17434958635E+03  0.23925548534E+03 -0.65651578409E+03  0.72593327212E+03  0.91242398533E+02 0.  0.
        254    2    1    2    0    0 -0.17434958635E+03 -0.23925548534E+03 -0.10435876318E+04  0.14119360469E+04  0.90379604432E+03 0.  0.
        -24    2    4    4    0    0 -0.28543299991E+03 -0.54226558086E+03 -0.65657060894E+03  0.90161620119E+03  0.79390503903E+02 0.  0.
         24    2    4    4    0    0  0.11108341355E+03  0.30301009552E+03 -0.38701702290E+03  0.51031984573E+03  0.80557595409E+02 0.  0.
         13    1    3    3    0    0  0.16542508453E+03  0.17500543029E+03 -0.46378256558E+03  0.52257691047E+03  0.00000000000E+00 0. -1.
        -13    1    3    3    0    0  0.89245018203E+01  0.64250055054E+02 -0.19273321851E+03  0.20335636165E+03  0.00000000000E+00 0.  1.
          4    1    6    6  502    0  0.95162046737E+02  0.18880598283E+03 -0.20266659999E+03  0.29287755982E+03  0.00000000000E+00 0. -1.
          3    1    5    5  503    0 -0.13494255838E+03 -0.17538675300E+03 -0.24237378573E+03  0.32819972455E+03  0.00000000000E+00 0. -1.
         -4    1    5    5    0  503 -0.15049044153E+03 -0.36687882785E+03 -0.41419682322E+03  0.57341647664E+03  0.00000000000E+00 0.  1.
         -3    1    6    6    0  502  0.15921366818E+02  0.11420411268E+03 -0.18435042291E+03  0.21744228591E+03  0.00000000000E+00 0.  1.
<mgrwt>
<rscale>  0 0.12961997E+04</rscale>
<asrwt>0</asrwt>
<pdfrwt beam="1">  1        2 0.33674301E-01 0.12961997E+04</pdfrwt>
<pdfrwt beam="2">  1       -2 0.29522866E+00 0.12961997E+04</pdfrwt>
<totfact> 0.52391557E+00</totfact>
</mgrwt>
</event>
<event>
12    1  0.4612066E-007  0.1247212E+04  0.7818608E-02  0.9072507E-01
         -2   -1    0    0    0  501 -0.00000000000E+00  0.00000000000E+00  0.11593067376E+03  0.11593067376E+03  0.00000000000E+00 0.  1.
          2   -1    0    0  501    0  0.00000000000E+00 -0.00000000000E+00 -0.33544557837E+04  0.33544557837E+04  0.00000000000E+00 0. -1.
         23    2    1    2    0    0  0.13059801688E+03  0.21955529784E+03 -0.11333078231E+04  0.11651680569E+04  0.89272661930E+02 0.  0.
        254    2    1    2    0    0 -0.13059801688E+03 -0.21955529784E+03 -0.21052172869E+04  0.23052184006E+04  0.90378740779E+03 0.  0.
        -24    2    4    4    0    0  0.19581806505E+03 -0.13942281294E+03 -0.10294653820E+03  0.27342442933E+03  0.79871731285E+02 0.  0.
         24    2    4    4    0    0 -0.32641608193E+03 -0.80132484901E+02 -0.20022707487E+04  0.20317939712E+04  0.78293785407E+02 0.  0.
         11    1    3    3    0    0  0.83899009934E+02  0.11342793041E+03 -0.43521518136E+03  0.45751195979E+03  0.00000000000E+00 0.  1.
        -11    1    3    3    0    0  0.46699006943E+02  0.10612736743E+03 -0.69809264174E+03  0.70765609714E+03  0.00000000000E+00 0. -1.
          2    1    6    6  502    0 -0.12424000721E+03  0.71844716129E-01 -0.59700799154E+03  0.60979843105E+03  0.00000000000E+00 0. -1.
          1    1    5    5  503    0  0.19075836466E+03 -0.12404894790E+03 -0.11331900854E+03  0.25420089075E+03  0.00000000000E+00 0. -1.
         -2    1    5    5    0  503  0.50597003880E+01 -0.15373865041E+02  0.10372470343E+02  0.19223538574E+02  0.00000000000E+00 0.  1.
         -1    1    6    6    0  502 -0.20217607471E+03 -0.80204329617E+02 -0.14052627571E+04  0.14219955402E+04  0.00000000000E+00 0.  1.
<mgrwt>
<rscale>  0 0.12472118E+04</rscale>
<asrwt>0</asrwt>
<pdfrwt beam="1">  1        2 0.51607009E+00 0.12472118E+04</pdfrwt>
<pdfrwt beam="2">  1       -2 0.17835489E-01 0.12472118E+04</pdfrwt>
<totfact> 0.26820937E+01</totfact>
</mgrwt>
</event>
<event>
12    1  0.4612066E-007  0.2078479E+04  0.7818608E-02  0.8570783E-01
         -1   -1    0    0    0  501 -0.00000000000E+00  0.00000000000E+00  0.85277645316E+03  0.85277645316E+03  0.00000000000E+00 0.  1.
          1   -1    0    0  501    0  0.00000000000E+00 -0.00000000000E+00 -0.12664728666E+04  0.12664728666E+04  0.00000000000E+00 0. -1.
         23    2    1    2    0    0 -0.19383929882E+03 -0.20061632556E+03 -0.97891443204E+03  0.10215603595E+04  0.86553560972E+02 0.  0.
        254    2    1    2    0    0  0.19383929882E+03  0.20061632556E+03  0.56521801862E+03  0.10976889603E+04  0.89868184642E+03 0.  0.
        -24    2    4    4    0    0  0.50505108732E+03  0.30353828903E+03  0.43103987888E+03  0.73468790429E+03  0.82212199923E+02 0.  0.
         24    2    4    4    0    0 -0.31121178850E+03 -0.10292196346E+03  0.13417813974E+03  0.36300105599E+03  0.79500223908E+02 0.  0.
         13    1    3    3    0    0 -0.10640419799E+03 -0.16725506073E+03 -0.68502526805E+03  0.71313093227E+03  0.00000000000E+00 0. -1.
        -13    1    3    3    0    0 -0.87435100829E+02 -0.33361264831E+02 -0.29388916399E+03  0.30842942720E+03  0.00000000000E+00 0.  1.
          2    1    6    6  502    0 -0.20725805869E+03 -0.31076747399E+02  0.67839685273E+02  0.22028138827E+03  0.00000000000E+00 0. -1.
          3    1    5    5  503    0  0.47126142363E+03  0.25620707281E+03  0.38068151644E+03  0.65775969055E+03  0.00000000000E+00 0. -1.
         -4    1    5    5    0  503  0.33789663692E+02  0.47331216219E+02  0.50358362437E+02  0.76928213735E+02  0.00000000000E+00 0.  1.
         -1    1    6    6    0  502 -0.10395372981E+03 -0.71845216066E+02  0.66338454465E+02  0.14271966772E+03  0.00000000000E+00 0.  1.
<mgrwt>
<rscale>  0 0.20784785E+04</rscale>
<asrwt>0</asrwt>
<pdfrwt beam="1">  1        1 0.19484198E+00 0.20784785E+04</pdfrwt>
<pdfrwt beam="2">  1       -1 0.13119638E+00 0.20784785E+04</pdfrwt>
<totfact> 0.43656176E+00</totfact>
</mgrwt>
</event>
<event>
12    1  0.4612066E-007  0.3353084E+04  0.7818608E-02  0.8149518E-01
         -1   -1    0    0    0  501 -0.00000000000E+00  0.00000000000E+00  0.99453397060E+03  0.99453397060E+03  0.00000000000E+00 0.  1.
          1   -1    0    0  501    0  0.00000000000E+00 -0.00000000000E+00 -0.28262409797E+04  0.28262409797E+04  0.00000000000E+00 0. -1.
         23    2    1    2    0    0  0.61300445606E+03  0.13385396926E+04 -0.14158025887E+04  0.20445478695E+04  0.90642421068E+02 0.  0.
        254    2    1    2    0    0 -0.61300445606E+03 -0.13385396926E+04 -0.41590442038E+03  0.17762270808E+04  0.90252046168E+03 0.  0.
        -24    2    4    4    0    0 -0.22646422914E+03  0.80844461216E+02 -0.50847259955E+02  0.25866615587E+03  0.80627925433E+02 0.  0.
         24    2    4    4    0    0 -0.38654022692E+03 -0.14193841538E+04 -0.36505716042E+03  0.15175609249E+04  0.75231025837E+02 0.  0.
         11    1    3    3    0    0  0.23635103905E+03  0.41491125688E+03 -0.46500845153E+03  0.66651783528E+03  0.00000000000E+00 0.  1.
        -11    1    3    3    0    0  0.37665341701E+03  0.92362843575E+03 -0.95079413716E+03  0.13780300342E+04  0.00000000000E+00 0. -1.
          2    1    6    6  502    0 -0.30986339810E+03 -0.10176268815E+04 -0.25158155544E+03  0.10931024995E+04  0.00000000000E+00 0. -1.
          1    1    5    5  503    0 -0.17749325206E+03  0.76598981203E+02 -0.70440876189E+02  0.20575027457E+03  0.00000000000E+00 0. -1.
         -2    1    5    5    0  503 -0.48970977085E+02  0.42454800131E+01  0.19593616233E+02  0.52915881305E+02  0.00000000000E+00 0.  1.
         -1    1    6    6    0  502 -0.76676828822E+02 -0.40175727233E+03 -0.11347560498E+03  0.42445842538E+03  0.00000000000E+00 0.  1.
<mgrwt>
<rscale>  0 0.33530838E+04</rscale>
<asrwt>0</asrwt>
<pdfrwt beam="1">  1        1 0.43480631E+00 0.33530838E+04</pdfrwt>
<pdfrwt beam="2">  1       -1 0.15300523E+00 0.33530838E+04</pdfrwt>
<totfact> 0.21783211E-01</totfact>
</mgrwt>
</event>
<event>
12    1  0.4612066E-007  0.1905229E+04  0.7818608E-02  0.8652258E-01
          2   -1    0    0  501    0  0.00000000000E+00  0.00000000000E+00  0.13266056927E+04  0.13266056927E+04  0.00000000000E+00 0.  1.
         -2   -1    0    0    0  501 -0.00000000000E+00 -0.00000000000E+00 -0.68405749874E+03  0.68405749874E+03  0.00000000000E+00 0. -1.
         23    2    1    2    0    0  0.22800512217E+03  0.65905232751E+03 -0.35160329415E+02  0.70415441644E+03  0.90889423456E+02 0.  0.
        254    2    1    2    0    0 -0.22800512217E+03 -0.65905232751E+03  0.67770852335E+03  0.13065087750E+04  0.87254801034E+03 0.  0.
        -24    2    4    4    0    0  0.12883744224E+03 -0.70207280961E+03  0.29704285710E+03  0.77724180075E+03  0.79781209380E+02 0.  0.
         24    2    4    4    0    0 -0.35684256441E+03  0.43020482093E+02  0.38066566625E+03  0.52926697423E+03  0.77651805480E+02 0.  0.
         13    1    3    3    0    0  0.18335410948E+03  0.39647141310E+03 -0.27873618400E+02  0.43770452302E+03  0.00000000000E+00 0. -1.
        -13    1    3    3    0    0  0.44651012687E+02  0.26258091441E+03 -0.72867110142E+01  0.26644989342E+03  0.00000000000E+00 0.  1.
          4    1    6    6  502    0 -0.30959495713E+03  0.46521974075E+02  0.28893677602E+03  0.42602557680E+03  0.00000000000E+00 0. -1.
          3    1    5    5  503    0  0.93165684193E+02 -0.34399742431E+03  0.17681113270E+03  0.39783947679E+03  0.00000000000E+00 0. -1.
         -4    1    5    5    0  503  0.35671758045E+02 -0.35807538530E+03  0.12023172439E+03  0.37940232396E+03  0.00000000000E+00 0.  1.
         -3    1    6    6    0  502 -0.47247607275E+02 -0.35014919821E+01  0.91728890231E+02  0.10324139743E+03  0.00000000000E+00 0.  1.
<mgrwt>
<rscale>  0 0.19052292E+04</rscale>
<asrwt>0</asrwt>
<pdfrwt beam="1">  1        2 0.20409318E+00 0.19052292E+04</pdfrwt>
<pdfrwt beam="2">  1       -2 0.10523962E+00 0.19052292E+04</pdfrwt>
<totfact> 0.10919512E+01</totfact>
</mgrwt>
</event>
<event>
12    1  0.4612066E-007  0.1395411E+04  0.7818608E-02  0.8957147E-01
          1   -1    0    0  501    0  0.00000000000E+00  0.00000000000E+00  0.27946040778E+04  0.27946040778E+04  0.00000000000E+00 0. -1.
         -1   -1    0    0    0  501 -0.00000000000E+00 -0.00000000000E+00 -0.17419036701E+03  0.17419036701E+03  0.00000000000E+00 0.  1.
         23    2    1    2    0    0 -0.17358435918E+03  0.34573339880E+03  0.98818680690E+03  0.10651511073E+04  0.91491000975E+02 0.  0.
        254    2    1    2    0    0  0.17358435918E+03 -0.34573339880E+03  0.16322269038E+04  0.19036433375E+04  0.90001676532E+03 0.  0.
        -24    2    4    4    0    0 -0.17424579708E+03 -0.38074821186E+03  0.14287759191E+04  0.14910252847E+04  0.80155935728E+02 0.  0.
         24    2    4    4    0    0  0.34783015626E+03  0.35014813052E+02  0.20345098478E+03  0.41261805279E+03  0.81544463577E+02 0.  0.
         13    1    3    3    0    0 -0.65088085077E+02  0.16888697601E+03  0.34910578341E+03  0.39323544791E+03  0.00000000000E+00 0.  1.
        -13    1    3    3    0    0 -0.10849627410E+03  0.17684642279E+03  0.63908102349E+03  0.67191565939E+03  0.00000000000E+00 0. -1.
          4    1    6    6  502    0  0.29809868718E+02 -0.20452188150E+02  0.20379448147E+02  0.41499905782E+02  0.00000000000E+00 0. -1.
          3    1    5    5  503    0 -0.46802702606E+02 -0.68599596245E+02  0.19360939974E+03  0.21066797868E+03  0.00000000000E+00 0. -1.
         -2    1    5    5    0  503 -0.12744309448E+03 -0.31214861561E+03  0.12351665193E+04  0.12803573060E+04  0.00000000000E+00 0.  1.
         -3    1    6    6    0  502  0.31802028754E+03  0.55467001203E+02  0.18307153663E+03  0.37111814700E+03  0.00000000000E+00 0.  1.
<mgrwt>
<rscale>  0 0.13954112E+04</rscale>
<asrwt>0</asrwt>
<pdfrwt beam="1">  1        1 0.42993905E+00 0.13954112E+04</pdfrwt>
<pdfrwt beam="2">  1       -1 0.26798520E-01 0.13954112E+04</pdfrwt>
<totfact> 0.10251164E+01</totfact>
</mgrwt>
</event>
<event>
12    1  0.4612066E-007  0.1905749E+04  0.7818608E-02  0.8652000E-01
          2   -1    0    0  501    0  0.00000000000E+00  0.00000000000E+00  0.29981600462E+04  0.29981600462E+04  0.00000000000E+00 0. -1.
         -2   -1    0    0    0  501 -0.00000000000E+00 -0.00000000000E+00 -0.30284242059E+03  0.30284242059E+03  0.00000000000E+00 0.  1.
         23    2    1    2    0    0  0.95281360096E+02 -0.19719811946E+03 -0.17114735908E+03  0.29209679658E+03  0.89796905033E+02 0.  0.
        254    2    1    2    0    0 -0.95281360096E+02  0.19719811946E+03  0.28664649846E+04  0.30089056702E+04  0.88821516978E+03 0.  0.
        -24    2    4    4    0    0  0.35188133303E+03  0.25124954676E+03  0.11094135986E+04  0.11933259204E+04  0.79255361857E+02 0.  0.
         24    2    4    4    0    0 -0.44716269313E+03 -0.54051427296E+02  0.17570513860E+04  0.18155797497E+04  0.78893747735E+02 0.  0.
         13    1    3    3    0    0  0.93553687001E+02 -0.20549449429E+03 -0.17162137391E+03  0.28360919505E+03  0.00000000000E+00 0.  1.
        -13    1    3    3    0    0  0.17276730948E+01  0.82963748316E+01  0.47401483029E+00  0.84876015298E+01  0.00000000000E+00 0. -1.
          2    1    6    6  502    0 -0.79724794602E+02 -0.22124484626E+02  0.22415159160E+03  0.23893403213E+03  0.00000000000E+00 0. -1.
          3    1    5    5  503    0  0.15512617863E+03  0.75841870040E+02  0.51237081026E+03  0.54068472121E+03  0.00000000000E+00 0. -1.
         -4    1    5    5    0  503  0.19675515440E+03  0.17540767671E+03  0.59704278834E+03  0.65264119923E+03  0.00000000000E+00 0.  1.
         -1    1    6    6    0  502 -0.36743789853E+03 -0.31926942670E+02  0.15328997945E+04  0.15766457176E+04  0.00000000000E+00 0.  1.
<mgrwt>
<rscale>  0 0.19057492E+04</rscale>
<asrwt>0</asrwt>
<pdfrwt beam="1">  1        2 0.46125537E+00 0.19057492E+04</pdfrwt>
<pdfrwt beam="2">  1       -2 0.46591144E-01 0.19057492E+04</pdfrwt>
<totfact> 0.71590352E+00</totfact>
</mgrwt>
</event>
<event>
12    1  0.4612066E-007  0.1490371E+04  0.7818608E-02  0.8890881E-01
          2   -1    0    0  501    0  0.00000000000E+00  0.00000000000E+00  0.25475683992E+04  0.25475683992E+04  0.00000000000E+00 0. -1.
         -2   -1    0    0    0  501 -0.00000000000E+00 -0.00000000000E+00 -0.21797326468E+03  0.21797326468E+03  0.00000000000E+00 0.  1.
         23    2    1    2    0    0 -0.17273160524E+03  0.27594975707E+03  0.13514346741E+04  0.13932387974E+04  0.93563840887E+02 0.  0.
        254    2    1    2    0    0  0.17273160524E+03 -0.27594975707E+03  0.97816046045E+03  0.13723028665E+04  0.90577745346E+03 0.  0.
        -24    2    4    4    0    0  0.40164584299E+03 -0.13413380815E+03  0.90726508236E+02  0.44207303089E+03  0.88803173704E+02 0.  0.
         24    2    4    4    0    0 -0.22891423775E+03 -0.14181594891E+03  0.88743395222E+03  0.93022983564E+03  0.72629442750E+02 0.  0.
         13    1    3    3    0    0 -0.43663285096E+02  0.15744849353E+03  0.67087583875E+03  0.69048598943E+03  0.00000000000E+00 0.  1.
        -13    1    3    3    0    0 -0.12906832015E+03  0.11850126354E+03  0.68055883535E+03  0.70275280796E+03  0.00000000000E+00 0. -1.
          4    1    6    6  502    0 -0.10617581033E+03 -0.59968703786E+02  0.52387042060E+03  0.53787523248E+03  0.00000000000E+00 0. -1.
          3    1    5    5  503    0  0.32167480175E+03 -0.10839657014E+03  0.34970509472E+02  0.34124394651E+03  0.00000000000E+00 0. -1.
         -4    1    5    5    0  503  0.79971041240E+02 -0.25737238017E+02  0.55755998764E+02  0.10082908438E+03  0.00000000000E+00 0.  1.
         -3    1    6    6    0  502 -0.12273842741E+03 -0.81847245126E+02  0.36356353161E+03  0.39235460316E+03  0.00000000000E+00 0.  1.
<mgrwt>
<rscale>  0 0.14903715E+04</rscale>
<asrwt>0</asrwt>
<pdfrwt beam="1">  1        2 0.39193358E+00 0.14903715E+04</pdfrwt>
<pdfrwt beam="2">  1       -2 0.33534350E-01 0.14903715E+04</pdfrwt>
<totfact> 0.26336210E+01</totfact>
</mgrwt>
</event>
<event>
12    1  0.4612066E-007  0.2594950E+04  0.7818608E-02  0.8369919E-01
          2   -1    0    0  501    0  0.00000000000E+00  0.00000000000E+00  0.10568120354E+04  0.10568120354E+04  0.00000000000E+00 0. -1.
         -2   -1    0    0    0  501 -0.00000000000E+00 -0.00000000000E+00 -0.15929427096E+04  0.15929427096E+04  0.00000000000E+00 0.  1.
         23    2    1    2    0    0  0.37730491489E+03 -0.10672570775E+04 -0.33491391493E+03  0.11840746227E+04  0.92025611969E+02 0.  0.
        254    2    1    2    0    0 -0.37730491489E+03  0.10672570775E+04 -0.20121675927E+03  0.14656801223E+04  0.90902880501E+03 0.  0.
        -24    2    4    4    0    0 -0.39745944698E+03  0.67854368842E+03 -0.52867570121E+03  0.95099914789E+03  0.80658745024E+02 0.  0.
         24    2    4    4    0    0  0.20154532094E+02  0.38871338913E+03  0.32745894194E+03  0.51468097441E+03  0.78503775207E+02 0.  0.
         11    1    3    3    0    0  0.13774356370E+03 -0.31742722666E+03 -0.13894231029E+03  0.37287839727E+03  0.00000000000E+00 0.  1.
        -11    1    3    3    0    0  0.23956135119E+03 -0.74982985089E+03 -0.19597160463E+03  0.81119622539E+03  0.00000000000E+00 0. -1.
          4    1    6    6  502    0  0.17106679019E+02  0.24268339772E+02  0.43471840950E+02  0.52644009516E+02  0.00000000000E+00 0. -1.
          3    1    5    5  503    0 -0.19385238167E+03  0.40962425749E+03 -0.30684294915E+03  0.54728728620E+03  0.00000000000E+00 0. -1.
         -4    1    5    5    0  503 -0.20360706531E+03  0.26891943094E+03 -0.22183275206E+03  0.40371186169E+03  0.00000000000E+00 0.  1.
         -3    1    6    6    0  502  0.30478530746E+01  0.36444504935E+03  0.28398710099E+03  0.46203696490E+03  0.00000000000E+00 0.  1.
<mgrwt>
<rscale>  0 0.25949497E+04</rscale>
<asrwt>0</asrwt>
<pdfrwt beam="1">  1        2 0.16258647E+00 0.25949497E+04</pdfrwt>
<pdfrwt beam="2">  1       -2 0.24506811E+00 0.25949497E+04</pdfrwt>
<totfact> 0.14135193E+00</totfact>
</mgrwt>
</event>
<event>
12    1  0.4612066E-007  0.4517332E+04  0.7818608E-02  0.7907609E-01
          2   -1    0    0  501    0  0.00000000000E+00  0.00000000000E+00  0.33827219491E+04  0.33827219491E+04  0.00000000000E+00 0. -1.
         -2   -1    0    0    0  501 -0.00000000000E+00 -0.00000000000E+00 -0.15081263288E+04  0.15081263288E+04  0.00000000000E+00 0.  1.
         23    2    1    2    0    0  0.12544619167E+04 -0.86747243101E+03 -0.76719709196E+03  0.17085973485E+04  0.67308264955E+02 0.  0.
        254    2    1    2    0    0 -0.12544619167E+04  0.86747243101E+03  0.26417927122E+04  0.31822509293E+04  0.90634933889E+03 0.  0.
        -24    2    4    4    0    0 -0.31536285753E+02  0.44091032348E+03  0.45879906953E+03  0.64267720979E+03  0.84504195827E+02 0.  0.
         24    2    4    4    0    0 -0.12229256309E+04  0.42656210753E+03  0.21829936427E+04  0.25395737196E+04  0.80443164761E+02 0.  0.
         13    1    3    3    0    0  0.40579852917E+03 -0.31802828878E+03 -0.26822165888E+03  0.58116890577E+03  0.00000000000E+00 0.  1.
        -13    1    3    3    0    0  0.84866338749E+03 -0.54944414223E+03 -0.49897543308E+03  0.11274284427E+04  0.00000000000E+00 0. -1.
          2    1    6    6  502    0 -0.17700730155E+03  0.69647698379E+02  0.37718827114E+03  0.42243742563E+03  0.00000000000E+00 0. -1.
          3    1    5    5  503    0 -0.55444123249E+02  0.20050162702E+03  0.19845262421E+03  0.28750373441E+03  0.00000000000E+00 0. -1.
         -4    1    5    5    0  503  0.23907837496E+02  0.24040869646E+03  0.26034644532E+03  0.35517347538E+03  0.00000000000E+00 0.  1.
         -1    1    6    6    0  502 -0.10459183294E+04  0.35691440915E+03  0.18058053715E+04  0.21171362939E+04  0.00000000000E+00 0.  1.
<mgrwt>
<rscale>  0 0.45173320E+04</rscale>
<asrwt>0</asrwt>
<pdfrwt beam="1">  1        2 0.52041876E+00 0.45173320E+04</pdfrwt>
<pdfrwt beam="2">  1       -2 0.23201944E+00 0.45173320E+04</pdfrwt>
<totfact> 0.61464901E-02</totfact>
</mgrwt>
</event>
<event>
12    1  0.4612066E-007  0.2687677E+04  0.7818608E-02  0.8339014E-01
          2   -1    0    0  501    0  0.00000000000E+00  0.00000000000E+00  0.14797281477E+04  0.14797281477E+04  0.00000000000E+00 0. -1.
         -2   -1    0    0    0  501 -0.00000000000E+00 -0.00000000000E+00 -0.12204281958E+04  0.12204281958E+04  0.00000000000E+00 0.  1.
         23    2    1    2    0    0 -0.36248696769E+03 -0.96811078803E+03  0.72300700200E+03  0.12647360746E+04  0.90459459518E+02 0.  0.
        254    2    1    2    0    0  0.36248696769E+03  0.96811078803E+03 -0.46370705008E+03  0.14354202688E+04  0.88134659481E+03 0.  0.
        -24    2    4    4    0    0 -0.53029523599E+01 -0.45285557278E+02 -0.33445450364E+03  0.34664680166E+03  0.78900488572E+02 0.  0.
         24    2    4    4    0    0  0.36778992005E+03  0.10133963453E+04 -0.12925254644E+03  0.10887734672E+04  0.80497602720E+02 0.  0.
         13    1    3    3    0    0 -0.19985518318E+03 -0.57555046698E+03  0.47673068284E+03  0.77361009446E+03  0.00000000000E+00 0. -1.
        -13    1    3    3    0    0 -0.16263178451E+03 -0.39256032105E+03  0.24627631917E+03  0.49112598015E+03  0.00000000000E+00 0.  1.
          4    1    6    6  502    0  0.26343116839E+03  0.77618125831E+03 -0.68034395787E+02  0.82248526141E+03  0.00000000000E+00 0. -1.
          1    1    5    5  503    0  0.28134332416E+02 -0.49490981249E+02 -0.22711342311E+03  0.23413971223E+03  0.00000000000E+00 0. -1.
         -2    1    5    5    0  503 -0.33437284776E+02  0.42054239710E+01 -0.10734108053E+03  0.11250708943E+03  0.00000000000E+00 0.  1.
         -3    1    6    6    0  502  0.10435875166E+03  0.23721508700E+03 -0.61218150657E+02  0.26628820575E+03  0.00000000000E+00 0.  1.
<mgrwt>
<rscale>  0 0.26876770E+04</rscale>
<asrwt>0</asrwt>
<pdfrwt beam="1">  1        2 0.22765048E+00 0.26876770E+04</pdfrwt>
<pdfrwt beam="2">  1       -2 0.18775818E+00 0.26876770E+04</pdfrwt>
<totfact> 0.18371338E+00</totfact>
</mgrwt>
</event>
<event>
12    1  0.4612066E-007  0.1649850E+04  0.7818608E-02  0.8790495E-01
         -3   -1    0    0    0  501 -0.00000000000E+00  0.00000000000E+00  0.19791616079E+03  0.19791616079E+03  0.00000000000E+00 0.  1.
          3   -1    0    0  501    0  0.00000000000E+00 -0.00000000000E+00 -0.34383324901E+04  0.34383324901E+04  0.00000000000E+00 0. -1.
         23    2    1    2    0    0  0.48769976848E+03 -0.24589277493E+03 -0.76559745580E+03  0.94491522828E+03  0.91711522598E+02 0.  0.
        254    2    1    2    0    0 -0.48769976848E+03  0.24589277493E+03 -0.24748188735E+04  0.26913334226E+04  0.90566705473E+03 0.  0.
        -24    2    4    4    0    0 -0.22780881788E+03 -0.32442906181E+03 -0.12356521374E+04  0.13002301364E+04  0.81308851277E+02 0.  0.
         24    2    4    4    0    0 -0.25989095061E+03  0.57032183674E+03 -0.12391667361E+04  0.13911032862E+04  0.82606593853E+02 0.  0.
         13    1    3    3    0    0  0.36206329163E+02 -0.35827535916E+02 -0.39460679105E+02  0.64433343826E+02  0.00000000000E+00 0.  1.
        -13    1    3    3    0    0  0.45149343932E+03 -0.21006523901E+03 -0.72613677669E+03  0.88048188446E+03  0.00000000000E+00 0. -1.
          2    1    6    6  502    0 -0.11875286317E+03  0.16957456883E+03 -0.38705684055E+03  0.43894279208E+03  0.00000000000E+00 0. -1.
          3    1    5    5  503    0 -0.17425901731E+02 -0.69226793514E+02 -0.28028088396E+03  0.28922894894E+03  0.00000000000E+00 0. -1.
         -4    1    5    5    0  503 -0.21038291615E+03 -0.25520226830E+03 -0.95537125344E+03  0.10110011875E+04  0.00000000000E+00 0.  1.
         -1    1    6    6    0  502 -0.14113808744E+03  0.40074726791E+03 -0.85210989556E+03  0.95216049413E+03  0.00000000000E+00 0.  1.
<mgrwt>
<rscale>  0 0.16498504E+04</rscale>
<asrwt>0</asrwt>
<pdfrwt beam="1">  1        3 0.52897416E+00 0.16498504E+04</pdfrwt>
<pdfrwt beam="2">  1       -3 0.30448644E-01 0.16498504E+04</pdfrwt>
<totfact> 0.66093854E-02</totfact>
</mgrwt>
</event>
<event>
12    1  0.4612066E-007  0.1766657E+04  0.7818608E-02  0.8724234E-01
         -1   -1    0    0    0  501 -0.00000000000E+00  0.00000000000E+00  0.49735400729E+03  0.49735400729E+03  0.00000000000E+00 0.  1.
          1   -1    0    0  501    0  0.00000000000E+00 -0.00000000000E+00 -0.15688415799E+04  0.15688415799E+04  0.00000000000E+00 0. -1.
         23    2    1    2    0    0 -0.50535131562E+03 -0.11535936919E+03 -0.83496855393E+03  0.98685141792E+03  0.89529317803E+02 0.  0.
        254    2    1    2    0    0  0.50535131562E+03  0.11535936919E+03 -0.23651901869E+03  0.10793441693E+04  0.91670870689E+03 0.  0.
        -24    2    4    4    0    0 -0.98405324961E+02 -0.67460785106E+02  0.24345907101E+03  0.28269153318E+03  0.80047599384E+02 0.  0.
         24    2    4    4    0    0  0.60375664058E+03  0.18282015429E+03 -0.47997808970E+03  0.79665263610E+03  0.79568625457E+02 0.  0.
         11    1    3    3    0    0 -0.22915060126E+03 -0.67987763226E+01 -0.36598480697E+03  0.43185773161E+03  0.00000000000E+00 0. -1.
        -11    1    3    3    0    0 -0.27620071436E+03 -0.10856059286E+03 -0.46898374696E+03  0.55499368631E+03  0.00000000000E+00 0.  1.
          4    1    6    6  502    0  0.51150476685E+03  0.12395666261E+03 -0.40224596478E+03  0.66242297432E+03  0.00000000000E+00 0. -1.
          1    1    5    5  503    0 -0.92994881631E+02 -0.31575514291E+02  0.21568671466E+03  0.23699329103E+03  0.00000000000E+00 0. -1.
         -2    1    5    5    0  503 -0.54104433298E+01 -0.35885270815E+02  0.27772356351E+02  0.45698242152E+02  0.00000000000E+00 0.  1.
         -3    1    6    6    0  502  0.92251873722E+02  0.58863491677E+02 -0.77732124917E+02  0.13422966178E+03  0.00000000000E+00 0.  1.
<mgrwt>
<rscale>  0 0.17666575E+04</rscale>
<asrwt>0</asrwt>
<pdfrwt beam="1">  1        1 0.24136024E+00 0.17666575E+04</pdfrwt>
<pdfrwt beam="2">  1       -1 0.76516001E-01 0.17666575E+04</pdfrwt>
<totfact> 0.95097729E+00</totfact>
</mgrwt>
</event>
<event>
12    1  0.4612066E-007  0.2726668E+04  0.7818608E-02  0.8326404E-01
         -2   -1    0    0    0  501 -0.00000000000E+00  0.00000000000E+00  0.51873499960E+03  0.51873499960E+03  0.00000000000E+00 0.  1.
          2   -1    0    0  501    0  0.00000000000E+00 -0.00000000000E+00 -0.35831004020E+04  0.35831004020E+04  0.00000000000E+00 0. -1.
         23    2    1    2    0    0  0.51706336310E+02  0.13531129852E+03  0.44449762891E+03  0.47657779417E+03  0.92550305591E+02 0.  0.
        254    2    1    2    0    0 -0.51706336310E+02 -0.13531129852E+03 -0.35088630313E+04  0.36252576074E+04  0.89966118900E+03 0.  0.
        -24    2    4    4    0    0  0.22797547053E+03  0.70604224103E+02 -0.29620705805E+04  0.29727062875E+04  0.78503352309E+02 0.  0.
         24    2    4    4    0    0 -0.27968180684E+03 -0.20591552263E+03 -0.54679245079E+03  0.65255131989E+03  0.78855090628E+02 0.  0.
         11    1    3    3    0    0  0.47530321008E+01 -0.11918524716E+02  0.13103349434E+02  0.18339583200E+02  0.00000000000E+00 0. -1.
        -11    1    3    3    0    0  0.46953304210E+02  0.14722982324E+03  0.43139427947E+03  0.45823821097E+03  0.00000000000E+00 0.  1.
          2    1    6    6  502    0 -0.26050975849E+03 -0.16471306940E+03 -0.44770594029E+03  0.54354055825E+03  0.00000000000E+00 0. -1.
          3    1    5    5  503    0  0.21258267194E+03  0.39069243766E+02 -0.25426324043E+04  0.25518027631E+04  0.00000000000E+00 0. -1.
         -4    1    5    5    0  503  0.15392798595E+02  0.31534980337E+02 -0.41943817624E+03  0.42090352448E+03  0.00000000000E+00 0.  1.
         -1    1    6    6    0  502 -0.19172048357E+02 -0.41202453227E+02 -0.99086510502E+02  0.10901076164E+03  0.00000000000E+00 0.  1.
<mgrwt>
<rscale>  0 0.27266680E+04</rscale>
<asrwt>0</asrwt>
<pdfrwt beam="1">  1        2 0.55124621E+00 0.27266680E+04</pdfrwt>
<pdfrwt beam="2">  1       -2 0.79805386E-01 0.27266680E+04</pdfrwt>
<totfact> 0.86400016E-01</totfact>
</mgrwt>
</event>
<event>
12    1  0.4612066E-007  0.2610587E+04  0.7818608E-02  0.8364614E-01
          1   -1    0    0  501    0  0.00000000000E+00  0.00000000000E+00  0.97239402065E+03  0.97239402065E+03  0.00000000000E+00 0. -1.
         -1   -1    0    0    0  501 -0.00000000000E+00 -0.00000000000E+00 -0.17521613752E+04  0.17521613752E+04  0.00000000000E+00 0.  1.
         23    2    1    2    0    0  0.82712153503E+03 -0.60267528986E+03  0.19465454631E+03  0.10455468446E+04  0.89052081084E+02 0.  0.
        254    2    1    2    0    0 -0.82712153503E+03  0.60267528986E+03 -0.97442190086E+03  0.16790085513E+04  0.90676575562E+03 0.  0.
        -24    2    4    4    0    0 -0.30534484208E+03  0.23544009750E+03  0.11990652203E+03  0.40996444520E+03  0.70892596305E+02 0.  0.
         24    2    4    4    0    0 -0.52177669296E+03  0.36723519236E+03 -0.10943284229E+04  0.12690441060E+04  0.76194764370E+02 0.  0.
         11    1    3    3    0    0  0.42330849202E+03 -0.35772304202E+03  0.12501151650E+03  0.56814059305E+03  0.00000000000E+00 0. -1.
        -11    1    3    3    0    0  0.40381304301E+03 -0.24495224784E+03  0.69643029812E+02  0.47740625156E+03  0.00000000000E+00 0.  1.
          2    1    6    6  502    0 -0.28752288053E+03  0.15804695413E+03 -0.58225302957E+03  0.66833138261E+03  0.00000000000E+00 0. -1.
          3    1    5    5  503    0 -0.19381461031E+03  0.18184154702E+03  0.59850276418E+02  0.27241972575E+03  0.00000000000E+00 0. -1.
         -4    1    5    5    0  503 -0.11153023177E+03  0.53598550485E+02  0.60056245613E+02  0.13754471945E+03  0.00000000000E+00 0.  1.
         -1    1    6    6    0  502 -0.23425381243E+03  0.20918823823E+03 -0.51207539332E+03  0.60071272344E+03  0.00000000000E+00 0.  1.
<mgrwt>
<rscale>  0 0.26105871E+04</rscale>
<asrwt>0</asrwt>
<pdfrwt beam="1">  1        1 0.14959908E+00 0.26105871E+04</pdfrwt>
<pdfrwt beam="2">  1       -1 0.26956329E+00 0.26105871E+04</pdfrwt>
<totfact> 0.72795210E-01</totfact>
</mgrwt>
</event>
<event>
12    1  0.4612066E-007  0.2200485E+04  0.7818608E-02  0.8518226E-01
         -1   -1    0    0    0  501 -0.00000000000E+00  0.00000000000E+00  0.87056142799E+03  0.87056142799E+03  0.00000000000E+00 0.  1.
          1   -1    0    0  501    0  0.00000000000E+00 -0.00000000000E+00 -0.13905207437E+04  0.13905207437E+04  0.00000000000E+00 0. -1.
         23    2    1    2    0    0 -0.38356094880E+03  0.66830255485E+03 -0.69470782168E+03  0.10423394128E+04  0.10052456254E+03 0.  0.
        254    2    1    2    0    0  0.38356094880E+03 -0.66830255485E+03  0.17474850597E+03  0.12187427589E+04  0.92792756493E+03 0.  0.
        -24    2    4    4    0    0  0.40058671004E+03 -0.37935384504E+03 -0.31820147687E+03  0.64185093494E+03  0.79632849882E+02 0.  0.
         24    2    4    4    0    0 -0.17025761244E+02 -0.28894870981E+03  0.49294998285E+03  0.57689182396E+03  0.77609648344E+02 0.  0.
         11    1    3    3    0    0 -0.23847819248E+03  0.31824254047E+03 -0.37373936605E+03  0.54573920199E+03  0.00000000000E+00 0. -1.
        -11    1    3    3    0    0 -0.14508275632E+03  0.35006001439E+03 -0.32096845563E+03  0.49660021080E+03  0.00000000000E+00 0.  1.
          2    1    6    6  502    0 -0.45931395480E+02 -0.22261064703E+03  0.37611963431E+03  0.43946691864E+03  0.00000000000E+00 0. -1.
          3    1    5    5  503    0  0.31366830187E+03 -0.29563830934E+03 -0.20870996161E+03  0.47890464773E+03  0.00000000000E+00 0. -1.
         -4    1    5    5    0  503  0.86918408175E+02 -0.83715535709E+02 -0.10949151527E+03  0.16294628721E+03  0.00000000000E+00 0.  1.
         -1    1    6    6    0  502  0.28905634236E+02 -0.66338062780E+02  0.11683034853E+03  0.13742490532E+03  0.00000000000E+00 0.  1.
<mgrwt>
<rscale>  0 0.22004852E+04</rscale>
<asrwt>0</asrwt>
<pdfrwt beam="1">  1        1 0.21392626E+00 0.22004852E+04</pdfrwt>
<pdfrwt beam="2">  1       -1 0.13393253E+00 0.22004852E+04</pdfrwt>
<totfact> 0.33439513E+00</totfact>
</mgrwt>
</event>
<event>
12    1  0.4612066E-007  0.2243954E+04  0.7818608E-02  0.8500353E-01
          2   -1    0    0  501    0  0.00000000000E+00  0.00000000000E+00  0.19139056171E+04  0.19139056171E+04  0.00000000000E+00 0.  1.
         -2   -1    0    0    0  501 -0.00000000000E+00 -0.00000000000E+00 -0.65772932816E+03  0.65772932816E+03  0.00000000000E+00 0. -1.
         23    2    1    2    0    0 -0.14682797107E+03 -0.39521584799E+03  0.14910305174E+04  0.15521176003E+04  0.90238693995E+02 0.  0.
        254    2    1    2    0    0  0.14682797107E+03  0.39521584799E+03 -0.23485422847E+03  0.10195173449E+04  0.89805628349E+03 0.  0.
        -24    2    4    4    0    0  0.26316793885E+03 -0.12621258822E+03  0.16758877588E+03  0.34590453243E+03  0.79855909552E+02 0.  0.
         24    2    4    4    0    0 -0.11633996779E+03  0.52142843621E+03 -0.40244300435E+03  0.67361281246E+03  0.79820092468E+02 0.  0.
         11    1    3    3    0    0 -0.10337299970E+03 -0.35774216080E+03  0.13310548793E+04  0.13821622634E+04  0.00000000000E+00 0.  1.
        -11    1    3    3    0    0 -0.43454971369E+02 -0.37473687192E+02  0.15997563812E+03  0.16995533696E+03  0.00000000000E+00 0. -1.
          4    1    6    6  502    0 -0.83812052163E+02  0.44526476662E+03 -0.30725922530E+03  0.54744260339E+03  0.00000000000E+00 0. -1.
          1    1    5    5  503    0  0.42247744367E+02 -0.39887881833E+02  0.49508179931E+01  0.58313168496E+02  0.00000000000E+00 0. -1.
         -2    1    5    5    0  503  0.22092019449E+03 -0.86324706386E+02  0.16263795789E+03  0.28759136394E+03  0.00000000000E+00 0.  1.
         -3    1    6    6    0  502 -0.32527915625E+02  0.76163669597E+02 -0.95183779053E+02  0.12617020907E+03  0.00000000000E+00 0.  1.
<mgrwt>
<rscale>  0 0.22439535E+04</rscale>
<asrwt>0</asrwt>
<pdfrwt beam="1">  1        2 0.29444702E+00 0.22439535E+04</pdfrwt>
<pdfrwt beam="2">  1       -2 0.10118913E+00 0.22439535E+04</pdfrwt>
<totfact> 0.54560036E+00</totfact>
</mgrwt>
</event>
<event>
12    1  0.4612066E-007  0.1342973E+04  0.7818608E-02  0.8996165E-01
          2   -1    0    0  501    0  0.00000000000E+00  0.00000000000E+00  0.22945315597E+04  0.22945315597E+04  0.00000000000E+00 0. -1.
         -2   -1    0    0    0  501 -0.00000000000E+00 -0.00000000000E+00 -0.19650807214E+03  0.19650807214E+03  0.00000000000E+00 0.  1.
         23    2    1    2    0    0  0.14299382553E+02 -0.27689437243E+03  0.17948448572E+03  0.34251805156E+03  0.90713666060E+02 0.  0.
        254    2    1    2    0    0 -0.14299382553E+02  0.27689437243E+03  0.19185390019E+04  0.21485215803E+04  0.92654094002E+03 0.  0.
        -24    2    4    4    0    0 -0.26689966965E+03 -0.20658098946E+03  0.11606900787E+04  0.12112924768E+04  0.78210401511E+02 0.  0.
         24    2    4    4    0    0  0.25260028709E+03  0.48347536188E+03  0.75784892323E+03  0.93722910348E+03  0.80672618525E+02 0.  0.
         13    1    3    3    0    0 -0.21399743236E+02 -0.12374729738E+02  0.17602928708E+02  0.30347092871E+02  0.00000000000E+00 0.  1.
        -13    1    3    3    0    0  0.35699125790E+02 -0.26451964269E+03  0.16188155701E+03  0.31217095869E+03  0.00000000000E+00 0. -1.
          2    1    6    6  502    0  0.90441052839E+02  0.15999057703E+03  0.32189855498E+03  0.37066865051E+03  0.00000000000E+00 0. -1.
          1    1    5    5  503    0  0.35948146730E+01  0.20720657695E+01  0.75618768267E+01  0.86254350747E+01  0.00000000000E+00 0. -1.
         -2    1    5    5    0  503 -0.27049448432E+03 -0.20865305523E+03  0.11531282018E+04  0.12026670418E+04  0.00000000000E+00 0.  1.
         -1    1    6    6    0  502  0.16215923425E+03  0.32348478485E+03  0.43595036826E+03  0.56656045297E+03  0.00000000000E+00 0.  1.
<mgrwt>
<rscale>  0 0.13429728E+04</rscale>
<asrwt>0</asrwt>
<pdfrwt beam="1">  1        2 0.35300484E+00 0.13429728E+04</pdfrwt>
<pdfrwt beam="2">  1       -2 0.30232013E-01 0.13429728E+04</pdfrwt>
<totfact> 0.45217455E+01</totfact>
</mgrwt>
</event>
<event>
12    1  0.6982087E-007  0.3129472E+04  0.7818608E-02  0.8207696E-01
         -2   -1    0    0    0  501 -0.00000000000E+00  0.00000000000E+00  0.12805433697E+04  0.12805433697E+04  0.00000000000E+00 0.  1.
          2   -1    0    0  501    0  0.00000000000E+00 -0.00000000000E+00 -0.19119997867E+04  0.19119997867E+04  0.00000000000E+00 0. -1.
         23    2    1    2    0    0  0.84412823835E+03  0.10389190333E+04  0.23244255406E+03  0.13618619242E+04  0.93451159396E+02 0.  0.
        254    2    1    2    0    0 -0.84412823835E+03 -0.10389190333E+04 -0.86389897096E+03  0.18306812322E+04  0.90175778421E+03 0.  0.
        -24    2    4    4    0    0 -0.64590150908E+03 -0.12239632553E+03 -0.46086930905E+03  0.80701920561E+03  0.81913724481E+02 0.  0.
         24    2    4    4    0    0 -0.19822672927E+03 -0.91652270774E+03 -0.40302966191E+03  0.10236620266E+04  0.78379374116E+02 0.  0.
         13    1    3    3    0    0  0.54423384981E+03  0.60120917958E+03  0.12559626570E+03  0.82062012091E+03  0.00000000000E+00 0.  1.
        -13    1    3    3    0    0  0.29989438854E+03  0.43770985369E+03  0.10684628836E+03  0.54124180330E+03  0.00000000000E+00 0. -1.
          2    1    6    6  502    0 -0.17786850659E+03 -0.83362997455E+03 -0.34065607622E+03  0.91794482534E+03  0.00000000000E+00 0. -1.
          3    1    5    5  503    0 -0.64100612822E+03 -0.11212523749E+03 -0.45620333355E+03  0.79472159077E+03  0.00000000000E+00 0. -1.
         -4    1    5    5    0  503 -0.48953808623E+01 -0.10271088039E+02 -0.46659755038E+01  0.12297614838E+02  0.00000000000E+00 0.  1.
         -1    1    6    6    0  502 -0.20358222682E+02 -0.82892733190E+02 -0.62373585690E+02  0.10571720124E+03  0.00000000000E+00 0.  1.
<mgrwt>
<rscale>  0 0.31294719E+04</rscale>
<asrwt>0</asrwt>
<pdfrwt beam="1">  1        2 0.29415381E+00 0.31294719E+04</pdfrwt>
<pdfrwt beam="2">  1       -2 0.19700667E+00 0.31294719E+04</pdfrwt>
<totfact> 0.88160650E-01</totfact>
</mgrwt>
</event>
<event>
12    1  0.4612066E-007  0.3247577E+04  0.7818608E-02  0.8176364E-01
          2   -1    0    0  501    0  0.00000000000E+00  0.00000000000E+00  0.10400942195E+04  0.10400942195E+04  0.00000000000E+00 0. -1.
         -2   -1    0    0    0  501 -0.00000000000E+00 -0.00000000000E+00 -0.25350478736E+04  0.25350478736E+04  0.00000000000E+00 0.  1.
         23    2    1    2    0    0 -0.12061084229E+04  0.30129855981E+03  0.22846705998E+03  0.12672824773E+04  0.91265161689E+02 0.  0.
        254    2    1    2    0    0  0.12061084229E+04 -0.30129855981E+03 -0.17234207140E+04  0.23078596158E+04  0.90031033473E+03 0.  0.
        -24    2    4    4    0    0  0.40995963045E+03 -0.29207425936E+03 -0.13137680418E+04  0.14091229961E+04  0.79163621146E+02 0.  0.
         24    2    4    4    0    0  0.79614879248E+03 -0.92243004457E+01 -0.40965267224E+03  0.89873661973E+03  0.77293028742E+02 0.  0.
         13    1    3    3    0    0 -0.77920472223E+03  0.21489113809E+03  0.10880677954E+03  0.81558391086E+03  0.00000000000E+00 0.  1.
        -13    1    3    3    0    0 -0.42690370070E+03  0.86407421715E+02  0.11966028044E+03  0.45169856643E+03  0.00000000000E+00 0. -1.
          2    1    6    6  502    0  0.72371463543E+03 -0.13340817060E+02 -0.34627073349E+03  0.80239907267E+03  0.00000000000E+00 0. -1.
          1    1    5    5  503    0  0.38276884229E+03 -0.29323704708E+03 -0.12354836315E+04  0.13262427215E+04  0.00000000000E+00 0. -1.
         -2    1    5    5    0  503  0.27190788167E+02  0.11627877210E+01 -0.78284410240E+02  0.82880274632E+02  0.00000000000E+00 0.  1.
         -1    1    6    6    0  502  0.72434157047E+02  0.41165166145E+01 -0.63381938744E+02  0.96337547068E+02  0.00000000000E+00 0.  1.
<mgrwt>
<rscale>  0 0.32475767E+04</rscale>
<asrwt>0</asrwt>
<pdfrwt beam="1">  1        2 0.16001449E+00 0.32475767E+04</pdfrwt>
<pdfrwt beam="2">  1       -2 0.39000737E+00 0.32475767E+04</pdfrwt>
<totfact> 0.17164528E-01</totfact>
</mgrwt>
</event>
<event>
12    1  0.4612066E-007  0.1778695E+04  0.7818608E-02  0.8717712E-01
          1   -1    0    0  501    0  0.00000000000E+00  0.00000000000E+00  0.13137092988E+04  0.13137092988E+04  0.00000000000E+00 0. -1.
         -1   -1    0    0    0  501 -0.00000000000E+00 -0.00000000000E+00 -0.60206526959E+03  0.60206526959E+03  0.00000000000E+00 0.  1.
         23    2    1    2    0    0 -0.35188388458E+02  0.18774919784E+03 -0.41411447310E+03  0.46483333118E+03  0.89951347773E+02 0.  0.
        254    2    1    2    0    0  0.35188388458E+02 -0.18774919784E+03  0.11257585023E+04  0.14509412372E+04  0.89521521675E+03 0.  0.
        -24    2    4    4    0    0  0.12557523126E+03  0.34090364540E+03  0.42234749878E+03  0.56290414612E+03  0.80617825808E+02 0.  0.
         24    2    4    4    0    0 -0.90386842806E+02 -0.52865284324E+03  0.70341100348E+03  0.88803709105E+03  0.78608048183E+02 0.  0.
         11    1    3    3    0    0 -0.38963616824E+02  0.17839014382E+03 -0.41623176506E+03  0.45452182466E+03  0.00000000000E+00 0.  1.
        -11    1    3    3    0    0  0.37752283666E+01  0.93590540271E+01  0.21172919534E+01  0.10311506520E+02  0.00000000000E+00 0. -1.
          4    1    6    6  502    0  0.12400196267E+02 -0.12131313559E+03  0.15755728138E+03  0.19923588695E+03  0.00000000000E+00 0. -1.
          1    1    5    5  503    0  0.74081451848E+01  0.11109049403E+03  0.15746004134E+03  0.19284616433E+03  0.00000000000E+00 0. -1.
         -2    1    5    5    0  503  0.11816708608E+03  0.22981315136E+03  0.26488745744E+03  0.37005798179E+03  0.00000000000E+00 0.  1.
         -1    1    6    6    0  502 -0.10278703907E+03 -0.40733970765E+03  0.54585372211E+03  0.68880120410E+03  0.00000000000E+00 0.  1.
<mgrwt>
<rscale>  0 0.17786947E+04</rscale>
<asrwt>0</asrwt>
<pdfrwt beam="1">  1        1 0.20210912E+00 0.17786947E+04</pdfrwt>
<pdfrwt beam="2">  1       -1 0.92625427E-01 0.17786947E+04</pdfrwt>
<totfact> 0.94744699E+00</totfact>
</mgrwt>
</event>
<event>
12    1  0.4612066E-007  0.1858020E+04  0.7818608E-02  0.8676040E-01
          2   -1    0    0  501    0  0.00000000000E+00  0.00000000000E+00  0.13586447518E+04  0.13586447518E+04  0.00000000000E+00 0. -1.
         -2   -1    0    0    0  501 -0.00000000000E+00 -0.00000000000E+00 -0.63523531257E+03  0.63523531257E+03  0.00000000000E+00 0.  1.
         23    2    1    2    0    0 -0.71376833731E+03  0.11561914138E+03  0.18195583066E+03  0.75110644777E+03  0.90663919935E+02 0.  0.
        254    2    1    2    0    0  0.71376833731E+03 -0.11561914138E+03  0.54145360857E+03  0.12427736166E+04  0.85351111690E+03 0.  0.
        -24    2    4    4    0    0  0.51719342014E+03 -0.12036330622E+03 -0.11850065490E+03  0.54980405762E+03  0.79156410024E+02 0.  0.
         24    2    4    4    0    0  0.19657491717E+03  0.47441648412E+01  0.65995426346E+03  0.69296955897E+03  0.77478865739E+02 0.  0.
         13    1    3    3    0    0 -0.64370411785E+03  0.10450499874E+03  0.19115841246E+03  0.67957179515E+03  0.00000000000E+00 0. -1.
        -13    1    3    3    0    0 -0.70064219459E+02  0.11114142639E+02 -0.92025818055E+01  0.71534652629E+02  0.00000000000E+00 0.  1.
          4    1    6    6  502    0  0.16250371488E+03 -0.22783676371E+02  0.46345103830E+03  0.49164358855E+03  0.00000000000E+00 0. -1.
          3    1    5    5  503    0  0.33496160784E+03 -0.84378058433E+02 -0.11484617890E+03  0.36401728019E+03  0.00000000000E+00 0. -1.
         -4    1    5    5    0  503  0.18223181230E+03 -0.35985247790E+02 -0.36544759921E+01  0.18578677743E+03  0.00000000000E+00 0.  1.
         -3    1    6    6    0  502  0.34071202291E+02  0.27527841212E+02  0.19650322516E+03  0.20132597042E+03  0.00000000000E+00 0.  1.
<mgrwt>
<rscale>  0 0.18580195E+04</rscale>
<asrwt>0</asrwt>
<pdfrwt beam="1">  1        2 0.20902227E+00 0.18580195E+04</pdfrwt>
<pdfrwt beam="2">  1       -2 0.97728510E-01 0.18580195E+04</pdfrwt>
<totfact> 0.12527860E+01</totfact>
</mgrwt>
</event>
<event>
12    1  0.4612066E-007  0.3376366E+04  0.7818608E-02  0.8143731E-01
          2   -1    0    0  501    0  0.00000000000E+00  0.00000000000E+00  0.15347547858E+04  0.15347547858E+04  0.00000000000E+00 0. -1.
         -2   -1    0    0    0  501 -0.00000000000E+00 -0.00000000000E+00 -0.18569488601E+04  0.18569488601E+04  0.00000000000E+00 0.  1.
         23    2    1    2    0    0  0.10016027059E+04 -0.39531139593E+03  0.98343977838E+03  0.14612173561E+04  0.92321631981E+02 0.  0.
        254    2    1    2    0    0 -0.10016027059E+04  0.39531139593E+03 -0.13056338527E+04  0.19304862898E+04  0.92877256498E+03 0.  0.
        -24    2    4    4    0    0 -0.72844081261E+03  0.69448868286E+03 -0.93353339280E+03  0.13751467460E+04  0.81261488697E+02 0.  0.
         24    2    4    4    0    0 -0.27316189332E+03 -0.29917728693E+03 -0.37210045988E+03  0.55533954375E+03  0.76280978166E+02 0.  0.
         13    1    3    3    0    0  0.65123140069E+03 -0.28997675162E+03  0.60718024302E+03  0.93640626933E+03  0.00000000000E+00 0.  1.
        -13    1    3    3    0    0  0.35037130524E+03 -0.10533464431E+03  0.37625953536E+03  0.52481108675E+03  0.00000000000E+00 0. -1.
          2    1    6    6  502    0 -0.25892301208E+03 -0.30145006982E+03 -0.36344763019E+03  0.53852339845E+03  0.00000000000E+00 0. -1.
          1    1    5    5  503    0 -0.49042485887E+03  0.49112207725E+03 -0.59675915049E+03  0.91533541429E+03  0.00000000000E+00 0. -1.
         -2    1    5    5    0  503 -0.23801595374E+03  0.20336660561E+03 -0.33677424231E+03  0.45981133174E+03  0.00000000000E+00 0.  1.
         -1    1    6    6    0  502 -0.14238881244E+02  0.22727828979E+01 -0.86528296838E+01  0.16816145299E+02  0.00000000000E+00 0.  1.
<mgrwt>
<rscale>  0 0.33763656E+04</rscale>
<asrwt>0</asrwt>
<pdfrwt beam="1">  1        2 0.23611612E+00 0.33763656E+04</pdfrwt>
<pdfrwt beam="2">  1       -2 0.28568444E+00 0.33763656E+04</pdfrwt>
<totfact> 0.39154248E-01</totfact>
</mgrwt>
</event>
<event>
12    1  0.4612066E-007  0.1617418E+04  0.7818608E-02  0.8809918E-01
         -2   -1    0    0    0  501 -0.00000000000E+00  0.00000000000E+00  0.11741661510E+04  0.11741661510E+04  0.00000000000E+00 0.  1.
          2   -1    0    0  501    0  0.00000000000E+00 -0.00000000000E+00 -0.55699981561E+03  0.55699981561E+03  0.00000000000E+00 0. -1.
         23    2    1    2    0    0 -0.51317469705E+03 -0.18610689149E+03  0.24913992857E+03  0.60697823572E+03  0.91475843178E+02 0.  0.
        254    2    1    2    0    0  0.51317469705E+03  0.18610689149E+03  0.36802640682E+03  0.11241877309E+04  0.91124671379E+03 0.  0.
        -24    2    4    4    0    0  0.57482050654E+03 -0.17053709352E+03  0.44012904613E+03  0.74795024462E+03  0.78831948976E+02 0.  0.
         24    2    4    4    0    0 -0.61645809489E+02  0.35664398500E+03 -0.72102639309E+02  0.37623748626E+03  0.73216921579E+02 0.  0.
         11    1    3    3    0    0 -0.37928001235E+03 -0.93344844696E+02  0.17468573425E+03  0.42788046642E+03  0.00000000000E+00 0.  1.
        -11    1    3    3    0    0 -0.13389468470E+03 -0.92762046792E+02  0.74454194317E+02  0.17909776930E+03  0.00000000000E+00 0. -1.
          2    1    6    6  502    0 -0.18381899158E+02  0.20275431999E+03 -0.73294032308E+02  0.21637750267E+03  0.00000000000E+00 0. -1.
          1    1    5    5  503    0  0.41299006201E+03 -0.12393686625E+03  0.35874920032E+03  0.56091187085E+03  0.00000000000E+00 0. -1.
         -2    1    5    5    0  503  0.16183044452E+03 -0.46600227267E+02  0.81379845810E+02  0.18703837376E+03  0.00000000000E+00 0.  1.
         -1    1    6    6    0  502 -0.43263910331E+02  0.15388966501E+03  0.11913929991E+01  0.15985998359E+03  0.00000000000E+00 0.  1.
<mgrwt>
<rscale>  0 0.16174181E+04</rscale>
<asrwt>0</asrwt>
<pdfrwt beam="1">  1        2 0.85692280E-01 0.16174181E+04</pdfrwt>
<pdfrwt beam="2">  1       -2 0.18064095E+00 0.16174181E+04</pdfrwt>
<totfact> 0.93122421E+00</totfact>
</mgrwt>
</event>
<event>
12    1  0.5774385E-007  0.2142261E+04  0.7818608E-02  0.8542852E-01
         -2   -1    0    0    0  501 -0.00000000000E+00  0.00000000000E+00  0.55973480354E+03  0.55973480354E+03  0.00000000000E+00 0.  1.
          2   -1    0    0  501    0  0.00000000000E+00 -0.00000000000E+00 -0.20497574611E+04  0.20497574611E+04  0.00000000000E+00 0. -1.
         23    2    1    2    0    0 -0.14041489210E+03 -0.45603023460E+03 -0.15123613962E+04  0.15880287286E+04  0.83176519402E+02 0.  0.
        254    2    1    2    0    0  0.14041489210E+03  0.45603023460E+03  0.22338738712E+02  0.10214635360E+04  0.90288915115E+03 0.  0.
        -24    2    4    4    0    0  0.49893124433E+03  0.40987352611E+03  0.26626726217E+02  0.65130721053E+03  0.81014850326E+02 0.  0.
         24    2    4    4    0    0 -0.35851635223E+03  0.46156708496E+02 -0.42879875055E+01  0.37015632543E+03  0.79579531667E+02 0.  0.
         11    1    3    3    0    0 -0.20839533446E+02 -0.68346243284E+02 -0.14341245073E+03  0.16022679598E+03  0.00000000000E+00 0.  1.
        -11    1    3    3    0    0 -0.11957535865E+03 -0.38768399132E+03 -0.13689489455E+04  0.14278019327E+04  0.00000000000E+00 0. -1.
          2    1    6    6  502    0 -0.32412804744E+03  0.47935842020E+02  0.19612985926E+02  0.32824001173E+03  0.00000000000E+00 0. -1.
          1    1    5    5  503    0  0.41373637266E+03  0.29795193520E+03  0.13446739424E+02  0.51003328966E+03  0.00000000000E+00 0. -1.
         -2    1    5    5    0  503  0.85194871666E+02  0.11192159090E+03  0.13179986794E+02  0.14127392088E+03  0.00000000000E+00 0.  1.
         -1    1    6    6    0  502 -0.34388304796E+02 -0.17791335238E+01 -0.23900973432E+02  0.41916313696E+02  0.00000000000E+00 0.  1.
<mgrwt>
<rscale>  0 0.21422610E+04</rscale>
<asrwt>0</asrwt>
<pdfrwt beam="1">  1        2 0.31534731E+00 0.21422610E+04</pdfrwt>
<pdfrwt beam="2">  1       -2 0.86113045E-01 0.21422610E+04</pdfrwt>
<totfact> 0.67323111E+00</totfact>
</mgrwt>
</event>
<event>
12    1  0.4612066E-007  0.1943730E+04  0.7818608E-02  0.8633390E-01
          1   -1    0    0  501    0  0.00000000000E+00  0.00000000000E+00  0.21185250796E+04  0.21185250796E+04  0.00000000000E+00 0. -1.
         -1   -1    0    0    0  501 -0.00000000000E+00 -0.00000000000E+00 -0.44583925648E+03  0.44583925648E+03  0.00000000000E+00 0.  1.
         23    2    1    2    0    0  0.67671963873E+03  0.31843873815E+03  0.47282894621E+03  0.88943233441E+03  0.90387862724E+02 0.  0.
        254    2    1    2    0    0 -0.67671963873E+03 -0.31843873815E+03  0.11998568769E+04  0.16749320017E+04  0.89799108334E+03 0.  0.
        -24    2    4    4    0    0 -0.61453222126E+03 -0.54177704662E+03  0.11657680995E+04  0.14270907557E+04  0.80003398961E+02 0.  0.
         24    2    4    4    0    0 -0.62187417473E+02  0.22333830847E+03  0.34088777368E+02  0.24784124599E+03  0.80721518500E+02 0.  0.
         13    1    3    3    0    0  0.12807586350E+03  0.22760197430E+02  0.79727342643E+02  0.15257097549E+03  0.00000000000E+00 0. -1.
        -13    1    3    3    0    0  0.54864377523E+03  0.29567854072E+03  0.39310160356E+03  0.73686135892E+03  0.00000000000E+00 0.  1.
          4    1    6    6  502    0 -0.71757958946E+01  0.14512120682E+03  0.43716241954E+02  0.15173254933E+03  0.00000000000E+00 0. -1.
          3    1    5    5  503    0 -0.55524158692E+03 -0.47068856663E+03  0.10678746928E+04  0.12923611361E+04  0.00000000000E+00 0. -1.
         -4    1    5    5    0  503 -0.59290634338E+02 -0.71088479987E+02  0.97893406725E+02  0.13472961956E+03  0.00000000000E+00 0.  1.
         -3    1    6    6    0  502 -0.55011621578E+02  0.78217101651E+02 -0.96274645866E+01  0.96108696660E+02  0.00000000000E+00 0.  1.
<mgrwt>
<rscale>  0 0.19437301E+04</rscale>
<asrwt>0</asrwt>
<pdfrwt beam="1">  1        1 0.32592693E+00 0.19437301E+04</pdfrwt>
<pdfrwt beam="2">  1       -1 0.68590656E-01 0.19437301E+04</pdfrwt>
<totfact> 0.49642466E+00</totfact>
</mgrwt>
</event>
<event>
12    1  0.4612066E-007  0.1455824E+04  0.7818608E-02  0.8914373E-01
         -2   -1    0    0    0  501 -0.00000000000E+00  0.00000000000E+00  0.16715614775E+03  0.16715614775E+03  0.00000000000E+00 0.  1.
          2   -1    0    0  501    0  0.00000000000E+00 -0.00000000000E+00 -0.31698273041E+04  0.31698273041E+04  0.00000000000E+00 0. -1.
         23    2    1    2    0    0 -0.39837244331E+03  0.98333378591E+02 -0.56437703526E+03  0.70415198765E+03  0.94543782683E+02 0.  0.
        254    2    1    2    0    0  0.39837244331E+03 -0.98333378591E+02 -0.24382941211E+04  0.26328314642E+04  0.90451823696E+03 0.  0.
        -24    2    4    4    0    0  0.28372241188E+03 -0.44706486054E+03 -0.88326707201E+03  0.10331077713E+04  0.82374451089E+02 0.  0.
         24    2    4    4    0    0  0.11465003143E+03  0.34873148195E+03 -0.15550270491E+04  0.15997236929E+04  0.79047415449E+02 0.  0.
         13    1    3    3    0    0 -0.25955469041E+03  0.90412559019E+02 -0.43295178709E+03  0.51282581652E+03  0.00000000000E+00 0. -1.
        -13    1    3    3    0    0 -0.13881775289E+03  0.79208195727E+01 -0.13142524817E+03  0.19132617113E+03  0.00000000000E+00 0.  1.
          2    1    6    6  502    0 -0.43200184080E+01  0.63264031878E+02 -0.34639649723E+03  0.35215271344E+03  0.00000000000E+00 0. -1.
          1    1    5    5  503    0  0.21687777156E+03 -0.26999748065E+03 -0.58708640935E+03  0.68161943884E+03  0.00000000000E+00 0. -1.
         -4    1    5    5    0  503  0.66844640321E+02 -0.17706737988E+03 -0.29618066266E+03  0.35148833251E+03  0.00000000000E+00 0.  1.
         -1    1    6    6    0  502  0.11897004984E+03  0.28546745007E+03 -0.12086305519E+04  0.12475709794E+04  0.00000000000E+00 0.  1.
<mgrwt>
<rscale>  0 0.14558243E+04</rscale>
<asrwt>0</asrwt>
<pdfrwt beam="1">  1        2 0.48766573E+00 0.14558243E+04</pdfrwt>
<pdfrwt beam="2">  1       -2 0.25716331E-01 0.14558243E+04</pdfrwt>
<totfact> 0.18108445E+01</totfact>
</mgrwt>
</event>
<event>
12    1  0.4612066E-007  0.2463322E+04  0.7818608E-02  0.8416170E-01
          2   -1    0    0  501    0  0.00000000000E+00  0.00000000000E+00  0.18098113104E+04  0.18098113104E+04  0.00000000000E+00 0. -1.
         -2   -1    0    0    0  501 -0.00000000000E+00 -0.00000000000E+00 -0.83820305054E+03  0.83820305054E+03  0.00000000000E+00 0.  1.
         23    2    1    2    0    0 -0.17810649822E+03  0.38970384405E+03  0.14346828685E+04  0.15002908326E+04  0.94692336566E+02 0.  0.
        254    2    1    2    0    0  0.17810649822E+03 -0.38970384405E+03 -0.46307460858E+03  0.11477235283E+04  0.95877014639E+03 0.  0.
        -24    2    4    4    0    0 -0.27609251828E+03 -0.38618357736E+03  0.17209428267E+02  0.48185031323E+03  0.80738626864E+02 0.  0.
         24    2    4    4    0    0  0.45419901650E+03 -0.35202666840E+01 -0.48028403685E+03  0.66587321511E+03  0.80032766266E+02 0.  0.
         11    1    3    3    0    0 -0.35270897463E+02  0.23468586778E+02  0.92792766773E+02  0.10200641322E+03  0.00000000000E+00 0.  1.
        -11    1    3    3    0    0 -0.14283560076E+03  0.36623525727E+03  0.13418901017E+04  0.13982844194E+04  0.00000000000E+00 0. -1.
          4    1    6    6  502    0  0.24166997325E+02  0.25885176398E+01 -0.48607398047E+01  0.24786507917E+02  0.00000000000E+00 0. -1.
          3    1    5    5  503    0 -0.11910151429E+03 -0.14020303318E+03 -0.29544264360E+02  0.18631941599E+03  0.00000000000E+00 0. -1.
         -4    1    5    5    0  503 -0.15699100399E+03 -0.24598054419E+03  0.46753692628E+02  0.29553089724E+03  0.00000000000E+00 0.  1.
         -3    1    6    6    0  502  0.43003201917E+03 -0.61087843238E+01 -0.47542329704E+03  0.64108670719E+03  0.00000000000E+00 0.  1.
<mgrwt>
<rscale>  0 0.24633224E+04</rscale>
<asrwt>0</asrwt>
<pdfrwt beam="1">  1        2 0.27843251E+00 0.24633224E+04</pdfrwt>
<pdfrwt beam="2">  1       -2 0.12895432E+00 0.24633224E+04</pdfrwt>
<totfact> 0.33793629E+00</totfact>
</mgrwt>
</event>
<event>
12    1  0.4612066E-007  0.1696127E+04  0.7818608E-02  0.8763577E-01
          2   -1    0    0  501    0  0.00000000000E+00  0.00000000000E+00  0.22488734319E+04  0.22488734319E+04  0.00000000000E+00 0. -1.
         -2   -1    0    0    0  501 -0.00000000000E+00 -0.00000000000E+00 -0.31980959482E+03  0.31980959482E+03  0.00000000000E+00 0.  1.
         23    2    1    2    0    0  0.57275624291E+03  0.21440793199E+03  0.63860693816E+03  0.88850728692E+03  0.87211824623E+02 0.  0.
        254    2    1    2    0    0 -0.57275624291E+03 -0.21440793199E+03  0.12904568989E+04  0.16801757398E+04  0.88526325662E+03 0.  0.
        -24    2    4    4    0    0 -0.26081921595E+03  0.28484860467E+03  0.85998404803E+03  0.94641956225E+03  0.83498706239E+02 0.  0.
         24    2    4    4    0    0 -0.31193702696E+03 -0.49925653666E+03  0.43047285087E+03  0.73375617753E+03  0.80805040355E+02 0.  0.
         11    1    3    3    0    0  0.32030084156E+03  0.14807849094E+03  0.41552701351E+03  0.54514453821E+03  0.00000000000E+00 0. -1.
        -11    1    3    3    0    0  0.25245540136E+03  0.66329441049E+02  0.22307992465E+03  0.34336274871E+03  0.00000000000E+00 0.  1.
          2    1    6    6  502    0 -0.65606094566E+02 -0.90209288349E+02  0.12191983538E+03  0.16524624537E+03  0.00000000000E+00 0. -1.
          1    1    5    5  503    0  0.65148948270E+01  0.64656176365E+01  0.20648049729E+02  0.22596239149E+02  0.00000000000E+00 0. -1.
         -2    1    5    5    0  503 -0.26733411078E+03  0.27838298703E+03  0.83933599830E+03  0.92382332310E+03  0.00000000000E+00 0.  1.
         -3    1    6    6    0  502 -0.24633093240E+03 -0.40904724831E+03  0.30855301549E+03  0.56850993217E+03  0.00000000000E+00 0.  1.
<mgrwt>
<rscale>  0 0.16961265E+04</rscale>
<asrwt>0</asrwt>
<pdfrwt beam="1">  1        2 0.34598052E+00 0.16961265E+04</pdfrwt>
<pdfrwt beam="2">  1       -2 0.49201478E-01 0.16961265E+04</pdfrwt>
<totfact> 0.18050979E+01</totfact>
</mgrwt>
</event>
<event>
12    1  0.4612066E-007  0.1670607E+04  0.7818608E-02  0.8778308E-01
         -2   -1    0    0    0  501 -0.00000000000E+00  0.00000000000E+00  0.67468391395E+03  0.67468391395E+03  0.00000000000E+00 0.  1.
          2   -1    0    0  501    0  0.00000000000E+00 -0.00000000000E+00 -0.10341607326E+04  0.10341607326E+04  0.00000000000E+00 0. -1.
         23    2    1    2    0    0  0.42177298798E+03 -0.41603246836E+03 -0.14916868061E+03  0.61763896749E+03  0.90835735029E+02 0.  0.
        254    2    1    2    0    0 -0.42177298798E+03  0.41603246836E+03 -0.21030813801E+03  0.10912056790E+04  0.89192199935E+03 0.  0.
        -24    2    4    4    0    0  0.89490689026E+02  0.35835406866E+03  0.19918328258E+03  0.42890208083E+03  0.88638552162E+02 0.  0.
         24    2    4    4    0    0 -0.51126367701E+03  0.57678399702E+02 -0.40949142059E+03  0.66230359821E+03  0.79028396437E+02 0.  0.
         11    1    3    3    0    0  0.35024574284E+03 -0.36981612159E+03 -0.99252920237E+02  0.51892888370E+03  0.00000000000E+00 0.  1.
        -11    1    3    3    0    0  0.71527245141E+02 -0.46216346775E+02 -0.49915760378E+02  0.98710083785E+02  0.00000000000E+00 0. -1.
          2    1    6    6  502    0 -0.37139066025E+03  0.23382813916E+02 -0.25509558571E+03  0.45116686088E+03  0.00000000000E+00 0. -1.
          1    1    5    5  503    0  0.96043411294E+02  0.28472072073E+03  0.18716544366E+03  0.35400724423E+03  0.00000000000E+00 0. -1.
         -2    1    5    5    0  503 -0.65527222687E+01  0.73633347932E+02  0.12017838922E+02  0.74894836599E+02  0.00000000000E+00 0.  1.
         -1    1    6    6    0  502 -0.13987301676E+03  0.34295585786E+02 -0.15439583488E+03  0.21113673733E+03  0.00000000000E+00 0.  1.
<mgrwt>
<rscale>  0 0.16706066E+04</rscale>
<asrwt>0</asrwt>
<pdfrwt beam="1">  1        2 0.15910165E+00 0.16706066E+04</pdfrwt>
<pdfrwt beam="2">  1       -2 0.10379753E+00 0.16706066E+04</pdfrwt>
<totfact> 0.17267275E+01</totfact>
</mgrwt>
</event>
<event>
12    1  0.4612066E-007  0.2573966E+04  0.7818608E-02  0.8377099E-01
          2   -1    0    0  501    0  0.00000000000E+00  0.00000000000E+00  0.19037838900E+04  0.19037838900E+04  0.00000000000E+00 0. -1.
         -2   -1    0    0    0  501 -0.00000000000E+00 -0.00000000000E+00 -0.87001735043E+03  0.87001735043E+03  0.00000000000E+00 0.  1.
         23    2    1    2    0    0 -0.84424453829E+03 -0.46939454409E+03 -0.15492895441E+03  0.98234625939E+03  0.89000640319E+02 0.  0.
        254    2    1    2    0    0  0.84424453829E+03  0.46939454409E+03  0.11886954940E+04  0.17914549810E+04  0.92910381189E+03 0.  0.
        -24    2    4    4    0    0  0.39015948540E+03 -0.24843852836E+03  0.28595820437E+03  0.54952291741E+03  0.79102564416E+02 0.  0.
         24    2    4    4    0    0  0.45408505289E+03  0.71783307244E+03  0.90273728961E+03  0.12419320636E+04  0.77350381258E+02 0.  0.
         11    1    3    3    0    0 -0.63890115991E+03 -0.31737310062E+03 -0.13527459285E+03  0.72609888625E+03  0.00000000000E+00 0. -1.
        -11    1    3    3    0    0 -0.20534337837E+03 -0.15202144346E+03 -0.19654361563E+02  0.25624737314E+03  0.00000000000E+00 0.  1.
          4    1    6    6  502    0  0.32476455281E+03  0.47187161166E+03  0.56526840403E+03  0.80477524891E+03  0.00000000000E+00 0. -1.
          3    1    5    5  503    0  0.18766449483E+03 -0.14256319788E+03  0.18545886810E+03  0.29989534802E+03  0.00000000000E+00 0. -1.
         -4    1    5    5    0  503  0.20249499057E+03 -0.10587533048E+03  0.10049933627E+03  0.24962756939E+03  0.00000000000E+00 0.  1.
         -3    1    6    6    0  502  0.12932050008E+03  0.24596146078E+03  0.33746888558E+03  0.43715681473E+03  0.00000000000E+00 0.  1.
<mgrwt>
<rscale>  0 0.25739658E+04</rscale>
<asrwt>0</asrwt>
<pdfrwt beam="1">  1        2 0.29288983E+00 0.25739658E+04</pdfrwt>
<pdfrwt beam="2">  1       -2 0.13384882E+00 0.25739658E+04</pdfrwt>
<totfact> 0.27014593E+00</totfact>
</mgrwt>
</event>
<event>
12    1  0.4612066E-007  0.1611558E+04  0.7818608E-02  0.8813479E-01
         -2   -1    0    0    0  501 -0.00000000000E+00  0.00000000000E+00  0.40700953234E+03  0.40700953234E+03  0.00000000000E+00 0.  1.
          2   -1    0    0  501    0  0.00000000000E+00 -0.00000000000E+00 -0.15952445766E+04  0.15952445766E+04  0.00000000000E+00 0. -1.
         23    2    1    2    0    0  0.15846092167E+03  0.13227533392E+03  0.22242091481E+03  0.31655192898E+03  0.90152275254E+02 0.  0.
        254    2    1    2    0    0 -0.15846092167E+03 -0.13227533392E+03 -0.14106559591E+04  0.16857021800E+04  0.89946371636E+03 0.  0.
        -24    2    4    4    0    0  0.51110642933E+02 -0.46755941056E+03 -0.50700981314E+03  0.69605401611E+03  0.78791766653E+02 0.  0.
         24    2    4    4    0    0 -0.20957156460E+03  0.33528407664E+03 -0.90364614598E+03  0.98964816390E+03  0.80569711692E+02 0.  0.
         11    1    3    3    0    0  0.11444510707E+02 -0.13188305178E+02  0.10200499838E+02  0.20222720285E+02  0.00000000000E+00 0. -1.
        -11    1    3    3    0    0  0.14701641096E+03  0.14546363910E+03  0.21222041498E+03  0.29632920869E+03  0.00000000000E+00 0.  1.
          2    1    6    6  502    0 -0.26394747982E+02  0.43436944121E+02 -0.19725762496E+03  0.20370081355E+03  0.00000000000E+00 0. -1.
          1    1    5    5  503    0 -0.39203445749E+01  0.14956363541E+01 -0.77444822994E+01  0.88081232834E+01  0.00000000000E+00 0. -1.
         -2    1    5    5    0  503  0.55030987508E+02 -0.46905504692E+03 -0.49926533084E+03  0.68724589282E+03  0.00000000000E+00 0.  1.
         -1    1    6    6    0  502 -0.18317681662E+03  0.29184713252E+03 -0.70638852102E+03  0.78594735036E+03  0.00000000000E+00 0.  1.
<mgrwt>
<rscale>  0 0.16115579E+04</rscale>
<asrwt>0</asrwt>
<pdfrwt beam="1">  1        2 0.24542224E+00 0.16115579E+04</pdfrwt>
<pdfrwt beam="2">  1       -2 0.62616851E-01 0.16115579E+04</pdfrwt>
<totfact> 0.25423181E+01</totfact>
</mgrwt>
</event>
<event>
12    1  0.4612066E-007  0.1207584E+04  0.7818608E-02  0.9106244E-01
          2   -1    0    0  501    0  0.00000000000E+00  0.00000000000E+00  0.15429586074E+04  0.15429586074E+04  0.00000000000E+00 0. -1.
         -2   -1    0    0    0  501 -0.00000000000E+00 -0.00000000000E+00 -0.23627630510E+03  0.23627630510E+03  0.00000000000E+00 0.  1.
         23    2    1    2    0    0 -0.19351066603E+03  0.68649080143E+02  0.56614813536E+03  0.60926969198E+03  0.92340523732E+02 0.  0.
        254    2    1    2    0    0  0.19351066603E+03 -0.68649080143E+02  0.74053416696E+03  0.11699652205E+04  0.88219538127E+03 0.  0.
        -24    2    4    4    0    0 -0.31236315158E+03 -0.59779101684E+02  0.86068477428E+02  0.33886730346E+03  0.79240059838E+02 0.  0.
         24    2    4    4    0    0  0.50587381761E+03 -0.88699784590E+01  0.65446568953E+03  0.83109791707E+03  0.80071300223E+02 0.  0.
         13    1    3    3    0    0 -0.20313509351E+03  0.70049974258E+02  0.54905200586E+03  0.58960068712E+03  0.00000000000E+00 0. -1.
        -13    1    3    3    0    0  0.96244274749E+01 -0.14008941152E+01  0.17096129492E+02  0.19669004859E+02  0.00000000000E+00 0.  1.
          4    1    6    6  502    0  0.47025260197E+03 -0.47236996794E+01  0.56752356210E+03  0.73705007736E+03  0.00000000000E+00 0. -1.
          1    1    5    5  503    0 -0.15720937716E+03 -0.47294829351E+02  0.81158563567E+02  0.18313465426E+03  0.00000000000E+00 0. -1.
         -2    1    5    5    0  503 -0.15515377442E+03 -0.12484272333E+02  0.49099138617E+01  0.15573264920E+03  0.00000000000E+00 0.  1.
         -3    1    6    6    0  502  0.35621215644E+02 -0.41462787797E+01  0.86942127435E+02  0.94047839713E+02  0.00000000000E+00 0.  1.
<mgrwt>
<rscale>  0 0.12075836E+04</rscale>
<asrwt>0</asrwt>
<pdfrwt beam="1">  1        2 0.23737824E+00 0.12075836E+04</pdfrwt>
<pdfrwt beam="2">  1       -2 0.36350202E-01 0.12075836E+04</pdfrwt>
<totfact> 0.84298401E+01</totfact>
</mgrwt>
</event>
<event>
12    1  0.4612066E-007  0.1073833E+04  0.7818608E-02  0.9231079E-01
         -1   -1    0    0    0  501 -0.00000000000E+00  0.00000000000E+00  0.20735396534E+03  0.20735396534E+03  0.00000000000E+00 0.  1.
          1   -1    0    0  501    0  0.00000000000E+00 -0.00000000000E+00 -0.13902752469E+04  0.13902752469E+04  0.00000000000E+00 0. -1.
         23    2    1    2    0    0  0.90007211942E+02 -0.11544143686E+03 -0.22011068560E+03  0.27947027518E+03  0.90702244992E+02 0.  0.
        254    2    1    2    0    0 -0.90007211942E+02  0.11544143686E+03 -0.96281059593E+03  0.13181589370E+04  0.88831903960E+03 0.  0.
        -24    2    4    4    0    0 -0.14412207793E+03  0.16092980785E+03 -0.11112161746E+04  0.11347972699E+04  0.79333981753E+02 0.  0.
         24    2    4    4    0    0  0.54114865992E+02 -0.45488370982E+02  0.14840557867E+03  0.18336166715E+03  0.81238381236E+02 0.  0.
         11    1    3    3    0    0  0.83985034847E+02 -0.77331110941E+02 -0.21087755710E+03  0.23979768741E+03  0.00000000000E+00 0. -1.
        -11    1    3    3    0    0  0.60221770945E+01 -0.38110325922E+02 -0.92331285067E+01  0.39672587777E+02  0.00000000000E+00 0.  1.
          4    1    6    6  502    0  0.24850659815E+02 -0.66751057924E+02  0.10465654973E+03  0.12659483571E+03  0.00000000000E+00 0. -1.
          3    1    5    5  503    0 -0.60320683874E+02  0.47864535379E+02 -0.23349505486E+03  0.24586488016E+03  0.00000000000E+00 0. -1.
         -4    1    5    5    0  503 -0.83801394060E+02  0.11306527247E+03 -0.87772111973E+03  0.88893238973E+03  0.00000000000E+00 0.  1.
         -3    1    6    6    0  502  0.29264206176E+02  0.21262686941E+02  0.43749028931E+02  0.56766831438E+02  0.00000000000E+00 0.  1.
<mgrwt>
<rscale>  0 0.10738325E+04</rscale>
<asrwt>0</asrwt>
<pdfrwt beam="1">  1        1 0.21388850E+00 0.10738325E+04</pdfrwt>
<pdfrwt beam="2">  1       -1 0.31900610E-01 0.10738325E+04</pdfrwt>
<totfact> 0.71283568E+01</totfact>
</mgrwt>
</event>
<event>
12    1  0.4612066E-007  0.1577939E+04  0.7818608E-02  0.8834217E-01
         -2   -1    0    0    0  501 -0.00000000000E+00  0.00000000000E+00  0.46453208094E+03  0.46453208094E+03  0.00000000000E+00 0.  1.
          2   -1    0    0  501    0  0.00000000000E+00 -0.00000000000E+00 -0.13399989323E+04  0.13399989323E+04  0.00000000000E+00 0. -1.
         23    2    1    2    0    0 -0.28482274299E+03  0.25413538455E+02 -0.80356689780E+03  0.85639901134E+03  0.77004314949E+02 0.  0.
        254    2    1    2    0    0  0.28482274299E+03 -0.25413538455E+02 -0.71899953542E+02  0.94813200188E+03  0.90111866411E+03 0.  0.
        -24    2    4    4    0    0  0.10332919280E+03 -0.44847041686E+03 -0.10952657775E+03  0.47991947268E+03  0.80771233393E+02 0.  0.
         24    2    4    4    0    0  0.18149355019E+03  0.42305687840E+03  0.37626624208E+02  0.46821252920E+03  0.76747498477E+02 0.  0.
         11    1    3    3    0    0 -0.27070837716E+03  0.42411176930E+02 -0.74707194397E+03  0.79573753390E+03  0.00000000000E+00 0. -1.
        -11    1    3    3    0    0 -0.14114365828E+02 -0.16997638476E+02 -0.56494953834E+02  0.60661477440E+02  0.00000000000E+00 0.  1.
          4    1    6    6  502    0  0.18919307092E+02  0.91515429074E+02  0.32436562058E+02  0.98919889292E+02  0.00000000000E+00 0. -1.
          1    1    5    5  503    0  0.79359578194E+02 -0.17086614414E+03 -0.36954077141E+02  0.19198642056E+03  0.00000000000E+00 0. -1.
         -2    1    5    5    0  503  0.23969614603E+02 -0.27760427272E+03 -0.72572500609E+02  0.28793305212E+03  0.00000000000E+00 0.  1.
         -3    1    6    6    0  502  0.16257424310E+03  0.33154144933E+03  0.51900621500E+01  0.36929263991E+03  0.00000000000E+00 0.  1.
<mgrwt>
<rscale>  0 0.15779385E+04</rscale>
<asrwt>0</asrwt>
<pdfrwt beam="1">  1        2 0.20615368E+00 0.15779385E+04</pdfrwt>
<pdfrwt beam="2">  1       -2 0.71466476E-01 0.15779385E+04</pdfrwt>
<totfact> 0.26736196E+01</totfact>
</mgrwt>
</event>
<event>
12    1  0.4612066E-007  0.2873462E+04  0.7818608E-02  0.8280817E-01
          2   -1    0    0  501    0  0.00000000000E+00  0.00000000000E+00  0.45090511769E+04  0.45090511769E+04  0.00000000000E+00 0.  1.
         -2   -1    0    0    0  501 -0.00000000000E+00 -0.00000000000E+00 -0.45778958670E+03  0.45778958670E+03  0.00000000000E+00 0. -1.
         23    2    1    2    0    0  0.10800204259E+04 -0.67971845747E+03  0.21917199535E+04  0.25377122674E+04  0.88802566158E+02 0.  0.
        254    2    1    2    0    0 -0.10800204259E+04  0.67971845747E+03  0.18595416367E+04  0.24291284962E+04  0.90239063089E+03 0.  0.
        -24    2    4    4    0    0 -0.99026173382E+03  0.13966024665E+03  0.10882678112E+04  0.14801531463E+04  0.80020132736E+02 0.  0.
         24    2    4    4    0    0 -0.89758692077E+02  0.54005821082E+03  0.77127382549E+03  0.94897534991E+03  0.77274879286E+02 0.  0.
         13    1    3    3    0    0  0.26650704228E+03 -0.12641890394E+03  0.47965280624E+03  0.56309373766E+03  0.00000000000E+00 0. -1.
        -13    1    3    3    0    0  0.81351338362E+03 -0.55329955353E+03  0.17120671473E+04  0.19746185297E+04  0.00000000000E+00 0.  1.
          4    1    6    6  502    0 -0.64991495096E+02  0.38505089211E+03  0.48683242587E+03  0.62409445986E+03  0.00000000000E+00 0. -1.
          1    1    5    5  503    0 -0.95063427441E+03  0.11753703711E+03  0.10392916657E+04  0.14133816346E+04  0.00000000000E+00 0. -1.
         -2    1    5    5    0  503 -0.39627459407E+02  0.22123209542E+02  0.48976145562E+02  0.66771511692E+02  0.00000000000E+00 0.  1.
         -3    1    6    6    0  502 -0.24767196981E+02  0.15500731871E+03  0.28444139962E+03  0.32488089005E+03  0.00000000000E+00 0.  1.
<mgrwt>
<rscale>  0 0.28734625E+04</rscale>
<asrwt>0</asrwt>
<pdfrwt beam="1">  1        2 0.69370015E+00 0.28734625E+04</pdfrwt>
<pdfrwt beam="2">  1       -2 0.70429170E-01 0.28734625E+04</pdfrwt>
<totfact> 0.19142730E-01</totfact>
</mgrwt>
</event>
<event>
12    1  0.4612066E-007  0.1980229E+04  0.7818608E-02  0.8615920E-01
          1   -1    0    0  501    0  0.00000000000E+00  0.00000000000E+00  0.70215092819E+03  0.70215092819E+03  0.00000000000E+00 0. -1.
         -1   -1    0    0    0  501 -0.00000000000E+00 -0.00000000000E+00 -0.13961771847E+04  0.13961771847E+04  0.00000000000E+00 0.  1.
         23    2    1    2    0    0  0.60356121384E+03  0.14756332886E+01 -0.80164882386E+03  0.10074177526E+04  0.89226538268E+02 0.  0.
        254    2    1    2    0    0 -0.60356121384E+03 -0.14756332886E+01  0.10762256738E+03  0.10909103602E+04  0.90233834049E+03 0.  0.
        -24    2    4    4    0    0  0.21459764201E+03 -0.72928558892E+02  0.11371173972E+03  0.26570957577E+03  0.79375665342E+02 0.  0.
         24    2    4    4    0    0 -0.81815885585E+03  0.71452925604E+02 -0.60891723399E+01  0.82520078447E+03  0.80186175207E+02 0.  0.
         13    1    3    3    0    0  0.92755508231E+01 -0.10267125096E+02 -0.84324785755E+01  0.16203592063E+02  0.00000000000E+00 0. -1.
        -13    1    3    3    0    0  0.59428566302E+03  0.11742758385E+02 -0.79321634528E+03  0.99121416055E+03  0.00000000000E+00 0.  1.
          4    1    6    6  502    0 -0.74220961473E+03  0.50120545902E+02  0.13087827652E+02  0.74401510236E+03  0.00000000000E+00 0. -1.
          1    1    5    5  503    0  0.13595359455E+03 -0.52885396576E+02  0.29643589862E+02  0.14885895157E+03  0.00000000000E+00 0. -1.
         -2    1    5    5    0  503  0.78644047459E+02 -0.20043162316E+02  0.84068149856E+02  0.11685062420E+03  0.00000000000E+00 0.  1.
         -3    1    6    6    0  502 -0.75949241124E+02  0.21332379701E+02 -0.19176999992E+02  0.81185682110E+02  0.00000000000E+00 0.  1.
<mgrwt>
<rscale>  0 0.19802294E+04</rscale>
<asrwt>0</asrwt>
<pdfrwt beam="1">  1        1 0.10802322E+00 0.19802294E+04</pdfrwt>
<pdfrwt beam="2">  1       -1 0.21479649E+00 0.19802294E+04</pdfrwt>
<totfact> 0.30054077E+00</totfact>
</mgrwt>
</event>
<event>
12    1  0.4612066E-007  0.1310268E+04  0.7818608E-02  0.9021462E-01
          2   -1    0    0  501    0  0.00000000000E+00  0.00000000000E+00  0.97765714317E+03  0.97765714317E+03  0.00000000000E+00 0.  1.
         -2   -1    0    0    0  501 -0.00000000000E+00 -0.00000000000E+00 -0.43900937504E+03  0.43900937504E+03  0.00000000000E+00 0. -1.
         23    2    1    2    0    0  0.94802017363E+02 -0.16783479493E+03  0.46229759486E+03  0.51566034027E+03  0.12259926359E+03 0.  0.
        254    2    1    2    0    0 -0.94802017363E+02  0.16783479493E+03  0.76350173275E+02  0.90100617793E+03  0.87682771559E+03 0.  0.
        -24    2    4    4    0    0 -0.33648892770E+03 -0.13897507240E+03  0.26934176451E+03  0.45981016813E+03  0.79633757891E+02 0.  0.
         24    2    4    4    0    0  0.24168691034E+03  0.30680986733E+03 -0.19299159124E+03  0.44119600980E+03  0.69737417876E+02 0.  0.
         11    1    3    3    0    0 -0.19986792005E+02 -0.68600149273E+01  0.10691633194E+03  0.10898455714E+03  0.00000000000E+00 0. -1.
        -11    1    3    3    0    0  0.11478880937E+03 -0.16097478001E+03  0.35538126292E+03  0.40667578314E+03  0.00000000000E+00 0.  1.
          4    1    6    6  502    0  0.11464660360E+03  0.17787866842E+03 -0.72255548534E+02  0.22361915993E+03  0.00000000000E+00 0. -1.
          1    1    5    5  503    0 -0.31693396949E+03 -0.14884512003E+03  0.25934941273E+03  0.43573401136E+03  0.00000000000E+00 0. -1.
         -2    1    5    5    0  503 -0.19554958215E+02  0.98700476301E+01  0.99923517821E+01  0.24076156777E+02  0.00000000000E+00 0.  1.
         -3    1    6    6    0  502  0.12704030674E+03  0.12893119891E+03 -0.12073604270E+03  0.21757684986E+03  0.00000000000E+00 0.  1.
<mgrwt>
<rscale>  0 0.13102681E+04</rscale>
<asrwt>0</asrwt>
<pdfrwt beam="1">  1        2 0.15040879E+00 0.13102681E+04</pdfrwt>
<pdfrwt beam="2">  1       -2 0.67539904E-01 0.13102681E+04</pdfrwt>
<totfact> 0.51270135E+01</totfact>
</mgrwt>
</event>
<event>
12    1  0.4612066E-007  0.1580174E+04  0.7818608E-02  0.8832821E-01
         -2   -1    0    0    0  501 -0.00000000000E+00  0.00000000000E+00  0.50346809451E+03  0.50346809451E+03  0.00000000000E+00 0. -1.
          2   -1    0    0  501    0  0.00000000000E+00 -0.00000000000E+00 -0.12398748191E+04  0.12398748191E+04  0.00000000000E+00 0.  1.
         23    2    1    2    0    0 -0.35712097763E+03  0.16127411436E+03 -0.66674551303E+03  0.78056740183E+03  0.10578826508E+03 0.  0.
        254    2    1    2    0    0  0.35712097763E+03 -0.16127411436E+03 -0.69661211585E+02  0.96277551180E+03  0.87666371495E+03 0.  0.
        -24    2    4    4    0    0  0.38868086895E+03  0.28463804624E+03 -0.12877483759E+03  0.50460414132E+03  0.77141074583E+02 0.  0.
         24    2    4    4    0    0 -0.31559891319E+02 -0.44591216060E+03  0.59113626002E+02  0.45817137048E+03  0.81196688588E+02 0.  0.
         11    1    3    3    0    0 -0.34152517522E+03  0.16486095775E+03 -0.58428496367E+03  0.69656837387E+03  0.00000000000E+00 0.  1.
        -11    1    3    3    0    0 -0.15595802413E+02 -0.35868433936E+01 -0.82460549358E+02  0.83999027964E+02  0.00000000000E+00 0. -1.
          4    1    6    6  502    0 -0.13483784073E+01 -0.76230699359E+02  0.41578963022E+02  0.86843237014E+02  0.00000000000E+00 0. -1.
          3    1    5    5  503    0  0.62756737378E+02  0.82524214831E+02 -0.38694205765E+02  0.11066117512E+03  0.00000000000E+00 0. -1.
         -4    1    5    5    0  503  0.32592413157E+03  0.20211383141E+03 -0.90080631822E+02  0.39394296620E+03  0.00000000000E+00 0.  1.
         -3    1    6    6    0  502 -0.30211512912E+02 -0.36968146124E+03  0.17534662980E+02  0.37132813347E+03  0.00000000000E+00 0.  1.
<mgrwt>
<rscale>  0 0.15801739E+04</rscale>
<asrwt>0</asrwt>
<pdfrwt beam="1">  1        2 0.19074997E+00 0.15801739E+04</pdfrwt>
<pdfrwt beam="2">  1       -2 0.77456630E-01 0.15801739E+04</pdfrwt>
<totfact> 0.25598982E+01</totfact>
</mgrwt>
</event>
<event>
12    1  0.4612066E-007  0.1411163E+04  0.7818608E-02  0.8945777E-01
          1   -1    0    0  501    0  0.00000000000E+00  0.00000000000E+00  0.31477923378E+04  0.31477923378E+04  0.00000000000E+00 0. -1.
         -1   -1    0    0    0  501 -0.00000000000E+00 -0.00000000000E+00 -0.15815700967E+03  0.15815700967E+03  0.00000000000E+00 0.  1.
         23    2    1    2    0    0  0.25254966713E+03  0.31706394350E+03  0.67485821993E+03  0.79242347812E+03  0.90501232270E+02 0.  0.
        254    2    1    2    0    0 -0.25254966713E+03 -0.31706394350E+03  0.23147771082E+04  0.25135258694E+04  0.89180062603E+03 0.  0.
        -24    2    4    4    0    0 -0.13634329410E+03 -0.69631115419E+02 -0.85326023830E+01  0.17272822425E+03  0.79525141109E+02 0.  0.
         24    2    4    4    0    0 -0.11620637303E+03 -0.24743282808E+03  0.23233097106E+04  0.23407976451E+04  0.82696302522E+02 0.  0.
         13    1    3    3    0    0  0.12146223355E+03  0.16066399948E+03  0.42110319368E+03  0.46679106101E+03  0.00000000000E+00 0. -1.
        -13    1    3    3    0    0  0.13108743358E+03  0.15639994402E+03  0.25375502625E+03  0.32563241711E+03  0.00000000000E+00 0.  1.
          2    1    6    6  502    0 -0.12236091397E+03 -0.22285571488E+03  0.19300833783E+04  0.19467559452E+04  0.00000000000E+00 0. -1.
          3    1    5    5  503    0 -0.60004927388E+02 -0.67162585579E+02 -0.27239410386E+02  0.94092452889E+02  0.00000000000E+00 0. -1.
         -4    1    5    5    0  503 -0.76338366712E+02 -0.24685298401E+01  0.18706808003E+02  0.78635771361E+02  0.00000000000E+00 0.  1.
         -1    1    6    6    0  502  0.61545409435E+01 -0.24577113199E+02  0.39322633230E+03  0.39404169993E+03  0.00000000000E+00 0.  1.
<mgrwt>
<rscale>  0 0.14111632E+04</rscale>
<asrwt>0</asrwt>
<pdfrwt beam="1">  1        1 0.48427570E+00 0.14111632E+04</pdfrwt>
<pdfrwt beam="2">  1       -1 0.24331850E-01 0.14111632E+04</pdfrwt>
<totfact> 0.67107800E+00</totfact>
</mgrwt>
</event>
<event>
12    1  0.4612066E-007  0.1181900E+04  0.7818608E-02  0.9128848E-01
          1   -1    0    0  501    0  0.00000000000E+00  0.00000000000E+00  0.10291753058E+04  0.10291753058E+04  0.00000000000E+00 0. -1.
         -1   -1    0    0    0  501 -0.00000000000E+00 -0.00000000000E+00 -0.33932220760E+03  0.33932220760E+03  0.00000000000E+00 0.  1.
         23    2    1    2    0    0  0.51207156801E+02 -0.20304812039E+02 -0.11212922752E+03  0.15666673243E+03  0.94535935422E+02 0.  0.
        254    2    1    2    0    0 -0.51207156801E+02  0.20304812039E+02  0.80198232569E+03  0.12118307809E+04  0.90682067280E+03 0.  0.
        -24    2    4    4    0    0  0.10264747226E+03  0.34662374082E+03  0.49913170167E+02  0.37389600957E+03  0.81378007853E+02 0.  0.
         24    2    4    4    0    0 -0.15385462906E+03 -0.32631892878E+03  0.75206915552E+03  0.83793477137E+03  0.79820900875E+02 0.  0.
         11    1    3    3    0    0  0.50545368409E+02  0.22660774639E+02 -0.95871265012E+02  0.11072327863E+03  0.00000000000E+00 0.  1.
        -11    1    3    3    0    0  0.66178839172E+00 -0.42965586679E+02 -0.16257962512E+02  0.45943453805E+02  0.00000000000E+00 0. -1.
          2    1    6    6  502    0 -0.98099203791E+02 -0.22766024921E+03  0.59203929711E+03  0.64184357298E+03  0.00000000000E+00 0. -1.
          3    1    5    5  503    0  0.10589955911E+03  0.33214273220E+03  0.62815000784E+02  0.35423048358E+03  0.00000000000E+00 0. -1.
         -4    1    5    5    0  503 -0.32520868527E+01  0.14481008612E+02 -0.12901830617E+02  0.19665525993E+02  0.00000000000E+00 0.  1.
         -1    1    6    6    0  502 -0.55755425267E+02 -0.98658679570E+02  0.16002985841E+03  0.19609119839E+03  0.00000000000E+00 0.  1.
<mgrwt>
<rscale>  0 0.11819002E+04</rscale>
<asrwt>0</asrwt>
<pdfrwt beam="1">  1        1 0.15833466E+00 0.11819002E+04</pdfrwt>
<pdfrwt beam="2">  1       -1 0.52203417E-01 0.11819002E+04</pdfrwt>
<totfact> 0.52580821E+01</totfact>
</mgrwt>
</event>
<event>
12    1  0.4612066E-007  0.2490264E+04  0.7818608E-02  0.8406462E-01
         -1   -1    0    0    0  501 -0.00000000000E+00  0.00000000000E+00  0.73774739501E+03  0.73774739501E+03  0.00000000000E+00 0.  1.
          1   -1    0    0  501    0  0.00000000000E+00 -0.00000000000E+00 -0.21014697878E+04  0.21014697878E+04  0.00000000000E+00 0. -1.
         23    2    1    2    0    0 -0.18458588776E+03 -0.80892822401E+03 -0.13302016994E+04  0.15701132632E+04  0.85920176156E+02 0.  0.
        254    2    1    2    0    0  0.18458588776E+03  0.80892822401E+03 -0.33520693344E+02  0.12691039196E+04  0.95972094912E+03 0.  0.
        -24    2    4    4    0    0  0.56806545753E+02  0.60922282082E+03 -0.46321123940E+03  0.77173441136E+03  0.81424322678E+02 0.  0.
         24    2    4    4    0    0  0.12777934201E+03  0.19970540319E+03  0.42969054606E+03  0.49736950819E+03  0.80824835312E+02 0.  0.
         13    1    3    3    0    0 -0.16240534966E+03 -0.72682509703E+03 -0.12374260284E+04  0.14442553081E+04  0.00000000000E+00 0. -1.
        -13    1    3    3    0    0 -0.22180538094E+02 -0.82103126980E+02 -0.92775670984E+02  0.12585795508E+03  0.00000000000E+00 0.  1.
          4    1    6    6  502    0  0.25600938840E+02  0.82103493463E+02  0.94692854572E+02  0.12791844439E+03  0.00000000000E+00 0. -1.
          3    1    5    5  503    0  0.63474298062E+01  0.18146883216E+02 -0.35588306094E+02  0.40449063848E+02  0.00000000000E+00 0. -1.
         -4    1    5    5    0  503  0.50459115946E+02  0.59107593760E+03 -0.42762293331E+03  0.73128534751E+03  0.00000000000E+00 0.  1.
         -3    1    6    6    0  502  0.10217840317E+03  0.11760190973E+03  0.33499769148E+03  0.36945106380E+03  0.00000000000E+00 0.  1.
<mgrwt>
<rscale>  0 0.24902641E+04</rscale>
<asrwt>0</asrwt>
<pdfrwt beam="1">  1        1 0.32330304E+00 0.24902641E+04</pdfrwt>
<pdfrwt beam="2">  1       -1 0.11349960E+00 0.24902641E+04</pdfrwt>
<totfact> 0.16010636E+00</totfact>
</mgrwt>
</event>
<event>
12    1  0.4612066E-007  0.1365567E+04  0.7818608E-02  0.8979127E-01
         -1   -1    0    0    0  501 -0.00000000000E+00  0.00000000000E+00  0.23308769396E+03  0.23308769396E+03  0.00000000000E+00 0.  1.
          1   -1    0    0  501    0  0.00000000000E+00 -0.00000000000E+00 -0.20000763318E+04  0.20000763318E+04  0.00000000000E+00 0. -1.
         23    2    1    2    0    0 -0.11788720542E+03 -0.29201172283E+03 -0.84073037771E+03  0.90359081257E+03  0.10237455290E+03 0.  0.
        254    2    1    2    0    0  0.11788720542E+03  0.29201172283E+03 -0.92625826017E+03  0.13295732132E+04  0.90035677669E+03 0.  0.
        -24    2    4    4    0    0  0.17880198570E+03 -0.54989972129E+02 -0.94591153098E+03  0.96763663920E+03  0.81104833180E+02 0.  0.
         24    2    4    4    0    0 -0.60914780283E+02  0.34700169496E+03  0.19653270811E+02  0.36193657403E+03  0.80567026770E+02 0.  0.
         11    1    3    3    0    0 -0.14858699007E+02 -0.87123572452E+01 -0.13609583950E+03  0.13718149888E+03  0.00000000000E+00 0. -1.
        -11    1    3    3    0    0 -0.10302850641E+03 -0.28329936558E+03 -0.70463453821E+03  0.76640931369E+03  0.00000000000E+00 0.  1.
          4    1    6    6  502    0 -0.18291336631E+02  0.69003466586E+02  0.36517388579E+02  0.80184606162E+02  0.00000000000E+00 0. -1.
          3    1    5    5  503    0  0.10987281668E+02  0.16291141967E+02 -0.59258776810E+02  0.62431757096E+02  0.00000000000E+00 0. -1.
         -4    1    5    5    0  503  0.16781470403E+03 -0.71281114097E+02 -0.88665275417E+03  0.90520488211E+03  0.00000000000E+00 0.  1.
         -3    1    6    6    0  502 -0.42623443652E+02  0.27799822837E+03 -0.16864117768E+02  0.28175196786E+03  0.00000000000E+00 0.  1.
<mgrwt>
<rscale>  0 0.13655668E+04</rscale>
<asrwt>0</asrwt>
<pdfrwt beam="1">  1        1 0.30770403E+00 0.13655668E+04</pdfrwt>
<pdfrwt beam="2">  1       -1 0.35859647E-01 0.13655668E+04</pdfrwt>
<totfact> 0.21662127E+01</totfact>
</mgrwt>
</event>
<event>
12    1  0.4612066E-007  0.3070368E+04  0.7818608E-02  0.8223917E-01
          2   -1    0    0  501    0  0.00000000000E+00  0.00000000000E+00  0.26283804002E+04  0.26283804002E+04  0.00000000000E+00 0. -1.
         -2   -1    0    0    0  501 -0.00000000000E+00 -0.00000000000E+00 -0.89667009256E+03  0.89667009256E+03  0.00000000000E+00 0.  1.
         23    2    1    2    0    0  0.44106009388E+03  0.76128949705E+03 -0.43991407165E+03  0.98812462786E+03  0.93649266007E+02 0.  0.
        254    2    1    2    0    0 -0.44106009388E+03 -0.76128949705E+03  0.21716243793E+04  0.25369258649E+04  0.97259688181E+03 0.  0.
        -24    2    4    4    0    0 -0.18295418246E+03  0.10551031845E+03  0.11406541116E+04  0.11625964615E+04  0.77032912720E+02 0.  0.
         24    2    4    4    0    0 -0.25810591142E+03 -0.86679981550E+03  0.10309702677E+04  0.13743294034E+04  0.89000194819E+02 0.  0.
         11    1    3    3    0    0  0.17955318525E+03  0.39107208069E+03 -0.18840838718E+03  0.46975998019E+03  0.00000000000E+00 0. -1.
        -11    1    3    3    0    0  0.26150690863E+03  0.37021741636E+03 -0.25150568447E+03  0.51836464767E+03  0.00000000000E+00 0.  1.
          2    1    6    6  502    0 -0.17970998417E+03 -0.66893239062E+03  0.73700158766E+03  0.10114037581E+04  0.00000000000E+00 0. -1.
          3    1    5    5  503    0 -0.18229801334E+03  0.93219607744E+02  0.96348912375E+03  0.98500444289E+03  0.00000000000E+00 0. -1.
         -4    1    5    5    0  503 -0.65616911266E+00  0.12290710709E+02  0.17716498788E+03  0.17759201857E+03  0.00000000000E+00 0.  1.
         -1    1    6    6    0  502 -0.78395927255E+02 -0.19786742488E+03  0.29396868001E+03  0.36292564537E+03  0.00000000000E+00 0.  1.
<mgrwt>
<rscale>  0 0.30703681E+04</rscale>
<asrwt>0</asrwt>
<pdfrwt beam="1">  1        2 0.40436621E+00 0.30703681E+04</pdfrwt>
<pdfrwt beam="2">  1       -2 0.13794925E+00 0.30703681E+04</pdfrwt>
<totfact> 0.92979086E-01</totfact>
</mgrwt>
</event>
<event>
12    1  0.4612066E-007  0.1467674E+04  0.7818608E-02  0.8906239E-01
         -2   -1    0    0    0  501 -0.00000000000E+00  0.00000000000E+00  0.92232040718E+03  0.92232040718E+03  0.00000000000E+00 0.  1.
          2   -1    0    0  501    0  0.00000000000E+00 -0.00000000000E+00 -0.58387135043E+03  0.58387135043E+03  0.00000000000E+00 0. -1.
         23    2    1    2    0    0  0.78791496377E+02  0.23385803334E+03 -0.27388910318E+03  0.37984367425E+03  0.91478392903E+02 0.  0.
        254    2    1    2    0    0 -0.78791496377E+02 -0.23385803334E+03  0.61233815993E+03  0.11263480834E+04  0.91258112139E+03 0.  0.
        -24    2    4    4    0    0 -0.37888621733E+03  0.35744455437E+02 -0.37042866904E-01  0.38875142624E+03  0.79342537485E+02 0.  0.
         24    2    4    4    0    0  0.30009472095E+03 -0.26960248878E+03  0.61237520279E+03  0.73759665712E+03  0.79392040574E+02 0.  0.
         11    1    3    3    0    0  0.12728489712E+02  0.37663357718E+01 -0.51199894711E+02  0.52892617197E+02  0.00000000000E+00 0.  1.
        -11    1    3    3    0    0  0.66063006665E+02  0.23009169757E+03 -0.22268920847E+03  0.32695105705E+03  0.00000000000E+00 0. -1.
          2    1    6    6  502    0  0.92713437551E+02 -0.41731803964E+02  0.17896199335E+03  0.20582691765E+03  0.00000000000E+00 0. -1.
          1    1    5    5  503    0 -0.84335112627E+02  0.92260303326E+01 -0.33309905904E+02  0.91143187835E+02  0.00000000000E+00 0. -1.
         -2    1    5    5    0  503 -0.29455110470E+03  0.26518425105E+02  0.33272863037E+02  0.29760823840E+03  0.00000000000E+00 0.  1.
         -3    1    6    6    0  502  0.20738128340E+03 -0.22787068482E+03  0.43341320944E+03  0.53176973947E+03  0.00000000000E+00 0.  1.
<mgrwt>
<rscale>  0 0.14676736E+04</rscale>
<asrwt>0</asrwt>
<pdfrwt beam="1">  1        2 0.89826361E-01 0.14676736E+04</pdfrwt>
<pdfrwt beam="2">  1       -2 0.14189545E+00 0.14676736E+04</pdfrwt>
<totfact> 0.17204447E+01</totfact>
</mgrwt>
</event>
<event>
12    1  0.4612066E-007  0.1755954E+04  0.7818608E-02  0.8730080E-01
         -2   -1    0    0    0  501 -0.00000000000E+00  0.00000000000E+00  0.10948666205E+04  0.10948666205E+04  0.00000000000E+00 0.  1.
          2   -1    0    0  501    0  0.00000000000E+00 -0.00000000000E+00 -0.70405290384E+03  0.70405290384E+03  0.00000000000E+00 0. -1.
         23    2    1    2    0    0  0.46164938925E+03 -0.19257106475E+03  0.55470692460E+03  0.75341558110E+03  0.98648325215E+02 0.  0.
        254    2    1    2    0    0 -0.46164938925E+03  0.19257106475E+03 -0.16389320799E+03  0.10455039432E+04  0.90333478735E+03 0.  0.
        -24    2    4    4    0    0 -0.44023182609E+03  0.95511673351E+01  0.30101067726E+03  0.53907088605E+03  0.78068603540E+02 0.  0.
         24    2    4    4    0    0 -0.21417563157E+02  0.18301989742E+03 -0.46490388525E+03  0.50643305714E+03  0.79898835916E+02 0.  0.
         13    1    3    3    0    0  0.22543202880E+03 -0.11405401819E+03  0.21176211643E+03  0.32965301853E+03  0.00000000000E+00 0. -1.
        -13    1    3    3    0    0  0.23621736045E+03 -0.78517046560E+02  0.34294480817E+03  0.42376256256E+03  0.00000000000E+00 0.  1.
          2    1    6    6  502    0 -0.44595706607E+02  0.70576926803E+02 -0.23641133099E+03  0.25071935918E+03  0.00000000000E+00 0. -1.
          3    1    5    5  503    0 -0.15742812336E+03  0.35112978008E+02  0.85228848443E+02  0.18242941610E+03  0.00000000000E+00 0. -1.
         -4    1    5    5    0  503 -0.28280370273E+03 -0.25561810673E+02  0.21578182882E+03  0.35664146996E+03  0.00000000000E+00 0.  1.
         -1    1    6    6    0  502  0.23178143450E+02  0.11244297061E+03 -0.22849255426E+03  0.25571369796E+03  0.00000000000E+00 0.  1.
<mgrwt>
<rscale>  0 0.17559545E+04</rscale>
<asrwt>0</asrwt>
<pdfrwt beam="1">  1        2 0.10831583E+00 0.17559545E+04</pdfrwt>
<pdfrwt beam="2">  1       -2 0.16844102E+00 0.17559545E+04</pdfrwt>
<totfact> 0.84202191E+00</totfact>
</mgrwt>
</event>
<event>
12    1  0.4612066E-007  0.3775710E+04  0.7818608E-02  0.8051388E-01
          2   -1    0    0  501    0  0.00000000000E+00  0.00000000000E+00  0.24751160911E+04  0.24751160911E+04  0.00000000000E+00 0. -1.
         -2   -1    0    0    0  501 -0.00000000000E+00 -0.00000000000E+00 -0.14399310627E+04  0.14399310627E+04  0.00000000000E+00 0.  1.
         23    2    1    2    0    0 -0.13360999530E+04 -0.11452806778E+04  0.76772157108E+03  0.19220127204E+04  0.88913280246E+02 0.  0.
        254    2    1    2    0    0  0.13360999530E+04  0.11452806778E+04  0.26746345725E+03  0.19930344334E+04  0.89655933236E+03 0.  0.
        -24    2    4    4    0    0  0.14069132358E+04  0.83260633505E+03  0.28902055922E+03  0.16618968617E+04  0.75697642864E+02 0.  0.
         24    2    4    4    0    0 -0.70813282835E+02  0.31267434275E+03 -0.21557101976E+02  0.33113757165E+03  0.80047592558E+02 0.  0.
         11    1    3    3    0    0 -0.98120561703E+03 -0.87234482282E+03  0.60556346808E+03  0.14458413006E+04  0.00000000000E+00 0. -1.
        -11    1    3    3    0    0 -0.35489433596E+03 -0.27293585498E+03  0.16215810300E+03  0.47617141976E+03  0.00000000000E+00 0.  1.
          2    1    6    6  502    0 -0.73080351759E+02  0.29592729273E+03 -0.38461470187E+02  0.30723441390E+03  0.00000000000E+00 0. -1.
          3    1    5    5  503    0  0.87973214253E+03  0.55851135221E+03  0.16761677245E+03  0.10554425402E+04  0.00000000000E+00 0. -1.
         -4    1    5    5    0  503  0.52718109329E+03  0.27409498283E+03  0.12140378677E+03  0.60645432160E+03  0.00000000000E+00 0.  1.
         -1    1    6    6    0  502  0.22670689244E+01  0.16747050017E+02  0.16904368211E+02  0.23903157750E+02  0.00000000000E+00 0.  1.
<mgrwt>
<rscale>  0 0.37757100E+04</rscale>
<asrwt>0</asrwt>
<pdfrwt beam="1">  1        2 0.38078709E+00 0.37757100E+04</pdfrwt>
<pdfrwt beam="2">  1       -2 0.22152786E+00 0.37757100E+04</pdfrwt>
<totfact> 0.27944406E-01</totfact>
</mgrwt>
</event>
<event>
12    1  0.4612066E-007  0.1303065E+04  0.7818608E-02  0.9027138E-01
          2   -1    0    0  501    0  0.00000000000E+00  0.00000000000E+00  0.23152434950E+04  0.23152434950E+04  0.00000000000E+00 0. -1.
         -2   -1    0    0    0  501 -0.00000000000E+00 -0.00000000000E+00 -0.18334775114E+03  0.18334775114E+03  0.00000000000E+00 0.  1.
         23    2    1    2    0    0 -0.10216653392E+03 -0.31621377101E+03  0.53817667980E+03  0.64032055049E+03  0.99735244920E+02 0.  0.
        254    2    1    2    0    0  0.10216653392E+03  0.31621377101E+03  0.15937190641E+04  0.18582706957E+04  0.89599127984E+03 0.  0.
        -24    2    4    4    0    0  0.75298304819E+02  0.60703378532E+03  0.80781588613E+03  0.10164430823E+04  0.80188418107E+02 0.  0.
         24    2    4    4    0    0  0.26868229097E+02 -0.29082001432E+03  0.78590317798E+03  0.84182761342E+03  0.75708276242E+02 0.  0.
         13    1    3    3    0    0 -0.31088669052E+01 -0.10804130290E+03  0.24163496503E+03  0.26470746969E+03  0.00000000000E+00 0. -1.
        -13    1    3    3    0    0 -0.99057667011E+02 -0.20817246811E+03  0.29654171477E+03  0.37561308080E+03  0.00000000000E+00 0.  1.
          2    1    6    6  502    0 -0.37799834333E+01  0.77033829346E+00  0.10502981091E+01  0.39981022949E+01  0.00000000000E+00 0. -1.
          3    1    5    5  503    0  0.15508508053E+02  0.43486535599E+02  0.34166294519E+02  0.57436297596E+02  0.00000000000E+00 0. -1.
         -4    1    5    5    0  503  0.59789796766E+02  0.56354724972E+03  0.77364959161E+03  0.95900678468E+03  0.00000000000E+00 0.  1.
         -1    1    6    6    0  502  0.30648212530E+02 -0.29159035261E+03  0.78485287987E+03  0.83782951112E+03  0.00000000000E+00 0.  1.
<mgrwt>
<rscale>  0 0.13030651E+04</rscale>
<asrwt>0</asrwt>
<pdfrwt beam="1">  1        2 0.35619129E+00 0.13030651E+04</pdfrwt>
<pdfrwt beam="2">  1       -2 0.28207348E-01 0.13030651E+04</pdfrwt>
<totfact> 0.50229451E+01</totfact>
</mgrwt>
</event>
<event>
12    1  0.4612066E-007  0.3132875E+04  0.7818608E-02  0.8206773E-01
         -1   -1    0    0    0  501 -0.00000000000E+00  0.00000000000E+00  0.16639249383E+04  0.16639249383E+04  0.00000000000E+00 0.  1.
          1   -1    0    0  501    0  0.00000000000E+00 -0.00000000000E+00 -0.14746617481E+04  0.14746617481E+04  0.00000000000E+00 0. -1.
         23    2    1    2    0    0 -0.10077438321E+04 -0.83392573125E+03 -0.50692892549E+03  0.14058771060E+04  0.92378272740E+02 0.  0.
        254    2    1    2    0    0  0.10077438321E+04  0.83392573125E+03  0.69619211570E+03  0.17327095804E+04  0.89811985367E+03 0.  0.
        -24    2    4    4    0    0 -0.67175802388E+02 -0.67890479137E+02  0.21612257152E+03  0.24731323156E+03  0.73028508145E+02 0.  0.
         24    2    4    4    0    0  0.10749196345E+04  0.90181621039E+03  0.48006954418E+03  0.14853963488E+04  0.84916711419E+02 0.  0.
         13    1    3    3    0    0 -0.35821659894E+03 -0.24916146227E+03 -0.14336822709E+03  0.45929839384E+03  0.00000000000E+00 0.  1.
        -13    1    3    3    0    0 -0.64952723313E+03 -0.58476426898E+03 -0.36356069840E+03  0.94657871214E+03  0.00000000000E+00 0. -1.
          2    1    6    6  502    0  0.58376685826E+03  0.53919625198E+03  0.25206832601E+03  0.83369945660E+03  0.00000000000E+00 0. -1.
          1    1    5    5  503    0 -0.28218835305E+02 -0.74039330840E+02  0.12466335555E+03  0.14771282068E+03  0.00000000000E+00 0. -1.
         -2    1    5    5    0  503 -0.38956967083E+02  0.61488517035E+01  0.91459215970E+02  0.99600410880E+02  0.00000000000E+00 0.  1.
         -1    1    6    6    0  502  0.49115277620E+03  0.36261995840E+03  0.22800121817E+03  0.65169689219E+03  0.00000000000E+00 0.  1.
<mgrwt>
<rscale>  0 0.31328750E+04</rscale>
<asrwt>0</asrwt>
<pdfrwt beam="1">  1        1 0.22687104E+00 0.31328750E+04</pdfrwt>
<pdfrwt beam="2">  1       -1 0.25598845E+00 0.31328750E+04</pdfrwt>
<totfact> 0.36525394E-01</totfact>
</mgrwt>
</event>
<event>
12    1  0.4612066E-007  0.1863305E+04  0.7818608E-02  0.8673341E-01
          2   -1    0    0  501    0  0.00000000000E+00  0.00000000000E+00  0.47140381548E+03  0.47140381548E+03  0.00000000000E+00 0. -1.
         -2   -1    0    0    0  501 -0.00000000000E+00 -0.00000000000E+00 -0.18412578172E+04  0.18412578172E+04  0.00000000000E+00 0.  1.
         23    2    1    2    0    0  0.73672455841E+02 -0.70392889992E+03 -0.54614226991E+03  0.89865852308E+03  0.91499919334E+02 0.  0.
        254    2    1    2    0    0 -0.73672455841E+02  0.70392889992E+03 -0.82371173178E+03  0.14140031096E+04  0.90551656522E+03 0.  0.
        -24    2    4    4    0    0  0.98668433371E+02  0.71529645519E+03 -0.94206960831E+03  0.11897514024E+04  0.81417283577E+02 0.  0.
         24    2    4    4    0    0 -0.17234088921E+03 -0.11367555274E+02  0.11835787654E+03  0.22425170716E+03  0.80309637144E+02 0.  0.
         11    1    3    3    0    0 -0.34882819925E+01 -0.93968383288E+02 -0.39538614863E+02  0.10200748617E+03  0.00000000000E+00 0. -1.
        -11    1    3    3    0    0  0.77160737834E+02 -0.60996051663E+03 -0.50660365505E+03  0.79665103692E+03  0.00000000000E+00 0.  1.
          4    1    6    6  502    0 -0.16462858205E+03  0.11595516087E+02  0.94139590435E+02  0.18999812764E+03  0.00000000000E+00 0. -1.
          1    1    5    5  503    0  0.94425091604E+02  0.70537220449E+03 -0.90590933893E+03  0.11520146593E+04  0.00000000000E+00 0. -1.
         -2    1    5    5    0  503  0.42433417667E+01  0.99242507000E+01 -0.36160269377E+02  0.37736743138E+02  0.00000000000E+00 0.  1.
         -3    1    6    6    0  502 -0.77123071668E+01 -0.22963071361E+02  0.24218286100E+02  0.34253579518E+02  0.00000000000E+00 0.  1.
<mgrwt>
<rscale>  0 0.18633045E+04</rscale>
<asrwt>0</asrwt>
<pdfrwt beam="1">  1        2 0.72523665E-01 0.18633045E+04</pdfrwt>
<pdfrwt beam="2">  1       -2 0.28327043E+00 0.18633045E+04</pdfrwt>
<totfact> 0.24930387E+00</totfact>
</mgrwt>
</event>
<event>
12    1  0.4612066E-007  0.2552237E+04  0.7818608E-02  0.8384609E-01
          1   -1    0    0  501    0  0.00000000000E+00  0.00000000000E+00  0.31374071594E+04  0.31374071594E+04  0.00000000000E+00 0. -1.
         -1   -1    0    0    0  501 -0.00000000000E+00 -0.00000000000E+00 -0.51905213166E+03  0.51905213166E+03  0.00000000000E+00 0.  1.
         23    2    1    2    0    0  0.44362720796E+03 -0.57623828542E+03 -0.61707513468E+02  0.73594757337E+03  0.94632723221E+02 0.  0.
        254    2    1    2    0    0 -0.44362720796E+03  0.57623828542E+03  0.26800625412E+04  0.29205117177E+04  0.90432173872E+03 0.  0.
        -24    2    4    4    0    0  0.16193899592E+03 -0.12420212204E+03  0.68979691169E+03  0.72396335182E+03  0.81564390993E+02 0.  0.
         24    2    4    4    0    0 -0.60556620388E+03  0.70044040745E+03  0.19902656295E+04  0.21965483659E+04  0.79625723655E+02 0.  0.
         11    1    3    3    0    0  0.13704049157E+03 -0.21851716179E+03  0.16117100862E+02  0.25843685354E+03  0.00000000000E+00 0. -1.
        -11    1    3    3    0    0  0.30658671639E+03 -0.35772112363E+03 -0.77824614330E+02  0.47751071983E+03  0.00000000000E+00 0.  1.
          2    1    6    6  502    0 -0.15442077470E+03  0.18538604889E+03  0.44000176988E+03  0.50181203680E+03  0.00000000000E+00 0. -1.
          3    1    5    5  503    0  0.10891853689E+03 -0.91026672097E+02  0.58452476022E+03  0.60151333985E+03  0.00000000000E+00 0. -1.
         -4    1    5    5    0  503  0.53020459034E+02 -0.33175449940E+02  0.10527215147E+03  0.12245001197E+03  0.00000000000E+00 0.  1.
         -1    1    6    6    0  502 -0.45114542918E+03  0.51505435856E+03  0.15502638596E+04  0.16947363291E+04  0.00000000000E+00 0.  1.
<mgrwt>
<rscale>  0 0.25522366E+04</rscale>
<asrwt>0</asrwt>
<pdfrwt beam="1">  1        1 0.48267801E+00 0.25522366E+04</pdfrwt>
<pdfrwt beam="2">  1       -1 0.79854176E-01 0.25522366E+04</pdfrwt>
<totfact> 0.65565957E-01</totfact>
</mgrwt>
</event>
<event>
12    1  0.4612066E-007  0.1342389E+04  0.7818608E-02  0.8996610E-01
         -1   -1    0    0    0  501 -0.00000000000E+00  0.00000000000E+00  0.51789808316E+03  0.51789808316E+03  0.00000000000E+00 0.  1.
          1   -1    0    0  501    0  0.00000000000E+00 -0.00000000000E+00 -0.86986566925E+03  0.86986566925E+03  0.00000000000E+00 0. -1.
         23    2    1    2    0    0  0.17049469962E+03 -0.30728689302E+03  0.57349374339E+01  0.36310282428E+03  0.91198104547E+02 0.  0.
        254    2    1    2    0    0 -0.17049469962E+03  0.30728689302E+03 -0.35770252352E+03  0.10246609281E+04  0.89358001606E+03 0.  0.
        -24    2    4    4    0    0 -0.33320227369E+03  0.55550231986E+03 -0.23097064759E+03  0.69228333335E+03  0.79386340332E+02 0.  0.
         24    2    4    4    0    0  0.16270757407E+03 -0.24821542684E+03 -0.12673187593E+03  0.33237759479E+03  0.79556548177E+02 0.  0.
         11    1    3    3    0    0  0.16588645108E+03 -0.31251486339E+03  0.11586416073E+02  0.35400296543E+03  0.00000000000E+00 0. -1.
        -11    1    3    3    0    0  0.46082485361E+01  0.52279703763E+01 -0.58514786387E+01  0.90998588497E+01  0.00000000000E+00 0.  1.
          4    1    6    6  502    0  0.82049807553E+02 -0.17442094853E+03 -0.10955588830E+03  0.22171452561E+03  0.00000000000E+00 0. -1.
          3    1    5    5  503    0 -0.67138267276E+02  0.14201070656E+03 -0.24434556963E+02  0.15897054848E+03  0.00000000000E+00 0. -1.
         -4    1    5    5    0  503 -0.26606400641E+03  0.41349161330E+03 -0.20653609063E+03  0.53331278487E+03  0.00000000000E+00 0.  1.
         -3    1    6    6    0  502  0.80657766515E+02 -0.73794478316E+02 -0.17175987631E+02  0.11066306918E+03  0.00000000000E+00 0.  1.
<mgrwt>
<rscale>  0 0.13423886E+04</rscale>
<asrwt>0</asrwt>
<pdfrwt beam="1">  1        1 0.13382549E+00 0.13423886E+04</pdfrwt>
<pdfrwt beam="2">  1       -1 0.79676628E-01 0.13423886E+04</pdfrwt>
<totfact> 0.29709704E+01</totfact>
</mgrwt>
</event>
<event>
12    1  0.4612066E-007  0.3813248E+04  0.7818608E-02  0.8043318E-01
          2   -1    0    0  501    0  0.00000000000E+00  0.00000000000E+00  0.16198898857E+04  0.16198898857E+04  0.00000000000E+00 0. -1.
         -2   -1    0    0    0  501 -0.00000000000E+00 -0.00000000000E+00 -0.22441122401E+04  0.22441122401E+04  0.00000000000E+00 0.  1.
         23    2    1    2    0    0  0.84963474223E+03 -0.17452941536E+03  0.13044368386E+04  0.15691186224E+04  0.90763832943E+02 0.  0.
        254    2    1    2    0    0 -0.84963474223E+03  0.17452941536E+03 -0.19286591929E+04  0.22948835034E+04  0.89130482980E+03 0.  0.
        -24    2    4    4    0    0 -0.81099442990E+02 -0.31093221177E+03 -0.52199614371E+03  0.61818917539E+03  0.80136898748E+02 0.  0.
         24    2    4    4    0    0 -0.76853529924E+03  0.48546162714E+03 -0.14066630492E+04  0.16766943280E+04  0.79268139438E+02 0.  0.
         13    1    3    3    0    0  0.14260949235E+03 -0.44826408563E+02  0.17287964594E+03  0.22854812664E+03  0.00000000000E+00 0.  1.
        -13    1    3    3    0    0  0.70702524988E+03 -0.12970300680E+03  0.11315571926E+04  0.13405704958E+04  0.00000000000E+00 0. -1.
          4    1    6    6  502    0 -0.67527045273E+03  0.42892638826E+03 -0.12813151580E+04  0.15105418117E+04  0.00000000000E+00 0. -1.
          3    1    5    5  503    0 -0.54761500201E+02 -0.25102474063E+03 -0.35012433077E+03  0.43428019677E+03  0.00000000000E+00 0. -1.
         -4    1    5    5    0  503 -0.26337942789E+02 -0.59907471139E+02 -0.17187181295E+03  0.18390897861E+03  0.00000000000E+00 0.  1.
         -3    1    6    6    0  502 -0.93264846509E+02  0.56535238873E+02 -0.12534789118E+03  0.16615251623E+03  0.00000000000E+00 0.  1.
<mgrwt>
<rscale>  0 0.38132478E+04</rscale>
<asrwt>0</asrwt>
<pdfrwt beam="1">  1        2 0.24921383E+00 0.38132478E+04</pdfrwt>
<pdfrwt beam="2">  1       -2 0.34524804E+00 0.38132478E+04</pdfrwt>
<totfact> 0.14506762E-01</totfact>
</mgrwt>
</event>
<event>
12    1  0.4612066E-007  0.2174175E+04  0.7818608E-02  0.8529255E-01
         -2   -1    0    0    0  501 -0.00000000000E+00  0.00000000000E+00  0.46886190406E+03  0.46886190406E+03  0.00000000000E+00 0.  1.
          2   -1    0    0  501    0  0.00000000000E+00 -0.00000000000E+00 -0.25204837643E+04  0.25204837643E+04  0.00000000000E+00 0. -1.
         23    2    1    2    0    0  0.24586538471E+03 -0.77745510550E+03 -0.13543524070E+04  0.15837300248E+04  0.95100581482E+02 0.  0.
        254    2    1    2    0    0 -0.24586538471E+03  0.77745510550E+03 -0.69726945323E+03  0.14056156436E+04  0.90812136774E+03 0.  0.
        -24    2    4    4    0    0 -0.54881801334E+03  0.25322553898E+03 -0.33809003821E+03  0.69711579066E+03  0.79631440366E+02 0.  0.
         24    2    4    4    0    0  0.30295262862E+03  0.52422956652E+03 -0.35917941502E+03  0.70849985290E+03  0.79782553101E+02 0.  0.
         11    1    3    3    0    0  0.19579758126E+02 -0.14714481043E+03 -0.29907380250E+03  0.33388636017E+03  0.00000000000E+00 0. -1.
        -11    1    3    3    0    0  0.22628562659E+03 -0.63031029507E+03 -0.10552786045E+04  0.12498436646E+04  0.00000000000E+00 0.  1.
          2    1    6    6  502    0  0.28909220340E+03  0.52153681448E+03 -0.35398351697E+03  0.69345459925E+03  0.00000000000E+00 0. -1.
          1    1    5    5  503    0 -0.41039572849E+03  0.15768845460E+03 -0.22009266948E+03  0.49166155619E+03  0.00000000000E+00 0. -1.
         -2    1    5    5    0  503 -0.13842228485E+03  0.95537084381E+02 -0.11799736873E+03  0.20545423447E+03  0.00000000000E+00 0.  1.
         -1    1    6    6    0  502  0.13860425225E+02  0.26927520378E+01 -0.51958980451E+01  0.15045253652E+02  0.00000000000E+00 0.  1.
<mgrwt>
<rscale>  0 0.21741746E+04</rscale>
<asrwt>0</asrwt>
<pdfrwt beam="1">  1        2 0.38776673E+00 0.21741746E+04</pdfrwt>
<pdfrwt beam="2">  1       -2 0.72132600E-01 0.21741746E+04</pdfrwt>
<totfact> 0.54007400E+00</totfact>
</mgrwt>
</event>
<event>
12    1  0.4612066E-007  0.2183187E+04  0.7818608E-02  0.8525459E-01
         -2   -1    0    0    0  501 -0.00000000000E+00  0.00000000000E+00  0.11967081161E+04  0.11967081161E+04  0.00000000000E+00 0.  1.
          2   -1    0    0  501    0  0.00000000000E+00 -0.00000000000E+00 -0.99571166527E+03  0.99571166527E+03  0.00000000000E+00 0. -1.
         23    2    1    2    0    0  0.25616512853E+03 -0.10300019995E+03  0.94728726617E+03  0.99120247958E+03  0.94337567353E+02 0.  0.
        254    2    1    2    0    0 -0.25616512853E+03  0.10300019995E+03 -0.74629081537E+03  0.12012173018E+04  0.89985743911E+03 0.  0.
        -24    2    4    4    0    0 -0.31855956626E+03  0.33400415026E+03 -0.63860067617E+02  0.47312010164E+03  0.82009467099E+02 0.  0.
         24    2    4    4    0    0  0.62394437733E+02 -0.23100395031E+03 -0.68243074775E+03  0.72809720014E+03  0.84604470641E+02 0.  0.
         13    1    3    3    0    0  0.22936725869E+03 -0.66400554743E+02  0.69517665595E+03  0.73504350620E+03  0.00000000000E+00 0.  1.
        -13    1    3    3    0    0  0.26797869833E+02 -0.36599645204E+02  0.25211061022E+03  0.25615897338E+03  0.00000000000E+00 0. -1.
          4    1    6    6  502    0  0.15542585859E+02 -0.84617035462E+01 -0.12206466341E+03  0.12334080613E+03  0.00000000000E+00 0. -1.
          3    1    5    5  503    0 -0.59197377385E+02  0.63070627519E+02  0.20028120896E+02  0.88788282851E+02  0.00000000000E+00 0. -1.
         -2    1    5    5    0  503 -0.25936218887E+03  0.27093352274E+03 -0.83888188513E+02  0.38433181879E+03  0.00000000000E+00 0.  1.
         -3    1    6    6    0  502  0.46851851874E+02 -0.22254224676E+03 -0.56036608433E+03  0.60475639401E+03  0.00000000000E+00 0.  1.
<mgrwt>
<rscale>  0 0.21831869E+04</rscale>
<asrwt>0</asrwt>
<pdfrwt beam="1">  1        2 0.15318641E+00 0.21831869E+04</pdfrwt>
<pdfrwt beam="2">  1       -2 0.18410894E+00 0.21831869E+04</pdfrwt>
<totfact> 0.39414901E+00</totfact>
</mgrwt>
</event>
<event>
12    1  0.4612066E-007  0.2993329E+04  0.7818608E-02  0.8245639E-01
         -1   -1    0    0    0  501 -0.00000000000E+00  0.00000000000E+00  0.12225964853E+04  0.12225964853E+04  0.00000000000E+00 0.  1.
          1   -1    0    0  501    0  0.00000000000E+00 -0.00000000000E+00 -0.18321695117E+04  0.18321695117E+04  0.00000000000E+00 0. -1.
         23    2    1    2    0    0 -0.11475006335E+04 -0.58665948836E+02  0.45018512489E+03  0.12373440783E+04  0.90301296367E+02 0.  0.
        254    2    1    2    0    0  0.11475006335E+04  0.58665948836E+02 -0.10597581513E+04  0.18174219187E+04  0.92721933426E+03 0.  0.
        -24    2    4    4    0    0 -0.50731107180E+02 -0.97530195300E+01 -0.46669227237E+03  0.47636437859E+03  0.80327937075E+02 0.  0.
         24    2    4    4    0    0  0.11982317407E+04  0.68418968366E+02 -0.59306587893E+03  0.13410575401E+04  0.79168993232E+02 0.  0.
         11    1    3    3    0    0 -0.39321552161E+03  0.12960572199E+02  0.12476240343E+03  0.41273730165E+03  0.00000000000E+00 0. -1.
        -11    1    3    3    0    0 -0.75428511188E+03 -0.71626521035E+02  0.32542272146E+03  0.82460677669E+03  0.00000000000E+00 0.  1.
          2    1    6    6  502    0  0.85251670328E+03  0.68555950157E+02 -0.38867752226E+03  0.93944391210E+03  0.00000000000E+00 0. -1.
          1    1    5    5  503    0  0.68491540153E+01 -0.28214969111E+02 -0.82888603441E+02  0.87826624511E+02  0.00000000000E+00 0. -1.
         -2    1    5    5    0  503 -0.57580261195E+02  0.18461949581E+02 -0.38380366893E+03  0.38853775408E+03  0.00000000000E+00 0.  1.
         -1    1    6    6    0  502  0.34571503739E+03 -0.13698179095E+00 -0.20438835666E+03  0.40161362798E+03  0.00000000000E+00 0.  1.
<mgrwt>
<rscale>  0 0.29933286E+04</rscale>
<asrwt>0</asrwt>
<pdfrwt beam="1">  1        1 0.28187223E+00 0.29933286E+04</pdfrwt>
<pdfrwt beam="2">  1       -1 0.18809177E+00 0.29933286E+04</pdfrwt>
<totfact> 0.60124195E-01</totfact>
</mgrwt>
</event>
<event>
12    1  0.4612066E-007  0.1111677E+04  0.7818608E-02  0.9193885E-01
         -2   -1    0    0    0  501 -0.00000000000E+00  0.00000000000E+00  0.20637570742E+03  0.20637570742E+03  0.00000000000E+00 0.  1.
          2   -1    0    0  501    0  0.00000000000E+00 -0.00000000000E+00 -0.14970587805E+04  0.14970587805E+04  0.00000000000E+00 0. -1.
         23    2    1    2    0    0 -0.12511664298E+03  0.26477919577E+02 -0.48040499335E+02  0.16328880602E+03  0.89443222313E+02 0.  0.
        254    2    1    2    0    0  0.12511664298E+03 -0.26477919577E+02 -0.12426425738E+04  0.15401456820E+04  0.90085120907E+03 0.  0.
        -24    2    4    4    0    0 -0.35431020033E+03 -0.15795840062E+03 -0.66589725370E+03  0.77453444585E+03  0.77445987202E+02 0.  0.
         24    2    4    4    0    0  0.47942684332E+03  0.13148048104E+03 -0.57674532009E+03  0.76561123611E+03  0.79926126036E+02 0.  0.
         11    1    3    3    0    0 -0.78544260586E+02  0.41738895591E+02  0.74468088710E+01  0.89256883423E+02  0.00000000000E+00 0.  1.
        -11    1    3    3    0    0 -0.46572382397E+02 -0.15260976014E+02 -0.55487308206E+02  0.74031922594E+02  0.00000000000E+00 0. -1.
          4    1    6    6  502    0  0.79981761106E+02  0.18984356256E+01 -0.61493639291E+02  0.10090665905E+03  0.00000000000E+00 0. -1.
          1    1    5    5  503    0 -0.10069949005E+03 -0.81493325526E+01 -0.17010121201E+03  0.19784140428E+03  0.00000000000E+00 0. -1.
         -2    1    5    5    0  503 -0.25361071028E+03 -0.14980906807E+03 -0.49579604168E+03  0.57669304157E+03  0.00000000000E+00 0.  1.
         -3    1    6    6    0  502  0.39944508221E+03  0.12958204542E+03 -0.51525168080E+03  0.66470457706E+03  0.00000000000E+00 0.  1.
<mgrwt>
<rscale>  0 0.11116772E+04</rscale>
<asrwt>0</asrwt>
<pdfrwt beam="1">  1        2 0.23031673E+00 0.11116772E+04</pdfrwt>
<pdfrwt beam="2">  1       -2 0.31750109E-01 0.11116772E+04</pdfrwt>
<totfact> 0.11647180E+02</totfact>
</mgrwt>
</event>
<event>
12    1  0.4612066E-007  0.2939362E+04  0.7818608E-02  0.8261261E-01
          1   -1    0    0  501    0  0.00000000000E+00  0.00000000000E+00  0.10968365126E+04  0.10968365126E+04  0.00000000000E+00 0.  1.
         -1   -1    0    0    0  501 -0.00000000000E+00 -0.00000000000E+00 -0.19692657043E+04  0.19692657043E+04  0.00000000000E+00 0. -1.
         23    2    1    2    0    0  0.12968720889E+04  0.35830363543E+02 -0.52447245890E+03  0.14024322339E+04  0.92648694524E+02 0.  0.
        254    2    1    2    0    0 -0.12968720889E+04 -0.35830363543E+02 -0.34795673282E+03  0.16636699830E+04  0.98161239534E+03 0.  0.
        -24    2    4    4    0    0 -0.13014975628E+04  0.62077753154E+02 -0.55695756274E+03  0.14192986262E+04  0.80357391344E+02 0.  0.
         24    2    4    4    0    0  0.46254738938E+01 -0.97908116697E+02  0.20900082991E+03  0.24437135683E+03  0.80178668041E+02 0.  0.
         13    1    3    3    0    0  0.94115592048E+03 -0.15195911617E+02 -0.37495634546E+03  0.10132115492E+04  0.00000000000E+00 0.  1.
        -13    1    3    3    0    0  0.35571616839E+03  0.51026275160E+02 -0.14951611344E+03  0.38922068469E+03  0.00000000000E+00 0. -1.
          2    1    6    6  502    0  0.42217431726E+01 -0.11175970770E+03  0.17536291547E+03  0.20799088322E+03  0.00000000000E+00 0. -1.
          3    1    5    5  503    0 -0.84153126266E+03  0.78558088296E+02 -0.36152458230E+03  0.91926397888E+03  0.00000000000E+00 0. -1.
         -4    1    5    5    0  503 -0.45996630010E+03 -0.16480335142E+02 -0.19543298044E+03  0.50003464732E+03  0.00000000000E+00 0.  1.
         -1    1    6    6    0  502  0.40373072116E+00  0.13851591002E+02  0.33637914438E+02  0.36380473603E+02  0.00000000000E+00 0.  1.
<mgrwt>
<rscale>  0 0.29393622E+04</rscale>
<asrwt>0</asrwt>
<pdfrwt beam="1">  1        1 0.16874408E+00 0.29393622E+04</pdfrwt>
<pdfrwt beam="2">  1       -1 0.30296395E+00 0.29393622E+04</pdfrwt>
<totfact> 0.34453657E-01</totfact>
</mgrwt>
</event>
<event>
12    1  0.4612066E-007  0.1448675E+04  0.7818608E-02  0.8919319E-01
          2   -1    0    0  501    0  0.00000000000E+00  0.00000000000E+00  0.15008254332E+04  0.15008254332E+04  0.00000000000E+00 0.  1.
         -2   -1    0    0    0  501 -0.00000000000E+00 -0.00000000000E+00 -0.34958440766E+03  0.34958440766E+03  0.00000000000E+00 0. -1.
         23    2    1    2    0    0 -0.37781853707E+03 -0.15070188943E+03  0.14849007859E+03  0.44237521329E+03  0.90490991065E+02 0.  0.
        254    2    1    2    0    0  0.37781853707E+03  0.15070188943E+03  0.10027509469E+04  0.14080346275E+04  0.90088520044E+03 0.  0.
        -24    2    4    4    0    0  0.16891959512E+03 -0.14461637138E+03 -0.90814676585E+02  0.25341193269E+03  0.80762476805E+02 0.  0.
         24    2    4    4    0    0  0.20889894195E+03  0.29531826081E+03  0.10935656235E+04  0.11546226948E+04  0.80100882903E+02 0.  0.
         13    1    3    3    0    0 -0.24684778155E+03 -0.80271643520E+02  0.50926196476E+02  0.26452002098E+03  0.00000000000E+00 0. -1.
        -13    1    3    3    0    0 -0.13097075552E+03 -0.70430245906E+02  0.97563882117E+02  0.17785519231E+03  0.00000000000E+00 0.  1.
          4    1    6    6  502    0  0.15977514392E+03  0.24915096108E+03  0.96617976047E+03  0.10104987024E+04  0.00000000000E+00 0. -1.
          3    1    5    5  503    0  0.14498336942E+03 -0.11224024431E+03 -0.10430989034E+03  0.21094692004E+03  0.00000000000E+00 0. -1.
         -4    1    5    5    0  503  0.23936225698E+02 -0.32376127073E+02  0.13495213759E+02  0.42465012649E+02  0.00000000000E+00 0.  1.
         -3    1    6    6    0  502  0.49123798031E+02  0.46167299732E+02  0.12738586301E+03  0.14412399243E+03  0.00000000000E+00 0.  1.
<mgrwt>
<rscale>  0 0.14486755E+04</rscale>
<asrwt>0</asrwt>
<pdfrwt beam="1">  1        2 0.23089622E+00 0.14486755E+04</pdfrwt>
<pdfrwt beam="2">  1       -2 0.53782217E-01 0.14486755E+04</pdfrwt>
<totfact> 0.40047501E+01</totfact>
</mgrwt>
</event>
<event>
12    1  0.4751793E-007  0.1717109E+04  0.7818608E-02  0.8751666E-01
          1   -1    0    0  501    0  0.00000000000E+00  0.00000000000E+00  0.13025004730E+04  0.13025004730E+04  0.00000000000E+00 0. -1.
         -1   -1    0    0    0  501 -0.00000000000E+00 -0.00000000000E+00 -0.56592388034E+03  0.56592388034E+03  0.00000000000E+00 0.  1.
         23    2    1    2    0    0  0.16481507009E+02 -0.53396311961E+03  0.59565638945E+03  0.80533343800E+03  0.91472175536E+02 0.  0.
        254    2    1    2    0    0 -0.16481507009E+02  0.53396311961E+03  0.14092020316E+03  0.10630909153E+04  0.90824860987E+03 0.  0.
        -24    2    4    4    0    0  0.77178859011E+02  0.56928625417E+03  0.44652869839E+03  0.73204602333E+03  0.80374662123E+02 0.  0.
         24    2    4    4    0    0 -0.93660366021E+02 -0.35323134566E+02 -0.30560849523E+03  0.33104489196E+03  0.78575951391E+02 0.  0.
         11    1    3    3    0    0  0.31440856978E+01 -0.48356881192E+03  0.56916673249E+03  0.74685972613E+03  0.00000000000E+00 0. -1.
        -11    1    3    3    0    0  0.13337421312E+02 -0.50394307691E+02  0.26489656960E+02  0.58473711877E+02  0.00000000000E+00 0.  1.
          2    1    6    6  502    0 -0.10006349904E+03 -0.48892733391E+02 -0.25500639762E+03  0.27826510030E+03  0.00000000000E+00 0. -1.
          3    1    5    5  503    0  0.73384872117E+02  0.57099370364E+03  0.44494033438E+03  0.72759264029E+03  0.00000000000E+00 0. -1.
         -4    1    5    5    0  503  0.37939868943E+01 -0.17074494622E+01  0.15883640082E+01  0.44533830334E+01  0.00000000000E+00 0.  1.
         -1    1    6    6    0  502  0.64031330232E+01  0.13569598825E+02 -0.50602097609E+02  0.52779791656E+02  0.00000000000E+00 0.  1.
<mgrwt>
<rscale>  0 0.17171093E+04</rscale>
<asrwt>0</asrwt>
<pdfrwt beam="1">  1        1 0.20038469E+00 0.17171093E+04</pdfrwt>
<pdfrwt beam="2">  1       -1 0.87065213E-01 0.17171093E+04</pdfrwt>
<totfact> 0.11122787E+01</totfact>
</mgrwt>
</event>
<event>
12    1  0.4612066E-007  0.1137521E+04  0.7818608E-02  0.9169373E-01
          2   -1    0    0  501    0  0.00000000000E+00  0.00000000000E+00  0.16708522748E+04  0.16708522748E+04  0.00000000000E+00 0. -1.
         -2   -1    0    0    0  501 -0.00000000000E+00 -0.00000000000E+00 -0.19360702894E+03  0.19360702894E+03  0.00000000000E+00 0.  1.
         23    2    1    2    0    0 -0.79935917102E+02  0.13774727991E+03  0.11454375419E+03  0.21843537691E+03  0.96071214723E+02 0.  0.
        254    2    1    2    0    0  0.79935917102E+02 -0.13774727991E+03  0.13627014917E+04  0.16460239269E+04  0.90943683031E+03 0.  0.
        -24    2    4    4    0    0 -0.22505408973E+03 -0.29621729038E+03  0.11975270057E+04  0.12563073295E+04  0.76440502534E+02 0.  0.
         24    2    4    4    0    0  0.30499000683E+03  0.15847001046E+03  0.16517448605E+03  0.38971659737E+03  0.80403774421E+02 0.  0.
         11    1    3    3    0    0 -0.18881485808E+02  0.98115728319E+02  0.24920231026E+02  0.10297681566E+03  0.00000000000E+00 0.  1.
        -11    1    3    3    0    0 -0.61054431294E+02  0.39631551593E+02  0.89623523160E+02  0.11545856125E+03  0.00000000000E+00 0. -1.
          4    1    6    6  502    0  0.16806533355E+03  0.42909129343E+02  0.72534134444E+02  0.18801156980E+03  0.00000000000E+00 0. -1.
          3    1    5    5  503    0 -0.19685350452E+03 -0.21045628501E+03  0.95457671752E+03  0.99712579937E+03  0.00000000000E+00 0. -1.
         -4    1    5    5    0  503 -0.28200585206E+02 -0.85761005369E+02  0.24295028814E+03  0.25918153012E+03  0.00000000000E+00 0.  1.
         -3    1    6    6    0  502  0.13692467328E+03  0.11556088112E+03  0.92640351601E+02  0.20170502756E+03  0.00000000000E+00 0.  1.
<mgrwt>
<rscale>  0 0.11375214E+04</rscale>
<asrwt>0</asrwt>
<pdfrwt beam="1">  1        2 0.25705419E+00 0.11375214E+04</pdfrwt>
<pdfrwt beam="2">  1       -2 0.29785698E-01 0.11375214E+04</pdfrwt>
<totfact> 0.10478871E+02</totfact>
</mgrwt>
</event>
<event>
12    1  0.4612066E-007  0.2718097E+04  0.7818608E-02  0.8329157E-01
         -1   -1    0    0    0  501 -0.00000000000E+00  0.00000000000E+00  0.13901548459E+04  0.13901548459E+04  0.00000000000E+00 0.  1.
          1   -1    0    0  501    0  0.00000000000E+00 -0.00000000000E+00 -0.13286379120E+04  0.13286379120E+04  0.00000000000E+00 0. -1.
         23    2    1    2    0    0 -0.11676435809E+04 -0.44846950510E+02  0.33065083598E+03  0.12178281619E+04  0.91502325847E+02 0.  0.
        254    2    1    2    0    0  0.11676435809E+04  0.44846950510E+02 -0.26913390211E+03  0.15009645959E+04  0.90280611422E+03 0.  0.
        -24    2    4    4    0    0  0.53468111051E+03  0.77388549194E+02  0.31849221258E+03  0.63304408761E+03  0.86224415890E+02 0.  0.
         24    2    4    4    0    0  0.63296247041E+03 -0.32541598684E+02 -0.58762611469E+03  0.86792050831E+03  0.79253476151E+02 0.  0.
         13    1    3    3    0    0 -0.67373611550E+03 -0.54114004876E+02  0.15425344244E+03  0.69328407119E+03  0.00000000000E+00 0. -1.
        -13    1    3    3    0    0 -0.49390746542E+03  0.92670543653E+01  0.17639739354E+03  0.52454409075E+03  0.00000000000E+00 0.  1.
          4    1    6    6  502    0  0.26346338673E+02 -0.10316757516E+02 -0.47995259580E+02  0.55714540196E+02  0.00000000000E+00 0. -1.
          3    1    5    5  503    0  0.45346814801E+03  0.76418636177E+02  0.23448154405E+03  0.51619256457E+03  0.00000000000E+00 0. -1.
         -4    1    5    5    0  503  0.81212962497E+02  0.96991301689E+00  0.84010668530E+02  0.11685152304E+03  0.00000000000E+00 0.  1.
         -3    1    6    6    0  502  0.60661613174E+03 -0.22224841168E+02 -0.53963085511E+03  0.81220596811E+03  0.00000000000E+00 0.  1.
<mgrwt>
<rscale>  0 0.27180967E+04</rscale>
<asrwt>0</asrwt>
<pdfrwt beam="1">  1        1 0.20440583E+00 0.27180967E+04</pdfrwt>
<pdfrwt beam="2">  1       -1 0.21386998E+00 0.27180967E+04</pdfrwt>
<totfact> 0.91053450E-01</totfact>
</mgrwt>
</event>
<event>
12    1  0.4612066E-007  0.1781296E+04  0.7818608E-02  0.8716310E-01
          1   -1    0    0  501    0  0.00000000000E+00  0.00000000000E+00  0.34820195953E+03  0.34820195953E+03  0.00000000000E+00 0. -1.
         -1   -1    0    0    0  501 -0.00000000000E+00 -0.00000000000E+00 -0.22781423598E+04  0.22781423598E+04  0.00000000000E+00 0.  1.
         23    2    1    2    0    0 -0.64226000561E+03 -0.12506019655E+03 -0.79117334259E+03  0.10308873677E+04  0.92927602553E+02 0.  0.
        254    2    1    2    0    0  0.64226000561E+03  0.12506019655E+03 -0.11387670577E+04  0.15954569517E+04  0.90584463640E+03 0.  0.
        -24    2    4    4    0    0 -0.10597724089E+03  0.27479396388E+03 -0.54745515277E+03  0.62669348915E+03  0.79339062793E+02 0.  0.
         24    2    4    4    0    0  0.74823724650E+03 -0.14973376733E+03 -0.59131190496E+03  0.96876346251E+03  0.81078352414E+02 0.  0.
         13    1    3    3    0    0 -0.59968969278E+03 -0.94456452238E+02 -0.74497103401E+03  0.96100551013E+03  0.00000000000E+00 0. -1.
        -13    1    3    3    0    0 -0.42570312827E+02 -0.30603744311E+02 -0.46202308579E+02  0.69881857575E+02  0.00000000000E+00 0.  1.
          4    1    6    6  502    0  0.43045003736E+03 -0.12037262662E+03 -0.37221275966E+03  0.58165208017E+03  0.00000000000E+00 0. -1.
          1    1    5    5  503    0 -0.65231411309E+02  0.13758469756E+03 -0.20360969838E+03  0.25424711463E+03  0.00000000000E+00 0. -1.
         -4    1    5    5    0  503 -0.40745829577E+02  0.13720926632E+03 -0.34384545438E+03  0.37244637452E+03  0.00000000000E+00 0.  1.
         -3    1    6    6    0  502  0.31778720914E+03 -0.29361140708E+02 -0.21909914529E+03  0.38711138234E+03  0.00000000000E+00 0.  1.
<mgrwt>
<rscale>  0 0.17812957E+04</rscale>
<asrwt>0</asrwt>
<pdfrwt beam="1">  1        1 0.53569534E-01 0.17812957E+04</pdfrwt>
<pdfrwt beam="2">  1       -1 0.35048343E+00 0.17812957E+04</pdfrwt>
<totfact> 0.10538548E+00</totfact>
</mgrwt>
</event>
<event>
12    1  0.4612066E-007  0.1697158E+04  0.7818608E-02  0.8762987E-01
         -2   -1    0    0    0  501 -0.00000000000E+00  0.00000000000E+00  0.10650110976E+04  0.10650110976E+04  0.00000000000E+00 0.  1.
          2   -1    0    0  501    0  0.00000000000E+00 -0.00000000000E+00 -0.67613005242E+03  0.67613005242E+03  0.00000000000E+00 0. -1.
         23    2    1    2    0    0 -0.30424887527E+03 -0.94160907097E+02 -0.38617962553E+03  0.50892424107E+03  0.91845116587E+02 0.  0.
        254    2    1    2    0    0  0.30424887527E+03  0.94160907097E+02  0.77506067073E+03  0.12322169090E+04  0.90344109541E+03 0.  0.
        -24    2    4    4    0    0  0.49994442038E+03  0.34789521896E+03  0.40624062334E+03  0.73682751628E+03  0.83113403509E+02 0.  0.
         24    2    4    4    0    0 -0.19569554511E+03 -0.25373431186E+03  0.36882004738E+03  0.49538939268E+03  0.81881473110E+02 0.  0.
         11    1    3    3    0    0 -0.27348114379E+03 -0.50584030447E+02 -0.32353471838E+03  0.42664434151E+03  0.00000000000E+00 0. -1.
        -11    1    3    3    0    0 -0.30767731479E+02 -0.43576876650E+02 -0.62644907156E+02  0.82279899560E+02  0.00000000000E+00 0.  1.
          4    1    6    6  502    0  0.43125822878E+01  0.29124197939E+01  0.78249320726E+01  0.93973462735E+01  0.00000000000E+00 0. -1.
          3    1    5    5  503    0  0.12023219129E+03  0.12648632406E+03  0.13104885195E+03  0.21823925310E+03  0.00000000000E+00 0. -1.
         -4    1    5    5    0  503  0.37971222909E+03  0.22140889490E+03  0.27519177139E+03  0.51858826317E+03  0.00000000000E+00 0.  1.
         -3    1    6    6    0  502 -0.20000812740E+03 -0.25664673165E+03  0.36099511531E+03  0.48599204641E+03  0.00000000000E+00 0.  1.
<mgrwt>
<rscale>  0 0.16971576E+04</rscale>
<asrwt>0</asrwt>
<pdfrwt beam="1">  1        2 0.10402001E+00 0.16971576E+04</pdfrwt>
<pdfrwt beam="2">  1       -2 0.16384786E+00 0.16971576E+04</pdfrwt>
<totfact> 0.96091724E+00</totfact>
</mgrwt>
</event>
<event>
12    1  0.4612066E-007  0.1628401E+04  0.7818608E-02  0.8803288E-01
         -2   -1    0    0    0  501 -0.00000000000E+00  0.00000000000E+00  0.30886626630E+03  0.30886626630E+03  0.00000000000E+00 0.  1.
          2   -1    0    0  501    0  0.00000000000E+00 -0.00000000000E+00 -0.21463081930E+04  0.21463081930E+04  0.00000000000E+00 0. -1.
         23    2    1    2    0    0  0.54519184332E+03  0.11279058099E+03 -0.73964316926E+03  0.93196531153E+03  0.10738464912E+03 0.  0.
        254    2    1    2    0    0 -0.54519184332E+03 -0.11279058099E+03 -0.10977987575E+04  0.15232091478E+04  0.89724474634E+03 0.  0.
        -24    2    4    4    0    0 -0.10191288277E+03 -0.47933158376E+02  0.14494800032E+03  0.19966739698E+03  0.78570498744E+02 0.  0.
         24    2    4    4    0    0 -0.44327896055E+03 -0.64857422615E+02 -0.12427467578E+04  0.13235417508E+04  0.81489508592E+02 0.  0.
         11    1    3    3    0    0  0.49760839192E+03  0.84870137858E+02 -0.61486789739E+03  0.79553729218E+03  0.00000000000E+00 0. -1.
        -11    1    3    3    0    0  0.47583451404E+02  0.27920443134E+02 -0.12477527187E+03  0.13642801935E+03  0.00000000000E+00 0.  1.
          4    1    6    6  502    0 -0.43023567360E+03 -0.60791083838E+02 -0.12313014978E+04  0.13057188324E+04  0.00000000000E+00 0. -1.
          1    1    5    5  503    0 -0.81512446846E+02 -0.38523505483E+02  0.15147245848E+03  0.17627321164E+03  0.00000000000E+00 0. -1.
         -2    1    5    5    0  503 -0.20400435927E+02 -0.94096528936E+01 -0.65244581526E+01  0.23394185341E+02  0.00000000000E+00 0.  1.
         -3    1    6    6    0  502 -0.13043286946E+02 -0.40663387772E+01 -0.11445259969E+02  0.17822918425E+02  0.00000000000E+00 0.  1.
<mgrwt>
<rscale>  0 0.16284007E+04</rscale>
<asrwt>0</asrwt>
<pdfrwt beam="1">  1        2 0.33020125E+00 0.16284007E+04</pdfrwt>
<pdfrwt beam="2">  1       -2 0.47517889E-01 0.16284007E+04</pdfrwt>
<totfact> 0.22241017E+01</totfact>
</mgrwt>
</event>
<event>
12    1  0.4612066E-007  0.1513255E+04  0.7818608E-02  0.8875686E-01
          1   -1    0    0  501    0  0.00000000000E+00  0.00000000000E+00  0.57871026779E+03  0.57871026779E+03  0.00000000000E+00 0. -1.
         -1   -1    0    0    0  501 -0.00000000000E+00 -0.00000000000E+00 -0.98924329422E+03  0.98924329422E+03  0.00000000000E+00 0.  1.
         23    2    1    2    0    0 -0.20529099406E+02 -0.35135429713E+03 -0.47856099633E+03  0.60100358782E+03  0.91177844515E+02 0.  0.
        254    2    1    2    0    0  0.20529099406E+02  0.35135429713E+03  0.68027969896E+02  0.96694997419E+03  0.89804964332E+03 0.  0.
        -24    2    4    4    0    0  0.44813760994E+03  0.12723565762E+03  0.69755965270E+00  0.47286320820E+03  0.81135054500E+02 0.  0.
         24    2    4    4    0    0 -0.42760851054E+03  0.22411863951E+03  0.67330410243E+02  0.49408676599E+03  0.80685471551E+02 0.  0.
         13    1    3    3    0    0 -0.24357837691E+01 -0.30898782176E+03 -0.45290747167E+03  0.54827418774E+03  0.00000000000E+00 0.  1.
        -13    1    3    3    0    0 -0.18093315636E+02 -0.42366475369E+02 -0.25653524654E+02  0.52729400082E+02  0.00000000000E+00 0. -1.
          4    1    6    6  502    0 -0.40109102923E+03  0.19168199427E+03  0.76820310618E+02  0.45112898464E+03  0.00000000000E+00 0. -1.
          1    1    5    5  503    0  0.35910903816E+03  0.10778066973E+03  0.32507989868E+02  0.37634125931E+03  0.00000000000E+00 0. -1.
         -2    1    5    5    0  503  0.89028571785E+02  0.19454987891E+02 -0.31810430215E+02  0.96521948895E+02  0.00000000000E+00 0.  1.
         -3    1    6    6    0  502 -0.26517481305E+02  0.32436645239E+02 -0.94899003749E+01  0.42957781347E+02  0.00000000000E+00 0.  1.
<mgrwt>
<rscale>  0 0.15132551E+04</rscale>
<asrwt>0</asrwt>
<pdfrwt beam="1">  1        1 0.89032349E-01 0.15132551E+04</pdfrwt>
<pdfrwt beam="2">  1       -1 0.15219128E+00 0.15132551E+04</pdfrwt>
<totfact> 0.11695881E+01</totfact>
</mgrwt>
</event>
<event>
12    1  0.4612066E-007  0.2696098E+04  0.7818608E-02  0.8336272E-01
         -2   -1    0    0    0  501 -0.00000000000E+00  0.00000000000E+00  0.14613932882E+04  0.14613932882E+04  0.00000000000E+00 0.  1.
          2   -1    0    0  501    0  0.00000000000E+00 -0.00000000000E+00 -0.12434958433E+04  0.12434958433E+04  0.00000000000E+00 0. -1.
         23    2    1    2    0    0 -0.88180106064E+03 -0.82376929947E+03  0.10515524475E+03  0.12144450314E+04  0.87465075675E+02 0.  0.
        254    2    1    2    0    0  0.88180106064E+03  0.82376929947E+03  0.11274220014E+03  0.14904441000E+04  0.86749284858E+03 0.  0.
        -24    2    4    4    0    0  0.56912832650E+03  0.95055557586E+03 -0.39796309157E+02  0.11115421332E+04  0.80493557693E+02 0.  0.
         24    2    4    4    0    0  0.31267273415E+03 -0.12678627639E+03  0.15253850929E+03  0.37890196684E+03  0.80372290594E+02 0.  0.
         13    1    3    3    0    0 -0.29386138856E+02 -0.53163199397E+02  0.33097255430E+01  0.60834408111E+02  0.00000000000E+00 0.  1.
        -13    1    3    3    0    0 -0.85241492179E+03 -0.77060610008E+03  0.10184551921E+03  0.11536106233E+04  0.00000000000E+00 0. -1.
          4    1    6    6  502    0  0.22889291585E+03 -0.79704963347E+02  0.70158741648E+02  0.25232339792E+03  0.00000000000E+00 0. -1.
          3    1    5    5  503    0  0.26911175212E+03  0.37456017777E+03 -0.26141006020E+02  0.46195217729E+03  0.00000000000E+00 0. -1.
         -4    1    5    5    0  503  0.30001657438E+03  0.57599539809E+03 -0.13655303136E+02  0.64958995591E+03  0.00000000000E+00 0.  1.
         -3    1    6    6    0  502  0.83779818300E+02 -0.47081313044E+02  0.82379767645E+02  0.12657856892E+03  0.00000000000E+00 0.  1.
<mgrwt>
<rscale>  0 0.26960983E+04</rscale>
<asrwt>0</asrwt>
<pdfrwt beam="1">  1        2 0.19130705E+00 0.26960983E+04</pdfrwt>
<pdfrwt beam="2">  1       -2 0.22482974E+00 0.26960983E+04</pdfrwt>
<totfact> 0.14427974E+00</totfact>
</mgrwt>
</event>
<event>
12    1  0.4612066E-007  0.3342053E+04  0.7818608E-02  0.8152277E-01
         -2   -1    0    0    0  501 -0.00000000000E+00  0.00000000000E+00  0.11716996293E+04  0.11716996293E+04  0.00000000000E+00 0.  1.
          2   -1    0    0  501    0  0.00000000000E+00 -0.00000000000E+00 -0.23831448326E+04  0.23831448326E+04  0.00000000000E+00 0. -1.
         23    2    1    2    0    0 -0.70020692257E+03 -0.13790881305E+04 -0.42166689513E+03  0.16057785916E+04  0.92455981930E+02 0.  0.
        254    2    1    2    0    0  0.70020692257E+03  0.13790881305E+04 -0.78977830817E+03  0.19490658703E+04  0.88483568227E+03 0.  0.
        -24    2    4    4    0    0 -0.78495990635E+02  0.12630249058E+03 -0.38007717730E+03  0.41603571966E+03  0.80703901134E+02 0.  0.
         24    2    4    4    0    0  0.77870291321E+03  0.12527856399E+04 -0.40970113088E+03  0.15330301506E+04  0.80475707587E+02 0.  0.
         11    1    3    3    0    0 -0.62253713048E+03 -0.11679737432E+04 -0.34036190179E+03  0.13665874900E+04  0.00000000000E+00 0. -1.
        -11    1    3    3    0    0 -0.77669792092E+02 -0.21111438731E+03 -0.81304993349E+02  0.23919110159E+03  0.00000000000E+00 0.  1.
          4    1    6    6  502    0  0.23868962228E+02  0.51910676254E+02 -0.19061769495E+01  0.57167116226E+02  0.00000000000E+00 0. -1.
          3    1    5    5  503    0  0.45873785777E+01  0.27336638074E+02 -0.22098843506E+02  0.35449890094E+02  0.00000000000E+00 0. -1.
         -4    1    5    5    0  503 -0.83083369212E+02  0.98965852505E+02 -0.35797833379E+03  0.38058582957E+03  0.00000000000E+00 0.  1.
         -3    1    6    6    0  502  0.75483395098E+03  0.12008749636E+04 -0.40779495393E+03  0.14758630344E+04  0.00000000000E+00 0.  1.
<mgrwt>
<rscale>  0 0.33420532E+04</rscale>
<asrwt>0</asrwt>
<pdfrwt beam="1">  1        2 0.36663767E+00 0.33420532E+04</pdfrwt>
<pdfrwt beam="2">  1       -2 0.18026148E+00 0.33420532E+04</pdfrwt>
<totfact> 0.61091521E-01</totfact>
</mgrwt>
</event>
<event>
12    1  0.4612066E-007  0.2471357E+04  0.7818608E-02  0.8413261E-01
         -2   -1    0    0    0  501 -0.00000000000E+00  0.00000000000E+00  0.71911285497E+03  0.71911285497E+03  0.00000000000E+00 0.  1.
          2   -1    0    0  501    0  0.00000000000E+00 -0.00000000000E+00 -0.21233121350E+04  0.21233121350E+04  0.00000000000E+00 0. -1.
         23    2    1    2    0    0 -0.74204643537E+03  0.60442456803E+03 -0.12058387951E+04  0.15422611027E+04  0.92521015970E+02 0.  0.
        254    2    1    2    0    0  0.74204643537E+03 -0.60442456803E+03 -0.19836048492E+03  0.13001638873E+04  0.85738980699E+03 0.  0.
        -24    2    4    4    0    0  0.13460061787E+03 -0.49367134233E+03 -0.39070727577E+03  0.64845255814E+03  0.77523056311E+02 0.  0.
         24    2    4    4    0    0  0.60744581750E+03 -0.11075322570E+03  0.19234679085E+03  0.65171132913E+03  0.80459122352E+02 0.  0.
         11    1    3    3    0    0 -0.38541749782E+03  0.32643133996E+03 -0.70838442496E+03  0.87000721886E+03  0.00000000000E+00 0. -1.
        -11    1    3    3    0    0 -0.35662893754E+03  0.27799322806E+03 -0.49745437014E+03  0.67225388382E+03  0.00000000000E+00 0.  1.
          4    1    6    6  502    0  0.45523397976E+03 -0.76659723000E+02  0.17909398375E+03  0.49516597669E+03  0.00000000000E+00 0. -1.
          3    1    5    5  503    0  0.11914404827E+03 -0.29423114656E+03 -0.23508804231E+03  0.39501096121E+03  0.00000000000E+00 0. -1.
         -4    1    5    5    0  503  0.15456569601E+02 -0.19944019577E+03 -0.15561923346E+03  0.25344159693E+03  0.00000000000E+00 0.  1.
         -3    1    6    6    0  502  0.15221183774E+03 -0.34093502700E+02  0.13252807097E+02  0.15654535244E+03  0.00000000000E+00 0.  1.
<mgrwt>
<rscale>  0 0.24713568E+04</rscale>
<asrwt>0</asrwt>
<pdfrwt beam="1">  1        2 0.32666340E+00 0.24713568E+04</pdfrwt>
<pdfrwt beam="2">  1       -2 0.11063275E+00 0.24713568E+04</pdfrwt>
<totfact> 0.33025900E+00</totfact>
</mgrwt>
</event>
<event>
12    1  0.5140669E-007  0.2174541E+04  0.7818608E-02  0.8529100E-01
         -3   -1    0    0    0  501 -0.00000000000E+00  0.00000000000E+00  0.11181789883E+04  0.11181789883E+04  0.00000000000E+00 0.  1.
          3   -1    0    0  501    0  0.00000000000E+00 -0.00000000000E+00 -0.10572162641E+04  0.10572162641E+04  0.00000000000E+00 0. -1.
         23    2    1    2    0    0  0.71270205188E+03 -0.46419128944E+03 -0.26095993796E+03  0.89429357628E+03  0.90791758513E+02 0.  0.
        254    2    1    2    0    0 -0.71270205188E+03  0.46419128944E+03  0.32192266213E+03  0.12811016761E+04  0.90231343572E+03 0.  0.
        -24    2    4    4    0    0 -0.19198346207E+03 -0.21340722532E+03 -0.11341872756E+03  0.31874114645E+03  0.79572716108E+02 0.  0.
         24    2    4    4    0    0 -0.52071858981E+03  0.67759851476E+03  0.43534138970E+03  0.96236052970E+03  0.79549145549E+02 0.  0.
         13    1    3    3    0    0  0.48246167732E+03 -0.28249824776E+03 -0.20639544676E+03  0.59596443729E+03  0.00000000000E+00 0. -1.
        -13    1    3    3    0    0  0.23024037457E+03 -0.18169304168E+03 -0.54564491198E+02  0.29832913900E+03  0.00000000000E+00 0.  1.
          4    1    6    6  502    0 -0.12728099485E+02  0.31746440726E+02  0.42986126874E+01  0.34472004384E+02  0.00000000000E+00 0. -1.
          3    1    5    5  503    0 -0.97354457313E+00  0.54767914983E+01  0.23192510268E+01  0.60267702359E+01  0.00000000000E+00 0. -1.
         -4    1    5    5    0  503 -0.19100991750E+03 -0.21888401682E+03 -0.11573797859E+03  0.31271437621E+03  0.00000000000E+00 0.  1.
         -3    1    6    6    0  502 -0.50799049033E+03  0.64585207403E+03  0.43104277701E+03  0.92788852531E+03  0.00000000000E+00 0.  1.
<mgrwt>
<rscale>  0 0.21745409E+04</rscale>
<asrwt>0</asrwt>
<pdfrwt beam="1">  1        3 0.16264866E+00 0.21745409E+04</pdfrwt>
<pdfrwt beam="2">  1       -3 0.17202754E+00 0.21745409E+04</pdfrwt>
<totfact> 0.14003165E-01</totfact>
</mgrwt>
</event>
<event>
12    1  0.4612066E-007  0.2991821E+04  0.7818608E-02  0.8246070E-01
         -2   -1    0    0    0  501 -0.00000000000E+00  0.00000000000E+00  0.11158165419E+04  0.11158165419E+04  0.00000000000E+00 0.  1.
          2   -1    0    0  501    0  0.00000000000E+00 -0.00000000000E+00 -0.20054799680E+04  0.20054799680E+04  0.00000000000E+00 0. -1.
         23    2    1    2    0    0 -0.12601381593E+04 -0.45654693930E+03 -0.17997186926E+03  0.13553960310E+04  0.91242746265E+02 0.  0.
        254    2    1    2    0    0  0.12601381593E+04  0.45654693930E+03 -0.70969155677E+03  0.17659004789E+04  0.90463202871E+03 0.  0.
        -24    2    4    4    0    0  0.62210593959E+03 -0.50568131147E+02  0.72158715627E+02  0.63361543259E+03  0.81784474150E+02 0.  0.
         24    2    4    4    0    0  0.63803221972E+03  0.50711507044E+03 -0.78185027239E+03  0.11322850463E+04  0.80800802154E+02 0.  0.
         11    1    3    3    0    0 -0.10045188098E+04 -0.37553164307E+03 -0.17893081425E+03  0.10872434366E+04  0.00000000000E+00 0. -1.
        -11    1    3    3    0    0 -0.25561934949E+03 -0.81015296231E+02 -0.10410550067E+01  0.26815259435E+03  0.00000000000E+00 0.  1.
          4    1    6    6  502    0  0.39613201153E+03  0.36290417891E+03 -0.52330187431E+03  0.74997657649E+03  0.00000000000E+00 0. -1.
          1    1    5    5  503    0  0.50828509588E+03 -0.72934911247E+02  0.57956636781E+02  0.51675159576E+03  0.00000000000E+00 0. -1.
         -2    1    5    5    0  503  0.11382084371E+03  0.22366780100E+02  0.14202078846E+02  0.11686383683E+03  0.00000000000E+00 0.  1.
         -3    1    6    6    0  502  0.24190020819E+03  0.14421089154E+03 -0.25854839809E+03  0.38230846984E+03  0.00000000000E+00 0.  1.
<mgrwt>
<rscale>  0 0.29918207E+04</rscale>
<asrwt>0</asrwt>
<pdfrwt beam="1">  1        2 0.30853537E+00 0.29918207E+04</pdfrwt>
<pdfrwt beam="2">  1       -2 0.17166409E+00 0.29918207E+04</pdfrwt>
<totfact> 0.11788296E+00</totfact>
</mgrwt>
</event>
<event>
12    1  0.4612066E-007  0.1374623E+04  0.7818608E-02  0.8972395E-01
         -2   -1    0    0    0  501 -0.00000000000E+00  0.00000000000E+00  0.23429245279E+03  0.23429245279E+03  0.00000000000E+00 0. -1.
          2   -1    0    0  501    0  0.00000000000E+00 -0.00000000000E+00 -0.20162712010E+04  0.20162712010E+04  0.00000000000E+00 0.  1.
         23    2    1    2    0    0 -0.12513578222E+02  0.35939775465E+03 -0.28052844584E+03  0.46547688911E+03  0.93001019791E+02 0.  0.
        254    2    1    2    0    0  0.12513578222E+02 -0.35939775465E+03 -0.15014503024E+04  0.17850867647E+04  0.89602366667E+03 0.  0.
        -24    2    4    4    0    0  0.62429916333E+02 -0.11937615326E+03 -0.15188035758E+04  0.15267937966E+04  0.78656435212E+02 0.  0.
         24    2    4    4    0    0 -0.49916338111E+02 -0.24002160139E+03  0.17353273482E+02  0.25829296811E+03  0.79448796905E+02 0.  0.
         13    1    3    3    0    0 -0.43349448720E+02  0.86077743002E+02 -0.74655940215E+02  0.12191005682E+03  0.00000000000E+00 0.  1.
        -13    1    3    3    0    0  0.30835870498E+02  0.27332001165E+03 -0.20587250562E+03  0.34356683229E+03  0.00000000000E+00 0. -1.
          4    1    6    6  502    0 -0.20095945953E+02 -0.22040669722E+03  0.21485700607E+02  0.22236140527E+03  0.00000000000E+00 0. -1.
          1    1    5    5  503    0  0.57450442232E+02 -0.12606315100E+03 -0.14978412152E+04  0.15042342827E+04  0.00000000000E+00 0. -1.
         -2    1    5    5    0  503  0.49794741013E+01  0.66869977377E+01 -0.20962360644E+02  0.22559513843E+02  0.00000000000E+00 0.  1.
         -3    1    6    6    0  502 -0.29820392158E+02 -0.19614904168E+02 -0.41324271248E+01  0.35931562837E+02  0.00000000000E+00 0.  1.
<mgrwt>
<rscale>  0 0.13746230E+04</rscale>
<asrwt>0</asrwt>
<pdfrwt beam="1">  1        2 0.31019559E+00 0.13746230E+04</pdfrwt>
<pdfrwt beam="2">  1       -2 0.36044991E-01 0.13746230E+04</pdfrwt>
<totfact> 0.46226809E+01</totfact>
</mgrwt>
</event>
<event>
12    1  0.4612066E-007  0.2539616E+04  0.7818608E-02  0.8389007E-01
          2   -1    0    0  501    0  0.00000000000E+00  0.00000000000E+00  0.19281108421E+04  0.19281108421E+04  0.00000000000E+00 0. -1.
         -2   -1    0    0    0  501 -0.00000000000E+00 -0.00000000000E+00 -0.83626506578E+03  0.83626506578E+03  0.00000000000E+00 0.  1.
         23    2    1    2    0    0  0.88950997874E+03  0.12149429151E+03 -0.23495466754E+03  0.93248885359E+03  0.91339482854E+02 0.  0.
        254    2    1    2    0    0 -0.88950997874E+03 -0.12149429151E+03  0.13268004439E+04  0.18318870543E+04  0.88849417372E+03 0.  0.
        -24    2    4    4    0    0 -0.12232262008E+03  0.33530940664E+03  0.40397729085E+03  0.54468460249E+03  0.78028476227E+02 0.  0.
         24    2    4    4    0    0 -0.76718735866E+03 -0.45680369814E+03  0.92282315307E+03  0.12872024519E+04  0.89674513074E+02 0.  0.
         11    1    3    3    0    0  0.50324133796E+03  0.33419302151E+02 -0.10173829179E+03  0.51450886679E+03  0.00000000000E+00 0.  1.
        -11    1    3    3    0    0  0.38626864078E+03  0.88074989354E+02 -0.13321637575E+03  0.41797998680E+03  0.00000000000E+00 0. -1.
          4    1    6    6  502    0 -0.54019857958E+03 -0.28799586886E+03  0.67337517639E+03  0.91004958878E+03  0.00000000000E+00 0. -1.
          1    1    5    5  503    0 -0.82451400061E+02  0.22054580799E+03  0.20835238375E+03  0.31440324841E+03  0.00000000000E+00 0. -1.
         -2    1    5    5    0  503 -0.39871220017E+02  0.11476359865E+03  0.19562490709E+03  0.23028135408E+03  0.00000000000E+00 0.  1.
         -3    1    6    6    0  502 -0.22698877908E+03 -0.16880782929E+03  0.24944797668E+03  0.37715286308E+03  0.00000000000E+00 0.  1.
<mgrwt>
<rscale>  0 0.25396155E+04</rscale>
<asrwt>0</asrwt>
<pdfrwt beam="1">  1        2 0.29663244E+00 0.25396155E+04</pdfrwt>
<pdfrwt beam="2">  1       -2 0.12865616E+00 0.25396155E+04</pdfrwt>
<totfact> 0.29037359E+00</totfact>
</mgrwt>
</event>
<event>
12    1  0.4612066E-007  0.1166097E+04  0.7818608E-02  0.9143061E-01
          2   -1    0    0  501    0  0.00000000000E+00  0.00000000000E+00  0.29317008802E+04  0.29317008802E+04  0.00000000000E+00 0. -1.
         -2   -1    0    0    0  501 -0.00000000000E+00 -0.00000000000E+00 -0.11595504166E+03  0.11595504166E+03  0.00000000000E+00 0.  1.
         23    2    1    2    0    0  0.19552003385E+03 -0.15965286979E+03  0.79767947410E+03  0.84165965454E+03  0.91549485060E+02 0.  0.
        254    2    1    2    0    0 -0.19552003385E+03  0.15965286979E+03  0.20180663645E+04  0.22059962674E+04  0.85446507107E+03 0.  0.
        -24    2    4    4    0    0 -0.99596835198E+02  0.36245403522E+03  0.34710711255E+03  0.51806390219E+03  0.81328973543E+02 0.  0.
         24    2    4    4    0    0 -0.95923198651E+02 -0.20280116543E+03  0.16709592519E+04  0.16879323652E+04  0.81739066791E+02 0.  0.
         13    1    3    3    0    0  0.37574636133E+02 -0.23706852121E+02  0.57273202901E+02  0.72485087353E+02  0.00000000000E+00 0.  1.
        -13    1    3    3    0    0  0.15794539772E+03 -0.13594601767E+03  0.74040627120E+03  0.76917456719E+03  0.00000000000E+00 0. -1.
          4    1    6    6  502    0 -0.45500140789E+02 -0.10443700204E+03  0.11344219050E+04  0.11401273651E+04  0.00000000000E+00 0. -1.
          1    1    5    5  503    0 -0.20458016939E+02  0.12025964762E+03  0.66115459395E+02  0.13875217935E+03  0.00000000000E+00 0. -1.
         -2    1    5    5    0  503 -0.79138818259E+02  0.24219438760E+03  0.28099165316E+03  0.37931172284E+03  0.00000000000E+00 0.  1.
         -3    1    6    6    0  502 -0.50423057862E+02 -0.98364163388E+02  0.53653734695E+03  0.54780500005E+03  0.00000000000E+00 0.  1.
<mgrwt>
<rscale>  0 0.11660969E+04</rscale>
<asrwt>0</asrwt>
<pdfrwt beam="1">  1        2 0.45103085E+00 0.11660969E+04</pdfrwt>
<pdfrwt beam="2">  1       -2 0.17839239E-01 0.11660969E+04</pdfrwt>
<totfact> 0.50280621E+01</totfact>
</mgrwt>
</event>
<event>
12    1  0.4612066E-007  0.1361146E+04  0.7818608E-02  0.8982433E-01
          1   -1    0    0  501    0  0.00000000000E+00  0.00000000000E+00  0.28080437677E+04  0.28080437677E+04  0.00000000000E+00 0. -1.
         -1   -1    0    0    0  501 -0.00000000000E+00 -0.00000000000E+00 -0.16494747031E+03  0.16494747031E+03  0.00000000000E+00 0.  1.
         23    2    1    2    0    0  0.30978947047E+01 -0.37569288406E+03  0.76922257232E+03  0.86134275646E+03  0.95148506302E+02 0.  0.
        254    2    1    2    0    0 -0.30978947047E+01  0.37569288406E+03  0.18738737251E+04  0.21116484816E+04  0.89805447053E+03 0.  0.
        -24    2    4    4    0    0 -0.28115759425E+03  0.11311575819E+03  0.15474084766E+03  0.34856006213E+03  0.75528931011E+02 0.  0.
         24    2    4    4    0    0  0.27805969954E+03  0.26257712587E+03  0.17191328774E+04  0.17630884194E+04  0.82455933617E+02 0.  0.
         11    1    3    3    0    0 -0.35854336320E+02 -0.14075965003E+03  0.23224146993E+03  0.27392501322E+03  0.00000000000E+00 0.  1.
        -11    1    3    3    0    0  0.38952231025E+02 -0.23493323404E+03  0.53698110238E+03  0.58741774324E+03  0.00000000000E+00 0. -1.
          2    1    6    6  502    0  0.25835101821E+03  0.26622110454E+03  0.16432024125E+04  0.16845572397E+04  0.00000000000E+00 0. -1.
          3    1    5    5  503    0 -0.11781916242E+03  0.84064623996E+02  0.54079869433E+02  0.15450840857E+03  0.00000000000E+00 0. -1.
         -4    1    5    5    0  503 -0.16333843183E+03  0.29051134199E+02  0.10066097823E+03  0.19405165356E+03  0.00000000000E+00 0.  1.
         -1    1    6    6    0  502  0.19708681334E+02 -0.36439786694E+01  0.75930464888E+02  0.78531179786E+02  0.00000000000E+00 0.  1.
<mgrwt>
<rscale>  0 0.13611462E+04</rscale>
<asrwt>0</asrwt>
<pdfrwt beam="1">  1        1 0.43200670E+00 0.13611462E+04</pdfrwt>
<pdfrwt beam="2">  1       -1 0.25376536E-01 0.13611462E+04</pdfrwt>
<totfact> 0.11053740E+01</totfact>
</mgrwt>
</event>
<event>
12    1  0.4612066E-007  0.2417153E+04  0.7818608E-02  0.8433109E-01
         -1   -1    0    0    0  501 -0.00000000000E+00  0.00000000000E+00  0.44277736105E+03  0.44277736105E+03  0.00000000000E+00 0.  1.
          1   -1    0    0  501    0  0.00000000000E+00 -0.00000000000E+00 -0.32988528229E+04  0.32988528229E+04  0.00000000000E+00 0. -1.
         23    2    1    2    0    0  0.82764433622E+03 -0.15333639081E+03 -0.29075037904E+03  0.89506294558E+03  0.89970537456E+02 0.  0.
        254    2    1    2    0    0 -0.82764433622E+03  0.15333639081E+03 -0.25653250828E+04  0.28465672384E+04  0.90196733089E+03 0.  0.
        -24    2    4    4    0    0 -0.95990724425E+03 -0.34308897234E+02 -0.22649456106E+04  0.24615657403E+04  0.82025952552E+02 0.  0.
         24    2    4    4    0    0  0.13226290803E+03  0.18764528804E+03 -0.30037947219E+03  0.38500149803E+03  0.72760533329E+02 0.  0.
         11    1    3    3    0    0  0.39696355632E+03 -0.88838702215E+02 -0.95671834271E+02  0.41788213641E+03  0.00000000000E+00 0.  1.
        -11    1    3    3    0    0  0.43068077991E+03 -0.64497688594E+02 -0.19507854477E+03  0.47718080917E+03  0.00000000000E+00 0. -1.
          2    1    6    6  502    0  0.11191422008E+03  0.11220497902E+03 -0.16560960113E+03  0.22921886912E+03  0.00000000000E+00 0. -1.
          1    1    5    5  503    0 -0.61399571239E+03  0.15060823276E+02 -0.14084810107E+04  0.15365664062E+04  0.00000000000E+00 0. -1.
         -2    1    5    5    0  503 -0.34591153186E+03 -0.49369720510E+02 -0.85646459991E+03  0.92499933409E+03  0.00000000000E+00 0.  1.
         -1    1    6    6    0  502  0.20348687950E+02  0.75440309021E+02 -0.13476987106E+03  0.15578262892E+03  0.00000000000E+00 0.  1.
<mgrwt>
<rscale>  0 0.24171532E+04</rscale>
<asrwt>0</asrwt>
<pdfrwt beam="1">  1        1 0.50751581E+00 0.24171532E+04</pdfrwt>
<pdfrwt beam="2">  1       -1 0.68119595E-01 0.24171532E+04</pdfrwt>
<totfact> 0.69913873E-01</totfact>
</mgrwt>
</event>
<event>
12    1  0.4612066E-007  0.1457846E+04  0.7818608E-02  0.8912979E-01
          1   -1    0    0  501    0  0.00000000000E+00  0.00000000000E+00  0.20290841893E+04  0.20290841893E+04  0.00000000000E+00 0. -1.
         -1   -1    0    0    0  501 -0.00000000000E+00 -0.00000000000E+00 -0.26185629259E+03  0.26185629259E+03  0.00000000000E+00 0.  1.
         23    2    1    2    0    0 -0.42163461679E+03  0.14408365116E+03  0.52825092517E+03  0.69770230993E+03  0.95935523852E+02 0.  0.
        254    2    1    2    0    0  0.42163461679E+03 -0.14408365116E+03  0.12389769716E+04  0.15932381720E+04  0.89711096748E+03 0.  0.
        -24    2    4    4    0    0  0.66423463531E+03 -0.23080316053E+03  0.72598980008E+03  0.10138848462E+04  0.80147001780E+02 0.  0.
         24    2    4    4    0    0 -0.24260001852E+03  0.86719509376E+02  0.51298717149E+03  0.57935332578E+03  0.78226566347E+02 0.  0.
         11    1    3    3    0    0 -0.17692154901E+03  0.19917394495E+02  0.24984969515E+03  0.30679440555E+03  0.00000000000E+00 0. -1.
        -11    1    3    3    0    0 -0.24471306778E+03  0.12416625666E+03  0.27840123002E+03  0.39090790438E+03  0.00000000000E+00 0.  1.
          2    1    6    6  502    0 -0.22215838762E+03  0.96167944940E+02  0.49306391851E+03  0.54928558197E+03  0.00000000000E+00 0. -1.
          3    1    5    5  503    0  0.58843599366E+03 -0.18372628485E+03  0.65842563906E+03  0.90196263146E+03  0.00000000000E+00 0. -1.
         -4    1    5    5    0  503  0.75798641649E+02 -0.47076875680E+02  0.67564161022E+02  0.11192221475E+03  0.00000000000E+00 0.  1.
         -1    1    6    6    0  502 -0.20441630893E+02 -0.94484355633E+01  0.19923252983E+02  0.30067743806E+02  0.00000000000E+00 0.  1.
<mgrwt>
<rscale>  0 0.14578456E+04</rscale>
<asrwt>0</asrwt>
<pdfrwt beam="1">  1        1 0.31216679E+00 0.14578456E+04</pdfrwt>
<pdfrwt beam="2">  1       -1 0.40285585E-01 0.14578456E+04</pdfrwt>
<totfact> 0.16630219E+01</totfact>
</mgrwt>
</event>
<event>
12    1  0.4612066E-007  0.1276615E+04  0.7818608E-02  0.9048318E-01
         -2   -1    0    0    0  501 -0.00000000000E+00  0.00000000000E+00  0.81551455331E+03  0.81551455331E+03  0.00000000000E+00 0.  1.
          2   -1    0    0  501    0  0.00000000000E+00 -0.00000000000E+00 -0.49960681897E+03  0.49960681897E+03  0.00000000000E+00 0. -1.
         23    2    1    2    0    0 -0.42436996059E+02 -0.18964106481E+03 -0.11538870978E+03  0.24141249816E+03  0.84857573784E+02 0.  0.
        254    2    1    2    0    0  0.42436996059E+02  0.18964106481E+03  0.43129644411E+03  0.10737088741E+04  0.96388250921E+03 0.  0.
        -24    2    4    4    0    0  0.90796702913E+02  0.15047607522E+03  0.73209100041E+03  0.75734462196E+03  0.82015566003E+02 0.  0.
         24    2    4    4    0    0 -0.48359706854E+02  0.39164989591E+02 -0.30079455629E+03  0.31636425216E+03  0.75739139750E+02 0.  0.
         11    1    3    3    0    0 -0.37503242307E+02 -0.42566486569E+02 -0.64038826215E+02  0.85553318027E+02  0.00000000000E+00 0. -1.
        -11    1    3    3    0    0 -0.49337537521E+01 -0.14707457824E+03 -0.51349883560E+02  0.15585918014E+03  0.00000000000E+00 0.  1.
          4    1    6    6  502    0 -0.24235280334E+02  0.58306597024E+02 -0.24062285494E+03  0.24876970553E+03  0.00000000000E+00 0. -1.
          3    1    5    5  503    0  0.67239592037E+02  0.61400465385E+02  0.48842680504E+03  0.49684195049E+03  0.00000000000E+00 0. -1.
         -4    1    5    5    0  503  0.23557110875E+02  0.89075609833E+02  0.24366419537E+03  0.26050267147E+03  0.00000000000E+00 0.  1.
         -3    1    6    6    0  502 -0.24124426520E+02 -0.19141607432E+02 -0.60171701350E+02  0.67594546625E+02  0.00000000000E+00 0.  1.
<mgrwt>
<rscale>  0 0.12766153E+04</rscale>
<asrwt>0</asrwt>
<pdfrwt beam="1">  1        2 0.76862588E-01 0.12766153E+04</pdfrwt>
<pdfrwt beam="2">  1       -2 0.12546378E+00 0.12766153E+04</pdfrwt>
<totfact> 0.28732754E+01</totfact>
</mgrwt>
</event>
<event>
12    1  0.4612066E-007  0.1485451E+04  0.7818608E-02  0.8894186E-01
          2   -1    0    0  501    0  0.00000000000E+00  0.00000000000E+00  0.18661213288E+04  0.18661213288E+04  0.00000000000E+00 0. -1.
         -2   -1    0    0    0  501 -0.00000000000E+00 -0.00000000000E+00 -0.29560843524E+03  0.29560843524E+03  0.00000000000E+00 0.  1.
         23    2    1    2    0    0 -0.14284003516E+03 -0.18737612109E+03  0.10620802586E+04  0.10915507889E+04  0.89193960928E+02 0.  0.
        254    2    1    2    0    0  0.14284003516E+03  0.18737612109E+03  0.50843263496E+03  0.10701789751E+04  0.91173801508E+03 0.  0.
        -24    2    4    4    0    0  0.26530628294E+02 -0.30305945332E+03 -0.45534525499E+02  0.31697456166E+03  0.76489040031E+02 0.  0.
         24    2    4    4    0    0  0.11630940686E+03  0.49043557441E+03  0.55396716046E+03  0.75320441348E+03  0.79889566545E+02 0.  0.
         11    1    3    3    0    0 -0.56690587700E+02 -0.13657869522E+03  0.53471326216E+03  0.55478449460E+03  0.00000000000E+00 0. -1.
        -11    1    3    3    0    0 -0.86149447456E+02 -0.50797425876E+02  0.52736699645E+03  0.53676629432E+03  0.00000000000E+00 0.  1.
          2    1    6    6  502    0  0.10603921753E+03  0.29258885001E+03  0.36129465655E+03  0.47685047935E+03  0.00000000000E+00 0. -1.
          3    1    5    5  503    0  0.39668412002E+02 -0.14172594130E+03  0.54314329322E+01  0.14727296361E+03  0.00000000000E+00 0. -1.
         -4    1    5    5    0  503 -0.13137783708E+02 -0.16133351202E+03 -0.50965958431E+02  0.16970159805E+03  0.00000000000E+00 0.  1.
         -1    1    6    6    0  502  0.10270189328E+02  0.19784672440E+03  0.19267250391E+03  0.27635393412E+03  0.00000000000E+00 0.  1.
<mgrwt>
<rscale>  0 0.14854511E+04</rscale>
<asrwt>0</asrwt>
<pdfrwt beam="1">  1        2 0.28709558E+00 0.14854511E+04</pdfrwt>
<pdfrwt beam="2">  1       -2 0.45478222E-01 0.14854511E+04</pdfrwt>
<totfact> 0.35168833E+01</totfact>
</mgrwt>
</event>
<event>
12    1  0.4612066E-007  0.1906457E+04  0.7818608E-02  0.8651649E-01
         -1   -1    0    0    0  501 -0.00000000000E+00  0.00000000000E+00  0.16199432640E+04  0.16199432640E+04  0.00000000000E+00 0.  1.
          1   -1    0    0  501    0  0.00000000000E+00 -0.00000000000E+00 -0.56091160681E+03  0.56091160681E+03  0.00000000000E+00 0. -1.
         23    2    1    2    0    0  0.45957998553E+03 -0.42973077293E+03 -0.46891107270E+02  0.63714482258E+03  0.88726820582E+02 0.  0.
        254    2    1    2    0    0 -0.45957998553E+03  0.42973077293E+03  0.11059227644E+04  0.15437100482E+04  0.87412427704E+03 0.  0.
        -24    2    4    4    0    0  0.92165442705E+02  0.16035912511E+03  0.85118860952E+03  0.87473777498E+03  0.80216009429E+02 0.  0.
         24    2    4    4    0    0 -0.55174542824E+03  0.26937164782E+03  0.25473415491E+03  0.66897227321E+03  0.75168546730E+02 0.  0.
         11    1    3    3    0    0  0.98822023546E+02 -0.13854551206E+03  0.75661899445E+01  0.17034640730E+03  0.00000000000E+00 0.  1.
        -11    1    3    3    0    0  0.36075796199E+03 -0.29118526087E+03 -0.54457297215E+02  0.46679841528E+03  0.00000000000E+00 0. -1.
          2    1    6    6  502    0 -0.48898525093E+03  0.26327154905E+03  0.23337241799E+03  0.60239618994E+03  0.00000000000E+00 0. -1.
          1    1    5    5  503    0  0.75302159774E+02  0.10196050882E+03  0.70680970824E+03  0.71808517899E+03  0.00000000000E+00 0. -1.
         -4    1    5    5    0  503  0.16863282932E+02  0.58398616286E+02  0.14437890127E+03  0.15665259598E+03  0.00000000000E+00 0.  1.
         -1    1    6    6    0  502 -0.62760177306E+02  0.61000987724E+01  0.21361736920E+02  0.66576083279E+02  0.00000000000E+00 0.  1.
<mgrwt>
<rscale>  0 0.19064574E+04</rscale>
<asrwt>0</asrwt>
<pdfrwt beam="1">  1        1 0.86294094E-01 0.19064574E+04</pdfrwt>
<pdfrwt beam="2">  1       -1 0.24922204E+00 0.19064574E+04</pdfrwt>
<totfact> 0.24884925E+00</totfact>
</mgrwt>
</event>
<event>
12    1  0.4612066E-007  0.2860050E+04  0.7818608E-02  0.8284864E-01
         -2   -1    0    0    0  501 -0.00000000000E+00  0.00000000000E+00  0.12766590284E+04  0.12766590284E+04  0.00000000000E+00 0. -1.
          2   -1    0    0  501    0  0.00000000000E+00 -0.00000000000E+00 -0.16018154959E+04  0.16018154959E+04  0.00000000000E+00 0.  1.
         23    2    1    2    0    0 -0.51685418036E+03 -0.11424120141E+04 -0.53462824136E+03  0.13659866182E+04  0.88592499518E+02 0.  0.
        254    2    1    2    0    0  0.51685418036E+03  0.11424120141E+04  0.20947177383E+03  0.15124879062E+04  0.81944968648E+03 0.  0.
        -24    2    4    4    0    0  0.53966883473E+03  0.12288889307E+04  0.28648683136E+03  0.13745992196E+04  0.77703634654E+02 0.  0.
         24    2    4    4    0    0 -0.22814654361E+02 -0.86476916653E+02 -0.77015057528E+02  0.13788868656E+03  0.71296600390E+02 0.  0.
         11    1    3    3    0    0 -0.29075152848E+03 -0.54021126178E+03 -0.27548316817E+03  0.67249954246E+03  0.00000000000E+00 0.  1.
        -11    1    3    3    0    0 -0.22610265189E+03 -0.60220075227E+03 -0.25914507320E+03  0.69348707572E+03  0.00000000000E+00 0. -1.
          2    1    6    6  502    0 -0.36338254085E+02 -0.52254359301E+02 -0.78500576147E+02  0.10106100747E+03  0.00000000000E+00 0. -1.
          1    1    5    5  503    0  0.46776095632E+03  0.99948077179E+03  0.24921206578E+03  0.11313128564E+04  0.00000000000E+00 0. -1.
         -2    1    5    5    0  503  0.71907878410E+02  0.22940815892E+03  0.37274765577E+02  0.24328636317E+03  0.00000000000E+00 0.  1.
         -1    1    6    6    0  502  0.13523599724E+02 -0.34222557352E+02  0.14855186198E+01  0.36827679085E+02  0.00000000000E+00 0.  1.
<mgrwt>
<rscale>  0 0.28600505E+04</rscale>
<asrwt>0</asrwt>
<pdfrwt beam="1">  1        2 0.24643315E+00 0.28600505E+04</pdfrwt>
<pdfrwt beam="2">  1       -2 0.19640908E+00 0.28600505E+04</pdfrwt>
<totfact> 0.13533191E+00</totfact>
</mgrwt>
</event>
<event>
12    1  0.4612066E-007  0.1270384E+04  0.7818608E-02  0.9053387E-01
          2   -1    0    0  501    0  0.00000000000E+00  0.00000000000E+00  0.26926348019E+03  0.26926348019E+03  0.00000000000E+00 0.  1.
         -2   -1    0    0    0  501 -0.00000000000E+00 -0.00000000000E+00 -0.14984157529E+04  0.14984157529E+04  0.00000000000E+00 0. -1.
         23    2    1    2    0    0  0.10561474092E+03 -0.16878021060E+03 -0.62725773280E+03  0.66415201782E+03  0.89467348444E+02 0.  0.
        254    2    1    2    0    0 -0.10561474092E+03  0.16878021060E+03 -0.60189453993E+03  0.11035272153E+04  0.90324639201E+03 0.  0.
        -24    2    4    4    0    0  0.28690238192E+03  0.46996440893E+02  0.71045871733E+02  0.31099313490E+03  0.84543313476E+02 0.  0.
         24    2    4    4    0    0 -0.39251712284E+03  0.12178376971E+03 -0.67294041167E+03  0.79253408039E+03  0.79752696720E+02 0.  0.
         11    1    3    3    0    0  0.45142116523E+02 -0.75164244629E+01 -0.14600503951E+03  0.15300908104E+03  0.00000000000E+00 0.  1.
        -11    1    3    3    0    0  0.60472624395E+02 -0.16126378614E+03 -0.48125269329E+03  0.51114293678E+03  0.00000000000E+00 0. -1.
          4    1    6    6  502    0 -0.37208288045E+03  0.12726864220E+03 -0.65827315073E+03  0.76678974836E+03  0.00000000000E+00 0. -1.
          3    1    5    5  503    0  0.16992806444E+03  0.62179387373E+02  0.67048870748E+02  0.19296987943E+03  0.00000000000E+00 0. -1.
         -4    1    5    5    0  503  0.11697431748E+03 -0.15182946480E+02  0.39970009852E+01  0.11802325547E+03  0.00000000000E+00 0.  1.
         -3    1    6    6    0  502 -0.20434242389E+02 -0.54848724913E+01 -0.14667260931E+02  0.25744332026E+02  0.00000000000E+00 0.  1.
<mgrwt>
<rscale>  0 0.12703836E+04</rscale>
<asrwt>0</asrwt>
<pdfrwt beam="1">  1        2 0.41425151E-01 0.12703836E+04</pdfrwt>
<pdfrwt beam="2">  1       -2 0.23052550E+00 0.12703836E+04</pdfrwt>
<totfact> 0.10330032E+01</totfact>
</mgrwt>
</event>
<event>
12    1  0.4612066E-007  0.1837802E+04  0.7818608E-02  0.8686451E-01
         -2   -1    0    0    0  501 -0.00000000000E+00  0.00000000000E+00  0.53327987696E+03  0.53327987696E+03  0.00000000000E+00 0.  1.
          2   -1    0    0  501    0  0.00000000000E+00 -0.00000000000E+00 -0.15833689177E+04  0.15833689177E+04  0.00000000000E+00 0. -1.
         23    2    1    2    0    0  0.47490691297E+03 -0.18054234408E+03  0.14705089373E+03  0.53661008525E+03  0.90522396417E+02 0.  0.
        254    2    1    2    0    0 -0.47490691297E+03  0.18054234408E+03 -0.11971399344E+04  0.15800387094E+04  0.89735510615E+03 0.  0.
        -24    2    4    4    0    0 -0.69853725802E+03  0.19740674712E+03 -0.11057083485E+04  0.13250579636E+04  0.79144996185E+02 0.  0.
         24    2    4    4    0    0  0.22363034505E+03 -0.16864403048E+02 -0.91431585941E+02  0.25498074574E+03  0.79752783471E+02 0.  0.
         13    1    3    3    0    0  0.22992247639E+03 -0.46963714649E+02  0.41681039993E+02  0.23834270439E+03  0.00000000000E+00 0. -1.
        -13    1    3    3    0    0  0.24498443658E+03 -0.13357862943E+03  0.10536985373E+03  0.29826738086E+03  0.00000000000E+00 0.  1.
          4    1    6    6  502    0  0.30980086821E+02 -0.26058503952E+02 -0.36331924625E+02  0.54395037960E+02  0.00000000000E+00 0. -1.
          1    1    5    5  503    0 -0.24391203333E+01  0.46679823429E+00  0.11680278268E+01  0.27443574104E+01  0.00000000000E+00 0. -1.
         -2    1    5    5    0  503 -0.69609813769E+03  0.19693994889E+03 -0.11068763763E+04  0.13223136062E+04  0.00000000000E+00 0.  1.
         -3    1    6    6    0  502  0.19265025823E+03  0.91941009036E+01 -0.55099661315E+02  0.20058570778E+03  0.00000000000E+00 0.  1.
<mgrwt>
<rscale>  0 0.18378017E+04</rscale>
<asrwt>0</asrwt>
<pdfrwt beam="1">  1        2 0.24359522E+00 0.18378017E+04</pdfrwt>
<pdfrwt beam="2">  1       -2 0.82043059E-01 0.18378017E+04</pdfrwt>
<totfact> 0.14003167E+01</totfact>
</mgrwt>
</event>
<event>
12    1  0.4612066E-007  0.3516729E+04  0.7818608E-02  0.8109837E-01
          1   -1    0    0  501    0  0.00000000000E+00  0.00000000000E+00  0.27438983870E+04  0.27438983870E+04  0.00000000000E+00 0. -1.
         -1   -1    0    0    0  501 -0.00000000000E+00 -0.00000000000E+00 -0.11268075646E+04  0.11268075646E+04  0.00000000000E+00 0.  1.
         23    2    1    2    0    0 -0.52779296636E+03 -0.35584778188E+03 -0.90733886638E+03  0.11126702440E+04  0.97868249663E+02 0.  0.
        254    2    1    2    0    0  0.52779296636E+03  0.35584778188E+03  0.25244296888E+04  0.27580357076E+04  0.91039697482E+03 0.  0.
        -24    2    4    4    0    0  0.25786091677E+03  0.23434119668E+03  0.19301304963E+03  0.40662439174E+03  0.81739279279E+02 0.  0.
         24    2    4    4    0    0  0.26993204960E+03  0.12150658520E+03  0.23314166392E+04  0.23514113159E+04  0.77488512155E+02 0.  0.
         13    1    3    3    0    0 -0.44930872063E+03 -0.26934075345E+03 -0.69486335213E+03  0.87020563434E+03  0.00000000000E+00 0.  1.
        -13    1    3    3    0    0 -0.78484245734E+02 -0.86507028428E+02 -0.21247551425E+03  0.24246460969E+03  0.00000000000E+00 0. -1.
          4    1    6    6  502    0  0.21725578022E+03  0.12104723484E+03  0.20573863132E+04  0.20723636140E+04  0.00000000000E+00 0. -1.
          3    1    5    5  503    0  0.23589748289E+03  0.17258270725E+03  0.15476180670E+03  0.33073196109E+03  0.00000000000E+00 0. -1.
         -4    1    5    5    0  503  0.21963433875E+02  0.61758489431E+02  0.38251242929E+02  0.75892430650E+02  0.00000000000E+00 0.  1.
         -3    1    6    6    0  502  0.52676269371E+02  0.45935035841E+00  0.27403032597E+03  0.27904770185E+03  0.00000000000E+00 0.  1.
<mgrwt>
<rscale>  0 0.35167289E+04</rscale>
<asrwt>0</asrwt>
<pdfrwt beam="1">  1        1 0.42213821E+00 0.35167289E+04</pdfrwt>
<pdfrwt beam="2">  1       -1 0.17335501E+00 0.35167289E+04</pdfrwt>
<totfact> 0.17300248E-01</totfact>
</mgrwt>
</event>
<event>
12    1  0.4612066E-007  0.1081625E+04  0.7818608E-02  0.9223289E-01
         -2   -1    0    0    0  501 -0.00000000000E+00  0.00000000000E+00  0.12213750705E+03  0.12213750705E+03  0.00000000000E+00 0.  1.
          2   -1    0    0  501    0  0.00000000000E+00 -0.00000000000E+00 -0.23946608093E+04  0.23946608093E+04  0.00000000000E+00 0. -1.
         23    2    1    2    0    0  0.82378206120E+02 -0.73094642233E+02 -0.13016997816E+03  0.19404647679E+03  0.92632696037E+02 0.  0.
        254    2    1    2    0    0 -0.82378206120E+02  0.73094642233E+02 -0.21423533241E+04  0.23227518396E+04  0.89071283101E+03 0.  0.
        -24    2    4    4    0    0  0.63766766256E+02  0.37643129759E+03 -0.45023719340E+03  0.59563006025E+03  0.79340507079E+02 0.  0.
         24    2    4    4    0    0 -0.14614497238E+03 -0.30333665536E+03 -0.16921161307E+04  0.17271217793E+04  0.79505731609E+02 0.  0.
         11    1    3    3    0    0 -0.60520810740E+01 -0.39392361312E+02 -0.73857530347E+02  0.83924493469E+02  0.00000000000E+00 0. -1.
        -11    1    3    3    0    0  0.88430287194E+02 -0.33702280921E+02 -0.56312447808E+02  0.11012198332E+03  0.00000000000E+00 0.  1.
          2    1    6    6  502    0 -0.85077810693E+02 -0.10179097436E+03 -0.76204715063E+03  0.77350856240E+03  0.00000000000E+00 0. -1.
          3    1    5    5  503    0  0.27835474095E+02  0.24595579513E+03 -0.34286050130E+03  0.42287396483E+03  0.00000000000E+00 0. -1.
         -4    1    5    5    0  503  0.35931292161E+02  0.13047550246E+03 -0.10737669211E+03  0.17275609542E+03  0.00000000000E+00 0.  1.
         -1    1    6    6    0  502 -0.61067161683E+02 -0.20154568100E+03 -0.93006898010E+03  0.95361321693E+03  0.00000000000E+00 0.  1.
<mgrwt>
<rscale>  0 0.10816245E+04</rscale>
<asrwt>0</asrwt>
<pdfrwt beam="1">  1        2 0.36840934E+00 0.10816245E+04</pdfrwt>
<pdfrwt beam="2">  1       -2 0.18790387E-01 0.10816245E+04</pdfrwt>
<totfact> 0.95601342E+01</totfact>
</mgrwt>
</event>
<event>
12    1  0.4612066E-007  0.3439776E+04  0.7818608E-02  0.8128212E-01
         -2   -1    0    0    0  501 -0.00000000000E+00  0.00000000000E+00  0.15187527316E+04  0.15187527316E+04  0.00000000000E+00 0.  1.
          2   -1    0    0  501    0  0.00000000000E+00 -0.00000000000E+00 -0.19476604042E+04  0.19476604042E+04  0.00000000000E+00 0. -1.
         23    2    1    2    0    0  0.99094723306E+03  0.76258562673E+03  0.80840985791E+03  0.14917644524E+04  0.91221851319E+02 0.  0.
        254    2    1    2    0    0 -0.99094723306E+03 -0.76258562673E+03 -0.12373175305E+04  0.19746486835E+04  0.89708945760E+03 0.  0.
        -24    2    4    4    0    0 -0.95265623447E+03 -0.70556573211E+03 -0.13642611458E+04  0.18091458811E+04  0.80146378732E+02 0.  0.
         24    2    4    4    0    0 -0.38290998591E+02 -0.57019894620E+02  0.12694361523E+03  0.16550280232E+03  0.80987821135E+02 0.  0.
         13    1    3    3    0    0  0.97961179028E+03  0.74892762996E+03  0.78272838308E+03  0.14605463280E+04  0.00000000000E+00 0. -1.
        -13    1    3    3    0    0  0.11335442773E+02  0.13657996773E+02  0.25681474825E+02  0.31218124349E+02  0.00000000000E+00 0.  1.
          2    1    6    6  502    0 -0.23624289160E+02 -0.23127775994E+02  0.12414016384E+03  0.12846704379E+03  0.00000000000E+00 0. -1.
          1    1    5    5  503    0 -0.93673882974E+03 -0.70101510665E+03 -0.13320095585E+04  0.17728934764E+04  0.00000000000E+00 0. -1.
         -2    1    5    5    0  503 -0.15917404728E+02 -0.45506254640E+01 -0.32251587268E+02  0.36252404702E+02  0.00000000000E+00 0.  1.
         -1    1    6    6    0  502 -0.14666709431E+02 -0.33892118626E+02  0.28034513904E+01  0.37035758534E+02  0.00000000000E+00 0.  1.
<mgrwt>
<rscale>  0 0.34397759E+04</rscale>
<asrwt>0</asrwt>
<pdfrwt beam="1">  1        2 0.29964006E+00 0.34397759E+04</pdfrwt>
<pdfrwt beam="2">  1       -2 0.23365427E+00 0.34397759E+04</pdfrwt>
<totfact> 0.47859282E-01</totfact>
</mgrwt>
</event>
<event>
12    1  0.4612066E-007  0.1229680E+04  0.7818608E-02  0.9087267E-01
         -3   -1    0    0    0  501 -0.00000000000E+00  0.00000000000E+00  0.97115985189E+03  0.97115985189E+03  0.00000000000E+00 0.  1.
          3   -1    0    0  501    0  0.00000000000E+00 -0.00000000000E+00 -0.38925445381E+03  0.38925445381E+03  0.00000000000E+00 0. -1.
         23    2    1    2    0    0 -0.26532267387E+03  0.33959743880E+02  0.97270556620E+02  0.30058742662E+03  0.96653268864E+02 0.  0.
        254    2    1    2    0    0  0.26532267387E+03 -0.33959743880E+02  0.48463484145E+03  0.10598268791E+04  0.90377690754E+03 0.  0.
        -24    2    4    4    0    0 -0.23321942617E+03  0.12261910335E+03  0.45334495911E+03  0.53032449948E+03  0.79345305797E+02 0.  0.
         24    2    4    4    0    0  0.49854210004E+03 -0.15657884723E+03  0.31289882346E+02  0.52950237960E+03  0.79577335712E+02 0.  0.
         13    1    3    3    0    0 -0.91872885488E+02  0.40972828816E+02  0.75204592290E+02  0.12559908634E+03  0.00000000000E+00 0.  1.
        -13    1    3    3    0    0 -0.17344978838E+03 -0.70130849361E+01  0.22065964330E+02  0.17498834027E+03  0.00000000000E+00 0. -1.
          4    1    6    6  502    0  0.31196699301E+03 -0.57637222047E+02  0.12730762934E+02  0.31750201010E+03  0.00000000000E+00 0. -1.
          1    1    5    5  503    0 -0.26041075418E+02  0.24932187703E+02  0.22843176108E+02  0.42679764377E+02  0.00000000000E+00 0. -1.
         -2    1    5    5    0  503 -0.20717835075E+03  0.97686915647E+02  0.43050178300E+03  0.48764473510E+03  0.00000000000E+00 0.  1.
         -3    1    6    6    0  502  0.18657510703E+03 -0.98941625183E+02  0.18559119412E+02  0.21200036950E+03  0.00000000000E+00 0.  1.
<mgrwt>
<rscale>  0 0.12296801E+04</rscale>
<asrwt>0</asrwt>
<pdfrwt beam="1">  1        3 0.59885301E-01 0.12296801E+04</pdfrwt>
<pdfrwt beam="2">  1       -3 0.14940921E+00 0.12296801E+04</pdfrwt>
<totfact> 0.22930354E+00</totfact>
</mgrwt>
</event>
<event>
12    1  0.4612066E-007  0.1338672E+04  0.7818608E-02  0.8999448E-01
          2   -1    0    0  501    0  0.00000000000E+00  0.00000000000E+00  0.17596314261E+04  0.17596314261E+04  0.00000000000E+00 0. -1.
         -2   -1    0    0    0  501 -0.00000000000E+00 -0.00000000000E+00 -0.25460490580E+03  0.25460490580E+03  0.00000000000E+00 0.  1.
         23    2    1    2    0    0 -0.15785036002E+03  0.16875167300E+02  0.89726782996E+03  0.91589726582E+03  0.92610665836E+02 0.  0.
        254    2    1    2    0    0  0.15785036002E+03 -0.16875167300E+02  0.60775869032E+03  0.10983390661E+04  0.90098644327E+03 0.  0.
        -24    2    4    4    0    0 -0.16060660563E+03  0.35537770404E+03  0.15751951612E+03  0.42824113726E+03  0.80562270229E+02 0.  0.
         24    2    4    4    0    0  0.31845696565E+03 -0.37225287134E+03  0.45023917420E+03  0.67009792881E+03  0.79554264600E+02 0.  0.
         11    1    3    3    0    0 -0.57838598523E+01 -0.12791002509E+02  0.16759563260E+02  0.21861970191E+02  0.00000000000E+00 0.  1.
        -11    1    3    3    0    0 -0.15206650017E+03  0.29666169808E+02  0.88050826670E+03  0.89403529563E+03  0.00000000000E+00 0. -1.
          2    1    6    6  502    0  0.27657624599E+03 -0.35255095107E+03  0.38935812182E+03  0.59362137763E+03  0.00000000000E+00 0. -1.
          3    1    5    5  503    0 -0.13340064043E+03  0.31256686198E+03  0.10611936631E+03  0.35602681638E+03  0.00000000000E+00 0. -1.
         -4    1    5    5    0  503 -0.27205965193E+02  0.42810842058E+02  0.51400149804E+02  0.72214320877E+02  0.00000000000E+00 0.  1.
         -1    1    6    6    0  502  0.41880719653E+02 -0.19701920265E+02  0.60881052387E+02  0.76476551181E+02  0.00000000000E+00 0.  1.
<mgrwt>
<rscale>  0 0.13386722E+04</rscale>
<asrwt>0</asrwt>
<pdfrwt beam="1">  1        2 0.27071252E+00 0.13386722E+04</pdfrwt>
<pdfrwt beam="2">  1       -2 0.39169987E-01 0.13386722E+04</pdfrwt>
<totfact> 0.54729302E+01</totfact>
</mgrwt>
</event>
<event>
12    1  0.4612066E-007  0.2135573E+04  0.7818608E-02  0.8545733E-01
         -1   -1    0    0    0  501 -0.00000000000E+00  0.00000000000E+00  0.11382871243E+04  0.11382871243E+04  0.00000000000E+00 0.  1.
          1   -1    0    0  501    0  0.00000000000E+00 -0.00000000000E+00 -0.10016522270E+04  0.10016522270E+04  0.00000000000E+00 0. -1.
         23    2    1    2    0    0  0.43035071416E+02 -0.87352174258E+03  0.44444171086E+02  0.88020688367E+03  0.88862937019E+02 0.  0.
        254    2    1    2    0    0 -0.43035071416E+02  0.87352174258E+03  0.92190726201E+02  0.12597324676E+04  0.90196147796E+03 0.  0.
        -24    2    4    4    0    0 -0.18640860384E+03  0.88640624511E+03  0.33312451548E+03  0.96840436667E+03  0.79817765059E+02 0.  0.
         24    2    4    4    0    0  0.14337353243E+03 -0.12884502526E+02 -0.24093378927E+03  0.29132810090E+03  0.78108843001E+02 0.  0.
         11    1    3    3    0    0  0.67815792212E+02 -0.59247729090E+03  0.14932118061E+02  0.59653272338E+03  0.00000000000E+00 0.  1.
        -11    1    3    3    0    0 -0.24780720796E+02 -0.28104445168E+03  0.29512053025E+02  0.28367416029E+03  0.00000000000E+00 0. -1.
          2    1    6    6  502    0  0.62800451724E+02  0.39670512615E+01 -0.40979992670E+02  0.75093235592E+02  0.00000000000E+00 0. -1.
          3    1    5    5  503    0 -0.36781557255E+01  0.15549604254E+03  0.46833628466E+02  0.16243748591E+03  0.00000000000E+00 0. -1.
         -4    1    5    5    0  503 -0.18273044812E+03  0.73091020257E+03  0.28629088701E+03  0.80596688076E+03  0.00000000000E+00 0.  1.
         -1    1    6    6    0  502  0.80573080704E+02 -0.16851553788E+02 -0.19995379660E+03  0.21623486531E+03  0.00000000000E+00 0.  1.
<mgrwt>
<rscale>  0 0.21355728E+04</rscale>
<asrwt>0</asrwt>
<pdfrwt beam="1">  1        1 0.15410034E+00 0.21355728E+04</pdfrwt>
<pdfrwt beam="2">  1       -1 0.17512110E+00 0.21355728E+04</pdfrwt>
<totfact> 0.31222531E+00</totfact>
</mgrwt>
</event>
<event>
12    1  0.4612066E-007  0.3273240E+04  0.7818608E-02  0.8169738E-01
          1   -1    0    0  501    0  0.00000000000E+00  0.00000000000E+00  0.11934442877E+04  0.11934442877E+04  0.00000000000E+00 0. -1.
         -1   -1    0    0    0  501 -0.00000000000E+00 -0.00000000000E+00 -0.22443649263E+04  0.22443649263E+04  0.00000000000E+00 0.  1.
         23    2    1    2    0    0  0.52000680884E+03  0.33811737162E+03 -0.19316703871E+04  0.20307757076E+04  0.89269547576E+02 0.  0.
        254    2    1    2    0    0 -0.52000680884E+03 -0.33811737162E+03  0.88074974850E+03  0.14070335063E+04  0.90514790513E+03 0.  0.
        -24    2    4    4    0    0  0.92978344261E+02 -0.35772088975E+03  0.63984243070E+03  0.74330773835E+03  0.80615447083E+02 0.  0.
         24    2    4    4    0    0 -0.61298515310E+03  0.19603518131E+02  0.24090731781E+03  0.66372576796E+03  0.79752513658E+02 0.  0.
         13    1    3    3    0    0  0.25896546925E+03  0.21667556400E+03 -0.11021641776E+04  0.11527260250E+04  0.00000000000E+00 0. -1.
        -13    1    3    3    0    0  0.26104133959E+03  0.12144180762E+03 -0.82950620950E+03  0.87804968266E+03  0.00000000000E+00 0.  1.
          2    1    6    6  502    0 -0.25255323028E+03  0.18469807608E+01  0.14113049190E+03  0.28931706000E+03  0.00000000000E+00 0. -1.
          1    1    5    5  503    0 -0.10740617860E+02 -0.31948010802E+02  0.86893785056E+02  0.93201749702E+02  0.00000000000E+00 0. -1.
         -2    1    5    5    0  503  0.10371896212E+03 -0.32577287895E+03  0.55294864564E+03  0.65010598865E+03  0.00000000000E+00 0.  1.
         -1    1    6    6    0  502 -0.36043192283E+03  0.17756537370E+02  0.99776825908E+02  0.37440870796E+03  0.00000000000E+00 0.  1.
<mgrwt>
<rscale>  0 0.32732397E+04</rscale>
<asrwt>0</asrwt>
<pdfrwt beam="1">  1        1 0.18360682E+00 0.32732397E+04</pdfrwt>
<pdfrwt beam="2">  1       -1 0.34528691E+00 0.32732397E+04</pdfrwt>
<totfact> 0.14993183E-01</totfact>
</mgrwt>
</event>
<event>
12    1  0.4612066E-007  0.1186079E+04  0.7818608E-02  0.9125130E-01
         -1   -1    0    0    0  501 -0.00000000000E+00  0.00000000000E+00  0.37864850538E+03  0.37864850538E+03  0.00000000000E+00 0.  1.
          1   -1    0    0  501    0  0.00000000000E+00 -0.00000000000E+00 -0.92881826391E+03  0.92881826391E+03  0.00000000000E+00 0. -1.
         23    2    1    2    0    0  0.31231219215E+01 -0.19539186344E+03  0.31266472874E+02  0.21587970791E+03  0.86248024748E+02 0.  0.
        254    2    1    2    0    0 -0.31231219215E+01  0.19539186344E+03 -0.58143623141E+03  0.10915870614E+04  0.90294323585E+03 0.  0.
        -24    2    4    4    0    0 -0.29057237766E+03  0.57068880166E+02  0.11012410876E+03  0.32587322077E+03  0.79855325079E+02 0.  0.
         24    2    4    4    0    0  0.28744925574E+03  0.13832298328E+03 -0.69156034017E+03  0.76571384060E+03  0.79382991024E+02 0.  0.
         11    1    3    3    0    0 -0.21816866109E+02 -0.16538050039E+03  0.15320716278E+01  0.16682036087E+03  0.00000000000E+00 0.  1.
        -11    1    3    3    0    0  0.24939988030E+02 -0.30011363050E+02  0.29734401247E+02  0.49059347046E+02  0.00000000000E+00 0. -1.
          4    1    6    6  502    0  0.52590744795E+01  0.22003599268E+02 -0.35009487026E+02  0.41683095218E+02  0.00000000000E+00 0. -1.
          3    1    5    5  503    0 -0.63036594408E+02  0.30009889507E+02  0.58276590910E+02  0.90941556787E+02  0.00000000000E+00 0. -1.
         -4    1    5    5    0  503 -0.22753578325E+03  0.27058990659E+02  0.51847517852E+02  0.23493166398E+03  0.00000000000E+00 0.  1.
         -3    1    6    6    0  502  0.28219018126E+03  0.11631938401E+03 -0.65655085315E+03  0.72403074538E+03  0.00000000000E+00 0.  1.
<mgrwt>
<rscale>  0 0.11860787E+04</rscale>
<asrwt>0</asrwt>
<pdfrwt beam="1">  1        1 0.14289512E+00 0.11860787E+04</pdfrwt>
<pdfrwt beam="2">  1       -1 0.58253617E-01 0.11860787E+04</pdfrwt>
<totfact> 0.50990619E+01</totfact>
</mgrwt>
</event>
<event>
12    1  0.4612066E-007  0.1069939E+04  0.7818608E-02  0.9234997E-01
          1   -1    0    0  501    0  0.00000000000E+00  0.00000000000E+00  0.31864023342E+03  0.31864023342E+03  0.00000000000E+00 0. -1.
         -1   -1    0    0    0  501 -0.00000000000E+00 -0.00000000000E+00 -0.89816841429E+03  0.89816841429E+03  0.00000000000E+00 0.  1.
         23    2    1    2    0    0 -0.82274845816E+02 -0.74377871784E+02 -0.14998050094E+03  0.21707175804E+03  0.11101702308E+03 0.  0.
        254    2    1    2    0    0  0.82274845816E+02  0.74377871784E+02 -0.42954767993E+03  0.99973688967E+03  0.89591373534E+03 0.  0.
        -24    2    4    4    0    0  0.19936501784E+03 -0.37358415431E+03 -0.16977489521E+03  0.46290117935E+03  0.78373822882E+02 0.  0.
         24    2    4    4    0    0 -0.11709017203E+03  0.44796202609E+03 -0.25977278472E+03  0.53683571032E+03  0.79565036246E+02 0.  0.
         13    1    3    3    0    0 -0.56355653634E+02 -0.83037074965E+02 -0.47534183695E+02  0.11104329847E+03  0.00000000000E+00 0. -1.
        -13    1    3    3    0    0 -0.25919192182E+02  0.86592031809E+01 -0.10244631724E+03  0.10602845958E+03  0.00000000000E+00 0.  1.
          2    1    6    6  502    0 -0.98039167121E+02  0.25183591022E+03 -0.17734918514E+03  0.32324253655E+03  0.00000000000E+00 0. -1.
          1    1    5    5  503    0  0.19826945660E+03 -0.31731886148E+03 -0.14277131136E+03  0.40048181559E+03  0.00000000000E+00 0. -1.
         -2    1    5    5    0  503  0.10955612379E+01 -0.56265292826E+02 -0.27003583849E+02  0.62419363757E+02  0.00000000000E+00 0.  1.
         -1    1    6    6    0  502 -0.19051004905E+02  0.19612611587E+03 -0.82423599577E+02  0.21359317377E+03  0.00000000000E+00 0.  1.
<mgrwt>
<rscale>  0 0.10699394E+04</rscale>
<asrwt>0</asrwt>
<pdfrwt beam="1">  1        1 0.49021574E-01 0.10699394E+04</pdfrwt>
<pdfrwt beam="2">  1       -1 0.13817976E+00 0.10699394E+04</pdfrwt>
<totfact> 0.35093390E+01</totfact>
</mgrwt>
</event>
<event>
12    1  0.4612066E-007  0.2202736E+04  0.7818608E-02  0.8517290E-01
          2   -1    0    0  501    0  0.00000000000E+00  0.00000000000E+00  0.14770483994E+04  0.14770483994E+04  0.00000000000E+00 0. -1.
         -2   -1    0    0    0  501 -0.00000000000E+00 -0.00000000000E+00 -0.82124036177E+03  0.82124036177E+03  0.00000000000E+00 0.  1.
         23    2    1    2    0    0 -0.81976622545E+03 -0.21970482209E+03 -0.77495981835E+02  0.85761658389E+03  0.95988043673E+02 0.  0.
        254    2    1    2    0    0  0.81976622545E+03  0.21970482209E+03  0.73330401944E+03  0.14406721773E+04  0.90416517526E+03 0.  0.
        -24    2    4    4    0    0  0.23449796894E+02  0.10202758329E+02 -0.18567615807E+03  0.20376808240E+03  0.79948774079E+02 0.  0.
         24    2    4    4    0    0  0.79631642856E+03  0.20950206376E+03  0.91898017751E+03  0.12369040949E+04  0.86001186604E+02 0.  0.
         11    1    3    3    0    0 -0.41249519436E+03 -0.65041093757E+02 -0.57241572664E+02  0.42149641385E+03  0.00000000000E+00 0. -1.
        -11    1    3    3    0    0 -0.40727103109E+03 -0.15466372833E+03 -0.20254409171E+02  0.43612017004E+03  0.00000000000E+00 0.  1.
          4    1    6    6  502    0  0.14647970276E+03  0.63518039204E+02  0.21485903448E+03  0.26768498150E+03  0.00000000000E+00 0. -1.
          3    1    5    5  503    0 -0.19985472809E+02 -0.21280148911E+02 -0.50417508365E+02  0.58259668819E+02  0.00000000000E+00 0. -1.
         -4    1    5    5    0  503  0.43435269703E+02  0.31482907241E+02 -0.13525864971E+03  0.14550841358E+03  0.00000000000E+00 0.  1.
         -3    1    6    6    0  502  0.64983672580E+03  0.14598402455E+03  0.70412114304E+03  0.96921911335E+03  0.00000000000E+00 0.  1.
<mgrwt>
<rscale>  0 0.22027363E+04</rscale>
<asrwt>0</asrwt>
<pdfrwt beam="1">  1        2 0.22723822E+00 0.22027363E+04</pdfrwt>
<pdfrwt beam="2">  1       -2 0.12634467E+00 0.22027363E+04</pdfrwt>
<totfact> 0.55797255E+00</totfact>
</mgrwt>
</event>
<event>
12    1  0.4612066E-007  0.1314649E+04  0.7818608E-02  0.9018029E-01
          1   -1    0    0  501    0  0.00000000000E+00  0.00000000000E+00  0.37663276802E+03  0.37663276802E+03  0.00000000000E+00 0. -1.
         -1   -1    0    0    0  501 -0.00000000000E+00 -0.00000000000E+00 -0.11472057924E+04  0.11472057924E+04  0.00000000000E+00 0.  1.
         23    2    1    2    0    0  0.11176374299E+03  0.68345053218E+02  0.16012996188E+03  0.22589620322E+03  0.90693491456E+02 0.  0.
        254    2    1    2    0    0 -0.11176374299E+03 -0.68345053218E+02 -0.93070298624E+03  0.12979423572E+04  0.89514475557E+03 0.  0.
        -24    2    4    4    0    0 -0.48815934358E+03  0.24408672897E+02 -0.40217357649E+03  0.63787635847E+03  0.79040085007E+02 0.  0.
         24    2    4    4    0    0  0.37639560059E+03 -0.92753726115E+02 -0.52852940975E+03  0.66006599871E+03  0.77890203678E+02 0.  0.
         13    1    3    3    0    0  0.10666104446E+03  0.79630299884E+02  0.16550924399E+03  0.21239320354E+03  0.00000000000E+00 0. -1.
        -13    1    3    3    0    0  0.51026985244E+01 -0.11285246665E+02 -0.53792821022E+01  0.13502999684E+02  0.00000000000E+00 0.  1.
          2    1    6    6  502    0  0.27077873931E+03 -0.31258307681E+02 -0.38156382795E+03  0.46892340767E+03  0.00000000000E+00 0. -1.
          3    1    5    5  503    0 -0.48560722982E+03  0.15544396751E+02 -0.39572723718E+03  0.62662273831E+03  0.00000000000E+00 0. -1.
         -4    1    5    5    0  503 -0.25521137576E+01  0.88642761462E+01 -0.64463393058E+01  0.11253620159E+02  0.00000000000E+00 0.  1.
         -1    1    6    6    0  502  0.10561686128E+03 -0.61495418434E+02 -0.14696558180E+03  0.19114259104E+03  0.00000000000E+00 0.  1.
<mgrwt>
<rscale>  0 0.13146487E+04</rscale>
<asrwt>0</asrwt>
<pdfrwt beam="1">  1        1 0.57943503E-01 0.13146487E+04</pdfrwt>
<pdfrwt beam="2">  1       -1 0.17649320E+00 0.13146487E+04</pdfrwt>
<totfact> 0.14072096E+01</totfact>
</mgrwt>
</event>
<event>
12    1  0.4612066E-007  0.1012496E+04  0.7818608E-02  0.9294945E-01
          1   -1    0    0  501    0  0.00000000000E+00  0.00000000000E+00  0.15901844385E+03  0.15901844385E+03  0.00000000000E+00 0. -1.
         -1   -1    0    0    0  501 -0.00000000000E+00 -0.00000000000E+00 -0.16116805407E+04  0.16116805407E+04  0.00000000000E+00 0.  1.
         23    2    1    2    0    0 -0.37860782620E+02  0.19725226061E+02 -0.77881595298E+02  0.12773623024E+03  0.91806743910E+02 0.  0.
        254    2    1    2    0    0  0.37860782620E+02 -0.19725226061E+02 -0.13747805016E+04  0.16429627543E+04  0.89860039016E+03 0.  0.
        -24    2    4    4    0    0 -0.26338635615E+03 -0.26621619700E+03 -0.10858268389E+04  0.11513931265E+04  0.80266876907E+02 0.  0.
         24    2    4    4    0    0  0.30124713877E+03  0.24649097094E+03 -0.28895366268E+03  0.49156962784E+03  0.81479092203E+02 0.  0.
         13    1    3    3    0    0 -0.69922387073E+01 -0.11917909954E+02 -0.82169256416E+02  0.83322954099E+02  0.00000000000E+00 0.  1.
        -13    1    3    3    0    0 -0.30868543912E+02  0.31643136015E+02  0.42876611182E+01  0.44413276146E+02  0.00000000000E+00 0. -1.
          2    1    6    6  502    0  0.12573129835E+03  0.92328583207E+02 -0.68505669168E+02  0.17037004834E+03  0.00000000000E+00 0. -1.
          1    1    5    5  503    0 -0.23284728957E+03 -0.22010447719E+03 -0.83096210331E+03  0.89059634980E+03  0.00000000000E+00 0. -1.
         -4    1    5    5    0  503 -0.30539066584E+02 -0.46111719806E+02 -0.25486473556E+03  0.26079677668E+03  0.00000000000E+00 0.  1.
         -1    1    6    6    0  502  0.17551584042E+03  0.15416238773E+03 -0.22044799351E+03  0.32119957950E+03  0.00000000000E+00 0.  1.
<mgrwt>
<rscale>  0 0.10124958E+04</rscale>
<asrwt>0</asrwt>
<pdfrwt beam="1">  1        1 0.24464376E-01 0.10124958E+04</pdfrwt>
<pdfrwt beam="2">  1       -1 0.24795085E+00 0.10124958E+04</pdfrwt>
<totfact> 0.14560273E+01</totfact>
</mgrwt>
</event>
<event>
12    1  0.4612066E-007  0.2474024E+04  0.7818608E-02  0.8412298E-01
          2   -1    0    0  501    0  0.00000000000E+00  0.00000000000E+00  0.12319504163E+04  0.12319504163E+04  0.00000000000E+00 0. -1.
         -2   -1    0    0    0  501 -0.00000000000E+00 -0.00000000000E+00 -0.12420943604E+04  0.12420943604E+04  0.00000000000E+00 0.  1.
         23    2    1    2    0    0 -0.70631350613E+02 -0.66466803019E+03  0.83844532580E+03  0.10761202322E+04  0.90949501459E+02 0.  0.
        254    2    1    2    0    0  0.70631350613E+02  0.66466803019E+03 -0.84858926995E+03  0.13979245445E+04  0.88730879905E+03 0.  0.
        -24    2    4    4    0    0  0.27571655613E+03 -0.10771498416E+03 -0.20141929263E+03  0.36658817793E+03  0.78708472326E+02 0.  0.
         24    2    4    4    0    0 -0.20508520552E+03  0.77238301435E+03 -0.64716997732E+03  0.10313363665E+04  0.78678198974E+02 0.  0.
         13    1    3    3    0    0  0.61752548974E+01 -0.32082238071E+03  0.43394021710E+03  0.53969365917E+03  0.00000000000E+00 0.  1.
        -13    1    3    3    0    0 -0.76806605510E+02 -0.34384564948E+03  0.40450510871E+03  0.53642657306E+03  0.00000000000E+00 0. -1.
          4    1    6    6  502    0 -0.20357487742E+03  0.69844424092E+03 -0.60503592433E+03  0.94622172778E+03  0.00000000000E+00 0. -1.
          3    1    5    5  503    0  0.19218132175E+03 -0.52084367884E+02 -0.16886039337E+03  0.26107522720E+03  0.00000000000E+00 0. -1.
         -4    1    5    5    0  503  0.83535234383E+02 -0.55630616281E+02 -0.32558899258E+02  0.10551295073E+03  0.00000000000E+00 0.  1.
         -3    1    6    6    0  502 -0.15103280925E+01  0.73938773430E+02 -0.42134052988E+02  0.85114638744E+02  0.00000000000E+00 0.  1.
<mgrwt>
<rscale>  0 0.24740240E+04</rscale>
<asrwt>0</asrwt>
<pdfrwt beam="1">  1        2 0.18953083E+00 0.24740240E+04</pdfrwt>
<pdfrwt beam="2">  1       -2 0.19109144E+00 0.24740240E+04</pdfrwt>
<totfact> 0.24694890E+00</totfact>
</mgrwt>
</event>
<event>
12    1  0.4612066E-007  0.1304759E+04  0.7818608E-02  0.9025800E-01
          1   -1    0    0  501    0  0.00000000000E+00  0.00000000000E+00  0.60724553764E+03  0.60724553764E+03  0.00000000000E+00 0. -1.
         -1   -1    0    0    0  501 -0.00000000000E+00 -0.00000000000E+00 -0.70086787033E+03  0.70086787033E+03  0.00000000000E+00 0.  1.
         23    2    1    2    0    0 -0.22196376479E+03 -0.22427924587E+03  0.81377876067E+02  0.33853202972E+03  0.91719591255E+02 0.  0.
        254    2    1    2    0    0  0.22196376479E+03  0.22427924587E+03 -0.17500020876E+03  0.96958137825E+03  0.89994104417E+03 0.  0.
        -24    2    4    4    0    0 -0.32655248160E+03  0.96892096544E+01 -0.16624110699E+03  0.37517570233E+03  0.79939339160E+02 0.  0.
         24    2    4    4    0    0  0.54851624639E+03  0.21459003622E+03 -0.87591017701E+01  0.59440567592E+03  0.79513706377E+02 0.  0.
         13    1    3    3    0    0 -0.14251494405E+03 -0.13518458226E+03  0.43799605643E+01  0.19648044333E+03  0.00000000000E+00 0.  1.
        -13    1    3    3    0    0 -0.79448820742E+02 -0.89094663615E+02  0.76997915502E+02  0.14205158638E+03  0.00000000000E+00 0. -1.
          4    1    6    6  502    0  0.19011400439E+03  0.95696608386E+02  0.29453923536E+02  0.21486905113E+03  0.00000000000E+00 0. -1.
          3    1    5    5  503    0 -0.20870041639E+02  0.19169562730E+02 -0.29707750823E+01  0.28493091757E+02  0.00000000000E+00 0. -1.
         -4    1    5    5    0  503 -0.30568243996E+03 -0.94803530760E+01 -0.16327033190E+03  0.34668261057E+03  0.00000000000E+00 0.  1.
         -3    1    6    6    0  502  0.35840224201E+03  0.11889342783E+03 -0.38213025306E+02  0.37953662479E+03  0.00000000000E+00 0.  1.
<mgrwt>
<rscale>  0 0.13047588E+04</rscale>
<asrwt>0</asrwt>
<pdfrwt beam="1">  1        1 0.93422391E-01 0.13047588E+04</pdfrwt>
<pdfrwt beam="2">  1       -1 0.10782583E+00 0.13047588E+04</pdfrwt>
<totfact> 0.26458829E+01</totfact>
</mgrwt>
</event>
<event>
12    1  0.4612066E-007  0.2276111E+04  0.7818608E-02  0.8487400E-01
         -2   -1    0    0    0  501 -0.00000000000E+00  0.00000000000E+00  0.49356857278E+03  0.49356857278E+03  0.00000000000E+00 0.  1.
          2   -1    0    0  501    0  0.00000000000E+00 -0.00000000000E+00 -0.26240944260E+04  0.26240944260E+04  0.00000000000E+00 0. -1.
         23    2    1    2    0    0 -0.66453347343E+03 -0.56630911532E+02  0.38253616398E+02  0.67441829148E+03  0.92546719380E+02 0.  0.
        254    2    1    2    0    0  0.66453347343E+03  0.56630911532E+02 -0.21687794697E+04  0.24432447073E+04  0.90610623795E+03 0.  0.
        -24    2    4    4    0    0  0.41033301472E+03 -0.15459083566E+03 -0.28407859661E+03  0.52841552421E+03  0.79062049916E+02 0.  0.
         24    2    4    4    0    0  0.25420045871E+03  0.21122174719E+03 -0.18847008731E+04  0.19148291831E+04  0.72394198424E+02 0.  0.
         11    1    3    3    0    0 -0.21339203322E+03 -0.45311066531E+01 -0.28730340168E+02  0.21536509285E+03  0.00000000000E+00 0. -1.
        -11    1    3    3    0    0 -0.45114144021E+03 -0.52099804879E+02  0.66983956565E+02  0.45905319864E+03  0.00000000000E+00 0.  1.
          2    1    6    6  502    0 -0.13332981478E+01  0.17740311998E+02 -0.93596538393E+02  0.95272285335E+02  0.00000000000E+00 0. -1.
          3    1    5    5  503    0  0.41099988972E+03 -0.15303408447E+03 -0.28763587159E+03  0.52447567626E+03  0.00000000000E+00 0. -1.
         -4    1    5    5    0  503 -0.66687500610E+00 -0.15567511930E+01  0.35572749841E+01  0.39398479493E+01  0.00000000000E+00 0.  1.
         -1    1    6    6    0  502  0.25553375686E+03  0.19348143519E+03 -0.17911043347E+04  0.18195568978E+04  0.00000000000E+00 0.  1.
<mgrwt>
<rscale>  0 0.22761112E+04</rscale>
<asrwt>0</asrwt>
<pdfrwt beam="1">  1        2 0.40370684E+00 0.22761112E+04</pdfrwt>
<pdfrwt beam="2">  1       -2 0.75933626E-01 0.22761112E+04</pdfrwt>
<totfact> 0.41570979E+00</totfact>
</mgrwt>
</event>
<event>
12    1  0.4612066E-007  0.1272356E+04  0.7818608E-02  0.9051779E-01
         -3   -1    0    0    0  501 -0.00000000000E+00  0.00000000000E+00  0.12483976023E+04  0.12483976023E+04  0.00000000000E+00 0.  1.
          3   -1    0    0  501    0  0.00000000000E+00 -0.00000000000E+00 -0.32419367188E+03  0.32419367188E+03  0.00000000000E+00 0. -1.
         23    2    1    2    0    0 -0.22667303783E+02 -0.22436135455E+03 -0.42929353682E+02  0.24621800001E+03  0.89042405858E+02 0.  0.
        254    2    1    2    0    0  0.22667303783E+02  0.22436135455E+03  0.96713328412E+03  0.13263732742E+04  0.87924254286E+03 0.  0.
        -24    2    4    4    0    0 -0.83613827582E+02  0.18671375336E+03 -0.10650685161E+03  0.24420043000E+03  0.80229936523E+02 0.  0.
         24    2    4    4    0    0  0.10628113137E+03  0.37647601194E+02  0.10736401357E+04  0.10821728442E+04  0.75378398112E+02 0.  0.
         11    1    3    3    0    0 -0.80261639601E+01 -0.69510895463E+02 -0.56709786502E+02  0.90067662239E+02  0.00000000000E+00 0. -1.
        -11    1    3    3    0    0 -0.14641139823E+02 -0.15485045909E+03  0.13780432820E+02  0.15615033777E+03  0.00000000000E+00 0.  1.
          2    1    6    6  502    0  0.60985980086E+02  0.44978285920E+02  0.87621637997E+03  0.87948705533E+03  0.00000000000E+00 0. -1.
          3    1    5    5  503    0 -0.55267291133E+02  0.16933380898E+03 -0.61919391866E+02  0.18858001862E+03  0.00000000000E+00 0. -1.
         -4    1    5    5    0  503 -0.28346536449E+02  0.17379944377E+02 -0.44587459747E+02  0.55620411378E+02  0.00000000000E+00 0.  1.
         -1    1    6    6    0  502  0.45295151279E+02 -0.73306847260E+01  0.19742375577E+03  0.20268578887E+03  0.00000000000E+00 0.  1.
<mgrwt>
<rscale>  0 0.12723562E+04</rscale>
<asrwt>0</asrwt>
<pdfrwt beam="1">  1        3 0.49875950E-01 0.12723562E+04</pdfrwt>
<pdfrwt beam="2">  1       -3 0.19206117E+00 0.12723562E+04</pdfrwt>
<totfact> 0.16906015E+00</totfact>
</mgrwt>
</event>
<event>
12    1  0.4612066E-007  0.1683643E+04  0.7818608E-02  0.8770749E-01
          1   -1    0    0  501    0  0.00000000000E+00  0.00000000000E+00  0.73780753135E+03  0.73780753135E+03  0.00000000000E+00 0.  1.
         -1   -1    0    0    0  501 -0.00000000000E+00 -0.00000000000E+00 -0.96049871688E+03  0.96049871688E+03  0.00000000000E+00 0. -1.
         23    2    1    2    0    0  0.33117787660E+03 -0.48011049057E+03 -0.24514466065E+03  0.63912521992E+03  0.90555358654E+02 0.  0.
        254    2    1    2    0    0 -0.33117787660E+03  0.48011049057E+03  0.22453475119E+02  0.10591810283E+04  0.88384128840E+03 0.  0.
        -24    2    4    4    0    0  0.97945464221E+02  0.54313316064E+03 -0.16186545271E+03  0.58137371106E+03  0.84900076458E+02 0.  0.
         24    2    4    4    0    0 -0.42912334082E+03 -0.63022670070E+02  0.18431892783E+03  0.47780731725E+03  0.78788747157E+02 0.  0.
         13    1    3    3    0    0  0.33176692359E+03 -0.45302435106E+03 -0.24332963005E+03  0.61197194634E+03  0.00000000000E+00 0. -1.
        -13    1    3    3    0    0 -0.58904699194E+00 -0.27086139510E+02 -0.18150306003E+01  0.27153273577E+02  0.00000000000E+00 0.  1.
          4    1    6    6  502    0 -0.40575355299E+02  0.15071953888E+02  0.79126893212E+01  0.44001521609E+02  0.00000000000E+00 0. -1.
          3    1    5    5  503    0  0.94937594994E+00 -0.53761085808E+00 -0.80142096829E+01  0.80881330955E+01  0.00000000000E+00 0. -1.
         -4    1    5    5    0  503  0.96996088271E+02  0.54367077150E+03 -0.15385124303E+03  0.57328557796E+03  0.00000000000E+00 0.  1.
         -3    1    6    6    0  502 -0.38854798552E+03 -0.78094623958E+02  0.17640623851E+03  0.43380579564E+03  0.00000000000E+00 0.  1.
<mgrwt>
<rscale>  0 0.16836427E+04</rscale>
<asrwt>0</asrwt>
<pdfrwt beam="1">  1        1 0.11350885E+00 0.16836427E+04</pdfrwt>
<pdfrwt beam="2">  1       -1 0.14776903E+00 0.16836427E+04</pdfrwt>
<totfact> 0.86983565E+00</totfact>
</mgrwt>
</event>
<event>
12    1  0.4612066E-007  0.1405602E+04  0.7818608E-02  0.8949774E-01
          1   -1    0    0  501    0  0.00000000000E+00  0.00000000000E+00  0.31065592690E+04  0.31065592690E+04  0.00000000000E+00 0. -1.
         -1   -1    0    0    0  501 -0.00000000000E+00 -0.00000000000E+00 -0.15899550042E+03  0.15899550042E+03  0.00000000000E+00 0.  1.
         23    2    1    2    0    0  0.26192421844E+03  0.14318848730E+03  0.15192974415E+04  0.15511189530E+04  0.92725677686E+02 0.  0.
        254    2    1    2    0    0 -0.26192421844E+03 -0.14318848730E+03  0.14282663270E+04  0.17144358164E+04  0.90013233953E+03 0.  0.
        -24    2    4    4    0    0 -0.16112522260E+03  0.23285989545E+03  0.12409508906E+04  0.12750117341E+04  0.74234364964E+02 0.  0.
         24    2    4    4    0    0 -0.10079899584E+03 -0.37604838275E+03  0.18731543645E+03  0.43942408236E+03  0.80209897772E+02 0.  0.
         11    1    3    3    0    0  0.12266686737E+03  0.19607671305E+02  0.52070664455E+03  0.53531955952E+03  0.00000000000E+00 0.  1.
        -11    1    3    3    0    0  0.13925735106E+03  0.12358081600E+03  0.99859079699E+03  0.10157993935E+04  0.00000000000E+00 0. -1.
          2    1    6    6  502    0 -0.14305629661E+02 -0.17760299798E+03  0.11082341656E+03  0.20983161246E+03  0.00000000000E+00 0. -1.
          1    1    5    5  503    0 -0.15641763721E+03  0.20164419109E+03  0.10021481103E+04  0.10341313708E+04  0.00000000000E+00 0. -1.
         -4    1    5    5    0  503 -0.47075853893E+01  0.31215704359E+02  0.23880278029E+03  0.24088036332E+03  0.00000000000E+00 0.  1.
         -1    1    6    6    0  502 -0.86493366174E+02 -0.19844538477E+03  0.76492019890E+02  0.22959246990E+03  0.00000000000E+00 0.  1.
<mgrwt>
<rscale>  0 0.14056016E+04</rscale>
<asrwt>0</asrwt>
<pdfrwt beam="1">  1        1 0.47793215E+00 0.14056016E+04</pdfrwt>
<pdfrwt beam="2">  1       -1 0.24460849E-01 0.14056016E+04</pdfrwt>
<totfact> 0.71367164E+00</totfact>
</mgrwt>
</event>
<event>
12    1  0.4612066E-007  0.3715184E+04  0.7818608E-02  0.8064605E-01
          2   -1    0    0  501    0  0.00000000000E+00  0.00000000000E+00  0.39377595157E+04  0.39377595157E+04  0.00000000000E+00 0.  1.
         -2   -1    0    0    0  501 -0.00000000000E+00 -0.00000000000E+00 -0.87629718075E+03  0.87629718075E+03  0.00000000000E+00 0. -1.
         23    2    1    2    0    0  0.85627592636E+03  0.15222727325E+04  0.12846157899E+04  0.21701251657E+04  0.93181398598E+02 0.  0.
        254    2    1    2    0    0 -0.85627592636E+03 -0.15222727325E+04  0.17768465451E+04  0.26439315308E+04  0.88468500631E+03 0.  0.
        -24    2    4    4    0    0 -0.73809039648E+03 -0.43557051018E+03  0.73991646868E+03  0.11351955024E+04  0.81812867720E+02 0.  0.
         24    2    4    4    0    0 -0.11818552989E+03 -0.10867022223E+04  0.10369300764E+04  0.15087360284E+04  0.78554951828E+02 0.  0.
         13    1    3    3    0    0  0.37415404501E+03  0.61603689885E+03  0.57858500786E+03  0.92425825474E+03  0.00000000000E+00 0.  1.
        -13    1    3    3    0    0  0.48212188135E+03  0.90623583366E+03  0.70603078200E+03  0.12458669110E+04  0.00000000000E+00 0. -1.
          2    1    6    6  502    0 -0.11544153214E+03 -0.83888209092E+03  0.77065289670E+03  0.11449697799E+04  0.00000000000E+00 0. -1.
          1    1    5    5  503    0 -0.72489295774E+03 -0.41169258196E+03  0.71643405666E+03  0.10991989537E+04  0.00000000000E+00 0. -1.
         -2    1    5    5    0  503 -0.13197438733E+02 -0.23877928219E+02  0.23482412017E+02  0.35996548714E+02  0.00000000000E+00 0.  1.
         -1    1    6    6    0  502 -0.27439977489E+01 -0.24782013141E+03  0.26627717975E+03  0.36376624845E+03  0.00000000000E+00 0.  1.
<mgrwt>
<rscale>  0 0.37151837E+04</rscale>
<asrwt>0</asrwt>
<pdfrwt beam="1">  1        2 0.60580915E+00 0.37151837E+04</pdfrwt>
<pdfrwt beam="2">  1       -2 0.13481495E+00 0.37151837E+04</pdfrwt>
<totfact> 0.12231781E-01</totfact>
</mgrwt>
</event>
<event>
12    1  0.4612066E-007  0.2390396E+04  0.7818608E-02  0.8443108E-01
          2   -1    0    0  501    0  0.00000000000E+00  0.00000000000E+00  0.18160505455E+04  0.18160505455E+04  0.00000000000E+00 0.  1.
         -2   -1    0    0    0  501 -0.00000000000E+00 -0.00000000000E+00 -0.78659623565E+03  0.78659623565E+03  0.00000000000E+00 0. -1.
         23    2    1    2    0    0 -0.22843821458E+03  0.53183716442E+03  0.13566215013E+04  0.14778697312E+04  0.92963741705E+02 0.  0.
        254    2    1    2    0    0  0.22843821458E+03 -0.53183716442E+03 -0.32716719151E+03  0.11247770499E+04  0.90722117117E+03 0.  0.
        -24    2    4    4    0    0  0.15037659667E+03  0.23843072206E+03 -0.42414547534E+02  0.29615152656E+03  0.80277037765E+02 0.  0.
         24    2    4    4    0    0  0.78061617910E+02 -0.77026788648E+03 -0.28475264398E+03  0.82862552333E+03  0.78294038969E+02 0.  0.
         13    1    3    3    0    0 -0.22977775970E+03  0.53334913040E+03  0.13311119083E+04  0.14522802850E+04  0.00000000000E+00 0. -1.
        -13    1    3    3    0    0  0.13395451208E+01 -0.15119659793E+01  0.25509593035E+02  0.25589446243E+02  0.00000000000E+00 0.  1.
          4    1    6    6  502    0 -0.15411818258E+02 -0.91759571028E+02 -0.28005902099E+02  0.97168274502E+02  0.00000000000E+00 0. -1.
          3    1    5    5  503    0  0.35700542535E+02  0.17445562196E+02 -0.24186167582E+02  0.46517169733E+02  0.00000000000E+00 0. -1.
         -4    1    5    5    0  503  0.11467605413E+03  0.22098515986E+03 -0.18228379951E+02  0.24963435682E+03  0.00000000000E+00 0.  1.
         -3    1    6    6    0  502  0.93473436167E+02 -0.67850831545E+03 -0.25674674188E+03  0.73145724883E+03  0.00000000000E+00 0.  1.
<mgrwt>
<rscale>  0 0.23903962E+04</rscale>
<asrwt>0</asrwt>
<pdfrwt beam="1">  1        2 0.27939239E+00 0.23903962E+04</pdfrwt>
<pdfrwt beam="2">  1       -2 0.12101481E+00 0.23903962E+04</pdfrwt>
<totfact> 0.39561607E+00</totfact>
</mgrwt>
</event>
<event>
12    1  0.4612066E-007  0.2884724E+04  0.7818608E-02  0.8277437E-01
          2   -1    0    0  501    0  0.00000000000E+00  0.00000000000E+00  0.30171640970E+04  0.30171640970E+04  0.00000000000E+00 0. -1.
         -2   -1    0    0    0  501 -0.00000000000E+00 -0.00000000000E+00 -0.68952433938E+03  0.68952433938E+03  0.00000000000E+00 0.  1.
         23    2    1    2    0    0 -0.12805085068E+04  0.12335435789E+03  0.84727170430E+03  0.15431519904E+04  0.92360115666E+02 0.  0.
        254    2    1    2    0    0  0.12805085068E+04 -0.12335435789E+03  0.14803680533E+04  0.21635364459E+04  0.91349988840E+03 0.  0.
        -24    2    4    4    0    0  0.12570850518E+04 -0.35070344214E+03  0.13816640176E+04  0.19021247610E+04  0.76337523229E+02 0.  0.
         24    2    4    4    0    0  0.23423455051E+02  0.22734908424E+03  0.98704035713E+02  0.26141168489E+03  0.79732791124E+02 0.  0.
         13    1    3    3    0    0 -0.26110108399E+03  0.13255437362E+02  0.13110368774E+03  0.29246821984E+03  0.00000000000E+00 0.  1.
        -13    1    3    3    0    0 -0.10194074228E+04  0.11009892053E+03  0.71616801656E+03  0.12506837706E+04  0.00000000000E+00 0. -1.
          4    1    6    6  502    0 -0.16449313356E+02  0.19041310846E+02 -0.44729156903E+01  0.25556963892E+02  0.00000000000E+00 0. -1.
          1    1    5    5  503    0  0.81406423648E+03 -0.18932784763E+03  0.87698715014E+03  0.12114669110E+04  0.00000000000E+00 0. -1.
         -2    1    5    5    0  503  0.44302081527E+03 -0.16137559450E+03  0.50467686743E+03  0.69065785002E+03  0.00000000000E+00 0.  1.
         -3    1    6    6    0  502  0.39872768407E+02  0.20830777340E+03  0.10317695140E+03  0.23585472100E+03  0.00000000000E+00 0.  1.
<mgrwt>
<rscale>  0 0.28847240E+04</rscale>
<asrwt>0</asrwt>
<pdfrwt beam="1">  1        2 0.46417908E+00 0.28847240E+04</pdfrwt>
<pdfrwt beam="2">  1       -2 0.10608067E+00 0.28847240E+04</pdfrwt>
<totfact> 0.10520970E+00</totfact>
</mgrwt>
</event>
<event>
12    1  0.4612066E-007  0.1343486E+04  0.7818608E-02  0.8995774E-01
          3   -1    0    0  501    0  0.00000000000E+00  0.00000000000E+00  0.17046317208E+04  0.17046317208E+04  0.00000000000E+00 0. -1.
         -3   -1    0    0    0  501 -0.00000000000E+00 -0.00000000000E+00 -0.26471335533E+03  0.26471335533E+03  0.00000000000E+00 0.  1.
         23    2    1    2    0    0  0.23507127046E+03  0.64469478417E+02  0.78176935445E+03  0.82390113717E+03  0.90746594559E+02 0.  0.
        254    2    1    2    0    0 -0.23507127046E+03 -0.64469478417E+02  0.65814901103E+03  0.11454439390E+04  0.90524410010E+03 0.  0.
        -24    2    4    4    0    0 -0.43823171928E+03 -0.32201214384E+03  0.21799394668E+03  0.59077340499E+03  0.75848498249E+02 0.  0.
         24    2    4    4    0    0  0.20316044882E+03  0.25754266543E+03  0.44015506434E+03  0.55467053398E+03  0.79501749159E+02 0.  0.
         13    1    3    3    0    0  0.19105757666E+02  0.15896807633E+01  0.13676010705E+02  0.23549741607E+02  0.00000000000E+00 0.  1.
        -13    1    3    3    0    0  0.21596551279E+03  0.62879797654E+02  0.76809334375E+03  0.80035139556E+03  0.00000000000E+00 0. -1.
          2    1    6    6  502    0  0.17348029762E+03  0.19652400057E+03  0.29629247637E+03  0.39560880679E+03  0.00000000000E+00 0. -1.
          1    1    5    5  503    0 -0.36698705565E+03 -0.23165216975E+03  0.17482460324E+03  0.46787377429E+03  0.00000000000E+00 0. -1.
         -2    1    5    5    0  503 -0.71244663623E+02 -0.90359974095E+02  0.43169343443E+02  0.12289963070E+03  0.00000000000E+00 0.  1.
         -1    1    6    6    0  502  0.29680151202E+02  0.61018664862E+02  0.14386258798E+03  0.15906172719E+03  0.00000000000E+00 0.  1.
<mgrwt>
<rscale>  0 0.13434862E+04</rscale>
<asrwt>0</asrwt>
<pdfrwt beam="1">  1        3 0.26225103E+00 0.13434862E+04</pdfrwt>
<pdfrwt beam="2">  1       -3 0.40725133E-01 0.13434862E+04</pdfrwt>
<totfact> 0.97000494E-01</totfact>
</mgrwt>
</event>
<event>
12    1  0.4612066E-007  0.1153459E+04  0.7818608E-02  0.9154598E-01
         -2   -1    0    0    0  501 -0.00000000000E+00  0.00000000000E+00  0.16680736870E+03  0.16680736870E+03  0.00000000000E+00 0.  1.
          2   -1    0    0  501    0  0.00000000000E+00 -0.00000000000E+00 -0.19940196667E+04  0.19940196667E+04  0.00000000000E+00 0. -1.
         23    2    1    2    0    0 -0.86128183020E+02  0.91469292294E+02 -0.22836331381E+02  0.14173506681E+03  0.61503136411E+02 0.  0.
        254    2    1    2    0    0  0.86128183020E+02 -0.91469292294E+02 -0.18043759666E+04  0.20190919686E+04  0.89731547040E+03 0.  0.
        -24    2    4    4    0    0  0.10210153656E+02  0.10627311901E+03  0.55563709266E+02  0.14547538503E+03  0.81716208924E+02 0.  0.
         24    2    4    4    0    0  0.75918029364E+02 -0.19774241130E+03 -0.18599396759E+04  0.18736165836E+04  0.78726716617E+02 0.  0.
         13    1    3    3    0    0 -0.73624134406E+02  0.50643162381E+02  0.70176406506E+01  0.89635318615E+02  0.00000000000E+00 0.  1.
        -13    1    3    3    0    0 -0.12504048614E+02  0.40826129914E+02 -0.29853972031E+02  0.52099748191E+02  0.00000000000E+00 0. -1.
          2    1    6    6  502    0 -0.11978422266E+02 -0.92894103364E+01 -0.22431750607E+03  0.22482908903E+03  0.00000000000E+00 0. -1.
          1    1    5    5  503    0 -0.87046943140E+01  0.11373864886E+02  0.46069847449E+02  0.48244868634E+02  0.00000000000E+00 0. -1.
         -2    1    5    5    0  503  0.18914847970E+02  0.94899254119E+02  0.94938618169E+01  0.97230516394E+02  0.00000000000E+00 0.  1.
         -1    1    6    6    0  502  0.87896451630E+02 -0.18845300096E+03 -0.16356221698E+04  0.16487874945E+04  0.00000000000E+00 0.  1.
<mgrwt>
<rscale>  0 0.11534594E+04</rscale>
<asrwt>0</asrwt>
<pdfrwt beam="1">  1        2 0.30677225E+00 0.11534594E+04</pdfrwt>
<pdfrwt beam="2">  1       -2 0.25662672E-01 0.11534594E+04</pdfrwt>
<totfact> 0.91294590E+01</totfact>
</mgrwt>
</event>
<event>
12    1  0.4612066E-007  0.2148087E+04  0.7818608E-02  0.8540352E-01
          2   -1    0    0  501    0  0.00000000000E+00  0.00000000000E+00  0.50202133089E+03  0.50202133089E+03  0.00000000000E+00 0. -1.
         -2   -1    0    0    0  501 -0.00000000000E+00 -0.00000000000E+00 -0.22978485156E+04  0.22978485156E+04  0.00000000000E+00 0.  1.
         23    2    1    2    0    0 -0.14696668575E+01 -0.88379883431E+03 -0.73931700713E+03  0.11559397322E+04  0.92219781196E+02 0.  0.
        254    2    1    2    0    0  0.14696668575E+01  0.88379883431E+03 -0.10565101776E+04  0.16439301143E+04  0.89732375755E+03 0.  0.
        -24    2    4    4    0    0  0.22432700545E+03  0.62971250881E+03 -0.17270477834E+03  0.69436490479E+03  0.73859538498E+02 0.  0.
         24    2    4    4    0    0 -0.22285733859E+03  0.25408632550E+03 -0.88380539929E+03  0.94956520952E+03  0.79604328693E+02 0.  0.
         11    1    3    3    0    0  0.18108061886E+00 -0.55937162780E+03 -0.52469646274E+03  0.76694395414E+03  0.00000000000E+00 0.  1.
        -11    1    3    3    0    0 -0.16507474764E+01 -0.32442720651E+03 -0.21462054440E+03  0.38899577808E+03  0.00000000000E+00 0. -1.
          4    1    6    6  502    0 -0.20830181654E+02  0.56219665403E+02 -0.10365126867E+03  0.11974194229E+03  0.00000000000E+00 0. -1.
          3    1    5    5  503    0  0.70770621660E+01  0.83286959221E+02 -0.96158813045E+01  0.84138383384E+02  0.00000000000E+00 0. -1.
         -4    1    5    5    0  503  0.21724994328E+03  0.54642554958E+03 -0.16308889703E+03  0.61022652141E+03  0.00000000000E+00 0.  1.
         -3    1    6    6    0  502 -0.20202715694E+03  0.19786666010E+03 -0.78015413062E+03  0.82982326723E+03  0.00000000000E+00 0.  1.
<mgrwt>
<rscale>  0 0.21480866E+04</rscale>
<asrwt>0</asrwt>
<pdfrwt beam="1">  1        2 0.77234052E-01 0.21480866E+04</pdfrwt>
<pdfrwt beam="2">  1       -2 0.35351515E+00 0.21480866E+04</pdfrwt>
<totfact> 0.83311324E-01</totfact>
</mgrwt>
</event>
<event>
12    1  0.4612066E-007  0.2142866E+04  0.7818608E-02  0.8542592E-01
          2   -1    0    0  501    0  0.00000000000E+00  0.00000000000E+00  0.33867836632E+04  0.33867836632E+04  0.00000000000E+00 0. -1.
         -2   -1    0    0    0  501 -0.00000000000E+00 -0.00000000000E+00 -0.33895544099E+03  0.33895544099E+03  0.00000000000E+00 0.  1.
         23    2    1    2    0    0 -0.52820529675E+03  0.65331046551E+03  0.17114323051E+04  0.19086655075E+04  0.90488037248E+02 0.  0.
        254    2    1    2    0    0  0.52820529675E+03 -0.65331046551E+03  0.13363959171E+04  0.18170735967E+04  0.89999278248E+03 0.  0.
        -24    2    4    4    0    0  0.35972153175E+03  0.87617037773E+02  0.14923264883E+03  0.40523969413E+03  0.69803298750E+02 0.  0.
         24    2    4    4    0    0  0.16848376500E+03 -0.74092750328E+03  0.11871632683E+04  0.14118339025E+04  0.80981470284E+02 0.  0.
         11    1    3    3    0    0 -0.41762649153E+03  0.50370700848E+03  0.12442625790E+04  0.14058172009E+04  0.00000000000E+00 0.  1.
        -11    1    3    3    0    0 -0.11057880522E+03  0.14960345703E+03  0.46716972609E+03  0.50284830665E+03  0.00000000000E+00 0. -1.
          4    1    6    6  502    0  0.42052331450E+02 -0.36696244246E+03  0.56846896652E+03  0.67792831380E+03  0.00000000000E+00 0. -1.
          1    1    5    5  503    0  0.24620313640E+03  0.26505166582E+02  0.91655124439E+02  0.26404387905E+03  0.00000000000E+00 0. -1.
         -2    1    5    5    0  503  0.11351839535E+03  0.61111871190E+02  0.57577524388E+02  0.14119581509E+03  0.00000000000E+00 0.  1.
         -3    1    6    6    0  502  0.12643143355E+03 -0.37396506082E+03  0.61869430180E+03  0.73390558874E+03  0.00000000000E+00 0.  1.
<mgrwt>
<rscale>  0 0.21428661E+04</rscale>
<asrwt>0</asrwt>
<pdfrwt beam="1">  1        2 0.52104362E+00 0.21428661E+04</pdfrwt>
<pdfrwt beam="2">  1       -2 0.52146993E-01 0.21428661E+04</pdfrwt>
<totfact> 0.31137953E+00</totfact>
</mgrwt>
</event>
<event>
12    1  0.4612066E-007  0.1890936E+04  0.7818608E-02  0.8659381E-01
          2   -1    0    0  501    0  0.00000000000E+00  0.00000000000E+00  0.61341141176E+03  0.61341141176E+03  0.00000000000E+00 0. -1.
         -2   -1    0    0    0  501 -0.00000000000E+00 -0.00000000000E+00 -0.14572758848E+04  0.14572758848E+04  0.00000000000E+00 0.  1.
         23    2    1    2    0    0 -0.29273887153E+03  0.51485892762E+03  0.12983690179E+03  0.61607666613E+03  0.10916535724E+03 0.  0.
        254    2    1    2    0    0  0.29273887153E+03 -0.51485892762E+03 -0.97370137484E+03  0.14546106304E+04  0.90389266872E+03 0.  0.
        -24    2    4    4    0    0 -0.25129802298E+03  0.65989864174E+02 -0.17033457162E+03  0.32078344429E+03  0.79892385834E+02 0.  0.
         24    2    4    4    0    0  0.54403689452E+03 -0.58084879179E+03 -0.80336680321E+03  0.11338271861E+04  0.82488823531E+02 0.  0.
         13    1    3    3    0    0 -0.53112932153E+02  0.19103067084E+03  0.25274260606E+02  0.19988118724E+03  0.00000000000E+00 0.  1.
        -13    1    3    3    0    0 -0.23962593938E+03  0.32382825678E+03  0.10456264118E+03  0.41619547889E+03  0.00000000000E+00 0. -1.
          2    1    6    6  502    0  0.52189871310E+03 -0.52851845078E+03 -0.75626976733E+03  0.10600254622E+04  0.00000000000E+00 0. -1.
          1    1    5    5  503    0 -0.24642913673E+03  0.77801988895E+02 -0.15728667472E+03  0.30252201069E+03  0.00000000000E+00 0. -1.
         -4    1    5    5    0  503 -0.48688862531E+01 -0.11812124721E+02 -0.13047896905E+02  0.18261433608E+02  0.00000000000E+00 0.  1.
         -3    1    6    6    0  502  0.22138181418E+02 -0.52330341010E+02 -0.47097035888E+02  0.73801723938E+02  0.00000000000E+00 0.  1.
<mgrwt>
<rscale>  0 0.18909359E+04</rscale>
<asrwt>0</asrwt>
<pdfrwt beam="1">  1        2 0.94370988E-01 0.18909359E+04</pdfrwt>
<pdfrwt beam="2">  1       -2 0.22419629E+00 0.18909359E+04</pdfrwt>
<totfact> 0.42050438E+00</totfact>
</mgrwt>
</event>
<event>
12    1  0.4612066E-007  0.1883708E+04  0.7818608E-02  0.8663009E-01
          1   -1    0    0  501    0  0.00000000000E+00  0.00000000000E+00  0.71932611405E+03  0.71932611405E+03  0.00000000000E+00 0. -1.
         -1   -1    0    0    0  501 -0.00000000000E+00 -0.00000000000E+00 -0.12332221139E+04  0.12332221139E+04  0.00000000000E+00 0.  1.
         23    2    1    2    0    0 -0.61126700937E+03  0.19627117372E+03  0.14288306650E+03  0.66470275008E+03  0.96148036352E+02 0.  0.
        254    2    1    2    0    0  0.61126700937E+03 -0.19627117372E+03 -0.65677906633E+03  0.12878454778E+04  0.90278319792E+03 0.  0.
        -24    2    4    4    0    0  0.17579427103E+03 -0.35684447299E+02 -0.77735560596E+03  0.80179001424E+03  0.80053003156E+02 0.  0.
         24    2    4    4    0    0  0.43547273834E+03 -0.16058672642E+03  0.12057653963E+03  0.48605546360E+03  0.79288140633E+02 0.  0.
         11    1    3    3    0    0 -0.60097835669E+03  0.19215313993E+03  0.12431671328E+03  0.64308044566E+03  0.00000000000E+00 0. -1.
        -11    1    3    3    0    0 -0.10288652679E+02  0.41180337883E+01  0.18566353223E+02  0.21622304416E+02  0.00000000000E+00 0.  1.
          4    1    6    6  502    0  0.27133995186E+03 -0.13491390956E+03  0.57989935631E+02  0.30852871034E+03  0.00000000000E+00 0. -1.
          3    1    5    5  503    0  0.12629101879E+03 -0.72438481995E+01 -0.65041052575E+03  0.66259772620E+03  0.00000000000E+00 0. -1.
         -4    1    5    5    0  503  0.49503252246E+02 -0.28440599100E+02 -0.12694508021E+03  0.13919228804E+03  0.00000000000E+00 0.  1.
         -3    1    6    6    0  502  0.16413278647E+03 -0.25672816861E+02  0.62586604001E+02  0.17752675325E+03  0.00000000000E+00 0.  1.
<mgrwt>
<rscale>  0 0.18837079E+04</rscale>
<asrwt>0</asrwt>
<pdfrwt beam="1">  1        1 0.11066556E+00 0.18837079E+04</pdfrwt>
<pdfrwt beam="2">  1       -1 0.18972648E+00 0.18837079E+04</pdfrwt>
<totfact> 0.43447675E+00</totfact>
</mgrwt>
</event>
<event>
12    1  0.4612066E-007  0.1423704E+04  0.7818608E-02  0.8936837E-01
          1   -1    0    0  501    0  0.00000000000E+00  0.00000000000E+00  0.14004458655E+04  0.14004458655E+04  0.00000000000E+00 0. -1.
         -1   -1    0    0    0  501 -0.00000000000E+00 -0.00000000000E+00 -0.36183691069E+03  0.36183691069E+03  0.00000000000E+00 0.  1.
         23    2    1    2    0    0  0.27897097578E+03  0.14827958030E+03  0.63892134793E+03  0.71865313170E+03  0.91816096693E+02 0.  0.
        254    2    1    2    0    0 -0.27897097578E+03 -0.14827958030E+03  0.39968760685E+03  0.10436296445E+04  0.91082435874E+03 0.  0.
        -24    2    4    4    0    0 -0.31445497306E+03 -0.12306651269E+02 -0.22674798297E+03  0.39665052654E+03  0.82967515806E+02 0.  0.
         24    2    4    4    0    0  0.35483997275E+02 -0.13597292903E+03  0.62643558982E+03  0.64697911792E+03  0.80079206684E+02 0.  0.
         13    1    3    3    0    0  0.35297868766E+02 -0.27864466749E+01  0.33341947650E+02  0.48635268042E+02  0.00000000000E+00 0.  1.
        -13    1    3    3    0    0  0.24367310701E+03  0.15106602697E+03  0.60557940028E+03  0.67001786366E+03  0.00000000000E+00 0. -1.
          2    1    6    6  502    0 -0.59009393204E+01 -0.26534102648E-01  0.14220436611E+03  0.14232674917E+03  0.00000000000E+00 0. -1.
          3    1    5    5  503    0 -0.60302080562E+02 -0.22679648769E+02 -0.16150658045E+02  0.66419508758E+02  0.00000000000E+00 0. -1.
         -4    1    5    5    0  503 -0.25415289249E+03  0.10372997500E+02 -0.21059732492E+03  0.33023101778E+03  0.00000000000E+00 0.  1.
         -1    1    6    6    0  502  0.41384936596E+02 -0.13594639492E+03  0.48423122371E+03  0.50465236875E+03  0.00000000000E+00 0.  1.
<mgrwt>
<rscale>  0 0.14237036E+04</rscale>
<asrwt>0</asrwt>
<pdfrwt beam="1">  1        1 0.21545321E+00 0.14237036E+04</pdfrwt>
<pdfrwt beam="2">  1       -1 0.55667218E-01 0.14237036E+04</pdfrwt>
<totfact> 0.24383328E+01</totfact>
</mgrwt>
</event>
<event>
12    1  0.4612066E-007  0.1080787E+04  0.7818608E-02  0.9224124E-01
          2   -1    0    0  501    0  0.00000000000E+00  0.00000000000E+00  0.48030056704E+04  0.48030056704E+04  0.00000000000E+00 0. -1.
         -2   -1    0    0    0  501 -0.00000000000E+00 -0.00000000000E+00 -0.60800442748E+02  0.60800442748E+02  0.00000000000E+00 0.  1.
         23    2    1    2    0    0  0.90621910179E+02 -0.11544621877E+03  0.83375211489E+03  0.85087744765E+03  0.85496677106E+02 0.  0.
        254    2    1    2    0    0 -0.90621910179E+02  0.11544621877E+03  0.39084531128E+04  0.40129286655E+04  0.89780319654E+03 0.  0.
        -24    2    4    4    0    0  0.21006234604E+03 -0.17317178386E+03  0.29643141061E+04  0.29778379269E+04  0.79031278796E+02 0.  0.
         24    2    4    4    0    0 -0.30068425622E+03  0.28861800264E+03  0.94413900667E+03  0.10350907387E+04  0.79391434989E+02 0.  0.
         11    1    3    3    0    0  0.20523342696E+02 -0.31121604547E+02  0.70135383354E+02  0.79427538444E+02  0.00000000000E+00 0.  1.
        -11    1    3    3    0    0  0.70098567483E+02 -0.84324614228E+02  0.76361673154E+03  0.77144990920E+03  0.00000000000E+00 0. -1.
          2    1    6    6  502    0 -0.75913057537E+02  0.67589064087E+02  0.15540647781E+03  0.18569396122E+03  0.00000000000E+00 0. -1.
          3    1    5    5  503    0  0.14751439205E+03 -0.13336809617E+03  0.24702922073E+04  0.24782839091E+04  0.00000000000E+00 0. -1.
         -4    1    5    5    0  503  0.62547953995E+02 -0.39803687688E+02  0.49402189885E+03  0.49955401774E+03  0.00000000000E+00 0.  1.
         -1    1    6    6    0  502 -0.22477119868E+03  0.22102893855E+03  0.78873252885E+03  0.84939677743E+03  0.00000000000E+00 0.  1.
<mgrwt>
<rscale>  0 0.10807865E+04</rscale>
<asrwt>0</asrwt>
<pdfrwt beam="1">  1        2 0.73892365E+00 0.10807865E+04</pdfrwt>
<pdfrwt beam="2">  1       -2 0.93539181E-02 0.10807865E+04</pdfrwt>
<totfact> 0.48956959E+00</totfact>
</mgrwt>
</event>
<event>
12    1  0.4612066E-007  0.1599079E+04  0.7818608E-02  0.8821114E-01
         -2   -1    0    0    0  501 -0.00000000000E+00  0.00000000000E+00  0.32560150776E+03  0.32560150776E+03  0.00000000000E+00 0.  1.
          2   -1    0    0  501    0  0.00000000000E+00 -0.00000000000E+00 -0.19633298572E+04  0.19633298572E+04  0.00000000000E+00 0. -1.
         23    2    1    2    0    0 -0.29688522940E+03 -0.20553150681E+03 -0.11329785609E+04  0.11925808690E+04  0.90689966689E+02 0.  0.
        254    2    1    2    0    0  0.29688522940E+03  0.20553150681E+03 -0.50474978853E+03  0.10963504959E+04  0.90378538442E+03 0.  0.
        -24    2    4    4    0    0 -0.67769375879E+02  0.47258710447E+03 -0.39440891510E+03  0.62430246271E+03  0.79144886229E+02 0.  0.
         24    2    4    4    0    0  0.36465460528E+03 -0.26705559766E+03 -0.11034087343E+03  0.47204803318E+03  0.79765681125E+02 0.  0.
         13    1    3    3    0    0 -0.22557953589E+03 -0.17571568901E+03 -0.76787554774E+03  0.81938695816E+03  0.00000000000E+00 0.  1.
        -13    1    3    3    0    0 -0.71305693510E+02 -0.29815817798E+02 -0.36510301313E+03  0.37319391087E+03  0.00000000000E+00 0. -1.
          2    1    6    6  502    0  0.23917600976E+03 -0.17732105026E+03 -0.33232756194E+02  0.29958693996E+03  0.00000000000E+00 0. -1.
          1    1    5    5  503    0 -0.78110995251E+02  0.45745646561E+03 -0.38793746743E+03  0.60486628617E+03  0.00000000000E+00 0. -1.
         -2    1    5    5    0  503  0.10341619372E+02  0.15130638862E+02 -0.64714476672E+01  0.19436176540E+02  0.00000000000E+00 0.  1.
         -3    1    6    6    0  502  0.12547859552E+03 -0.89734547400E+02 -0.77108117235E+02  0.17246109322E+03  0.00000000000E+00 0.  1.
<mgrwt>
<rscale>  0 0.15990787E+04</rscale>
<asrwt>0</asrwt>
<pdfrwt beam="1">  1        2 0.30205076E+00 0.15990787E+04</pdfrwt>
<pdfrwt beam="2">  1       -2 0.50092538E-01 0.15990787E+04</pdfrwt>
<totfact> 0.25320914E+01</totfact>
</mgrwt>
</event>
<event>
12    1  0.5260652E-007  0.1873582E+04  0.7818608E-02  0.8668119E-01
          2   -1    0    0  501    0  0.00000000000E+00  0.00000000000E+00  0.16057433368E+04  0.16057433368E+04  0.00000000000E+00 0. -1.
         -2   -1    0    0    0  501 -0.00000000000E+00 -0.00000000000E+00 -0.54652385886E+03  0.54652385886E+03  0.00000000000E+00 0.  1.
         23    2    1    2    0    0 -0.47784076710E+03  0.48839300153E+03  0.15606652487E+03  0.70605966571E+03  0.85463259424E+02 0.  0.
        254    2    1    2    0    0  0.47784076710E+03 -0.48839300153E+03  0.90315295309E+03  0.14462075300E+04  0.89942839650E+03 0.  0.
        -24    2    4    4    0    0  0.58703906057E+03 -0.64379960490E+03  0.87636523435E+03  0.12383224350E+04  0.79584164159E+02 0.  0.
         24    2    4    4    0    0 -0.10919829347E+03  0.15540660337E+03  0.26787718741E+02  0.20788509496E+03  0.80144564148E+02 0.  0.
         13    1    3    3    0    0 -0.95531328877E+02  0.13288179142E+03  0.65108098755E+02  0.17613310255E+03  0.00000000000E+00 0. -1.
        -13    1    3    3    0    0 -0.38230943822E+03  0.35551121011E+03  0.90958426119E+02  0.52992656317E+03  0.00000000000E+00 0.  1.
          4    1    6    6  502    0  0.11094105733E+02  0.14298201566E+02 -0.70080840850E+01  0.19406983088E+02  0.00000000000E+00 0. -1.
          1    1    5    5  503    0  0.61338777688E+02 -0.76662468855E+02  0.13603112660E+03  0.16776187643E+03  0.00000000000E+00 0. -1.
         -2    1    5    5    0  503  0.52570028288E+03 -0.56713713605E+03  0.74033410775E+03  0.10705605586E+04  0.00000000000E+00 0.  1.
         -3    1    6    6    0  502 -0.12029239920E+03  0.14110840181E+03  0.33795802826E+02  0.18847811187E+03  0.00000000000E+00 0.  1.
<mgrwt>
<rscale>  0 0.18735816E+04</rscale>
<asrwt>0</asrwt>
<pdfrwt beam="1">  1        2 0.24703743E+00 0.18735816E+04</pdfrwt>
<pdfrwt beam="2">  1       -2 0.84080594E-01 0.18735816E+04</pdfrwt>
<totfact> 0.12831762E+01</totfact>
</mgrwt>
</event>
<event>
12    1  0.4612066E-007  0.1672188E+04  0.7818608E-02  0.8777387E-01
         -1   -1    0    0    0  501 -0.00000000000E+00  0.00000000000E+00  0.24712006023E+03  0.24712006023E+03  0.00000000000E+00 0. -1.
          1   -1    0    0  501    0  0.00000000000E+00 -0.00000000000E+00 -0.28288011624E+04  0.28288011624E+04  0.00000000000E+00 0.  1.
         23    2    1    2    0    0  0.53066398367E+03  0.21669373245E+03 -0.55868888081E+03  0.80561466189E+03  0.91221053845E+02 0.  0.
        254    2    1    2    0    0 -0.53066398367E+03 -0.21669373245E+03 -0.20229922214E+04  0.22703065607E+04  0.85629078867E+03 0.  0.
        -24    2    4    4    0    0  0.22556509594E+03 -0.87454841109E+02 -0.58913366597E+03  0.64236255004E+03  0.83804579645E+02 0.  0.
         24    2    4    4    0    0 -0.75622907961E+03 -0.12923889134E+03 -0.14338585554E+04  0.16279440107E+04  0.75274386212E+02 0.  0.
         13    1    3    3    0    0  0.31319598565E+03  0.97240490221E+02 -0.36626079538E+03  0.49162425550E+03  0.00000000000E+00 0.  1.
        -13    1    3    3    0    0  0.21746799803E+03  0.11945324222E+03 -0.19242808543E+03  0.31399040639E+03  0.00000000000E+00 0. -1.
          2    1    6    6  502    0 -0.61060778048E+03 -0.99018421984E+02 -0.10898645579E+04  0.12531764697E+04  0.00000000000E+00 0. -1.
          3    1    5    5  503    0  0.14059177617E+03 -0.77753601408E+02 -0.46200888618E+03  0.48914607324E+03  0.00000000000E+00 0. -1.
         -4    1    5    5    0  503  0.84973319770E+02 -0.97012397010E+01 -0.12712477979E+03  0.15321647679E+03  0.00000000000E+00 0.  1.
         -1    1    6    6    0  502 -0.14562129913E+03 -0.30220469352E+02 -0.34399399745E+03  0.37476754103E+03  0.00000000000E+00 0.  1.
<mgrwt>
<rscale>  0 0.16721884E+04</rscale>
<asrwt>0</asrwt>
<pdfrwt beam="1">  1        1 0.43520016E+00 0.16721884E+04</pdfrwt>
<pdfrwt beam="2">  1       -1 0.38018472E-01 0.16721884E+04</pdfrwt>
<totfact> 0.50826462E+00</totfact>
</mgrwt>
</event>
<event>
12    1  0.4612066E-007  0.3199796E+04  0.7818608E-02  0.8188871E-01
         -1   -1    0    0    0  501 -0.00000000000E+00  0.00000000000E+00  0.12569634246E+04  0.12569634246E+04  0.00000000000E+00 0.  1.
          1   -1    0    0  501    0  0.00000000000E+00 -0.00000000000E+00 -0.20363945832E+04  0.20363945832E+04  0.00000000000E+00 0. -1.
         23    2    1    2    0    0 -0.13567412101E+04  0.49425310128E+03 -0.23286415210E+03  0.14655620106E+04  0.92808696814E+02 0.  0.
        254    2    1    2    0    0  0.13567412101E+04 -0.49425310128E+03 -0.54656700647E+03  0.18277959972E+04  0.97829948144E+03 0.  0.
        -24    2    4    4    0    0  0.14268409141E+04 -0.45567831871E+03 -0.26350402998E+03  0.15229454334E+04  0.80066814842E+02 0.  0.
         24    2    4    4    0    0 -0.70099703998E+02 -0.38574782571E+02 -0.28306297648E+03  0.30485056381E+03  0.80045207536E+02 0.  0.
         11    1    3    3    0    0 -0.13968421034E+03  0.52568149938E+02  0.42240553458E+01  0.14930817676E+03  0.00000000000E+00 0.  1.
        -11    1    3    3    0    0 -0.12170569998E+04  0.44168495134E+03 -0.23708820745E+03  0.13162538338E+04  0.00000000000E+00 0. -1.
          2    1    6    6  502    0 -0.32109082265E+02 -0.33458762617E+02 -0.24988961626E+03  0.25415605890E+03  0.00000000000E+00 0. -1.
          1    1    5    5  503    0  0.90704486838E+03 -0.27404434488E+03 -0.13040978261E+03  0.95647133131E+03  0.00000000000E+00 0. -1.
         -2    1    5    5    0  503  0.51979604576E+03 -0.18163397383E+03 -0.13309424737E+03  0.56647410207E+03  0.00000000000E+00 0.  1.
         -1    1    6    6    0  502 -0.37990621734E+02 -0.51160199541E+01 -0.33173360221E+02  0.50694504912E+02  0.00000000000E+00 0.  1.
<mgrwt>
<rscale>  0 0.31997959E+04</rscale>
<asrwt>0</asrwt>
<pdfrwt beam="1">  1        1 0.31329147E+00 0.31997959E+04</pdfrwt>
<pdfrwt beam="2">  1       -1 0.19337899E+00 0.31997959E+04</pdfrwt>
<totfact> 0.39411163E-01</totfact>
</mgrwt>
</event>
<event>
12    1  0.4612066E-007  0.2477357E+04  0.7818608E-02  0.8411097E-01
          1   -1    0    0  501    0  0.00000000000E+00  0.00000000000E+00  0.22194205546E+04  0.22194205546E+04  0.00000000000E+00 0. -1.
         -1   -1    0    0    0  501 -0.00000000000E+00 -0.00000000000E+00 -0.69131780143E+03  0.69131780143E+03  0.00000000000E+00 0.  1.
         23    2    1    2    0    0  0.41711899468E+03 -0.24159111785E+03 -0.46261478929E+03  0.67435318762E+03  0.91571034888E+02 0.  0.
        254    2    1    2    0    0 -0.41711899468E+03  0.24159111785E+03  0.19907175425E+04  0.22363851684E+04  0.89783504259E+03 0.  0.
        -24    2    4    4    0    0  0.26316819024E+03 -0.34320395342E+02  0.48818574434E+03  0.56210009859E+03  0.84828143757E+02 0.  0.
         24    2    4    4    0    0 -0.68028718492E+03  0.27591151319E+03  0.15025317982E+04  0.16742850699E+04  0.81919921757E+02 0.  0.
         11    1    3    3    0    0  0.16754578725E+03 -0.13275809166E+03 -0.24979219908E+03  0.32877415416E+03  0.00000000000E+00 0.  1.
        -11    1    3    3    0    0  0.24957320743E+03 -0.10883302619E+03 -0.21282259022E+03  0.34557903345E+03  0.00000000000E+00 0. -1.
          4    1    6    6  502    0 -0.30495758670E+03  0.80602845881E+02  0.62611028994E+03  0.70107777287E+03  0.00000000000E+00 0. -1.
          1    1    5    5  503    0  0.13266924551E+03 -0.60020217330E+02  0.25662127428E+03  0.29505598385E+03  0.00000000000E+00 0. -1.
         -2    1    5    5    0  503  0.13049894473E+03  0.25699821988E+02  0.23156447005E+03  0.26704411474E+03  0.00000000000E+00 0.  1.
         -3    1    6    6    0  502 -0.37532959822E+03  0.19530866731E+03  0.87642150822E+03  0.97320729698E+03  0.00000000000E+00 0.  1.
<mgrwt>
<rscale>  0 0.24773574E+04</rscale>
<asrwt>0</asrwt>
<pdfrwt beam="1">  1        1 0.34144931E+00 0.24773574E+04</pdfrwt>
<pdfrwt beam="2">  1       -1 0.10635659E+00 0.24773574E+04</pdfrwt>
<totfact> 0.15535749E+00</totfact>
</mgrwt>
</event>
<event>
12    1  0.4612066E-007  0.2451096E+04  0.7818608E-02  0.8420618E-01
          2   -1    0    0  501    0  0.00000000000E+00  0.00000000000E+00  0.36583356722E+04  0.36583356722E+04  0.00000000000E+00 0.  1.
         -2   -1    0    0    0  501 -0.00000000000E+00 -0.00000000000E+00 -0.41056041567E+03  0.41056041567E+03  0.00000000000E+00 0. -1.
         23    2    1    2    0    0 -0.92000031573E+03  0.46192914665E+03  0.18248007489E+04  0.20972007082E+04  0.92595462493E+02 0.  0.
        254    2    1    2    0    0  0.92000031573E+03 -0.46192914665E+03  0.14229745076E+04  0.19716953797E+04  0.89607315746E+03 0.  0.
        -24    2    4    4    0    0  0.73083976127E+03 -0.51413450223E+03  0.50468671401E+03  0.10293222791E+04  0.79590400694E+02 0.  0.
         24    2    4    4    0    0  0.18916055446E+03  0.52205355576E+02  0.91828779363E+03  0.94237310063E+03  0.79419609342E+02 0.  0.
         11    1    3    3    0    0 -0.63758405130E+02  0.54228703921E+02  0.18184684043E+03  0.20018531396E+03  0.00000000000E+00 0.  1.
        -11    1    3    3    0    0 -0.85624191060E+03  0.40770044273E+03  0.16429539085E+04  0.18970153942E+04  0.00000000000E+00 0. -1.
          4    1    6    6  502    0  0.47173321264E+02  0.56319769191E+01  0.40497822539E+03  0.40775532424E+03  0.00000000000E+00 0. -1.
          1    1    5    5  503    0  0.29970105505E+03 -0.20602230529E+03  0.25040789635E+03  0.44155410453E+03  0.00000000000E+00 0. -1.
         -2    1    5    5    0  503  0.43113870622E+03 -0.30811219693E+03  0.25427881766E+03  0.58776817455E+03  0.00000000000E+00 0.  1.
         -3    1    6    6    0  502  0.14198723320E+03  0.46573378657E+02  0.51330956824E+03  0.53461777640E+03  0.00000000000E+00 0.  1.
<mgrwt>
<rscale>  0 0.24510959E+04</rscale>
<asrwt>0</asrwt>
<pdfrwt beam="1">  1        2 0.56282085E+00 0.24510959E+04</pdfrwt>
<pdfrwt beam="2">  1       -2 0.63163143E-01 0.24510959E+04</pdfrwt>
<totfact> 0.13050925E+00</totfact>
</mgrwt>
</event>
<event>
12    1  0.4612066E-007  0.3446894E+04  0.7818608E-02  0.8126492E-01
         -1   -1    0    0    0  501 -0.00000000000E+00  0.00000000000E+00  0.12112670035E+04  0.12112670035E+04  0.00000000000E+00 0.  1.
          1   -1    0    0  501    0  0.00000000000E+00 -0.00000000000E+00 -0.24522004646E+04  0.24522004646E+04  0.00000000000E+00 0. -1.
         23    2    1    2    0    0  0.28729174731E+02  0.15957821082E+04 -0.72372404855E+03  0.17548134796E+04  0.90818211192E+02 0.  0.
        254    2    1    2    0    0 -0.28729174731E+02 -0.15957821082E+04 -0.51720941260E+03  0.19086539885E+04  0.91000470823E+03 0.  0.
        -24    2    4    4    0    0  0.20122149941E+03 -0.33461784554E+03 -0.47962515121E+03  0.62357213302E+03  0.79641226906E+02 0.  0.
         24    2    4    4    0    0 -0.22995067414E+03 -0.12611642626E+04 -0.37584261384E+02  0.12850818555E+04  0.81303066663E+02 0.  0.
         13    1    3    3    0    0 -0.51766460861E+01  0.20761799315E+03 -0.12708708109E+03  0.24348132357E+03  0.00000000000E+00 0. -1.
        -13    1    3    3    0    0  0.33905820817E+02  0.13881641150E+04 -0.59663696745E+03  0.15113321560E+04  0.00000000000E+00 0.  1.
          2    1    6    6  502    0 -0.19958779320E+03 -0.11878921339E+04 -0.45294658306E+02  0.12053939668E+04  0.00000000000E+00 0. -1.
          3    1    5    5  503    0  0.18475669983E+03 -0.33237641734E+03 -0.46921665404E+03  0.60396472526E+03  0.00000000000E+00 0. -1.
         -4    1    5    5    0  503  0.16464799579E+02 -0.22414282055E+01 -0.10408497178E+02  0.19607407760E+02  0.00000000000E+00 0.  1.
         -1    1    6    6    0  502 -0.30362880940E+02 -0.73272128703E+02  0.77103969212E+01  0.79687888693E+02  0.00000000000E+00 0.  1.
<mgrwt>
<rscale>  0 0.34468940E+04</rscale>
<asrwt>0</asrwt>
<pdfrwt beam="1">  1        1 0.37726161E+00 0.34468940E+04</pdfrwt>
<pdfrwt beam="2">  1       -1 0.18634877E+00 0.34468940E+04</pdfrwt>
<totfact> 0.22461954E-01</totfact>
</mgrwt>
</event>
<event>
12    1  0.4612066E-007  0.1776801E+04  0.7818608E-02  0.8718735E-01
          1   -1    0    0  501    0  0.00000000000E+00  0.00000000000E+00  0.12765746970E+04  0.12765746970E+04  0.00000000000E+00 0. -1.
         -1   -1    0    0    0  501 -0.00000000000E+00 -0.00000000000E+00 -0.61826021134E+03  0.61826021134E+03  0.00000000000E+00 0.  1.
         23    2    1    2    0    0  0.54182457091E+03  0.20983580294E+03 -0.85070514962E+02  0.59369492205E+03  0.87359819770E+02 0.  0.
        254    2    1    2    0    0 -0.54182457091E+03 -0.20983580294E+03  0.74338500065E+03  0.13011399863E+04  0.89595707205E+03 0.  0.
        -24    2    4    4    0    0 -0.47490182558E+03  0.14369039933E+03  0.36596338926E+02  0.50396939727E+03  0.80418819699E+02 0.  0.
         24    2    4    4    0    0 -0.66922745326E+02 -0.35352620228E+03  0.70678866173E+03  0.79717058904E+03  0.80444428944E+02 0.  0.
         11    1    3    3    0    0  0.52000838352E+03  0.21585776970E+03 -0.72150202164E+02  0.56763451916E+03  0.00000000000E+00 0.  1.
        -11    1    3    3    0    0  0.21816187389E+02 -0.60219667549E+01 -0.12920312798E+02  0.26060402886E+02  0.00000000000E+00 0. -1.
          2    1    6    6  502    0 -0.73727984200E+02 -0.27879111274E+03  0.50019470844E+03  0.57736907308E+03  0.00000000000E+00 0. -1.
          3    1    5    5  503    0 -0.22948135801E+03  0.88425606637E+02 -0.17862912654E+02  0.24657628684E+03  0.00000000000E+00 0. -1.
         -4    1    5    5    0  503 -0.24542046758E+03  0.55264792698E+02  0.54459251580E+02  0.25739311044E+03  0.00000000000E+00 0.  1.
         -1    1    6    6    0  502  0.68052388740E+01 -0.74735089535E+02  0.20659395329E+03  0.21980151596E+03  0.00000000000E+00 0.  1.
<mgrwt>
<rscale>  0 0.17768009E+04</rscale>
<asrwt>0</asrwt>
<pdfrwt beam="1">  1        1 0.19639611E+00 0.17768009E+04</pdfrwt>
<pdfrwt beam="2">  1       -1 0.95116956E-01 0.17768009E+04</pdfrwt>
<totfact> 0.94931750E+00</totfact>
</mgrwt>
</event>
<event>
12    1  0.4612066E-007  0.1456279E+04  0.7818608E-02  0.8914059E-01
          2   -1    0    0  501    0  0.00000000000E+00  0.00000000000E+00  0.90729238417E+03  0.90729238417E+03  0.00000000000E+00 0. -1.
         -2   -1    0    0    0  501 -0.00000000000E+00 -0.00000000000E+00 -0.58436192132E+03  0.58436192132E+03  0.00000000000E+00 0.  1.
         23    2    1    2    0    0 -0.55535964240E+02 -0.34663811817E+03  0.33537765215E+03  0.49411486973E+03  0.91810166326E+02 0.  0.
        254    2    1    2    0    0  0.55535964240E+02  0.34663811817E+03 -0.12447189293E+02  0.99753943576E+03  0.93364220399E+03 0.  0.
        -24    2    4    4    0    0  0.37366508492E+03  0.46586919107E+03  0.13804909411E+03  0.61783488306E+03  0.77477038306E+02 0.  0.
         24    2    4    4    0    0 -0.31812912068E+03 -0.11923107291E+03 -0.15049628340E+03  0.37970455270E+03  0.78129570923E+02 0.  0.
         13    1    3    3    0    0 -0.56064861146E+02 -0.17083647967E+03  0.12032277725E+03  0.21634680993E+03  0.00000000000E+00 0.  1.
        -13    1    3    3    0    0  0.52889690633E+00 -0.17580163850E+03  0.21505487490E+03  0.27776805980E+03  0.00000000000E+00 0. -1.
          2    1    6    6  502    0 -0.97999815506E+02 -0.33745590732E+02 -0.81333663684E+01  0.10396576543E+03  0.00000000000E+00 0. -1.
          1    1    5    5  503    0  0.11945033515E+03  0.13038683380E+03  0.69335846083E+01  0.17696661717E+03  0.00000000000E+00 0. -1.
         -2    1    5    5    0  503  0.25421474976E+03  0.33548235727E+03  0.13111550950E+03  0.44086826589E+03  0.00000000000E+00 0.  1.
         -1    1    6    6    0  502 -0.22012930517E+03 -0.85485482177E+02 -0.14236291703E+03  0.27573878727E+03  0.00000000000E+00 0.  1.
<mgrwt>
<rscale>  0 0.14562790E+04</rscale>
<asrwt>0</asrwt>
<pdfrwt beam="1">  1        2 0.13958344E+00 0.14562790E+04</pdfrwt>
<pdfrwt beam="2">  1       -2 0.89901834E-01 0.14562790E+04</pdfrwt>
<totfact> 0.29781062E+01</totfact>
</mgrwt>
</event>
<event>
12    1  0.4612066E-007  0.1440257E+04  0.7818608E-02  0.8925183E-01
          2   -1    0    0  501    0  0.00000000000E+00  0.00000000000E+00  0.95655852836E+03  0.95655852836E+03  0.00000000000E+00 0. -1.
         -2   -1    0    0    0  501 -0.00000000000E+00 -0.00000000000E+00 -0.54213639739E+03  0.54213639739E+03  0.00000000000E+00 0.  1.
         23    2    1    2    0    0  0.23696916065E+02 -0.49183387690E+02  0.47840205036E+03  0.49127120882E+03  0.97459372900E+02 0.  0.
        254    2    1    2    0    0 -0.23696916065E+02  0.49183387690E+02 -0.63979919391E+02  0.10074237169E+04  0.10039066520E+04 0.  0.
        -24    2    4    4    0    0 -0.18137610985E+03 -0.19802005446E+03  0.37826699736E+03  0.47084054807E+03  0.80595689883E+02 0.  0.
         24    2    4    4    0    0  0.15767919378E+03  0.24720344215E+03 -0.44224691675E+03  0.53658316887E+03  0.79792805296E+02 0.  0.
         11    1    3    3    0    0  0.28577229916E+02 -0.23184926614E+02  0.50150514475E+02  0.62203480560E+02  0.00000000000E+00 0.  1.
        -11    1    3    3    0    0 -0.48803138502E+01 -0.25998461076E+02  0.42825153589E+03  0.42906772825E+03  0.00000000000E+00 0. -1.
          4    1    6    6  502    0  0.73274586022E+02  0.18511569321E+03 -0.28874684022E+03  0.35073027038E+03  0.00000000000E+00 0. -1.
          1    1    5    5  503    0 -0.17349875215E+03 -0.17739371269E+03  0.29897093788E+03  0.38852795009E+03  0.00000000000E+00 0. -1.
         -2    1    5    5    0  503 -0.78773576983E+01 -0.20626341768E+02  0.79296059472E+02  0.82312597984E+02  0.00000000000E+00 0.  1.
         -3    1    6    6    0  502  0.84404607762E+02  0.62087748943E+02 -0.15350007653E+03  0.18585289848E+03  0.00000000000E+00 0.  1.
<mgrwt>
<rscale>  0 0.14402572E+04</rscale>
<asrwt>0</asrwt>
<pdfrwt beam="1">  1        2 0.14716285E+00 0.14402572E+04</pdfrwt>
<pdfrwt beam="2">  1       -2 0.83405600E-01 0.14402572E+04</pdfrwt>
<totfact> 0.32825761E+01</totfact>
</mgrwt>
</event>
<event>
12    1  0.4612066E-007  0.1096703E+04  0.7818608E-02  0.9208411E-01
         -2   -1    0    0    0  501 -0.00000000000E+00  0.00000000000E+00  0.46970895090E+03  0.46970895090E+03  0.00000000000E+00 0.  1.
          2   -1    0    0  501    0  0.00000000000E+00 -0.00000000000E+00 -0.64016118068E+03  0.64016118068E+03  0.00000000000E+00 0. -1.
         23    2    1    2    0    0  0.14895770817E+03  0.22114331261E+02 -0.17285808515E+01  0.17232082571E+03  0.83749844831E+02 0.  0.
        254    2    1    2    0    0 -0.14895770817E+03 -0.22114331261E+02 -0.16872364893E+03  0.93754930587E+03  0.90986459914E+03 0.  0.
        -24    2    4    4    0    0 -0.24087179316E+03  0.31221186466E+03 -0.35430027380E+03  0.53643432558E+03  0.82083082733E+02 0.  0.
         24    2    4    4    0    0  0.91914084990E+02 -0.33432619592E+03  0.18557662487E+03  0.40111498029E+03  0.78945167140E+02 0.  0.
         11    1    3    3    0    0  0.13076247024E+03  0.15643199343E+02  0.30100856953E+02  0.13509106150E+03  0.00000000000E+00 0.  1.
        -11    1    3    3    0    0  0.18195237936E+02  0.64711319187E+01 -0.31829437805E+02  0.37229764206E+02  0.00000000000E+00 0. -1.
          4    1    6    6  502    0 -0.91284760058E+01 -0.28519022045E+02  0.33549122335E+02  0.44968959317E+02  0.00000000000E+00 0. -1.
          3    1    5    5  503    0 -0.47165943408E+02  0.42490086039E+02 -0.98833428798E+02  0.11746523008E+03  0.00000000000E+00 0. -1.
         -4    1    5    5    0  503 -0.19370584975E+03  0.26972177862E+03 -0.25546684500E+03  0.41896909550E+03  0.00000000000E+00 0.  1.
         -3    1    6    6    0  502  0.10104256100E+03 -0.30580717388E+03  0.15202750254E+03  0.35614602097E+03  0.00000000000E+00 0.  1.
<mgrwt>
<rscale>  0 0.10967031E+04</rscale>
<asrwt>0</asrwt>
<pdfrwt beam="1">  1        2 0.98486335E-01 0.10967031E+04</pdfrwt>
<pdfrwt beam="2">  1       -2 0.72262916E-01 0.10967031E+04</pdfrwt>
<totfact> 0.78929374E+01</totfact>
</mgrwt>
</event>
<event>
12    1  0.4612066E-007  0.2044697E+04  0.7818608E-02  0.8586004E-01
          1   -1    0    0  501    0  0.00000000000E+00  0.00000000000E+00  0.10958842605E+04  0.10958842605E+04  0.00000000000E+00 0. -1.
         -1   -1    0    0    0  501 -0.00000000000E+00 -0.00000000000E+00 -0.95374668627E+03  0.95374668627E+03  0.00000000000E+00 0.  1.
         23    2    1    2    0    0 -0.78844000605E+03 -0.16359238287E+03  0.23531409744E+03  0.84233047603E+03  0.75814217154E+02 0.  0.
        254    2    1    2    0    0  0.78844000605E+03  0.16359238287E+03 -0.93176523206E+02  0.12073004707E+04  0.89470243728E+03 0.  0.
        -24    2    4    4    0    0  0.67455040752E+02  0.34349181212E+03 -0.25688620679E+03  0.44124809646E+03  0.78565589609E+02 0.  0.
         24    2    4    4    0    0  0.72098496530E+03 -0.17989942925E+03  0.16370968359E+03  0.76605237428E+03  0.88612949406E+02 0.  0.
         11    1    3    3    0    0 -0.47874273359E+03 -0.69067518879E+02  0.16422041581E+03  0.51081628018E+03  0.00000000000E+00 0. -1.
        -11    1    3    3    0    0 -0.30969727246E+03 -0.94524863990E+02  0.71093681624E+02  0.33151419585E+03  0.00000000000E+00 0.  1.
          4    1    6    6  502    0  0.56483535087E+03 -0.10849312072E+03  0.14626105551E+03  0.59346611293E+03  0.00000000000E+00 0. -1.
          3    1    5    5  503    0  0.47213589788E+02  0.31461534632E+03 -0.25157027225E+03  0.40558543006E+03  0.00000000000E+00 0. -1.
         -4    1    5    5    0  503  0.20241450964E+02  0.28876465802E+02 -0.53159345442E+01  0.35662666395E+02  0.00000000000E+00 0.  1.
         -3    1    6    6    0  502  0.15614961442E+03 -0.71406308529E+02  0.17448628079E+02  0.17258626134E+03  0.00000000000E+00 0.  1.
<mgrwt>
<rscale>  0 0.20446965E+04</rscale>
<asrwt>0</asrwt>
<pdfrwt beam="1">  1        1 0.16859758E+00 0.20446965E+04</pdfrwt>
<pdfrwt beam="2">  1       -1 0.14673026E+00 0.20446965E+04</pdfrwt>
<totfact> 0.43686778E+00</totfact>
</mgrwt>
</event>
<event>
12    1  0.4612066E-007  0.2044258E+04  0.7818608E-02  0.8586204E-01
         -2   -1    0    0    0  501 -0.00000000000E+00  0.00000000000E+00  0.65681905636E+03  0.65681905636E+03  0.00000000000E+00 0.  1.
          2   -1    0    0  501    0  0.00000000000E+00 -0.00000000000E+00 -0.15906168862E+04  0.15906168862E+04  0.00000000000E+00 0. -1.
         23    2    1    2    0    0  0.48567030233E+03  0.60068017559E+03 -0.55555201507E+02  0.77932511002E+03  0.86999602227E+02 0.  0.
        254    2    1    2    0    0 -0.48567030233E+03 -0.60068017559E+03 -0.87824262833E+03  0.14681108325E+04  0.88732574994E+03 0.  0.
        -24    2    4    4    0    0  0.24039384865E+03 -0.84482833201E+02 -0.10750394743E+03  0.28791052013E+03  0.80055089245E+02 0.  0.
         24    2    4    4    0    0 -0.72606415098E+03 -0.51619734238E+03 -0.77073868090E+03  0.11802003124E+04  0.72151337875E+02 0.  0.
         11    1    3    3    0    0  0.27991117978E+03  0.36786821712E+03 -0.73695132524E+02  0.46809001943E+03  0.00000000000E+00 0. -1.
        -11    1    3    3    0    0  0.20575912255E+03  0.23281195846E+03  0.18139931017E+02  0.31123509059E+03  0.00000000000E+00 0.  1.
          2    1    6    6  502    0 -0.57975185793E+03 -0.44070907295E+03 -0.60764423832E+03  0.94845570487E+03  0.00000000000E+00 0. -1.
          1    1    5    5  503    0  0.19777697534E+03 -0.48237820303E+02 -0.11097422453E+03  0.23185749458E+03  0.00000000000E+00 0. -1.
         -2    1    5    5    0  503  0.42616873313E+02 -0.36245012898E+02  0.34702770929E+01  0.56053025557E+02  0.00000000000E+00 0.  1.
         -1    1    6    6    0  502 -0.14631229306E+03 -0.75488269434E+02 -0.16309444258E+03  0.23174460754E+03  0.00000000000E+00 0.  1.
<mgrwt>
<rscale>  0 0.20442578E+04</rscale>
<asrwt>0</asrwt>
<pdfrwt beam="1">  1        2 0.24471029E+00 0.20442578E+04</pdfrwt>
<pdfrwt beam="2">  1       -2 0.10104909E+00 0.20442578E+04</pdfrwt>
<totfact> 0.84203402E+00</totfact>
</mgrwt>
</event>
<event>
12    1  0.4612066E-007  0.2486629E+04  0.7818608E-02  0.8407765E-01
          1   -1    0    0  501    0  0.00000000000E+00  0.00000000000E+00  0.10221788526E+04  0.10221788526E+04  0.00000000000E+00 0. -1.
         -1   -1    0    0    0  501 -0.00000000000E+00 -0.00000000000E+00 -0.15122899582E+04  0.15122899582E+04  0.00000000000E+00 0.  1.
         23    2    1    2    0    0  0.35094934809E+03 -0.75996276713E+03 -0.90121865929E+03  0.12331425796E+04  0.87958498849E+02 0.  0.
        254    2    1    2    0    0 -0.35094934809E+03  0.75996276713E+03  0.41110755373E+03  0.13013262312E+04  0.90759665430E+03 0.  0.
        -24    2    4    4    0    0 -0.11011347638E+03 -0.57107074163E+02  0.41976740544E+03  0.44486315301E+03  0.79450328104E+02 0.  0.
         24    2    4    4    0    0 -0.24083587172E+03  0.81706984129E+03 -0.86598517096E+01  0.85646307818E+03  0.88594405006E+02 0.  0.
         13    1    3    3    0    0  0.19360613400E+03 -0.31878838185E+03 -0.38250533153E+03  0.53424684947E+03  0.00000000000E+00 0. -1.
        -13    1    3    3    0    0  0.15734321410E+03 -0.44117438529E+03 -0.51871332776E+03  0.69889573017E+03  0.00000000000E+00 0.  1.
          4    1    6    6  502    0  0.73339117296E+01  0.17352705775E+02  0.28023184877E+01  0.19046145223E+02  0.00000000000E+00 0. -1.
          1    1    5    5  503    0 -0.56945513362E+01  0.12405745613E+02  0.11791435087E+02  0.18037970522E+02  0.00000000000E+00 0. -1.
         -4    1    5    5    0  503 -0.10441892504E+03 -0.69512819776E+02  0.40797597036E+03  0.42682518249E+03  0.00000000000E+00 0.  1.
         -3    1    6    6    0  502 -0.24816978345E+03  0.79971713552E+03 -0.11462170197E+02  0.83741693296E+03  0.00000000000E+00 0.  1.
<mgrwt>
<rscale>  0 0.24866289E+04</rscale>
<asrwt>0</asrwt>
<pdfrwt beam="1">  1        1 0.15725829E+00 0.24866289E+04</pdfrwt>
<pdfrwt beam="2">  1       -1 0.23265999E+00 0.24866289E+04</pdfrwt>
<totfact> 0.11721420E+00</totfact>
</mgrwt>
</event>
<event>
12    1  0.4612066E-007  0.1668687E+04  0.7818608E-02  0.8779428E-01
          1   -1    0    0  501    0  0.00000000000E+00  0.00000000000E+00  0.68523708143E+03  0.68523708143E+03  0.00000000000E+00 0. -1.
         -1   -1    0    0    0  501 -0.00000000000E+00 -0.00000000000E+00 -0.10158951436E+04  0.10158951436E+04  0.00000000000E+00 0.  1.
         23    2    1    2    0    0  0.26102639856E+03  0.47861555811E+03 -0.34711880191E+03  0.65287270391E+03  0.92431983991E+02 0.  0.
        254    2    1    2    0    0 -0.26102639856E+03 -0.47861555811E+03  0.16460739769E+02  0.10482595211E+04  0.89519240077E+03 0.  0.
        -24    2    4    4    0    0 -0.27864176620E+03 -0.32331660463E+03  0.42302142185E+03  0.60602655150E+03  0.78397685433E+02 0.  0.
         24    2    4    4    0    0  0.17615367636E+02 -0.15529895348E+03 -0.40656068208E+03  0.44223296959E+03  0.76487548313E+02 0.  0.
         11    1    3    3    0    0  0.24721962256E+03  0.47837364478E+03 -0.33300988068E+03  0.63313068669E+03  0.00000000000E+00 0.  1.
        -11    1    3    3    0    0  0.13806776004E+02  0.24191332621E+00 -0.14108921228E+02  0.19742017220E+02  0.00000000000E+00 0. -1.
          2    1    6    6  502    0 -0.21834417446E+02 -0.10858073481E+03 -0.29340865874E+03  0.31361626039E+03  0.00000000000E+00 0. -1.
          3    1    5    5  503    0 -0.27231486778E+03 -0.32729309399E+03  0.41039525173E+03  0.59135473215E+03  0.00000000000E+00 0. -1.
         -2    1    5    5    0  503 -0.63268984189E+01  0.39764893644E+01  0.12626170121E+02  0.14671819356E+02  0.00000000000E+00 0.  1.
         -1    1    6    6    0  502  0.39449785082E+02 -0.46718218678E+02 -0.11315202334E+03  0.12861670920E+03  0.00000000000E+00 0.  1.
<mgrwt>
<rscale>  0 0.16686869E+04</rscale>
<asrwt>0</asrwt>
<pdfrwt beam="1">  1        1 0.10542109E+00 0.16686869E+04</pdfrwt>
<pdfrwt beam="2">  1       -1 0.15629156E+00 0.16686869E+04</pdfrwt>
<totfact> 0.83745596E+00</totfact>
</mgrwt>
</event>
<event>
12    1  0.4612066E-007  0.1512016E+04  0.7818608E-02  0.8876502E-01
          2   -1    0    0  501    0  0.00000000000E+00  0.00000000000E+00  0.56544916164E+03  0.56544916164E+03  0.00000000000E+00 0. -1.
         -2   -1    0    0    0  501 -0.00000000000E+00 -0.00000000000E+00 -0.10107856762E+04  0.10107856762E+04  0.00000000000E+00 0.  1.
         23    2    1    2    0    0  0.15693618517E+03  0.27096298556E+03 -0.53406494931E+03  0.62700390995E+03  0.99290620185E+02 0.  0.
        254    2    1    2    0    0 -0.15693618517E+03 -0.27096298556E+03  0.88728434798E+02  0.94923092784E+03  0.89169317227E+03 0.  0.
        -24    2    4    4    0    0 -0.29175397487E+03  0.25414713952E+03  0.69842842212E+02  0.40087001184E+03  0.78151093422E+02 0.  0.
         24    2    4    4    0    0  0.13481778970E+03 -0.52511012507E+03  0.18885592585E+02  0.54836091601E+03  0.80165757771E+02 0.  0.
         13    1    3    3    0    0  0.31681770282E+02  0.13824913194E+03 -0.18496893469E+03  0.23308810320E+03  0.00000000000E+00 0. -1.
        -13    1    3    3    0    0  0.12525441489E+03  0.13271385362E+03 -0.34909601462E+03  0.39391580676E+03  0.00000000000E+00 0.  1.
          4    1    6    6  502    0  0.32444637789E+02 -0.93557674647E+02  0.33654203857E+02  0.10458632054E+03  0.00000000000E+00 0. -1.
          3    1    5    5  503    0 -0.52979664473E+02  0.16983428859E+02 -0.57879140543E+01  0.55935513340E+02  0.00000000000E+00 0. -1.
         -4    1    5    5    0  503 -0.23877431040E+03  0.23716371066E+03  0.75630756267E+02  0.34493449849E+03  0.00000000000E+00 0.  1.
         -3    1    6    6    0  502  0.10237315191E+03 -0.43155245043E+03 -0.14768611271E+02  0.44377459547E+03  0.00000000000E+00 0.  1.
<mgrwt>
<rscale>  0 0.15120158E+04</rscale>
<asrwt>0</asrwt>
<pdfrwt beam="1">  1        2 0.86992180E-01 0.15120158E+04</pdfrwt>
<pdfrwt beam="2">  1       -2 0.15550549E+00 0.15120158E+04</pdfrwt>
<totfact> 0.13980338E+01</totfact>
</mgrwt>
</event>
<event>
12    1  0.4612066E-007  0.1837265E+04  0.7818608E-02  0.8686730E-01
          1   -1    0    0  501    0  0.00000000000E+00  0.00000000000E+00  0.94248064449E+03  0.94248064449E+03  0.00000000000E+00 0. -1.
         -1   -1    0    0    0  501 -0.00000000000E+00 -0.00000000000E+00 -0.89538734882E+03  0.89538734882E+03  0.00000000000E+00 0.  1.
         23    2    1    2    0    0  0.62398007449E+03  0.54571471605E+02 -0.27938311862E+03  0.69192931555E+03  0.91553655747E+02 0.  0.
        254    2    1    2    0    0 -0.62398007449E+03 -0.54571471605E+02  0.32647641429E+03  0.11459386777E+04  0.90236324460E+03 0.  0.
        -24    2    4    4    0    0 -0.23614763082E+03 -0.45840222470E+03  0.23619026776E+03  0.57344675428E+03  0.84599256861E+02 0.  0.
         24    2    4    4    0    0 -0.38783244367E+03  0.40383075310E+03  0.90286146534E+02  0.57249192347E+03  0.78116148548E+02 0.  0.
         11    1    3    3    0    0  0.29295772740E+03 -0.18334941283E+02 -0.14380283504E+03  0.32686335904E+03  0.00000000000E+00 0.  1.
        -11    1    3    3    0    0  0.33102234709E+03  0.72906412888E+02 -0.13558028358E+03  0.36506595652E+03  0.00000000000E+00 0. -1.
          4    1    6    6  502    0 -0.98385807067E+02  0.86114755165E+02  0.53001082107E+02  0.14108377934E+03  0.00000000000E+00 0. -1.
          3    1    5    5  503    0 -0.32386214342E+01 -0.14399760947E+02 -0.68403758363E+01  0.16267529798E+02  0.00000000000E+00 0. -1.
         -4    1    5    5    0  503 -0.23290900938E+03 -0.44400246376E+03  0.24303064359E+03  0.55717922449E+03  0.00000000000E+00 0.  1.
         -3    1    6    6    0  502 -0.28944663660E+03  0.31771599793E+03  0.37285064427E+02  0.43140814412E+03  0.00000000000E+00 0.  1.
<mgrwt>
<rscale>  0 0.18372645E+04</rscale>
<asrwt>0</asrwt>
<pdfrwt beam="1">  1        1 0.14499702E+00 0.18372645E+04</pdfrwt>
<pdfrwt beam="2">  1       -1 0.13775190E+00 0.18372645E+04</pdfrwt>
<totfact> 0.69131634E+00</totfact>
</mgrwt>
</event>
<event>
12    1  0.4612066E-007  0.1645255E+04  0.7818608E-02  0.8793218E-01
         -2   -1    0    0    0  501 -0.00000000000E+00  0.00000000000E+00  0.76242777468E+03  0.76242777468E+03  0.00000000000E+00 0. -1.
          2   -1    0    0  501    0  0.00000000000E+00 -0.00000000000E+00 -0.88758095288E+03  0.88758095288E+03  0.00000000000E+00 0.  1.
         23    2    1    2    0    0 -0.26941815165E+03  0.31069289887E+03 -0.41212441601E+03  0.58728030989E+03  0.77041613884E+02 0.  0.
        254    2    1    2    0    0  0.26941815165E+03 -0.31069289887E+03  0.28697123781E+03  0.10627284177E+04  0.93697544286E+03 0.  0.
        -24    2    4    4    0    0 -0.21203497899E+03  0.46739050872E+02  0.38611120494E+03  0.44961214458E+03  0.76979521803E+02 0.  0.
         24    2    4    4    0    0  0.48145313064E+03 -0.35743194974E+03 -0.99139967131E+02  0.61311627308E+03  0.80796754491E+02 0.  0.
         11    1    3    3    0    0 -0.27394342060E+03  0.29881467747E+03 -0.40314386745E+03  0.57171687663E+03  0.00000000000E+00 0. -1.
        -11    1    3    3    0    0  0.45252689415E+01  0.11878221396E+02 -0.89805485557E+01  0.15563433261E+02  0.00000000000E+00 0.  1.
          2    1    6    6  502    0  0.42953914705E+03 -0.34061108519E+03 -0.74484342463E+02  0.55323386328E+03  0.00000000000E+00 0. -1.
          3    1    5    5  503    0 -0.83856498324E+02 -0.94427951663E+01  0.19730296146E+03  0.21459155923E+03  0.00000000000E+00 0. -1.
         -2    1    5    5    0  503 -0.12817848066E+03  0.56181846038E+02  0.18880824349E+03  0.23502058535E+03  0.00000000000E+00 0.  1.
         -1    1    6    6    0  502  0.51913983593E+02 -0.16820864552E+02 -0.24655624668E+02  0.59882409809E+02  0.00000000000E+00 0.  1.
<mgrwt>
<rscale>  0 0.16452554E+04</rscale>
<asrwt>0</asrwt>
<pdfrwt beam="1">  1        2 0.13655092E+00 0.16452554E+04</pdfrwt>
<pdfrwt beam="2">  1       -2 0.11729658E+00 0.16452554E+04</pdfrwt>
<totfact> 0.16050519E+01</totfact>
</mgrwt>
</event>
<event>
12    1  0.4612066E-007  0.1558370E+04  0.7818608E-02  0.8846539E-01
          3   -1    0    0  501    0  0.00000000000E+00  0.00000000000E+00  0.18568955548E+04  0.18568955548E+04  0.00000000000E+00 0. -1.
         -3   -1    0    0    0  501 -0.00000000000E+00 -0.00000000000E+00 -0.32695946193E+03  0.32695946193E+03  0.00000000000E+00 0.  1.
         23    2    1    2    0    0 -0.47267236623E+03  0.10632896311E+03  0.75959482411E+03  0.90554979074E+03  0.91165303159E+02 0.  0.
        254    2    1    2    0    0  0.47267236623E+03 -0.10632896311E+03  0.77034126880E+03  0.12783052260E+04  0.89772688848E+03 0.  0.
        -24    2    4    4    0    0  0.56603231416E+03  0.25845534453E+03  0.54654282978E+03  0.83204012065E+03  0.79937174046E+02 0.  0.
         24    2    4    4    0    0 -0.93359947931E+02 -0.36478430764E+03  0.22379843901E+03  0.44626510539E+03  0.85341267888E+02 0.  0.
         11    1    3    3    0    0 -0.12961095195E+03  0.42534395123E+02  0.29020977762E+03  0.32067099754E+03  0.00000000000E+00 0. -1.
        -11    1    3    3    0    0 -0.34306141428E+03  0.63794567986E+02  0.46938504649E+03  0.58487879320E+03  0.00000000000E+00 0.  1.
          4    1    6    6  502    0  0.12085980843E+02 -0.10486311022E+03  0.58388406429E+02  0.12062980072E+03  0.00000000000E+00 0. -1.
          1    1    5    5  503    0  0.14141407568E+02  0.22331762109E+02  0.31198596030E+02  0.40890578391E+02  0.00000000000E+00 0. -1.
         -4    1    5    5    0  503  0.55189090659E+03  0.23612358242E+03  0.51534423375E+03  0.79114954226E+03  0.00000000000E+00 0.  1.
         -1    1    6    6    0  502 -0.10544592877E+03 -0.25992119742E+03  0.16541003258E+03  0.32563530466E+03  0.00000000000E+00 0.  1.
<mgrwt>
<rscale>  0 0.15583704E+04</rscale>
<asrwt>0</asrwt>
<pdfrwt beam="1">  1        3 0.28567623E+00 0.15583704E+04</pdfrwt>
<pdfrwt beam="2">  1       -3 0.50301457E-01 0.15583704E+04</pdfrwt>
<totfact> 0.46005668E-01</totfact>
</mgrwt>
</event>
<event>
12    1  0.4612066E-007  0.1524553E+04  0.7818608E-02  0.8868288E-01
         -2   -1    0    0    0  501 -0.00000000000E+00  0.00000000000E+00  0.21388559678E+03  0.21388559678E+03  0.00000000000E+00 0.  1.
          2   -1    0    0  501    0  0.00000000000E+00 -0.00000000000E+00 -0.27167116374E+04  0.27167116374E+04  0.00000000000E+00 0. -1.
         23    2    1    2    0    0 -0.47766319886E+03  0.12896133807E+03 -0.88737444210E+03  0.10198826414E+04  0.89073247974E+02 0.  0.
        254    2    1    2    0    0  0.47766319886E+03 -0.12896133807E+03 -0.16154515986E+04  0.19107145928E+04  0.89238625583E+03 0.  0.
        -24    2    4    4    0    0  0.37290716601E+03 -0.30685184365E+03 -0.16167497233E+04  0.16892948941E+04  0.81361925144E+02 0.  0.
         24    2    4    4    0    0  0.10475603286E+03  0.17789050559E+03  0.12981247804E+01  0.22141969871E+03  0.80038362379E+02 0.  0.
         11    1    3    3    0    0 -0.21150646727E+02  0.12076589139E+00 -0.86736669648E+02  0.89278296931E+02  0.00000000000E+00 0. -1.
        -11    1    3    3    0    0 -0.45651255213E+03  0.12884057217E+03 -0.80063777246E+03  0.93060434449E+03  0.00000000000E+00 0.  1.
          4    1    6    6  502    0 -0.22949377012E+01 -0.33219389934E+01 -0.98588861198E+01  0.10653621603E+02  0.00000000000E+00 0. -1.
          1    1    5    5  503    0  0.14171083745E+03 -0.71008883983E+02 -0.47584400944E+03  0.50154934391E+03  0.00000000000E+00 0. -1.
         -2    1    5    5    0  503  0.23119632856E+03 -0.23584295967E+03 -0.11409057139E+04  0.11877455502E+04  0.00000000000E+00 0.  1.
         -3    1    6    6    0  502  0.10705097056E+03  0.18121244458E+03  0.11157010900E+02  0.21076607711E+03  0.00000000000E+00 0.  1.
<mgrwt>
<rscale>  0 0.15245530E+04</rscale>
<asrwt>0</asrwt>
<pdfrwt beam="1">  1        2 0.41795564E+00 0.15245530E+04</pdfrwt>
<pdfrwt beam="2">  1       -2 0.32905476E-01 0.15245530E+04</pdfrwt>
<totfact> 0.21658332E+01</totfact>
</mgrwt>
</event>
<event>
12    1  0.4612066E-007  0.1455392E+04  0.7818608E-02  0.8914671E-01
         -2   -1    0    0    0  501 -0.00000000000E+00  0.00000000000E+00  0.13405647838E+04  0.13405647838E+04  0.00000000000E+00 0.  1.
          2   -1    0    0  501    0  0.00000000000E+00 -0.00000000000E+00 -0.39501360382E+03  0.39501360382E+03  0.00000000000E+00 0. -1.
         23    2    1    2    0    0 -0.24081350039E+03 -0.70649402566E+02  0.73517349330E+03  0.78224094962E+03  0.91860535353E+02 0.  0.
        254    2    1    2    0    0  0.24081350039E+03  0.70649402566E+02  0.21037768672E+03  0.95333743804E+03  0.89532732543E+03 0.  0.
        -24    2    4    4    0    0 -0.22464334870E+03  0.26696189289E+03 -0.77853128901E+02  0.36631286549E+03  0.79941975065E+02 0.  0.
         24    2    4    4    0    0  0.46545684909E+03 -0.19631249032E+03  0.28823081562E+03  0.58702457255E+03  0.79574955139E+02 0.  0.
         13    1    3    3    0    0 -0.28944550443E+02  0.90896672546E+01  0.34683034305E+02  0.46079517356E+02  0.00000000000E+00 0. -1.
        -13    1    3    3    0    0 -0.21186894995E+03 -0.79739069821E+02  0.70049045899E+03  0.73616143226E+03  0.00000000000E+00 0.  1.
          4    1    6    6  502    0  0.14202054702E+03 -0.43756954146E+02  0.12382025107E+03  0.19343205884E+03  0.00000000000E+00 0. -1.
          3    1    5    5  503    0 -0.63076498417E+02  0.33236145623E+02 -0.33365601573E+02  0.78718164338E+02  0.00000000000E+00 0. -1.
         -4    1    5    5    0  503 -0.16156685028E+03  0.23372574727E+03 -0.44487527328E+02  0.28759470115E+03  0.00000000000E+00 0.  1.
         -1    1    6    6    0  502  0.32343630207E+03 -0.15255553618E+03  0.16441056455E+03  0.39359251371E+03  0.00000000000E+00 0.  1.
<mgrwt>
<rscale>  0 0.14553918E+04</rscale>
<asrwt>0</asrwt>
<pdfrwt beam="1">  1        2 0.60771324E-01 0.14553918E+04</pdfrwt>
<pdfrwt beam="2">  1       -2 0.20624073E+00 0.14553918E+04</pdfrwt>
<totfact> 0.94593562E+00</totfact>
</mgrwt>
</event>
<event>
12    1  0.4612066E-007  0.2292518E+04  0.7818608E-02  0.8480877E-01
          2   -1    0    0  501    0  0.00000000000E+00  0.00000000000E+00  0.95072922918E+03  0.95072922918E+03  0.00000000000E+00 0. -1.
         -2   -1    0    0    0  501 -0.00000000000E+00 -0.00000000000E+00 -0.13820022482E+04  0.13820022482E+04  0.00000000000E+00 0.  1.
         23    2    1    2    0    0 -0.82460062833E+03 -0.21986572515E+03  0.27181991828E+03  0.90030722474E+03  0.91432475684E+02 0.  0.
        254    2    1    2    0    0  0.82460062833E+03  0.21986572515E+03 -0.70309293730E+03  0.14324242526E+04  0.91060003717E+03 0.  0.
        -24    2    4    4    0    0  0.43435604485E+03  0.56749533378E+03 -0.42327384173E+03  0.83441383299E+03  0.79809598524E+02 0.  0.
         24    2    4    4    0    0  0.39024458348E+03 -0.34762960863E+03 -0.27981909556E+03  0.59801041964E+03  0.78616512397E+02 0.  0.
         11    1    3    3    0    0 -0.40017054827E+03 -0.77880081935E+02  0.91652426638E+02  0.41785397231E+03  0.00000000000E+00 0.  1.
        -11    1    3    3    0    0 -0.42443008006E+03 -0.14198564322E+03  0.18016749164E+03  0.48245325244E+03  0.00000000000E+00 0. -1.
          2    1    6    6  502    0  0.30634189858E+03 -0.22601239454E+03 -0.20565551458E+03  0.43269059614E+03  0.00000000000E+00 0. -1.
          1    1    5    5  503    0  0.37851520271E+03  0.53201622547E+03 -0.38439537195E+03  0.75767725637E+03  0.00000000000E+00 0. -1.
         -2    1    5    5    0  503  0.55840842144E+02  0.35479108317E+02 -0.38878469783E+02  0.76736576617E+02  0.00000000000E+00 0.  1.
         -1    1    6    6    0  502  0.83902684895E+02 -0.12161721409E+03 -0.74163580984E+02  0.16531982349E+03  0.00000000000E+00 0.  1.
<mgrwt>
<rscale>  0 0.22925182E+04</rscale>
<asrwt>0</asrwt>
<pdfrwt beam="1">  1        2 0.14626604E+00 0.22925182E+04</pdfrwt>
<pdfrwt beam="2">  1       -2 0.21261573E+00 0.22925182E+04</pdfrwt>
<totfact> 0.27093935E+00</totfact>
</mgrwt>
</event>
<event>
12    1  0.4612066E-007  0.1549092E+04  0.7818608E-02  0.8852448E-01
          1   -1    0    0  501    0  0.00000000000E+00  0.00000000000E+00  0.14153921380E+04  0.14153921380E+04  0.00000000000E+00 0. -1.
         -1   -1    0    0    0  501 -0.00000000000E+00 -0.00000000000E+00 -0.42385551035E+03  0.42385551035E+03  0.00000000000E+00 0.  1.
         23    2    1    2    0    0 -0.28868917738E+02  0.28374977535E+02  0.93269820269E+03  0.93805776136E+03  0.91585329548E+02 0.  0.
        254    2    1    2    0    0  0.28868917738E+02 -0.28374977535E+02  0.58838424945E+02  0.90118988698E+03  0.89835555232E+03 0.  0.
        -24    2    4    4    0    0  0.61069982182E+02 -0.45439262697E+03  0.28280665559E+02  0.46559328629E+03  0.75994144699E+02 0.  0.
         24    2    4    4    0    0 -0.32201064444E+02  0.42601764943E+03  0.30557759386E+02  0.43559660069E+03  0.79263331318E+02 0.  0.
         13    1    3    3    0    0 -0.50666068091E+02  0.84482762059E+01  0.27875370976E+03  0.28344674020E+03  0.00000000000E+00 0. -1.
        -13    1    3    3    0    0  0.21797150353E+02  0.19926701329E+02  0.65394449293E+03  0.65461102116E+03  0.00000000000E+00 0.  1.
          4    1    6    6  502    0 -0.14630023716E+02  0.83610224279E+02 -0.24500880509E+02  0.88345912999E+02  0.00000000000E+00 0. -1.
          1    1    5    5  503    0 -0.15112292989E+02 -0.11286957689E+03 -0.57755399480E+01  0.11402315400E+03  0.00000000000E+00 0. -1.
         -2    1    5    5    0  503  0.76182275172E+02 -0.34152305008E+03  0.34056205507E+02  0.35157013229E+03  0.00000000000E+00 0.  1.
         -3    1    6    6    0  502 -0.17571040728E+02  0.34240742515E+03  0.55058639894E+02  0.34725068769E+03  0.00000000000E+00 0.  1.
<mgrwt>
<rscale>  0 0.15490923E+04</rscale>
<asrwt>0</asrwt>
<pdfrwt beam="1">  1        1 0.21775263E+00 0.15490923E+04</pdfrwt>
<pdfrwt beam="2">  1       -1 0.65208541E-01 0.15490923E+04</pdfrwt>
<totfact> 0.17214535E+01</totfact>
</mgrwt>
</event>
<event>
12    1  0.4612066E-007  0.1676858E+04  0.7818608E-02  0.8774674E-01
         -2   -1    0    0    0  501 -0.00000000000E+00  0.00000000000E+00  0.12026778427E+04  0.12026778427E+04  0.00000000000E+00 0.  1.
          2   -1    0    0  501    0  0.00000000000E+00 -0.00000000000E+00 -0.58449834492E+03  0.58449834492E+03  0.00000000000E+00 0. -1.
         23    2    1    2    0    0 -0.28534151668E+03 -0.40613752037E+01  0.77867670674E+03  0.83435015702E+03  0.91468546473E+02 0.  0.
        254    2    1    2    0    0  0.28534151668E+03  0.40613752037E+01 -0.16049720892E+03  0.95282603064E+03  0.89480825582E+03 0.  0.
        -24    2    4    4    0    0  0.34584479477E+02  0.29573184123E+03 -0.39018239143E+03  0.49730000153E+03  0.80072372260E+02 0.  0.
         24    2    4    4    0    0  0.25075703720E+03 -0.29167046603E+03  0.22968518251E+03  0.45552602911E+03  0.82449546270E+02 0.  0.
         13    1    3    3    0    0 -0.23562083912E+03 -0.11126014779E+02  0.52221760611E+03  0.57302024062E+03  0.00000000000E+00 0.  1.
        -13    1    3    3    0    0 -0.49720677559E+02  0.70646395754E+01  0.25645910063E+03  0.26132991640E+03  0.00000000000E+00 0. -1.
          4    1    6    6  502    0  0.22741568286E+03 -0.29186802078E+03  0.21465757784E+03  0.42776478360E+03  0.00000000000E+00 0. -1.
          3    1    5    5  503    0  0.25746803066E+02  0.11833835122E+03 -0.99911669512E+02  0.15700065268E+03  0.00000000000E+00 0. -1.
         -4    1    5    5    0  503  0.88376764104E+01  0.17739349001E+03 -0.29027072192E+03  0.34029934884E+03  0.00000000000E+00 0.  1.
         -3    1    6    6    0  502  0.23341354338E+02  0.19755475820E+00  0.15027604673E+02  0.27761245512E+02  0.00000000000E+00 0.  1.
<mgrwt>
<rscale>  0 0.16768580E+04</rscale>
<asrwt>0</asrwt>
<pdfrwt beam="1">  1        2 0.89922823E-01 0.16768580E+04</pdfrwt>
<pdfrwt beam="2">  1       -2 0.18502736E+00 0.16768580E+04</pdfrwt>
<totfact> 0.81649444E+00</totfact>
</mgrwt>
</event>
<event>
12    1  0.4612066E-007  0.1729464E+04  0.7818608E-02  0.8744736E-01
          1   -1    0    0  501    0  0.00000000000E+00  0.00000000000E+00  0.16098493652E+04  0.16098493652E+04  0.00000000000E+00 0. -1.
         -1   -1    0    0    0  501 -0.00000000000E+00 -0.00000000000E+00 -0.46449143711E+03  0.46449143711E+03  0.00000000000E+00 0.  1.
         23    2    1    2    0    0 -0.21319729584E+03 -0.18472717299E+03 -0.24958797564E+03  0.38855974512E+03  0.95432188237E+02 0.  0.
        254    2    1    2    0    0  0.21319729584E+03  0.18472717299E+03  0.13949459038E+04  0.16857810572E+04  0.90355214738E+03 0.  0.
        -24    2    4    4    0    0  0.29149112061E+03  0.50692253328E+03  0.73252739740E+03  0.94070020039E+03  0.79893372326E+02 0.  0.
         24    2    4    4    0    0 -0.78293824772E+02 -0.32219536028E+03  0.66241850636E+03  0.74508085681E+03  0.80046439267E+02 0.  0.
         11    1    3    3    0    0 -0.22041153305E+03 -0.18482674719E+03 -0.25030847603E+03  0.38130893453E+03  0.00000000000E+00 0.  1.
        -11    1    3    3    0    0  0.72142372095E+01  0.99574190911E-01  0.72050039117E+00  0.72508105994E+01  0.00000000000E+00 0. -1.
          2    1    6    6  502    0 -0.12532541803E+02 -0.17938115275E+03  0.29576364767E+03  0.34613696400E+03  0.00000000000E+00 0. -1.
          1    1    5    5  503    0  0.79957165882E+02  0.21487097752E+03  0.29964745744E+03  0.37729469133E+03  0.00000000000E+00 0. -1.
         -2    1    5    5    0  503  0.21153395473E+03  0.29205155576E+03  0.43287993996E+03  0.56340550906E+03  0.00000000000E+00 0.  1.
         -1    1    6    6    0  502 -0.65761282970E+02 -0.14281420753E+03  0.36665485869E+03  0.39894389281E+03  0.00000000000E+00 0.  1.
<mgrwt>
<rscale>  0 0.17294638E+04</rscale>
<asrwt>0</asrwt>
<pdfrwt beam="1">  1        1 0.24766913E+00 0.17294638E+04</pdfrwt>
<pdfrwt beam="2">  1       -1 0.71460222E-01 0.17294638E+04</pdfrwt>
<totfact> 0.10310758E+01</totfact>
</mgrwt>
</event>
<event>
12    1  0.4612066E-007  0.1159805E+04  0.7818608E-02  0.9148785E-01
          1   -1    0    0  501    0  0.00000000000E+00  0.00000000000E+00  0.10810187154E+04  0.10810187154E+04  0.00000000000E+00 0. -1.
         -1   -1    0    0    0  501 -0.00000000000E+00 -0.00000000000E+00 -0.31108359185E+03  0.31108359185E+03  0.00000000000E+00 0.  1.
         23    2    1    2    0    0  0.10581723734E+03  0.18567381907E+03  0.94882520862E+02  0.25103537426E+03  0.91345561242E+02 0.  0.
        254    2    1    2    0    0 -0.10581723734E+03 -0.18567381907E+03  0.67505260270E+03  0.11410669330E+04  0.89479923692E+03 0.  0.
        -24    2    4    4    0    0  0.81630166589E+02 -0.50892008611E+03  0.28369005912E+03  0.59407237457E+03  0.82333458781E+02 0.  0.
         24    2    4    4    0    0 -0.18744740393E+03  0.32324626704E+03  0.39136254358E+03  0.54699455844E+03  0.80085754391E+02 0.  0.
         11    1    3    3    0    0  0.90653870371E+02  0.10610521639E+03  0.20485497782E+02  0.14105352452E+03  0.00000000000E+00 0.  1.
        -11    1    3    3    0    0  0.15163366966E+02  0.79568602677E+02  0.74397023081E+02  0.10998184974E+03  0.00000000000E+00 0. -1.
          2    1    6    6  502    0  0.10604801706E+01  0.38115032752E+02  0.23254977280E+02  0.44661776814E+02  0.00000000000E+00 0. -1.
          1    1    5    5  503    0  0.45755778668E+02 -0.43838962601E+03  0.25874086398E+03  0.51110262195E+03  0.00000000000E+00 0. -1.
         -2    1    5    5    0  503  0.35874387920E+02 -0.70530460105E+02  0.24949195147E+02  0.82969752620E+02  0.00000000000E+00 0.  1.
         -1    1    6    6    0  502 -0.18850788410E+03  0.28513123429E+03  0.36810756630E+03  0.50233278163E+03  0.00000000000E+00 0.  1.
<mgrwt>
<rscale>  0 0.11598055E+04</rscale>
<asrwt>0</asrwt>
<pdfrwt beam="1">  1        1 0.16631057E+00 0.11598055E+04</pdfrwt>
<pdfrwt beam="2">  1       -1 0.47859015E-01 0.11598055E+04</pdfrwt>
<totfact> 0.56709540E+01</totfact>
</mgrwt>
</event>
<event>
12    1  0.4612066E-007  0.1771491E+04  0.7818608E-02  0.8721609E-01
          2   -1    0    0  501    0  0.00000000000E+00  0.00000000000E+00  0.14880160799E+04  0.14880160799E+04  0.00000000000E+00 0.  1.
         -2   -1    0    0    0  501 -0.00000000000E+00 -0.00000000000E+00 -0.52724212937E+03  0.52724212937E+03  0.00000000000E+00 0. -1.
         23    2    1    2    0    0  0.29267789771E+03  0.49948179757E+03  0.16196511506E+02  0.58645636550E+03  0.92338094732E+02 0.  0.
        254    2    1    2    0    0 -0.29267789771E+03 -0.49948179757E+03  0.94457743906E+03  0.14288018438E+04  0.90227809051E+03 0.  0.
        -24    2    4    4    0    0 -0.58911889439E+03 -0.46179295321E+03  0.75463440894E+03  0.10657513863E+04  0.77711794250E+02 0.  0.
         24    2    4    4    0    0  0.29644099668E+03 -0.37688844352E+02  0.18994303012E+03  0.36305045748E+03  0.80184577570E+02 0.  0.
         11    1    3    3    0    0  0.92322758691E+02  0.17071876873E+03  0.48649862901E+02  0.20008797797E+03  0.00000000000E+00 0.  1.
        -11    1    3    3    0    0  0.20035513902E+03  0.32876302884E+03 -0.32453351395E+02  0.38636838753E+03  0.00000000000E+00 0. -1.
          4    1    6    6  502    0  0.20218768060E+03  0.61501561404E+01  0.10028165221E+03  0.22577442808E+03  0.00000000000E+00 0. -1.
          1    1    5    5  503    0 -0.53912755212E+03 -0.44412730242E+03  0.71489478520E+03  0.99949093649E+03  0.00000000000E+00 0. -1.
         -2    1    5    5    0  503 -0.49991342271E+02 -0.17665650790E+02  0.39739623739E+02  0.66260449854E+02  0.00000000000E+00 0.  1.
         -3    1    6    6    0  502  0.94253316086E+02 -0.43839000492E+02  0.89661377919E+02  0.13727602940E+03  0.00000000000E+00 0.  1.
<mgrwt>
<rscale>  0 0.17714906E+04</rscale>
<asrwt>0</asrwt>
<pdfrwt beam="1">  1        2 0.22892555E+00 0.17714906E+04</pdfrwt>
<pdfrwt beam="2">  1       -2 0.81114174E-01 0.17714906E+04</pdfrwt>
<totfact> 0.16346225E+01</totfact>
</mgrwt>
</event>
<event>
12    1  0.4612066E-007  0.1191800E+04  0.7818608E-02  0.9120064E-01
          1   -1    0    0  501    0  0.00000000000E+00  0.00000000000E+00  0.26699403401E+04  0.26699403401E+04  0.00000000000E+00 0. -1.
         -1   -1    0    0    0  501 -0.00000000000E+00 -0.00000000000E+00 -0.13299814201E+03  0.13299814201E+03  0.00000000000E+00 0.  1.
         23    2    1    2    0    0  0.19619588088E+03  0.13572578971E+03  0.73737171232E+03  0.78071738852E+03  0.94277701210E+02 0.  0.
        254    2    1    2    0    0 -0.19619588088E+03 -0.13572578971E+03  0.17995704858E+04  0.20222210936E+04  0.89107233400E+03 0.  0.
        -24    2    4    4    0    0  0.33170554242E+03 -0.14740655965E+03  0.93323759139E+03  0.10045454760E+04  0.80137074399E+02 0.  0.
         24    2    4    4    0    0 -0.52790142331E+03  0.11680769940E+02  0.86633289438E+03  0.10176756176E+04  0.79464618559E+02 0.  0.
         13    1    3    3    0    0 -0.15370160388E+01  0.20296768977E+02  0.23820721566E+02  0.31332858554E+02  0.00000000000E+00 0.  1.
        -13    1    3    3    0    0  0.19773289692E+03  0.11542902074E+03  0.71355099075E+03  0.74938452997E+03  0.00000000000E+00 0. -1.
          2    1    6    6  502    0 -0.45922133831E+03  0.28887722668E+02  0.78432676220E+03  0.90933338660E+03  0.00000000000E+00 0. -1.
          1    1    5    5  503    0  0.11880195420E+03 -0.94923425174E+02  0.35998766137E+03  0.39078827683E+03  0.00000000000E+00 0. -1.
         -2    1    5    5    0  503  0.21290358822E+03 -0.52483134479E+02  0.57324993001E+03  0.61375719918E+03  0.00000000000E+00 0.  1.
         -1    1    6    6    0  502 -0.68680084998E+02 -0.17206952728E+02  0.82006132179E+02  0.10834223097E+03  0.00000000000E+00 0.  1.
<mgrwt>
<rscale>  0 0.11918005E+04</rscale>
<asrwt>0</asrwt>
<pdfrwt beam="1">  1        1 0.41076001E+00 0.11918005E+04</pdfrwt>
<pdfrwt beam="2">  1       -1 0.20461255E-01 0.11918005E+04</pdfrwt>
<totfact> 0.20263779E+01</totfact>
</mgrwt>
</event>
<event>
12    1  0.4612066E-007  0.2428415E+04  0.7818608E-02  0.8428942E-01
         -1   -1    0    0    0  501 -0.00000000000E+00  0.00000000000E+00  0.81102537729E+03  0.81102537729E+03  0.00000000000E+00 0.  1.
          1   -1    0    0  501    0  0.00000000000E+00 -0.00000000000E+00 -0.18178214310E+04  0.18178214310E+04  0.00000000000E+00 0. -1.
         23    2    1    2    0    0 -0.75384539210E+03 -0.30197184714E+03  0.28055696454E+03  0.86340567625E+03  0.85365565427E+02 0.  0.
        254    2    1    2    0    0  0.75384539210E+03  0.30197184714E+03 -0.12873530183E+04  0.17654411321E+04  0.89444660293E+03 0.  0.
        -24    2    4    4    0    0  0.80469606420E+03 -0.78884392270E+02 -0.80871936172E+03  0.11466357294E+04  0.83594179316E+02 0.  0.
         24    2    4    4    0    0 -0.50850672092E+02  0.38085623941E+03 -0.47863365658E+03  0.61880540271E+03  0.78693603632E+02 0.  0.
         11    1    3    3    0    0 -0.44885200951E+03 -0.22387192238E+03  0.16475503653E+03  0.52794979509E+03  0.00000000000E+00 0. -1.
        -11    1    3    3    0    0 -0.30499338259E+03 -0.78099924766E+02  0.11580192801E+03  0.33545588116E+03  0.00000000000E+00 0.  1.
          2    1    6    6  502    0 -0.24002100789E+02  0.45223932689E+02 -0.35665089818E+02  0.62396342536E+02  0.00000000000E+00 0. -1.
          3    1    5    5  503    0  0.19595351508E+03 -0.46053515202E+02 -0.23597701265E+03  0.31016746579E+03  0.00000000000E+00 0. -1.
         -4    1    5    5    0  503  0.60874254912E+03 -0.32830877068E+02 -0.57274234907E+03  0.83646826360E+03  0.00000000000E+00 0.  1.
         -1    1    6    6    0  502 -0.26848571303E+02  0.33563230672E+03 -0.44296856677E+03  0.55640906017E+03  0.00000000000E+00 0.  1.
<mgrwt>
<rscale>  0 0.24284146E+04</rscale>
<asrwt>0</asrwt>
<pdfrwt beam="1">  1        1 0.27966483E+00 0.24284146E+04</pdfrwt>
<pdfrwt beam="2">  1       -1 0.12477314E+00 0.24284146E+04</pdfrwt>
<totfact> 0.19908084E+00</totfact>
</mgrwt>
</event>
<event>
12    1  0.4612066E-007  0.1647775E+04  0.7818608E-02  0.8791724E-01
         -2   -1    0    0    0  501 -0.00000000000E+00  0.00000000000E+00  0.20874841768E+03  0.20874841768E+03  0.00000000000E+00 0.  1.
          2   -1    0    0  501    0  0.00000000000E+00 -0.00000000000E+00 -0.32517144864E+04  0.32517144864E+04  0.00000000000E+00 0. -1.
         23    2    1    2    0    0  0.36784117674E+03 -0.41680698971E+03 -0.12628516971E+04  0.13828814992E+04  0.92366843601E+02 0.  0.
        254    2    1    2    0    0 -0.36784117674E+03  0.41680698971E+03 -0.17801143716E+04  0.20775814049E+04  0.91569761392E+03 0.  0.
        -24    2    4    4    0    0  0.96004413592E+02  0.26128026583E+03 -0.14582307430E+04  0.14866578295E+04  0.78932740314E+02 0.  0.
         24    2    4    4    0    0 -0.46384559034E+03  0.15552672387E+03 -0.32188362863E+03  0.59092357544E+03  0.78995620885E+02 0.  0.
         11    1    3    3    0    0  0.29630397967E+03 -0.35040980877E+03 -0.11147790970E+04  0.12055353655E+04  0.00000000000E+00 0. -1.
        -11    1    3    3    0    0  0.71537197073E+02 -0.66397180939E+02 -0.14807260012E+03  0.17734613361E+03  0.00000000000E+00 0.  1.
          4    1    6    6  502    0 -0.30190125205E+03  0.91845697074E+02 -0.16248725626E+03  0.35493958149E+03  0.00000000000E+00 0. -1.
          1    1    5    5  503    0  0.14081678834E+02  0.14670246579E+03 -0.81039661197E+03  0.82368839729E+03  0.00000000000E+00 0. -1.
         -2    1    5    5    0  503  0.81922734758E+02  0.11457780005E+03 -0.64783413099E+03  0.66296943219E+03  0.00000000000E+00 0.  1.
         -3    1    6    6    0  502 -0.16194433829E+03  0.63681026799E+02 -0.15939637237E+03  0.23598399395E+03  0.00000000000E+00 0.  1.
<mgrwt>
<rscale>  0 0.16477746E+04</rscale>
<asrwt>0</asrwt>
<pdfrwt beam="1">  1        2 0.50026374E+00 0.16477746E+04</pdfrwt>
<pdfrwt beam="2">  1       -2 0.32115143E-01 0.16477746E+04</pdfrwt>
<totfact> 0.10419934E+01</totfact>
</mgrwt>
</event>
<event>
12    1  0.4612066E-007  0.3077695E+04  0.7818608E-02  0.8221886E-01
         -1   -1    0    0    0  501 -0.00000000000E+00  0.00000000000E+00  0.72750147910E+03  0.72750147910E+03  0.00000000000E+00 0.  1.
          1   -1    0    0  501    0  0.00000000000E+00 -0.00000000000E+00 -0.32550477928E+04  0.32550477928E+04  0.00000000000E+00 0. -1.
         23    2    1    2    0    0  0.12068392269E+04  0.64376946542E+03 -0.73118697453E+03  0.15537265772E+04  0.92367963651E+02 0.  0.
        254    2    1    2    0    0 -0.12068392269E+04 -0.64376946542E+03 -0.17963593392E+04  0.24288226947E+04  0.89519425979E+03 0.  0.
        -24    2    4    4    0    0 -0.79536591781E+03 -0.37110345291E+03 -0.44267654713E+03  0.98585533228E+03  0.74989964895E+02 0.  0.
         24    2    4    4    0    0 -0.41147330909E+03 -0.27266601252E+03 -0.13536827920E+04  0.14429673624E+04  0.77721741729E+02 0.  0.
         13    1    3    3    0    0  0.97589622691E+03  0.54665648021E+03 -0.62774266694E+03  0.12826798544E+04  0.00000000000E+00 0. -1.
        -13    1    3    3    0    0  0.23094299999E+03  0.97112985209E+02 -0.10344430759E+03  0.27104672275E+03  0.00000000000E+00 0.  1.
          2    1    6    6  502    0 -0.22923930189E+03 -0.10652135791E+03 -0.65960319888E+03  0.70638080183E+03  0.00000000000E+00 0. -1.
          3    1    5    5  503    0 -0.43778178312E+03 -0.24377693802E+03 -0.24086009627E+03  0.55596193316E+03  0.00000000000E+00 0. -1.
         -4    1    5    5    0  503 -0.35758413468E+03 -0.12732651489E+03 -0.20181645086E+03  0.42989339912E+03  0.00000000000E+00 0.  1.
         -1    1    6    6    0  502 -0.18223400720E+03 -0.16614465461E+03 -0.69407959314E+03  0.73658656059E+03  0.00000000000E+00 0.  1.
<mgrwt>
<rscale>  0 0.30776953E+04</rscale>
<asrwt>0</asrwt>
<pdfrwt beam="1">  1        1 0.50077658E+00 0.30776953E+04</pdfrwt>
<pdfrwt beam="2">  1       -1 0.11192331E+00 0.30776953E+04</pdfrwt>
<totfact> 0.23899263E-01</totfact>
</mgrwt>
</event>
<event>
12    1  0.4612066E-007  0.2128491E+04  0.7818608E-02  0.8548796E-01
         -1   -1    0    0    0  501 -0.00000000000E+00  0.00000000000E+00  0.12666145578E+04  0.12666145578E+04  0.00000000000E+00 0.  1.
          1   -1    0    0  501    0  0.00000000000E+00 -0.00000000000E+00 -0.89420899045E+03  0.89420899045E+03  0.00000000000E+00 0. -1.
         23    2    1    2    0    0 -0.10083713579E+03 -0.75504670352E+03  0.57670209231E+03  0.95782305904E+03  0.67646557242E+02 0.  0.
        254    2    1    2    0    0  0.10083713579E+03  0.75504670352E+03 -0.20429652500E+03  0.12030004892E+04  0.90841039974E+03 0.  0.
        -24    2    4    4    0    0 -0.22133750062E+03  0.11609454573E+03  0.24106472890E+03  0.35644832649E+03  0.80467218189E+02 0.  0.
         24    2    4    4    0    0  0.32217463642E+03  0.63895215779E+03 -0.44536125390E+03  0.84655216268E+03  0.79041516728E+02 0.  0.
         11    1    3    3    0    0 -0.63572959406E+02 -0.37052161707E+03  0.24586732935E+03  0.44919765530E+03  0.00000000000E+00 0. -1.
        -11    1    3    3    0    0 -0.37264176386E+02 -0.38452508645E+03  0.33083476296E+03  0.50862540375E+03  0.00000000000E+00 0.  1.
          4    1    6    6  502    0  0.56980610103E+02  0.18009619784E+03 -0.97116259297E+02  0.21239820674E+03  0.00000000000E+00 0. -1.
          1    1    5    5  503    0 -0.76695851312E+02  0.74730625172E+02  0.66714718563E+02  0.12616565943E+03  0.00000000000E+00 0. -1.
         -2    1    5    5    0  503 -0.14464164931E+03  0.41363920555E+02  0.17435001034E+03  0.23028266705E+03  0.00000000000E+00 0.  1.
         -3    1    6    6    0  502  0.26519402631E+03  0.45885595995E+03 -0.34824499460E+03  0.63415395594E+03  0.00000000000E+00 0.  1.
<mgrwt>
<rscale>  0 0.21284907E+04</rscale>
<asrwt>0</asrwt>
<pdfrwt beam="1">  1        1 0.13757061E+00 0.21284907E+04</pdfrwt>
<pdfrwt beam="2">  1       -1 0.19486378E+00 0.21284907E+04</pdfrwt>
<totfact> 0.27572664E+00</totfact>
</mgrwt>
</event>
<event>
12    1  0.4612066E-007  0.1968464E+04  0.7818608E-02  0.8621509E-01
         -1   -1    0    0    0  501 -0.00000000000E+00  0.00000000000E+00  0.80189302450E+03  0.80189302450E+03  0.00000000000E+00 0.  1.
          1   -1    0    0  501    0  0.00000000000E+00 -0.00000000000E+00 -0.12080317199E+04  0.12080317199E+04  0.00000000000E+00 0. -1.
         23    2    1    2    0    0  0.66936084177E+03 -0.29813976143E+03  0.11283568199E+03  0.74711274561E+03  0.92273017148E+02 0.  0.
        254    2    1    2    0    0 -0.66936084177E+03  0.29813976143E+03 -0.51897437740E+03  0.12628119988E+04  0.88793495600E+03 0.  0.
        -24    2    4    4    0    0 -0.12213809379E+03  0.13514351929E+03 -0.64347954320E+03  0.67343107860E+03  0.79132865146E+02 0.  0.
         24    2    4    4    0    0 -0.54722274798E+03  0.16299624214E+03  0.12450516580E+03  0.58938092020E+03  0.76471052918E+02 0.  0.
         13    1    3    3    0    0  0.49948703658E+03 -0.18752055602E+03  0.10794695243E+03  0.54433794942E+03  0.00000000000E+00 0.  1.
        -13    1    3    3    0    0  0.16987380519E+03 -0.11061920541E+03  0.48887295535E+01  0.20277479619E+03  0.00000000000E+00 0. -1.
          2    1    6    6  502    0 -0.40020296044E+02  0.17068881617E+02  0.30905636457E+02  0.53367866548E+02  0.00000000000E+00 0. -1.
          1    1    5    5  503    0 -0.13598128654E+02  0.59593514331E+02 -0.28125945540E+03  0.28782490737E+03  0.00000000000E+00 0. -1.
         -2    1    5    5    0  503 -0.10853996514E+03  0.75550004956E+02 -0.36222008780E+03  0.38560617123E+03  0.00000000000E+00 0.  1.
         -1    1    6    6    0  502 -0.50720245193E+03  0.14592736053E+03  0.93599529340E+02  0.53601305365E+03  0.00000000000E+00 0.  1.
<mgrwt>
<rscale>  0 0.19684636E+04</rscale>
<asrwt>0</asrwt>
<pdfrwt beam="1">  1        1 0.18585103E+00 0.19684636E+04</pdfrwt>
<pdfrwt beam="2">  1       -1 0.12336816E+00 0.19684636E+04</pdfrwt>
<totfact> 0.56704093E+00</totfact>
</mgrwt>
</event>
<event>
12    1  0.4612066E-007  0.2004176E+04  0.7818608E-02  0.8604671E-01
         -1   -1    0    0    0  501 -0.00000000000E+00  0.00000000000E+00  0.10164580742E+04  0.10164580742E+04  0.00000000000E+00 0.  1.
          1   -1    0    0  501    0  0.00000000000E+00 -0.00000000000E+00 -0.98792108634E+03  0.98792108634E+03  0.00000000000E+00 0. -1.
         23    2    1    2    0    0  0.51852586722E+03  0.58166833655E+03 -0.15350776999E+03  0.79939016488E+03  0.90845316579E+02 0.  0.
        254    2    1    2    0    0 -0.51852586722E+03 -0.58166833655E+03  0.18204475786E+03  0.12049889957E+04  0.90091678699E+03 0.  0.
        -24    2    4    4    0    0 -0.70725686737E+03 -0.17133711200E+03  0.97938499607E+02  0.73862738823E+03  0.80061142555E+02 0.  0.
         24    2    4    4    0    0  0.18873100015E+03 -0.41033122455E+03  0.84106258253E+02  0.46636160743E+03  0.80175943701E+02 0.  0.
         11    1    3    3    0    0  0.30812078634E+03  0.28287710529E+03 -0.63994743832E+02  0.42314678648E+03  0.00000000000E+00 0. -1.
        -11    1    3    3    0    0  0.21040508087E+03  0.29879123126E+03 -0.89513026159E+02  0.37624337840E+03  0.00000000000E+00 0.  1.
          2    1    6    6  502    0  0.86996628525E+02 -0.22185315050E+03  0.82488252195E+02  0.25217364159E+03  0.00000000000E+00 0. -1.
          1    1    5    5  503    0 -0.27789878270E+03 -0.49096183023E+02  0.73100719165E+02  0.29151652399E+03  0.00000000000E+00 0. -1.
         -2    1    5    5    0  503 -0.42935808467E+03 -0.12224092898E+03  0.24837780442E+02  0.44711086424E+03  0.00000000000E+00 0.  1.
         -1    1    6    6    0  502  0.10173437163E+03 -0.18847807405E+03  0.16180060579E+01  0.21418796584E+03  0.00000000000E+00 0.  1.
<mgrwt>
<rscale>  0 0.20041760E+04</rscale>
<asrwt>0</asrwt>
<pdfrwt beam="1">  1        1 0.15198786E+00 0.20041760E+04</pdfrwt>
<pdfrwt beam="2">  1       -1 0.15637817E+00 0.20041760E+04</pdfrwt>
<totfact> 0.44665372E+00</totfact>
</mgrwt>
</event>
<event>
12    1  0.4612066E-007  0.2369276E+04  0.7818608E-02  0.8451096E-01
         -1   -1    0    0    0  501 -0.00000000000E+00  0.00000000000E+00  0.10346134245E+04  0.10346134245E+04  0.00000000000E+00 0.  1.
          1   -1    0    0  501    0  0.00000000000E+00 -0.00000000000E+00 -0.13564174880E+04  0.13564174880E+04  0.00000000000E+00 0. -1.
         23    2    1    2    0    0 -0.43301770858E+03  0.72818693805E+03  0.41849563614E+03  0.94948118299E+03  0.92818999661E+02 0.  0.
        254    2    1    2    0    0  0.43301770858E+03 -0.72818693805E+03 -0.74029969964E+03  0.14415497296E+04  0.90125547149E+03 0.  0.
        -24    2    4    4    0    0  0.10641150219E+02 -0.36952688187E+03  0.13585539422E+03  0.40177503979E+03  0.79392341933E+02 0.  0.
         24    2    4    4    0    0  0.42237655836E+03 -0.35866005618E+03 -0.87615509385E+03  0.10397746898E+04  0.80278665289E+02 0.  0.
         11    1    3    3    0    0 -0.42978972514E+03  0.71280076334E+03  0.42223687288E+03  0.93332101277E+03  0.00000000000E+00 0.  1.
        -11    1    3    3    0    0 -0.32279834451E+01  0.15386174708E+02 -0.37412367452E+01  0.16160170223E+02  0.00000000000E+00 0. -1.
          4    1    6    6  502    0  0.14592883909E+03 -0.11520919330E+03 -0.22737758832E+03  0.29371576731E+03  0.00000000000E+00 0. -1.
          1    1    5    5  503    0 -0.12661860707E+02 -0.40083451291E+02 -0.57572756150E+01  0.42428198246E+02  0.00000000000E+00 0. -1.
         -2    1    5    5    0  503  0.23303010925E+02 -0.32944343057E+03  0.14161266983E+03  0.35934684154E+03  0.00000000000E+00 0.  1.
         -3    1    6    6    0  502  0.27644771928E+03 -0.24345086288E+03 -0.64877750553E+03  0.74605892248E+03  0.00000000000E+00 0.  1.
<mgrwt>
<rscale>  0 0.23692765E+04</rscale>
<asrwt>0</asrwt>
<pdfrwt beam="1">  1        1 0.20867961E+00 0.23692765E+04</pdfrwt>
<pdfrwt beam="2">  1       -1 0.15917130E+00 0.23692765E+04</pdfrwt>
<totfact> 0.21971413E+00</totfact>
</mgrwt>
</event>
<event>
12    1  0.4612066E-007  0.3340095E+04  0.7818608E-02  0.8152768E-01
          1   -1    0    0  501    0  0.00000000000E+00  0.00000000000E+00  0.15643637057E+04  0.15643637057E+04  0.00000000000E+00 0. -1.
         -1   -1    0    0    0  501 -0.00000000000E+00 -0.00000000000E+00 -0.17828707168E+04  0.17828707168E+04  0.00000000000E+00 0.  1.
         23    2    1    2    0    0 -0.89334835881E+02  0.11835793360E+04  0.88945520999E+03  0.14863607142E+04  0.96420145432E+02 0.  0.
        254    2    1    2    0    0  0.89334835881E+02 -0.11835793360E+04 -0.11079622211E+04  0.18608737084E+04  0.90908190915E+03 0.  0.
        -24    2    4    4    0    0  0.37610343463E+03 -0.10714313963E+04 -0.10242777603E+04  0.15313756891E+04  0.80916873798E+02 0.  0.
         24    2    4    4    0    0 -0.28676859875E+03 -0.11214793976E+03 -0.83684460835E+02  0.32949801930E+03  0.82173390534E+02 0.  0.
         13    1    3    3    0    0 -0.54346144755E+02  0.46776796194E+03  0.29930644319E+03  0.55798272070E+03  0.00000000000E+00 0.  1.
        -13    1    3    3    0    0 -0.34988691126E+02  0.71581137410E+03  0.59014876681E+03  0.92837799347E+03  0.00000000000E+00 0. -1.
          4    1    6    6  502    0 -0.27184583192E+03 -0.89697974768E+02 -0.92979219954E+02  0.30098341873E+03  0.00000000000E+00 0. -1.
          3    1    5    5  503    0  0.28213567456E+03 -0.81047486322E+03 -0.72606455729E+03  0.11241173356E+04  0.00000000000E+00 0. -1.
         -2    1    5    5    0  503  0.93967760075E+02 -0.26095653306E+03 -0.29821320298E+03  0.40725835352E+03  0.00000000000E+00 0.  1.
         -3    1    6    6    0  502 -0.14922766834E+02 -0.22449964994E+02  0.92947591193E+01  0.28514600563E+02  0.00000000000E+00 0.  1.
<mgrwt>
<rscale>  0 0.33400948E+04</rscale>
<asrwt>0</asrwt>
<pdfrwt beam="1">  1        1 0.24067134E+00 0.33400948E+04</pdfrwt>
<pdfrwt beam="2">  1       -1 0.27428780E+00 0.33400948E+04</pdfrwt>
<totfact> 0.23659223E-01</totfact>
</mgrwt>
</event>
<event>
12    1  0.4612066E-007  0.1815997E+04  0.7818608E-02  0.8697838E-01
         -1   -1    0    0    0  501 -0.00000000000E+00  0.00000000000E+00  0.14196934623E+04  0.14196934623E+04  0.00000000000E+00 0.  1.
          1   -1    0    0  501    0  0.00000000000E+00 -0.00000000000E+00 -0.58073195251E+03  0.58073195251E+03  0.00000000000E+00 0. -1.
         23    2    1    2    0    0 -0.55100481695E+03 -0.37784473407E+03  0.41917880337E+03  0.79404469726E+03  0.91777778861E+02 0.  0.
        254    2    1    2    0    0  0.55100481695E+03  0.37784473407E+03  0.41978270646E+03  0.12063807176E+04  0.91255901933E+03 0.  0.
        -24    2    4    4    0    0 -0.22214154999E+02  0.26248556817E+03 -0.20828190356E+03  0.34454066646E+03  0.77037505933E+02 0.  0.
         24    2    4    4    0    0  0.57321897194E+03  0.11535916590E+03  0.62806461001E+03  0.86184005112E+03  0.80096144780E+02 0.  0.
         11    1    3    3    0    0 -0.25269269354E+03 -0.15987241809E+03  0.24002260264E+03  0.38343661433E+03  0.00000000000E+00 0.  1.
        -11    1    3    3    0    0 -0.29831212341E+03 -0.21797231598E+03  0.17915620073E+03  0.41060808293E+03  0.00000000000E+00 0. -1.
          4    1    6    6  502    0  0.13465039862E+03 -0.61436649955E+01  0.15509608233E+03  0.20548301444E+03  0.00000000000E+00 0. -1.
          3    1    5    5  503    0 -0.40186062264E+02  0.74816626060E+02 -0.51342292064E+02  0.99239498637E+02  0.00000000000E+00 0. -1.
         -4    1    5    5    0  503  0.17971907265E+02  0.18766894211E+03 -0.15693961149E+03  0.24530116783E+03  0.00000000000E+00 0.  1.
         -1    1    6    6    0  502  0.43856857332E+03  0.12150283089E+03  0.47296852768E+03  0.65635703668E+03  0.00000000000E+00 0.  1.
<mgrwt>
<rscale>  0 0.18159971E+04</rscale>
<asrwt>0</asrwt>
<pdfrwt beam="1">  1        1 0.89343378E-01 0.18159971E+04</pdfrwt>
<pdfrwt beam="2">  1       -1 0.21841438E+00 0.18159971E+04</pdfrwt>
<totfact> 0.38145574E+00</totfact>
</mgrwt>
</event>
<event>
12    1  0.4612066E-007  0.2333472E+04  0.7818608E-02  0.8464839E-01
         -2   -1    0    0    0  501 -0.00000000000E+00  0.00000000000E+00  0.91250241425E+03  0.91250241425E+03  0.00000000000E+00 0. -1.
          2   -1    0    0  501    0  0.00000000000E+00 -0.00000000000E+00 -0.14918020843E+04  0.14918020843E+04  0.00000000000E+00 0.  1.
         23    2    1    2    0    0 -0.51923516499E+03 -0.32056671149E+03 -0.10508931229E+04  0.12186251429E+04  0.91119208579E+02 0.  0.
        254    2    1    2    0    0  0.51923516499E+03  0.32056671149E+03  0.47159345286E+03  0.11856793556E+04  0.90059256959E+03 0.  0.
        -24    2    4    4    0    0  0.66035617756E+02  0.21246849080E+03 -0.23657265502E+03  0.33415399515E+03  0.78668348006E+02 0.  0.
         24    2    4    4    0    0  0.45319954723E+03  0.10809822069E+03  0.70816610788E+03  0.85152536044E+03  0.80753626470E+02 0.  0.
         13    1    3    3    0    0 -0.34599510044E+03 -0.22795033578E+03 -0.78979822776E+03  0.89188295515E+03  0.00000000000E+00 0.  1.
        -13    1    3    3    0    0 -0.17324006455E+03 -0.92616375717E+02 -0.26109489513E+03  0.32674218778E+03  0.00000000000E+00 0. -1.
          2    1    6    6  502    0  0.20450431532E+03  0.79384872718E+02  0.28215883270E+03  0.35740394495E+03  0.00000000000E+00 0. -1.
          1    1    5    5  503    0  0.31949083565E+02  0.79268712745E+02 -0.14706104203E+03  0.17009180710E+03  0.00000000000E+00 0. -1.
         -2    1    5    5    0  503  0.34086534191E+02  0.13319977806E+03 -0.89511612988E+02  0.16406218805E+03  0.00000000000E+00 0.  1.
         -1    1    6    6    0  502  0.24869523191E+03  0.28713347976E+02  0.42600727518E+03  0.49412141548E+03  0.00000000000E+00 0.  1.
<mgrwt>
<rscale>  0 0.23334721E+04</rscale>
<asrwt>0</asrwt>
<pdfrwt beam="1">  1        2 0.22950801E+00 0.23334721E+04</pdfrwt>
<pdfrwt beam="2">  1       -2 0.14038499E+00 0.23334721E+04</pdfrwt>
<totfact> 0.41373806E+00</totfact>
</mgrwt>
</event>
<event>
12    1  0.4612066E-007  0.2769637E+04  0.7818608E-02  0.8312757E-01
         -1   -1    0    0    0  501 -0.00000000000E+00  0.00000000000E+00  0.99563064902E+03  0.99563064902E+03  0.00000000000E+00 0.  1.
          1   -1    0    0  501    0  0.00000000000E+00 -0.00000000000E+00 -0.19261386579E+04  0.19261386579E+04  0.00000000000E+00 0. -1.
         23    2    1    2    0    0  0.89581250616E+03 -0.84145245879E+03 -0.30401717814E+03  0.12692666928E+04  0.89940014259E+02 0.  0.
        254    2    1    2    0    0 -0.89581250616E+03  0.84145245879E+03 -0.62649083078E+03  0.16525026142E+04  0.90980868443E+03 0.  0.
        -24    2    4    4    0    0 -0.90508073911E+03  0.95807767308E+03 -0.38914373672E+03  0.13765166592E+04  0.79254609780E+02 0.  0.
         24    2    4    4    0    0  0.92682329542E+01 -0.11662521428E+03 -0.23734709406E+03  0.27598595503E+03  0.78404486894E+02 0.  0.
         11    1    3    3    0    0  0.62718013463E+03 -0.62601329789E+03 -0.24976692054E+03  0.92066882483E+03  0.00000000000E+00 0. -1.
        -11    1    3    3    0    0  0.26863237153E+03 -0.21543916090E+03 -0.54250257598E+02  0.34859786794E+03  0.00000000000E+00 0.  1.
          2    1    6    6  502    0 -0.32210614700E+02 -0.65765009722E+02 -0.14798977137E+03  0.16511672427E+03  0.00000000000E+00 0. -1.
          1    1    5    5  503    0 -0.39175645059E+03  0.46493666049E+03 -0.15921591455E+03  0.62848144149E+03  0.00000000000E+00 0. -1.
         -2    1    5    5    0  503 -0.51332428852E+03  0.49314101259E+03 -0.22992782216E+03  0.74803521768E+03  0.00000000000E+00 0.  1.
         -1    1    6    6    0  502  0.41478847654E+02 -0.50860204562E+02 -0.89357322686E+02  0.11086923076E+03  0.00000000000E+00 0.  1.
<mgrwt>
<rscale>  0 0.27696373E+04</rscale>
<asrwt>0</asrwt>
<pdfrwt beam="1">  1        1 0.29632902E+00 0.27696373E+04</pdfrwt>
<pdfrwt beam="2">  1       -1 0.15317395E+00 0.27696373E+04</pdfrwt>
<totfact> 0.95688789E-01</totfact>
</mgrwt>
</event>
<event>
12    1  0.4612066E-007  0.1643270E+04  0.7818608E-02  0.8794398E-01
         -1   -1    0    0    0  501 -0.00000000000E+00  0.00000000000E+00  0.65655921869E+03  0.65655921869E+03  0.00000000000E+00 0.  1.
          1   -1    0    0  501    0  0.00000000000E+00 -0.00000000000E+00 -0.10282149404E+04  0.10282149404E+04  0.00000000000E+00 0. -1.
         23    2    1    2    0    0 -0.36370753886E+03 -0.43112823321E+03 -0.24687644833E+03  0.62217081507E+03  0.89408137732E+02 0.  0.
        254    2    1    2    0    0  0.36370753886E+03  0.43112823321E+03 -0.12477927336E+03  0.10626033440E+04  0.89185271896E+03 0.  0.
        -24    2    4    4    0    0  0.59033023346E+03  0.99195536353E+02 -0.21900337172E+03  0.64247304346E+03  0.80495936414E+02 0.  0.
         24    2    4    4    0    0 -0.22662269460E+03  0.33193269686E+03  0.94224098359E+02  0.42013030054E+03  0.78064894580E+02 0.  0.
         11    1    3    3    0    0 -0.28822914096E+03 -0.29122191965E+03 -0.20294181334E+03  0.45724350601E+03  0.00000000000E+00 0. -1.
        -11    1    3    3    0    0 -0.75478397897E+02 -0.13990631356E+03 -0.43934634985E+02  0.16492730906E+03  0.00000000000E+00 0.  1.
          4    1    6    6  502    0 -0.16963640593E+03  0.24471951531E+03  0.10420592246E+03  0.31547270193E+03  0.00000000000E+00 0. -1.
          1    1    5    5  503    0  0.55095647014E+03  0.70882037752E+02 -0.20151700946E+03  0.59091996105E+03  0.00000000000E+00 0. -1.
         -2    1    5    5    0  503  0.39373763323E+02  0.28313498602E+02 -0.17486362260E+02  0.51553082414E+02  0.00000000000E+00 0.  1.
         -3    1    6    6    0  502 -0.56986288677E+02  0.87213181550E+02 -0.99818241057E+01  0.10465759861E+03  0.00000000000E+00 0.  1.
<mgrwt>
<rscale>  0 0.16432699E+04</rscale>
<asrwt>0</asrwt>
<pdfrwt beam="1">  1        1 0.15818691E+00 0.16432699E+04</pdfrwt>
<pdfrwt beam="2">  1       -1 0.10100911E+00 0.16432699E+04</pdfrwt>
<totfact> 0.12812449E+01</totfact>
</mgrwt>
</event>
<event>
12    1  0.4612066E-007  0.1593267E+04  0.7818608E-02  0.8824695E-01
         -1   -1    0    0    0  501 -0.00000000000E+00  0.00000000000E+00  0.48200706797E+03  0.48200706797E+03  0.00000000000E+00 0.  1.
          1   -1    0    0  501    0  0.00000000000E+00 -0.00000000000E+00 -0.13166300005E+04  0.13166300005E+04  0.00000000000E+00 0. -1.
         23    2    1    2    0    0 -0.15169103226E+03  0.50946117113E+03 -0.19689712708E+03  0.57555245661E+03  0.99655895439E+02 0.  0.
        254    2    1    2    0    0  0.15169103226E+03 -0.50946117113E+03 -0.63772580544E+03  0.12230846119E+04  0.89815416866E+03 0.  0.
        -24    2    4    4    0    0  0.33657350697E+02 -0.29179344206E+02  0.21526046820E+03  0.23380295979E+03  0.79639835842E+02 0.  0.
         24    2    4    4    0    0  0.11803368157E+03 -0.48028182693E+03 -0.85298627364E+03  0.98928165207E+03  0.80560665559E+02 0.  0.
         13    1    3    3    0    0 -0.52856199788E+02  0.31775015957E+03 -0.87934261589E+02  0.33390324366E+03  0.00000000000E+00 0.  1.
        -13    1    3    3    0    0 -0.98834832477E+02  0.19171101156E+03 -0.10896286549E+03  0.24164921295E+03  0.00000000000E+00 0. -1.
          2    1    6    6  502    0  0.85224062260E+01 -0.37103130292E+01 -0.35601587583E+02  0.36794984292E+02  0.00000000000E+00 0. -1.
          3    1    5    5  503    0 -0.58963587523E+01 -0.40658434952E+02  0.56947126450E+02  0.70220015595E+02  0.00000000000E+00 0. -1.
         -4    1    5    5    0  503  0.39553709450E+02  0.11479090746E+02  0.15831334175E+03  0.16358294419E+03  0.00000000000E+00 0.  1.
         -1    1    6    6    0  502  0.10951127534E+03 -0.47657151390E+03 -0.81738468606E+03  0.95248666778E+03  0.00000000000E+00 0.  1.
<mgrwt>
<rscale>  0 0.15932670E+04</rscale>
<asrwt>0</asrwt>
<pdfrwt beam="1">  1        1 0.20255846E+00 0.15932670E+04</pdfrwt>
<pdfrwt beam="2">  1       -1 0.74154934E-01 0.15932670E+04</pdfrwt>
<totfact> 0.15470340E+01</totfact>
</mgrwt>
</event>
<event>
12    1  0.4612066E-007  0.1268396E+04  0.7818608E-02  0.9055010E-01
          2   -1    0    0  501    0  0.00000000000E+00  0.00000000000E+00  0.12885000601E+04  0.12885000601E+04  0.00000000000E+00 0. -1.
         -2   -1    0    0    0  501 -0.00000000000E+00 -0.00000000000E+00 -0.31215127239E+03  0.31215127239E+03  0.00000000000E+00 0.  1.
         23    2    1    2    0    0  0.12760493971E+03 -0.53473099762E+02  0.62023489697E+03  0.64255890664E+03  0.95122174307E+02 0.  0.
        254    2    1    2    0    0 -0.12760493971E+03  0.53473099762E+02  0.35611389070E+03  0.95809242582E+03  0.87862483474E+03 0.  0.
        -24    2    4    4    0    0  0.34736845890E+03  0.14460361524E+03  0.70428126727E+02  0.39095522147E+03  0.79440621767E+02 0.  0.
         24    2    4    4    0    0 -0.47497339861E+03 -0.91130515476E+02  0.28568576397E+03  0.56713720434E+03  0.78254409320E+02 0.  0.
         11    1    3    3    0    0  0.14377325300E+02 -0.45405338360E+02  0.27631981107E+03  0.28039434770E+03  0.00000000000E+00 0. -1.
        -11    1    3    3    0    0  0.11322761441E+03 -0.80677614020E+01  0.34391508590E+03  0.36216455894E+03  0.00000000000E+00 0.  1.
          2    1    6    6  502    0 -0.47551091964E+03 -0.94706551586E+02  0.27863055530E+03  0.55920922020E+03  0.00000000000E+00 0. -1.
          3    1    5    5  503    0  0.28942021185E+03  0.88705391237E+02  0.42203614485E+02  0.30563679513E+03  0.00000000000E+00 0. -1.
         -4    1    5    5    0  503  0.57948247045E+02  0.55898224001E+02  0.28224512242E+02  0.85318426341E+02  0.00000000000E+00 0.  1.
         -1    1    6    6    0  502  0.53752103423E+00  0.35760361097E+01  0.70552086749E+01  0.79279841427E+01  0.00000000000E+00 0.  1.
<mgrwt>
<rscale>  0 0.12683957E+04</rscale>
<asrwt>0</asrwt>
<pdfrwt beam="1">  1        2 0.19823078E+00 0.12683957E+04</pdfrwt>
<pdfrwt beam="2">  1       -2 0.48023273E-01 0.12683957E+04</pdfrwt>
<totfact> 0.67726595E+01</totfact>
</mgrwt>
</event>
<event>
12    1  0.4612066E-007  0.1846710E+04  0.7818608E-02  0.8681846E-01
         -2   -1    0    0    0  501 -0.00000000000E+00  0.00000000000E+00  0.40469820516E+03  0.40469820516E+03  0.00000000000E+00 0.  1.
          2   -1    0    0  501    0  0.00000000000E+00 -0.00000000000E+00 -0.21067177601E+04  0.21067177601E+04  0.00000000000E+00 0. -1.
         23    2    1    2    0    0 -0.59169387817E+03 -0.24355285380E+03 -0.10384830852E+04  0.12243790790E+04  0.10600647464E+03 0.  0.
        254    2    1    2    0    0  0.59169387817E+03  0.24355285380E+03 -0.66353646972E+03  0.12870368863E+04  0.89820023489E+03 0.  0.
        -24    2    4    4    0    0  0.20142007741E+03  0.11694948440E+03  0.20681009575E+03  0.32151517538E+03  0.79714257253E+02 0.  0.
         24    2    4    4    0    0  0.39027380076E+03  0.12660336939E+03 -0.87034656547E+03  0.96552171090E+03  0.79918567923E+02 0.  0.
         13    1    3    3    0    0 -0.47462605380E+03 -0.17878178682E+03 -0.73821876621E+03  0.89565605286E+03  0.00000000000E+00 0.  1.
        -13    1    3    3    0    0 -0.11706782437E+03 -0.64771066976E+02 -0.30026431900E+03  0.32872302610E+03  0.00000000000E+00 0. -1.
          2    1    6    6  502    0  0.29065975568E+03  0.11873798058E+03 -0.71379642277E+03  0.77979941958E+03  0.00000000000E+00 0. -1.
          3    1    5    5  503    0  0.19916099066E+03  0.10533915683E+03  0.16828140902E+03  0.28121178991E+03  0.00000000000E+00 0. -1.
         -4    1    5    5    0  503  0.22590867524E+01  0.11610327570E+02  0.38528686732E+02  0.40303385472E+02  0.00000000000E+00 0.  1.
         -1    1    6    6    0  502  0.99614045075E+02  0.78653888104E+01 -0.15655014269E+03  0.18572229133E+03  0.00000000000E+00 0.  1.
<mgrwt>
<rscale>  0 0.18467105E+04</rscale>
<asrwt>0</asrwt>
<pdfrwt beam="1">  1        2 0.32411042E+00 0.18467105E+04</pdfrwt>
<pdfrwt beam="2">  1       -2 0.62261262E-01 0.18467105E+04</pdfrwt>
<totfact> 0.13118067E+01</totfact>
</mgrwt>
</event>
<event>
12    1  0.4612066E-007  0.2183855E+04  0.7818608E-02  0.8525178E-01
         -2   -1    0    0    0  501 -0.00000000000E+00  0.00000000000E+00  0.56183581096E+03  0.56183581096E+03  0.00000000000E+00 0.  1.
          2   -1    0    0  501    0  0.00000000000E+00 -0.00000000000E+00 -0.21221611886E+04  0.21221611886E+04  0.00000000000E+00 0. -1.
         23    2    1    2    0    0 -0.32850258782E+03 -0.12463120462E+03  0.37272169380E+03  0.52036868229E+03  0.91734492464E+02 0.  0.
        254    2    1    2    0    0  0.32850258782E+03  0.12463120462E+03 -0.19330470714E+04  0.21636283173E+04  0.90618410246E+03 0.  0.
        -24    2    4    4    0    0  0.45057800848E+03  0.43363400223E+03 -0.12704391785E+04  0.14180368435E+04  0.75853766382E+02 0.  0.
         24    2    4    4    0    0 -0.12207542066E+03 -0.30900279761E+03 -0.66260789297E+03  0.74559147373E+03  0.80450535154E+02 0.  0.
         11    1    3    3    0    0  0.42502545969E+01 -0.59651919809E+01  0.74058312369E+00  0.73618369222E+01  0.00000000000E+00 0. -1.
        -11    1    3    3    0    0 -0.33275284242E+03 -0.11866601264E+03  0.37198111068E+03  0.51300684537E+03  0.00000000000E+00 0.  1.
          4    1    6    6  502    0 -0.12591171260E+03 -0.28096083871E+03 -0.63664337418E+03  0.70718281805E+03  0.00000000000E+00 0. -1.
          1    1    5    5  503    0  0.27833653008E+03  0.30043536561E+03 -0.76603477182E+03  0.86864371552E+03  0.00000000000E+00 0. -1.
         -2    1    5    5    0  503  0.17224147840E+03  0.13319863662E+03 -0.50440440663E+03  0.54939312802E+03  0.00000000000E+00 0.  1.
         -3    1    6    6    0  502  0.38362919434E+01 -0.28041958899E+02 -0.25964518792E+02  0.38408655676E+02  0.00000000000E+00 0.  1.
<mgrwt>
<rscale>  0 0.21838554E+04</rscale>
<asrwt>0</asrwt>
<pdfrwt beam="1">  1        2 0.32648634E+00 0.21838554E+04</pdfrwt>
<pdfrwt beam="2">  1       -2 0.86436278E-01 0.21838554E+04</pdfrwt>
<totfact> 0.60603327E+00</totfact>
</mgrwt>
</event>
<event>
12    1  0.4612066E-007  0.1260058E+04  0.7818608E-02  0.9061854E-01
         -2   -1    0    0    0  501 -0.00000000000E+00  0.00000000000E+00  0.13652528163E+03  0.13652528163E+03  0.00000000000E+00 0.  1.
          2   -1    0    0  501    0  0.00000000000E+00 -0.00000000000E+00 -0.29074193687E+04  0.29074193687E+04  0.00000000000E+00 0. -1.
         23    2    1    2    0    0  0.70293118077E+02 -0.28481482466E+02  0.10679071861E+02  0.11950385286E+03  0.91732278835E+02 0.  0.
        254    2    1    2    0    0 -0.70293118077E+02  0.28481482466E+02 -0.27815731589E+04  0.29244407975E+04  0.89969573867E+03 0.  0.
        -24    2    4    4    0    0  0.48414606003E+02 -0.25616467192E+03 -0.24110293161E+03  0.36392453094E+03  0.79662584545E+02 0.  0.
         24    2    4    4    0    0 -0.11870772408E+03  0.28464615438E+03 -0.25404702273E+04  0.25605162666E+04  0.84496262287E+02 0.  0.
         13    1    3    3    0    0  0.27107588517E+02 -0.52309684254E+01 -0.40243221358E+02  0.48802676680E+02  0.00000000000E+00 0. -1.
        -13    1    3    3    0    0  0.43185529560E+02 -0.23250514041E+02  0.50922293219E+02  0.70701176180E+02  0.00000000000E+00 0.  1.
          4    1    6    6  502    0 -0.89565400350E+02  0.12513220675E+03 -0.10427164506E+04  0.10540102592E+04  0.00000000000E+00 0. -1.
          1    1    5    5  503    0  0.67732311189E+02 -0.16031598614E+03 -0.16743920742E+03  0.24150521645E+03  0.00000000000E+00 0. -1.
         -2    1    5    5    0  503 -0.19317705186E+02 -0.95848685776E+02 -0.73663724191E+02  0.12241931449E+03  0.00000000000E+00 0.  1.
         -3    1    6    6    0  502 -0.29142323730E+02  0.15951394763E+03 -0.14977537768E+04  0.15065060074E+04  0.00000000000E+00 0.  1.
<mgrwt>
<rscale>  0 0.12600575E+04</rscale>
<asrwt>0</asrwt>
<pdfrwt beam="1">  1        2 0.44729527E+00 0.12600575E+04</pdfrwt>
<pdfrwt beam="2">  1       -2 0.21003890E-01 0.12600575E+04</pdfrwt>
<totfact> 0.38728378E+01</totfact>
</mgrwt>
</event>
<event>
12    1  0.4612066E-007  0.1563024E+04  0.7818608E-02  0.8843591E-01
          2   -1    0    0  501    0  0.00000000000E+00  0.00000000000E+00  0.51027020453E+03  0.51027020453E+03  0.00000000000E+00 0. -1.
         -2   -1    0    0    0  501 -0.00000000000E+00 -0.00000000000E+00 -0.11969363237E+04  0.11969363237E+04  0.00000000000E+00 0.  1.
         23    2    1    2    0    0 -0.36221687514E+03 -0.14143685760E+03 -0.58967685308E+03  0.71173715078E+03  0.87438729509E+02 0.  0.
        254    2    1    2    0    0  0.36221687514E+03  0.14143685760E+03 -0.96989266073E+02  0.99546937744E+03  0.91123373202E+03 0.  0.
        -24    2    4    4    0    0  0.25431089399E+02 -0.28940082871E+02 -0.45816187943E+03  0.46668350933E+03  0.79980756515E+02 0.  0.
         24    2    4    4    0    0  0.33678578574E+03  0.17037694047E+03  0.36117261336E+03  0.52878586811E+03  0.81950413992E+02 0.  0.
         13    1    3    3    0    0  0.25317357609E+01  0.49290482630E+01 -0.82722421366E+01  0.99566657426E+01  0.00000000000E+00 0. -1.
        -13    1    3    3    0    0 -0.36474861090E+03 -0.14636590586E+03 -0.58140461095E+03  0.70178048504E+03  0.00000000000E+00 0.  1.
          2    1    6    6  502    0  0.78225612969E+01  0.20461192033E+02  0.38099544871E+02  0.43948016611E+02  0.00000000000E+00 0. -1.
          3    1    5    5  503    0 -0.26161939140E+02  0.48283329635E+01 -0.11617404898E+03  0.11918124649E+03  0.00000000000E+00 0. -1.
         -2    1    5    5    0  503  0.51593028539E+02 -0.33768415835E+02 -0.34198783045E+03  0.34750226284E+03  0.00000000000E+00 0.  1.
         -1    1    6    6    0  502  0.32896322444E+03  0.14991574844E+03  0.32307306849E+03  0.48483785150E+03  0.00000000000E+00 0.  1.
<mgrwt>
<rscale>  0 0.15630239E+04</rscale>
<asrwt>0</asrwt>
<pdfrwt beam="1">  1        2 0.78503109E-01 0.15630239E+04</pdfrwt>
<pdfrwt beam="2">  1       -2 0.18414405E+00 0.15630239E+04</pdfrwt>
<totfact> 0.98099081E+00</totfact>
</mgrwt>
</event>
<event>
12    1  0.4612066E-007  0.1419976E+04  0.7818608E-02  0.8939485E-01
         -1   -1    0    0    0  501 -0.00000000000E+00  0.00000000000E+00  0.54089365800E+03  0.54089365800E+03  0.00000000000E+00 0.  1.
          1   -1    0    0  501    0  0.00000000000E+00 -0.00000000000E+00 -0.93194408093E+03  0.93194408093E+03  0.00000000000E+00 0. -1.
         23    2    1    2    0    0 -0.27283175218E+03 -0.30048062026E+03 -0.23009380092E+03  0.47528574190E+03  0.90706179944E+02 0.  0.
        254    2    1    2    0    0  0.27283175218E+03  0.30048062026E+03 -0.16095662201E+03  0.99755199703E+03  0.89692652122E+03 0.  0.
        -24    2    4    4    0    0  0.50836815058E+03 -0.40848763543E+02  0.61881569002E+02  0.51980805945E+03  0.79147280966E+02 0.  0.
         24    2    4    4    0    0 -0.23553639840E+03  0.34132938380E+03 -0.22283819101E+03  0.47774393758E+03  0.81235874473E+02 0.  0.
         13    1    3    3    0    0 -0.11509198870E+03 -0.12852588465E+03 -0.47369993290E+02  0.17891055071E+03  0.00000000000E+00 0.  1.
        -13    1    3    3    0    0 -0.15773976348E+03 -0.17195473561E+03 -0.18272380763E+03  0.29637519119E+03  0.00000000000E+00 0. -1.
          4    1    6    6  502    0 -0.18442795551E+03  0.25039395610E+03 -0.12642705776E+03  0.33570017123E+03  0.00000000000E+00 0. -1.
          1    1    5    5  503    0  0.10110751550E+03 -0.13219898508E+01 -0.18549654754E+02  0.10280353612E+03  0.00000000000E+00 0. -1.
         -2    1    5    5    0  503  0.40726063508E+03 -0.39526773692E+02  0.80431223757E+02  0.41700452333E+03  0.00000000000E+00 0.  1.
         -3    1    6    6    0  502 -0.51108442887E+02  0.90935427704E+02 -0.96411133246E+02  0.14204376635E+03  0.00000000000E+00 0.  1.
<mgrwt>
<rscale>  0 0.14199756E+04</rscale>
<asrwt>0</asrwt>
<pdfrwt beam="1">  1        1 0.14337601E+00 0.14199756E+04</pdfrwt>
<pdfrwt beam="2">  1       -1 0.83214409E-01 0.14199756E+04</pdfrwt>
<totfact> 0.23924673E+01</totfact>
</mgrwt>
</event>
<event>
12    1  0.4612066E-007  0.1263486E+04  0.7818608E-02  0.9059033E-01
          1   -1    0    0  501    0  0.00000000000E+00  0.00000000000E+00  0.10489105279E+04  0.10489105279E+04  0.00000000000E+00 0. -1.
         -1   -1    0    0    0  501 -0.00000000000E+00 -0.00000000000E+00 -0.38048951636E+03  0.38048951636E+03  0.00000000000E+00 0.  1.
         23    2    1    2    0    0  0.10116427557E+03 -0.22794614012E+03 -0.18029477112E+02  0.26660723186E+03  0.92524054090E+02 0.  0.
        254    2    1    2    0    0 -0.10116427557E+03  0.22794614012E+03  0.68645048867E+03  0.11627928124E+04  0.90480892886E+03 0.  0.
        -24    2    4    4    0    0  0.29516910000E+03 -0.16561486778E+03  0.13103003673E+03  0.37163536328E+03  0.79943046548E+02 0.  0.
         24    2    4    4    0    0 -0.39633337557E+03  0.39356100790E+03  0.55542045195E+03  0.79115744914E+03  0.73944704681E+02 0.  0.
         13    1    3    3    0    0  0.98558544982E+02 -0.16912043674E+03 -0.46516959406E+02  0.20119477236E+03  0.00000000000E+00 0.  1.
        -13    1    3    3    0    0  0.26057305921E+01 -0.58825703380E+02  0.28487482294E+02  0.65412459498E+02  0.00000000000E+00 0. -1.
          4    1    6    6  502    0 -0.10531511044E+03  0.62710176856E+02  0.13003528939E+03  0.17869811207E+03  0.00000000000E+00 0. -1.
          1    1    5    5  503    0  0.11043254922E+03 -0.21358305146E+02  0.55144313862E+02  0.12526939162E+03  0.00000000000E+00 0. -1.
         -2    1    5    5    0  503  0.18473655078E+03 -0.14425656263E+03  0.75885722867E+02  0.24636597166E+03  0.00000000000E+00 0.  1.
         -3    1    6    6    0  502 -0.29101826513E+03  0.33085083105E+03  0.42538516255E+03  0.61245933707E+03  0.00000000000E+00 0.  1.
<mgrwt>
<rscale>  0 0.12634864E+04</rscale>
<asrwt>0</asrwt>
<pdfrwt beam="1">  1        1 0.16137085E+00 0.12634864E+04</pdfrwt>
<pdfrwt beam="2">  1       -1 0.58536849E-01 0.12634864E+04</pdfrwt>
<totfact> 0.40397762E+01</totfact>
</mgrwt>
</event>
<event>
12    1  0.4612066E-007  0.2213429E+04  0.7818608E-02  0.8512859E-01
          2   -1    0    0  501    0  0.00000000000E+00  0.00000000000E+00  0.15679475533E+04  0.15679475533E+04  0.00000000000E+00 0. -1.
         -2   -1    0    0    0  501 -0.00000000000E+00 -0.00000000000E+00 -0.78115933674E+03  0.78115933674E+03  0.00000000000E+00 0.  1.
         23    2    1    2    0    0 -0.79891016218E+03  0.26127210856E+03  0.72153017759E+03  0.11115697569E+04  0.91983505652E+02 0.  0.
        254    2    1    2    0    0  0.79891016218E+03 -0.26127210856E+03  0.65258038978E+02  0.12375371331E+04  0.90593541841E+03 0.  0.
        -24    2    4    4    0    0  0.28101142094E+03 -0.10691635070E+03  0.46492330295E+03  0.56041971495E+03  0.86706715609E+02 0.  0.
         24    2    4    4    0    0  0.51789874124E+03 -0.15435575786E+03 -0.39966526397E+03  0.67711741820E+03  0.81919891620E+02 0.  0.
         11    1    3    3    0    0 -0.76387439761E+03  0.22831241137E+03  0.67473469933E+03  0.10444604191E+04  0.00000000000E+00 0. -1.
        -11    1    3    3    0    0 -0.35035764569E+02  0.32959697190E+02  0.46795478258E+02  0.67109337824E+02  0.00000000000E+00 0.  1.
          4    1    6    6  502    0  0.41534112495E+03 -0.89216538659E+02 -0.31960073840E+03  0.53161308565E+03  0.00000000000E+00 0. -1.
          3    1    5    5  503    0  0.16139036047E+03 -0.50884837437E+02  0.33407670927E+03  0.37449080471E+03  0.00000000000E+00 0. -1.
         -4    1    5    5    0  503  0.11962106047E+03 -0.56031513261E+02  0.13084659368E+03  0.18592891024E+03  0.00000000000E+00 0.  1.
         -3    1    6    6    0  502  0.10255761630E+03 -0.65139219199E+02 -0.80064525566E+02  0.14550433256E+03  0.00000000000E+00 0.  1.
<mgrwt>
<rscale>  0 0.22134289E+04</rscale>
<asrwt>0</asrwt>
<pdfrwt beam="1">  1        2 0.24122270E+00 0.22134289E+04</pdfrwt>
<pdfrwt beam="2">  1       -2 0.12017836E+00 0.22134289E+04</pdfrwt>
<totfact> 0.56151931E+00</totfact>
</mgrwt>
</event>
<event>
12    1  0.4612066E-007  0.1614482E+04  0.7818608E-02  0.8811700E-01
          1   -1    0    0  501    0  0.00000000000E+00  0.00000000000E+00  0.83850628462E+03  0.83850628462E+03  0.00000000000E+00 0. -1.
         -1   -1    0    0    0  501 -0.00000000000E+00 -0.00000000000E+00 -0.77714142756E+03  0.77714142756E+03  0.00000000000E+00 0.  1.
         23    2    1    2    0    0  0.50866558803E+03  0.21339032482E+03  0.63564510384E+02  0.56259915147E+03  0.90560737007E+02 0.  0.
        254    2    1    2    0    0 -0.50866558803E+03 -0.21339032482E+03 -0.21996533311E+01  0.10530485607E+04  0.89701188485E+03 0.  0.
        -24    2    4    4    0    0  0.23152608820E+03 -0.89359470738E+02 -0.12407417821E+03  0.28852138188E+03  0.79124848035E+02 0.  0.
         24    2    4    4    0    0 -0.74019167623E+03 -0.12403085408E+03  0.12187452488E+03  0.76452717882E+03  0.79881393481E+02 0.  0.
         11    1    3    3    0    0  0.37434663593E+03  0.16581946042E+03  0.75705807276E+01  0.40949824295E+03  0.00000000000E+00 0.  1.
        -11    1    3    3    0    0  0.13431895209E+03  0.47570864402E+02  0.55993929656E+02  0.15310090852E+03  0.00000000000E+00 0. -1.
          4    1    6    6  502    0 -0.43690764332E+03 -0.69442720842E+02  0.11134940323E+03  0.45618994932E+03  0.00000000000E+00 0. -1.
          3    1    5    5  503    0  0.24371646403E+02 -0.26206011249E+01  0.10544663099E+02  0.26683976812E+02  0.00000000000E+00 0. -1.
         -4    1    5    5    0  503  0.20715444180E+03 -0.86738869613E+02 -0.13461884131E+03  0.26183740507E+03  0.00000000000E+00 0.  1.
         -3    1    6    6    0  502 -0.30328403291E+03 -0.54588133241E+02  0.10525121658E+02  0.30833722950E+03  0.00000000000E+00 0.  1.
<mgrwt>
<rscale>  0 0.16144819E+04</rscale>
<asrwt>0</asrwt>
<pdfrwt beam="1">  1        1 0.12900097E+00 0.16144819E+04</pdfrwt>
<pdfrwt beam="2">  1       -1 0.11956022E+00 0.16144819E+04</pdfrwt>
<totfact> 0.12265751E+01</totfact>
</mgrwt>
</event>
<event>
12    1  0.4612066E-007  0.1641518E+04  0.7818608E-02  0.8795440E-01
         -2   -1    0    0    0  501 -0.00000000000E+00  0.00000000000E+00  0.81487825519E+03  0.81487825519E+03  0.00000000000E+00 0.  1.
          2   -1    0    0  501    0  0.00000000000E+00 -0.00000000000E+00 -0.82668175532E+03  0.82668175532E+03  0.00000000000E+00 0. -1.
         23    2    1    2    0    0  0.17058993538E+03  0.49838168303E+03  0.24788781535E+03  0.58861924101E+03  0.86827494828E+02 0.  0.
        254    2    1    2    0    0 -0.17058993538E+03 -0.49838168303E+03 -0.25969131548E+03  0.10529407695E+04  0.87393332510E+03 0.  0.
        -24    2    4    4    0    0  0.71301830101E+02  0.34144645350E+02 -0.42513444047E+03  0.43969951116E+03  0.79665298980E+02 0.  0.
         24    2    4    4    0    0 -0.24189176548E+03 -0.53252632838E+03  0.16544312499E+03  0.61324125835E+03  0.81224975867E+02 0.  0.
         11    1    3    3    0    0  0.11291248359E+03  0.38717563955E+03  0.22316167344E+03  0.46092877682E+03  0.00000000000E+00 0.  1.
        -11    1    3    3    0    0  0.57677451782E+02  0.11120604349E+03  0.24726141911E+02  0.12769046419E+03  0.00000000000E+00 0. -1.
          4    1    6    6  502    0 -0.21201589754E+03 -0.41697051135E+03  0.15766426729E+03  0.49363262587E+03  0.00000000000E+00 0. -1.
          3    1    5    5  503    0  0.73564358381E+02  0.16933716943E+02 -0.40930140278E+03  0.41620440160E+03  0.00000000000E+00 0. -1.
         -4    1    5    5    0  503 -0.22625282801E+01  0.17210928407E+02 -0.15833037687E+02  0.23495109561E+02  0.00000000000E+00 0.  1.
         -3    1    6    6    0  502 -0.29875867936E+02 -0.11555581703E+03  0.77788577002E+01  0.11960863247E+03  0.00000000000E+00 0.  1.
<mgrwt>
<rscale>  0 0.16415176E+04</rscale>
<asrwt>0</asrwt>
<pdfrwt beam="1">  1        2 0.12718181E+00 0.16415176E+04</pdfrwt>
<pdfrwt beam="2">  1       -2 0.12536589E+00 0.16415176E+04</pdfrwt>
<totfact> 0.14995300E+01</totfact>
</mgrwt>
</event>
<event>
12    1  0.4612066E-007  0.3276099E+04  0.7818608E-02  0.8169004E-01
         -1   -1    0    0    0  501 -0.00000000000E+00  0.00000000000E+00  0.12859422823E+04  0.12859422823E+04  0.00000000000E+00 0.  1.
          1   -1    0    0  501    0  0.00000000000E+00 -0.00000000000E+00 -0.20865684647E+04  0.20865684647E+04  0.00000000000E+00 0. -1.
         23    2    1    2    0    0 -0.14488157126E+04 -0.48382557582E+03 -0.40180872305E+03  0.15822336497E+04  0.94121810968E+02 0.  0.
        254    2    1    2    0    0  0.14488157126E+04  0.48382557582E+03 -0.39881745934E+03  0.17902770973E+04  0.84432373075E+03 0.  0.
        -24    2    4    4    0    0  0.93226050283E+03 -0.15842792152E+02  0.53567609781E+02  0.93731666568E+03  0.79576401995E+02 0.  0.
         24    2    4    4    0    0  0.51655520982E+03  0.49966836797E+03 -0.45238506912E+03  0.85296043164E+03  0.79946760043E+02 0.  0.
         11    1    3    3    0    0 -0.49507453175E+03 -0.14010511897E+03 -0.96675990545E+02  0.52352123500E+03  0.00000000000E+00 0.  1.
        -11    1    3    3    0    0 -0.95374118090E+03 -0.34372045685E+03 -0.30513273250E+03  0.10587124147E+04  0.00000000000E+00 0. -1.
          2    1    6    6  502    0  0.22109643780E+03  0.19020099730E+03 -0.22552876886E+03  0.36867774515E+03  0.00000000000E+00 0. -1.
          1    1    5    5  503    0  0.87370738644E+03 -0.14034507828E+01  0.64261834757E+02  0.87606857619E+03  0.00000000000E+00 0. -1.
         -2    1    5    5    0  503  0.58553116390E+02 -0.14439341369E+02 -0.10694224976E+02  0.61248089489E+02  0.00000000000E+00 0.  1.
         -1    1    6    6    0  502  0.29545877202E+03  0.30946737067E+03 -0.22685630026E+03  0.48428268650E+03  0.00000000000E+00 0.  1.
<mgrwt>
<rscale>  0 0.32760993E+04</rscale>
<asrwt>0</asrwt>
<pdfrwt beam="1">  1        1 0.32101053E+00 0.32760993E+04</pdfrwt>
<pdfrwt beam="2">  1       -1 0.19783728E+00 0.32760993E+04</pdfrwt>
<totfact> 0.33703966E-01</totfact>
</mgrwt>
</event>
<event>
12    1  0.4612066E-007  0.1576480E+04  0.7818608E-02  0.8835129E-01
         -1   -1    0    0    0  501 -0.00000000000E+00  0.00000000000E+00  0.26952422650E+03  0.26952422650E+03  0.00000000000E+00 0.  1.
          1   -1    0    0  501    0  0.00000000000E+00 -0.00000000000E+00 -0.23052544031E+04  0.23052544031E+04  0.00000000000E+00 0. -1.
         23    2    1    2    0    0  0.44000017986E+03 -0.24370329504E+03 -0.43371508206E+03  0.66924673779E+03  0.82407337899E+02 0.  0.
        254    2    1    2    0    0 -0.44000017986E+03  0.24370329504E+03 -0.16020150945E+04  0.19055318918E+04  0.90089287559E+03 0.  0.
        -24    2    4    4    0    0  0.92635361211E+02  0.12488357584E+03  0.34286061591E+02  0.17878156822E+03  0.81302505823E+02 0.  0.
         24    2    4    4    0    0 -0.53263554108E+03  0.11881971920E+03 -0.16363011561E+04  0.17267503236E+04  0.79790107214E+02 0.  0.
         13    1    3    3    0    0  0.40760122364E+03 -0.19978994502E+03 -0.37221401591E+03  0.58702474674E+03  0.00000000000E+00 0.  1.
        -13    1    3    3    0    0  0.32398956226E+02 -0.43913350028E+02 -0.61501066146E+02  0.82221991050E+02  0.00000000000E+00 0. -1.
          2    1    6    6  502    0 -0.75927879125E+02 -0.11672979281E+01 -0.16747951546E+03  0.18389071078E+03  0.00000000000E+00 0. -1.
          1    1    5    5  503    0 -0.40022603522E+01 -0.14868442705E+00  0.19679568503E+02  0.20082968193E+02  0.00000000000E+00 0. -1.
         -4    1    5    5    0  503  0.96637621563E+02  0.12503226027E+03  0.14606493089E+02  0.15869860002E+03  0.00000000000E+00 0.  1.
         -1    1    6    6    0  502 -0.45670766195E+03  0.11998701713E+03 -0.14688216407E+04  0.15428596128E+04  0.00000000000E+00 0.  1.
<mgrwt>
<rscale>  0 0.15764795E+04</rscale>
<asrwt>0</asrwt>
<pdfrwt beam="1">  1        1 0.35465453E+00 0.15764795E+04</pdfrwt>
<pdfrwt beam="2">  1       -1 0.41465265E-01 0.15764795E+04</pdfrwt>
<totfact> 0.10130010E+01</totfact>
</mgrwt>
</event>
<event>
12    1  0.4612066E-007  0.1907536E+04  0.7818608E-02  0.8651114E-01
         -2   -1    0    0    0  501 -0.00000000000E+00  0.00000000000E+00  0.81165099855E+03  0.81165099855E+03  0.00000000000E+00 0.  1.
          2   -1    0    0  501    0  0.00000000000E+00 -0.00000000000E+00 -0.11207695402E+04  0.11207695402E+04  0.00000000000E+00 0. -1.
         23    2    1    2    0    0  0.20468118310E+03 -0.89569759456E+01  0.59689330954E+03  0.63774098659E+03  0.91963736687E+02 0.  0.
        254    2    1    2    0    0 -0.20468118310E+03  0.89569759456E+01 -0.90601185115E+03  0.12946795521E+04  0.90186642808E+03 0.  0.
        -24    2    4    4    0    0  0.30794051869E+03  0.89636404960E+02 -0.60740865687E+03  0.69107348733E+03  0.75995001804E+02 0.  0.
         24    2    4    4    0    0 -0.51262170179E+03 -0.80679429015E+02 -0.29860319428E+03  0.60360606479E+03  0.76721798682E+02 0.  0.
         13    1    3    3    0    0 -0.48878597158E+01  0.33724129898E+01  0.10937321849E+01  0.60382606823E+01  0.00000000000E+00 0. -1.
        -13    1    3    3    0    0  0.20956904282E+03 -0.12329388935E+02  0.59579957736E+03  0.63170272591E+03  0.00000000000E+00 0.  1.
          4    1    6    6  502    0 -0.32266602349E+03 -0.53556274693E+02 -0.22990203350E+03  0.39979567567E+03  0.00000000000E+00 0. -1.
          3    1    5    5  503    0  0.16141338078E+03  0.75824686443E+02 -0.27804140344E+03  0.33031906483E+03  0.00000000000E+00 0. -1.
         -4    1    5    5    0  503  0.14652713792E+03  0.13811718517E+02 -0.32936725343E+03  0.36075442249E+03  0.00000000000E+00 0.  1.
         -3    1    6    6    0  502 -0.18995567830E+03 -0.27123154322E+02 -0.68701160785E+02  0.20381038912E+03  0.00000000000E+00 0.  1.
<mgrwt>
<rscale>  0 0.19075363E+04</rscale>
<asrwt>0</asrwt>
<pdfrwt beam="1">  1        2 0.17242608E+00 0.19075363E+04</pdfrwt>
<pdfrwt beam="2">  1       -2 0.12486938E+00 0.19075363E+04</pdfrwt>
<totfact> 0.95198476E+00</totfact>
</mgrwt>
</event>
<event>
12    1  0.4612066E-007  0.1701816E+04  0.7818608E-02  0.8760329E-01
         -2   -1    0    0    0  501 -0.00000000000E+00  0.00000000000E+00  0.42722357900E+03  0.42722357900E+03  0.00000000000E+00 0.  1.
          2   -1    0    0  501    0  0.00000000000E+00 -0.00000000000E+00 -0.16947669165E+04  0.16947669165E+04  0.00000000000E+00 0. -1.
         23    2    1    2    0    0  0.40278030192E+03 -0.33325228625E+03 -0.49348614814E+02  0.53854702593E+03  0.11961837420E+03 0.  0.
        254    2    1    2    0    0 -0.40278030192E+03  0.33325228625E+03 -0.12181947227E+04  0.15834434696E+04  0.86602874149E+03 0.  0.
        -24    2    4    4    0    0  0.14478605288E+03  0.15677764906E+03  0.95612511022E+01  0.22506308029E+03  0.70850125152E+02 0.  0.
         24    2    4    4    0    0 -0.54756635479E+03  0.17647463719E+03 -0.12277559738E+04  0.13583803893E+04  0.82706350200E+02 0.  0.
         13    1    3    3    0    0  0.26079801911E+03 -0.19136134587E+03  0.25127056887E+02  0.32444743866E+03  0.00000000000E+00 0.  1.
        -13    1    3    3    0    0  0.14198228281E+03 -0.14189094038E+03 -0.74475671701E+02  0.21409958727E+03  0.00000000000E+00 0. -1.
          4    1    6    6  502    0 -0.26882663546E+03  0.63356520254E+02 -0.50656080948E+03  0.57696244444E+03  0.00000000000E+00 0. -1.
          1    1    5    5  503    0  0.13802785530E+03  0.13481341173E+03  0.28817306855E+02  0.19508147528E+03  0.00000000000E+00 0. -1.
         -2    1    5    5    0  503  0.67581975734E+01  0.21964237332E+02 -0.19256055753E+02  0.29981605014E+02  0.00000000000E+00 0.  1.
         -3    1    6    6    0  502 -0.27873971933E+03  0.11311811693E+03 -0.72119516435E+03  0.78141794489E+03  0.00000000000E+00 0.  1.
<mgrwt>
<rscale>  0 0.17018160E+04</rscale>
<asrwt>0</asrwt>
<pdfrwt beam="1">  1        2 0.26073338E+00 0.17018160E+04</pdfrwt>
<pdfrwt beam="2">  1       -2 0.65726703E-01 0.17018160E+04</pdfrwt>
<totfact> 0.20019173E+01</totfact>
</mgrwt>
</event>
<event>
12    1  0.4612066E-007  0.2462175E+04  0.7818608E-02  0.8416586E-01
          1   -1    0    0  501    0  0.00000000000E+00  0.00000000000E+00  0.23955502434E+04  0.23955502434E+04  0.00000000000E+00 0. -1.
         -1   -1    0    0    0  501 -0.00000000000E+00 -0.00000000000E+00 -0.63266309211E+03  0.63266309211E+03  0.00000000000E+00 0.  1.
         23    2    1    2    0    0  0.19015123466E+02  0.41371614407E+03 -0.44368608259E+03  0.61380560024E+03  0.91527876689E+02 0.  0.
        254    2    1    2    0    0 -0.19015123466E+02 -0.41371614407E+03  0.22065732338E+04  0.24144077352E+04  0.88818728480E+03 0.  0.
        -24    2    4    4    0    0 -0.22251285002E+03 -0.62219327801E+03  0.16802759778E+04  0.18076730254E+04  0.87851929328E+02 0.  0.
         24    2    4    4    0    0  0.20349772655E+03  0.20847713393E+03  0.52629725606E+03  0.60673470988E+03  0.79146486625E+02 0.  0.
         11    1    3    3    0    0  0.15874188204E+02  0.27673239932E+02 -0.68053002301E+02  0.75159890777E+02  0.00000000000E+00 0.  1.
        -11    1    3    3    0    0  0.31409352619E+01  0.38604290414E+03 -0.37563308029E+03  0.53864570946E+03  0.00000000000E+00 0. -1.
          4    1    6    6  502    0  0.12711364047E+03  0.17881209905E+03  0.39917112078E+03  0.45548790107E+03  0.00000000000E+00 0. -1.
          1    1    5    5  503    0 -0.43187167770E+02 -0.23385927818E+03  0.55262391760E+03  0.60162154862E+03  0.00000000000E+00 0. -1.
         -2    1    5    5    0  503 -0.17932568225E+03 -0.38833399983E+03  0.11276520602E+04  0.12060514767E+04  0.00000000000E+00 0.  1.
         -3    1    6    6    0  502  0.76384086076E+02  0.29665034880E+02  0.12712613529E+03  0.15124680880E+03  0.00000000000E+00 0.  1.
<mgrwt>
<rscale>  0 0.24621748E+04</rscale>
<asrwt>0</asrwt>
<pdfrwt beam="1">  1        1 0.36854619E+00 0.24621748E+04</pdfrwt>
<pdfrwt beam="2">  1       -1 0.97332785E-01 0.24621748E+04</pdfrwt>
<totfact> 0.14451493E+00</totfact>
</mgrwt>
</event>
<event>
12    1  0.4612066E-007  0.4197859E+04  0.7818608E-02  0.7965780E-01
         -2   -1    0    0    0  501 -0.00000000000E+00  0.00000000000E+00  0.14315159461E+04  0.14315159461E+04  0.00000000000E+00 0.  1.
          2   -1    0    0  501    0  0.00000000000E+00 -0.00000000000E+00 -0.30775103964E+04  0.30775103964E+04  0.00000000000E+00 0. -1.
         23    2    1    2    0    0 -0.48897694006E+03  0.90400692997E+03  0.10591092241E+04  0.14787987632E+04  0.93842719634E+02 0.  0.
        254    2    1    2    0    0  0.48897694006E+03 -0.90400692997E+03 -0.27051036744E+04  0.30302275793E+04  0.89909193935E+03 0.  0.
        -24    2    4    4    0    0  0.23404198529E+03 -0.73152412259E+03 -0.85135411572E+03  0.11493189325E+04  0.78911250069E+02 0.  0.
         24    2    4    4    0    0  0.25493495477E+03 -0.17248280738E+03 -0.18537495587E+04  0.18809086468E+04  0.81778732892E+02 0.  0.
         11    1    3    3    0    0 -0.32553843915E+02  0.10536008458E+03  0.87032085462E+02  0.14048161473E+03  0.00000000000E+00 0. -1.
        -11    1    3    3    0    0 -0.45642309614E+03  0.79864684538E+03  0.97207713866E+03  0.13383171485E+04  0.00000000000E+00 0.  1.
          4    1    6    6  502    0  0.17604641680E+03 -0.15980140650E+03 -0.13264748152E+04  0.13476142867E+04  0.00000000000E+00 0. -1.
          3    1    5    5  503    0  0.21158774724E+03 -0.59558245688E+03 -0.66362438356E+03  0.91645248659E+03  0.00000000000E+00 0. -1.
         -4    1    5    5    0  503  0.22454238050E+02 -0.13594166571E+03 -0.18772973215E+03  0.23286644588E+03  0.00000000000E+00 0.  1.
         -3    1    6    6    0  502  0.78888537963E+02 -0.12681400887E+02 -0.52727474352E+03  0.53329436009E+03  0.00000000000E+00 0.  1.
<mgrwt>
<rscale>  0 0.41978591E+04</rscale>
<asrwt>0</asrwt>
<pdfrwt beam="1">  1        2 0.47346314E+00 0.41978591E+04</pdfrwt>
<pdfrwt beam="2">  1       -2 0.22023322E+00 0.41978591E+04</pdfrwt>
<totfact> 0.11886497E-01</totfact>
</mgrwt>
</event>
<event>
12    1  0.4612066E-007  0.1594467E+04  0.7818608E-02  0.8823955E-01
         -1   -1    0    0    0  501 -0.00000000000E+00  0.00000000000E+00  0.37903150888E+03  0.37903150888E+03  0.00000000000E+00 0.  1.
          1   -1    0    0  501    0  0.00000000000E+00 -0.00000000000E+00 -0.16768549856E+04  0.16768549856E+04  0.00000000000E+00 0. -1.
         23    2    1    2    0    0 -0.28253303105E+03 -0.41284655747E+03 -0.32720114900E+03  0.60483789523E+03  0.92201377150E+02 0.  0.
        254    2    1    2    0    0  0.28253303105E+03  0.41284655747E+03 -0.97062232768E+03  0.14510485992E+04  0.95559779229E+03 0.  0.
        -24    2    4    4    0    0  0.36523170233E+02 -0.26019350275E+03 -0.55400397451E+03  0.61822691847E+03  0.79053893718E+02 0.  0.
         24    2    4    4    0    0  0.24600986082E+03  0.67304006022E+03 -0.41661835317E+03  0.83282168074E+03  0.80729953695E+02 0.  0.
         13    1    3    3    0    0 -0.21703427252E+03 -0.37425319180E+03 -0.27561787621E+03  0.51296641284E+03  0.00000000000E+00 0. -1.
        -13    1    3    3    0    0 -0.65498758539E+02 -0.38593365662E+02 -0.51583272799E+02  0.91871482387E+02  0.00000000000E+00 0.  1.
          2    1    6    6  502    0  0.31425509058E+02  0.58849041314E+02 -0.15437973459E+02  0.68477027591E+02  0.00000000000E+00 0. -1.
          1    1    5    5  503    0  0.23024926496E+01  0.57507482505E+01 -0.10880431531E+02  0.12520238342E+02  0.00000000000E+00 0. -1.
         -2    1    5    5    0  503  0.34220677584E+02 -0.26594425100E+03 -0.54312354297E+03  0.60570668013E+03  0.00000000000E+00 0.  1.
         -1    1    6    6    0  502  0.21458435176E+03  0.61419101891E+03 -0.40118037971E+03  0.76434465315E+03  0.00000000000E+00 0.  1.
<mgrwt>
<rscale>  0 0.15944665E+04</rscale>
<asrwt>0</asrwt>
<pdfrwt beam="1">  1        1 0.25797769E+00 0.15944665E+04</pdfrwt>
<pdfrwt beam="2">  1       -1 0.58312539E-01 0.15944665E+04</pdfrwt>
<totfact> 0.14139172E+01</totfact>
</mgrwt>
</event>
<event>
12    1  0.4612066E-007  0.1447842E+04  0.7818608E-02  0.8919898E-01
         -1   -1    0    0    0  501 -0.00000000000E+00  0.00000000000E+00  0.36348491403E+03  0.36348491403E+03  0.00000000000E+00 0.  1.
          1   -1    0    0  501    0  0.00000000000E+00 -0.00000000000E+00 -0.14417707982E+04  0.14417707982E+04  0.00000000000E+00 0. -1.
         23    2    1    2    0    0  0.34710946998E+03  0.93909938238E+02 -0.66341890040E+03  0.76091921361E+03  0.97823062581E+02 0.  0.
        254    2    1    2    0    0 -0.34710946998E+03 -0.93909938238E+02 -0.41486698378E+03  0.10443364986E+04  0.88838057582E+03 0.  0.
        -24    2    4    4    0    0 -0.27625837929E+03 -0.42714976297E+03 -0.46307376500E+03  0.69286144083E+03  0.82728787093E+02 0.  0.
         24    2    4    4    0    0 -0.70851090689E+02  0.33323982473E+03  0.48206781223E+02  0.35147505781E+03  0.71708888333E+02 0.  0.
         11    1    3    3    0    0  0.10130729228E+03  0.23418434885E+02 -0.29222346881E+03  0.31017115643E+03  0.00000000000E+00 0. -1.
        -11    1    3    3    0    0  0.24580217770E+03  0.70491503353E+02 -0.37119543160E+03  0.45074805717E+03  0.00000000000E+00 0.  1.
          4    1    6    6  502    0 -0.21303455781E+02  0.15373031205E+03 -0.12258147485E+02  0.15568271661E+03  0.00000000000E+00 0. -1.
          3    1    5    5  503    0 -0.27632790180E+02 -0.36541138138E+02 -0.14168354375E+02  0.47953812520E+02  0.00000000000E+00 0. -1.
         -4    1    5    5    0  503 -0.24862558911E+03 -0.39060862483E+03 -0.44890541063E+03  0.64490762831E+03  0.00000000000E+00 0.  1.
         -3    1    6    6    0  502 -0.49547634908E+02  0.17950951269E+03  0.60464928708E+02  0.19579234120E+03  0.00000000000E+00 0.  1.
<mgrwt>
<rscale>  0 0.14478424E+04</rscale>
<asrwt>0</asrwt>
<pdfrwt beam="1">  1        1 0.22181089E+00 0.14478424E+04</pdfrwt>
<pdfrwt beam="2">  1       -1 0.55920756E-01 0.14478424E+04</pdfrwt>
<totfact> 0.22565882E+01</totfact>
</mgrwt>
</event>
<event>
12    1  0.4612066E-007  0.2348152E+04  0.7818608E-02  0.8459174E-01
         -2   -1    0    0    0  501 -0.00000000000E+00  0.00000000000E+00  0.80590438236E+03  0.80590438236E+03  0.00000000000E+00 0.  1.
          2   -1    0    0  501    0  0.00000000000E+00 -0.00000000000E+00 -0.17104438698E+04  0.17104438698E+04  0.00000000000E+00 0. -1.
         23    2    1    2    0    0  0.21722893343E+03 -0.96426444270E+03 -0.22387300089E+03  0.10171834139E+04  0.86882978419E+02 0.  0.
        254    2    1    2    0    0 -0.21722893343E+03  0.96426444270E+03 -0.68066648660E+03  0.14991648383E+04  0.89843977070E+03 0.  0.
        -24    2    4    4    0    0 -0.23327508233E+03  0.10334600947E+04 -0.80683038958E+03  0.13340784747E+04  0.79580574308E+02 0.  0.
         24    2    4    4    0    0  0.16046148895E+02 -0.69195651997E+02  0.12616390298E+03  0.16508636362E+03  0.79313680339E+02 0.  0.
         13    1    3    3    0    0  0.89293153216E+02 -0.40381523107E+03 -0.13771926557E+03  0.43589746979E+03  0.00000000000E+00 0. -1.
        -13    1    3    3    0    0  0.12793578022E+03 -0.56044921163E+03 -0.86153735322E+02  0.58128594408E+03  0.00000000000E+00 0.  1.
          2    1    6    6  502    0  0.59040813290E+01  0.17301302612E+02  0.31771236604E+02  0.36655214141E+02  0.00000000000E+00 0. -1.
          1    1    5    5  503    0 -0.54811700751E+01  0.13404499861E+03 -0.88936224850E+02  0.16095886732E+03  0.00000000000E+00 0. -1.
         -2    1    5    5    0  503 -0.22779391225E+03  0.89941509609E+03 -0.71789416473E+03  0.11731196074E+04  0.00000000000E+00 0.  1.
         -3    1    6    6    0  502  0.10142067566E+02 -0.86496954608E+02  0.94392666376E+02  0.12843114948E+03  0.00000000000E+00 0.  1.
<mgrwt>
<rscale>  0 0.23481518E+04</rscale>
<asrwt>0</asrwt>
<pdfrwt beam="1">  1        2 0.26314521E+00 0.23481518E+04</pdfrwt>
<pdfrwt beam="2">  1       -2 0.12398529E+00 0.23481518E+04</pdfrwt>
<totfact> 0.42770198E+00</totfact>
</mgrwt>
</event>
<event>
12    1  0.4612066E-007  0.1265554E+04  0.7818608E-02  0.9057336E-01
          2   -1    0    0  501    0  0.00000000000E+00  0.00000000000E+00  0.16277825671E+04  0.16277825671E+04  0.00000000000E+00 0. -1.
         -2   -1    0    0    0  501 -0.00000000000E+00 -0.00000000000E+00 -0.24598290187E+03  0.24598290187E+03  0.00000000000E+00 0.  1.
         23    2    1    2    0    0  0.49773698744E+02  0.17750259446E+03  0.60967209618E+03  0.64551577572E+03  0.10490929278E+03 0.  0.
        254    2    1    2    0    0 -0.49773698744E+02 -0.17750259446E+03  0.77212756906E+03  0.12282496933E+04  0.93724689063E+03 0.  0.
        -24    2    4    4    0    0  0.28067543305E+02 -0.47245449708E+03  0.77628021151E+03  0.91296515809E+03  0.83026347070E+02 0.  0.
         24    2    4    4    0    0 -0.77841242049E+02  0.29495190262E+03 -0.41526424510E+01  0.31528453518E+03  0.79568900070E+02 0.  0.
         11    1    3    3    0    0  0.67941418778E+02  0.16969784444E+03  0.58982251497E+03  0.61749817325E+03  0.00000000000E+00 0.  1.
        -11    1    3    3    0    0 -0.18167720034E+02  0.78047500181E+01  0.19849581209E+02  0.28017602471E+02  0.00000000000E+00 0. -1.
          2    1    6    6  502    0 -0.56557650610E+02  0.26467966792E+03 -0.26671569911E+02  0.27196593002E+03  0.00000000000E+00 0. -1.
          1    1    5    5  503    0 -0.10150796136E+02 -0.33497519292E+03  0.58693354067E+03  0.67587158521E+03  0.00000000000E+00 0. -1.
         -4    1    5    5    0  503  0.38218339441E+02 -0.13747930416E+03  0.18934667084E+03  0.23709357288E+03  0.00000000000E+00 0.  1.
         -1    1    6    6    0  502 -0.21283591439E+02  0.30272234703E+02  0.22518927460E+02  0.43318605153E+02  0.00000000000E+00 0.  1.
<mgrwt>
<rscale>  0 0.12655539E+04</rscale>
<asrwt>0</asrwt>
<pdfrwt beam="1">  1        2 0.25042808E+00 0.12655539E+04</pdfrwt>
<pdfrwt beam="2">  1       -2 0.37843524E-01 0.12655539E+04</pdfrwt>
<totfact> 0.69637883E+01</totfact>
</mgrwt>
</event>
<event>
12    1  0.4612066E-007  0.2846728E+04  0.7818608E-02  0.8288906E-01
          2   -1    0    0  501    0  0.00000000000E+00  0.00000000000E+00  0.19640462490E+04  0.19640462490E+04  0.00000000000E+00 0. -1.
         -2   -1    0    0    0  501 -0.00000000000E+00 -0.00000000000E+00 -0.10315262440E+04  0.10315262440E+04  0.00000000000E+00 0.  1.
         23    2    1    2    0    0  0.85225093578E+03  0.78666417777E+03 -0.13853031263E+03  0.11714583092E+04  0.89172510014E+02 0.  0.
        254    2    1    2    0    0 -0.85225093578E+03 -0.78666417777E+03  0.10710503177E+04  0.18241141838E+04  0.91382251368E+03 0.  0.
        -24    2    4    4    0    0 -0.58489544117E+03 -0.96676153954E+03  0.72452348725E+03  0.13446111248E+04  0.79462204340E+02 0.  0.
         24    2    4    4    0    0 -0.26735549461E+03  0.18009736176E+03  0.34652683042E+03  0.47950305902E+03  0.76995579093E+02 0.  0.
         11    1    3    3    0    0  0.29407427255E+03  0.27076443943E+03 -0.90561951011E+02  0.40987135348E+03  0.00000000000E+00 0.  1.
        -11    1    3    3    0    0  0.55817666323E+03  0.51589973835E+03 -0.47968361615E+02  0.76158695572E+03  0.00000000000E+00 0. -1.
          4    1    6    6  502    0 -0.13997416503E+03  0.48597053431E+02  0.14729204591E+03  0.20892435776E+03  0.00000000000E+00 0. -1.
          3    1    5    5  503    0 -0.45631239949E+03 -0.81252304563E+03  0.59925602099E+03  0.11079361373E+04  0.00000000000E+00 0. -1.
         -4    1    5    5    0  503 -0.12858304168E+03 -0.15423849391E+03  0.12526746626E+03  0.23667498751E+03  0.00000000000E+00 0.  1.
         -3    1    6    6    0  502 -0.12738132958E+03  0.13150030833E+03  0.19923478451E+03  0.27057870126E+03  0.00000000000E+00 0.  1.
<mgrwt>
<rscale>  0 0.28467281E+04</rscale>
<asrwt>0</asrwt>
<pdfrwt beam="1">  1        2 0.30216096E+00 0.28467281E+04</pdfrwt>
<pdfrwt beam="2">  1       -2 0.15869635E+00 0.28467281E+04</pdfrwt>
<totfact> 0.15621332E+00</totfact>
</mgrwt>
</event>
<event>
12    1  0.4612066E-007  0.2751559E+04  0.7818608E-02  0.8318467E-01
         -1   -1    0    0    0  501 -0.00000000000E+00  0.00000000000E+00  0.34207131187E+04  0.34207131187E+04  0.00000000000E+00 0.  1.
          1   -1    0    0  501    0  0.00000000000E+00 -0.00000000000E+00 -0.55332594500E+03  0.55332594500E+03  0.00000000000E+00 0. -1.
         23    2    1    2    0    0  0.92329923014E+02 -0.11349899748E+04  0.64321339925E+03  0.13109827254E+04  0.90692732848E+02 0.  0.
        254    2    1    2    0    0 -0.92329923014E+02  0.11349899748E+04  0.22241737744E+04  0.26630563383E+04  0.92097395430E+03 0.  0.
        -24    2    4    4    0    0  0.40924614621E+03  0.47796587692E+03  0.97061218609E+03  0.11594397135E+04  0.79237905798E+02 0.  0.
         24    2    4    4    0    0 -0.50157606923E+03  0.65702409784E+03  0.12535615883E+04  0.15036166248E+04  0.78657995459E+02 0.  0.
         11    1    3    3    0    0 -0.80477812626E+01 -0.37355233052E+02  0.87408003498E+01  0.39199257778E+02  0.00000000000E+00 0. -1.
        -11    1    3    3    0    0  0.10037770428E+03 -0.10976347417E+04  0.63447259890E+03  0.12717834676E+04  0.00000000000E+00 0.  1.
          4    1    6    6  502    0 -0.14191962679E+03  0.24739357845E+03  0.42826502926E+03  0.51454416566E+03  0.00000000000E+00 0. -1.
          3    1    5    5  503    0  0.17002608560E+02  0.17164626832E+01  0.30152116184E+02  0.34658116689E+02  0.00000000000E+00 0. -1.
         -4    1    5    5    0  503  0.39224353765E+03  0.47624941424E+03  0.94046006991E+03  0.11247815968E+04  0.00000000000E+00 0.  1.
         -3    1    6    6    0  502 -0.35965644244E+03  0.40963051939E+03  0.82529655908E+03  0.98907245914E+03  0.00000000000E+00 0.  1.
<mgrwt>
<rscale>  0 0.27515591E+04</rscale>
<asrwt>0</asrwt>
<pdfrwt beam="1">  1        1 0.85127071E-01 0.27515591E+04</pdfrwt>
<pdfrwt beam="2">  1       -1 0.52626354E+00 0.27515591E+04</pdfrwt>
<totfact> 0.33991669E-02</totfact>
</mgrwt>
</event>
<event>
12    1  0.4612066E-007  0.2087808E+04  0.7818608E-02  0.8566633E-01
          1   -1    0    0  501    0  0.00000000000E+00  0.00000000000E+00  0.14654846815E+04  0.14654846815E+04  0.00000000000E+00 0. -1.
         -1   -1    0    0    0  501 -0.00000000000E+00 -0.00000000000E+00 -0.74360106688E+03  0.74360106688E+03  0.00000000000E+00 0.  1.
         23    2    1    2    0    0  0.49885281327E+03 -0.52599238879E+03  0.78551520959E+03  0.10729279060E+04  0.92833316533E+02 0.  0.
        254    2    1    2    0    0 -0.49885281327E+03  0.52599238879E+03 -0.63631594957E+02  0.11361578424E+04  0.87251563913E+03 0.  0.
        -24    2    4    4    0    0 -0.25605866657E+03  0.16764788510E+03  0.39103659328E+03  0.50328000360E+03  0.81910259637E+02 0.  0.
         24    2    4    4    0    0 -0.24279414671E+03  0.35834450369E+03 -0.45466818824E+03  0.63287783878E+03  0.80320709777E+02 0.  0.
         11    1    3    3    0    0  0.18348366734E+03 -0.17360899562E+03  0.33703002046E+03  0.42118353984E+03  0.00000000000E+00 0. -1.
        -11    1    3    3    0    0  0.31536914593E+03 -0.35238339317E+03  0.44848518914E+03  0.65174436619E+03  0.00000000000E+00 0.  1.
          2    1    6    6  502    0 -0.98320667950E+02  0.20328541101E+03 -0.26806802756E+03  0.35050303775E+03  0.00000000000E+00 0. -1.
          3    1    5    5  503    0 -0.31802606070E+02  0.42444463793E+02  0.32367929996E+02  0.62133896962E+02  0.00000000000E+00 0. -1.
         -4    1    5    5    0  503 -0.22425606050E+03  0.12520342131E+03  0.35866866328E+03  0.44114610663E+03  0.00000000000E+00 0.  1.
         -1    1    6    6    0  502 -0.14447347876E+03  0.15505909268E+03 -0.18660016067E+03  0.28237480102E+03  0.00000000000E+00 0.  1.
<mgrwt>
<rscale>  0 0.20878084E+04</rscale>
<asrwt>0</asrwt>
<pdfrwt beam="1">  1        1 0.22545918E+00 0.20878084E+04</pdfrwt>
<pdfrwt beam="2">  1       -1 0.11440016E+00 0.20878084E+04</pdfrwt>
<totfact> 0.44239892E+00</totfact>
</mgrwt>
</event>
<event>
12    1  0.4612066E-007  0.1161246E+04  0.7818608E-02  0.9147471E-01
          4   -1    0    0  501    0  0.00000000000E+00  0.00000000000E+00  0.50116281134E+03  0.50116281134E+03  0.00000000000E+00 0. -1.
         -4   -1    0    0    0  501 -0.00000000000E+00 -0.00000000000E+00 -0.67268207442E+03  0.67268207442E+03  0.00000000000E+00 0.  1.
         23    2    1    2    0    0  0.16548726418E+03  0.37795071636E+02 -0.18869654576E+03  0.26776188719E+03  0.85296774894E+02 0.  0.
        254    2    1    2    0    0 -0.16548726418E+03 -0.37795071636E+02  0.17177282682E+02  0.90608299856E+03  0.88987461993E+03 0.  0.
        -24    2    4    4    0    0  0.19802858694E+03 -0.35634858200E+03  0.17630884403E+02  0.41618381071E+03  0.81844261090E+02 0.  0.
         24    2    4    4    0    0 -0.36351585112E+03  0.31855351036E+03 -0.45360172166E+00  0.48989918786E+03  0.79880507824E+02 0.  0.
         11    1    3    3    0    0  0.67349869070E+02 -0.53744373850E+01 -0.24918694696E+02  0.72012712672E+02  0.00000000000E+00 0. -1.
        -11    1    3    3    0    0  0.98137395108E+02  0.43169509021E+02 -0.16377785106E+03  0.19574917452E+03  0.00000000000E+00 0.  1.
          4    1    6    6  502    0 -0.34989456334E+03  0.28421778101E+03 -0.12759956514E+02  0.45096426576E+03  0.00000000000E+00 0. -1.
          1    1    5    5  503    0  0.18280747864E+03 -0.33919319661E+03  0.35724465470E+02  0.38697136368E+03  0.00000000000E+00 0. -1.
         -2    1    5    5    0  503  0.15221108303E+02 -0.17155385387E+02 -0.18093581067E+02  0.29212447031E+02  0.00000000000E+00 0.  1.
         -3    1    6    6    0  502 -0.13621287777E+02  0.34335729350E+02  0.12306354792E+02  0.38934922100E+02  0.00000000000E+00 0.  1.
<mgrwt>
<rscale>  0 0.11612463E+04</rscale>
<asrwt>0</asrwt>
<pdfrwt beam="1">  1        4 0.77101971E-01 0.11612463E+04</pdfrwt>
<pdfrwt beam="2">  1       -4 0.10348955E+00 0.11612463E+04</pdfrwt>
<totfact> 0.22613213E+00</totfact>
</mgrwt>
</event>
<event>
12    1  0.4612066E-007  0.3694119E+04  0.7818608E-02  0.8069266E-01
         -2   -1    0    0    0  501 -0.00000000000E+00  0.00000000000E+00  0.12621602398E+04  0.12621602398E+04  0.00000000000E+00 0. -1.
          2   -1    0    0  501    0  0.00000000000E+00 -0.00000000000E+00 -0.27030070348E+04  0.27030070348E+04  0.00000000000E+00 0.  1.
         23    2    1    2    0    0  0.17274634646E+04  0.14063252253E+03 -0.78235244103E+03  0.19037849236E+04  0.91728760612E+02 0.  0.
        254    2    1    2    0    0 -0.17274634646E+04 -0.14063252253E+03 -0.65849435394E+03  0.20613823509E+04  0.90098549081E+03 0.  0.
        -24    2    4    4    0    0 -0.96180222924E+03 -0.25877144687E+03  0.61617361604E+02  0.10007802744E+04  0.75751359997E+02 0.  0.
         24    2    4    4    0    0 -0.76566123536E+03  0.11813892434E+03 -0.72011171554E+03  0.10606020765E+04  0.78242884994E+02 0.  0.
         11    1    3    3    0    0  0.73848696459E+03  0.55631600237E+02 -0.38398136831E+03  0.83420594761E+03  0.00000000000E+00 0.  1.
        -11    1    3    3    0    0  0.98897650001E+03  0.85000922296E+02 -0.39837107271E+03  0.10695789760E+04  0.00000000000E+00 0. -1.
          4    1    6    6  502    0 -0.49017693806E+03  0.48263854017E+02 -0.49190213758E+03  0.69611101354E+03  0.00000000000E+00 0. -1.
          3    1    5    5  503    0 -0.47341454908E+03 -0.89721433439E+02  0.19176486582E+02  0.48222298632E+03  0.00000000000E+00 0. -1.
         -4    1    5    5    0  503 -0.48838768017E+03 -0.16905001344E+03  0.42440875022E+02  0.51855728811E+03  0.00000000000E+00 0.  1.
         -3    1    6    6    0  502 -0.27548429730E+03  0.69875070324E+02 -0.22820957796E+03  0.36449106297E+03  0.00000000000E+00 0.  1.
<mgrwt>
<rscale>  0 0.36941186E+04</rscale>
<asrwt>0</asrwt>
<pdfrwt beam="1">  1        2 0.41584723E+00 0.36941186E+04</pdfrwt>
<pdfrwt beam="2">  1       -2 0.19417850E+00 0.36941186E+04</pdfrwt>
<totfact> 0.31078402E-01</totfact>
</mgrwt>
</event>
<event>
12    1  0.4612066E-007  0.1506458E+04  0.7818608E-02  0.8880170E-01
         -1   -1    0    0    0  501 -0.00000000000E+00  0.00000000000E+00  0.46998185690E+03  0.46998185690E+03  0.00000000000E+00 0.  1.
          1   -1    0    0  501    0  0.00000000000E+00 -0.00000000000E+00 -0.12071826364E+04  0.12071826364E+04  0.00000000000E+00 0. -1.
         23    2    1    2    0    0  0.43608103432E+02 -0.91396402101E+02 -0.75823508849E+03  0.76991024255E+03  0.87099731110E+02 0.  0.
        254    2    1    2    0    0 -0.43608103432E+02  0.91396402101E+02  0.21034308953E+02  0.90725425080E+03  0.90133948345E+03 0.  0.
        -24    2    4    4    0    0 -0.46148534491E+03 -0.24154167576E+01  0.43463060880E+02  0.47064016310E+03  0.81477405836E+02 0.  0.
         24    2    4    4    0    0  0.41787724147E+03  0.93811818858E+02 -0.22428751926E+02  0.43661408770E+03  0.81894849430E+02 0.  0.
         13    1    3    3    0    0  0.65790256769E-01  0.16870924162E+02 -0.93519535292E+02  0.95029131805E+02  0.00000000000E+00 0.  1.
        -13    1    3    3    0    0  0.43542313175E+02 -0.10826732626E+03 -0.66471555320E+03  0.67488111074E+03  0.00000000000E+00 0. -1.
          4    1    6    6  502    0  0.38236251112E+03  0.10863189215E+03 -0.18388785242E+02  0.39791974734E+03  0.00000000000E+00 0. -1.
          3    1    5    5  503    0 -0.37640234522E+03 -0.32959981375E+02  0.42598828573E+02  0.38023643442E+03  0.00000000000E+00 0. -1.
         -4    1    5    5    0  503 -0.85082999682E+02  0.30544564617E+02  0.86423230638E+00  0.90403728684E+02  0.00000000000E+00 0.  1.
         -3    1    6    6    0  502  0.35514730358E+02 -0.14820073296E+02 -0.40399666843E+01  0.38694340357E+02  0.00000000000E+00 0.  1.
<mgrwt>
<rscale>  0 0.15064580E+04</rscale>
<asrwt>0</asrwt>
<pdfrwt beam="1">  1        1 0.18572040E+00 0.15064580E+04</pdfrwt>
<pdfrwt beam="2">  1       -1 0.72304902E-01 0.15064580E+04</pdfrwt>
<totfact> 0.19697408E+01</totfact>
</mgrwt>
</event>
<event>
12    1  0.4612066E-007  0.5107081E+04  0.7818608E-02  0.7812198E-01
          2   -1    0    0  501    0  0.00000000000E+00  0.00000000000E+00  0.25332629245E+04  0.25332629245E+04  0.00000000000E+00 0. -1.
         -2   -1    0    0    0  501 -0.00000000000E+00 -0.00000000000E+00 -0.25739807389E+04  0.25739807389E+04  0.00000000000E+00 0.  1.
         23    2    1    2    0    0 -0.22049623259E+04 -0.10944387550E+04  0.37265767496E+01  0.24635577774E+04  0.97200760424E+02 0.  0.
        254    2    1    2    0    0  0.22049623259E+04  0.10944387550E+04 -0.44444391195E+02  0.26436858860E+04  0.96303931002E+03 0.  0.
        -24    2    4    4    0    0  0.30560265900E+03  0.30314117670E+03  0.33289469716E+03  0.55015459019E+03  0.81016266927E+02 0.  0.
         24    2    4    4    0    0  0.18993596669E+04  0.79129757833E+03 -0.37733908836E+03  0.20935312958E+04  0.82276953775E+02 0.  0.
         11    1    3    3    0    0 -0.17771267898E+04 -0.92316975721E+03 -0.59706965164E+01  0.20026127127E+04  0.00000000000E+00 0.  1.
        -11    1    3    3    0    0 -0.42783553610E+03 -0.17126899782E+03  0.96972732661E+01  0.46094506470E+03  0.00000000000E+00 0. -1.
          4    1    6    6  502    0  0.45636252591E+03  0.22435397094E+03 -0.76825907963E+02  0.51429921200E+03  0.00000000000E+00 0. -1.
          3    1    5    5  503    0  0.77001817030E+01  0.15494240929E+02 -0.22101681651E+01  0.17442738992E+02  0.00000000000E+00 0. -1.
         -4    1    5    5    0  503  0.29790247730E+03  0.28764693577E+03  0.33510486533E+03  0.53271185119E+03  0.00000000000E+00 0.  1.
         -3    1    6    6    0  502  0.14429971410E+04  0.56694360738E+03 -0.30051318039E+03  0.15792320838E+04  0.00000000000E+00 0.  1.
<mgrwt>
<rscale>  0 0.51070813E+04</rscale>
<asrwt>0</asrwt>
<pdfrwt beam="1">  1        2 0.38973276E+00 0.51070813E+04</pdfrwt>
<pdfrwt beam="2">  1       -2 0.39599703E+00 0.51070813E+04</pdfrwt>
<totfact> 0.18960443E-02</totfact>
</mgrwt>
</event>
<event>
12    1  0.4612066E-007  0.2066526E+04  0.7818608E-02  0.8576134E-01
         -2   -1    0    0    0  501 -0.00000000000E+00  0.00000000000E+00  0.64179406630E+03  0.64179406630E+03  0.00000000000E+00 0.  1.
          2   -1    0    0  501    0  0.00000000000E+00 -0.00000000000E+00 -0.16635130375E+04  0.16635130375E+04  0.00000000000E+00 0. -1.
         23    2    1    2    0    0  0.17853343066E+03  0.28141528011E+03 -0.12529578901E+04  0.12997413519E+04  0.91407667965E+02 0.  0.
        254    2    1    2    0    0 -0.17853343066E+03 -0.28141528011E+03  0.23123891896E+03  0.10055657518E+04  0.92012080614E+03 0.  0.
        -24    2    4    4    0    0 -0.17588764849E+03  0.22302200963E+03 -0.18295839075E+03  0.34694763670E+03  0.78889848523E+02 0.  0.
         24    2    4    4    0    0 -0.26457821722E+01 -0.50443728973E+03  0.41419730970E+03  0.65861811513E+03  0.88059245846E+02 0.  0.
         13    1    3    3    0    0  0.71948002524E+02  0.17045684427E+03 -0.80871285438E+03  0.82960745637E+03  0.00000000000E+00 0.  1.
        -13    1    3    3    0    0  0.10658542814E+03  0.11095843584E+03 -0.44424503573E+03  0.47013389555E+03  0.00000000000E+00 0. -1.
          4    1    6    6  502    0 -0.27043740476E+01  0.61949729206E+00 -0.25892396460E+01  0.37949410836E+01  0.00000000000E+00 0. -1.
          1    1    5    5  503    0 -0.60269584332E+02  0.10503861676E+03 -0.37311140645E+02  0.12671880295E+03  0.00000000000E+00 0. -1.
         -2    1    5    5    0  503 -0.11561806416E+03  0.11798339287E+03 -0.14564725010E+03  0.22022883375E+03  0.00000000000E+00 0.  1.
         -3    1    6    6    0  502  0.58591875343E-01 -0.50505678703E+03  0.41678654935E+03  0.65482317405E+03  0.00000000000E+00 0.  1.
<mgrwt>
<rscale>  0 0.20665264E+04</rscale>
<asrwt>0</asrwt>
<pdfrwt beam="1">  1        2 0.25592508E+00 0.20665264E+04</pdfrwt>
<pdfrwt beam="2">  1       -2 0.98737551E-01 0.20665264E+04</pdfrwt>
<totfact> 0.80839241E+00</totfact>
</mgrwt>
</event>
<event>
12    1  0.4612066E-007  0.1091817E+04  0.7818608E-02  0.9213205E-01
          2   -1    0    0  501    0  0.00000000000E+00  0.00000000000E+00  0.87851025194E+03  0.87851025194E+03  0.00000000000E+00 0. -1.
         -2   -1    0    0    0  501 -0.00000000000E+00 -0.00000000000E+00 -0.33922880855E+03  0.33922880855E+03  0.00000000000E+00 0.  1.
         23    2    1    2    0    0  0.13917460684E+03  0.59368025095E+02  0.12334596652E+03  0.21551696980E+03  0.91319237947E+02 0.  0.
        254    2    1    2    0    0 -0.13917460684E+03 -0.59368025095E+02  0.41593547687E+03  0.10022220907E+04  0.89919556524E+03 0.  0.
        -24    2    4    4    0    0 -0.41139532097E+03 -0.30399550880E+03  0.13857175039E+03  0.53612779719E+03  0.81064822330E+02 0.  0.
         24    2    4    4    0    0  0.27222071413E+03  0.24462748371E+03  0.27736372648E+03  0.46609429350E+03  0.79790542540E+02 0.  0.
         13    1    3    3    0    0  0.77848563003E+02  0.18831489855E+02  0.11692196411E+03  0.14172427267E+03  0.00000000000E+00 0. -1.
        -13    1    3    3    0    0  0.61326043839E+02  0.40536535240E+02  0.64240024103E+01  0.73792697126E+02  0.00000000000E+00 0.  1.
          4    1    6    6  502    0  0.14292894433E+03  0.18056072663E+03  0.16931322349E+03  0.28582831696E+03  0.00000000000E+00 0. -1.
          3    1    5    5  503    0 -0.40820864946E+03 -0.30615175834E+03  0.14333213326E+03  0.53000688774E+03  0.00000000000E+00 0. -1.
         -4    1    5    5    0  503 -0.31866715196E+01  0.21562495355E+01 -0.47603828707E+01  0.61209094511E+01  0.00000000000E+00 0.  1.
         -3    1    6    6    0  502  0.12929176981E+03  0.64066757080E+02  0.10805050300E+03  0.18026597655E+03  0.00000000000E+00 0.  1.
<mgrwt>
<rscale>  0 0.10918168E+04</rscale>
<asrwt>0</asrwt>
<pdfrwt beam="1">  1        2 0.13515542E+00 0.10918168E+04</pdfrwt>
<pdfrwt beam="2">  1       -2 0.52189048E-01 0.10918168E+04</pdfrwt>
<totfact> 0.10441047E+02</totfact>
</mgrwt>
</event>
<event>
12    1  0.4612066E-007  0.1805344E+04  0.7818608E-02  0.8703463E-01
          1   -1    0    0  501    0  0.00000000000E+00  0.00000000000E+00  0.12339290435E+04  0.12339290435E+04  0.00000000000E+00 0. -1.
         -1   -1    0    0    0  501 -0.00000000000E+00 -0.00000000000E+00 -0.66034357514E+03  0.66034357514E+03  0.00000000000E+00 0.  1.
         23    2    1    2    0    0  0.42885703016E+03 -0.84767413871E+00 -0.32615764885E+03  0.54628212356E+03  0.90145858172E+02 0.  0.
        254    2    1    2    0    0 -0.42885703016E+03  0.84767413871E+00  0.89974311718E+03  0.13479904951E+04  0.90753601966E+03 0.  0.
        -24    2    4    4    0    0 -0.33189809512E+03 -0.42715784970E+03  0.39926049168E+03  0.67779103152E+03  0.85857836487E+02 0.  0.
         24    2    4    4    0    0 -0.96958935039E+02  0.42800552384E+03  0.50048262550E+03  0.67019946353E+03  0.78068553060E+02 0.  0.
         11    1    3    3    0    0  0.38617863584E+03  0.22995814478E+02 -0.30660922853E+03  0.49363140630E+03  0.00000000000E+00 0.  1.
        -11    1    3    3    0    0  0.42678394315E+02 -0.23843488616E+02 -0.19548420324E+02  0.52650717259E+02  0.00000000000E+00 0. -1.
          2    1    6    6  502    0 -0.29167270054E+02  0.38128569517E+02  0.36029178444E+02  0.60021822325E+02  0.00000000000E+00 0. -1.
          1    1    5    5  503    0  0.38299584178E+01 -0.15046859840E+02  0.17237317795E+02  0.23199174496E+02  0.00000000000E+00 0. -1.
         -2    1    5    5    0  503 -0.33572805354E+03 -0.41211098986E+03  0.38202317389E+03  0.65459185702E+03  0.00000000000E+00 0.  1.
         -1    1    6    6    0  502 -0.67791664985E+02  0.38987695432E+03  0.46445344705E+03  0.61017764121E+03  0.00000000000E+00 0.  1.
<mgrwt>
<rscale>  0 0.18053444E+04</rscale>
<asrwt>0</asrwt>
<pdfrwt beam="1">  1        1 0.18983524E+00 0.18053444E+04</pdfrwt>
<pdfrwt beam="2">  1       -1 0.10159132E+00 0.18053444E+04</pdfrwt>
<totfact> 0.87511379E+00</totfact>
</mgrwt>
</event>
<event>
12    1  0.4612066E-007  0.1126760E+04  0.7818608E-02  0.9179495E-01
          2   -1    0    0  501    0  0.00000000000E+00  0.00000000000E+00  0.11969878197E+04  0.11969878197E+04  0.00000000000E+00 0. -1.
         -2   -1    0    0    0  501 -0.00000000000E+00 -0.00000000000E+00 -0.26516328156E+03  0.26516328156E+03  0.00000000000E+00 0.  1.
         23    2    1    2    0    0  0.11033978939E+03  0.39748768406E+02 -0.13120107329E+02  0.15107269968E+03  0.94318554166E+02 0.  0.
        254    2    1    2    0    0 -0.11033978939E+03 -0.39748768406E+02  0.94494464547E+03  0.13110784016E+04  0.90124988677E+03 0.  0.
        -24    2    4    4    0    0  0.35805986676E+03  0.15063282665E+03  0.39295147570E+03  0.55832481041E+03  0.80116259408E+02 0.  0.
         24    2    4    4    0    0 -0.46839965615E+03 -0.19038159506E+03  0.55199316977E+03  0.75275359117E+03  0.79360695139E+02 0.  0.
         11    1    3    3    0    0 -0.38469739619E+01 -0.53527914741E+01  0.22332614438E+02  0.23285129436E+02  0.00000000000E+00 0. -1.
        -11    1    3    3    0    0  0.11418676335E+03  0.45101559880E+02 -0.35452721766E+02  0.12778757024E+03  0.00000000000E+00 0.  1.
          2    1    6    6  502    0 -0.43257871787E+03 -0.16152369961E+03  0.52598745875E+03  0.69991217982E+03  0.00000000000E+00 0. -1.
          1    1    5    5  503    0  0.29617913942E+03  0.14535660345E+03  0.35887419936E+03  0.48748468259E+03  0.00000000000E+00 0. -1.
         -2    1    5    5    0  503  0.61880727343E+02  0.52762232029E+01  0.34077276338E+02  0.70840127826E+02  0.00000000000E+00 0.  1.
         -1    1    6    6    0  502 -0.35820938278E+02 -0.28857895443E+02  0.26005711021E+02  0.52841411357E+02  0.00000000000E+00 0.  1.
<mgrwt>
<rscale>  0 0.11267603E+04</rscale>
<asrwt>0</asrwt>
<pdfrwt beam="1">  1        2 0.18415197E+00 0.11267603E+04</pdfrwt>
<pdfrwt beam="2">  1       -2 0.40794352E-01 0.11267603E+04</pdfrwt>
<totfact> 0.10720508E+02</totfact>
</mgrwt>
</event>
<event>
12    1  0.4612066E-007  0.1546761E+04  0.7818608E-02  0.8853939E-01
         -1   -1    0    0    0  501 -0.00000000000E+00  0.00000000000E+00  0.90100962756E+03  0.90100962756E+03  0.00000000000E+00 0.  1.
          1   -1    0    0  501    0  0.00000000000E+00 -0.00000000000E+00 -0.66383031220E+03  0.66383031220E+03  0.00000000000E+00 0. -1.
         23    2    1    2    0    0 -0.30528657504E+03 -0.14408452659E+03 -0.30591203185E+03  0.46466086566E+03  0.91472974933E+02 0.  0.
        254    2    1    2    0    0  0.30528657504E+03  0.14408452659E+03  0.54309134721E+03  0.11001790741E+04  0.89525724792E+03 0.  0.
        -24    2    4    4    0    0  0.46786148993E+03 -0.22364961762E+02 -0.29531020983E+02  0.47653944447E+03  0.82602637109E+02 0.  0.
         24    2    4    4    0    0 -0.16257491489E+03  0.16644948836E+03  0.57262236819E+03  0.62363962963E+03  0.83029970287E+02 0.  0.
         11    1    3    3    0    0 -0.93852237839E+02 -0.80703478998E+02 -0.14970515190E+03  0.19424965013E+03  0.00000000000E+00 0. -1.
        -11    1    3    3    0    0 -0.21143433720E+03 -0.63381047596E+02 -0.15620687995E+03  0.27041121553E+03  0.00000000000E+00 0.  1.
          2    1    6    6  502    0 -0.24961583726E+01 -0.11959903367E+01  0.70957843880E+02  0.71011807522E+02  0.00000000000E+00 0. -1.
          3    1    5    5  503    0  0.28846614457E+03  0.22871843395E+02 -0.12141518447E+01  0.28937400013E+03  0.00000000000E+00 0. -1.
         -4    1    5    5    0  503  0.17939534536E+03 -0.45236805157E+02 -0.28316869138E+02  0.18716544434E+03  0.00000000000E+00 0.  1.
         -1    1    6    6    0  502 -0.16007875652E+03  0.16764547869E+03  0.50166452431E+03  0.55262782211E+03  0.00000000000E+00 0.  1.
<mgrwt>
<rscale>  0 0.15467611E+04</rscale>
<asrwt>0</asrwt>
<pdfrwt beam="1">  1        1 0.10212774E+00 0.15467611E+04</pdfrwt>
<pdfrwt beam="2">  1       -1 0.13861687E+00 0.15467611E+04</pdfrwt>
<totfact> 0.12238156E+01</totfact>
</mgrwt>
</event>
<event>
12    1  0.4612066E-007  0.2179427E+04  0.7818608E-02  0.8527040E-01
         -1   -1    0    0    0  501 -0.00000000000E+00  0.00000000000E+00  0.69981984774E+03  0.69981984774E+03  0.00000000000E+00 0.  1.
          1   -1    0    0  501    0  0.00000000000E+00 -0.00000000000E+00 -0.16968303291E+04  0.16968303291E+04  0.00000000000E+00 0. -1.
         23    2    1    2    0    0 -0.85873488181E+03 -0.25205459863E+03 -0.43534467114E+03  0.99950942208E+03  0.92395801858E+02 0.  0.
        254    2    1    2    0    0  0.85873488181E+03  0.25205459863E+03 -0.56166581023E+03  0.13971407548E+04  0.91409883948E+03 0.  0.
        -24    2    4    4    0    0  0.85492642127E+03  0.10486828084E+03 -0.58686859848E+02  0.86693047266E+03  0.78916125140E+02 0.  0.
         24    2    4    4    0    0  0.38084605459E+01  0.14718631779E+03 -0.50297895038E+03  0.53021028211E+03  0.80354229596E+02 0.  0.
         11    1    3    3    0    0 -0.27536099461E+03 -0.10468717503E+03 -0.10267879551E+03  0.31197117978E+03  0.00000000000E+00 0.  1.
        -11    1    3    3    0    0 -0.58337388720E+03 -0.14736742360E+03 -0.33266587564E+03  0.68753824230E+03  0.00000000000E+00 0. -1.
          2    1    6    6  502    0 -0.29191194221E+02  0.78898129187E+02 -0.34296871092E+03  0.35313535264E+03  0.00000000000E+00 0. -1.
          1    1    5    5  503    0  0.50309949352E+03  0.23962362056E+02 -0.44710490403E+02  0.50565039615E+03  0.00000000000E+00 0. -1.
         -2    1    5    5    0  503  0.35182692774E+03  0.80905918784E+02 -0.13976369445E+02  0.36128007651E+03  0.00000000000E+00 0.  1.
         -1    1    6    6    0  502  0.32999654767E+02  0.68288188599E+02 -0.16001023946E+03  0.17707492948E+03  0.00000000000E+00 0.  1.
<mgrwt>
<rscale>  0 0.21794270E+04</rscale>
<asrwt>0</asrwt>
<pdfrwt beam="1">  1        1 0.26105082E+00 0.21794270E+04</pdfrwt>
<pdfrwt beam="2">  1       -1 0.10766459E+00 0.21794270E+04</pdfrwt>
<totfact> 0.35118614E+00</totfact>
</mgrwt>
</event>
<event>
12    1  0.4612066E-007  0.2204598E+04  0.7818608E-02  0.8516517E-01
         -2   -1    0    0    0  501 -0.00000000000E+00  0.00000000000E+00  0.15019863471E+04  0.15019863471E+04  0.00000000000E+00 0.  1.
          2   -1    0    0  501    0  0.00000000000E+00 -0.00000000000E+00 -0.80897104973E+03  0.80897104973E+03  0.00000000000E+00 0. -1.
         23    2    1    2    0    0  0.83850690281E+03  0.34137254706E+03  0.14284857568E+03  0.92074931543E+03  0.88003092816E+02 0.  0.
        254    2    1    2    0    0 -0.83850690281E+03 -0.34137254706E+03  0.55016672173E+03  0.13902080814E+04  0.90020333594E+03 0.  0.
        -24    2    4    4    0    0 -0.10213251907E+04 -0.26058583033E+03  0.41367732285E+03  0.11352922414E+04  0.82154888788E+02 0.  0.
         24    2    4    4    0    0  0.18281828788E+03 -0.80786716731E+02  0.13648939889E+03  0.25491584007E+03  0.80023181202E+02 0.  0.
         13    1    3    3    0    0  0.20912186761E+03  0.49621148476E+02  0.15939502658E+02  0.21551863407E+03  0.00000000000E+00 0. -1.
        -13    1    3    3    0    0  0.62938503520E+03  0.29175139858E+03  0.12690907302E+03  0.70523068136E+03  0.00000000000E+00 0.  1.
          2    1    6    6  502    0  0.65109753120E+02  0.99515272083E+01  0.52296776093E+02  0.84102708844E+02  0.00000000000E+00 0. -1.
          3    1    5    5  503    0 -0.23214242526E+03 -0.41972497164E+02  0.12514935076E+03  0.26704710469E+03  0.00000000000E+00 0. -1.
         -4    1    5    5    0  503 -0.78918276543E+03 -0.21861333316E+03  0.28852797208E+03  0.86824513668E+03  0.00000000000E+00 0.  1.
         -1    1    6    6    0  502  0.11770853476E+03 -0.90738243939E+02  0.84192622793E+02  0.17081313123E+03  0.00000000000E+00 0.  1.
<mgrwt>
<rscale>  0 0.22045984E+04</rscale>
<asrwt>0</asrwt>
<pdfrwt beam="1">  1        2 0.12445708E+00 0.22045984E+04</pdfrwt>
<pdfrwt beam="2">  1       -2 0.23107482E+00 0.22045984E+04</pdfrwt>
<totfact> 0.26095140E+00</totfact>
</mgrwt>
</event>
<event>
12    1  0.4612066E-007  0.1950419E+04  0.7818608E-02  0.8630159E-01
          1   -1    0    0  501    0  0.00000000000E+00  0.00000000000E+00  0.59025974069E+03  0.59025974069E+03  0.00000000000E+00 0. -1.
         -1   -1    0    0    0  501 -0.00000000000E+00 -0.00000000000E+00 -0.16112116152E+04  0.16112116152E+04  0.00000000000E+00 0.  1.
         23    2    1    2    0    0 -0.35659930264E+03  0.21750528074E+03  0.31539146478E+03  0.53365234236E+03  0.10412221980E+03 0.  0.
        254    2    1    2    0    0  0.35659930264E+03 -0.21750528074E+03 -0.13363433392E+04  0.16678190135E+04  0.90627541710E+03 0.  0.
        -24    2    4    4    0    0  0.19931596004E+03  0.28807726256E+03 -0.19870096644E+03  0.41053642923E+03  0.79641223791E+02 0.  0.
         24    2    4    4    0    0  0.15728334260E+03 -0.50558254330E+03 -0.11376423728E+04  0.12572825843E+04  0.78597521213E+02 0.  0.
         11    1    3    3    0    0 -0.81106985275E+02  0.33997823516E+01  0.50779902560E+02  0.95752285009E+02  0.00000000000E+00 0.  1.
        -11    1    3    3    0    0 -0.27549231736E+03  0.21410549839E+03  0.26461156222E+03  0.43790005735E+03  0.00000000000E+00 0. -1.
          4    1    6    6  502    0  0.12872425815E+03 -0.29380750934E+03 -0.64828448573E+03  0.72330184683E+03  0.00000000000E+00 0. -1.
          3    1    5    5  503    0  0.99440731959E+02  0.21037809256E+03 -0.12715879166E+03  0.26517307423E+03  0.00000000000E+00 0. -1.
         -4    1    5    5    0  503  0.99875228078E+02  0.77699170002E+02 -0.71542174776E+02  0.14536335499E+03  0.00000000000E+00 0.  1.
         -3    1    6    6    0  502  0.28559084449E+02 -0.21177503396E+03 -0.48935788708E+03  0.53398073744E+03  0.00000000000E+00 0.  1.
<mgrwt>
<rscale>  0 0.19504188E+04</rscale>
<asrwt>0</asrwt>
<pdfrwt beam="1">  1        1 0.90809192E-01 0.19504188E+04</pdfrwt>
<pdfrwt beam="2">  1       -1 0.24787871E+00 0.19504188E+04</pdfrwt>
<totfact> 0.23516299E+00</totfact>
</mgrwt>
</event>
<event>
12    1  0.4612066E-007  0.2220945E+04  0.7818608E-02  0.8509760E-01
         -1   -1    0    0    0  501 -0.00000000000E+00  0.00000000000E+00  0.79480154681E+03  0.79480154681E+03  0.00000000000E+00 0.  1.
          1   -1    0    0  501    0  0.00000000000E+00 -0.00000000000E+00 -0.15515190008E+04  0.15515190008E+04  0.00000000000E+00 0. -1.
         23    2    1    2    0    0 -0.88962537778E+03  0.17329692674E+03 -0.29301117357E+02  0.91127282713E+03  0.89969285743E+02 0.  0.
        254    2    1    2    0    0  0.88962537778E+03 -0.17329692674E+03 -0.72741633660E+03  0.14350477204E+04  0.84188021452E+03 0.  0.
        -24    2    4    4    0    0  0.31996632464E+03 -0.48087495770E+03 -0.38044214914E+03  0.69625109930E+03  0.80063665855E+02 0.  0.
         24    2    4    4    0    0  0.56965905313E+03  0.30757803096E+03 -0.34697418746E+03  0.73879662114E+03  0.79458660311E+02 0.  0.
         11    1    3    3    0    0 -0.12825777273E+03  0.34878124910E+02 -0.34837612056E+02  0.13740523672E+03  0.00000000000E+00 0. -1.
        -11    1    3    3    0    0 -0.76136760505E+03  0.13841880183E+03  0.55364946992E+01  0.77386759041E+03  0.00000000000E+00 0.  1.
          4    1    6    6  502    0  0.65554851647E+02  0.13018539065E+02 -0.51862467906E+02  0.84596906038E+02  0.00000000000E+00 0. -1.
          1    1    5    5  503    0  0.22119871556E+01  0.23508645681E+01 -0.73088202957E+01  0.79898877031E+01  0.00000000000E+00 0. -1.
         -2    1    5    5    0  503  0.31775433749E+03 -0.48322582227E+03 -0.37313332884E+03  0.68826121160E+03  0.00000000000E+00 0.  1.
         -3    1    6    6    0  502  0.50410420149E+03  0.29455949189E+03 -0.29511171955E+03  0.65419971510E+03  0.00000000000E+00 0.  1.
<mgrwt>
<rscale>  0 0.22209455E+04</rscale>
<asrwt>0</asrwt>
<pdfrwt beam="1">  1        1 0.23869523E+00 0.22209455E+04</pdfrwt>
<pdfrwt beam="2">  1       -1 0.12227716E+00 0.22209455E+04</pdfrwt>
<totfact> 0.32414313E+00</totfact>
</mgrwt>
</event>
<event>
12    1  0.4612066E-007  0.1950978E+04  0.7818608E-02  0.8629889E-01
          1   -1    0    0  501    0  0.00000000000E+00  0.00000000000E+00  0.14161077265E+04  0.14161077265E+04  0.00000000000E+00 0. -1.
         -1   -1    0    0    0  501 -0.00000000000E+00 -0.00000000000E+00 -0.67196796693E+03  0.67196796693E+03  0.00000000000E+00 0.  1.
         23    2    1    2    0    0  0.10545264028E+03 -0.75959936852E+03  0.40300313618E+03  0.87155121288E+03  0.95281314488E+02 0.  0.
        254    2    1    2    0    0 -0.10545264028E+03  0.75959936852E+03  0.34113662338E+03  0.12165244806E+04  0.88059420618E+03 0.  0.
        -24    2    4    4    0    0 -0.40938446113E+03  0.26636411970E+03  0.38924128655E+03  0.62971804853E+03  0.80564013125E+02 0.  0.
         24    2    4    4    0    0  0.30393182084E+03  0.49323524883E+03 -0.48104663172E+02  0.58680643202E+03  0.79825858198E+02 0.  0.
         11    1    3    3    0    0  0.12223870651E+03 -0.69343241498E+03  0.37511957052E+03  0.79781295283E+03  0.00000000000E+00 0. -1.
        -11    1    3    3    0    0 -0.16786066231E+02 -0.66166953543E+02  0.27883565660E+02  0.73738260045E+02  0.00000000000E+00 0.  1.
          4    1    6    6  502    0  0.21786164008E+02  0.69973364948E+02 -0.25594349003E+02  0.77627182387E+02  0.00000000000E+00 0. -1.
          1    1    5    5  503    0 -0.16030935729E+03  0.11914292063E+03  0.20766485222E+03  0.28812986033E+03  0.00000000000E+00 0. -1.
         -2    1    5    5    0  503 -0.24907510384E+03  0.14722119906E+03  0.18157643434E+03  0.34158818819E+03  0.00000000000E+00 0.  1.
         -3    1    6    6    0  502  0.28214565683E+03  0.42326188388E+03 -0.22510314169E+02  0.50917924964E+03  0.00000000000E+00 0.  1.
<mgrwt>
<rscale>  0 0.19509782E+04</rscale>
<asrwt>0</asrwt>
<pdfrwt beam="1">  1        1 0.21786273E+00 0.19509782E+04</pdfrwt>
<pdfrwt beam="2">  1       -1 0.10337969E+00 0.19509782E+04</pdfrwt>
<totfact> 0.61552977E+00</totfact>
</mgrwt>
</event>
<event>
12    1  0.4612066E-007  0.2445609E+04  0.7818608E-02  0.8422623E-01
         -2   -1    0    0    0  501 -0.00000000000E+00  0.00000000000E+00  0.85844812662E+03  0.85844812662E+03  0.00000000000E+00 0. -1.
          2   -1    0    0  501    0  0.00000000000E+00 -0.00000000000E+00 -0.17418068954E+04  0.17418068954E+04  0.00000000000E+00 0.  1.
         23    2    1    2    0    0  0.10326501943E+04  0.17161682782E+03 -0.23062615921E+03  0.10761299202E+04  0.95123186130E+02 0.  0.
        254    2    1    2    0    0 -0.10326501943E+04 -0.17161682782E+03 -0.65273260957E+03  0.15241251018E+04  0.89503000346E+03 0.  0.
        -24    2    4    4    0    0 -0.40659369648E+02 -0.35196480532E+03 -0.13041927510E+03  0.38582381752E+03  0.79488504350E+02 0.  0.
         24    2    4    4    0    0 -0.99199082461E+03  0.18034797750E+03 -0.52231333447E+03  0.11383012843E+04  0.79670605334E+02 0.  0.
         13    1    3    3    0    0  0.99379170779E+03  0.15793561889E+03 -0.20302051694E+03  0.10265393068E+04  0.00000000000E+00 0. -1.
        -13    1    3    3    0    0  0.38858486475E+02  0.13681208932E+02 -0.27605642266E+02  0.49590613365E+02  0.00000000000E+00 0.  1.
          2    1    6    6  502    0 -0.36450125297E+03  0.29861834581E+02 -0.20417990305E+03  0.41885835958E+03  0.00000000000E+00 0. -1.
          3    1    5    5  503    0  0.19283291009E+02 -0.32661068156E+02 -0.18543709743E+02  0.42219188248E+02  0.00000000000E+00 0. -1.
         -4    1    5    5    0  503 -0.59942660657E+02 -0.31930373717E+03 -0.11187556536E+03  0.34360462927E+03  0.00000000000E+00 0.  1.
         -1    1    6    6    0  502 -0.62748957164E+03  0.15048614292E+03 -0.31813343141E+03  0.71944292471E+03  0.00000000000E+00 0.  1.
<mgrwt>
<rscale>  0 0.24456090E+04</rscale>
<asrwt>0</asrwt>
<pdfrwt beam="1">  1        2 0.26797029E+00 0.24456090E+04</pdfrwt>
<pdfrwt beam="2">  1       -2 0.13206894E+00 0.24456090E+04</pdfrwt>
<totfact> 0.34750224E+00</totfact>
</mgrwt>
</event>
<event>
12    1  0.4612066E-007  0.1058550E+04  0.7818608E-02  0.9246561E-01
          2   -1    0    0  501    0  0.00000000000E+00  0.00000000000E+00  0.69910889612E+03  0.69910889612E+03  0.00000000000E+00 0. -1.
         -2   -1    0    0    0  501 -0.00000000000E+00 -0.00000000000E+00 -0.40069844400E+03  0.40069844400E+03  0.00000000000E+00 0.  1.
         23    2    1    2    0    0  0.80927206845E+01  0.75204442463E+02  0.11398928087E+03  0.16547963793E+03  0.93106144386E+02 0.  0.
        254    2    1    2    0    0 -0.80927206845E+01 -0.75204442463E+02  0.18442117125E+03  0.93432770219E+03  0.91281755372E+03 0.  0.
        -24    2    4    4    0    0  0.59390609803E+02  0.20413109586E+03 -0.29360476170E+03  0.37111921689E+03  0.79554812689E+02 0.  0.
         24    2    4    4    0    0 -0.67483330487E+02 -0.27933553832E+03  0.47802593296E+03  0.56320848529E+03  0.78183517850E+02 0.  0.
         13    1    3    3    0    0  0.75785769365E+00  0.39461384376E+02  0.12191178304E+03  0.12814155473E+03  0.00000000000E+00 0. -1.
        -13    1    3    3    0    0  0.73348629908E+01  0.35743058087E+02 -0.79225021675E+01  0.37338083201E+02  0.00000000000E+00 0.  1.
          2    1    6    6  502    0  0.70944854804E+01 -0.12805433032E+03  0.18498551068E+03  0.22509527405E+03  0.00000000000E+00 0. -1.
          3    1    5    5  503    0  0.25506394511E+02  0.15810482115E+03 -0.16277053805E+03  0.22834613789E+03  0.00000000000E+00 0. -1.
         -4    1    5    5    0  503  0.33884215291E+02  0.46026274715E+02 -0.13083422365E+03  0.14277307900E+03  0.00000000000E+00 0.  1.
         -1    1    6    6    0  502 -0.74577815967E+02 -0.15128120800E+03  0.29304042228E+03  0.33811321125E+03  0.00000000000E+00 0.  1.
<mgrwt>
<rscale>  0 0.10585497E+04</rscale>
<asrwt>0</asrwt>
<pdfrwt beam="1">  1        2 0.10755521E+00 0.10585497E+04</pdfrwt>
<pdfrwt beam="2">  1       -2 0.61645915E-01 0.10585497E+04</pdfrwt>
<totfact> 0.99928337E+01</totfact>
</mgrwt>
</event>
<event>
12    1  0.4612066E-007  0.1353559E+04  0.7818608E-02  0.8988138E-01
          2   -1    0    0  501    0  0.00000000000E+00  0.00000000000E+00  0.28241837954E+04  0.28241837954E+04  0.00000000000E+00 0. -1.
         -2   -1    0    0    0  501 -0.00000000000E+00 -0.00000000000E+00 -0.16218150501E+03  0.16218150501E+03  0.00000000000E+00 0.  1.
         23    2    1    2    0    0  0.20797766583E+03 -0.22060660861E+03  0.12026338764E+04  0.12435805483E+04  0.90787412260E+02 0.  0.
        254    2    1    2    0    0 -0.20797766583E+03  0.22060660861E+03  0.14593684140E+04  0.17427847521E+04  0.90311712372E+03 0.  0.
        -24    2    4    4    0    0  0.34819171745E+03  0.11196117590E+03  0.48829005954E+03  0.61525748132E+03  0.79635476176E+02 0.  0.
         24    2    4    4    0    0 -0.55616938327E+03  0.10864543271E+03  0.97107835449E+03  0.11275272708E+04  0.84831379410E+02 0.  0.
         11    1    3    3    0    0  0.17939474237E+03 -0.13274446325E+03  0.89233456982E+03  0.91981767248E+03  0.00000000000E+00 0. -1.
        -11    1    3    3    0    0  0.28582923458E+02 -0.87862145362E+02  0.31029930658E+03  0.32376287583E+03  0.00000000000E+00 0.  1.
          4    1    6    6  502    0 -0.32731911937E+03  0.66232351608E+02  0.48832245974E+03  0.59159391054E+03  0.00000000000E+00 0. -1.
          1    1    5    5  503    0  0.58965582338E+02  0.37502400246E+02  0.13986023352E+03  0.15634658565E+03  0.00000000000E+00 0. -1.
         -2    1    5    5    0  503  0.28922613511E+03  0.74458775654E+02  0.34842982602E+03  0.45891089567E+03  0.00000000000E+00 0.  1.
         -3    1    6    6    0  502 -0.22885026391E+03  0.42413081103E+02  0.48275589475E+03  0.53593336027E+03  0.00000000000E+00 0.  1.
<mgrwt>
<rscale>  0 0.13535588E+04</rscale>
<asrwt>0</asrwt>
<pdfrwt beam="1">  1        2 0.43448978E+00 0.13535588E+04</pdfrwt>
<pdfrwt beam="2">  1       -2 0.24951003E-01 0.13535588E+04</pdfrwt>
<totfact> 0.31675116E+01</totfact>
</mgrwt>
</event>
<event>
12    1  0.4612066E-007  0.1249706E+04  0.7818608E-02  0.9070428E-01
          2   -1    0    0  501    0  0.00000000000E+00  0.00000000000E+00  0.62798744046E+03  0.62798744046E+03  0.00000000000E+00 0. -1.
         -2   -1    0    0    0  501 -0.00000000000E+00 -0.00000000000E+00 -0.62173438358E+03  0.62173438358E+03  0.00000000000E+00 0.  1.
         23    2    1    2    0    0  0.18975494065E+03 -0.46402125876E+01  0.21184310021E+03  0.29843518082E+03  0.90319372047E+02 0.  0.
        254    2    1    2    0    0 -0.18975494065E+03  0.46402125876E+01 -0.20559004333E+03  0.95128664322E+03  0.90920324602E+03 0.  0.
        -24    2    4    4    0    0  0.29439430517E+03 -0.19705599362E+02  0.15346414911E+03  0.34260991530E+03  0.82304261341E+02 0.  0.
         24    2    4    4    0    0 -0.48414924582E+03  0.24345811950E+02 -0.35905419245E+03  0.60867672792E+03  0.81081657711E+02 0.  0.
         11    1    3    3    0    0 -0.28037891724E+01 -0.59296081280E+01 -0.51362186433E+01  0.83307999752E+01  0.00000000000E+00 0.  1.
        -11    1    3    3    0    0  0.19255872982E+03  0.12893955405E+01  0.21697931886E+03  0.29010438084E+03  0.00000000000E+00 0. -1.
          2    1    6    6  502    0 -0.28022491973E+02 -0.39274506570E+01 -0.13489222467E+01  0.28328510661E+02  0.00000000000E+00 0. -1.
          3    1    5    5  503    0  0.42278624754E+02 -0.31396546316E+02  0.38720363802E+02  0.65364300690E+02  0.00000000000E+00 0. -1.
         -4    1    5    5    0  503  0.25211568041E+03  0.11690946954E+02  0.11474378531E+03  0.27724561461E+03  0.00000000000E+00 0.  1.
         -1    1    6    6    0  502 -0.45612675384E+03  0.28273262607E+02 -0.35770527020E+03  0.58034821726E+03  0.00000000000E+00 0.  1.
<mgrwt>
<rscale>  0 0.12497062E+04</rscale>
<asrwt>0</asrwt>
<pdfrwt beam="1">  1        2 0.96613452E-01 0.12497062E+04</pdfrwt>
<pdfrwt beam="2">  1       -2 0.95651444E-01 0.12497062E+04</pdfrwt>
<totfact> 0.42334990E+01</totfact>
</mgrwt>
</event>
<event>
12    1  0.4612066E-007  0.2311189E+04  0.7818608E-02  0.8473522E-01
         -2   -1    0    0    0  501 -0.00000000000E+00  0.00000000000E+00  0.13876575855E+04  0.13876575855E+04  0.00000000000E+00 0.  1.
          2   -1    0    0  501    0  0.00000000000E+00 -0.00000000000E+00 -0.96234054196E+03  0.96234054196E+03  0.00000000000E+00 0. -1.
         23    2    1    2    0    0 -0.80999332247E+03 -0.26440655735E+03 -0.31798288851E+03  0.91436794189E+03  0.94634062366E+02 0.  0.
        254    2    1    2    0    0  0.80999332247E+03  0.26440655735E+03  0.74329993202E+03  0.14356301856E+04  0.88461247488E+03 0.  0.
        -24    2    4    4    0    0  0.28172188487E+02 -0.21888255405E+03 -0.23619582238E+02  0.23600832122E+03  0.80242123288E+02 0.  0.
         24    2    4    4    0    0  0.78182113398E+03  0.48328911140E+03  0.76691951426E+03  0.11996218643E+04  0.78194790717E+02 0.  0.
         13    1    3    3    0    0 -0.80169244746E+03 -0.26009721043E+03 -0.32431481402E+03  0.90307332913E+03  0.00000000000E+00 0. -1.
        -13    1    3    3    0    0 -0.83008750078E+01 -0.43093469197E+01  0.63319255119E+01  0.11294612763E+02  0.00000000000E+00 0.  1.
          4    1    6    6  502    0  0.40194424258E+03  0.27918887317E+03  0.36990725504E+03  0.61346310270E+03  0.00000000000E+00 0. -1.
          3    1    5    5  503    0  0.21526126478E+02 -0.70095618765E+02  0.27839860766E+02  0.78433588077E+02  0.00000000000E+00 0. -1.
         -4    1    5    5    0  503  0.66460620097E+01 -0.14878693528E+03 -0.51459443004E+02  0.15757473314E+03  0.00000000000E+00 0.  1.
         -3    1    6    6    0  502  0.37987689140E+03  0.20410023823E+03  0.39701225922E+03  0.58615876163E+03  0.00000000000E+00 0.  1.
<mgrwt>
<rscale>  0 0.23111894E+04</rscale>
<asrwt>0</asrwt>
<pdfrwt beam="1">  1        2 0.14805239E+00 0.23111894E+04</pdfrwt>
<pdfrwt beam="2">  1       -2 0.21348578E+00 0.23111894E+04</pdfrwt>
<totfact> 0.26242461E+00</totfact>
</mgrwt>
</event>
<event>
12    1  0.4612066E-007  0.1785218E+04  0.7818608E-02  0.8714200E-01
         -2   -1    0    0    0  501 -0.00000000000E+00  0.00000000000E+00  0.67475924699E+03  0.67475924699E+03  0.00000000000E+00 0.  1.
          2   -1    0    0  501    0  0.00000000000E+00 -0.00000000000E+00 -0.11807921927E+04  0.11807921927E+04  0.00000000000E+00 0. -1.
         23    2    1    2    0    0  0.19276793972E+03  0.26290542652E+03  0.41139843706E+03  0.53285273883E+03  0.91676743952E+02 0.  0.
        254    2    1    2    0    0 -0.19276793972E+03 -0.26290542652E+03 -0.91743138281E+03  0.13226987009E+04  0.89530596408E+03 0.  0.
        -24    2    4    4    0    0 -0.47059089833E+03 -0.28211966383E+03 -0.86590279502E+03  0.10282512730E+04  0.80409773303E+02 0.  0.
         24    2    4    4    0    0  0.27782295861E+03  0.19214237310E+02 -0.51528587792E+02  0.29444742792E+03  0.80556248691E+02 0.  0.
         11    1    3    3    0    0  0.15394189758E+03  0.25043155751E+03  0.33091457818E+03  0.44262685287E+03  0.00000000000E+00 0. -1.
        -11    1    3    3    0    0  0.38826042140E+02  0.12473869005E+02  0.80483858886E+02  0.90225885960E+02  0.00000000000E+00 0.  1.
          2    1    6    6  502    0  0.11218144690E+03  0.43138008872E+02 -0.31337172397E+01  0.12023054945E+03  0.00000000000E+00 0. -1.
          1    1    5    5  503    0 -0.19078748982E+03 -0.16096817763E+03 -0.39310980772E+03  0.46566720027E+03  0.00000000000E+00 0. -1.
         -2    1    5    5    0  503 -0.27980340852E+03 -0.12115148620E+03 -0.47279298730E+03  0.56258407271E+03  0.00000000000E+00 0.  1.
         -1    1    6    6    0  502  0.16564151172E+03 -0.23923771562E+02 -0.48394870552E+02  0.17421687848E+03  0.00000000000E+00 0.  1.
<mgrwt>
<rscale>  0 0.17852176E+04</rscale>
<asrwt>0</asrwt>
<pdfrwt beam="1">  1        2 0.18166034E+00 0.17852176E+04</pdfrwt>
<pdfrwt beam="2">  1       -2 0.10380912E+00 0.17852176E+04</pdfrwt>
<totfact> 0.13891354E+01</totfact>
</mgrwt>
</event>
<event>
12    1  0.4612066E-007  0.2159623E+04  0.7818608E-02  0.8535424E-01
          2   -1    0    0  501    0  0.00000000000E+00  0.00000000000E+00  0.16606345796E+04  0.16606345796E+04  0.00000000000E+00 0. -1.
         -2   -1    0    0    0  501 -0.00000000000E+00 -0.00000000000E+00 -0.70213680002E+03  0.70213680002E+03  0.00000000000E+00 0.  1.
         23    2    1    2    0    0  0.23936589410E+03  0.79758486857E+03  0.57733948623E+02  0.84258599978E+03  0.11480550675E+03 0.  0.
        254    2    1    2    0    0 -0.23936589410E+03 -0.79758486857E+03  0.90076383096E+03  0.15201853798E+04  0.89785881745E+03 0.  0.
        -24    2    4    4    0    0 -0.44938993880E+03 -0.11218046793E+03  0.18752054243E+03  0.50575154410E+03  0.78005743698E+02 0.  0.
         24    2    4    4    0    0  0.21002404469E+03 -0.68540440063E+03  0.71324328853E+03  0.10144338357E+04  0.80440827296E+02 0.  0.
         13    1    3    3    0    0  0.31584634732E+02  0.29473484591E+03  0.14283326294E+02  0.29676629181E+03  0.00000000000E+00 0.  1.
        -13    1    3    3    0    0  0.20778125937E+03  0.50285002266E+03  0.43450622329E+02  0.54581970797E+03  0.00000000000E+00 0. -1.
          2    1    6    6  502    0  0.11754178557E+03 -0.25552591827E+03  0.26223798841E+03  0.38454951414E+03  0.00000000000E+00 0. -1.
          3    1    5    5  503    0 -0.10176790708E+03 -0.59893230382E+02  0.51368241236E+02  0.12877345287E+03  0.00000000000E+00 0. -1.
         -4    1    5    5    0  503 -0.34762203172E+03 -0.52287237550E+02  0.13615230119E+03  0.37697809123E+03  0.00000000000E+00 0.  1.
         -1    1    6    6    0  502  0.92482259124E+02 -0.42987848236E+03  0.45100530012E+03  0.62988432159E+03  0.00000000000E+00 0.  1.
<mgrwt>
<rscale>  0 0.21596228E+04</rscale>
<asrwt>0</asrwt>
<pdfrwt beam="1">  1        2 0.25548224E+00 0.21596228E+04</pdfrwt>
<pdfrwt beam="2">  1       -2 0.10802105E+00 0.21596228E+04</pdfrwt>
<totfact> 0.64947830E+00</totfact>
</mgrwt>
</event>
<event>
12    1  0.4612066E-007  0.1605987E+04  0.7818608E-02  0.8816878E-01
         -1   -1    0    0    0  501 -0.00000000000E+00  0.00000000000E+00  0.99199545419E+03  0.99199545419E+03  0.00000000000E+00 0.  1.
          1   -1    0    0  501    0  0.00000000000E+00 -0.00000000000E+00 -0.65000146970E+03  0.65000146970E+03  0.00000000000E+00 0. -1.
         23    2    1    2    0    0  0.50558720653E+03  0.17308994681E+03  0.12409208960E+03  0.55597317176E+03  0.90159680118E+02 0.  0.
        254    2    1    2    0    0 -0.50558720653E+03 -0.17308994681E+03  0.21790189489E+03  0.10860237521E+04  0.91999337024E+03 0.  0.
        -24    2    4    4    0    0 -0.87805403741E+02  0.28551118778E+03 -0.16742874155E+03  0.35122412396E+03  0.78099772620E+02 0.  0.
         24    2    4    4    0    0 -0.41778180279E+03 -0.45860113459E+03  0.38533063644E+03  0.73479962817E+03  0.81204425866E+02 0.  0.
         11    1    3    3    0    0  0.27508620475E+03  0.13121464987E+03  0.98529167872E+02  0.32030875934E+03  0.00000000000E+00 0.  1.
        -11    1    3    3    0    0  0.23050100178E+03  0.41875296939E+02  0.25562921725E+02  0.23566441242E+03  0.00000000000E+00 0. -1.
          2    1    6    6  502    0 -0.24107653405E+03 -0.21809703852E+03  0.23109484625E+03  0.39885967638E+03  0.00000000000E+00 0. -1.
          3    1    5    5  503    0 -0.76779192561E+02  0.28424415482E+03 -0.14968697458E+03  0.33029679732E+03  0.00000000000E+00 0. -1.
         -4    1    5    5    0  503 -0.11026211180E+02  0.12670329633E+01 -0.17741766965E+02  0.20927326646E+02  0.00000000000E+00 0.  1.
         -1    1    6    6    0  502 -0.17670526874E+03 -0.24050409607E+03  0.15423579019E+03  0.33593995178E+03  0.00000000000E+00 0.  1.
<mgrwt>
<rscale>  0 0.16059869E+04</rscale>
<asrwt>0</asrwt>
<pdfrwt beam="1">  1        1 0.10000023E+00 0.16059869E+04</pdfrwt>
<pdfrwt beam="2">  1       -1 0.15261469E+00 0.16059869E+04</pdfrwt>
<totfact> 0.97253839E+00</totfact>
</mgrwt>
</event>
<event>
12    1  0.4612066E-007  0.2150756E+04  0.7818608E-02  0.8539209E-01
          1   -1    0    0  501    0  0.00000000000E+00  0.00000000000E+00  0.10892083735E+04  0.10892083735E+04  0.00000000000E+00 0. -1.
         -1   -1    0    0    0  501 -0.00000000000E+00 -0.00000000000E+00 -0.10617232180E+04  0.10617232180E+04  0.00000000000E+00 0.  1.
         23    2    1    2    0    0 -0.78444133498E+03  0.23581482394E+03  0.27892392085E+03  0.87027671964E+03  0.92877208788E+02 0.  0.
        254    2    1    2    0    0  0.78444133498E+03 -0.23581482394E+03 -0.25143876531E+03  0.12806548719E+04  0.95178706073E+03 0.  0.
        -24    2    4    4    0    0  0.32615477813E+03 -0.58097758279E+03 -0.19367188338E+03  0.69850338488E+03  0.80537502227E+02 0.  0.
         24    2    4    4    0    0  0.45828655685E+03  0.34516275885E+03 -0.57766881928E+02  0.58215148701E+03  0.79996518045E+02 0.  0.
         13    1    3    3    0    0 -0.33614157238E+03  0.75416736097E+02  0.76424001853E+02  0.35287316252E+03  0.00000000000E+00 0.  1.
        -13    1    3    3    0    0 -0.44829976260E+03  0.16039808784E+03  0.20249991900E+03  0.51740355712E+03  0.00000000000E+00 0. -1.
          2    1    6    6  502    0  0.25211185484E+03  0.19622946008E+03  0.75144474383E+01  0.31956666796E+03  0.00000000000E+00 0. -1.
          3    1    5    5  503    0  0.27712386291E+03 -0.47354622656E+03 -0.18901937516E+03  0.58032059094E+03  0.00000000000E+00 0. -1.
         -4    1    5    5    0  503  0.49030915220E+02 -0.10743135623E+03 -0.46525082188E+01  0.11818279393E+03  0.00000000000E+00 0.  1.
         -1    1    6    6    0  502  0.20617470201E+03  0.14893329877E+03 -0.65281329366E+02  0.26258481905E+03  0.00000000000E+00 0.  1.
<mgrwt>
<rscale>  0 0.21507560E+04</rscale>
<asrwt>0</asrwt>
<pdfrwt beam="1">  1        1 0.16757052E+00 0.21507560E+04</pdfrwt>
<pdfrwt beam="2">  1       -1 0.16334203E+00 0.21507560E+04</pdfrwt>
<totfact> 0.32621548E+00</totfact>
</mgrwt>
</event>
<event>
12    1  0.4612066E-007  0.2566369E+04  0.7818608E-02  0.8379715E-01
          2   -1    0    0  501    0  0.00000000000E+00  0.00000000000E+00  0.18950312571E+04  0.18950312571E+04  0.00000000000E+00 0.  1.
         -2   -1    0    0    0  501 -0.00000000000E+00 -0.00000000000E+00 -0.86888425583E+03  0.86888425583E+03  0.00000000000E+00 0. -1.
         23    2    1    2    0    0  0.98706888364E+02  0.11095079517E+04  0.34203520606E+03  0.11687791500E+04  0.91135473764E+02 0.  0.
        254    2    1    2    0    0 -0.98706888364E+02 -0.11095079517E+04  0.68411179521E+03  0.15951363630E+04  0.91416635438E+03 0.  0.
        -24    2    4    4    0    0 -0.13484243240E+03 -0.12585415354E+04  0.62426076291E+03  0.14136078648E+04  0.80476191871E+02 0.  0.
         24    2    4    4    0    0  0.36135544039E+02  0.14903358371E+03  0.59851032305E+02  0.18152849817E+03  0.76509234502E+02 0.  0.
         13    1    3    3    0    0  0.23014307251E+02  0.63627090585E+03  0.22671567787E+03  0.67584785460E+03  0.00000000000E+00 0.  1.
        -13    1    3    3    0    0  0.75692581113E+02  0.47323704582E+03  0.11531952819E+03  0.49293129536E+03  0.00000000000E+00 0. -1.
          4    1    6    6  502    0  0.47606575279E+02  0.12849833561E+03  0.24712971235E+02  0.13924417119E+03  0.00000000000E+00 0. -1.
          3    1    5    5  503    0 -0.98930906673E+02 -0.10295803718E+04  0.54164606296E+03  0.11675630706E+04  0.00000000000E+00 0. -1.
         -4    1    5    5    0  503 -0.35911525730E+02 -0.22896116357E+03  0.82614699946E+02  0.24604479419E+03  0.00000000000E+00 0.  1.
         -3    1    6    6    0  502 -0.11471031239E+02  0.20535248102E+02  0.35138061070E+02  0.42284326979E+02  0.00000000000E+00 0.  1.
<mgrwt>
<rscale>  0 0.25663693E+04</rscale>
<asrwt>0</asrwt>
<pdfrwt beam="1">  1        2 0.29154327E+00 0.25663693E+04</pdfrwt>
<pdfrwt beam="2">  1       -2 0.13367450E+00 0.25663693E+04</pdfrwt>
<totfact> 0.27426836E+00</totfact>
</mgrwt>
</event>
<event>
12    1  0.4612066E-007  0.2263813E+04  0.7818608E-02  0.8492327E-01
         -2   -1    0    0    0  501 -0.00000000000E+00  0.00000000000E+00  0.88671489033E+03  0.88671489033E+03  0.00000000000E+00 0.  1.
          2   -1    0    0  501    0  0.00000000000E+00 -0.00000000000E+00 -0.14448975218E+04  0.14448975218E+04  0.00000000000E+00 0. -1.
         23    2    1    2    0    0  0.67003923050E+03 -0.52084576482E+03 -0.67562192978E+03  0.10886075628E+04  0.91479793449E+02 0.  0.
        254    2    1    2    0    0 -0.67003923050E+03  0.52084576482E+03  0.11743929831E+03  0.12430048493E+04  0.90057547467E+03 0.  0.
        -24    2    4    4    0    0 -0.73668767227E+03  0.66363262659E+03  0.24568593114E+03  0.10245692932E+04  0.79143352600E+02 0.  0.
         24    2    4    4    0    0  0.66648441770E+02 -0.14278686178E+03 -0.12824663283E+03  0.21843555614E+03  0.80229612173E+02 0.  0.
         11    1    3    3    0    0  0.57976434012E+03 -0.47494675346E+03 -0.62235512159E+03  0.97418017126E+03  0.00000000000E+00 0. -1.
        -11    1    3    3    0    0  0.90274890378E+02 -0.45899011353E+02 -0.53266808182E+02  0.11442739152E+03  0.00000000000E+00 0.  1.
          4    1    6    6  502    0  0.42993438664E+02 -0.58342750391E+02 -0.10522768874E+03  0.12777002296E+03  0.00000000000E+00 0. -1.
          1    1    5    5  503    0 -0.66758569688E+03  0.57612830782E+03  0.20088142039E+03  0.90440468531E+03  0.00000000000E+00 0. -1.
         -2    1    5    5    0  503 -0.69101975388E+02  0.87504318772E+02  0.44804510750E+02  0.12016460789E+03  0.00000000000E+00 0.  1.
         -3    1    6    6    0  502  0.23655003106E+02 -0.84444111385E+02 -0.23018944091E+02  0.90665533179E+02  0.00000000000E+00 0.  1.
<mgrwt>
<rscale>  0 0.22638128E+04</rscale>
<asrwt>0</asrwt>
<pdfrwt beam="1">  1        2 0.22229192E+00 0.22638128E+04</pdfrwt>
<pdfrwt beam="2">  1       -2 0.13641768E+00 0.22638128E+04</pdfrwt>
<totfact> 0.47650763E+00</totfact>
</mgrwt>
</event>
<event>
12    1  0.4612066E-007  0.2280865E+04  0.7818608E-02  0.8485504E-01
          2   -1    0    0  501    0  0.00000000000E+00  0.00000000000E+00  0.12694301221E+04  0.12694301221E+04  0.00000000000E+00 0. -1.
         -2   -1    0    0    0  501 -0.00000000000E+00 -0.00000000000E+00 -0.10245429993E+04  0.10245429993E+04  0.00000000000E+00 0.  1.
         23    2    1    2    0    0 -0.28211748973E+03  0.88438390604E+03  0.33084434594E+03  0.98966276355E+03  0.90825288644E+02 0.  0.
        254    2    1    2    0    0  0.28211748973E+03 -0.88438390604E+03 -0.85957223067E+02  0.13043103579E+04  0.91220156445E+03 0.  0.
        -24    2    4    4    0    0  0.11421657867E+03 -0.28938632454E+03  0.40060773993E+03  0.51344151047E+03  0.79660226638E+02 0.  0.
         24    2    4    4    0    0  0.16790091107E+03 -0.59499758150E+03 -0.48656496300E+03  0.79086884740E+03  0.80716991106E+02 0.  0.
         11    1    3    3    0    0 -0.22297298983E+03  0.60249949599E+03  0.19623332471E+03  0.67173664079E+03  0.00000000000E+00 0.  1.
        -11    1    3    3    0    0 -0.59144499906E+02  0.28188441005E+03  0.13461102123E+03  0.31792612276E+03  0.00000000000E+00 0. -1.
          4    1    6    6  502    0  0.48787385023E+02 -0.31870563616E+03 -0.26139688004E+03  0.41506845261E+03  0.00000000000E+00 0. -1.
          3    1    5    5  503    0  0.12471079649E+03 -0.28186779020E+03  0.38541152630E+03  0.49350205524E+03  0.00000000000E+00 0. -1.
         -4    1    5    5    0  503 -0.10494217825E+02 -0.75185343335E+01  0.15196213630E+02  0.19939455233E+02  0.00000000000E+00 0.  1.
         -3    1    6    6    0  502  0.11911352604E+03 -0.27629194534E+03 -0.22516808296E+03  0.37580039480E+03  0.00000000000E+00 0.  1.
<mgrwt>
<rscale>  0 0.22808645E+04</rscale>
<asrwt>0</asrwt>
<pdfrwt beam="1">  1        2 0.19529694E+00 0.22808645E+04</pdfrwt>
<pdfrwt beam="2">  1       -2 0.15762200E+00 0.22808645E+04</pdfrwt>
<totfact> 0.41044753E+00</totfact>
</mgrwt>
</event>
<event>
12    1  0.4612066E-007  0.1268743E+04  0.7818608E-02  0.9054726E-01
          1   -1    0    0  501    0  0.00000000000E+00  0.00000000000E+00  0.14889677133E+04  0.14889677133E+04  0.00000000000E+00 0.  1.
         -1   -1    0    0    0  501 -0.00000000000E+00 -0.00000000000E+00 -0.27027248096E+03  0.27027248096E+03  0.00000000000E+00 0. -1.
         23    2    1    2    0    0  0.34448338787E+02 -0.85753502030E+02 -0.64999698405E+01  0.13379909558E+03  0.96538060967E+02 0.  0.
        254    2    1    2    0    0 -0.34448338787E+02  0.85753502030E+02  0.12251952022E+04  0.16254410987E+04  0.10641499569E+04 0.  0.
        -24    2    4    4    0    0  0.42990312201E+03  0.11291280353E+03  0.10108102467E+04  0.11070803634E+04  0.79520945142E+02 0.  0.
         24    2    4    4    0    0 -0.46435146080E+03 -0.27159301498E+02  0.21438495552E+03  0.51836073531E+03  0.79856345721E+02 0.  0.
         13    1    3    3    0    0  0.25356860184E+02  0.26853852499E+01  0.28509960759E+02  0.38249176655E+02  0.00000000000E+00 0.  1.
        -13    1    3    3    0    0  0.90914786034E+01 -0.88438887280E+02 -0.35009930600E+02  0.95549918928E+02  0.00000000000E+00 0. -1.
          4    1    6    6  502    0 -0.27043359692E+03  0.23426025978E+02  0.12851072569E+03  0.30033001124E+03  0.00000000000E+00 0. -1.
          1    1    5    5  503    0  0.21609703657E+03  0.25145403614E+02  0.42807004952E+03  0.48018141138E+03  0.00000000000E+00 0. -1.
         -2    1    5    5    0  503  0.21380608544E+03  0.87767399913E+02  0.58274019715E+03  0.62689895202E+03  0.00000000000E+00 0.  1.
         -3    1    6    6    0  502 -0.19391786388E+03 -0.50585327476E+02  0.85874229832E+02  0.21803072407E+03  0.00000000000E+00 0.  1.
<mgrwt>
<rscale>  0 0.12687427E+04</rscale>
<asrwt>0</asrwt>
<pdfrwt beam="1">  1        1 0.22907195E+00 0.12687427E+04</pdfrwt>
<pdfrwt beam="2">  1       -1 0.41580383E-01 0.12687427E+04</pdfrwt>
<totfact> 0.37182832E+01</totfact>
</mgrwt>
</event>
<event>
12    1  0.4612066E-007  0.1798101E+04  0.7818608E-02  0.8707310E-01
         -2   -1    0    0    0  501 -0.00000000000E+00  0.00000000000E+00  0.51591898051E+03  0.51591898051E+03  0.00000000000E+00 0.  1.
          2   -1    0    0  501    0  0.00000000000E+00 -0.00000000000E+00 -0.15667029941E+04  0.15667029941E+04  0.00000000000E+00 0. -1.
         23    2    1    2    0    0  0.76248403656E+02 -0.68426435979E+03 -0.48012814480E+03  0.84433365200E+03  0.91349588581E+02 0.  0.
        254    2    1    2    0    0 -0.76248403656E+02  0.68426435979E+03 -0.57065586875E+03  0.12382883226E+04  0.85655024146E+03 0.  0.
        -24    2    4    4    0    0 -0.42295802878E+03  0.59097402733E+03 -0.36931071855E+03  0.81896223735E+03  0.78517159128E+02 0.  0.
         24    2    4    4    0    0  0.34670962513E+03  0.93290332458E+02 -0.20134515019E+03  0.41932608522E+03  0.79898973419E+02 0.  0.
         13    1    3    3    0    0 -0.41328347118E+01 -0.33369993516E+03 -0.25533776566E+03  0.42020245314E+03  0.00000000000E+00 0. -1.
        -13    1    3    3    0    0  0.80381238368E+02 -0.35056442463E+03 -0.22479037913E+03  0.42413119886E+03  0.00000000000E+00 0.  1.
          2    1    6    6  502    0  0.13215652607E+03  0.63195393667E+02 -0.11444552128E+03  0.18589454673E+03  0.00000000000E+00 0. -1.
          1    1    5    5  503    0 -0.32461670010E+03  0.49842972575E+03 -0.31814670141E+03  0.67455579244E+03  0.00000000000E+00 0. -1.
         -2    1    5    5    0  503 -0.98341328677E+02  0.92544301583E+02 -0.51164017140E+02  0.14440644491E+03  0.00000000000E+00 0.  1.
         -1    1    6    6    0  502  0.21455309906E+03  0.30094938791E+02 -0.86899628918E+02  0.23343153849E+03  0.00000000000E+00 0.  1.
<mgrwt>
<rscale>  0 0.17981010E+04</rscale>
<asrwt>0</asrwt>
<pdfrwt beam="1">  1        2 0.24103123E+00 0.17981010E+04</pdfrwt>
<pdfrwt beam="2">  1       -2 0.79372151E-01 0.17981010E+04</pdfrwt>
<totfact> 0.15465721E+01</totfact>
</mgrwt>
</event>
<event>
12    1  0.4612066E-007  0.1561543E+04  0.7818608E-02  0.8844529E-01
         -1   -1    0    0    0  501 -0.00000000000E+00  0.00000000000E+00  0.90855729088E+03  0.90855729088E+03  0.00000000000E+00 0.  1.
          1   -1    0    0  501    0  0.00000000000E+00 -0.00000000000E+00 -0.67095800419E+03  0.67095800419E+03  0.00000000000E+00 0. -1.
         23    2    1    2    0    0  0.23521094633E+02  0.10722251502E+03 -0.43368439951E+03  0.45640483045E+03  0.90406312042E+02 0.  0.
        254    2    1    2    0    0 -0.23521094633E+02 -0.10722251502E+03  0.67128368620E+03  0.11231104646E+04  0.89370320507E+03 0.  0.
        -24    2    4    4    0    0  0.41173224405E+02 -0.36560162520E+03  0.74630017871E+03  0.83501263216E+03  0.70159506718E+02 0.  0.
         24    2    4    4    0    0 -0.64694319038E+02  0.25837911017E+03 -0.75016492503E+02  0.28809783246E+03  0.80173358595E+02 0.  0.
         13    1    3    3    0    0 -0.26575892352E+02  0.68025138749E+02 -0.16756229310E+03  0.18278626760E+03  0.00000000000E+00 0.  1.
        -13    1    3    3    0    0  0.50096986985E+02  0.39197376275E+02 -0.26612210642E+03  0.27361856285E+03  0.00000000000E+00 0. -1.
          4    1    6    6  502    0 -0.32143619037E+02  0.23648078076E+03 -0.59922467871E+02  0.24606315057E+03  0.00000000000E+00 0. -1.
          3    1    5    5  503    0  0.43276799378E+02 -0.36836409612E+03  0.74150094407E+03  0.82908904150E+03  0.00000000000E+00 0. -1.
         -4    1    5    5    0  503 -0.21035749738E+01  0.27624709255E+01  0.47992346371E+01  0.59235906667E+01  0.00000000000E+00 0.  1.
         -3    1    6    6    0  502 -0.32550700001E+02  0.21898329418E+02 -0.15094024632E+02  0.42034681888E+02  0.00000000000E+00 0.  1.
<mgrwt>
<rscale>  0 0.15615426E+04</rscale>
<asrwt>0</asrwt>
<pdfrwt beam="1">  1        1 0.10322431E+00 0.15615426E+04</pdfrwt>
<pdfrwt beam="2">  1       -1 0.13977805E+00 0.15615426E+04</pdfrwt>
<totfact> 0.11769964E+01</totfact>
</mgrwt>
</event>
<event>
12    1  0.4772294E-007  0.1774146E+04  0.7818608E-02  0.8720171E-01
          1   -1    0    0  501    0  0.00000000000E+00  0.00000000000E+00  0.14742952865E+04  0.14742952865E+04  0.00000000000E+00 0. -1.
         -1   -1    0    0    0  501 -0.00000000000E+00 -0.00000000000E+00 -0.53374528559E+03  0.53374528559E+03  0.00000000000E+00 0.  1.
         23    2    1    2    0    0  0.50795761965E+02 -0.48315796660E+03  0.84299226966E+03  0.97715330973E+03  0.90392443738E+02 0.  0.
        254    2    1    2    0    0 -0.50795761965E+02  0.48315796660E+03  0.97557731282E+02  0.10308872624E+04  0.90398518058E+03 0.  0.
        -24    2    4    4    0    0 -0.25117804055E+03 -0.15262235506E+03  0.18042045841E+03  0.35457935055E+03  0.82407418980E+02 0.  0.
         24    2    4    4    0    0  0.20038227859E+03  0.63578032166E+03 -0.82862727127E+02  0.67630791184E+03  0.78463272234E+02 0.  0.
         11    1    3    3    0    0  0.34468709109E+02 -0.27762398081E+03  0.57096998794E+03  0.63582221867E+03  0.00000000000E+00 0. -1.
        -11    1    3    3    0    0  0.16327052856E+02 -0.20553398580E+03  0.27202228172E+03  0.34133109106E+03  0.00000000000E+00 0.  1.
          2    1    6    6  502    0  0.12273129882E+03  0.47483205447E+03 -0.84141041901E+02  0.49760241820E+03  0.00000000000E+00 0. -1.
          1    1    5    5  503    0 -0.21470258572E+03 -0.12998472531E+03  0.18443399823E+03  0.31146288515E+03  0.00000000000E+00 0. -1.
         -2    1    5    5    0  503 -0.36475454837E+02 -0.22637629752E+02 -0.40135398164E+01  0.43116465395E+02  0.00000000000E+00 0.  1.
         -1    1    6    6    0  502  0.77650979766E+02  0.16094826719E+03  0.12783147737E+01  0.17870549364E+03  0.00000000000E+00 0.  1.
<mgrwt>
<rscale>  0 0.17741456E+04</rscale>
<asrwt>0</asrwt>
<pdfrwt beam="1">  1        1 0.22681466E+00 0.17741456E+04</pdfrwt>
<pdfrwt beam="2">  1       -1 0.82114660E-01 0.17741456E+04</pdfrwt>
<totfact> 0.95086864E+00</totfact>
</mgrwt>
</event>
<event>
12    1  0.4612066E-007  0.1873961E+04  0.7818608E-02  0.8667927E-01
         -2   -1    0    0    0  501 -0.00000000000E+00  0.00000000000E+00  0.23946107493E+03  0.23946107493E+03  0.00000000000E+00 0.  1.
          2   -1    0    0  501    0  0.00000000000E+00 -0.00000000000E+00 -0.36662863195E+04  0.36662863195E+04  0.00000000000E+00 0. -1.
         23    2    1    2    0    0 -0.40152019274E+03  0.58748369102E+03 -0.11628452409E+04  0.13663281798E+04  0.91038937723E+02 0.  0.
        254    2    1    2    0    0  0.40152019274E+03 -0.58748369102E+03 -0.22639800036E+04  0.25394192146E+04  0.90370843657E+03 0.  0.
        -24    2    4    4    0    0  0.11668009124E+01  0.21829994255E+03 -0.31505370244E+03  0.39138007468E+03  0.79141020343E+02 0.  0.
         24    2    4    4    0    0  0.40035339183E+03 -0.80578363356E+03 -0.19489263011E+04  0.21480391399E+04  0.78665854906E+02 0.  0.
         11    1    3    3    0    0 -0.25288632641E+03  0.44232750586E+03 -0.83712429123E+03  0.97999091602E+03  0.00000000000E+00 0. -1.
        -11    1    3    3    0    0 -0.14863386633E+03  0.14515618516E+03 -0.32572094972E+03  0.38633726380E+03  0.00000000000E+00 0.  1.
          4    1    6    6  502    0  0.83774219750E+02 -0.10696436474E+03 -0.30715650552E+03  0.33586398155E+03  0.00000000000E+00 0. -1.
          1    1    5    5  503    0  0.17692554125E+02  0.45509507196E+02 -0.29026315390E+02  0.56803773658E+02  0.00000000000E+00 0. -1.
         -2    1    5    5    0  503 -0.16525753213E+02  0.17279043535E+03 -0.28602738705E+03  0.33457630103E+03  0.00000000000E+00 0.  1.
         -3    1    6    6    0  502  0.31657917208E+03 -0.69881926882E+03 -0.16417697956E+04  0.18121751583E+04  0.00000000000E+00 0.  1.
<mgrwt>
<rscale>  0 0.18739614E+04</rscale>
<asrwt>0</asrwt>
<pdfrwt beam="1">  1        2 0.56404402E+00 0.18739614E+04</pdfrwt>
<pdfrwt beam="2">  1       -2 0.36840167E-01 0.18739614E+04</pdfrwt>
<totfact> 0.40621140E+00</totfact>
</mgrwt>
</event>
<event>
12    1  0.4612066E-007  0.1863370E+04  0.7818608E-02  0.8673308E-01
         -2   -1    0    0    0  501 -0.00000000000E+00  0.00000000000E+00  0.42061797902E+03  0.42061797902E+03  0.00000000000E+00 0. -1.
          2   -1    0    0  501    0  0.00000000000E+00 -0.00000000000E+00 -0.20637171442E+04  0.20637171442E+04  0.00000000000E+00 0.  1.
         23    2    1    2    0    0  0.50213238585E+02  0.46127478449E+03  0.78592823452E+02  0.47722652731E+03  0.79199307688E+02 0.  0.
        254    2    1    2    0    0 -0.50213238585E+02 -0.46127478449E+03 -0.17216919886E+04  0.20071085959E+04  0.92139340994E+03 0.  0.
        -24    2    4    4    0    0  0.67073903045E+02 -0.20900996798E+03 -0.16990797367E+04  0.17151029291E+04  0.80759089045E+02 0.  0.
         24    2    4    4    0    0 -0.11728714163E+03 -0.25226481651E+03 -0.22612251885E+02  0.29200566678E+03  0.85803171627E+02 0.  0.
         13    1    3    3    0    0  0.45420172088E+02  0.11310214621E+03  0.96631569107E+01  0.12226391173E+03  0.00000000000E+00 0.  1.
        -13    1    3    3    0    0  0.47930664966E+01  0.34817263828E+03  0.68929666541E+02  0.35496261558E+03  0.00000000000E+00 0. -1.
          2    1    6    6  502    0 -0.57408929419E+02 -0.65606912505E+02 -0.38571703706E+02  0.95330102655E+02  0.00000000000E+00 0. -1.
          1    1    5    5  503    0  0.74529505473E+02 -0.11086925625E+03 -0.10834847695E+04  0.10916894636E+04  0.00000000000E+00 0. -1.
         -2    1    5    5    0  503 -0.74556024285E+01 -0.98140711739E+02 -0.61559496720E+03  0.62341346549E+03  0.00000000000E+00 0.  1.
         -1    1    6    6    0  502 -0.59878212211E+02 -0.18665790400E+03  0.15959451821E+02  0.19667556413E+03  0.00000000000E+00 0.  1.
<mgrwt>
<rscale>  0 0.18633696E+04</rscale>
<asrwt>0</asrwt>
<pdfrwt beam="1">  1        2 0.31749495E+00 0.18633696E+04</pdfrwt>
<pdfrwt beam="2">  1       -2 0.64710458E-01 0.18633696E+04</pdfrwt>
<totfact> 0.12746944E+01</totfact>
</mgrwt>
</event>
<event>
12    1  0.4612066E-007  0.1126459E+04  0.7818608E-02  0.9179780E-01
         -2   -1    0    0    0  501 -0.00000000000E+00  0.00000000000E+00  0.24375763096E+03  0.24375763096E+03  0.00000000000E+00 0.  1.
          2   -1    0    0  501    0  0.00000000000E+00 -0.00000000000E+00 -0.13014057710E+04  0.13014057710E+04  0.00000000000E+00 0. -1.
         23    2    1    2    0    0  0.14232416961E+03 -0.44002467979E+02 -0.34763457821E+02  0.17956772847E+03  0.94040866985E+02 0.  0.
        254    2    1    2    0    0 -0.14232416961E+03  0.44002467979E+02 -0.10228846822E+04  0.13655956735E+04  0.89239345803E+03 0.  0.
        -24    2    4    4    0    0 -0.23241563087E+03  0.43132489667E+03 -0.62061901716E+03  0.79455346400E+03  0.78032369755E+02 0.  0.
         24    2    4    4    0    0  0.90091461263E+02 -0.38732242869E+03 -0.40226566506E+03  0.57104220951E+03  0.78335206644E+02 0.  0.
         13    1    3    3    0    0  0.71088146304E+00  0.86281347970E+01 -0.26930300617E+02  0.28287650200E+02  0.00000000000E+00 0. -1.
        -13    1    3    3    0    0  0.14161328815E+03 -0.52630602776E+02 -0.78331572048E+01  0.15128007827E+03  0.00000000000E+00 0.  1.
          2    1    6    6  502    0  0.58616284680E+02 -0.27979332476E+03 -0.33486900689E+03  0.44029243144E+03  0.00000000000E+00 0. -1.
          1    1    5    5  503    0 -0.22275476433E+03  0.36384592073E+03 -0.55411984267E+03  0.69932277176E+03  0.00000000000E+00 0. -1.
         -2    1    5    5    0  503 -0.96608665400E+01  0.67478975932E+02 -0.66499174494E+02  0.95230692235E+02  0.00000000000E+00 0.  1.
         -1    1    6    6    0  502  0.31475176583E+02 -0.10752910393E+03 -0.67396658171E+02  0.13074977807E+03  0.00000000000E+00 0.  1.
<mgrwt>
<rscale>  0 0.11264592E+04</rscale>
<asrwt>0</asrwt>
<pdfrwt beam="1">  1        2 0.20021627E+00 0.11264592E+04</pdfrwt>
<pdfrwt beam="2">  1       -2 0.37501174E-01 0.11264592E+04</pdfrwt>
<totfact> 0.10960782E+02</totfact>
</mgrwt>
</event>
<event>
12    1  0.4612066E-007  0.1949631E+04  0.7818608E-02  0.8630539E-01
         -1   -1    0    0    0  501 -0.00000000000E+00  0.00000000000E+00  0.23410836133E+04  0.23410836133E+04  0.00000000000E+00 0.  1.
          1   -1    0    0  501    0  0.00000000000E+00 -0.00000000000E+00 -0.40590814327E+03  0.40590814327E+03  0.00000000000E+00 0. -1.
         23    2    1    2    0    0  0.69689888325E+03 -0.14156854403E+03  0.32053425787E+03  0.78543759969E+03  0.91979923903E+02 0.  0.
        254    2    1    2    0    0 -0.69689888325E+03  0.14156854403E+03  0.16146412122E+04  0.19615541569E+04  0.85727402865E+03 0.  0.
        -24    2    4    4    0    0 -0.46869672703E+03 -0.23953565057E+03  0.13183532904E+04  0.14218913234E+04  0.81643049321E+02 0.  0.
         24    2    4    4    0    0 -0.22820215623E+03  0.38110419460E+03  0.29628792174E+03  0.53966283343E+03  0.78312259353E+02 0.  0.
         13    1    3    3    0    0  0.26364103171E+03 -0.51690514803E+02  0.17056933931E+03  0.31823325162E+03  0.00000000000E+00 0.  1.
        -13    1    3    3    0    0  0.43325785154E+03 -0.89878029231E+02  0.14996491856E+03  0.46720434807E+03  0.00000000000E+00 0. -1.
          2    1    6    6  502    0 -0.19049299799E+03  0.32878842376E+03  0.28306785815E+03  0.47383206117E+03  0.00000000000E+00 0. -1.
          1    1    5    5  503    0 -0.44405739441E+03 -0.24063639167E+03  0.12183082894E+04  0.13188509888E+04  0.00000000000E+00 0. -1.
         -2    1    5    5    0  503 -0.24639332615E+02  0.11007411080E+01  0.10004500101E+03  0.10304033468E+03  0.00000000000E+00 0.  1.
         -1    1    6    6    0  502 -0.37709158242E+02  0.52315770844E+02  0.13220063590E+02  0.65830772255E+02  0.00000000000E+00 0.  1.
<mgrwt>
<rscale>  0 0.19496306E+04</rscale>
<asrwt>0</asrwt>
<pdfrwt beam="1">  1        1 0.62447408E-01 0.19496306E+04</pdfrwt>
<pdfrwt beam="2">  1       -1 0.36016670E+00 0.19496306E+04</pdfrwt>
<totfact> 0.73022332E-01</totfact>
</mgrwt>
</event>
<event>
12    1  0.4612066E-007  0.2299980E+04  0.7818608E-02  0.8477929E-01
         -2   -1    0    0    0  501 -0.00000000000E+00  0.00000000000E+00  0.79532176933E+03  0.79532176933E+03  0.00000000000E+00 0.  1.
          2   -1    0    0  501    0  0.00000000000E+00 -0.00000000000E+00 -0.16628198171E+04  0.16628198171E+04  0.00000000000E+00 0. -1.
         23    2    1    2    0    0 -0.70396724673E+03  0.50470248326E+03  0.10382010837E+03  0.87773915576E+03  0.96710545280E+02 0.  0.
        254    2    1    2    0    0  0.70396724673E+03 -0.50470248326E+03 -0.97131815610E+03  0.15804024306E+04  0.89661496825E+03 0.  0.
        -24    2    4    4    0    0  0.32632525587E+03  0.41152365470E+02 -0.83016007507E+03  0.89715409060E+03  0.86821784418E+02 0.  0.
         24    2    4    4    0    0  0.37764199086E+03 -0.54585484873E+03 -0.14115808104E+03  0.68324834003E+03  0.79571987312E+02 0.  0.
         11    1    3    3    0    0 -0.66065938464E+03  0.44214227591E+03  0.10335386400E+03  0.80164994597E+03  0.00000000000E+00 0.  1.
        -11    1    3    3    0    0 -0.43307862083E+02  0.62560207356E+02  0.46624436734E+00  0.76089209790E+02  0.00000000000E+00 0. -1.
          4    1    6    6  502    0  0.68878194022E+01 -0.34546400125E+02  0.32253201971E+01  0.35373697970E+02  0.00000000000E+00 0. -1.
          1    1    5    5  503    0  0.23066569786E+03  0.55199771241E+01 -0.48272581316E+03  0.53503396622E+03  0.00000000000E+00 0. -1.
         -2    1    5    5    0  503  0.95659558010E+02  0.35632388346E+02 -0.34743426191E+03  0.36212012439E+03  0.00000000000E+00 0.  1.
         -3    1    6    6    0  502  0.37075417146E+03 -0.51130844861E+03 -0.14438340124E+03  0.64787464206E+03  0.00000000000E+00 0.  1.
<mgrwt>
<rscale>  0 0.22999798E+04</rscale>
<asrwt>0</asrwt>
<pdfrwt beam="1">  1        2 0.25581843E+00 0.22999798E+04</pdfrwt>
<pdfrwt beam="2">  1       -2 0.12235720E+00 0.22999798E+04</pdfrwt>
<totfact> 0.47179769E+00</totfact>
</mgrwt>
</event>
<event>
12    1  0.4612066E-007  0.4709609E+04  0.7818608E-02  0.7874934E-01
          2   -1    0    0  501    0  0.00000000000E+00  0.00000000000E+00  0.24983134406E+04  0.24983134406E+04  0.00000000000E+00 0. -1.
         -2   -1    0    0    0  501 -0.00000000000E+00 -0.00000000000E+00 -0.22195394677E+04  0.22195394677E+04  0.00000000000E+00 0.  1.
         23    2    1    2    0    0 -0.12730215114E+04 -0.17746304687E+04  0.73987383297E+03  0.23078795459E+04  0.94855895614E+02 0.  0.
        254    2    1    2    0    0  0.12730215114E+04  0.17746304687E+04 -0.46109986003E+03  0.24099733624E+04  0.90854909481E+03 0.  0.
        -24    2    4    4    0    0  0.41336552583E+02  0.35975931075E+03 -0.37911716197E+03  0.53063782285E+03  0.81921940223E+02 0.  0.
         24    2    4    4    0    0  0.12316849588E+04  0.14148711579E+04 -0.81982698064E+02  0.18793355395E+04  0.79200227843E+02 0.  0.
         11    1    3    3    0    0 -0.10793992748E+03 -0.19350248584E+03  0.60616466814E+02  0.22971416156E+03  0.00000000000E+00 0.  1.
        -11    1    3    3    0    0 -0.11650815839E+04 -0.15811279828E+04  0.67925736616E+03  0.20781653844E+04  0.00000000000E+00 0. -1.
          4    1    6    6  502    0  0.39361209893E+02  0.65055944497E+02 -0.11901896387E+02  0.76962561653E+02  0.00000000000E+00 0. -1.
          3    1    5    5  503    0  0.49834361084E+00 -0.37114423778E+01  0.13850950518E+00  0.37473104704E+01  0.00000000000E+00 0. -1.
         -4    1    5    5    0  503  0.40838208972E+02  0.36347075313E+03 -0.37925567148E+03  0.52689051238E+03  0.00000000000E+00 0.  1.
         -3    1    6    6    0  502  0.11923237489E+04  0.13498152134E+04 -0.70080801677E+02  0.18023729779E+04  0.00000000000E+00 0.  1.
<mgrwt>
<rscale>  0 0.47096094E+04</rscale>
<asrwt>0</asrwt>
<pdfrwt beam="1">  1        2 0.38435591E+00 0.47096094E+04</pdfrwt>
<pdfrwt beam="2">  1       -2 0.34146761E+00 0.47096094E+04</pdfrwt>
<totfact> 0.45758989E-02</totfact>
</mgrwt>
</event>
<event>
12    1  0.4612066E-007  0.2654855E+04  0.7818608E-02  0.8349803E-01
          1   -1    0    0  501    0  0.00000000000E+00  0.00000000000E+00  0.98250006027E+03  0.98250006027E+03  0.00000000000E+00 0. -1.
         -1   -1    0    0    0  501 -0.00000000000E+00 -0.00000000000E+00 -0.17934491091E+04  0.17934491091E+04  0.00000000000E+00 0.  1.
         23    2    1    2    0    0  0.51245501999E+03 -0.64114063579E+03 -0.12380909322E+04  0.14883056513E+04  0.92266423654E+02 0.  0.
        254    2    1    2    0    0 -0.51245501999E+03  0.64114063579E+03  0.42714188335E+03  0.12876435181E+04  0.89549102664E+03 0.  0.
        -24    2    4    4    0    0 -0.25651077636E+03  0.35259679719E+01 -0.21488548338E+03  0.34407543110E+03  0.80012002090E+02 0.  0.
         24    2    4    4    0    0 -0.25594424362E+03  0.63761466782E+03  0.64202736673E+03  0.94356808699E+03  0.77856757540E+02 0.  0.
         11    1    3    3    0    0  0.33210126474E+03 -0.37497095844E+03 -0.68579736746E+03  0.84924230873E+03  0.00000000000E+00 0. -1.
        -11    1    3    3    0    0  0.18035375524E+03 -0.26616967734E+03 -0.55229356473E+03  0.63906334256E+03  0.00000000000E+00 0.  1.
          4    1    6    6  502    0 -0.23820097974E+03  0.56078868997E+03  0.59576524157E+03  0.85215015380E+03  0.00000000000E+00 0. -1.
          1    1    5    5  503    0 -0.14681092960E+03 -0.51852120624E+01 -0.17142671908E+03  0.22575972956E+03  0.00000000000E+00 0. -1.
         -2    1    5    5    0  503 -0.10969984676E+03  0.87111800343E+01 -0.43458764299E+02  0.11831570154E+03  0.00000000000E+00 0.  1.
         -3    1    6    6    0  502 -0.17743263883E+02  0.76825977845E+02  0.46262125157E+02  0.91417933192E+02  0.00000000000E+00 0.  1.
<mgrwt>
<rscale>  0 0.26548551E+04</rscale>
<asrwt>0</asrwt>
<pdfrwt beam="1">  1        1 0.15115386E+00 0.26548551E+04</pdfrwt>
<pdfrwt beam="2">  1       -1 0.27591524E+00 0.26548551E+04</pdfrwt>
<totfact> 0.64753538E-01</totfact>
</mgrwt>
</event>
<event>
12    1  0.4612066E-007  0.2215879E+04  0.7818608E-02  0.8511848E-01
         -1   -1    0    0    0  501 -0.00000000000E+00  0.00000000000E+00  0.13495396516E+04  0.13495396516E+04  0.00000000000E+00 0.  1.
          1   -1    0    0  501    0  0.00000000000E+00 -0.00000000000E+00 -0.90959139719E+03  0.90959139719E+03  0.00000000000E+00 0. -1.
         23    2    1    2    0    0 -0.31231178092E+03  0.80080377225E+03  0.51272749467E+03  0.10050582068E+04  0.91799700834E+02 0.  0.
        254    2    1    2    0    0  0.31231178092E+03 -0.80080377225E+03 -0.72779240219E+02  0.12540728420E+04  0.91026180036E+03 0.  0.
        -24    2    4    4    0    0  0.90357896646E+02 -0.10449526371E+03 -0.41402732885E+03  0.44360612117E+03  0.79271382443E+02 0.  0.
         24    2    4    4    0    0  0.22195388428E+03 -0.69630850854E+03  0.34124808864E+03  0.81046672088E+03  0.79353524471E+02 0.  0.
         13    1    3    3    0    0 -0.30384651624E+03  0.79938852763E+03  0.51123603467E+03  0.99634683052E+03  0.00000000000E+00 0. -1.
        -13    1    3    3    0    0 -0.84652646801E+01  0.14152446234E+01  0.14914599925E+01  0.87113762608E+01  0.00000000000E+00 0.  1.
          4    1    6    6  502    0  0.71230911857E+02 -0.26090945814E+03  0.16703986458E+03  0.31788347631E+03  0.00000000000E+00 0. -1.
          1    1    5    5  503    0  0.78562796643E+02 -0.99502834891E+02 -0.26222355385E+03  0.29126297286E+03  0.00000000000E+00 0. -1.
         -2    1    5    5    0  503  0.11795100004E+02 -0.49924288235E+01 -0.15180377501E+03  0.15234314831E+03  0.00000000000E+00 0.  1.
         -3    1    6    6    0  502  0.15072297242E+03 -0.43539905040E+03  0.17420822406E+03  0.49258324457E+03  0.00000000000E+00 0.  1.
<mgrwt>
<rscale>  0 0.22158787E+04</rscale>
<asrwt>0</asrwt>
<pdfrwt beam="1">  1        1 0.13993714E+00 0.22158787E+04</pdfrwt>
<pdfrwt beam="2">  1       -1 0.20762149E+00 0.22158787E+04</pdfrwt>
<totfact> 0.21709299E+00</totfact>
</mgrwt>
</event>
<event>
12    1  0.4612066E-007  0.2726764E+04  0.7818608E-02  0.8326373E-01
         -2   -1    0    0    0  501 -0.00000000000E+00  0.00000000000E+00  0.20078481573E+04  0.20078481573E+04  0.00000000000E+00 0.  1.
          2   -1    0    0  501    0  0.00000000000E+00 -0.00000000000E+00 -0.92577240099E+03  0.92577240099E+03  0.00000000000E+00 0. -1.
         23    2    1    2    0    0  0.81609724786E+03 -0.19629851499E+03  0.14269518287E+04  0.16580659148E+04  0.91887057748E+02 0.  0.
        254    2    1    2    0    0 -0.81609724786E+03  0.19629851499E+03 -0.34487607236E+03  0.12755546435E+04  0.89641079780E+03 0.  0.
        -24    2    4    4    0    0 -0.77878289603E+03 -0.20874509655E+03 -0.27379364494E+03  0.85525651827E+03  0.80146350846E+02 0.  0.
         24    2    4    4    0    0 -0.37314351833E+02  0.40504361155E+03 -0.71082427422E+02  0.42029812527E+03  0.78390780757E+02 0.  0.
         11    1    3    3    0    0  0.27032144031E+03 -0.72274378366E+02  0.56234092552E+03  0.62811191947E+03  0.00000000000E+00 0.  1.
        -11    1    3    3    0    0  0.54577580755E+03 -0.12402413663E+03  0.86461090316E+03  0.10299539953E+04  0.00000000000E+00 0. -1.
          4    1    6    6  502    0 -0.45857197476E+02  0.15083409803E+03 -0.48509777031E+02  0.16494546418E+03  0.00000000000E+00 0. -1.
          3    1    5    5  503    0 -0.29979313637E+03 -0.83586990284E+02 -0.64922461077E+02  0.31792709150E+03  0.00000000000E+00 0. -1.
         -4    1    5    5    0  503 -0.47898975966E+03 -0.12515810627E+03 -0.20887118386E+03  0.53732942677E+03  0.00000000000E+00 0.  1.
         -3    1    6    6    0  502  0.85428456434E+01  0.25420951352E+03 -0.22572650392E+02  0.25535266108E+03  0.00000000000E+00 0.  1.
<mgrwt>
<rscale>  0 0.27267639E+04</rscale>
<asrwt>0</asrwt>
<pdfrwt beam="1">  1        2 0.14242652E+00 0.27267639E+04</pdfrwt>
<pdfrwt beam="2">  1       -2 0.30889971E+00 0.27267639E+04</pdfrwt>
<totfact> 0.69128640E-01</totfact>
</mgrwt>
</event>
<event>
12    1  0.4612066E-007  0.2095454E+04  0.7818608E-02  0.8563249E-01
          1   -1    0    0  501    0  0.00000000000E+00  0.00000000000E+00  0.11443923780E+04  0.11443923780E+04  0.00000000000E+00 0. -1.
         -1   -1    0    0    0  501 -0.00000000000E+00 -0.00000000000E+00 -0.95922639173E+03  0.95922639173E+03  0.00000000000E+00 0.  1.
         23    2    1    2    0    0  0.46201352123E+02  0.65027042974E+02  0.92697397769E+03  0.93464800751E+03  0.89011580004E+02 0.  0.
        254    2    1    2    0    0 -0.46201352123E+02 -0.65027042974E+02 -0.74180799142E+03  0.11689707622E+04  0.89991692147E+03 0.  0.
        -24    2    4    4    0    0  0.25755712337E+03  0.11218705966E+03 -0.75398878630E+03  0.80859332180E+03  0.80015386237E+02 0.  0.
         24    2    4    4    0    0 -0.30375847549E+03 -0.17721410263E+03  0.12180794885E+02  0.36037744043E+03  0.77778391596E+02 0.  0.
         13    1    3    3    0    0  0.64995775761E+02  0.53356523514E+02  0.49376290317E+03  0.50087241291E+03  0.00000000000E+00 0. -1.
        -13    1    3    3    0    0 -0.18794423637E+02  0.11670519459E+02  0.43321107452E+03  0.43377559460E+03  0.00000000000E+00 0.  1.
          2    1    6    6  502    0 -0.27299685837E+03 -0.18316146434E+03  0.13415484138E+02  0.32902185629E+03  0.00000000000E+00 0. -1.
          1    1    5    5  503    0  0.22613352169E+03  0.87777788015E+02 -0.55546157063E+03  0.60611786490E+03  0.00000000000E+00 0. -1.
         -2    1    5    5    0  503  0.31423601678E+02  0.24409271643E+02 -0.19852721567E+03  0.20247545690E+03  0.00000000000E+00 0.  1.
         -1    1    6    6    0  502 -0.30761617122E+02  0.59473617079E+01 -0.12346892538E+01  0.31355584140E+02  0.00000000000E+00 0.  1.
<mgrwt>
<rscale>  0 0.20954535E+04</rscale>
<asrwt>0</asrwt>
<pdfrwt beam="1">  1        1 0.17606036E+00 0.20954535E+04</pdfrwt>
<pdfrwt beam="2">  1       -1 0.14757329E+00 0.20954535E+04</pdfrwt>
<totfact> 0.39394457E+00</totfact>
</mgrwt>
</event>
<event>
12    1  0.4612066E-007  0.2451136E+04  0.7818608E-02  0.8420603E-01
          1   -1    0    0  501    0  0.00000000000E+00  0.00000000000E+00  0.18100178566E+04  0.18100178566E+04  0.00000000000E+00 0. -1.
         -1   -1    0    0    0  501 -0.00000000000E+00 -0.00000000000E+00 -0.82983539593E+03  0.82983539593E+03  0.00000000000E+00 0.  1.
         23    2    1    2    0    0  0.25308559965E+03  0.98776888733E+03  0.68906700277E+03  0.12340441196E+04  0.91169398497E+02 0.  0.
        254    2    1    2    0    0 -0.25308559965E+03 -0.98776888733E+03  0.29111545795E+03  0.14058091330E+04  0.92293629955E+03 0.  0.
        -24    2    4    4    0    0  0.27477903091E+03 -0.38293605936E+03  0.35745425793E+03  0.59626714511E+03  0.74949452556E+02 0.  0.
         24    2    4    4    0    0 -0.52786463056E+03 -0.60483282797E+03 -0.66338799984E+02  0.80954198789E+03  0.80582726360E+02 0.  0.
         11    1    3    3    0    0  0.88005665297E+02  0.52581384800E+03  0.36502975347E+03  0.64612067046E+03  0.00000000000E+00 0.  1.
        -11    1    3    3    0    0  0.16507993435E+03  0.46195503933E+03  0.32403724930E+03  0.58792344911E+03  0.00000000000E+00 0. -1.
          4    1    6    6  502    0 -0.31848801168E+03 -0.30439852012E+03 -0.31166409812E+02  0.44166097602E+03  0.00000000000E+00 0. -1.
          1    1    5    5  503    0  0.24943019603E+03 -0.30951606659E+03  0.27746004870E+03  0.48476767301E+03  0.00000000000E+00 0. -1.
         -2    1    5    5    0  503  0.25348834876E+02 -0.73419992762E+02  0.79994209238E+02  0.11149947210E+03  0.00000000000E+00 0.  1.
         -3    1    6    6    0  502 -0.20937661888E+03 -0.30043430785E+03 -0.35172390172E+02  0.36788101187E+03  0.00000000000E+00 0.  1.
<mgrwt>
<rscale>  0 0.24511360E+04</rscale>
<asrwt>0</asrwt>
<pdfrwt beam="1">  1        1 0.27846428E+00 0.24511360E+04</pdfrwt>
<pdfrwt beam="2">  1       -1 0.12766698E+00 0.24511360E+04</pdfrwt>
<totfact> 0.18992266E+00</totfact>
</mgrwt>
</event>
<event>
12    1  0.4612066E-007  0.2374006E+04  0.7818608E-02  0.8449300E-01
          2   -1    0    0  501    0  0.00000000000E+00  0.00000000000E+00  0.13870180320E+04  0.13870180320E+04  0.00000000000E+00 0. -1.
         -2   -1    0    0    0  501 -0.00000000000E+00 -0.00000000000E+00 -0.10158310566E+04  0.10158310566E+04  0.00000000000E+00 0.  1.
         23    2    1    2    0    0 -0.37036412418E+03  0.59930974138E+01  0.11089798340E+04  0.11733083805E+04  0.98034594777E+02 0.  0.
        254    2    1    2    0    0  0.37036412418E+03 -0.59930974138E+01 -0.73779285852E+03  0.12295407081E+04  0.91116768442E+03 0.  0.
        -24    2    4    4    0    0  0.11724339446E+03  0.22112798458E+03 -0.82739507628E+03  0.86883367054E+03  0.87439897618E+02 0.  0.
         24    2    4    4    0    0  0.25312072972E+03 -0.22712108199E+03  0.89602217757E+02  0.36070703758E+03  0.80168072394E+02 0.  0.
         13    1    3    3    0    0 -0.36056809171E+02  0.15200932112E+01  0.43055534355E+02  0.56179918205E+02  0.00000000000E+00 0.  1.
        -13    1    3    3    0    0 -0.33430731501E+03  0.44730042026E+01  0.10659242996E+04  0.11171284623E+04  0.00000000000E+00 0. -1.
          4    1    6    6  502    0  0.28100814876E+02 -0.38644187476E+02  0.41456388522E+02  0.63258684555E+02  0.00000000000E+00 0. -1.
          1    1    5    5  503    0  0.74359505154E+01  0.37752134927E+01 -0.12773658493E+03  0.12800851818E+03  0.00000000000E+00 0. -1.
         -2    1    5    5    0  503  0.10980744395E+03  0.21735277109E+03 -0.69965849135E+03  0.74082515235E+03  0.00000000000E+00 0.  1.
         -3    1    6    6    0  502  0.22501991484E+03 -0.18847689452E+03  0.48145829236E+02  0.29744835302E+03  0.00000000000E+00 0.  1.
<mgrwt>
<rscale>  0 0.23740059E+04</rscale>
<asrwt>0</asrwt>
<pdfrwt beam="1">  1        2 0.21338739E+00 0.23740059E+04</pdfrwt>
<pdfrwt beam="2">  1       -2 0.15628170E+00 0.23740059E+04</pdfrwt>
<totfact> 0.35622654E+00</totfact>
</mgrwt>
</event>
<event>
12    1  0.4612066E-007  0.1907983E+04  0.7818608E-02  0.8650893E-01
          2   -1    0    0  501    0  0.00000000000E+00  0.00000000000E+00  0.28298310772E+04  0.28298310772E+04  0.00000000000E+00 0. -1.
         -2   -1    0    0    0  501 -0.00000000000E+00 -0.00000000000E+00 -0.32160936408E+03  0.32160936408E+03  0.00000000000E+00 0.  1.
         23    2    1    2    0    0 -0.71759018849E+02  0.67359041830E+03  0.48539274076E+03  0.83841628115E+03  0.91990974106E+02 0.  0.
        254    2    1    2    0    0  0.71759018849E+02 -0.67359041830E+03  0.20228289724E+04  0.23130241601E+04  0.89407511177E+03 0.  0.
        -24    2    4    4    0    0  0.15426838936E+03 -0.46659335855E+03  0.20163130861E+04  0.20765855949E+04  0.71980369752E+02 0.  0.
         24    2    4    4    0    0 -0.82509370507E+02 -0.20699705975E+03  0.65158863277E+01  0.23643856527E+03  0.78772834204E+02 0.  0.
         11    1    3    3    0    0  0.15269685592E+01  0.14239187590E+03  0.14522379648E+03  0.20339058243E+03  0.00000000000E+00 0. -1.
        -11    1    3    3    0    0 -0.73285987408E+02  0.53119854239E+03  0.34016894427E+03  0.63502569872E+03  0.00000000000E+00 0.  1.
          2    1    6    6  502    0 -0.52629597997E+02 -0.12930073691E+03 -0.34260895262E+02  0.14374409238E+03  0.00000000000E+00 0. -1.
          1    1    5    5  503    0  0.52901579316E+02 -0.21272238891E+03  0.76653143607E+03  0.79725769631E+03  0.00000000000E+00 0. -1.
         -2    1    5    5    0  503  0.10136681004E+03 -0.25387096964E+03  0.12497816500E+04  0.12793278986E+04  0.00000000000E+00 0.  1.
         -1    1    6    6    0  502 -0.29879772510E+02 -0.77696322839E+02  0.40776781590E+02  0.92694472892E+02  0.00000000000E+00 0.  1.
<mgrwt>
<rscale>  0 0.19079834E+04</rscale>
<asrwt>0</asrwt>
<pdfrwt beam="1">  1        2 0.43535861E+00 0.19079834E+04</pdfrwt>
<pdfrwt beam="2">  1       -2 0.49478366E-01 0.19079834E+04</pdfrwt>
<totfact> 0.80427427E+00</totfact>
</mgrwt>
</event>
<event>
12    1  0.4612066E-007  0.1396904E+04  0.7818608E-02  0.8956063E-01
         -1   -1    0    0    0  501 -0.00000000000E+00  0.00000000000E+00  0.48891670324E+03  0.48891670324E+03  0.00000000000E+00 0.  1.
          1   -1    0    0  501    0  0.00000000000E+00 -0.00000000000E+00 -0.99778776258E+03  0.99778776258E+03  0.00000000000E+00 0. -1.
         23    2    1    2    0    0 -0.17736943555E+03  0.35580935445E+03 -0.92465878918E+02  0.41809263624E+03  0.90505802766E+02 0.  0.
        254    2    1    2    0    0  0.17736943555E+03 -0.35580935445E+03 -0.41640518043E+03  0.10686118296E+04  0.90026538012E+03 0.  0.
        -24    2    4    4    0    0  0.28292830834E+03  0.16719322822E+03 -0.40680607925E+03  0.52897665332E+03  0.79517987996E+02 0.  0.
         24    2    4    4    0    0 -0.10555887279E+03 -0.52300258267E+03 -0.95991011745E+01  0.53963517626E+03  0.80247140837E+02 0.  0.
         13    1    3    3    0    0 -0.15352683473E+03  0.33629822610E+03 -0.62155424152E+02  0.37487368887E+03  0.00000000000E+00 0.  1.
        -13    1    3    3    0    0 -0.23842600823E+02  0.19511128353E+02 -0.30310454766E+02  0.43218947370E+02  0.00000000000E+00 0. -1.
          2    1    6    6  502    0 -0.10233341218E+03 -0.43305314644E+03  0.18439402599E+02  0.44536183768E+03  0.00000000000E+00 0. -1.
          3    1    5    5  503    0  0.26144617030E+03  0.13178564748E+03 -0.37973166531E+03  0.47949733522E+03  0.00000000000E+00 0. -1.
         -4    1    5    5    0  503  0.21482138033E+02  0.35407580743E+02 -0.27074413945E+02  0.49479318094E+02  0.00000000000E+00 0.  1.
         -1    1    6    6    0  502 -0.32254606049E+01 -0.89949436230E+02 -0.28038503774E+02  0.94273338586E+02  0.00000000000E+00 0.  1.
<mgrwt>
<rscale>  0 0.13969039E+04</rscale>
<asrwt>0</asrwt>
<pdfrwt beam="1">  1        1 0.15350581E+00 0.13969039E+04</pdfrwt>
<pdfrwt beam="2">  1       -1 0.75217954E-01 0.13969039E+04</pdfrwt>
<totfact> 0.26334913E+01</totfact>
</mgrwt>
</event>
<event>
12    1  0.4612066E-007  0.1969800E+04  0.7818608E-02  0.8620872E-01
         -2   -1    0    0    0  501 -0.00000000000E+00  0.00000000000E+00  0.84627798942E+03  0.84627798942E+03  0.00000000000E+00 0.  1.
          2   -1    0    0  501    0  0.00000000000E+00 -0.00000000000E+00 -0.11462282657E+04  0.11462282657E+04  0.00000000000E+00 0. -1.
         23    2    1    2    0    0 -0.36510223425E+03  0.50886292390E+03 -0.58477671359E+03  0.86087882427E+03  0.83110941152E+02 0.  0.
        254    2    1    2    0    0  0.36510223425E+03 -0.50886292390E+03  0.28482643734E+03  0.11316274308E+04  0.89845056960E+03 0.  0.
        -24    2    4    4    0    0 -0.27659610620E+03 -0.26248668922E+03  0.18224949929E+02  0.39022586561E+03  0.80866614946E+02 0.  0.
         24    2    4    4    0    0  0.64169834045E+03 -0.24637623468E+03  0.26660148741E+03  0.74140156521E+03  0.78242690818E+02 0.  0.
         11    1    3    3    0    0 -0.33144354962E+03  0.44612535046E+03 -0.54897005256E+03  0.78118549239E+03  0.00000000000E+00 0. -1.
        -11    1    3    3    0    0 -0.33658684624E+02  0.62737573435E+02 -0.35806661030E+02  0.79693331874E+02  0.00000000000E+00 0.  1.
          4    1    6    6  502    0  0.55793112577E+03 -0.21806781695E+03  0.20304866281E+03  0.63251045316E+03  0.00000000000E+00 0. -1.
          1    1    5    5  503    0 -0.18821876466E+03 -0.12471035622E+03  0.26444140331E+01  0.22580072907E+03  0.00000000000E+00 0. -1.
         -2    1    5    5    0  503 -0.88377341535E+02 -0.13777633299E+03  0.15580535896E+02  0.16442513655E+03  0.00000000000E+00 0.  1.
         -3    1    6    6    0  502  0.83767214676E+02 -0.28308417734E+02  0.63552824601E+02  0.10889111205E+03  0.00000000000E+00 0.  1.
<mgrwt>
<rscale>  0 0.19697997E+04</rscale>
<asrwt>0</asrwt>
<pdfrwt beam="1">  1        2 0.17634281E+00 0.19697997E+04</pdfrwt>
<pdfrwt beam="2">  1       -2 0.13019661E+00 0.19697997E+04</pdfrwt>
<totfact> 0.82246767E+00</totfact>
</mgrwt>
</event>
<event>
12    1  0.4612066E-007  0.1661794E+04  0.7818608E-02  0.8783460E-01
          1   -1    0    0  501    0  0.00000000000E+00  0.00000000000E+00  0.10025161054E+04  0.10025161054E+04  0.00000000000E+00 0. -1.
         -1   -1    0    0    0  501 -0.00000000000E+00 -0.00000000000E+00 -0.68865724044E+03  0.68865724044E+03  0.00000000000E+00 0.  1.
         23    2    1    2    0    0  0.41783558489E+03  0.32388638432E+03  0.34330330789E+03  0.63687334418E+03  0.90892955569E+02 0.  0.
        254    2    1    2    0    0 -0.41783558489E+03 -0.32388638432E+03 -0.29444442968E+02  0.10543000016E+04  0.91169762106E+03 0.  0.
        -24    2    4    4    0    0 -0.20690909686E+03 -0.41358199889E+03  0.36192566677E+03  0.59340805163E+03  0.85331607862E+02 0.  0.
         24    2    4    4    0    0 -0.21092648803E+03  0.89695614567E+02 -0.39137010974E+03  0.46089194999E+03  0.81948399283E+02 0.  0.
         13    1    3    3    0    0  0.11454289421E+02  0.80427156950E+01  0.33089616828E+02  0.35927827150E+02  0.00000000000E+00 0. -1.
        -13    1    3    3    0    0  0.40638129547E+03  0.31584366863E+03  0.31021369106E+03  0.60094551703E+03  0.00000000000E+00 0.  1.
          2    1    6    6  502    0 -0.36306734808E+02  0.30940113528E+02 -0.33212858780E+02  0.58125412738E+02  0.00000000000E+00 0. -1.
          1    1    5    5  503    0 -0.52610073547E+02 -0.57911455942E+02  0.32760010848E+02  0.84822018832E+02  0.00000000000E+00 0. -1.
         -2    1    5    5    0  503 -0.15429902331E+03 -0.35567054295E+03  0.32916565592E+03  0.50858603280E+03  0.00000000000E+00 0.  1.
         -1    1    6    6    0  502 -0.17461975322E+03  0.58755501040E+02 -0.35815725096E+03  0.40276653725E+03  0.00000000000E+00 0.  1.
<mgrwt>
<rscale>  0 0.16617942E+04</rscale>
<asrwt>0</asrwt>
<pdfrwt beam="1">  1        1 0.15423325E+00 0.16617942E+04</pdfrwt>
<pdfrwt beam="2">  1       -1 0.10594727E+00 0.16617942E+04</pdfrwt>
<totfact> 0.11990565E+01</totfact>
</mgrwt>
</event>
<event>
12    1  0.4612066E-007  0.1562657E+04  0.7818608E-02  0.8843824E-01
         -2   -1    0    0    0  501 -0.00000000000E+00  0.00000000000E+00  0.13771940381E+03  0.13771940381E+03  0.00000000000E+00 0.  1.
          2   -1    0    0  501    0  0.00000000000E+00 -0.00000000000E+00 -0.44327383318E+04  0.44327383318E+04  0.00000000000E+00 0. -1.
         23    2    1    2    0    0 -0.11485823454E+02  0.42611270398E+03 -0.58015032491E+03  0.72554102791E+03  0.90174403509E+02 0.  0.
        254    2    1    2    0    0  0.11485823454E+02 -0.42611270398E+03 -0.37148686031E+04  0.38449167077E+04  0.89522722832E+03 0.  0.
        -24    2    4    4    0    0 -0.96776967699E+02  0.26105242490E+03 -0.11749597678E+04  0.12102352856E+04  0.81393123130E+02 0.  0.
         24    2    4    4    0    0  0.10826279115E+03 -0.68716512888E+03 -0.25399088353E+04  0.26346814221E+04  0.80576412184E+02 0.  0.
         11    1    3    3    0    0 -0.41784483548E+02  0.36276674053E+03 -0.47611890819E+03  0.60002905416E+03  0.00000000000E+00 0.  1.
        -11    1    3    3    0    0  0.30298660094E+02  0.63345963450E+02 -0.10403141672E+03  0.12551197374E+03  0.00000000000E+00 0. -1.
          2    1    6    6  502    0  0.20495763853E+02 -0.84024700483E+02 -0.42440185149E+03  0.43312487596E+03  0.00000000000E+00 0. -1.
          3    1    5    5  503    0 -0.77575864223E+02  0.10160329004E+03 -0.58520088072E+03  0.59900026214E+03  0.00000000000E+00 0. -1.
         -4    1    5    5    0  503 -0.19201103476E+02  0.15944913486E+03 -0.58975888708E+03  0.61123502343E+03  0.00000000000E+00 0.  1.
         -1    1    6    6    0  502  0.87767027299E+02 -0.60314042840E+03 -0.21155069838E+04  0.22015565462E+04  0.00000000000E+00 0.  1.
<mgrwt>
<rscale>  0 0.15626568E+04</rscale>
<asrwt>0</asrwt>
<pdfrwt beam="1">  1        2 0.68195974E+00 0.15626568E+04</pdfrwt>
<pdfrwt beam="2">  1       -2 0.21187601E-01 0.15626568E+04</pdfrwt>
<totfact> 0.27362031E+00</totfact>
</mgrwt>
</event>
<event>
12    1  0.4612066E-007  0.1431210E+04  0.7818608E-02  0.8931532E-01
          2   -1    0    0  501    0  0.00000000000E+00  0.00000000000E+00  0.12382615324E+04  0.12382615324E+04  0.00000000000E+00 0. -1.
         -2   -1    0    0    0  501 -0.00000000000E+00 -0.00000000000E+00 -0.41355575246E+03  0.41355575246E+03  0.00000000000E+00 0.  1.
         23    2    1    2    0    0 -0.29363304924E+03  0.30245368308E+03  0.33331388526E+03  0.54494018532E+03  0.90349662200E+02 0.  0.
        254    2    1    2    0    0  0.29363304924E+03 -0.30245368308E+03  0.49139189467E+03  0.11068770995E+04  0.89778188960E+03 0.  0.
        -24    2    4    4    0    0  0.11337539175E+03  0.30533360112E+03  0.73488430570E+02  0.34326749344E+03  0.79683343285E+02 0.  0.
         24    2    4    4    0    0  0.18025765749E+03 -0.60778728420E+03  0.41790346410E+03  0.76360960609E+03  0.80982215856E+02 0.  0.
         11    1    3    3    0    0 -0.10534369736E+03  0.88595855623E+02  0.16154959165E+03  0.21223758095E+03  0.00000000000E+00 0. -1.
        -11    1    3    3    0    0 -0.18828935188E+03  0.21385782745E+03  0.17176429361E+03  0.33270260437E+03  0.00000000000E+00 0.  1.
          4    1    6    6  502    0  0.46298471342E+01  0.12126851169E+01  0.78115528123E+00  0.48493600869E+01  0.00000000000E+00 0. -1.
          1    1    5    5  503    0 -0.39248206758E+00  0.84286624025E+02  0.36792868744E+02  0.91967952147E+02  0.00000000000E+00 0. -1.
         -2    1    5    5    0  503  0.11376787382E+03  0.22104697710E+03  0.36695561826E+02  0.25129954130E+03  0.00000000000E+00 0.  1.
         -3    1    6    6    0  502  0.17562781036E+03 -0.60899996931E+03  0.41712230882E+03  0.75876024600E+03  0.00000000000E+00 0.  1.
<mgrwt>
<rscale>  0 0.14312095E+04</rscale>
<asrwt>0</asrwt>
<pdfrwt beam="1">  1        2 0.19050177E+00 0.14312095E+04</pdfrwt>
<pdfrwt beam="2">  1       -2 0.63623963E-01 0.14312095E+04</pdfrwt>
<totfact> 0.39896051E+01</totfact>
</mgrwt>
</event>
<event>
12    1  0.4612066E-007  0.2200583E+04  0.7818608E-02  0.8518186E-01
         -1   -1    0    0    0  501 -0.00000000000E+00  0.00000000000E+00  0.22340718281E+04  0.22340718281E+04  0.00000000000E+00 0.  1.
          1   -1    0    0  501    0  0.00000000000E+00 -0.00000000000E+00 -0.54189886008E+03  0.54189886008E+03  0.00000000000E+00 0. -1.
         23    2    1    2    0    0 -0.80071090550E+03 -0.42570180643E+03  0.81393740687E+03  0.12212297009E+04  0.80919082953E+02 0.  0.
        254    2    1    2    0    0  0.80071090550E+03  0.42570180643E+03  0.87823556117E+03  0.15547409873E+04  0.90750308780E+03 0.  0.
        -24    2    4    4    0    0  0.49914636359E+03  0.17090920820E+03 -0.56972397822E+02  0.53673863319E+03  0.80532332065E+02 0.  0.
         24    2    4    4    0    0  0.30156454191E+03  0.25479259823E+03  0.93520795899E+03  0.10180023541E+04  0.76514216217E+02 0.  0.
         13    1    3    3    0    0 -0.53881019581E+03 -0.26671952575E+03  0.58405466584E+03  0.83819781986E+03  0.00000000000E+00 0. -1.
        -13    1    3    3    0    0 -0.26190070969E+03 -0.15898228068E+03  0.22988274103E+03  0.38303188109E+03  0.00000000000E+00 0.  1.
          4    1    6    6  502    0  0.43544070508E+02  0.59284566568E+02  0.24196089716E+03  0.25289488263E+03  0.00000000000E+00 0. -1.
          1    1    5    5  503    0  0.33683256165E+02  0.17089877337E+02  0.16179332958E+02  0.41090101828E+02  0.00000000000E+00 0. -1.
         -2    1    5    5    0  503  0.46546310743E+03  0.15381933086E+03 -0.73151730780E+02  0.49564853136E+03  0.00000000000E+00 0.  1.
         -3    1    6    6    0  502  0.25802047140E+03  0.19550803166E+03  0.69324706183E+03  0.76510747144E+03  0.00000000000E+00 0.  1.
<mgrwt>
<rscale>  0 0.22005826E+04</rscale>
<asrwt>0</asrwt>
<pdfrwt beam="1">  1        1 0.83369056E-01 0.22005826E+04</pdfrwt>
<pdfrwt beam="2">  1       -1 0.34370335E+00 0.22005826E+04</pdfrwt>
<totfact> 0.61818924E-01</totfact>
</mgrwt>
</event>
<event>
12    1  0.4612066E-007  0.1082091E+04  0.7818608E-02  0.9222825E-01
          1   -1    0    0  501    0  0.00000000000E+00  0.00000000000E+00  0.12144194942E+04  0.12144194942E+04  0.00000000000E+00 0. -1.
         -1   -1    0    0    0  501 -0.00000000000E+00 -0.00000000000E+00 -0.24104540912E+03  0.24104540912E+03  0.00000000000E+00 0.  1.
         23    2    1    2    0    0  0.28930682779E+02 -0.79754618504E+02 -0.22517240780E+01  0.12490076714E+03  0.91637043780E+02 0.  0.
        254    2    1    2    0    0 -0.28930682779E+02  0.79754618504E+02  0.97562580912E+03  0.13305641361E+04  0.90075380510E+03 0.  0.
        -24    2    4    4    0    0 -0.35120041256E+03  0.33025024010E+03  0.52950566265E+03  0.72024961811E+03  0.77306628080E+02 0.  0.
         24    2    4    4    0    0  0.32226972978E+03 -0.25049562160E+03  0.44612014647E+03  0.61031451804E+03  0.82793663216E+02 0.  0.
         13    1    3    3    0    0  0.72516102215E+01 -0.15882487142E+02  0.41144426828E+02  0.44695672135E+02  0.00000000000E+00 0. -1.
        -13    1    3    3    0    0  0.21679072558E+02 -0.63872131362E+02 -0.43396150906E+02  0.80205095007E+02  0.00000000000E+00 0.  1.
          2    1    6    6  502    0  0.14129671519E+02  0.60880781587E+01  0.13836366710E+02  0.20691963577E+02  0.00000000000E+00 0. -1.
          1    1    5    5  503    0 -0.26493836688E+03  0.22739301412E+03  0.42564409744E+03  0.55052049807E+03  0.00000000000E+00 0. -1.
         -2    1    5    5    0  503 -0.86262045682E+02  0.10285722598E+03  0.10386156522E+03  0.16972912004E+03  0.00000000000E+00 0.  1.
         -1    1    6    6    0  502  0.30814005826E+03 -0.25658369976E+03  0.43228377976E+03  0.58962255446E+03  0.00000000000E+00 0.  1.
<mgrwt>
<rscale>  0 0.10820910E+04</rscale>
<asrwt>0</asrwt>
<pdfrwt beam="1">  1        1 0.18683377E+00 0.10820910E+04</pdfrwt>
<pdfrwt beam="2">  1       -1 0.37083910E-01 0.10820910E+04</pdfrwt>
<totfact> 0.72686609E+01</totfact>
</mgrwt>
</event>
<event>
12    1  0.4612066E-007  0.1849173E+04  0.7818608E-02  0.8680578E-01
          2   -1    0    0  501    0  0.00000000000E+00  0.00000000000E+00  0.49125661886E+03  0.49125661886E+03  0.00000000000E+00 0. -1.
         -2   -1    0    0    0  501 -0.00000000000E+00 -0.00000000000E+00 -0.17401504977E+04  0.17401504977E+04  0.00000000000E+00 0.  1.
         23    2    1    2    0    0  0.17280688705E+03 -0.60811845250E+03 -0.45727003118E+02  0.64024889288E+03  0.90318400932E+02 0.  0.
        254    2    1    2    0    0 -0.17280688705E+03  0.60811845250E+03 -0.12031668757E+04  0.15911582237E+04  0.82734738138E+03 0.  0.
        -24    2    4    4    0    0  0.22870384656E+03  0.10632088085E+03 -0.51017591877E+02  0.26943151892E+03  0.79880971256E+02 0.  0.
         24    2    4    4    0    0 -0.40151073361E+03  0.50179757165E+03 -0.11521492839E+04  0.13217267048E+04  0.80633973581E+02 0.  0.
         13    1    3    3    0    0  0.59915534950E+02 -0.10689876674E+03 -0.30330210306E+02  0.12624238320E+03  0.00000000000E+00 0.  1.
        -13    1    3    3    0    0  0.11289135210E+03 -0.50121968576E+03 -0.15396792811E+02  0.51400650968E+03  0.00000000000E+00 0. -1.
          2    1    6    6  502    0 -0.34381325641E+03  0.39102905113E+03 -0.96923996607E+03  0.11002442392E+04  0.00000000000E+00 0. -1.
          3    1    5    5  503    0  0.10534005331E+03  0.60865146239E+02 -0.63739438984E+02  0.13734558217E+03  0.00000000000E+00 0. -1.
         -4    1    5    5    0  503  0.12336379325E+03  0.45455734607E+02  0.12721847107E+02  0.13208593675E+03  0.00000000000E+00 0.  1.
         -1    1    6    6    0  502 -0.57697477208E+02  0.11076852052E+03 -0.18290931778E+03  0.22148246555E+03  0.00000000000E+00 0.  1.
<mgrwt>
<rscale>  0 0.18491733E+04</rscale>
<asrwt>0</asrwt>
<pdfrwt beam="1">  1        2 0.75577941E-01 0.18491733E+04</pdfrwt>
<pdfrwt beam="2">  1       -2 0.26771546E+00 0.18491733E+04</pdfrwt>
<totfact> 0.29594790E+00</totfact>
</mgrwt>
</event>
<event>
12    1  0.4612066E-007  0.1492456E+04  0.7818608E-02  0.8889485E-01
          2   -1    0    0  501    0  0.00000000000E+00  0.00000000000E+00  0.35752979086E+04  0.35752979086E+04  0.00000000000E+00 0.  1.
         -2   -1    0    0    0  501 -0.00000000000E+00 -0.00000000000E+00 -0.15575098859E+03  0.15575098859E+03  0.00000000000E+00 0. -1.
         23    2    1    2    0    0 -0.43093183893E+03 -0.13613483048E+03  0.77258480754E+03  0.89960584150E+03  0.90379440928E+02 0.  0.
        254    2    1    2    0    0  0.43093183893E+03  0.13613483048E+03  0.26469621125E+04  0.28314430557E+04  0.89801247817E+03 0.  0.
        -24    2    4    4    0    0  0.49176641500E+03 -0.21249777507E+03  0.21445530822E+04  0.22116602714E+04  0.73100767313E+02 0.  0.
         24    2    4    4    0    0 -0.60834576070E+02  0.34863260555E+03  0.50240903028E+03  0.61978278436E+03  0.80438341453E+02 0.  0.
         11    1    3    3    0    0 -0.35368379845E+03 -0.90882787112E+02  0.55544114879E+03  0.66473060712E+03  0.00000000000E+00 0. -1.
        -11    1    3    3    0    0 -0.77248040483E+02 -0.45252043368E+02  0.21714365875E+03  0.23487523437E+03  0.00000000000E+00 0.  1.
          4    1    6    6  502    0 -0.45260628095E+01  0.21629299620E+02  0.77929956555E+02  0.81002407219E+02  0.00000000000E+00 0. -1.
          1    1    5    5  503    0  0.75128060977E+02 -0.47038395929E+02  0.26688939444E+03  0.28122372785E+03  0.00000000000E+00 0. -1.
         -2    1    5    5    0  503  0.41663835403E+03 -0.16545937914E+03  0.18776636878E+04  0.19304365435E+04  0.00000000000E+00 0.  1.
         -3    1    6    6    0  502 -0.56308513261E+02  0.32700330593E+03  0.42447907373E+03  0.53878037714E+03  0.00000000000E+00 0.  1.
<mgrwt>
<rscale>  0 0.14924559E+04</rscale>
<asrwt>0</asrwt>
<pdfrwt beam="1">  1        2 0.55004577E+00 0.14924559E+04</pdfrwt>
<pdfrwt beam="2">  1       -2 0.23961693E-01 0.14924559E+04</pdfrwt>
<totfact> 0.10939862E+01</totfact>
</mgrwt>
</event>
<event>
12    1  0.4612066E-007  0.1408602E+04  0.7818608E-02  0.8947616E-01
          2   -1    0    0  501    0  0.00000000000E+00  0.00000000000E+00  0.49643024781E+03  0.49643024781E+03  0.00000000000E+00 0. -1.
         -2   -1    0    0    0  501 -0.00000000000E+00 -0.00000000000E+00 -0.99921338647E+03  0.99921338647E+03  0.00000000000E+00 0.  1.
         23    2    1    2    0    0  0.39850837736E+03 -0.95314011692E+02 -0.17762843808E+03  0.45603870683E+03  0.92335001271E+02 0.  0.
        254    2    1    2    0    0 -0.39850837736E+03  0.95314011692E+02 -0.32515470058E+03  0.10396049275E+04  0.89842035719E+03 0.  0.
        -24    2    4    4    0    0 -0.20828336147E+03 -0.39079530684E+03 -0.22145477791E+03  0.50168195910E+03  0.80868033934E+02 0.  0.
         24    2    4    4    0    0 -0.19022501589E+03  0.48610931853E+03 -0.10369992267E+03  0.53792296835E+03  0.78227998076E+02 0.  0.
         11    1    3    3    0    0  0.24322268373E+03 -0.66598764420E+02 -0.15630232153E+03  0.29668684673E+03  0.00000000000E+00 0.  1.
        -11    1    3    3    0    0  0.15528569362E+03 -0.28715247272E+02 -0.21326116550E+02  0.15935186010E+03  0.00000000000E+00 0. -1.
          2    1    6    6  502    0 -0.81174438143E+02  0.30366908441E+03 -0.77689242435E+02  0.32378977844E+03  0.00000000000E+00 0. -1.
          3    1    5    5  503    0 -0.15575101749E+03 -0.21425811966E+03 -0.11341166874E+03  0.28814428312E+03  0.00000000000E+00 0. -1.
         -4    1    5    5    0  503 -0.52532343973E+02 -0.17653718718E+03 -0.10804310917E+03  0.21353767598E+03  0.00000000000E+00 0.  1.
         -1    1    6    6    0  502 -0.10905057775E+03  0.18244023412E+03 -0.26010680236E+02  0.21413318991E+03  0.00000000000E+00 0.  1.
<mgrwt>
<rscale>  0 0.14086018E+04</rscale>
<asrwt>0</asrwt>
<pdfrwt beam="1">  1        2 0.76373885E-01 0.14086018E+04</pdfrwt>
<pdfrwt beam="2">  1       -2 0.15372513E+00 0.14086018E+04</pdfrwt>
<totfact> 0.16936227E+01</totfact>
</mgrwt>
</event>
<event>
12    1  0.4612066E-007  0.1831935E+04  0.7818608E-02  0.8689499E-01
         -1   -1    0    0    0  501 -0.00000000000E+00  0.00000000000E+00  0.47131406148E+03  0.47131406148E+03  0.00000000000E+00 0.  1.
          1   -1    0    0  501    0  0.00000000000E+00 -0.00000000000E+00 -0.17801220667E+04  0.17801220667E+04  0.00000000000E+00 0. -1.
         23    2    1    2    0    0 -0.25905138777E+03  0.59115779206E+03 -0.16440313286E+03  0.67230957867E+03  0.91633088173E+02 0.  0.
        254    2    1    2    0    0  0.25905138777E+03 -0.59115779206E+03 -0.11444048723E+04  0.15791265495E+04  0.87601540560E+03 0.  0.
        -24    2    4    4    0    0  0.16093480721E+03 -0.43975199554E+03 -0.62069645380E+02  0.47892788905E+03  0.78977542820E+02 0.  0.
         24    2    4    4    0    0  0.98116580561E+02 -0.15140579652E+03 -0.10823352270E+04  0.11001986604E+04  0.80230731809E+02 0.  0.
         13    1    3    3    0    0 -0.10754179626E+02  0.78550361276E+02 -0.42031060071E+02  0.89735286520E+02  0.00000000000E+00 0. -1.
        -13    1    3    3    0    0 -0.24829720815E+03  0.51260743079E+03 -0.12237207279E+03  0.58257429215E+03  0.00000000000E+00 0.  1.
          4    1    6    6  502    0  0.38780782148E+02 -0.90403182387E+01 -0.15018151026E+03  0.15537104763E+03  0.00000000000E+00 0. -1.
          1    1    5    5  503    0  0.81876473249E+02 -0.31195083310E+03 -0.63176373833E+02  0.32864621305E+03  0.00000000000E+00 0. -1.
         -2    1    5    5    0  503  0.79058333963E+02 -0.12780116245E+03  0.11067284528E+01  0.15028167599E+03  0.00000000000E+00 0.  1.
         -3    1    6    6    0  502  0.59335798413E+02 -0.14236547828E+03 -0.93215371671E+03  0.94482761282E+03  0.00000000000E+00 0.  1.
<mgrwt>
<rscale>  0 0.18319351E+04</rscale>
<asrwt>0</asrwt>
<pdfrwt beam="1">  1        1 0.27386493E+00 0.18319351E+04</pdfrwt>
<pdfrwt beam="2">  1       -1 0.72509856E-01 0.18319351E+04</pdfrwt>
<totfact> 0.75867126E+00</totfact>
</mgrwt>
</event>
<event>
12    1  0.4612066E-007  0.1267716E+04  0.7818608E-02  0.9055566E-01
         -2   -1    0    0    0  501 -0.00000000000E+00  0.00000000000E+00  0.19395787448E+03  0.19395787448E+03  0.00000000000E+00 0.  1.
          2   -1    0    0  501    0  0.00000000000E+00 -0.00000000000E+00 -0.20714611867E+04  0.20714611867E+04  0.00000000000E+00 0. -1.
         23    2    1    2    0    0 -0.34844834884E+02  0.18331301424E+03 -0.88007578946E+03  0.90288985077E+03  0.76543214801E+02 0.  0.
        254    2    1    2    0    0  0.34844834884E+02 -0.18331301424E+03 -0.99742752278E+03  0.13625292104E+04  0.90928893227E+03 0.  0.
        -24    2    4    4    0    0  0.10007844189E+03  0.24314966697E+03 -0.85752343751E+03  0.90044851302E+03  0.79521215036E+02 0.  0.
         24    2    4    4    0    0 -0.65233607011E+02 -0.42646268121E+03 -0.13990408528E+03  0.46208069741E+03  0.88428365894E+02 0.  0.
         11    1    3    3    0    0 -0.18697627598E+02  0.16430528218E+03 -0.83643621197E+03  0.85262615707E+03  0.00000000000E+00 0. -1.
        -11    1    3    3    0    0 -0.16147207286E+02  0.19007732058E+02 -0.43639577493E+02  0.50263693705E+02  0.00000000000E+00 0.  1.
          4    1    6    6  502    0 -0.47725221142E+02 -0.21785915500E+03 -0.11598440022E+03  0.25138156107E+03  0.00000000000E+00 0. -1.
          1    1    5    5  503    0  0.11145485789E+03  0.20870732588E+03 -0.70389990133E+03  0.74260083781E+03  0.00000000000E+00 0. -1.
         -2    1    5    5    0  503 -0.11376415996E+02  0.34442341085E+02 -0.15362353618E+03  0.15784767521E+03  0.00000000000E+00 0.  1.
         -3    1    6    6    0  502 -0.17508385868E+02 -0.20860352621E+03 -0.23919685056E+02  0.21069913634E+03  0.00000000000E+00 0.  1.
<mgrwt>
<rscale>  0 0.12677164E+04</rscale>
<asrwt>0</asrwt>
<pdfrwt beam="1">  1        2 0.31868636E+00 0.12677164E+04</pdfrwt>
<pdfrwt beam="2">  1       -2 0.29839671E-01 0.12677164E+04</pdfrwt>
<totfact> 0.62108992E+01</totfact>
</mgrwt>
</event>
<event>
12    1  0.4612066E-007  0.1942398E+04  0.7818608E-02  0.8634036E-01
         -2   -1    0    0    0  501 -0.00000000000E+00  0.00000000000E+00  0.16183739605E+04  0.16183739605E+04  0.00000000000E+00 0.  1.
          2   -1    0    0  501    0  0.00000000000E+00 -0.00000000000E+00 -0.58282392224E+03  0.58282392224E+03  0.00000000000E+00 0. -1.
         23    2    1    2    0    0 -0.41239197064E+03  0.62849235899E+03  0.58773381380E+03  0.95864685693E+03  0.92211591803E+02 0.  0.
        254    2    1    2    0    0  0.41239197064E+03 -0.62849235899E+03  0.44781622441E+03  0.12425510258E+04  0.88222667044E+03 0.  0.
        -24    2    4    4    0    0  0.60605070624E+03 -0.65841120813E+03  0.49534282576E+03  0.10259216016E+04  0.79673333886E+02 0.  0.
         24    2    4    4    0    0 -0.19365873561E+03  0.29918849142E+02 -0.47526601353E+02  0.21662942413E+03  0.79187664157E+02 0.  0.
         13    1    3    3    0    0 -0.33064998961E+03  0.46313634456E+03  0.48383505980E+03  0.74694113180E+03  0.00000000000E+00 0.  1.
        -13    1    3    3    0    0 -0.81741981026E+02  0.16535601443E+03  0.10389875400E+03  0.21170572513E+03  0.00000000000E+00 0. -1.
          2    1    6    6  502    0 -0.49783947979E+02  0.12400525927E+01 -0.49074135183E+02  0.69916020701E+02  0.00000000000E+00 0. -1.
          3    1    5    5  503    0  0.33631546685E+03 -0.33503269925E+03  0.30128516442E+03  0.56225239271E+03  0.00000000000E+00 0. -1.
         -4    1    5    5    0  503  0.26973523939E+03 -0.32337850888E+03  0.19405766134E+03  0.46366920892E+03  0.00000000000E+00 0.  1.
         -1    1    6    6    0  502 -0.14387478763E+03  0.28678796550E+02  0.15475338298E+01  0.14671340343E+03  0.00000000000E+00 0.  1.
<mgrwt>
<rscale>  0 0.19423975E+04</rscale>
<asrwt>0</asrwt>
<pdfrwt beam="1">  1        2 0.89665220E-01 0.19423975E+04</pdfrwt>
<pdfrwt beam="2">  1       -2 0.24898061E+00 0.19423975E+04</pdfrwt>
<totfact> 0.31253026E+00</totfact>
</mgrwt>
</event>
<event>
12    1  0.4612066E-007  0.3037734E+04  0.7818608E-02  0.8233037E-01
          2   -1    0    0  501    0  0.00000000000E+00  0.00000000000E+00  0.10691879232E+04  0.10691879232E+04  0.00000000000E+00 0. -1.
         -2   -1    0    0    0  501 -0.00000000000E+00 -0.00000000000E+00 -0.21576717655E+04  0.21576717655E+04  0.00000000000E+00 0.  1.
         23    2    1    2    0    0  0.43095675042E+03 -0.13014137839E+04 -0.67616591878E+03  0.15314022027E+04  0.92686562146E+02 0.  0.
        254    2    1    2    0    0 -0.43095675042E+03  0.13014137839E+04 -0.41231792360E+03  0.16954574860E+04  0.90838783515E+03 0.  0.
        -24    2    4    4    0    0  0.14944373112E+03  0.92561486726E+03 -0.15648717828E+03  0.95394991465E+03  0.80224007806E+02 0.  0.
         24    2    4    4    0    0 -0.58040048154E+03  0.37579891668E+03 -0.25583074532E+03  0.74150757138E+03  0.79338284644E+02 0.  0.
         11    1    3    3    0    0  0.28529923727E+03 -0.75952476592E+03 -0.36350460946E+03  0.88904956326E+03  0.00000000000E+00 0. -1.
        -11    1    3    3    0    0  0.14565751315E+03 -0.54188901803E+03 -0.31266130932E+03  0.64235263940E+03  0.00000000000E+00 0.  1.
          2    1    6    6  502    0 -0.89403032276E+02  0.59534997689E+02 -0.71646973019E+02  0.12911470432E+03  0.00000000000E+00 0. -1.
          3    1    5    5  503    0  0.97896990287E+02  0.53369870010E+03 -0.52043933408E+02  0.54509328945E+03  0.00000000000E+00 0. -1.
         -4    1    5    5    0  503  0.51546740831E+02  0.39191616716E+03 -0.10444324487E+03  0.40885662520E+03  0.00000000000E+00 0.  1.
         -1    1    6    6    0  502 -0.49099744926E+03  0.31626391899E+03 -0.18418377230E+03  0.61239286706E+03  0.00000000000E+00 0.  1.
<mgrwt>
<rscale>  0 0.30377338E+04</rscale>
<asrwt>0</asrwt>
<pdfrwt beam="1">  1        2 0.16449045E+00 0.30377338E+04</pdfrwt>
<pdfrwt beam="2">  1       -2 0.33194950E+00 0.30377338E+04</pdfrwt>
<totfact> 0.39215035E-01</totfact>
</mgrwt>
</event>
<event>
12    1  0.4612066E-007  0.1835673E+04  0.7818608E-02  0.8687555E-01
         -1   -1    0    0    0  501 -0.00000000000E+00  0.00000000000E+00  0.82840356976E+03  0.82840356976E+03  0.00000000000E+00 0.  1.
          1   -1    0    0  501    0  0.00000000000E+00 -0.00000000000E+00 -0.10169249983E+04  0.10169249983E+04  0.00000000000E+00 0. -1.
         23    2    1    2    0    0  0.19130733778E+03  0.35243537628E+03  0.49830940174E+03  0.64508309931E+03  0.83730240739E+02 0.  0.
        254    2    1    2    0    0 -0.19130733778E+03 -0.35243537628E+03 -0.68683083024E+03  0.12002454687E+04  0.89891234493E+03 0.  0.
        -24    2    4    4    0    0  0.18154823238E+03  0.21847302470E+03 -0.16895126942E+03  0.34033183500E+03  0.81184994146E+02 0.  0.
         24    2    4    4    0    0 -0.37285557017E+03 -0.57090840098E+03 -0.51787956082E+03  0.85991363371E+03  0.79338133491E+02 0.  0.
         11    1    3    3    0    0  0.81392495618E+02  0.17235696760E+03  0.30066712905E+03  0.35599492288E+03  0.00000000000E+00 0.  1.
        -11    1    3    3    0    0  0.10991484217E+03  0.18007840868E+03  0.19764227268E+03  0.28908817643E+03  0.00000000000E+00 0. -1.
          4    1    6    6  502    0 -0.12428631521E+03 -0.26189266329E+03 -0.22078592771E+03  0.36439165894E+03  0.00000000000E+00 0. -1.
          1    1    5    5  503    0  0.10469874005E+03  0.16796091745E+03 -0.14484666848E+03  0.24526160182E+03  0.00000000000E+00 0. -1.
         -2    1    5    5    0  503  0.76849492330E+02  0.50512107251E+02 -0.24104600941E+02  0.95070233180E+02  0.00000000000E+00 0.  1.
         -3    1    6    6    0  502 -0.24856925495E+03 -0.30901573769E+03 -0.29709363311E+03  0.49552197477E+03  0.00000000000E+00 0.  1.
<mgrwt>
<rscale>  0 0.18356735E+04</rscale>
<asrwt>0</asrwt>
<pdfrwt beam="1">  1        1 0.15645000E+00 0.18356735E+04</pdfrwt>
<pdfrwt beam="2">  1       -1 0.12744670E+00 0.18356735E+04</pdfrwt>
<totfact> 0.73627317E+00</totfact>
</mgrwt>
</event>
<event>
12    1  0.4612066E-007  0.1363561E+04  0.7818608E-02  0.8980626E-01
         -2   -1    0    0    0  501 -0.00000000000E+00  0.00000000000E+00  0.19631109416E+03  0.19631109416E+03  0.00000000000E+00 0.  1.
          2   -1    0    0  501    0  0.00000000000E+00 -0.00000000000E+00 -0.23677951190E+04  0.23677951190E+04  0.00000000000E+00 0. -1.
         23    2    1    2    0    0 -0.23513960785E+03  0.15211165691E+03 -0.14800158348E+03  0.32935283315E+03  0.90223215654E+02 0.  0.
        254    2    1    2    0    0  0.23513960785E+03 -0.15211165691E+03 -0.20234824414E+04  0.22347533800E+04  0.90620797150E+03 0.  0.
        -24    2    4    4    0    0 -0.30908084079E+03  0.78174435522E+02 -0.49214232975E+03  0.59181546395E+03  0.79995388175E+02 0.  0.
         24    2    4    4    0    0  0.54422044864E+03 -0.23028609243E+03 -0.15313401116E+04  0.16429379161E+04  0.70956870741E+02 0.  0.
         11    1    3    3    0    0 -0.16186517686E+03  0.11496352710E+03 -0.14727246398E+03  0.24719653454E+03  0.00000000000E+00 0. -1.
        -11    1    3    3    0    0 -0.73274430989E+02  0.37148129816E+02 -0.72911949728E+00  0.82156298608E+02  0.00000000000E+00 0.  1.
          4    1    6    6  502    0  0.41913811341E+03 -0.17576240625E+03 -0.10892333759E+04  0.11802535866E+04  0.00000000000E+00 0. -1.
          1    1    5    5  503    0 -0.28375556141E+03  0.71294065171E+02 -0.48165839061E+03  0.56355555858E+03  0.00000000000E+00 0. -1.
         -2    1    5    5    0  503 -0.25325279381E+02  0.68803703509E+01 -0.10483939140E+02  0.28259905375E+02  0.00000000000E+00 0.  1.
         -3    1    6    6    0  502  0.12508233523E+03 -0.54523686185E+02 -0.44210673576E+03  0.46268432948E+03  0.00000000000E+00 0.  1.
<mgrwt>
<rscale>  0 0.13635607E+04</rscale>
<asrwt>0</asrwt>
<pdfrwt beam="1">  1        2 0.36427616E+00 0.13635607E+04</pdfrwt>
<pdfrwt beam="2">  1       -2 0.30201708E-01 0.13635607E+04</pdfrwt>
<totfact> 0.41109947E+01</totfact>
</mgrwt>
</event>
<event>
12    1  0.4612066E-007  0.1599850E+04  0.7818608E-02  0.8820640E-01
         -2   -1    0    0    0  501 -0.00000000000E+00  0.00000000000E+00  0.39249475630E+03  0.39249475630E+03  0.00000000000E+00 0.  1.
          2   -1    0    0  501    0  0.00000000000E+00 -0.00000000000E+00 -0.16302891680E+04  0.16302891680E+04  0.00000000000E+00 0. -1.
         23    2    1    2    0    0 -0.10316276747E+02  0.47622478220E+03 -0.10743545693E+03  0.49631749003E+03  0.88838081659E+02 0.  0.
        254    2    1    2    0    0  0.10316276747E+02 -0.47622478220E+03 -0.11303589548E+04  0.15264664343E+04  0.90856586971E+03 0.  0.
        -24    2    4    4    0    0  0.17631089033E+03 -0.25106982152E+03 -0.11889569665E+04  0.12306195577E+04  0.81757216163E+02 0.  0.
         24    2    4    4    0    0 -0.16599461358E+03 -0.22515496068E+03  0.58598011652E+02  0.29584687659E+03  0.76437421236E+02 0.  0.
         11    1    3    3    0    0 -0.32565866697E+02  0.32921988459E+03 -0.10679513798E+03  0.34763697959E+03  0.00000000000E+00 0. -1.
        -11    1    3    3    0    0  0.22249589950E+02  0.14700489761E+03 -0.64031894224E+00  0.14868051043E+03  0.00000000000E+00 0.  1.
          2    1    6    6  502    0 -0.14780087548E+03 -0.16999840450E+03  0.20087032158E+02  0.22615933583E+03  0.00000000000E+00 0. -1.
          3    1    5    5  503    0  0.13229349978E+03 -0.11780657522E+03 -0.65834167461E+03  0.68175781607E+03  0.00000000000E+00 0. -1.
         -4    1    5    5    0  503  0.44017390548E+02 -0.13326324631E+03 -0.53061529185E+03  0.54886174163E+03  0.00000000000E+00 0.  1.
         -1    1    6    6    0  502 -0.18193738105E+02 -0.55156556178E+02  0.38510979494E+02  0.69687540760E+02  0.00000000000E+00 0.  1.
<mgrwt>
<rscale>  0 0.15998499E+04</rscale>
<asrwt>0</asrwt>
<pdfrwt beam="1">  1        2 0.25081372E+00 0.15998499E+04</pdfrwt>
<pdfrwt beam="2">  1       -2 0.60383809E-01 0.15998499E+04</pdfrwt>
<totfact> 0.26276523E+01</totfact>
</mgrwt>
</event>
<event>
12    1  0.4612066E-007  0.1782134E+04  0.7818608E-02  0.8715858E-01
          2   -1    0    0  501    0  0.00000000000E+00  0.00000000000E+00  0.11894550500E+04  0.11894550500E+04  0.00000000000E+00 0. -1.
         -2   -1    0    0    0  501 -0.00000000000E+00 -0.00000000000E+00 -0.66753309704E+03  0.66753309704E+03  0.00000000000E+00 0.  1.
         23    2    1    2    0    0 -0.44830693759E+02 -0.64969178438E+03  0.72642862042E+02  0.66288778127E+03  0.10016995239E+03 0.  0.
        254    2    1    2    0    0  0.44830693759E+02  0.64969178438E+03  0.44927909093E+03  0.11941003658E+04  0.89437954818E+03 0.  0.
        -24    2    4    4    0    0 -0.72340253036E+02  0.21932334182E+03 -0.25751086434E+03  0.35460891426E+03  0.78101192959E+02 0.  0.
         24    2    4    4    0    0  0.11717094679E+03  0.43036844256E+03  0.70678995527E+03  0.83949145152E+03  0.79043210798E+02 0.  0.
         13    1    3    3    0    0  0.14594224662E-01 -0.54191274490E+03  0.66671111482E+02  0.54599859012E+03  0.00000000000E+00 0. -1.
        -13    1    3    3    0    0 -0.44845287983E+02 -0.10777903948E+03  0.59717505602E+01  0.11688919116E+03  0.00000000000E+00 0.  1.
          4    1    6    6  502    0  0.30345039460E+02  0.55956047589E+02  0.62116796998E+02  0.88940413485E+02  0.00000000000E+00 0. -1.
          1    1    5    5  503    0  0.70644755445E-01  0.81144064130E+01 -0.47155231572E+02  0.47848348422E+02  0.00000000000E+00 0. -1.
         -2    1    5    5    0  503 -0.72410897792E+02  0.21120893540E+03 -0.21035563277E+03  0.30676056584E+03  0.00000000000E+00 0.  1.
         -3    1    6    6    0  502  0.86825907335E+02  0.37441239497E+03  0.64467315828E+03  0.75055103804E+03  0.00000000000E+00 0.  1.
<mgrwt>
<rscale>  0 0.17821342E+04</rscale>
<asrwt>0</asrwt>
<pdfrwt beam="1">  1        2 0.18299308E+00 0.17821342E+04</pdfrwt>
<pdfrwt beam="2">  1       -2 0.10269740E+00 0.17821342E+04</pdfrwt>
<totfact> 0.14087699E+01</totfact>
</mgrwt>
</event>
<event>
12    1  0.4612066E-007  0.1507086E+04  0.7818608E-02  0.8879755E-01
          2   -1    0    0  501    0  0.00000000000E+00  0.00000000000E+00  0.19799830764E+04  0.19799830764E+04  0.00000000000E+00 0. -1.
         -2   -1    0    0    0  501 -0.00000000000E+00 -0.00000000000E+00 -0.28678373080E+03  0.28678373080E+03  0.00000000000E+00 0.  1.
         23    2    1    2    0    0 -0.33234714754E+03 -0.28791962428E+03  0.27160727925E+03  0.52473367389E+03  0.90678430975E+02 0.  0.
        254    2    1    2    0    0  0.33234714754E+03  0.28791962428E+03  0.14215920663E+04  0.17420331333E+04  0.90576106004E+03 0.  0.
        -24    2    4    4    0    0  0.34670412222E+02  0.66453343630E+02  0.13528625940E+04  0.13572408675E+04  0.79041063196E+02 0.  0.
         24    2    4    4    0    0  0.29767673532E+03  0.22146628065E+03  0.68729472300E+02  0.38479226581E+03  0.75382990420E+02 0.  0.
         13    1    3    3    0    0 -0.76954722157E+02 -0.21699134293E+02  0.52656285840E+02  0.95736963237E+02  0.00000000000E+00 0. -1.
        -13    1    3    3    0    0 -0.25539242539E+03 -0.26622048999E+03  0.21895099341E+03  0.42899671065E+03  0.00000000000E+00 0.  1.
          4    1    6    6  502    0  0.53844400967E+02  0.74239302229E+02  0.34175981633E+02  0.97870788449E+02  0.00000000000E+00 0. -1.
          3    1    5    5  503    0  0.16192741910E+02  0.25359223820E+02  0.12568067197E+03  0.12923206425E+03  0.00000000000E+00 0. -1.
         -4    1    5    5    0  503  0.18477670313E+02  0.41094119810E+02  0.12271819221E+04  0.12280088032E+04  0.00000000000E+00 0.  1.
         -3    1    6    6    0  502  0.24383233435E+03  0.14722697842E+03  0.34553490666E+02  0.28692147736E+03  0.00000000000E+00 0.  1.
<mgrwt>
<rscale>  0 0.15070858E+04</rscale>
<asrwt>0</asrwt>
<pdfrwt beam="1">  1        2 0.30461277E+00 0.15070858E+04</pdfrwt>
<pdfrwt beam="2">  1       -2 0.44120575E-01 0.15070858E+04</pdfrwt>
<totfact> 0.32258165E+01</totfact>
</mgrwt>
</event>
<event>
12    1  0.4612066E-007  0.3030554E+04  0.7818608E-02  0.8235059E-01
         -1   -1    0    0    0  501 -0.00000000000E+00  0.00000000000E+00  0.12730524137E+04  0.12730524137E+04  0.00000000000E+00 0.  1.
          1   -1    0    0  501    0  0.00000000000E+00 -0.00000000000E+00 -0.18035900789E+04  0.18035900789E+04  0.00000000000E+00 0. -1.
         23    2    1    2    0    0  0.63818500427E+03  0.11967211611E+04  0.98222377051E+01  0.13611192072E+04  0.11457479174E+03 0.  0.
        254    2    1    2    0    0 -0.63818500427E+03 -0.11967211611E+04 -0.54035990291E+03  0.17155232854E+04  0.90089382337E+03 0.  0.
        -24    2    4    4    0    0 -0.35160942351E+03 -0.17494923245E+03 -0.51300635031E+03  0.65092426203E+03  0.79312412675E+02 0.  0.
         24    2    4    4    0    0 -0.28657558076E+03 -0.10217719286E+04 -0.27353552596E+02  0.10645990234E+04  0.80494882236E+02 0.  0.
         13    1    3    3    0    0  0.24806019538E+03  0.44819469554E+03 -0.51265427203E+02  0.51482083259E+03  0.00000000000E+00 0. -1.
        -13    1    3    3    0    0  0.39012480890E+03  0.74852646555E+03  0.61087664909E+02  0.84629837466E+03  0.00000000000E+00 0.  1.
          2    1    6    6  502    0 -0.95380116817E+02 -0.48744528261E+03 -0.18134558826E+02  0.49702025356E+03  0.00000000000E+00 0. -1.
          3    1    5    5  503    0 -0.84787149345E+02 -0.81259868883E+02 -0.13709346267E+03  0.18051771241E+03  0.00000000000E+00 0. -1.
         -4    1    5    5    0  503 -0.26682227416E+03 -0.93689363565E+02 -0.37591288764E+03  0.47040654962E+03  0.00000000000E+00 0.  1.
         -1    1    6    6    0  502 -0.19119546395E+03 -0.53432664604E+03 -0.92189937701E+01  0.56757876982E+03  0.00000000000E+00 0.  1.
<mgrwt>
<rscale>  0 0.30305542E+04</rscale>
<asrwt>0</asrwt>
<pdfrwt beam="1">  1        1 0.27747540E+00 0.30305542E+04</pdfrwt>
<pdfrwt beam="2">  1       -1 0.19585422E+00 0.30305542E+04</pdfrwt>
<totfact> 0.55298968E-01</totfact>
</mgrwt>
</event>
<event>
12    1  0.4612066E-007  0.2187880E+04  0.7818608E-02  0.8523490E-01
          3   -1    0    0  501    0  0.00000000000E+00  0.00000000000E+00  0.13078703339E+04  0.13078703339E+04  0.00000000000E+00 0. -1.
         -3   -1    0    0    0  501 -0.00000000000E+00 -0.00000000000E+00 -0.91500258183E+03  0.91500258183E+03  0.00000000000E+00 0.  1.
         23    2    1    2    0    0 -0.89691242736E+03 -0.97453990219E+02  0.21724442459E+03  0.93252765218E+03  0.91997279897E+02 0.  0.
        254    2    1    2    0    0  0.89691242736E+03  0.97453990219E+02  0.17562332751E+03  0.12903452636E+04  0.90564792469E+03 0.  0.
        -24    2    4    4    0    0  0.54996216341E+03  0.24162966028E+03 -0.30226684580E+03  0.67723101551E+03  0.80208031962E+02 0.  0.
         24    2    4    4    0    0  0.34695026395E+03 -0.14417567006E+03  0.47789017330E+03  0.61311424806E+03  0.79805726242E+02 0.  0.
         11    1    3    3    0    0 -0.46486993956E+03 -0.43467469934E+02  0.65655604319E+02  0.47149139974E+03  0.00000000000E+00 0.  1.
        -11    1    3    3    0    0 -0.43204248780E+03 -0.53986520285E+02  0.15158882027E+03  0.46103625244E+03  0.00000000000E+00 0. -1.
          2    1    6    6  502    0  0.26938190163E+03 -0.11077002311E+03  0.41844231423E+03  0.50983387224E+03  0.00000000000E+00 0. -1.
          3    1    5    5  503    0  0.51794038995E+03  0.23225981964E+03 -0.30382619839E+03  0.64383012526E+03  0.00000000000E+00 0. -1.
         -4    1    5    5    0  503  0.32021773461E+02  0.93698406453E+01  0.15593525944E+01  0.33400890255E+02  0.00000000000E+00 0.  1.
         -1    1    6    6    0  502  0.77568362313E+02 -0.33405646959E+02  0.59447859077E+02  0.10328037582E+03  0.00000000000E+00 0.  1.
<mgrwt>
<rscale>  0 0.21878800E+04</rscale>
<asrwt>0</asrwt>
<pdfrwt beam="1">  1        3 0.20121082E+00 0.21878800E+04</pdfrwt>
<pdfrwt beam="2">  1       -3 0.14076963E+00 0.21878800E+04</pdfrwt>
<totfact> 0.13126951E-01</totfact>
</mgrwt>
</event>
<event>
12    1  0.4612066E-007  0.1722378E+04  0.7818608E-02  0.8748703E-01
          4   -1    0    0  501    0  0.00000000000E+00  0.00000000000E+00  0.18424969319E+04  0.18424969319E+04  0.00000000000E+00 0. -1.
         -4   -1    0    0    0  501 -0.00000000000E+00 -0.00000000000E+00 -0.40252253711E+03  0.40252253711E+03  0.00000000000E+00 0.  1.
         23    2    1    2    0    0 -0.26775276009E+03  0.44921507432E+03  0.96369388860E+02  0.53920637404E+03  0.89278951366E+02 0.  0.
        254    2    1    2    0    0  0.26775276009E+03 -0.44921507432E+03  0.13436050060E+04  0.17058130950E+04  0.91161295488E+03 0.  0.
        -24    2    4    4    0    0  0.35177909023E+03 -0.41420655290E+03  0.24715320682E+03  0.60243110819E+03  0.80764693308E+02 0.  0.
         24    2    4    4    0    0 -0.84026330135E+02 -0.35008521420E+02  0.10964517992E+04  0.11033819868E+04  0.83422060927E+02 0.  0.
         11    1    3    3    0    0 -0.22757125670E+03  0.31012288021E+03  0.85283720141E+02  0.39400277998E+03  0.00000000000E+00 0. -1.
        -11    1    3    3    0    0 -0.40181503391E+02  0.13909219411E+03  0.11085668720E+02  0.14520359406E+03  0.00000000000E+00 0.  1.
          2    1    6    6  502    0  0.10786909669E+02  0.11420867532E+02  0.85353323292E+02  0.86787000365E+02  0.00000000000E+00 0. -1.
          3    1    5    5  503    0  0.20792498475E+03 -0.29403593704E+03  0.18560958642E+03  0.40514299960E+03  0.00000000000E+00 0. -1.
         -4    1    5    5    0  503  0.14385410547E+03 -0.12017061587E+03  0.61543620398E+02  0.19728810859E+03  0.00000000000E+00 0.  1.
         -1    1    6    6    0  502 -0.94813239804E+02 -0.46429388951E+02  0.10110984759E+04  0.10165949865E+04  0.00000000000E+00 0.  1.
<mgrwt>
<rscale>  0 0.17223781E+04</rscale>
<asrwt>0</asrwt>
<pdfrwt beam="1">  1        4 0.28346106E+00 0.17223781E+04</pdfrwt>
<pdfrwt beam="2">  1       -4 0.61926545E-01 0.17223781E+04</pdfrwt>
<totfact> 0.18273672E-01</totfact>
</mgrwt>
</event>
<event>
12    1  0.4612066E-007  0.2026122E+04  0.7818608E-02  0.8594504E-01
         -1   -1    0    0    0  501 -0.00000000000E+00  0.00000000000E+00  0.28539224916E+03  0.28539224916E+03  0.00000000000E+00 0.  1.
          1   -1    0    0  501    0  0.00000000000E+00 -0.00000000000E+00 -0.35960769079E+04  0.35960769079E+04  0.00000000000E+00 0. -1.
         23    2    1    2    0    0  0.56232662117E+03 -0.57363065588E+03 -0.15471858236E+04  0.17456673233E+04  0.91143142887E+02 0.  0.
        254    2    1    2    0    0 -0.56232662117E+03  0.57363065588E+03 -0.17634988351E+04  0.21358018338E+04  0.89803005155E+03 0.  0.
        -24    2    4    4    0    0 -0.35445599171E+03 -0.50735387231E+02 -0.15957407835E+03  0.40027141494E+03  0.80871438493E+02 0.  0.
         24    2    4    4    0    0 -0.20787062946E+03  0.62436604311E+03 -0.16039247568E+04  0.17355304188E+04  0.80299781798E+02 0.  0.
         11    1    3    3    0    0  0.84403192454E+02 -0.57222773417E+02 -0.15107062224E+03  0.18226540428E+03  0.00000000000E+00 0.  1.
        -11    1    3    3    0    0  0.47792342872E+03 -0.51640788246E+03 -0.13961152014E+04  0.15634019190E+04  0.00000000000E+00 0. -1.
          4    1    6    6  502    0 -0.37698356154E+02  0.95154597266E+02 -0.18201713940E+03  0.20882002412E+03  0.00000000000E+00 0. -1.
          1    1    5    5  503    0 -0.42452750248E+02 -0.15023027496E+02 -0.50894887694E+02  0.67957464286E+02  0.00000000000E+00 0. -1.
         -2    1    5    5    0  503 -0.31200324146E+03 -0.35712359735E+02 -0.10867919065E+03  0.33231395066E+03  0.00000000000E+00 0.  1.
         -3    1    6    6    0  502 -0.17017227331E+03  0.52921144584E+03 -0.14219076174E+04  0.15267103947E+04  0.00000000000E+00 0.  1.
<mgrwt>
<rscale>  0 0.20261219E+04</rscale>
<asrwt>0</asrwt>
<pdfrwt beam="1">  1        1 0.55324264E+00 0.20261219E+04</pdfrwt>
<pdfrwt beam="2">  1       -1 0.43906497E-01 0.20261219E+04</pdfrwt>
<totfact> 0.99920556E-01</totfact>
</mgrwt>
</event>
<event>
12    1  0.4612066E-007  0.1351192E+04  0.7818608E-02  0.8989926E-01
         -2   -1    0    0    0  501 -0.00000000000E+00  0.00000000000E+00  0.21205358854E+03  0.21205358854E+03  0.00000000000E+00 0.  1.
          2   -1    0    0  501    0  0.00000000000E+00 -0.00000000000E+00 -0.21524264844E+04  0.21524264844E+04  0.00000000000E+00 0. -1.
         23    2    1    2    0    0 -0.17285197487E+03 -0.85723608761E+02 -0.10914912238E+04  0.11121870009E+04  0.91545021546E+02 0.  0.
        254    2    1    2    0    0  0.17285197487E+03  0.85723608761E+02 -0.84888167207E+03  0.12522930721E+04  0.90022858367E+03 0.  0.
        -24    2    4    4    0    0 -0.18692503000E+03 -0.16463842184E+03  0.33639681192E+02  0.26366141546E+03  0.79617441974E+02 0.  0.
         24    2    4    4    0    0  0.35977700487E+03  0.25036203061E+03 -0.88252135326E+03  0.98863165660E+03  0.80174646078E+02 0.  0.
         13    1    3    3    0    0 -0.95634181819E+01 -0.87771115792E+01 -0.30380224564E+03  0.30407943224E+03  0.00000000000E+00 0.  1.
        -13    1    3    3    0    0 -0.16328855669E+03 -0.76946497182E+02 -0.78768897818E+03  0.80810756866E+03  0.00000000000E+00 0. -1.
          2    1    6    6  502    0  0.28672706327E+02  0.31586163586E+01 -0.32213891949E+02  0.43241597795E+02  0.00000000000E+00 0. -1.
          1    1    5    5  503    0 -0.69402109622E+02 -0.29119320282E+02 -0.17225444931E+02  0.77209478607E+02  0.00000000000E+00 0. -1.
         -2    1    5    5    0  503 -0.11752292037E+03 -0.13551910156E+03  0.50865126123E+02  0.18645193686E+03  0.00000000000E+00 0.  1.
         -3    1    6    6    0  502  0.33110429854E+03  0.24720341425E+03 -0.85030746131E+03  0.94539005881E+03  0.00000000000E+00 0.  1.
<mgrwt>
<rscale>  0 0.13511917E+04</rscale>
<asrwt>0</asrwt>
<pdfrwt beam="1">  1        2 0.33114254E+00 0.13511917E+04</pdfrwt>
<pdfrwt beam="2">  1       -2 0.32623628E-01 0.13511917E+04</pdfrwt>
<totfact> 0.47049454E+01</totfact>
</mgrwt>
</event>
<event>
12    1  0.4612066E-007  0.1267284E+04  0.7818608E-02  0.9055919E-01
          2   -1    0    0  501    0  0.00000000000E+00  0.00000000000E+00  0.32938598136E+03  0.32938598136E+03  0.00000000000E+00 0. -1.
         -2   -1    0    0    0  501 -0.00000000000E+00 -0.00000000000E+00 -0.12189415871E+04  0.12189415871E+04  0.00000000000E+00 0.  1.
         23    2    1    2    0    0 -0.12578732653E+03 -0.28066017969E+03 -0.18956994828E+03  0.37235842028E+03  0.90119031756E+02 0.  0.
        254    2    1    2    0    0  0.12578732653E+03  0.28066017969E+03 -0.69998565747E+03  0.11759691482E+04  0.89349366470E+03 0.  0.
        -24    2    4    4    0    0  0.58723991218E+02  0.50427175725E+03 -0.95143501911E+02  0.52265225406E+03  0.79840969519E+02 0.  0.
         24    2    4    4    0    0  0.67063335311E+02 -0.22361157756E+03 -0.60484215556E+03  0.65331689414E+03  0.80556206853E+02 0.  0.
         13    1    3    3    0    0 -0.13988824300E+03 -0.26084943607E+03 -0.17841354077E+03  0.34560460117E+03  0.00000000000E+00 0. -1.
        -13    1    3    3    0    0  0.14100916467E+02 -0.19810743627E+02 -0.11156407511E+02  0.26753819107E+02  0.00000000000E+00 0.  1.
          2    1    6    6  502    0  0.80208068725E+02 -0.13543094816E+03 -0.36790552210E+03  0.40016165383E+03  0.00000000000E+00 0. -1.
          1    1    5    5  503    0 -0.18796459766E+01  0.30555479190E+03 -0.69069435569E+02  0.31326961368E+03  0.00000000000E+00 0. -1.
         -2    1    5    5    0  503  0.60603637195E+02  0.19871696534E+03 -0.26074066342E+02  0.20938264038E+03  0.00000000000E+00 0.  1.
         -1    1    6    6    0  502 -0.13144733414E+02 -0.88180629396E+02 -0.23693663346E+03  0.25315524031E+03  0.00000000000E+00 0.  1.
<mgrwt>
<rscale>  0 0.12672841E+04</rscale>
<asrwt>0</asrwt>
<pdfrwt beam="1">  1        2 0.50674766E-01 0.12672841E+04</pdfrwt>
<pdfrwt beam="2">  1       -2 0.18752948E+00 0.12672841E+04</pdfrwt>
<totfact> 0.15632274E+01</totfact>
</mgrwt>
</event>
<event>
12    1  0.4612066E-007  0.1326894E+04  0.7818608E-02  0.9008506E-01
         -1   -1    0    0    0  501 -0.00000000000E+00  0.00000000000E+00  0.15487823341E+03  0.15487823341E+03  0.00000000000E+00 0.  1.
          1   -1    0    0  501    0  0.00000000000E+00 -0.00000000000E+00 -0.28419854576E+04  0.28419854576E+04  0.00000000000E+00 0. -1.
         23    2    1    2    0    0  0.60086050971E+02 -0.29397505072E+03 -0.32258844513E+03  0.44934452102E+03  0.88405484387E+02 0.  0.
        254    2    1    2    0    0 -0.60086050971E+02  0.29397505072E+03 -0.23645187791E+04  0.25475191700E+04  0.89937378269E+03 0.  0.
        -24    2    4    4    0    0 -0.18639490407E+02  0.27204031036E+03 -0.13217886660E+03  0.31325076427E+03  0.79381531084E+02 0.  0.
         24    2    4    4    0    0 -0.41446560564E+02  0.21934740355E+02 -0.22323399125E+04  0.22342684057E+04  0.80092907370E+02 0.  0.
         13    1    3    3    0    0  0.52989833378E+02 -0.14233160997E+03 -0.21518459890E+03  0.26338303143E+03  0.00000000000E+00 0. -1.
        -13    1    3    3    0    0  0.70962175928E+01 -0.15164344075E+03 -0.10740384623E+03  0.18596148959E+03  0.00000000000E+00 0.  1.
          2    1    6    6  502    0 -0.43322453547E+01 -0.19849189767E+02 -0.13539370681E+04  0.13540894885E+04  0.00000000000E+00 0. -1.
          3    1    5    5  503    0 -0.65098777825E+01  0.15760847507E+03 -0.11865172375E+03  0.19738551484E+03  0.00000000000E+00 0. -1.
         -4    1    5    5    0  503 -0.12129612625E+02  0.11443183530E+03 -0.13527142852E+02  0.11586524943E+03  0.00000000000E+00 0.  1.
         -1    1    6    6    0  502 -0.37114315209E+02  0.41783930122E+02 -0.87840284439E+03  0.88017891717E+03  0.00000000000E+00 0.  1.
<mgrwt>
<rscale>  0 0.13268936E+04</rscale>
<asrwt>0</asrwt>
<pdfrwt beam="1">  1        1 0.43722848E+00 0.13268936E+04</pdfrwt>
<pdfrwt beam="2">  1       -1 0.23827423E-01 0.13268936E+04</pdfrwt>
<totfact> 0.11686644E+01</totfact>
</mgrwt>
</event>
<event>
12    1  0.4612066E-007  0.1240242E+04  0.7818608E-02  0.9078344E-01
          2   -1    0    0  501    0  0.00000000000E+00  0.00000000000E+00  0.15476117640E+04  0.15476117640E+04  0.00000000000E+00 0. -1.
         -2   -1    0    0    0  501 -0.00000000000E+00 -0.00000000000E+00 -0.24847964915E+03  0.24847964915E+03  0.00000000000E+00 0.  1.
         23    2    1    2    0    0  0.51395516777E+02 -0.21382481841E+03  0.75422348797E+02  0.25059524777E+03  0.93524838391E+02 0.  0.
        254    2    1    2    0    0 -0.51395516777E+02  0.21382481841E+03  0.12237097660E+04  0.15454961653E+04  0.91800340607E+03 0.  0.
        -24    2    4    4    0    0 -0.38055322596E+03 -0.16984727868E+03  0.45506647214E+03  0.62174963865E+03  0.76277540809E+02 0.  0.
         24    2    4    4    0    0  0.32915770919E+03  0.38367209709E+03  0.76864329387E+03  0.92374652669E+03  0.83343006660E+02 0.  0.
         11    1    3    3    0    0  0.16697758143E+02 -0.75338228289E+02  0.75314127251E+02  0.10782801831E+03  0.00000000000E+00 0. -1.
        -11    1    3    3    0    0  0.34697758634E+02 -0.13848659012E+03  0.10822154611E+00  0.14276722946E+03  0.00000000000E+00 0.  1.
          4    1    6    6  502    0  0.48480259884E+02  0.38674471684E+02  0.14552263188E+03  0.15818624070E+03  0.00000000000E+00 0. -1.
          3    1    5    5  503    0 -0.35445400808E+02 -0.10780425721E+02  0.78329175545E+02  0.86649026300E+02  0.00000000000E+00 0. -1.
         -4    1    5    5    0  503 -0.34510782516E+03 -0.15906685296E+03  0.37673729659E+03  0.53510061235E+03  0.00000000000E+00 0.  1.
         -3    1    6    6    0  502  0.28067744930E+03  0.34499762540E+03  0.62312066199E+03  0.76556028598E+03  0.00000000000E+00 0.  1.
<mgrwt>
<rscale>  0 0.12402420E+04</rscale>
<asrwt>0</asrwt>
<pdfrwt beam="1">  1        2 0.23809411E+00 0.12402420E+04</pdfrwt>
<pdfrwt beam="2">  1       -2 0.38227639E-01 0.12402420E+04</pdfrwt>
<totfact> 0.75847788E+01</totfact>
</mgrwt>
</event>
<event>
12    1  0.4612066E-007  0.2095921E+04  0.7818608E-02  0.8563042E-01
          2   -1    0    0  501    0  0.00000000000E+00  0.00000000000E+00  0.11655893528E+04  0.11655893528E+04  0.00000000000E+00 0. -1.
         -2   -1    0    0    0  501 -0.00000000000E+00 -0.00000000000E+00 -0.94220288707E+03  0.94220288707E+03  0.00000000000E+00 0.  1.
         23    2    1    2    0    0 -0.62012156514E+03 -0.30800450367E+02  0.65563590838E+03  0.90732232166E+03  0.88746423789E+02 0.  0.
        254    2    1    2    0    0  0.62012156514E+03  0.30800450367E+02 -0.43224944268E+03  0.12004699182E+04  0.93208852607E+03 0.  0.
        -24    2    4    4    0    0 -0.21030598758E+03 -0.51371418343E+02  0.46234223809E+02  0.23508350121E+03  0.79113956138E+02 0.  0.
         24    2    4    4    0    0  0.83042755272E+03  0.82171868710E+02 -0.47848366649E+03  0.96538641695E+03  0.81622169882E+02 0.  0.
         11    1    3    3    0    0 -0.14670764523E+03  0.54650392922E+00  0.10462722581E+03  0.18019513927E+03  0.00000000000E+00 0.  1.
        -11    1    3    3    0    0 -0.47341391991E+03 -0.31346954296E+02  0.55100868257E+03  0.72712718240E+03  0.00000000000E+00 0. -1.
          2    1    6    6  502    0  0.69576525546E+02 -0.11494897998E+02 -0.25679330448E+02  0.75049674212E+02  0.00000000000E+00 0. -1.
          3    1    5    5  503    0 -0.30821629287E+02  0.16426854353E+02 -0.77407101655E+01  0.35773355583E+02  0.00000000000E+00 0. -1.
         -4    1    5    5    0  503 -0.17948435829E+03 -0.67798272696E+02  0.53974933974E+02  0.19931014563E+03  0.00000000000E+00 0.  1.
         -1    1    6    6    0  502  0.76085102718E+03  0.93666766707E+02 -0.45280433604E+03  0.89033674274E+03  0.00000000000E+00 0.  1.
<mgrwt>
<rscale>  0 0.20959214E+04</rscale>
<asrwt>0</asrwt>
<pdfrwt beam="1">  1        2 0.17932144E+00 0.20959214E+04</pdfrwt>
<pdfrwt beam="2">  1       -2 0.14495429E+00 0.20959214E+04</pdfrwt>
<totfact> 0.60061964E+00</totfact>
</mgrwt>
</event>
<event>
12    1  0.4612066E-007  0.1925149E+04  0.7818608E-02  0.8642438E-01
         -1   -1    0    0    0  501 -0.00000000000E+00  0.00000000000E+00  0.71432829694E+03  0.71432829694E+03  0.00000000000E+00 0.  1.
          1   -1    0    0  501    0  0.00000000000E+00 -0.00000000000E+00 -0.12970924735E+04  0.12970924735E+04  0.00000000000E+00 0. -1.
         23    2    1    2    0    0  0.45492683376E+03 -0.49299220073E+03  0.16787327521E+03  0.69780476645E+03  0.93543153178E+02 0.  0.
        254    2    1    2    0    0 -0.45492683376E+03  0.49299220073E+03 -0.75063745174E+03  0.13136160040E+04  0.84387836081E+03 0.  0.
        -24    2    4    4    0    0 -0.50656277629E+03 -0.59032865629E+02 -0.32655806615E+03  0.61096257555E+03  0.80897296618E+02 0.  0.
         24    2    4    4    0    0  0.51635942531E+02  0.55202506635E+03 -0.42407938559E+03  0.70265342841E+03  0.80501992103E+02 0.  0.
         13    1    3    3    0    0  0.44622611340E+03 -0.46532931882E+03  0.17480992550E+03  0.66798774636E+03  0.00000000000E+00 0.  1.
        -13    1    3    3    0    0  0.87007203576E+01 -0.27662881904E+02 -0.69366502891E+01  0.29817020093E+02  0.00000000000E+00 0. -1.
          2    1    6    6  502    0 -0.16945168474E+02  0.13794959488E+03 -0.12865347394E+03  0.18939098664E+03  0.00000000000E+00 0. -1.
          1    1    5    5  503    0 -0.16925897429E+03 -0.59870008540E+01 -0.67324117534E+02  0.18225526428E+03  0.00000000000E+00 0. -1.
         -2    1    5    5    0  503 -0.33730380200E+03 -0.53045864775E+02 -0.25923394862E+03  0.42870731126E+03  0.00000000000E+00 0.  1.
         -1    1    6    6    0  502  0.68581111005E+02  0.41407547148E+03 -0.29542591165E+03  0.51326244177E+03  0.00000000000E+00 0.  1.
<mgrwt>
<rscale>  0 0.19251492E+04</rscale>
<asrwt>0</asrwt>
<pdfrwt beam="1">  1        1 0.19955268E+00 0.19251492E+04</pdfrwt>
<pdfrwt beam="2">  1       -1 0.10989666E+00 0.19251492E+04</pdfrwt>
<totfact> 0.64909241E+00</totfact>
</mgrwt>
</event>
<event>
12    1  0.4612066E-007  0.1503227E+04  0.7818608E-02  0.8882310E-01
          1   -1    0    0  501    0  0.00000000000E+00  0.00000000000E+00  0.12702864256E+04  0.12702864256E+04  0.00000000000E+00 0. -1.
         -1   -1    0    0    0  501 -0.00000000000E+00 -0.00000000000E+00 -0.44472075784E+03  0.44472075784E+03  0.00000000000E+00 0.  1.
         23    2    1    2    0    0  0.84990551901E+02 -0.98024049843E+02  0.79198200378E+03  0.80787973977E+03  0.92747352321E+02 0.  0.
        254    2    1    2    0    0 -0.84990551901E+02  0.98024049843E+02  0.33583663988E+02  0.90712744368E+03  0.89717346613E+03 0.  0.
        -24    2    4    4    0    0  0.34247986219E+03 -0.13639428868E+03  0.13861941272E+03  0.40206185914E+03  0.80885962922E+02 0.  0.
         24    2    4    4    0    0 -0.42747041409E+03  0.23441833853E+03 -0.10503574873E+03  0.50506558455E+03  0.79848755912E+02 0.  0.
         13    1    3    3    0    0  0.94504560857E+01  0.13780025301E+02  0.20083895690E+03  0.20153284305E+03  0.00000000000E+00 0. -1.
        -13    1    3    3    0    0  0.75540095816E+02 -0.11180407514E+03  0.59114304688E+03  0.60634689672E+03  0.00000000000E+00 0.  1.
          4    1    6    6  502    0 -0.22226127785E+03  0.16563431479E+03 -0.48864941540E+02  0.28146506778E+03  0.00000000000E+00 0. -1.
          3    1    5    5  503    0  0.29471646450E+03 -0.13569598547E+03  0.96835672117E+02  0.33859761120E+03  0.00000000000E+00 0. -1.
         -4    1    5    5    0  503  0.47763397692E+02 -0.69830320927E+00  0.41783740605E+02  0.63464247931E+02  0.00000000000E+00 0.  1.
         -3    1    6    6    0  502 -0.20520913624E+03  0.68784023734E+02 -0.56170807195E+02  0.22360051677E+03  0.00000000000E+00 0.  1.
<mgrwt>
<rscale>  0 0.15032269E+04</rscale>
<asrwt>0</asrwt>
<pdfrwt beam="1">  1        1 0.19542868E+00 0.15032269E+04</pdfrwt>
<pdfrwt beam="2">  1       -1 0.68418579E-01 0.15032269E+04</pdfrwt>
<totfact> 0.19867906E+01</totfact>
</mgrwt>
</event>
<event>
12    1  0.4612066E-007  0.2226040E+04  0.7818608E-02  0.8507667E-01
          2   -1    0    0  501    0  0.00000000000E+00  0.00000000000E+00  0.11644666252E+04  0.11644666252E+04  0.00000000000E+00 0. -1.
         -2   -1    0    0    0  501 -0.00000000000E+00 -0.00000000000E+00 -0.10638462630E+04  0.10638462630E+04  0.00000000000E+00 0.  1.
         23    2    1    2    0    0  0.23861442664E+03 -0.80037276623E+03 -0.36823904566E+03  0.91729729970E+03  0.91109449388E+02 0.  0.
        254    2    1    2    0    0 -0.23861442664E+03  0.80037276623E+03  0.46885940787E+03  0.13110155884E+04  0.89520909248E+03 0.  0.
        -24    2    4    4    0    0  0.15175580838E+02  0.24148519598E+03  0.62284744426E+03  0.67319470440E+03  0.81894890451E+02 0.  0.
         24    2    4    4    0    0 -0.25379000748E+03  0.55888757025E+03 -0.15398803639E+03  0.63782088404E+03  0.79614575854E+02 0.  0.
         13    1    3    3    0    0  0.26727567165E+02 -0.15029768780E+03 -0.34715842627E+02  0.15655333767E+03  0.00000000000E+00 0. -1.
        -13    1    3    3    0    0  0.21188685947E+03 -0.65007507843E+03 -0.33352320303E+03  0.76074396204E+03  0.00000000000E+00 0.  1.
          4    1    6    6  502    0 -0.25523140394E+03  0.51801104929E+03 -0.15053130704E+03  0.59677314881E+03  0.00000000000E+00 0. -1.
          1    1    5    5  503    0  0.29572230413E+02  0.18916731575E+03  0.54989677952E+03  0.58227592968E+03  0.00000000000E+00 0. -1.
         -2    1    5    5    0  503 -0.14396649576E+02  0.52317880230E+02  0.72950664743E+02  0.90918774724E+02  0.00000000000E+00 0.  1.
         -3    1    6    6    0  502  0.14413964587E+01  0.40876520958E+02 -0.34567293495E+01  0.41047735226E+02  0.00000000000E+00 0.  1.
<mgrwt>
<rscale>  0 0.22260400E+04</rscale>
<asrwt>0</asrwt>
<pdfrwt beam="1">  1        2 0.17914871E+00 0.22260400E+04</pdfrwt>
<pdfrwt beam="2">  1       -2 0.16366866E+00 0.22260400E+04</pdfrwt>
<totfact> 0.42962687E+00</totfact>
</mgrwt>
</event>
<event>
12    1  0.4612066E-007  0.2776732E+04  0.7818608E-02  0.8310529E-01
          2   -1    0    0  501    0  0.00000000000E+00  0.00000000000E+00  0.22959370663E+04  0.22959370663E+04  0.00000000000E+00 0. -1.
         -2   -1    0    0    0  501 -0.00000000000E+00 -0.00000000000E+00 -0.83955273836E+03  0.83955273836E+03  0.00000000000E+00 0.  1.
         23    2    1    2    0    0  0.67153638394E+03 -0.78965405053E+03  0.14175922390E+04  0.17583973906E+04  0.88763691113E+02 0.  0.
        254    2    1    2    0    0 -0.67153638394E+03  0.78965405053E+03  0.38792088976E+02  0.13770924141E+04  0.90573950794E+03 0.  0.
        -24    2    4    4    0    0 -0.53539206014E+03  0.18204009652E+02 -0.16053255972E+03  0.56483229604E+03  0.79301802566E+02 0.  0.
         24    2    4    4    0    0 -0.13614432380E+03  0.77145004088E+03  0.19932464870E+03  0.81226011803E+03  0.79785595759E+02 0.  0.
         13    1    3    3    0    0  0.14546808929E+03 -0.18253218214E+03  0.38335283478E+03  0.44881884814E+03  0.00000000000E+00 0. -1.
        -13    1    3    3    0    0  0.52606829465E+03 -0.60712186839E+03  0.10342394042E+04  0.13095785425E+04  0.00000000000E+00 0.  1.
          2    1    6    6  502    0 -0.18324329910E+02  0.90018884408E+02  0.50702364506E+02  0.10492812008E+03  0.00000000000E+00 0. -1.
          1    1    5    5  503    0 -0.35792083223E+03  0.49463653860E+02 -0.10522844133E+03  0.37633362867E+03  0.00000000000E+00 0. -1.
         -2    1    5    5    0  503 -0.17747122790E+03 -0.31259644208E+02 -0.55304118391E+02  0.18849866737E+03  0.00000000000E+00 0.  1.
         -1    1    6    6    0  502 -0.11781999389E+03  0.68143115647E+03  0.14862228419E+03  0.70733199795E+03  0.00000000000E+00 0.  1.
<mgrwt>
<rscale>  0 0.27767321E+04</rscale>
<asrwt>0</asrwt>
<pdfrwt beam="1">  1        2 0.35322109E+00 0.27767321E+04</pdfrwt>
<pdfrwt beam="2">  1       -2 0.12916196E+00 0.27767321E+04</pdfrwt>
<totfact> 0.17539948E+00</totfact>
</mgrwt>
</event>
<event>
12    1  0.4612066E-007  0.1716817E+04  0.7818608E-02  0.8751831E-01
         -2   -1    0    0    0  501 -0.00000000000E+00  0.00000000000E+00  0.46000044511E+03  0.46000044511E+03  0.00000000000E+00 0.  1.
          2   -1    0    0  501    0  0.00000000000E+00 -0.00000000000E+00 -0.16018786285E+04  0.16018786285E+04  0.00000000000E+00 0. -1.
         23    2    1    2    0    0  0.55440561850E+03 -0.28300489669E+03 -0.18952603767E+03  0.65700427757E+03  0.90978790995E+02 0.  0.
        254    2    1    2    0    0 -0.55440561850E+03  0.28300489669E+03 -0.95235214575E+03  0.14048747961E+04  0.82416091980E+03 0.  0.
        -24    2    4    4    0    0 -0.46561215126E+02 -0.21830510507E+03 -0.35019352434E+02  0.23980660785E+03  0.80347921387E+02 0.  0.
         24    2    4    4    0    0 -0.50784440337E+03  0.50131000176E+03 -0.91733279331E+03  0.11650681882E+04  0.81650312932E+02 0.  0.
         13    1    3    3    0    0  0.26039665840E+03 -0.10652819886E+03 -0.12596470152E+03  0.30825603463E+03  0.00000000000E+00 0. -1.
        -13    1    3    3    0    0  0.29400896010E+03 -0.17647669783E+03 -0.63561336150E+02  0.34874824294E+03  0.00000000000E+00 0.  1.
          4    1    6    6  502    0 -0.14997988563E+03  0.12821200572E+03 -0.31034084928E+03  0.36775498261E+03  0.00000000000E+00 0. -1.
          3    1    5    5  503    0 -0.55601404674E+02 -0.73915037516E+02 -0.16502888558E+02  0.93953681692E+02  0.00000000000E+00 0. -1.
         -4    1    5    5    0  503  0.90401895473E+01 -0.14439006755E+03 -0.18516463876E+02  0.14585292616E+03  0.00000000000E+00 0.  1.
         -3    1    6    6    0  502 -0.35786451774E+03  0.37309799604E+03 -0.60699194404E+03  0.79731320560E+03  0.00000000000E+00 0.  1.
<mgrwt>
<rscale>  0 0.17168167E+04</rscale>
<asrwt>0</asrwt>
<pdfrwt beam="1">  1        2 0.24644287E+00 0.17168167E+04</pdfrwt>
<pdfrwt beam="2">  1       -2 0.70769298E-01 0.17168167E+04</pdfrwt>
<totfact> 0.19186145E+01</totfact>
</mgrwt>
</event>
<event>
12    1  0.4612066E-007  0.1682361E+04  0.7818608E-02  0.8771489E-01
          1   -1    0    0  501    0  0.00000000000E+00  0.00000000000E+00  0.37209011695E+04  0.37209011695E+04  0.00000000000E+00 0. -1.
         -1   -1    0    0    0  501 -0.00000000000E+00 -0.00000000000E+00 -0.19016492463E+03  0.19016492463E+03  0.00000000000E+00 0.  1.
         23    2    1    2    0    0 -0.90644593699E+01 -0.13338683550E+03 -0.86098104501E+02  0.18280492457E+03  0.90169532211E+02 0.  0.
        254    2    1    2    0    0  0.90644593699E+01  0.13338683550E+03  0.36168343493E+04  0.37282611695E+04  0.89474377639E+03 0.  0.
        -24    2    4    4    0    0  0.11187672317E+03  0.42842033434E+02  0.35519353262E+04  0.35548761494E+04  0.80919926841E+02 0.  0.
         24    2    4    4    0    0 -0.10281226380E+03  0.90544802068E+02  0.64899023094E+02  0.17338502016E+03  0.84153189175E+02 0.  0.
         11    1    3    3    0    0  0.24728095726E+02 -0.11948384990E+03 -0.51352438900E+02  0.13238180421E+03  0.00000000000E+00 0. -1.
        -11    1    3    3    0    0 -0.33792555096E+02 -0.13902985601E+02 -0.34745665601E+02  0.50423120357E+02  0.00000000000E+00 0.  1.
          2    1    6    6  502    0 -0.50212697707E+02  0.88986058608E+02  0.19790061626E+02  0.10407439732E+03  0.00000000000E+00 0. -1.
          3    1    5    5  503    0  0.25018747379E+02  0.50553304104E+01  0.19352667593E+04  0.19354350735E+04  0.00000000000E+00 0. -1.
         -4    1    5    5    0  503  0.86857975789E+02  0.37786703023E+02  0.16166685669E+04  0.16194410759E+04  0.00000000000E+00 0.  1.
         -1    1    6    6    0  502 -0.52599566091E+02  0.15587434599E+01  0.45108961468E+02  0.69310622843E+02  0.00000000000E+00 0.  1.
<mgrwt>
<rscale>  0 0.16823613E+04</rscale>
<asrwt>0</asrwt>
<pdfrwt beam="1">  1        1 0.57244628E+00 0.16823613E+04</pdfrwt>
<pdfrwt beam="2">  1       -1 0.29256145E-01 0.16823613E+04</pdfrwt>
<totfact> 0.17033817E+00</totfact>
</mgrwt>
</event>
<event>
12    1  0.4612066E-007  0.3411531E+04  0.7818608E-02  0.8135082E-01
         -1   -1    0    0    0  501 -0.00000000000E+00  0.00000000000E+00  0.25785549790E+04  0.25785549790E+04  0.00000000000E+00 0.  1.
          1   -1    0    0  501    0  0.00000000000E+00 -0.00000000000E+00 -0.11283977728E+04  0.11283977728E+04  0.00000000000E+00 0. -1.
         23    2    1    2    0    0 -0.15793374318E+04 -0.38127297294E+02  0.45775916356E+03  0.16473727740E+04  0.92375269346E+02 0.  0.
        254    2    1    2    0    0  0.15793374318E+04  0.38127297294E+02  0.99239804261E+03  0.20595799778E+04  0.87249951030E+03 0.  0.
        -24    2    4    4    0    0  0.24062104126E+03  0.10530579763E+03  0.60086907704E+03  0.66057849418E+03  0.79577023771E+02 0.  0.
         24    2    4    4    0    0  0.13387163906E+04 -0.67178500341E+02  0.39152896557E+03  0.13990014836E+04  0.85062887990E+02 0.  0.
         11    1    3    3    0    0 -0.67160084008E+03 -0.27084556911E+02  0.24103013279E+03  0.71405657096E+03  0.00000000000E+00 0.  1.
        -11    1    3    3    0    0 -0.90773659176E+03 -0.11042740383E+02  0.21672903077E+03  0.93331620307E+03  0.00000000000E+00 0. -1.
          4    1    6    6  502    0  0.44784081354E+03  0.13632147440E+02  0.14899340795E+03  0.47217185995E+03  0.00000000000E+00 0. -1.
          3    1    5    5  503    0  0.11794808595E+03  0.89323722956E+01  0.24807026892E+03  0.27482793995E+03  0.00000000000E+00 0. -1.
         -4    1    5    5    0  503  0.12267295531E+03  0.96373425339E+02  0.35279880812E+03  0.38575055423E+03  0.00000000000E+00 0.  1.
         -1    1    6    6    0  502  0.89087557704E+03 -0.80810647781E+02  0.24253555762E+03  0.92682962365E+03  0.00000000000E+00 0.  1.
<mgrwt>
<rscale>  0 0.34115309E+04</rscale>
<asrwt>0</asrwt>
<pdfrwt beam="1">  1        1 0.17359966E+00 0.34115309E+04</pdfrwt>
<pdfrwt beam="2">  1       -1 0.39670076E+00 0.34115309E+04</pdfrwt>
<totfact> 0.74694271E-02</totfact>
</mgrwt>
</event>
<event>
12    1  0.4612066E-007  0.1543696E+04  0.7818608E-02  0.8855904E-01
         -1   -1    0    0    0  501 -0.00000000000E+00  0.00000000000E+00  0.36979923382E+03  0.36979923382E+03  0.00000000000E+00 0.  1.
          1   -1    0    0  501    0  0.00000000000E+00 -0.00000000000E+00 -0.16110077943E+04  0.16110077943E+04  0.00000000000E+00 0. -1.
         23    2    1    2    0    0  0.12680791222E+03 -0.49120504415E+03 -0.34343518735E+03  0.61882004545E+03  0.87337728059E+02 0.  0.
        254    2    1    2    0    0 -0.12680791222E+03  0.49120504415E+03 -0.89777337312E+03  0.13619869827E+04  0.88974651978E+03 0.  0.
        -24    2    4    4    0    0 -0.21153996486E+03 -0.20763862536E+03 -0.19524582350E+03  0.36399624848E+03  0.80680740213E+02 0.  0.
         24    2    4    4    0    0  0.84732052635E+02  0.69884366951E+03 -0.70252754963E+03  0.99799073419E+03  0.82937038724E+02 0.  0.
         11    1    3    3    0    0  0.34681655994E+01 -0.15990942889E+03 -0.86833669483E+02  0.18199763673E+03  0.00000000000E+00 0.  1.
        -11    1    3    3    0    0  0.12333974663E+03 -0.33129561526E+03 -0.25660151787E+03  0.43682240872E+03  0.00000000000E+00 0. -1.
          4    1    6    6  502    0  0.82469771084E+02  0.68365981888E+03 -0.66436280480E+03  0.95685419343E+03  0.00000000000E+00 0. -1.
          1    1    5    5  503    0 -0.18888990715E+03 -0.21077501068E+03 -0.17103366814E+03  0.33069323819E+03  0.00000000000E+00 0. -1.
         -2    1    5    5    0  503 -0.22650057711E+02  0.31363853197E+01 -0.24212155358E+02  0.33303010289E+02  0.00000000000E+00 0.  1.
         -3    1    6    6    0  502  0.22622815513E+01  0.15183850630E+02 -0.38164744827E+02  0.41136540757E+02  0.00000000000E+00 0.  1.
<mgrwt>
<rscale>  0 0.15436961E+04</rscale>
<asrwt>0</asrwt>
<pdfrwt beam="1">  1        1 0.24784735E+00 0.15436961E+04</pdfrwt>
<pdfrwt beam="2">  1       -1 0.56892191E-01 0.15436961E+04</pdfrwt>
<totfact> 0.16533075E+01</totfact>
</mgrwt>
</event>
<event>
12    1  0.4612066E-007  0.1186163E+04  0.7818608E-02  0.9125055E-01
         -1   -1    0    0    0  501 -0.00000000000E+00  0.00000000000E+00  0.10214078465E+03  0.10214078465E+03  0.00000000000E+00 0.  1.
          1   -1    0    0  501    0  0.00000000000E+00 -0.00000000000E+00 -0.34437323130E+04  0.34437323130E+04  0.00000000000E+00 0. -1.
         23    2    1    2    0    0  0.58195369919E+02  0.56301643434E+02 -0.14016567731E+04  0.14071180896E+04  0.93717834322E+02 0.  0.
        254    2    1    2    0    0 -0.58195369919E+02 -0.56301643434E+02 -0.19399347552E+04  0.21387550080E+04  0.89686651937E+03 0.  0.
        -24    2    4    4    0    0 -0.26216363452E+03 -0.31880068855E+03 -0.16076622766E+04  0.16616961933E+04  0.79325865424E+02 0.  0.
         24    2    4    4    0    0  0.20396826460E+03  0.26249904512E+03 -0.33227247867E+03  0.47705881474E+03  0.81678093710E+02 0.  0.
         13    1    3    3    0    0 -0.19435417130E+02  0.26686889205E+02 -0.65929196720E+03  0.66011803756E+03  0.00000000000E+00 0. -1.
        -13    1    3    3    0    0  0.77630787049E+02  0.29614754228E+02 -0.74236480586E+03  0.74700005204E+03  0.00000000000E+00 0.  1.
          2    1    6    6  502    0  0.36707973006E+02  0.10729015193E+03 -0.95775995846E+02  0.14843076960E+03  0.00000000000E+00 0. -1.
          1    1    5    5  503    0 -0.13857963014E+03 -0.22678687272E+03 -0.10544037951E+04  0.10873839996E+04  0.00000000000E+00 0. -1.
         -2    1    5    5    0  503 -0.12358400438E+03 -0.92013815834E+02 -0.55325848149E+03  0.57431219365E+03  0.00000000000E+00 0.  1.
         -1    1    6    6    0  502  0.16726029159E+03  0.15520889319E+03 -0.23649648282E+03  0.32862804514E+03  0.00000000000E+00 0.  1.
<mgrwt>
<rscale>  0 0.11861628E+04</rscale>
<asrwt>0</asrwt>
<pdfrwt beam="1">  1        1 0.52980498E+00 0.11861628E+04</pdfrwt>
<pdfrwt beam="2">  1       -1 0.15713967E-01 0.11861628E+04</pdfrwt>
<totfact> 0.85442915E+00</totfact>
</mgrwt>
</event>
<event>
12    1  0.4612066E-007  0.1620703E+04  0.7818608E-02  0.8807929E-01
          2   -1    0    0  501    0  0.00000000000E+00  0.00000000000E+00  0.40877075577E+03  0.40877075577E+03  0.00000000000E+00 0. -1.
         -2   -1    0    0    0  501 -0.00000000000E+00 -0.00000000000E+00 -0.16064496188E+04  0.16064496188E+04  0.00000000000E+00 0.  1.
         23    2    1    2    0    0  0.33624374020E+03  0.29703411723E+03  0.34233183393E+00  0.45754002118E+03  0.89742042364E+02 0.  0.
        254    2    1    2    0    0 -0.33624374020E+03 -0.29703411723E+03 -0.11980211949E+04  0.15576803534E+04  0.88872052997E+03 0.  0.
        -24    2    4    4    0    0  0.14392089981E+03 -0.36658809384E+03 -0.20895699723E+03  0.45286897962E+03  0.79543887620E+02 0.  0.
         24    2    4    4    0    0 -0.48016464002E+03  0.69553976611E+02 -0.98906419767E+03  0.11048113738E+04  0.83452665596E+02 0.  0.
         11    1    3    3    0    0  0.11386256670E+03  0.95446325085E+02 -0.42045249285E+02  0.15441012938E+03  0.00000000000E+00 0.  1.
        -11    1    3    3    0    0  0.22238117350E+03  0.20158779215E+03  0.42387581119E+02  0.30312989180E+03  0.00000000000E+00 0. -1.
          4    1    6    6  502    0 -0.39861919068E+01  0.98333783056E+01 -0.10628471510E+02  0.15018304214E+02  0.00000000000E+00 0. -1.
          3    1    5    5  503    0  0.21205775256E+02 -0.16066017577E+03 -0.82944238648E+02  0.18204703708E+03  0.00000000000E+00 0. -1.
         -4    1    5    5    0  503  0.12271512456E+03 -0.20592791807E+03 -0.12601275858E+03  0.27082194254E+03  0.00000000000E+00 0.  1.
         -3    1    6    6    0  502 -0.47617844811E+03  0.59720598306E+02 -0.97843572616E+03  0.10897930696E+04  0.00000000000E+00 0.  1.
<mgrwt>
<rscale>  0 0.16207031E+04</rscale>
<asrwt>0</asrwt>
<pdfrwt beam="1">  1        2 0.62887809E-01 0.16207031E+04</pdfrwt>
<pdfrwt beam="2">  1       -2 0.24714609E+00 0.16207031E+04</pdfrwt>
<totfact> 0.49717083E+00</totfact>
</mgrwt>
</event>
<event>
12    1  0.4612066E-007  0.1326007E+04  0.7818608E-02  0.9009192E-01
         -2   -1    0    0    0  501 -0.00000000000E+00  0.00000000000E+00  0.61732574004E+03  0.61732574004E+03  0.00000000000E+00 0.  1.
          2   -1    0    0  501    0  0.00000000000E+00 -0.00000000000E+00 -0.71206061168E+03  0.71206061168E+03  0.00000000000E+00 0. -1.
         23    2    1    2    0    0  0.22757922307E+03 -0.13634853636E+03 -0.24480143263E+03  0.37261306257E+03  0.92355437495E+02 0.  0.
        254    2    1    2    0    0 -0.22757922307E+03  0.13634853636E+03  0.15006656099E+03  0.95677328916E+03  0.90692443344E+03 0.  0.
        -24    2    4    4    0    0 -0.51726245679E+03  0.26648571238E+03  0.21003026943E+03  0.62383764239E+03  0.80533259480E+02 0.  0.
         24    2    4    4    0    0  0.28968323372E+03 -0.13013717602E+03 -0.59963708436E+02  0.33293564677E+03  0.79990237389E+02 0.  0.
         11    1    3    3    0    0  0.21230294375E+03 -0.15038385521E+03 -0.22658901216E+03  0.34500786116E+03  0.00000000000E+00 0. -1.
        -11    1    3    3    0    0  0.15276279322E+02  0.14035318849E+02 -0.18212420475E+02  0.27605201406E+02  0.00000000000E+00 0.  1.
          4    1    6    6  502    0  0.28630200960E+03 -0.13537183837E+03 -0.49191154595E+02  0.32049047570E+03  0.00000000000E+00 0. -1.
          1    1    5    5  503    0 -0.38792469269E+03  0.21771417138E+03  0.12711226926E+03  0.46264733503E+03  0.00000000000E+00 0. -1.
         -2    1    5    5    0  503 -0.12933776410E+03  0.48771540999E+02  0.82918000172E+02  0.16119030736E+03  0.00000000000E+00 0.  1.
         -3    1    6    6    0  502  0.33812241200E+01  0.52346623563E+01 -0.10772553841E+02  0.12445171063E+02  0.00000000000E+00 0.  1.
<mgrwt>
<rscale>  0 0.13260066E+04</rscale>
<asrwt>0</asrwt>
<pdfrwt beam="1">  1        2 0.10954779E+00 0.13260066E+04</pdfrwt>
<pdfrwt beam="2">  1       -2 0.94973191E-01 0.13260066E+04</pdfrwt>
<totfact> 0.36595350E+01</totfact>
</mgrwt>
</event>
<event>
12    1  0.4612066E-007  0.1315653E+04  0.7818608E-02  0.9017244E-01
          4   -1    0    0  501    0  0.00000000000E+00  0.00000000000E+00  0.53415314732E+03  0.53415314732E+03  0.00000000000E+00 0. -1.
         -4   -1    0    0    0  501 -0.00000000000E+00 -0.00000000000E+00 -0.81013391321E+03  0.81013391321E+03  0.00000000000E+00 0.  1.
         23    2    1    2    0    0  0.11487447537E+03 -0.11956210488E+03 -0.37987298948E+03  0.42445847922E+03  0.91489182048E+02 0.  0.
        254    2    1    2    0    0 -0.11487447537E+03  0.11956210488E+03  0.10389222359E+03  0.91982858130E+03  0.89877682594E+03 0.  0.
        -24    2    4    4    0    0 -0.10601144495E+03 -0.37772642249E+03  0.11365276010E+03  0.41612827554E+03  0.79562020573E+02 0.  0.
         24    2    4    4    0    0 -0.88630304169E+01  0.49728852737E+03 -0.97605365063E+01  0.50370030576E+03  0.79020865496E+02 0.  0.
         11    1    3    3    0    0  0.93186252738E+02 -0.13406981447E+03 -0.32850119591E+03  0.36683978596E+03  0.00000000000E+00 0.  1.
        -11    1    3    3    0    0  0.21688222632E+02  0.14507709586E+02 -0.51371793573E+02  0.57618693263E+02  0.00000000000E+00 0. -1.
          2    1    6    6  502    0  0.27079356632E+02  0.11104485014E+03 -0.17959219592E+02  0.11570126995E+03  0.00000000000E+00 0. -1.
          1    1    5    5  503    0 -0.27061147179E+02 -0.32797107386E+02  0.31365358630E+02  0.52836934634E+02  0.00000000000E+00 0. -1.
         -2    1    5    5    0  503 -0.78950297774E+02 -0.34492931511E+03  0.82287401468E+02  0.36329134091E+03  0.00000000000E+00 0.  1.
         -1    1    6    6    0  502 -0.35942387049E+02  0.38624367723E+03  0.81986830862E+01  0.38799903581E+03  0.00000000000E+00 0.  1.
<mgrwt>
<rscale>  0 0.13156528E+04</rscale>
<asrwt>0</asrwt>
<pdfrwt beam="1">  1        4 0.82177407E-01 0.13156528E+04</pdfrwt>
<pdfrwt beam="2">  1       -4 0.12463599E+00 0.13156528E+04</pdfrwt>
<totfact> 0.12282328E+00</totfact>
</mgrwt>
</event>
<event>
12    1  0.4612066E-007  0.3617580E+04  0.7818608E-02  0.8086477E-01
          2   -1    0    0  501    0  0.00000000000E+00  0.00000000000E+00  0.25794564025E+04  0.25794564025E+04  0.00000000000E+00 0. -1.
         -2   -1    0    0    0  501 -0.00000000000E+00 -0.00000000000E+00 -0.12683762628E+04  0.12683762628E+04  0.00000000000E+00 0.  1.
         23    2    1    2    0    0  0.66414885488E+03 -0.14187475961E+04  0.13036550231E+04  0.20401072264E+04  0.92642500107E+02 0.  0.
        254    2    1    2    0    0 -0.66414885488E+03  0.14187475961E+04  0.74251165273E+01  0.18077254389E+04  0.90215169856E+03 0.  0.
        -24    2    4    4    0    0 -0.17442398143E+03  0.12756865553E+04 -0.24414901316E+02  0.12903867117E+04  0.81864922646E+02 0.  0.
         24    2    4    4    0    0 -0.48972487345E+03  0.14306104086E+03  0.31840017843E+02  0.51733872728E+03  0.79552868752E+02 0.  0.
         13    1    3    3    0    0  0.51944656042E+03 -0.10748450366E+04  0.94459976579E+03  0.15222960617E+04  0.00000000000E+00 0.  1.
        -13    1    3    3    0    0  0.14470229446E+03 -0.34390255950E+03  0.35905525736E+03  0.51781116470E+03  0.00000000000E+00 0. -1.
          4    1    6    6  502    0 -0.48956287838E+02  0.15678294990E+02  0.27956809263E+02  0.58515897300E+02  0.00000000000E+00 0. -1.
          3    1    5    5  503    0 -0.14888955477E+03  0.10592051559E+04  0.10237463336E+02  0.10696674565E+04  0.00000000000E+00 0. -1.
         -4    1    5    5    0  503 -0.25534426661E+02  0.21648139940E+03 -0.34652364652E+02  0.22071925518E+03  0.00000000000E+00 0.  1.
         -3    1    6    6    0  502 -0.44076858561E+03  0.12738274586E+03  0.38832085799E+01  0.45882282998E+03  0.00000000000E+00 0.  1.
<mgrwt>
<rscale>  0 0.36175800E+04</rscale>
<asrwt>0</asrwt>
<pdfrwt beam="1">  1        2 0.39683944E+00 0.36175800E+04</pdfrwt>
<pdfrwt beam="2">  1       -2 0.19513481E+00 0.36175800E+04</pdfrwt>
<totfact> 0.36466119E-01</totfact>
</mgrwt>
</event>
<event>
12    1  0.4612066E-007  0.3638535E+04  0.7818608E-02  0.8081721E-01
          2   -1    0    0  501    0  0.00000000000E+00  0.00000000000E+00  0.36014034100E+04  0.36014034100E+04  0.00000000000E+00 0. -1.
         -2   -1    0    0    0  501 -0.00000000000E+00 -0.00000000000E+00 -0.91901239206E+03  0.91901239206E+03  0.00000000000E+00 0.  1.
         23    2    1    2    0    0 -0.61023325667E+03  0.12711626254E+04  0.66390325970E+02  0.14145929811E+04  0.91796400751E+02 0.  0.
        254    2    1    2    0    0  0.61023325667E+03 -0.12711626254E+04  0.26160006920E+04  0.31058228210E+04  0.90246148221E+03 0.  0.
        -24    2    4    4    0    0  0.26620055777E+03  0.98138346068E+01  0.85805510289E+03  0.90210581549E+03  0.81100520622E+02 0.  0.
         24    2    4    4    0    0  0.34403269891E+03 -0.12809764600E+04  0.17579455891E+04  0.22037170055E+04  0.82077749183E+02 0.  0.
         11    1    3    3    0    0 -0.19493447349E+03  0.36966745628E+03  0.58620884673E+02  0.42200697305E+03  0.00000000000E+00 0. -1.
        -11    1    3    3    0    0 -0.41529878318E+03  0.90149516910E+03  0.77694412963E+01  0.99258600809E+03  0.00000000000E+00 0.  1.
          4    1    6    6  502    0  0.26130475864E+03 -0.98235978608E+03  0.12879914885E+04  0.16408025477E+04  0.00000000000E+00 0. -1.
          1    1    5    5  503    0  0.25770717320E+03 -0.22316474896E+00  0.74551283068E+03  0.78879808419E+03  0.00000000000E+00 0. -1.
         -2    1    5    5    0  503  0.84933845642E+01  0.10036999356E+02  0.11254227221E+03  0.11330773130E+03  0.00000000000E+00 0.  1.
         -3    1    6    6    0  502  0.82727940266E+02 -0.29861667391E+03  0.46995410061E+03  0.56291445773E+03  0.00000000000E+00 0.  1.
<mgrwt>
<rscale>  0 0.36385351E+04</rscale>
<asrwt>0</asrwt>
<pdfrwt beam="1">  1        2 0.55406206E+00 0.36385351E+04</pdfrwt>
<pdfrwt beam="2">  1       -2 0.14138652E+00 0.36385351E+04</pdfrwt>
<totfact> 0.19552137E-01</totfact>
</mgrwt>
</event>
<event>
12    1  0.4612066E-007  0.1757579E+04  0.7818608E-02  0.8729190E-01
          2   -1    0    0  501    0  0.00000000000E+00  0.00000000000E+00  0.61875884552E+03  0.61875884552E+03  0.00000000000E+00 0. -1.
         -2   -1    0    0    0  501 -0.00000000000E+00 -0.00000000000E+00 -0.12480962858E+04  0.12480962858E+04  0.00000000000E+00 0.  1.
         23    2    1    2    0    0  0.38418281739E+03  0.22112385930E+03  0.26520256029E+03  0.52421464741E+03  0.89310694987E+02 0.  0.
        254    2    1    2    0    0 -0.38418281739E+03 -0.22112385930E+03 -0.89454000054E+03  0.13426404839E+04  0.89776915632E+03 0.  0.
        -24    2    4    4    0    0 -0.33341000854E+03 -0.13874723432E+03 -0.10683276267E+04  0.11305752596E+04  0.80395713942E+02 0.  0.
         24    2    4    4    0    0 -0.50772808852E+02 -0.82376624988E+02  0.17378762615E+03  0.21206522429E+03  0.73523696093E+02 0.  0.
         11    1    3    3    0    0  0.28842197106E+03  0.12517943429E+03  0.16102161147E+03  0.35324932203E+03  0.00000000000E+00 0.  1.
        -11    1    3    3    0    0  0.95760846334E+02  0.95944425018E+02  0.10418094882E+03  0.17096532537E+03  0.00000000000E+00 0. -1.
          4    1    6    6  502    0 -0.59516656478E+02 -0.81661502639E+02  0.11696450905E+03  0.15456885129E+03  0.00000000000E+00 0. -1.
          3    1    5    5  503    0 -0.27105926480E+03 -0.79884521874E+02 -0.86207129445E+03  0.90720536737E+03  0.00000000000E+00 0. -1.
         -4    1    5    5    0  503 -0.62350743738E+02 -0.58862712443E+02 -0.20625633224E+03  0.22336989222E+03  0.00000000000E+00 0.  1.
         -3    1    6    6    0  502  0.87438476268E+01 -0.71512234904E+00  0.56823117098E+02  0.57496372999E+02  0.00000000000E+00 0.  1.
<mgrwt>
<rscale>  0 0.17575786E+04</rscale>
<asrwt>0</asrwt>
<pdfrwt beam="1">  1        2 0.95193670E-01 0.17575786E+04</pdfrwt>
<pdfrwt beam="2">  1       -2 0.19201481E+00 0.17575786E+04</pdfrwt>
<totfact> 0.67936125E+00</totfact>
</mgrwt>
</event>
<event>
12    1  0.4612066E-007  0.2371571E+04  0.7818608E-02  0.8450224E-01
         -1   -1    0    0    0  501 -0.00000000000E+00  0.00000000000E+00  0.20234320230E+04  0.20234320230E+04  0.00000000000E+00 0.  1.
          1   -1    0    0  501    0  0.00000000000E+00 -0.00000000000E+00 -0.69490219231E+03  0.69490219231E+03  0.00000000000E+00 0. -1.
         23    2    1    2    0    0 -0.92584210057E+03 -0.34700263090E+03  0.31827268982E+03  0.10425029374E+04  0.88996900631E+02 0.  0.
        254    2    1    2    0    0  0.92584210057E+03  0.34700263090E+03  0.10102571409E+04  0.16758312779E+04  0.90010919359E+03 0.  0.
        -24    2    4    4    0    0  0.88911670276E+03  0.21369194051E+03  0.11444534752E+04  0.14669038758E+04  0.76422950391E+02 0.  0.
         24    2    4    4    0    0  0.36725397804E+02  0.13331069039E+03 -0.13419633427E+03  0.20892740218E+03  0.80755855732E+02 0.  0.
         11    1    3    3    0    0 -0.23249324408E+03 -0.96821842771E+02  0.42009484471E+02  0.25532797451E+03  0.00000000000E+00 0. -1.
        -11    1    3    3    0    0 -0.69334885649E+03 -0.25018078813E+03  0.27626320535E+03  0.78717496287E+03  0.00000000000E+00 0.  1.
          4    1    6    6  502    0  0.52620802503E+02  0.13293674834E+03 -0.12788069921E+03  0.19181918867E+03  0.00000000000E+00 0. -1.
          3    1    5    5  503    0  0.42884322139E+03  0.89430903594E+02  0.60540820908E+03  0.74727738804E+03  0.00000000000E+00 0. -1.
         -4    1    5    5    0  503  0.46027348138E+03  0.12426103692E+03  0.53904526608E+03  0.71962648772E+03  0.00000000000E+00 0.  1.
         -3    1    6    6    0  502 -0.15895404699E+02  0.37394205557E+00 -0.63156350634E+01  0.17108213509E+02  0.00000000000E+00 0.  1.
<mgrwt>
<rscale>  0 0.23715711E+04</rscale>
<asrwt>0</asrwt>
<pdfrwt beam="1">  1        1 0.10690803E+00 0.23715711E+04</pdfrwt>
<pdfrwt beam="2">  1       -1 0.31129723E+00 0.23715711E+04</pdfrwt>
<totfact> 0.69038910E-01</totfact>
</mgrwt>
</event>
<event>
12    1  0.4612066E-007  0.1722666E+04  0.7818608E-02  0.8748541E-01
         -2   -1    0    0    0  501 -0.00000000000E+00  0.00000000000E+00  0.33467676055E+03  0.33467676055E+03  0.00000000000E+00 0.  1.
          2   -1    0    0  501    0  0.00000000000E+00 -0.00000000000E+00 -0.22167505668E+04  0.22167505668E+04  0.00000000000E+00 0. -1.
         23    2    1    2    0    0  0.48085258567E+02  0.58707749603E+03 -0.70263637443E+03  0.92123553417E+03  0.89469862525E+02 0.  0.
        254    2    1    2    0    0 -0.48085258567E+02 -0.58707749603E+03 -0.11794374318E+04  0.16301917932E+04  0.95889543150E+03 0.  0.
        -24    2    4    4    0    0  0.36868120955E+03 -0.51593894276E+03 -0.44511286561E+03  0.77933179679E+03  0.84343105363E+02 0.  0.
         24    2    4    4    0    0 -0.41676646812E+03 -0.71138553265E+02 -0.73432456619E+03  0.85085999638E+03  0.77299302777E+02 0.  0.
         11    1    3    3    0    0  0.57242064299E+02  0.50947619662E+03 -0.64606004096E+03  0.82476434536E+03  0.00000000000E+00 0. -1.
        -11    1    3    3    0    0 -0.91568057322E+01  0.77601299405E+02 -0.56576333472E+02  0.96471188807E+02  0.00000000000E+00 0.  1.
          2    1    6    6  502    0 -0.41069556892E+03 -0.60434088457E+02 -0.69377618630E+03  0.80848532828E+03  0.00000000000E+00 0. -1.
          3    1    5    5  503    0  0.36398064161E+03 -0.48142327829E+03 -0.40841573771E+03  0.72873431040E+03  0.00000000000E+00 0. -1.
         -4    1    5    5    0  503  0.47005679413E+01 -0.34515664474E+02 -0.36697127893E+02  0.50597486386E+02  0.00000000000E+00 0.  1.
         -1    1    6    6    0  502 -0.60708992058E+01 -0.10704464808E+02 -0.40548379898E+02  0.42374668097E+02  0.00000000000E+00 0.  1.
<mgrwt>
<rscale>  0 0.17226664E+04</rscale>
<asrwt>0</asrwt>
<pdfrwt beam="1">  1        2 0.34103856E+00 0.17226664E+04</pdfrwt>
<pdfrwt beam="2">  1       -2 0.51488731E-01 0.17226664E+04</pdfrwt>
<totfact> 0.17111445E+01</totfact>
</mgrwt>
</event>
<event>
12    1  0.4790742E-007  0.2542514E+04  0.7818608E-02  0.8387994E-01
          2   -1    0    0  501    0  0.00000000000E+00  0.00000000000E+00  0.20806838714E+04  0.20806838714E+04  0.00000000000E+00 0. -1.
         -2   -1    0    0    0  501 -0.00000000000E+00 -0.00000000000E+00 -0.77671294130E+03  0.77671294130E+03  0.00000000000E+00 0.  1.
         23    2    1    2    0    0  0.79819210048E+03 -0.71412502593E+03  0.24507467635E+03  0.11022769710E+04  0.88700292992E+02 0.  0.
        254    2    1    2    0    0 -0.79819210048E+03  0.71412502593E+03  0.10588962537E+04  0.17551198416E+04  0.90116546780E+03 0.  0.
        -24    2    4    4    0    0 -0.18579326345E+03 -0.67955444351E+02  0.63637568776E+03  0.67220209671E+03  0.88003202708E+02 0.  0.
         24    2    4    4    0    0 -0.61239883703E+03  0.78208047028E+03  0.42252056594E+03  0.10829177449E+04  0.86631495311E+02 0.  0.
         13    1    3    3    0    0  0.32556273977E+03 -0.34526337322E+03  0.12667746608E+03  0.49116705389E+03  0.00000000000E+00 0. -1.
        -13    1    3    3    0    0  0.47262936071E+03 -0.36886165271E+03  0.11839721027E+03  0.61110991716E+03  0.00000000000E+00 0.  1.
          2    1    6    6  502    0 -0.58070687956E+03  0.76020358353E+03  0.39218514998E+03  0.10338951399E+04  0.00000000000E+00 0. -1.
          3    1    5    5  503    0 -0.19113027059E+03 -0.52855019821E+02  0.55754233062E+03  0.59175829854E+03  0.00000000000E+00 0. -1.
         -4    1    5    5    0  503  0.53370071371E+01 -0.15100424529E+02  0.78833357138E+02  0.80443798169E+02  0.00000000000E+00 0.  1.
         -1    1    6    6    0  502 -0.31691957470E+02  0.21876886747E+02  0.30335415957E+02  0.49022605024E+02  0.00000000000E+00 0.  1.
<mgrwt>
<rscale>  0 0.25425138E+04</rscale>
<asrwt>0</asrwt>
<pdfrwt beam="1">  1        2 0.32010521E+00 0.25425138E+04</pdfrwt>
<pdfrwt beam="2">  1       -2 0.11949430E+00 0.25425138E+04</pdfrwt>
<totfact> 0.28727397E+00</totfact>
</mgrwt>
</event>
<event>
12    1  0.4612066E-007  0.1180867E+04  0.7818608E-02  0.9129770E-01
          2   -1    0    0  501    0  0.00000000000E+00  0.00000000000E+00  0.72845968216E+03  0.72845968216E+03  0.00000000000E+00 0. -1.
         -2   -1    0    0    0  501 -0.00000000000E+00 -0.00000000000E+00 -0.47856037013E+03  0.47856037013E+03  0.00000000000E+00 0.  1.
         23    2    1    2    0    0  0.72384459757E+02  0.21621795791E+03  0.11242045705E+03  0.26992527481E+03  0.90728052354E+02 0.  0.
        254    2    1    2    0    0 -0.72384459757E+02 -0.21621795791E+03  0.13747885498E+03  0.93709477748E+03  0.89847452445E+03 0.  0.
        -24    2    4    4    0    0 -0.12878673926E+03 -0.55422952031E+03  0.92660626013E+02  0.58201967433E+03  0.80028271870E+02 0.  0.
         24    2    4    4    0    0  0.56402279503E+02  0.33801156240E+03  0.44818228968E+02  0.35507510315E+03  0.81465463710E+02 0.  0.
         13    1    3    3    0    0  0.60181528743E+02  0.10290464499E+03  0.99401738434E+02  0.15521561766E+03  0.00000000000E+00 0. -1.
        -13    1    3    3    0    0  0.12202931013E+02  0.11331331292E+03  0.13018718616E+02  0.11470965715E+03  0.00000000000E+00 0.  1.
          2    1    6    6  502    0  0.91322737910E+01  0.21433960006E+03 -0.22895568274E+01  0.21454627624E+03  0.00000000000E+00 0. -1.
          3    1    5    5  503    0 -0.63546054455E+02 -0.42567806816E+03  0.66349678950E+02  0.43547927464E+03  0.00000000000E+00 0. -1.
         -4    1    5    5    0  503 -0.65240684804E+02 -0.12855145216E+03  0.26310947063E+02  0.14654039969E+03  0.00000000000E+00 0.  1.
         -1    1    6    6    0  502  0.47270005712E+02  0.12367196235E+03  0.47107785795E+02  0.14052882691E+03  0.00000000000E+00 0.  1.
<mgrwt>
<rscale>  0 0.11808674E+04</rscale>
<asrwt>0</asrwt>
<pdfrwt beam="1">  1        2 0.11207072E+00 0.11808674E+04</pdfrwt>
<pdfrwt beam="2">  1       -2 0.73624672E-01 0.11808674E+04</pdfrwt>
<totfact> 0.64034282E+01</totfact>
</mgrwt>
</event>
<event>
12    1  0.4612066E-007  0.1535857E+04  0.7818608E-02  0.8860952E-01
         -2   -1    0    0    0  501 -0.00000000000E+00  0.00000000000E+00  0.98343901676E+03  0.98343901676E+03  0.00000000000E+00 0.  1.
          2   -1    0    0  501    0  0.00000000000E+00 -0.00000000000E+00 -0.59964503329E+03  0.59964503329E+03  0.00000000000E+00 0. -1.
         23    2    1    2    0    0  0.95704250444E+02 -0.39953400623E+03 -0.16679449376E+02  0.42045587381E+03  0.87853355683E+02 0.  0.
        254    2    1    2    0    0 -0.95704250444E+02  0.39953400623E+03  0.40047343285E+03  0.11626281762E+04  0.10112064972E+04 0.  0.
        -24    2    4    4    0    0  0.20948811751E+03 -0.26144598298E+03  0.21943401734E+03  0.40830836890E+03  0.79530891816E+02 0.  0.
         24    2    4    4    0    0 -0.30519236796E+03  0.66097998921E+03  0.18103941551E+03  0.75431980734E+03  0.78652235701E+02 0.  0.
         13    1    3    3    0    0  0.10355011429E+03 -0.25976207616E+03 -0.20703081178E+02  0.28040609828E+03  0.00000000000E+00 0. -1.
        -13    1    3    3    0    0 -0.78458638445E+01 -0.13977193007E+03  0.40236318028E+01  0.14004977554E+03  0.00000000000E+00 0.  1.
          2    1    6    6  502    0 -0.26462533127E+03  0.62046083380E+03  0.16006187155E+03  0.69326619343E+03  0.00000000000E+00 0. -1.
          3    1    5    5  503    0  0.16200443415E+03 -0.21582508024E+03  0.20966701162E+03  0.34173989774E+03  0.00000000000E+00 0. -1.
         -4    1    5    5    0  503  0.47483683364E+02 -0.45620902734E+02  0.97670057268E+01  0.66568471163E+02  0.00000000000E+00 0.  1.
         -3    1    6    6    0  502 -0.40567036688E+02  0.40519155409E+02  0.20977543957E+02  0.61053613908E+02  0.00000000000E+00 0.  1.
<mgrwt>
<rscale>  0 0.15358572E+04</rscale>
<asrwt>0</asrwt>
<pdfrwt beam="1">  1        2 0.92253082E-01 0.15358572E+04</pdfrwt>
<pdfrwt beam="2">  1       -2 0.15129831E+00 0.15358572E+04</pdfrwt>
<totfact> 0.13994465E+01</totfact>
</mgrwt>
</event>
<event>
12    1  0.4612066E-007  0.2532492E+04  0.7818608E-02  0.8391501E-01
          4   -1    0    0  501    0  0.00000000000E+00  0.00000000000E+00  0.19736590637E+04  0.19736590637E+04  0.00000000000E+00 0.  1.
         -4   -1    0    0    0  501 -0.00000000000E+00 -0.00000000000E+00 -0.81238870410E+03  0.81238870410E+03  0.00000000000E+00 0. -1.
         23    2    1    2    0    0 -0.91125916511E+03  0.53383971177E+03  0.87578453123E+03  0.13755179400E+04  0.98351178494E+02 0.  0.
        254    2    1    2    0    0  0.91125916511E+03 -0.53383971177E+03  0.28548582835E+03  0.14105298278E+04  0.89034495169E+03 0.  0.
        -24    2    4    4    0    0  0.52969859687E+03  0.11918094959E+03 -0.99553711024E+02  0.55772467326E+03  0.79756927638E+02 0.  0.
         24    2    4    4    0    0  0.38156056824E+03 -0.65302066136E+03  0.38503953937E+03  0.85280515452E+03  0.83646478126E+02 0.  0.
         13    1    3    3    0    0 -0.86869318965E+02  0.31267573006E+02  0.49749563602E+02  0.10487592087E+03  0.00000000000E+00 0. -1.
        -13    1    3    3    0    0 -0.82438984614E+03  0.50257213876E+03  0.82603496763E+03  0.12706420191E+04  0.00000000000E+00 0.  1.
          2    1    6    6  502    0  0.37068199309E+03 -0.63976680591E+03  0.35979740726E+03  0.82229002196E+03  0.00000000000E+00 0. -1.
          3    1    5    5  503    0  0.33516808967E+03  0.83902642783E+02 -0.24936939907E+02  0.34640893865E+03  0.00000000000E+00 0. -1.
         -4    1    5    5    0  503  0.19453050720E+03  0.35278306806E+02 -0.74616771117E+02  0.21131573461E+03  0.00000000000E+00 0.  1.
         -1    1    6    6    0  502  0.10878575150E+02 -0.13253855447E+02  0.25242132116E+02  0.30515132561E+02  0.00000000000E+00 0.  1.
<mgrwt>
<rscale>  0 0.25324915E+04</rscale>
<asrwt>0</asrwt>
<pdfrwt beam="1">  1        4 0.30363986E+00 0.25324915E+04</pdfrwt>
<pdfrwt beam="2">  1       -4 0.12498288E+00 0.25324915E+04</pdfrwt>
<totfact> 0.24856972E-02</totfact>
</mgrwt>
</event>
<event>
12    1  0.4612066E-007  0.1309783E+04  0.7818608E-02  0.9021843E-01
         -1   -1    0    0    0  501 -0.00000000000E+00  0.00000000000E+00  0.32552147224E+03  0.32552147224E+03  0.00000000000E+00 0.  1.
          1   -1    0    0  501    0  0.00000000000E+00 -0.00000000000E+00 -0.13175256471E+04  0.13175256471E+04  0.00000000000E+00 0. -1.
         23    2    1    2    0    0  0.15993846395E+03 -0.13179671800E+03  0.71082495162E+02  0.23489275781E+03  0.84682934689E+02 0.  0.
        254    2    1    2    0    0 -0.15993846395E+03  0.13179671800E+03 -0.10630866701E+04  0.14081543616E+04  0.89988596545E+03 0.  0.
        -24    2    4    4    0    0  0.34817696976E+03  0.19222109361E+03 -0.45834105471E+03  0.61194641376E+03  0.78903357260E+02 0.  0.
         24    2    4    4    0    0 -0.50811543371E+03 -0.60424375609E+02 -0.60474561536E+03  0.79620794781E+03  0.79983984132E+02 0.  0.
         11    1    3    3    0    0  0.15451504873E+03 -0.13117979331E+03  0.44188432214E+02  0.20745036997E+03  0.00000000000E+00 0. -1.
        -11    1    3    3    0    0  0.54234152165E+01 -0.61692468909E+00  0.26894062949E+02  0.27442387844E+02  0.00000000000E+00 0.  1.
          4    1    6    6  502    0 -0.80692136685E+01 -0.13418055146E+02 -0.18534897119E+02  0.24263116543E+02  0.00000000000E+00 0. -1.
          3    1    5    5  503    0 -0.23707877069E+01  0.90122096022E+01 -0.61008316805E+01  0.11138254058E+02  0.00000000000E+00 0. -1.
         -4    1    5    5    0  503  0.35054775746E+03  0.18320888401E+03 -0.45224022303E+03  0.60080815970E+03  0.00000000000E+00 0.  1.
         -3    1    6    6    0  502 -0.50004622004E+03 -0.47006320462E+02 -0.58621071824E+03  0.77194483127E+03  0.00000000000E+00 0.  1.
<mgrwt>
<rscale>  0 0.13097830E+04</rscale>
<asrwt>0</asrwt>
<pdfrwt beam="1">  1        1 0.20269625E+00 0.13097830E+04</pdfrwt>
<pdfrwt beam="2">  1       -1 0.50080226E-01 0.13097830E+04</pdfrwt>
<totfact> 0.34521925E+01</totfact>
</mgrwt>
</event>
<event>
12    1  0.4612066E-007  0.1280615E+04  0.7818608E-02  0.9045081E-01
          2   -1    0    0  501    0  0.00000000000E+00  0.00000000000E+00  0.11168738880E+04  0.11168738880E+04  0.00000000000E+00 0. -1.
         -2   -1    0    0    0  501 -0.00000000000E+00 -0.00000000000E+00 -0.36709034676E+03  0.36709034676E+03  0.00000000000E+00 0.  1.
         23    2    1    2    0    0 -0.19191729577E+03  0.13143602107E+03 -0.48114401094E+02  0.26078855753E+03  0.10764757358E+03 0.  0.
        254    2    1    2    0    0  0.19191729577E+03 -0.13143602107E+03  0.79789794235E+03  0.12231756772E+04  0.89744634099E+03 0.  0.
        -24    2    4    4    0    0 -0.10700609730E+03 -0.27005968454E+03 -0.53990246442E+02  0.30630323546E+03  0.80772441267E+02 0.  0.
         24    2    4    4    0    0  0.29892339307E+03  0.13862366347E+03  0.85188818879E+03  0.91687244179E+03  0.79811486154E+02 0.  0.
         11    1    3    3    0    0 -0.24160318006E+02 -0.17369359566E+02  0.54132031873E+01  0.30244311640E+02  0.00000000000E+00 0. -1.
        -11    1    3    3    0    0 -0.16775697776E+03  0.14880538063E+03 -0.53527604282E+02  0.23054424589E+03  0.00000000000E+00 0.  1.
          4    1    6    6  502    0  0.39835954940E+02 -0.47297982782E+01  0.68365083830E+02  0.79265749127E+02  0.00000000000E+00 0. -1.
          3    1    5    5  503    0 -0.14288122425E+02 -0.58388079613E+02 -0.44914372907E+02  0.75037451829E+02  0.00000000000E+00 0. -1.
         -4    1    5    5    0  503 -0.92717974874E+02 -0.21167160493E+03 -0.90758735342E+01  0.23126578363E+03  0.00000000000E+00 0.  1.
         -3    1    6    6    0  502  0.25908743813E+03  0.14335346175E+03  0.78352310496E+03  0.83760669266E+03  0.00000000000E+00 0.  1.
<mgrwt>
<rscale>  0 0.12806149E+04</rscale>
<asrwt>0</asrwt>
<pdfrwt beam="1">  1        2 0.17182675E+00 0.12806149E+04</pdfrwt>
<pdfrwt beam="2">  1       -2 0.56475439E-01 0.12806149E+04</pdfrwt>
<totfact> 0.61413939E+01</totfact>
</mgrwt>
</event>
<event>
12    1  0.4612066E-007  0.1665488E+04  0.7818608E-02  0.8781296E-01
         -1   -1    0    0    0  501 -0.00000000000E+00  0.00000000000E+00  0.10646052343E+04  0.10646052343E+04  0.00000000000E+00 0.  1.
          1   -1    0    0  501    0  0.00000000000E+00 -0.00000000000E+00 -0.65138006492E+03  0.65138006492E+03  0.00000000000E+00 0. -1.
         23    2    1    2    0    0  0.26637905811E+03  0.25234278519E+03  0.62100614190E+03  0.72765760279E+03  0.95928487878E+02 0.  0.
        254    2    1    2    0    0 -0.26637905811E+03 -0.25234278519E+03 -0.20778097252E+03  0.98832769642E+03  0.89385905999E+03 0.  0.
        -24    2    4    4    0    0  0.73427629921E+02  0.25532679232E+03  0.10580318953E+03  0.29676980129E+03  0.79338592963E+02 0.  0.
         24    2    4    4    0    0 -0.33980668803E+03 -0.50766957751E+03 -0.31358416205E+03  0.69155789513E+03  0.81977499722E+02 0.  0.
         11    1    3    3    0    0  0.14856512471E+03  0.89340114946E+02  0.34547403169E+03  0.38653015276E+03  0.00000000000E+00 0.  1.
        -11    1    3    3    0    0  0.11781393340E+03  0.16300267025E+03  0.27553211020E+03  0.34112745003E+03  0.00000000000E+00 0. -1.
          4    1    6    6  502    0 -0.33869662995E+03 -0.48025874737E+03 -0.28978391141E+03  0.65523933557E+03  0.00000000000E+00 0. -1.
          3    1    5    5  503    0  0.39053681327E+02  0.10339871804E+03  0.85387914726E+02  0.13966954177E+03  0.00000000000E+00 0. -1.
         -4    1    5    5    0  503  0.34373948594E+02  0.15192807428E+03  0.20415274800E+02  0.15710025952E+03  0.00000000000E+00 0.  1.
         -3    1    6    6    0  502 -0.11100580869E+01 -0.27410830136E+02 -0.23800250637E+02  0.36318559554E+02  0.00000000000E+00 0.  1.
<mgrwt>
<rscale>  0 0.16654881E+04</rscale>
<asrwt>0</asrwt>
<pdfrwt beam="1">  1        1 0.10021232E+00 0.16654881E+04</pdfrwt>
<pdfrwt beam="2">  1       -1 0.16378542E+00 0.16654881E+04</pdfrwt>
<totfact> 0.79288715E+00</totfact>
</mgrwt>
</event>
<event>
12    1  0.4612066E-007  0.1400283E+04  0.7818608E-02  0.8953613E-01
         -2   -1    0    0    0  501 -0.00000000000E+00  0.00000000000E+00  0.57723186460E+03  0.57723186460E+03  0.00000000000E+00 0.  1.
          2   -1    0    0  501    0  0.00000000000E+00 -0.00000000000E+00 -0.84922272318E+03  0.84922272318E+03  0.00000000000E+00 0. -1.
         23    2    1    2    0    0  0.12503252123E+03 -0.34476710031E+02  0.30714592898E+03  0.34685602709E+03  0.95648873186E+02 0.  0.
        254    2    1    2    0    0 -0.12503252123E+03  0.34476710031E+02 -0.57913678756E+03  0.10795985607E+04  0.90183804458E+03 0.  0.
        -24    2    4    4    0    0  0.74781825868E+02 -0.29799146628E+03 -0.60289168026E+03  0.68190336084E+03  0.84395378629E+02 0.  0.
         24    2    4    4    0    0 -0.19981434709E+03  0.33246817632E+03  0.23754892704E+02  0.39769519986E+03  0.84476715714E+02 0.  0.
         11    1    3    3    0    0  0.13659241233E+03 -0.44485054804E+02  0.29152415954E+03  0.32499652737E+03  0.00000000000E+00 0.  1.
        -11    1    3    3    0    0 -0.11559891108E+02  0.10008344774E+02  0.15621769435E+02  0.21859499716E+02  0.00000000000E+00 0. -1.
          4    1    6    6  502    0 -0.18339320434E+03  0.29934062893E+03 -0.46282919319E+01  0.35108303948E+03  0.00000000000E+00 0. -1.
          3    1    5    5  503    0  0.74641964621E+02 -0.29273780579E+03 -0.53975681832E+03  0.61855013439E+03  0.00000000000E+00 0. -1.
         -4    1    5    5    0  503  0.13986124702E+00 -0.52536604910E+01 -0.63134861939E+02  0.63353226451E+02  0.00000000000E+00 0.  1.
         -3    1    6    6    0  502 -0.16421142755E+02  0.33127547390E+02  0.28383184636E+02  0.46612160382E+02  0.00000000000E+00 0.  1.
<mgrwt>
<rscale>  0 0.14002834E+04</rscale>
<asrwt>0</asrwt>
<pdfrwt beam="1">  1        2 0.13064965E+00 0.14002834E+04</pdfrwt>
<pdfrwt beam="2">  1       -2 0.88804903E-01 0.14002834E+04</pdfrwt>
<totfact> 0.33720829E+01</totfact>
</mgrwt>
</event>
<event>
12    1  0.4612066E-007  0.1351629E+04  0.7818608E-02  0.8989596E-01
          1   -1    0    0  501    0  0.00000000000E+00  0.00000000000E+00  0.35766087572E+03  0.35766087572E+03  0.00000000000E+00 0.  1.
         -1   -1    0    0    0  501 -0.00000000000E+00 -0.00000000000E+00 -0.12769786286E+04  0.12769786286E+04  0.00000000000E+00 0. -1.
         23    2    1    2    0    0  0.28537892647E+03 -0.70110543939E+02 -0.51914796429E+03  0.60320311683E+03  0.89346355786E+02 0.  0.
        254    2    1    2    0    0 -0.28537892647E+03  0.70110543939E+02 -0.40016978861E+03  0.10314363875E+04  0.90408436647E+03 0.  0.
        -24    2    4    4    0    0 -0.77464974089E+02 -0.19998255166E+03 -0.58862730001E+03  0.63268361124E+03  0.88388972405E+02 0.  0.
         24    2    4    4    0    0 -0.20791395238E+03  0.27009309560E+03  0.18845751140E+03  0.39875277625E+03  0.85492988503E+02 0.  0.
         11    1    3    3    0    0  0.17498254172E+03 -0.85129045492E+02 -0.30458982652E+03  0.36144267417E+03  0.00000000000E+00 0. -1.
        -11    1    3    3    0    0  0.11039638475E+03  0.15018501554E+02 -0.21455813777E+03  0.24176044266E+03  0.00000000000E+00 0.  1.
          2    1    6    6  502    0  0.66851454471E+01  0.16240982769E+02  0.18156442763E+02  0.25260979885E+02  0.00000000000E+00 0. -1.
          3    1    5    5  503    0  0.12706877926E+02 -0.24987841740E+02 -0.13977798113E+03  0.14256135868E+03  0.00000000000E+00 0. -1.
         -4    1    5    5    0  503 -0.90171852015E+02 -0.17499470992E+03 -0.44884931888E+03  0.49012225256E+03  0.00000000000E+00 0.  1.
         -1    1    6    6    0  502 -0.21459909783E+03  0.25385211283E+03  0.17030106864E+03  0.37349179637E+03  0.00000000000E+00 0.  1.
<mgrwt>
<rscale>  0 0.13516291E+04</rscale>
<asrwt>0</asrwt>
<pdfrwt beam="1">  1        1 0.55024751E-01 0.13516291E+04</pdfrwt>
<pdfrwt beam="2">  1       -1 0.19645825E+00 0.13516291E+04</pdfrwt>
<totfact> 0.10847648E+01</totfact>
</mgrwt>
</event>
<event>
12    1  0.4612066E-007  0.1477537E+04  0.7818608E-02  0.8899529E-01
         -3   -1    0    0    0  501 -0.00000000000E+00  0.00000000000E+00  0.75497244611E+03  0.75497244611E+03  0.00000000000E+00 0.  1.
          3   -1    0    0  501    0  0.00000000000E+00 -0.00000000000E+00 -0.72291268069E+03  0.72291268069E+03  0.00000000000E+00 0. -1.
         23    2    1    2    0    0 -0.22247563457E+03  0.19995718145E+03  0.35572909328E+03  0.47364391251E+03  0.91198057295E+02 0.  0.
        254    2    1    2    0    0  0.22247563457E+03 -0.19995718145E+03 -0.32366932786E+03  0.10042412143E+04  0.90236372950E+03 0.  0.
        -24    2    4    4    0    0  0.28355255857E+03 -0.33166255403E+03  0.17654001766E+03  0.47760670873E+03  0.80868332366E+02 0.  0.
         24    2    4    4    0    0 -0.61076923992E+02  0.13170537257E+03 -0.50020934552E+03  0.52663450557E+03  0.77831981206E+02 0.  0.
         13    1    3    3    0    0 -0.30960106302E+02 -0.26110000897E+01  0.57868700580E+02  0.65682052423E+02  0.00000000000E+00 0. -1.
        -13    1    3    3    0    0 -0.19151552827E+03  0.20256818154E+03  0.29786039270E+03  0.40796186008E+03  0.00000000000E+00 0.  1.
          2    1    6    6  502    0 -0.40428725470E+02  0.10575756643E+03 -0.46366042003E+03  0.47728411853E+03  0.00000000000E+00 0. -1.
          3    1    5    5  503    0  0.27166665997E+03 -0.28248371859E+03  0.16749701072E+03  0.42621012894E+03  0.00000000000E+00 0. -1.
         -4    1    5    5    0  503  0.11885898596E+02 -0.49178835437E+02  0.90430069379E+01  0.51396579797E+02  0.00000000000E+00 0.  1.
         -1    1    6    6    0  502 -0.20648198522E+02  0.25947806149E+02 -0.36548925492E+02  0.49350387038E+02  0.00000000000E+00 0.  1.
<mgrwt>
<rscale>  0 0.14775373E+04</rscale>
<asrwt>0</asrwt>
<pdfrwt beam="1">  1        3 0.11121734E+00 0.14775373E+04</pdfrwt>
<pdfrwt beam="2">  1       -3 0.11614961E+00 0.14775373E+04</pdfrwt>
<totfact> 0.10554316E+00</totfact>
</mgrwt>
</event>
<event>
12    1  0.4612066E-007  0.1603185E+04  0.7818608E-02  0.8818594E-01
          2   -1    0    0  501    0  0.00000000000E+00  0.00000000000E+00  0.23283003014E+04  0.23283003014E+04  0.00000000000E+00 0. -1.
         -2   -1    0    0    0  501 -0.00000000000E+00 -0.00000000000E+00 -0.27597405844E+03  0.27597405844E+03  0.00000000000E+00 0.  1.
         23    2    1    2    0    0 -0.49114729570E+03 -0.54665526420E+02  0.10823801991E+04  0.11934268528E+04  0.92232162675E+02 0.  0.
        254    2    1    2    0    0  0.49114729570E+03  0.54665526420E+02  0.96994604391E+03  0.14108475070E+04  0.89748614148E+03 0.  0.
        -24    2    4    4    0    0  0.85362335357E+02 -0.19101037196E+03 -0.94360138198E+02  0.24287346658E+03  0.79448062252E+02 0.  0.
         24    2    4    4    0    0  0.40578496034E+03  0.24567589838E+03  0.10643061821E+04  0.11679740404E+04  0.79985178667E+02 0.  0.
         13    1    3    3    0    0 -0.33185138547E+03 -0.71346074089E+01  0.79357072586E+03  0.86019227014E+03  0.00000000000E+00 0. -1.
        -13    1    3    3    0    0 -0.15929591023E+03 -0.47530919011E+02  0.28880947322E+03  0.33323458269E+03  0.00000000000E+00 0.  1.
          2    1    6    6  502    0  0.26593409907E+03  0.15221950390E+03  0.77419531165E+03  0.83262843033E+03  0.00000000000E+00 0. -1.
          1    1    5    5  503    0  0.98432875560E+02 -0.14044705380E+03 -0.69897446822E+02  0.18520275102E+03  0.00000000000E+00 0. -1.
         -2    1    5    5    0  503 -0.13070540203E+02 -0.50563318163E+02 -0.24462691376E+02  0.57670715569E+02  0.00000000000E+00 0.  1.
         -1    1    6    6    0  502  0.13985086127E+03  0.93456394477E+02  0.29011087046E+03  0.33534561012E+03  0.00000000000E+00 0.  1.
<mgrwt>
<rscale>  0 0.16031849E+04</rscale>
<asrwt>0</asrwt>
<pdfrwt beam="1">  1        2 0.35820003E+00 0.16031849E+04</pdfrwt>
<pdfrwt beam="2">  1       -2 0.42457549E-01 0.16031849E+04</pdfrwt>
<totfact> 0.22051927E+01</totfact>
</mgrwt>
</event>
<event>
12    1  0.4612066E-007  0.1654296E+04  0.7818608E-02  0.8787869E-01
         -1   -1    0    0    0  501 -0.00000000000E+00  0.00000000000E+00  0.14528879482E+03  0.14528879482E+03  0.00000000000E+00 0.  1.
          1   -1    0    0  501    0  0.00000000000E+00 -0.00000000000E+00 -0.47090615977E+04  0.47090615977E+04  0.00000000000E+00 0. -1.
         23    2    1    2    0    0 -0.39680428962E+03 -0.15101372409E+03 -0.46536056416E+03  0.63635123865E+03  0.90131321546E+02 0.  0.
        254    2    1    2    0    0  0.39680428962E+03  0.15101372409E+03 -0.40984122387E+04  0.42179991539E+04  0.90237198233E+03 0.  0.
        -24    2    4    4    0    0  0.49786876984E+03 -0.10368475133E+03 -0.12008846249E+04  0.13064543283E+04  0.77943505515E+02 0.  0.
         24    2    4    4    0    0 -0.10106448022E+03  0.25469847542E+03 -0.28975276139E+04  0.29115448256E+04  0.79634513602E+02 0.  0.
         13    1    3    3    0    0 -0.91688665223E+02 -0.29888229169E+02 -0.16648537006E+03  0.19239931397E+03  0.00000000000E+00 0. -1.
        -13    1    3    3    0    0 -0.30511562440E+03 -0.12112549492E+03 -0.29887519410E+03  0.44395192468E+03  0.00000000000E+00 0.  1.
          2    1    6    6  502    0 -0.96885356668E+02  0.25906818108E+03 -0.28729792438E+04  0.28862627791E+04  0.00000000000E+00 0. -1.
          1    1    5    5  503    0  0.10513184568E+03 -0.49720693432E+02 -0.31998729355E+03  0.34046544665E+03  0.00000000000E+00 0. -1.
         -2    1    5    5    0  503  0.39273692416E+03 -0.53964057900E+02 -0.88089733133E+03  0.96598888166E+03  0.00000000000E+00 0.  1.
         -1    1    6    6    0  502 -0.41791235489E+01 -0.43697056542E+01 -0.24548370036E+02  0.25282046448E+02  0.00000000000E+00 0.  1.
<mgrwt>
<rscale>  0 0.16542961E+04</rscale>
<asrwt>0</asrwt>
<pdfrwt beam="1">  1        1 0.72447089E+00 0.16542961E+04</pdfrwt>
<pdfrwt beam="2">  1       -1 0.22352126E-01 0.16542961E+04</pdfrwt>
<totfact> 0.32058517E-01</totfact>
</mgrwt>
</event>
<event>
12    1  0.4612066E-007  0.3450867E+04  0.7818608E-02  0.8125533E-01
         -2   -1    0    0    0  501 -0.00000000000E+00  0.00000000000E+00  0.10887253136E+04  0.10887253136E+04  0.00000000000E+00 0.  1.
          2   -1    0    0  501    0  0.00000000000E+00 -0.00000000000E+00 -0.27345016519E+04  0.27345016519E+04  0.00000000000E+00 0. -1.
         23    2    1    2    0    0 -0.92371804515E+03  0.15840436833E+03 -0.22117420571E+04  0.24040850984E+04  0.97340960032E+02 0.  0.
        254    2    1    2    0    0  0.92371804515E+03 -0.15840436833E+03  0.56596571876E+03  0.14191418671E+04  0.90293935191E+03 0.  0.
        -24    2    4    4    0    0  0.59389501193E+02  0.21109579586E+03  0.39723202296E+03  0.46075896209E+03  0.80106137139E+02 0.  0.
         24    2    4    4    0    0  0.86432854396E+03 -0.36950016418E+03  0.16873369580E+03  0.95838290498E+03  0.80203049990E+02 0.  0.
         13    1    3    3    0    0 -0.47461337264E+03  0.12517783533E+03 -0.10962120327E+04  0.12010862437E+04  0.00000000000E+00 0.  1.
        -13    1    3    3    0    0 -0.44910467251E+03  0.33226532999E+02 -0.11155300243E+04  0.12029988548E+04  0.00000000000E+00 0. -1.
          4    1    6    6  502    0  0.45455183446E+03 -0.23506513021E+03  0.77455518041E+02  0.51756385396E+03  0.00000000000E+00 0. -1.
          1    1    5    5  503    0  0.42436230658E+02  0.55703477841E+02  0.74972147731E+02  0.10258915172E+03  0.00000000000E+00 0. -1.
         -2    1    5    5    0  503  0.16953270536E+02  0.15539231802E+03  0.32225987522E+03  0.35816981037E+03  0.00000000000E+00 0.  1.
         -3    1    6    6    0  502  0.40977670950E+03 -0.13443503397E+03  0.91278177763E+02  0.44081905102E+03  0.00000000000E+00 0.  1.
<mgrwt>
<rscale>  0 0.34508672E+04</rscale>
<asrwt>0</asrwt>
<pdfrwt beam="1">  1        2 0.42069256E+00 0.34508672E+04</pdfrwt>
<pdfrwt beam="2">  1       -2 0.16749620E+00 0.34508672E+04</pdfrwt>
<totfact> 0.46386256E-01</totfact>
</mgrwt>
</event>
<event>
12    1  0.4612066E-007  0.1371567E+04  0.7818608E-02  0.8974661E-01
         -2   -1    0    0    0  501 -0.00000000000E+00  0.00000000000E+00  0.12266565053E+04  0.12266565053E+04  0.00000000000E+00 0.  1.
          2   -1    0    0  501    0  0.00000000000E+00 -0.00000000000E+00 -0.38339925780E+03  0.38339925780E+03  0.00000000000E+00 0. -1.
         23    2    1    2    0    0  0.28586243983E+03  0.25434686209E+03  0.15997271132E+03  0.42444759785E+03  0.90304120591E+02 0.  0.
        254    2    1    2    0    0 -0.28586243983E+03 -0.25434686209E+03  0.68328453614E+03  0.11856081652E+04  0.89015689815E+03 0.  0.
        -24    2    4    4    0    0  0.19654244653E+03 -0.10585227751E+01  0.58967464095E+03  0.62679456787E+03  0.80778675255E+02 0.  0.
         24    2    4    4    0    0 -0.48240488636E+03 -0.25328833931E+03  0.93609895186E+02  0.55881359734E+03  0.81488446303E+02 0.  0.
         11    1    3    3    0    0  0.47236558573E+02  0.73666658770E+02  0.69529371371E+02  0.11176941694E+03  0.00000000000E+00 0.  1.
        -11    1    3    3    0    0  0.23862588126E+03  0.18068020332E+03  0.90443339952E+02  0.31267818091E+03  0.00000000000E+00 0. -1.
          2    1    6    6  502    0 -0.12936526760E+02 -0.91247760647E+01  0.18492008320E+02  0.24342753225E+02  0.00000000000E+00 0. -1.
          1    1    5    5  503    0  0.14160748414E+03 -0.31489392112E+02  0.34649624503E+03  0.37563800287E+03  0.00000000000E+00 0. -1.
         -2    1    5    5    0  503  0.54934962386E+02  0.30430869337E+02  0.24317839592E+03  0.25115656500E+03  0.00000000000E+00 0.  1.
         -3    1    6    6    0  502 -0.46946835960E+03 -0.24416356325E+03  0.75117886866E+02  0.53447084411E+03  0.00000000000E+00 0.  1.
<mgrwt>
<rscale>  0 0.13715673E+04</rscale>
<asrwt>0</asrwt>
<pdfrwt beam="1">  1        2 0.58984502E-01 0.13715673E+04</pdfrwt>
<pdfrwt beam="2">  1       -2 0.18871638E+00 0.13715673E+04</pdfrwt>
<totfact> 0.12848591E+01</totfact>
</mgrwt>
</event>
<event>
12    1  0.4612066E-007  0.1498344E+04  0.7818608E-02  0.8885555E-01
          2   -1    0    0  501    0  0.00000000000E+00  0.00000000000E+00  0.30542461254E+04  0.30542461254E+04  0.00000000000E+00 0. -1.
         -2   -1    0    0    0  501 -0.00000000000E+00 -0.00000000000E+00 -0.18376338552E+03  0.18376338552E+03  0.00000000000E+00 0.  1.
         23    2    1    2    0    0 -0.11030664257E+03  0.14641773041E+03 -0.18107560831E+02  0.20631545290E+03  0.92911114356E+02 0.  0.
        254    2    1    2    0    0  0.11030664257E+03 -0.14641773041E+03  0.28885903007E+04  0.30316940580E+04  0.90200289853E+03 0.  0.
        -24    2    4    4    0    0 -0.37178234592E+02  0.35718288420E+03  0.15186578767E+04  0.15625424020E+04  0.79089682688E+02 0.  0.
         24    2    4    4    0    0  0.14748487716E+03 -0.50360061461E+03  0.13699324240E+04  0.14691516560E+04  0.79538505356E+02 0.  0.
         11    1    3    3    0    0  0.14370667524E+02  0.31769510656E+02 -0.11834196502E+02  0.36822087111E+02  0.00000000000E+00 0.  1.
        -11    1    3    3    0    0 -0.12467731009E+03  0.11464821976E+03 -0.62733643292E+01  0.16949336578E+03  0.00000000000E+00 0. -1.
          4    1    6    6  502    0  0.15402272526E+03 -0.47687147378E+03  0.13232479718E+04  0.14149609879E+04  0.00000000000E+00 0. -1.
          1    1    5    5  503    0 -0.39782625101E+02  0.16541977451E+03  0.85333219200E+03  0.87012768543E+03  0.00000000000E+00 0. -1.
         -2    1    5    5    0  503  0.26043905084E+01  0.19176310969E+03  0.66532568467E+03  0.69241471660E+03  0.00000000000E+00 0.  1.
         -3    1    6    6    0  502 -0.65378481038E+01 -0.26729140827E+02  0.46684452253E+02  0.54190668102E+02  0.00000000000E+00 0.  1.
<mgrwt>
<rscale>  0 0.14983439E+04</rscale>
<asrwt>0</asrwt>
<pdfrwt beam="1">  1        2 0.46988398E+00 0.14983439E+04</pdfrwt>
<pdfrwt beam="2">  1       -2 0.28271292E-01 0.14983439E+04</pdfrwt>
<totfact> 0.17950027E+01</totfact>
</mgrwt>
</event>
<event>
12    1  0.4612066E-007  0.1832078E+04  0.7818608E-02  0.8689425E-01
          2   -1    0    0  501    0  0.00000000000E+00  0.00000000000E+00  0.97533107414E+03  0.97533107414E+03  0.00000000000E+00 0. -1.
         -2   -1    0    0    0  501 -0.00000000000E+00 -0.00000000000E+00 -0.86035100248E+03  0.86035100248E+03  0.00000000000E+00 0.  1.
         23    2    1    2    0    0 -0.27757720538E+03 -0.49217466066E+03  0.44566881202E+03  0.72464965659E+03  0.84920158071E+02 0.  0.
        254    2    1    2    0    0  0.27757720538E+03  0.49217466066E+03 -0.33068874037E+03  0.11110324200E+04  0.89763745120E+03 0.  0.
        -24    2    4    4    0    0  0.91395130820E+02 -0.37098787632E+02 -0.50251154175E+03  0.51871420675E+03  0.82566268635E+02 0.  0.
         24    2    4    4    0    0  0.18618207456E+03  0.52927344829E+03  0.17182280138E+03  0.59231821328E+03  0.80769070500E+02 0.  0.
         13    1    3    3    0    0 -0.10239045129E+03 -0.26739501497E+03  0.21708529148E+03  0.35931869186E+03  0.00000000000E+00 0.  1.
        -13    1    3    3    0    0 -0.17518675409E+03 -0.22477964570E+03  0.22858352055E+03  0.36533096474E+03  0.00000000000E+00 0. -1.
          4    1    6    6  502    0 -0.27917632260E+01  0.76782659235E+01  0.12833024255E+02  0.15213028003E+02  0.00000000000E+00 0. -1.
          1    1    5    5  503    0  0.55464944950E+02 -0.20663682533E+02 -0.11638173320E+03  0.13056820331E+03  0.00000000000E+00 0. -1.
         -2    1    5    5    0  503  0.35930185870E+02 -0.16435105098E+02 -0.38612980855E+03  0.38814600344E+03  0.00000000000E+00 0.  1.
         -3    1    6    6    0  502  0.18897383779E+03  0.52159518237E+03  0.15898977712E+03  0.57710518527E+03  0.00000000000E+00 0.  1.
<mgrwt>
<rscale>  0 0.18320776E+04</rscale>
<asrwt>0</asrwt>
<pdfrwt beam="1">  1        2 0.15005093E+00 0.18320776E+04</pdfrwt>
<pdfrwt beam="2">  1       -2 0.13236169E+00 0.18320776E+04</pdfrwt>
<totfact> 0.10208937E+01</totfact>
</mgrwt>
</event>
<event>
12    1  0.4612066E-007  0.2289943E+04  0.7818608E-02  0.8481897E-01
         -1   -1    0    0    0  501 -0.00000000000E+00  0.00000000000E+00  0.45902316465E+03  0.45902316465E+03  0.00000000000E+00 0.  1.
          1   -1    0    0  501    0  0.00000000000E+00 -0.00000000000E+00 -0.28559776690E+04  0.28559776690E+04  0.00000000000E+00 0. -1.
         23    2    1    2    0    0 -0.80441035715E+03 -0.43992055155E+03 -0.61193832639E+03  0.11059799198E+04  0.90094135398E+02 0.  0.
        254    2    1    2    0    0  0.80441035715E+03  0.43992055155E+03 -0.17850161780E+04  0.22090209139E+04  0.92351747581E+03 0.  0.
        -24    2    4    4    0    0  0.94465397189E+03  0.18214834743E+03 -0.15438305799E+04  0.18208284523E+04  0.80338324672E+02 0.  0.
         24    2    4    4    0    0 -0.14024361474E+03  0.25777220412E+03 -0.24118559815E+03  0.38819246162E+03  0.80050695238E+02 0.  0.
         13    1    3    3    0    0 -0.63573520047E+03 -0.31859064554E+03 -0.43939130785E+03  0.83589710250E+03  0.00000000000E+00 0.  1.
        -13    1    3    3    0    0 -0.16867515667E+03 -0.12132990601E+03 -0.17254701854E+03  0.27008281726E+03  0.00000000000E+00 0. -1.
          2    1    6    6  502    0 -0.18057502915E+02  0.11433133789E+03 -0.91550605655E+02  0.14757791716E+03  0.00000000000E+00 0. -1.
          3    1    5    5  503    0  0.55373807550E+03  0.85670244669E+02 -0.96138833859E+03  0.11127590865E+04  0.00000000000E+00 0. -1.
         -4    1    5    5    0  503  0.39091589639E+03  0.96478102760E+02 -0.58244224127E+03  0.70806936579E+03  0.00000000000E+00 0.  1.
         -1    1    6    6    0  502 -0.12218611183E+03  0.14344086623E+03 -0.14963499250E+03  0.24061454446E+03  0.00000000000E+00 0.  1.
<mgrwt>
<rscale>  0 0.22899432E+04</rscale>
<asrwt>0</asrwt>
<pdfrwt beam="1">  1        1 0.43938118E+00 0.22899432E+04</pdfrwt>
<pdfrwt beam="2">  1       -1 0.70618948E-01 0.22899432E+04</pdfrwt>
<totfact> 0.13934326E+00</totfact>
</mgrwt>
</event>
<event>
12    1  0.4612066E-007  0.2407863E+04  0.7818608E-02  0.8436566E-01
          2   -1    0    0  501    0  0.00000000000E+00  0.00000000000E+00  0.29632018465E+04  0.29632018465E+04  0.00000000000E+00 0. -1.
         -2   -1    0    0    0  501 -0.00000000000E+00 -0.00000000000E+00 -0.48915041340E+03  0.48915041340E+03  0.00000000000E+00 0.  1.
         23    2    1    2    0    0 -0.36725733214E+03  0.62924792025E+03  0.21255064216E+04  0.22487600240E+04  0.91176775329E+02 0.  0.
        254    2    1    2    0    0  0.36725733214E+03 -0.62924792025E+03  0.34854501156E+03  0.12035922359E+04  0.89236749834E+03 0.  0.
        -24    2    4    4    0    0  0.21098600275E+03  0.37743933998E+02  0.45185977993E+03  0.50658610511E+03  0.80700206130E+02 0.  0.
         24    2    4    4    0    0  0.15627132939E+03 -0.66699185425E+03 -0.10331476837E+03  0.69700613079E+03  0.76450918758E+02 0.  0.
         13    1    3    3    0    0 -0.11313835969E+03  0.17995204418E+03  0.50131347701E+03  0.54451650927E+03  0.00000000000E+00 0.  1.
        -13    1    3    3    0    0 -0.25411897245E+03  0.44929587607E+03  0.16241929446E+04  0.17042435147E+04  0.00000000000E+00 0. -1.
          4    1    6    6  502    0  0.12569212668E+03 -0.46205566356E+03 -0.40827303183E+02  0.48058382788E+03  0.00000000000E+00 0. -1.
          1    1    5    5  503    0  0.34421537491E+02  0.33678953335E+02  0.14180586931E+03  0.14975987016E+03  0.00000000000E+00 0. -1.
         -2    1    5    5    0  503  0.17656446526E+03  0.40649806631E+01  0.31005391062E+03  0.35682623495E+03  0.00000000000E+00 0.  1.
         -3    1    6    6    0  502  0.30579202707E+02 -0.20493619069E+03 -0.62487465183E+02  0.21642230291E+03  0.00000000000E+00 0.  1.
<mgrwt>
<rscale>  0 0.24078633E+04</rscale>
<asrwt>0</asrwt>
<pdfrwt beam="1">  1        2 0.45587720E+00 0.24078633E+04</pdfrwt>
<pdfrwt beam="2">  1       -2 0.75253911E-01 0.24078633E+04</pdfrwt>
<totfact> 0.26156989E+00</totfact>
</mgrwt>
</event>
<event>
12    1  0.4612066E-007  0.1987557E+04  0.7818608E-02  0.8612460E-01
          2   -1    0    0  501    0  0.00000000000E+00  0.00000000000E+00  0.41637204323E+03  0.41637204323E+03  0.00000000000E+00 0. -1.
         -2   -1    0    0    0  501 -0.00000000000E+00 -0.00000000000E+00 -0.23719071779E+04  0.23719071779E+04  0.00000000000E+00 0.  1.
         23    2    1    2    0    0 -0.18140960077E+03  0.46252332592E+03 -0.16414646035E+04  0.17173773824E+04  0.90231694753E+02 0.  0.
        254    2    1    2    0    0  0.18140960077E+03 -0.46252332592E+03 -0.31407053120E+03  0.10709018388E+04  0.89518332169E+03 0.  0.
        -24    2    4    4    0    0  0.25724527483E+03 -0.70281424996E+03 -0.17670640532E+03  0.77307267492E+03  0.79329727447E+02 0.  0.
         24    2    4    4    0    0 -0.75835674065E+02  0.24029092403E+03 -0.13736412587E+03  0.29782916385E+03  0.79640003303E+02 0.  0.
         11    1    3    3    0    0 -0.17122252103E+03  0.43221574831E+03 -0.15918980669E+04  0.16583929149E+04  0.00000000000E+00 0.  1.
        -11    1    3    3    0    0 -0.10187079744E+02  0.30307577610E+02 -0.49566536569E+02  0.58984467462E+02  0.00000000000E+00 0. -1.
          4    1    6    6  502    0 -0.42420623971E+02  0.20292268769E+03 -0.13550262516E+03  0.24766527399E+03  0.00000000000E+00 0. -1.
          3    1    5    5  503    0  0.25444935311E+03 -0.63060887907E+03 -0.15283705740E+03  0.69697288166E+03  0.00000000000E+00 0. -1.
         -4    1    5    5    0  503  0.27959217248E+01 -0.72205370889E+02 -0.23869347922E+02  0.76099793257E+02  0.00000000000E+00 0.  1.
         -3    1    6    6    0  502 -0.33415050094E+02  0.37368236345E+02 -0.18615007149E+01  0.50163889854E+02  0.00000000000E+00 0.  1.
<mgrwt>
<rscale>  0 0.19875571E+04</rscale>
<asrwt>0</asrwt>
<pdfrwt beam="1">  1        2 0.64057237E-01 0.19875571E+04</pdfrwt>
<pdfrwt beam="2">  1       -2 0.36490880E+00 0.19875571E+04</pdfrwt>
<totfact> 0.88674288E-01</totfact>
</mgrwt>
</event>
<event>
12    1  0.4612066E-007  0.2625173E+04  0.7818608E-02  0.8359700E-01
          2   -1    0    0  501    0  0.00000000000E+00  0.00000000000E+00  0.22007937172E+04  0.22007937172E+04  0.00000000000E+00 0. -1.
         -2   -1    0    0    0  501 -0.00000000000E+00 -0.00000000000E+00 -0.78284650441E+03  0.78284650441E+03  0.00000000000E+00 0.  1.
         23    2    1    2    0    0 -0.10203934687E+04 -0.18485304353E+03  0.43533352171E+02  0.10420403724E+04  0.92625624216E+02 0.  0.
        254    2    1    2    0    0  0.10203934687E+04  0.18485304353E+03  0.13744138606E+04  0.19415998492E+04  0.89745363989E+03 0.  0.
        -24    2    4    4    0    0 -0.12763640673E+03 -0.49285772176E+02  0.34642870590E+03  0.38092449268E+03  0.79815294204E+02 0.  0.
         24    2    4    4    0    0  0.11480298754E+04  0.23413881570E+03  0.10279851547E+04  0.15606753566E+04  0.78488919385E+02 0.  0.
         13    1    3    3    0    0 -0.47467492816E+03 -0.13062707729E+03  0.35083934790E+02  0.49356924866E+03  0.00000000000E+00 0. -1.
        -13    1    3    3    0    0 -0.54571854051E+03 -0.54225966237E+02  0.84494173811E+01  0.54847112369E+03  0.00000000000E+00 0.  1.
          4    1    6    6  502    0  0.71274001402E+03  0.10816526317E+03  0.64639755958E+03  0.96826022162E+03  0.00000000000E+00 0. -1.
          1    1    5    5  503    0 -0.13484482962E+02 -0.39824914155E+02  0.12037713531E+03  0.12750886155E+03  0.00000000000E+00 0. -1.
         -2    1    5    5    0  503 -0.11415192377E+03 -0.94608580210E+01  0.22605157059E+03  0.25341563113E+03  0.00000000000E+00 0.  1.
         -3    1    6    6    0  502  0.43528986137E+03  0.12597355253E+03  0.38158759512E+03  0.59241513493E+03  0.00000000000E+00 0.  1.
<mgrwt>
<rscale>  0 0.26251733E+04</rscale>
<asrwt>0</asrwt>
<pdfrwt beam="1">  1        2 0.33858365E+00 0.26251733E+04</pdfrwt>
<pdfrwt beam="2">  1       -2 0.12043792E+00 0.26251733E+04</pdfrwt>
<totfact> 0.23958985E+00</totfact>
</mgrwt>
</event>
<event>
12    1  0.4612066E-007  0.1443827E+04  0.7818608E-02  0.8922691E-01
          2   -1    0    0  501    0  0.00000000000E+00  0.00000000000E+00  0.12374167235E+04  0.12374167235E+04  0.00000000000E+00 0.  1.
         -2   -1    0    0    0  501 -0.00000000000E+00 -0.00000000000E+00 -0.42116722876E+03  0.42116722876E+03  0.00000000000E+00 0. -1.
         23    2    1    2    0    0 -0.13847667109E+03  0.62817636065E+02  0.71837224778E+03  0.73928728423E+03  0.85820501063E+02 0.  0.
        254    2    1    2    0    0  0.13847667109E+03 -0.62817636065E+02  0.97877246956E+02  0.91929666803E+03  0.90133487925E+03 0.  0.
        -24    2    4    4    0    0 -0.16160366411E+03 -0.46549070833E+02 -0.33642451675E+03  0.38486448510E+03  0.81588333543E+02 0.  0.
         24    2    4    4    0    0  0.30008033520E+03 -0.16268565231E+02  0.43430176370E+03  0.53443218294E+03  0.81773237769E+02 0.  0.
         13    1    3    3    0    0 -0.32393485437E+02  0.58362692948E+02  0.32867366942E+03  0.33538324764E+03  0.00000000000E+00 0. -1.
        -13    1    3    3    0    0 -0.10608318565E+03  0.44549431165E+01  0.38969857837E+03  0.40390403659E+03  0.00000000000E+00 0.  1.
          2    1    6    6  502    0  0.17910087731E+03 -0.34581479652E+02  0.31214119934E+03  0.36153164635E+03  0.00000000000E+00 0. -1.
          1    1    5    5  503    0 -0.82544377779E+02 -0.12181278507E+02 -0.24674233643E+03  0.26046830601E+03  0.00000000000E+00 0. -1.
         -2    1    5    5    0  503 -0.79059286331E+02 -0.34367792326E+02 -0.89682180315E+02  0.12439617908E+03  0.00000000000E+00 0.  1.
         -1    1    6    6    0  502  0.12097945789E+03  0.18312914420E+02  0.12216056436E+03  0.17290053659E+03  0.00000000000E+00 0.  1.
<mgrwt>
<rscale>  0 0.14438274E+04</rscale>
<asrwt>0</asrwt>
<pdfrwt beam="1">  1        2 0.19037180E+00 0.14438274E+04</pdfrwt>
<pdfrwt beam="2">  1       -2 0.64794959E-01 0.14438274E+04</pdfrwt>
<totfact> 0.38373411E+01</totfact>
</mgrwt>
</event>
<event>
12    1  0.4612066E-007  0.1960641E+04  0.7818608E-02  0.8625246E-01
          1   -1    0    0  501    0  0.00000000000E+00  0.00000000000E+00  0.19837887229E+04  0.19837887229E+04  0.00000000000E+00 0. -1.
         -1   -1    0    0    0  501 -0.00000000000E+00 -0.00000000000E+00 -0.48444105882E+03  0.48444105882E+03  0.00000000000E+00 0.  1.
         23    2    1    2    0    0  0.39623713876E+03  0.33159525425E+03  0.12951043593E+04  0.13976307753E+04  0.95484029117E+02 0.  0.
        254    2    1    2    0    0 -0.39623713876E+03 -0.33159525425E+03  0.20424330480E+03  0.10705990064E+04  0.91515442535E+03 0.  0.
        -24    2    4    4    0    0  0.30508727744E+02 -0.32298116059E+03  0.45834978220E+03  0.56715649362E+03  0.79588647757E+02 0.  0.
         24    2    4    4    0    0 -0.42674586651E+03 -0.86140936656E+01 -0.25410647739E+03  0.50344251282E+03  0.81841460564E+02 0.  0.
         13    1    3    3    0    0  0.35882444505E+03  0.32487085317E+03  0.12355237822E+04  0.13269570717E+04  0.00000000000E+00 0. -1.
        -13    1    3    3    0    0  0.37412693712E+02  0.67244010809E+01  0.59580577068E+02  0.70673703627E+02  0.00000000000E+00 0.  1.
          4    1    6    6  502    0 -0.29386579406E+03  0.28103071181E+02 -0.19263773725E+03  0.35249990828E+03  0.00000000000E+00 0. -1.
          3    1    5    5  503    0  0.75833761365E+01 -0.22041798158E+03  0.24710649352E+03  0.33121475410E+03  0.00000000000E+00 0. -1.
         -4    1    5    5    0  503  0.22925351608E+02 -0.10256317901E+03  0.21124328867E+03  0.23594173952E+03  0.00000000000E+00 0.  1.
         -3    1    6    6    0  502 -0.13288007245E+03 -0.36717164846E+02 -0.61468740144E+02  0.15094260453E+03  0.00000000000E+00 0.  1.
<mgrwt>
<rscale>  0 0.19606414E+04</rscale>
<asrwt>0</asrwt>
<pdfrwt beam="1">  1        1 0.30519826E+00 0.19606414E+04</pdfrwt>
<pdfrwt beam="2">  1       -1 0.74529395E-01 0.19606414E+04</pdfrwt>
<totfact> 0.51536523E+00</totfact>
</mgrwt>
</event>
<event>
12    1  0.4612066E-007  0.1262304E+04  0.7818608E-02  0.9060004E-01
          1   -1    0    0  501    0  0.00000000000E+00  0.00000000000E+00  0.26800391404E+04  0.26800391404E+04  0.00000000000E+00 0. -1.
         -1   -1    0    0    0  501 -0.00000000000E+00 -0.00000000000E+00 -0.14863698022E+03  0.14863698022E+03  0.00000000000E+00 0.  1.
         23    2    1    2    0    0 -0.19179926214E+03  0.11267252965E+03  0.93111719234E+03  0.96360538652E+03  0.10988202382E+03 0.  0.
        254    2    1    2    0    0  0.19179926214E+03 -0.11267252965E+03  0.16002849679E+04  0.18650707341E+04  0.93171605600E+03 0.  0.
        -24    2    4    4    0    0  0.19233370969E+03  0.39360625637E+03  0.74231206137E+03  0.86564964831E+03  0.80024847652E+02 0.  0.
         24    2    4    4    0    0 -0.53444754515E+00 -0.50627878602E+03  0.85797290650E+03  0.99942108581E+03  0.80040637565E+02 0.  0.
         11    1    3    3    0    0 -0.12541776275E+02 -0.10322162713E+02  0.15214113532E+02  0.22255616050E+02  0.00000000000E+00 0.  1.
        -11    1    3    3    0    0 -0.17925748587E+03  0.12299469237E+03  0.91590307881E+03  0.94134977047E+03  0.00000000000E+00 0. -1.
          2    1    6    6  502    0 -0.32498449398E+02 -0.20419205782E+03  0.39176376688E+03  0.44297787161E+03  0.00000000000E+00 0. -1.
          3    1    5    5  503    0  0.36702399335E+02  0.57657225624E+02  0.68206520413E+02  0.96558537740E+02  0.00000000000E+00 0. -1.
         -4    1    5    5    0  503  0.15563131035E+03  0.33594903075E+03  0.67410554095E+03  0.76909111057E+03  0.00000000000E+00 0.  1.
         -1    1    6    6    0  502  0.31964001853E+02 -0.30208672821E+03  0.46620913961E+03  0.55644321420E+03  0.00000000000E+00 0.  1.
<mgrwt>
<rscale>  0 0.12623041E+04</rscale>
<asrwt>0</asrwt>
<pdfrwt beam="1">  1        1 0.41231368E+00 0.12623041E+04</pdfrwt>
<pdfrwt beam="2">  1       -1 0.22867230E-01 0.12623041E+04</pdfrwt>
<totfact> 0.16409348E+01</totfact>
</mgrwt>
</event>
<event>
12    1  0.4612066E-007  0.1716875E+04  0.7818608E-02  0.8751798E-01
         -1   -1    0    0    0  501 -0.00000000000E+00  0.00000000000E+00  0.22197570274E+03  0.22197570274E+03  0.00000000000E+00 0.  1.
          1   -1    0    0  501    0  0.00000000000E+00 -0.00000000000E+00 -0.33198006301E+04  0.33198006301E+04  0.00000000000E+00 0. -1.
         23    2    1    2    0    0 -0.45171008364E+03 -0.39785474907E+03 -0.82138165549E+03  0.10231682045E+04  0.99372781602E+02 0.  0.
        254    2    1    2    0    0  0.45171008364E+03  0.39785474907E+03 -0.22764432719E+04  0.25186081283E+04  0.89379110145E+03 0.  0.
        -24    2    4    4    0    0  0.40006482142E+03  0.43419193544E+03 -0.62373232207E+03  0.86273200787E+03  0.81792479236E+02 0.  0.
         24    2    4    4    0    0  0.51645262217E+02 -0.36337186376E+02 -0.16527109498E+04  0.16558761205E+04  0.80527128990E+02 0.  0.
         13    1    3    3    0    0 -0.45563046853E+03 -0.39295661830E+03 -0.80076443398E+03  0.10016175450E+04  0.00000000000E+00 0. -1.
        -13    1    3    3    0    0  0.39203848871E+01 -0.48981307691E+01 -0.20617221504E+02  0.21550659509E+02  0.00000000000E+00 0.  1.
          2    1    6    6  502    0 -0.11078504649E+02  0.10152577261E+02 -0.92473281279E+02  0.93686262818E+02  0.00000000000E+00 0. -1.
          3    1    5    5  503    0  0.19163562555E+03  0.15328427276E+03 -0.23459538991E+03  0.33949267772E+03  0.00000000000E+00 0. -1.
         -4    1    5    5    0  503  0.20842919587E+03  0.28090766268E+03 -0.38913693216E+03  0.52323933015E+03  0.00000000000E+00 0.  1.
         -1    1    6    6    0  502  0.62723766866E+02 -0.46489763637E+02 -0.15602376685E+04  0.15621898577E+04  0.00000000000E+00 0.  1.
<mgrwt>
<rscale>  0 0.17168752E+04</rscale>
<asrwt>0</asrwt>
<pdfrwt beam="1">  1        1 0.51073854E+00 0.17168752E+04</pdfrwt>
<pdfrwt beam="2">  1       -1 0.34150110E-01 0.17168752E+04</pdfrwt>
<totfact> 0.26742664E+00</totfact>
</mgrwt>
</event>
<event>
12    1  0.5057827E-007  0.2337106E+04  0.7818608E-02  0.8463433E-01
         -1   -1    0    0    0  501 -0.00000000000E+00  0.00000000000E+00  0.11259535427E+04  0.11259535427E+04  0.00000000000E+00 0.  1.
          1   -1    0    0  501    0  0.00000000000E+00 -0.00000000000E+00 -0.12127639587E+04  0.12127639587E+04  0.00000000000E+00 0. -1.
         23    2    1    2    0    0 -0.46784615726E+02  0.93723796599E+03 -0.62284204915E+01  0.94370446601E+03  0.99677082529E+02 0.  0.
        254    2    1    2    0    0  0.46784615726E+02 -0.93723796599E+03 -0.80581995488E+02  0.13950130354E+04  0.10290598165E+04 0.  0.
        -24    2    4    4    0    0  0.50860388747E+03 -0.29240348833E+03  0.14916002154E+02  0.59209787277E+03  0.78611000996E+02 0.  0.
         24    2    4    4    0    0 -0.46181927175E+03 -0.64483447766E+03 -0.95497997642E+02  0.80291516268E+03  0.80401166443E+02 0.  0.
         11    1    3    3    0    0  0.14514768257E+02  0.36219781811E+03 -0.38370772787E+02  0.36451372285E+03  0.00000000000E+00 0. -1.
        -11    1    3    3    0    0 -0.61299383983E+02  0.57504014788E+03  0.32142352296E+02  0.57919074316E+03  0.00000000000E+00 0.  1.
          4    1    6    6  502    0 -0.40347543094E+03 -0.51029589815E+03 -0.80935304025E+02  0.65554927387E+03  0.00000000000E+00 0. -1.
          3    1    5    5  503    0  0.45402158571E+03 -0.24091181465E+03 -0.66538438559E+01  0.51402176643E+03  0.00000000000E+00 0. -1.
         -4    1    5    5    0  503  0.54582301767E+02 -0.51491673672E+02  0.21569846010E+02  0.78076106336E+02  0.00000000000E+00 0.  1.
         -3    1    6    6    0  502 -0.58343840812E+02 -0.13453857952E+03 -0.14562693617E+02  0.14736588881E+03  0.00000000000E+00 0.  1.
<mgrwt>
<rscale>  0 0.23371058E+04</rscale>
<asrwt>0</asrwt>
<pdfrwt beam="1">  1        1 0.18657907E+00 0.23371058E+04</pdfrwt>
<pdfrwt beam="2">  1       -1 0.17322362E+00 0.23371058E+04</pdfrwt>
<totfact> 0.21960803E+00</totfact>
</mgrwt>
</event>
<event>
12    1  0.4612066E-007  0.1687917E+04  0.7818608E-02  0.8768286E-01
          2   -1    0    0  501    0  0.00000000000E+00  0.00000000000E+00  0.78372464209E+03  0.78372464209E+03  0.00000000000E+00 0. -1.
         -2   -1    0    0    0  501 -0.00000000000E+00 -0.00000000000E+00 -0.90882130284E+03  0.90882130284E+03  0.00000000000E+00 0.  1.
         23    2    1    2    0    0  0.81603669227E+02 -0.57889851321E+03 -0.17503481715E+03  0.62059763554E+03  0.11279002880E+03 0.  0.
        254    2    1    2    0    0 -0.81603669227E+02  0.57889851321E+03  0.49938156402E+02  0.10719483094E+04  0.89710462662E+03 0.  0.
        -24    2    4    4    0    0  0.19481273224E+03 -0.16880082549E+03 -0.17566015057E+01  0.26978821003E+03  0.79604480368E+02 0.  0.
         24    2    4    4    0    0 -0.27641640147E+03  0.74769933870E+03  0.51694757908E+02  0.80216009936E+03  0.72994170444E+02 0.  0.
         13    1    3    3    0    0  0.13582728157E+02 -0.56335396759E+02 -0.55498059078E+02  0.80238407223E+02  0.00000000000E+00 0. -1.
        -13    1    3    3    0    0  0.68020941071E+02 -0.52256311645E+03 -0.11953675807E+03  0.54035922832E+03  0.00000000000E+00 0.  1.
          4    1    6    6  502    0 -0.27817965386E+03  0.71280446621E+03  0.54546062376E+02  0.76710455597E+03  0.00000000000E+00 0. -1.
          1    1    5    5  503    0  0.17449819941E+03 -0.15790939196E+03 -0.25474518499E+02  0.23671491030E+03  0.00000000000E+00 0. -1.
         -2    1    5    5    0  503  0.20314532832E+02 -0.10891433525E+02  0.23717916993E+02  0.33073299728E+02  0.00000000000E+00 0.  1.
         -3    1    6    6    0  502  0.17632523968E+01  0.34894872486E+02 -0.28513044680E+01  0.35055543385E+02  0.00000000000E+00 0.  1.
<mgrwt>
<rscale>  0 0.16879166E+04</rscale>
<asrwt>0</asrwt>
<pdfrwt beam="1">  1        2 0.12057302E+00 0.16879166E+04</pdfrwt>
<pdfrwt beam="2">  1       -2 0.13981866E+00 0.16879166E+04</pdfrwt>
<totfact> 0.12146356E+01</totfact>
</mgrwt>
</event>
<event>
12    1  0.4612066E-007  0.1707140E+04  0.7818608E-02  0.8757303E-01
          2   -1    0    0  501    0  0.00000000000E+00  0.00000000000E+00  0.29683757222E+04  0.29683757222E+04  0.00000000000E+00 0. -1.
         -2   -1    0    0    0  501 -0.00000000000E+00 -0.00000000000E+00 -0.24544792494E+03  0.24544792494E+03  0.00000000000E+00 0.  1.
         23    2    1    2    0    0  0.40402146611E+03  0.97083110993E+02  0.18507917734E+04  0.18990894820E+04  0.91935829681E+02 0.  0.
        254    2    1    2    0    0 -0.40402146611E+03 -0.97083110993E+02  0.87213602391E+03  0.13147341652E+04  0.89176577940E+03 0.  0.
        -24    2    4    4    0    0 -0.40505568623E+03 -0.16534033275E+03  0.86797362385E+01  0.44493206627E+03  0.80508826791E+02 0.  0.
         24    2    4    4    0    0  0.10342201157E+01  0.68257221761E+02  0.86345628767E+03  0.86980209889E+03  0.79616660199E+02 0.  0.
         11    1    3    3    0    0  0.24338666911E+03  0.46160683928E+02  0.12881742706E+04  0.13117777368E+04  0.00000000000E+00 0. -1.
        -11    1    3    3    0    0  0.16063479700E+03  0.50922427066E+02  0.56261750279E+03  0.58731174519E+03  0.00000000000E+00 0.  1.
          2    1    6    6  502    0  0.26064554629E+02  0.68609062293E+02  0.75180744888E+03  0.75538136371E+03  0.00000000000E+00 0. -1.
          1    1    5    5  503    0 -0.17720541901E+03 -0.32177244750E+02  0.16903346760E+02  0.18089460671E+03  0.00000000000E+00 0. -1.
         -2    1    5    5    0  503 -0.22785026722E+03 -0.13316308800E+03 -0.82236105213E+01  0.26403745955E+03  0.00000000000E+00 0.  1.
         -1    1    6    6    0  502 -0.25030334514E+02 -0.35184053147E+00  0.11164883879E+03  0.11442073519E+03  0.00000000000E+00 0.  1.
<mgrwt>
<rscale>  0 0.17071399E+04</rscale>
<asrwt>0</asrwt>
<pdfrwt beam="1">  1        2 0.45667316E+00 0.17071399E+04</pdfrwt>
<pdfrwt beam="2">  1       -2 0.37761221E-01 0.17071399E+04</pdfrwt>
<totfact> 0.11520183E+01</totfact>
</mgrwt>
</event>
<event>
12    1  0.4612066E-007  0.2237146E+04  0.7818608E-02  0.8503124E-01
         -2   -1    0    0    0  501 -0.00000000000E+00  0.00000000000E+00  0.57435414296E+03  0.57435414296E+03  0.00000000000E+00 0.  1.
          2   -1    0    0  501    0  0.00000000000E+00 -0.00000000000E+00 -0.21784565990E+04  0.21784565990E+04  0.00000000000E+00 0. -1.
         23    2    1    2    0    0 -0.51581073640E+03  0.74340039436E+03 -0.97226693035E+03  0.13310794780E+04  0.88117709359E+02 0.  0.
        254    2    1    2    0    0  0.51581073640E+03 -0.74340039436E+03 -0.63183552573E+03  0.14217312640E+04  0.89632516055E+03 0.  0.
        -24    2    4    4    0    0  0.66034427947E+03 -0.52166906543E+03 -0.13880352309E+03  0.85657260153E+03  0.79101342709E+02 0.  0.
         24    2    4    4    0    0 -0.14453354307E+03 -0.22173132894E+03 -0.49303200264E+03  0.56515866251E+03  0.79177211851E+02 0.  0.
         11    1    3    3    0    0 -0.38644999936E+03  0.60670195720E+03 -0.80141809389E+03  0.10768945297E+04  0.00000000000E+00 0. -1.
        -11    1    3    3    0    0 -0.12936073704E+03  0.13669843716E+03 -0.17084883646E+03  0.25418494827E+03  0.00000000000E+00 0.  1.
          2    1    6    6  502    0 -0.12827981969E+03 -0.18596885867E+03 -0.46475621918E+03  0.51675765287E+03  0.00000000000E+00 0. -1.
          3    1    5    5  503    0  0.52753608710E+03 -0.43554501274E+03 -0.14000022112E+03  0.69827920149E+03  0.00000000000E+00 0. -1.
         -4    1    5    5    0  503  0.13280819237E+03 -0.86124052689E+02  0.11966980217E+01  0.15829340004E+03  0.00000000000E+00 0.  1.
         -1    1    6    6    0  502 -0.16253723375E+02 -0.35762470272E+02 -0.28275783455E+02  0.48401009633E+02  0.00000000000E+00 0.  1.
<mgrwt>
<rscale>  0 0.22371460E+04</rscale>
<asrwt>0</asrwt>
<pdfrwt beam="1">  1        2 0.33514717E+00 0.22371460E+04</pdfrwt>
<pdfrwt beam="2">  1       -2 0.88362176E-01 0.22371460E+04</pdfrwt>
<totfact> 0.53340758E+00</totfact>
</mgrwt>
</event>
<event>
12    1  0.4612066E-007  0.2085380E+04  0.7818608E-02  0.8567711E-01
          2   -1    0    0  501    0  0.00000000000E+00  0.00000000000E+00  0.14733877538E+04  0.14733877538E+04  0.00000000000E+00 0.  1.
         -2   -1    0    0    0  501 -0.00000000000E+00 -0.00000000000E+00 -0.73789319344E+03  0.73789319344E+03  0.00000000000E+00 0. -1.
         23    2    1    2    0    0 -0.51545628913E+03 -0.63165970308E+03  0.44293724366E+02  0.82165198742E+03  0.91983084966E+02 0.  0.
        254    2    1    2    0    0  0.51545628913E+03  0.63165970308E+03  0.69120083600E+03  0.13896289598E+04  0.88804328935E+03 0.  0.
        -24    2    4    4    0    0  0.40022516483E+02 -0.14617896011E+03  0.39036799626E+03  0.42648407583E+03  0.80817103576E+02 0.  0.
         24    2    4    4    0    0  0.47543377265E+03  0.77783866319E+03  0.30083283974E+03  0.96314488398E+03  0.77957757434E+02 0.  0.
         11    1    3    3    0    0 -0.28741873625E+03 -0.42171104186E+03  0.35106546891E+02  0.51154882700E+03  0.00000000000E+00 0.  1.
        -11    1    3    3    0    0 -0.22803755289E+03 -0.20994866122E+03  0.91871774746E+01  0.31010316042E+03  0.00000000000E+00 0. -1.
          4    1    6    6  502    0  0.14109574411E+03  0.20690366599E+03  0.11724505865E+03  0.27652041477E+03  0.00000000000E+00 0. -1.
          1    1    5    5  503    0  0.58234006094E+02 -0.94216491658E+02  0.20371050594E+03  0.23187478733E+03  0.00000000000E+00 0. -1.
         -2    1    5    5    0  503 -0.18211489612E+02 -0.51962468454E+02  0.18665749032E+03  0.19460928851E+03  0.00000000000E+00 0.  1.
         -3    1    6    6    0  502  0.33433802853E+03  0.57093499720E+03  0.18358778109E+03  0.68662446921E+03  0.00000000000E+00 0.  1.
<mgrwt>
<rscale>  0 0.20853803E+04</rscale>
<asrwt>0</asrwt>
<pdfrwt beam="1">  1        2 0.22667504E+00 0.20853803E+04</pdfrwt>
<pdfrwt beam="2">  1       -2 0.11352203E+00 0.20853803E+04</pdfrwt>
<totfact> 0.73802190E+00</totfact>
</mgrwt>
</event>
<event>
12    1  0.4612066E-007  0.1640582E+04  0.7818608E-02  0.8795998E-01
          3   -1    0    0  501    0  0.00000000000E+00  0.00000000000E+00  0.40279942453E+03  0.40279942453E+03  0.00000000000E+00 0. -1.
         -3   -1    0    0    0  501 -0.00000000000E+00 -0.00000000000E+00 -0.16705016488E+04  0.16705016488E+04  0.00000000000E+00 0.  1.
         23    2    1    2    0    0 -0.29144765167E+03  0.32648333524E+03 -0.88334598994E+03  0.98998383423E+03  0.90745535693E+02 0.  0.
        254    2    1    2    0    0  0.29144765167E+03 -0.32648333524E+03 -0.38435623435E+03  0.10833172391E+04  0.91340758911E+03 0.  0.
        -24    2    4    4    0    0 -0.31840664728E+03 -0.14735016309E+03 -0.22055428351E+03  0.42207781071E+03  0.80066364481E+02 0.  0.
         24    2    4    4    0    0  0.60985429894E+03 -0.17913317215E+03 -0.16380195084E+03  0.66123942842E+03  0.79972140747E+02 0.  0.
         13    1    3    3    0    0 -0.22186763116E+02  0.71115404264E+02 -0.17832395220E+03  0.19325911391E+03  0.00000000000E+00 0.  1.
        -13    1    3    3    0    0 -0.26926088855E+03  0.25536793097E+03 -0.70502203774E+03  0.79672472032E+03  0.00000000000E+00 0. -1.
          2    1    6    6  502    0  0.10717211985E+03 -0.30697197842E+02 -0.61117177202E+02  0.12713571716E+03  0.00000000000E+00 0. -1.
          3    1    5    5  503    0 -0.21701119164E+03 -0.86732445239E+02 -0.10290666139E+03  0.25535495945E+03  0.00000000000E+00 0. -1.
         -4    1    5    5    0  503 -0.10139545563E+03 -0.60617717851E+02 -0.11764762212E+03  0.16672285126E+03  0.00000000000E+00 0.  1.
         -1    1    6    6    0  502  0.50268217909E+03 -0.14843597430E+03 -0.10268477364E+03  0.53410371126E+03  0.00000000000E+00 0.  1.
<mgrwt>
<rscale>  0 0.16405817E+04</rscale>
<asrwt>0</asrwt>
<pdfrwt beam="1">  1        3 0.61969140E-01 0.16405817E+04</pdfrwt>
<pdfrwt beam="2">  1       -3 0.25700026E+00 0.16405817E+04</pdfrwt>
<totfact> 0.42335874E-01</totfact>
</mgrwt>
</event>
<event>
12    1  0.4612066E-007  0.1361714E+04  0.7818608E-02  0.8982008E-01
          1   -1    0    0  501    0  0.00000000000E+00  0.00000000000E+00  0.70706360567E+03  0.70706360567E+03  0.00000000000E+00 0. -1.
         -1   -1    0    0    0  501 -0.00000000000E+00 -0.00000000000E+00 -0.65562209770E+03  0.65562209770E+03  0.00000000000E+00 0.  1.
         23    2    1    2    0    0  0.10461008402E+03 -0.33289401259E+03  0.15782392444E+03  0.39405279786E+03  0.92776737766E+02 0.  0.
        254    2    1    2    0    0 -0.10461008402E+03  0.33289401259E+03 -0.10638241647E+03  0.96863290552E+03  0.89731309687E+03 0.  0.
        -24    2    4    4    0    0 -0.26784316115E+03 -0.18465527109E+03 -0.22760658976E+03  0.40698144907E+03  0.89395816819E+02 0.  0.
         24    2    4    4    0    0  0.16323307713E+03  0.51754928368E+03  0.12122417329E+03  0.56165145645E+03  0.79087039621E+02 0.  0.
         11    1    3    3    0    0 -0.12562550517E+02 -0.15372760562E+02  0.21260900594E+02  0.29088921204E+02  0.00000000000E+00 0.  1.
        -11    1    3    3    0    0  0.11717263454E+03 -0.31752125203E+03  0.13656302385E+03  0.36496387665E+03  0.00000000000E+00 0. -1.
          4    1    6    6  502    0  0.12623154889E+03  0.32467802539E+03  0.10846421067E+03  0.36484888530E+03  0.00000000000E+00 0. -1.
          3    1    5    5  503    0 -0.92265342738E+02 -0.42724058900E+02 -0.11876948804E+03  0.15634714570E+03  0.00000000000E+00 0. -1.
         -4    1    5    5    0  503 -0.17557781841E+03 -0.14193121219E+03 -0.10883710172E+03  0.25063430336E+03  0.00000000000E+00 0.  1.
         -3    1    6    6    0  502  0.37001528237E+02  0.19287125829E+03  0.12759962622E+02  0.19680257115E+03  0.00000000000E+00 0.  1.
<mgrwt>
<rscale>  0 0.13617144E+04</rscale>
<asrwt>0</asrwt>
<pdfrwt beam="1">  1        1 0.10877902E+00 0.13617144E+04</pdfrwt>
<pdfrwt beam="2">  1       -1 0.10086494E+00 0.13617144E+04</pdfrwt>
<totfact> 0.24529545E+01</totfact>
</mgrwt>
</event>
<event>
12    1  0.4612066E-007  0.2588316E+04  0.7818608E-02  0.8372181E-01
          1   -1    0    0  501    0  0.00000000000E+00  0.00000000000E+00  0.10433857475E+04  0.10433857475E+04  0.00000000000E+00 0. -1.
         -1   -1    0    0    0  501 -0.00000000000E+00 -0.00000000000E+00 -0.16052023335E+04  0.16052023335E+04  0.00000000000E+00 0.  1.
         23    2    1    2    0    0  0.88980570271E+03 -0.33804409686E+03 -0.88193274305E+03  0.13007270112E+04  0.89762990494E+02 0.  0.
        254    2    1    2    0    0 -0.88980570271E+03  0.33804409686E+03  0.32011615705E+03  0.13478610698E+04  0.89901452133E+03 0.  0.
        -24    2    4    4    0    0  0.12862119565E+03  0.17967688657E+03 -0.65489571796E+02  0.24444364287E+03  0.81465422046E+02 0.  0.
         24    2    4    4    0    0 -0.10184268984E+04  0.15836721029E+03  0.38560572884E+03  0.11034174270E+04  0.81022955985E+02 0.  0.
         11    1    3    3    0    0  0.54414977642E+03 -0.25270535243E+03 -0.56147610274E+03  0.82171429845E+03  0.00000000000E+00 0. -1.
        -11    1    3    3    0    0  0.34565592630E+03 -0.85338744424E+02 -0.32045664031E+03  0.47901271278E+03  0.00000000000E+00 0.  1.
          2    1    6    6  502    0 -0.77894270768E+03  0.14820240577E+03  0.31858339225E+03  0.85452388659E+03  0.00000000000E+00 0. -1.
          1    1    5    5  503    0  0.72816044026E+02  0.10629958831E+03 -0.79199658915E+02  0.15124273442E+03  0.00000000000E+00 0. -1.
         -2    1    5    5    0  503  0.55805151621E+02  0.73377298261E+02  0.13710087119E+02  0.93200908452E+02  0.00000000000E+00 0.  1.
         -1    1    6    6    0  502 -0.23948419068E+03  0.10164804515E+02  0.67022336588E+02  0.24889354037E+03  0.00000000000E+00 0.  1.
<mgrwt>
<rscale>  0 0.25883162E+04</rscale>
<asrwt>0</asrwt>
<pdfrwt beam="1">  1        1 0.16052089E+00 0.25883162E+04</pdfrwt>
<pdfrwt beam="2">  1       -1 0.24695420E+00 0.25883162E+04</pdfrwt>
<totfact> 0.90104069E-01</totfact>
</mgrwt>
</event>
<event>
12    1  0.4612066E-007  0.2611890E+04  0.7818608E-02  0.8364174E-01
         -2   -1    0    0    0  501 -0.00000000000E+00  0.00000000000E+00  0.12157460654E+04  0.12157460654E+04  0.00000000000E+00 0. -1.
          2   -1    0    0  501    0  0.00000000000E+00 -0.00000000000E+00 -0.14028357961E+04  0.14028357961E+04  0.00000000000E+00 0.  1.
         23    2    1    2    0    0 -0.67720085924E+03  0.54167120657E+03 -0.83320858757E+03  0.12058921811E+04  0.89054490064E+02 0.  0.
        254    2    1    2    0    0  0.67720085924E+03 -0.54167120657E+03  0.64611885692E+03  0.14126896804E+04  0.90896306638E+03 0.  0.
        -24    2    4    4    0    0  0.84994322611E+03 -0.55624292154E+03  0.38522491685E+03  0.10894121697E+04  0.81307831923E+02 0.  0.
         24    2    4    4    0    0 -0.17274236687E+03  0.14571714967E+02  0.26089394007E+03  0.32327751070E+03  0.79940232505E+02 0.  0.
         11    1    3    3    0    0 -0.23225442964E+03  0.14862515937E+03 -0.22412005902E+03  0.35533274397E+03  0.00000000000E+00 0. -1.
        -11    1    3    3    0    0 -0.44494642960E+03  0.39304604721E+03 -0.60908852855E+03  0.85055943711E+03  0.00000000000E+00 0.  1.
          4    1    6    6  502    0 -0.27918295639E+02  0.24820019958E+02  0.99023752085E+02  0.10583557105E+03  0.00000000000E+00 0. -1.
          1    1    5    5  503    0  0.43140134903E+03 -0.30325214918E+03  0.16063402979E+03  0.55124611695E+03  0.00000000000E+00 0. -1.
         -2    1    5    5    0  503  0.41854187708E+03 -0.25299077236E+03  0.22459088707E+03  0.53816605274E+03  0.00000000000E+00 0.  1.
         -3    1    6    6    0  502 -0.14482407123E+03 -0.10248304991E+02  0.16187018798E+03  0.21744193965E+03  0.00000000000E+00 0.  1.
<mgrwt>
<rscale>  0 0.26118898E+04</rscale>
<asrwt>0</asrwt>
<pdfrwt beam="1">  1        2 0.21582089E+00 0.26118898E+04</pdfrwt>
<pdfrwt beam="2">  1       -2 0.18703786E+00 0.26118898E+04</pdfrwt>
<totfact> 0.20678497E+00</totfact>
</mgrwt>
</event>
<event>
12    1  0.4612066E-007  0.1852637E+04  0.7818608E-02  0.8678798E-01
          2   -1    0    0  501    0  0.00000000000E+00  0.00000000000E+00  0.33553065076E+04  0.33553065076E+04  0.00000000000E+00 0. -1.
         -2   -1    0    0    0  501 -0.00000000000E+00 -0.00000000000E+00 -0.25573392813E+03  0.25573392813E+03  0.00000000000E+00 0.  1.
         23    2    1    2    0    0  0.37711054996E+03 -0.29390624727E+03  0.19014836728E+03  0.52242227523E+03  0.90417824547E+02 0.  0.
        254    2    1    2    0    0 -0.37711054996E+03  0.29390624727E+03  0.29094242122E+04  0.30886181605E+04  0.91990197626E+03 0.  0.
        -24    2    4    4    0    0 -0.30502714290E+03  0.40167443116E+03  0.28897209023E+04  0.29347809650E+04  0.89824901281E+02 0.  0.
         24    2    4    4    0    0 -0.72083407063E+02 -0.10776818389E+03  0.19703309893E+02  0.15383719550E+03  0.80421783530E+02 0.  0.
         13    1    3    3    0    0  0.35552135784E+03 -0.29608276343E+03  0.17029613259E+03  0.49301238468E+03  0.00000000000E+00 0.  1.
        -13    1    3    3    0    0  0.21589192125E+02  0.21765161615E+01  0.19852234696E+02  0.29409890541E+02  0.00000000000E+00 0. -1.
          2    1    6    6  502    0 -0.59017471264E+02 -0.50727369996E+02 -0.23279141617E+02  0.81229590763E+02  0.00000000000E+00 0. -1.
          1    1    5    5  503    0 -0.27031206904E+03  0.30328768533E+03  0.23901780745E+04  0.24244593753E+04  0.00000000000E+00 0. -1.
         -2    1    5    5    0  503 -0.34715073857E+02  0.98386745835E+02  0.49954282777E+03  0.51032158967E+03  0.00000000000E+00 0.  1.
         -1    1    6    6    0  502 -0.13065935798E+02 -0.57040813895E+02  0.42982451510E+02  0.72607604739E+02  0.00000000000E+00 0.  1.
<mgrwt>
<rscale>  0 0.18526367E+04</rscale>
<asrwt>0</asrwt>
<pdfrwt beam="1">  1        2 0.51620097E+00 0.18526367E+04</pdfrwt>
<pdfrwt beam="2">  1       -2 0.39343684E-01 0.18526367E+04</pdfrwt>
<totfact> 0.59082240E+00</totfact>
</mgrwt>
</event>
<event>
12    1  0.4612066E-007  0.1106081E+04  0.7818608E-02  0.9199285E-01
          2   -1    0    0  501    0  0.00000000000E+00  0.00000000000E+00  0.16573763838E+04  0.16573763838E+04  0.00000000000E+00 0. -1.
         -2   -1    0    0    0  501 -0.00000000000E+00 -0.00000000000E+00 -0.18454092643E+03  0.18454092643E+03  0.00000000000E+00 0.  1.
         23    2    1    2    0    0 -0.12062792123E+03 -0.76869497545E+01  0.34468956705E+03  0.37778439208E+03  0.96436324512E+02 0.  0.
        254    2    1    2    0    0  0.12062792123E+03  0.76869497545E+01  0.11281458903E+04  0.14641329181E+04  0.92539822108E+03 0.  0.
        -24    2    4    4    0    0  0.25943389446E+03  0.20161110437E+03  0.32656480073E+02  0.34009746311E+03  0.81528251069E+02 0.  0.
         24    2    4    4    0    0 -0.13880597324E+03 -0.19392415462E+03  0.10954894102E+04  0.11240354550E+04  0.80529375149E+02 0.  0.
         11    1    3    3    0    0 -0.97616597605E+02  0.26040570530E+02  0.30313483841E+03  0.31952752886E+03  0.00000000000E+00 0. -1.
        -11    1    3    3    0    0 -0.23011323622E+02 -0.33727520285E+02  0.41554728649E+02  0.58256863222E+02  0.00000000000E+00 0.  1.
          4    1    6    6  502    0 -0.12383470006E+03 -0.12100249575E+03  0.85227359666E+03  0.86968208012E+03  0.00000000000E+00 0. -1.
          1    1    5    5  503    0  0.25803586679E+03  0.20735913258E+03  0.36511461135E+02  0.33303664244E+03  0.00000000000E+00 0. -1.
         -2    1    5    5    0  503  0.13980276753E+01 -0.57480282046E+01 -0.38549810613E+01  0.70608206750E+01  0.00000000000E+00 0.  1.
         -3    1    6    6    0  502 -0.14971273181E+02 -0.72921658866E+02  0.24321581358E+03  0.25435337491E+03  0.00000000000E+00 0.  1.
<mgrwt>
<rscale>  0 0.11060810E+04</rscale>
<asrwt>0</asrwt>
<pdfrwt beam="1">  1        2 0.25498097E+00 0.11060810E+04</pdfrwt>
<pdfrwt beam="2">  1       -2 0.28390913E-01 0.11060810E+04</pdfrwt>
<totfact> 0.11677831E+02</totfact>
</mgrwt>
</event>
<event>
12    1  0.4612066E-007  0.1233864E+04  0.7818608E-02  0.9083721E-01
         -1   -1    0    0    0  501 -0.00000000000E+00  0.00000000000E+00  0.49033098865E+03  0.49033098865E+03  0.00000000000E+00 0.  1.
          1   -1    0    0  501    0  0.00000000000E+00 -0.00000000000E+00 -0.77622030032E+03  0.77622030032E+03  0.00000000000E+00 0. -1.
         23    2    1    2    0    0 -0.17264553595E+03  0.65248898511E+02  0.14303224451E+03  0.25094490180E+03  0.91930522285E+02 0.  0.
        254    2    1    2    0    0  0.17264553595E+03 -0.65248898511E+02 -0.42892155618E+03  0.10156063872E+04  0.90189729597E+03 0.  0.
        -24    2    4    4    0    0  0.12464720412E+03 -0.27803080052E+03  0.18071753769E+03  0.36354794907E+03  0.81671484095E+02 0.  0.
         24    2    4    4    0    0  0.47998331833E+02  0.21278190201E+03 -0.60963909386E+03  0.65205843810E+03  0.77074018009E+02 0.  0.
         13    1    3    3    0    0 -0.95574808947E+02  0.11000234038E+02  0.12021893845E+03  0.15397448625E+03  0.00000000000E+00 0.  1.
        -13    1    3    3    0    0 -0.77070727005E+02  0.54248664473E+02  0.22813306063E+02  0.96970415549E+02  0.00000000000E+00 0. -1.
          4    1    6    6  502    0  0.33220182776E+01  0.56911639563E+02 -0.80563315979E+02  0.98693558071E+02  0.00000000000E+00 0. -1.
          1    1    5    5  503    0 -0.80806403042E+00 -0.11581995675E+01 -0.64319857250E+01  0.65851981050E+01  0.00000000000E+00 0. -1.
         -2    1    5    5    0  503  0.12545526815E+03 -0.27687260095E+03  0.18714952341E+03  0.35696275097E+03  0.00000000000E+00 0.  1.
         -3    1    6    6    0  502  0.44676313556E+02  0.15587026245E+03 -0.52907577788E+03  0.55336488003E+03  0.00000000000E+00 0.  1.
<mgrwt>
<rscale>  0 0.12338636E+04</rscale>
<asrwt>0</asrwt>
<pdfrwt beam="1">  1        1 0.11941851E+00 0.12338636E+04</pdfrwt>
<pdfrwt beam="2">  1       -1 0.75435537E-01 0.12338636E+04</pdfrwt>
<totfact> 0.40478460E+01</totfact>
</mgrwt>
</event>
<event>
12    1  0.4612066E-007  0.2414743E+04  0.7818608E-02  0.8434005E-01
          1   -1    0    0  501    0  0.00000000000E+00  0.00000000000E+00  0.11611692096E+04  0.11611692096E+04  0.00000000000E+00 0. -1.
         -1   -1    0    0    0  501 -0.00000000000E+00 -0.00000000000E+00 -0.12554118400E+04  0.12554118400E+04  0.00000000000E+00 0.  1.
         23    2    1    2    0    0 -0.44757535037E+03  0.92192529753E+03  0.96064831068E+02  0.10332266623E+04  0.89771573331E+02 0.  0.
        254    2    1    2    0    0  0.44757535037E+03 -0.92192529753E+03 -0.19030746139E+03  0.13833543873E+04  0.90949572982E+03 0.  0.
        -24    2    4    4    0    0  0.16202198375E+02 -0.34420976573E+03 -0.48434323716E+03  0.59979327539E+03  0.80129443859E+02 0.  0.
         24    2    4    4    0    0  0.43137315200E+03 -0.57771553180E+03  0.29403577576E+03  0.78356111192E+03  0.87595357997E+02 0.  0.
         13    1    3    3    0    0 -0.33480027893E+03  0.68470186896E+03  0.31914855419E+02  0.76284102808E+03  0.00000000000E+00 0.  1.
        -13    1    3    3    0    0 -0.11277507144E+03  0.23722342857E+03  0.64149975650E+02  0.27038563419E+03  0.00000000000E+00 0. -1.
          2    1    6    6  502    0  0.19673074633E+03 -0.19701605500E+03  0.96436922300E+02  0.29464960964E+03  0.00000000000E+00 0. -1.
          3    1    5    5  503    0  0.44789394896E+02 -0.27786245016E+03 -0.39083998969E+03  0.48163215076E+03  0.00000000000E+00 0. -1.
         -4    1    5    5    0  503 -0.28587196521E+02 -0.66347315575E+02 -0.93503247462E+02  0.11816112463E+03  0.00000000000E+00 0.  1.
         -1    1    6    6    0  502  0.23464240566E+03 -0.38069947680E+03  0.19759885346E+03  0.48891150228E+03  0.00000000000E+00 0.  1.
<mgrwt>
<rscale>  0 0.24147427E+04</rscale>
<asrwt>0</asrwt>
<pdfrwt beam="1">  1        1 0.17864142E+00 0.24147427E+04</pdfrwt>
<pdfrwt beam="2">  1       -1 0.19314028E+00 0.24147427E+04</pdfrwt>
<totfact> 0.17156681E+00</totfact>
</mgrwt>
</event>
<event>
12    1  0.4612066E-007  0.1254211E+04  0.7818608E-02  0.9066686E-01
          1   -1    0    0  501    0  0.00000000000E+00  0.00000000000E+00  0.85659566628E+03  0.85659566628E+03  0.00000000000E+00 0. -1.
         -1   -1    0    0    0  501 -0.00000000000E+00 -0.00000000000E+00 -0.45909810723E+03  0.45909810723E+03  0.00000000000E+00 0.  1.
         23    2    1    2    0    0 -0.21354469595E+03  0.19559116194E+03  0.15539361581E+03  0.34097651980E+03  0.90887685747E+02 0.  0.
        254    2    1    2    0    0  0.21354469595E+03 -0.19559116194E+03  0.24210394325E+03  0.97471725371E+03  0.89866688241E+03 0.  0.
        -24    2    4    4    0    0  0.18474474051E+03 -0.96237496315E+02 -0.32438556684E+03  0.39347186914E+03  0.78751768159E+02 0.  0.
         24    2    4    4    0    0  0.28799955440E+02 -0.99353665627E+02  0.56648951008E+03  0.58124538457E+03  0.78963559583E+02 0.  0.
         13    1    3    3    0    0 -0.77395609028E+02  0.47802370679E+02  0.94127432346E+02  0.13090118586E+03  0.00000000000E+00 0. -1.
        -13    1    3    3    0    0 -0.13614908693E+03  0.14778879126E+03  0.61266183463E+02  0.21007533394E+03  0.00000000000E+00 0.  1.
          2    1    6    6  502    0  0.20489151428E+02 -0.24801089666E+02  0.36207630088E+03  0.36350260939E+03  0.00000000000E+00 0. -1.
          3    1    5    5  503    0  0.14708194490E+03 -0.80208792738E+02 -0.30544084092E+03  0.34836856380E+03  0.00000000000E+00 0. -1.
         -4    1    5    5    0  503  0.37662795617E+02 -0.16028703577E+02 -0.18944725921E+02  0.45103305337E+02  0.00000000000E+00 0.  1.
         -1    1    6    6    0  502  0.83108040123E+01 -0.74552575961E+02  0.20441320920E+03  0.21774277518E+03  0.00000000000E+00 0.  1.
<mgrwt>
<rscale>  0 0.12542112E+04</rscale>
<asrwt>0</asrwt>
<pdfrwt beam="1">  1        1 0.13178395E+00 0.12542112E+04</pdfrwt>
<pdfrwt beam="2">  1       -1 0.70630478E-01 0.12542112E+04</pdfrwt>
<totfact> 0.39493899E+01</totfact>
</mgrwt>
</event>
<event>
12    1  0.4612066E-007  0.1377474E+04  0.7818608E-02  0.8970287E-01
         -2   -1    0    0    0  501 -0.00000000000E+00  0.00000000000E+00  0.18199761901E+03  0.18199761901E+03  0.00000000000E+00 0.  1.
          2   -1    0    0  501    0  0.00000000000E+00 -0.00000000000E+00 -0.26063997428E+04  0.26063997428E+04  0.00000000000E+00 0. -1.
         23    2    1    2    0    0 -0.30484970690E+03 -0.10997614011E+03 -0.26078698867E+03  0.43407744229E+03  0.12403740263E+03 0.  0.
        254    2    1    2    0    0  0.30484970690E+03  0.10997614011E+03 -0.21636151352E+04  0.23543199196E+04  0.86980672299E+03 0.  0.
        -24    2    4    4    0    0  0.58704575080E+03 -0.47957527194E+02 -0.13818773169E+04  0.15043224197E+04  0.80488419299E+02 0.  0.
         24    2    4    4    0    0 -0.28219604390E+03  0.15793366731E+03 -0.78173781827E+03  0.84999749982E+03  0.82486864000E+02 0.  0.
         13    1    3    3    0    0 -0.20210191513E+03 -0.81511669895E+02 -0.96740521868E+02  0.23842832256E+03  0.00000000000E+00 0.  1.
        -13    1    3    3    0    0 -0.10274779177E+03 -0.28464470220E+02 -0.16404646681E+03  0.19564911973E+03  0.00000000000E+00 0. -1.
          4    1    6    6  502    0 -0.24436099918E+03  0.11415774454E+03 -0.57156055467E+03  0.63200138941E+03  0.00000000000E+00 0. -1.
          3    1    5    5  503    0  0.43904851959E+03 -0.54718879124E+02 -0.11052861099E+04  0.11905524529E+04  0.00000000000E+00 0. -1.
         -2    1    5    5    0  503  0.14799723121E+03  0.67613519303E+01 -0.27659120697E+03  0.31376996686E+03  0.00000000000E+00 0.  1.
         -3    1    6    6    0  502 -0.37835044726E+02  0.43775922773E+02 -0.21017726359E+03  0.21799611041E+03  0.00000000000E+00 0.  1.
<mgrwt>
<rscale>  0 0.13774738E+04</rscale>
<asrwt>0</asrwt>
<pdfrwt beam="1">  1        2 0.40098454E+00 0.13774738E+04</pdfrwt>
<pdfrwt beam="2">  1       -2 0.27999636E-01 0.13774738E+04</pdfrwt>
<totfact> 0.34455102E+01</totfact>
</mgrwt>
</event>
<event>
12    1  0.4612066E-007  0.1766155E+04  0.7818608E-02  0.8724508E-01
          2   -1    0    0  501    0  0.00000000000E+00  0.00000000000E+00  0.36744492909E+03  0.36744492909E+03  0.00000000000E+00 0. -1.
         -2   -1    0    0    0  501 -0.00000000000E+00 -0.00000000000E+00 -0.21222926552E+04  0.21222926552E+04  0.00000000000E+00 0.  1.
         23    2    1    2    0    0 -0.56859722838E+03 -0.16482147419E+03 -0.10305064763E+04  0.11917967844E+04  0.89258339906E+02 0.  0.
        254    2    1    2    0    0  0.56859722838E+03  0.16482147419E+03 -0.72434124978E+03  0.12979407998E+04  0.89972837412E+03 0.  0.
        -24    2    4    4    0    0  0.75214956600E+03 -0.66769961114E+02 -0.59992974908E+03  0.96750794799E+03  0.77257544936E+02 0.  0.
         24    2    4    4    0    0 -0.18355233762E+03  0.23159143530E+03 -0.12441150070E+03  0.33043285182E+03  0.79884882837E+02 0.  0.
         13    1    3    3    0    0 -0.70070079663E+02 -0.13829054922E+02 -0.75227525662E+02  0.10373157398E+03  0.00000000000E+00 0. -1.
        -13    1    3    3    0    0 -0.49852714872E+03 -0.15099241927E+03 -0.95527895063E+03  0.10880652105E+04  0.00000000000E+00 0.  1.
          2    1    6    6  502    0 -0.52828151622E+02  0.70456218574E+02  0.84173733758E+00  0.88065889318E+02  0.00000000000E+00 0. -1.
          1    1    5    5  503    0  0.15481494009E+03 -0.37994607814E+02 -0.15272256159E+03  0.22076103985E+03  0.00000000000E+00 0. -1.
         -2    1    5    5    0  503  0.59733462591E+03 -0.28775353300E+02 -0.44720718749E+03  0.74674690814E+03  0.00000000000E+00 0.  1.
         -1    1    6    6    0  502 -0.13072418599E+03  0.16113521673E+03 -0.12525323804E+03  0.24236696250E+03  0.00000000000E+00 0.  1.
<mgrwt>
<rscale>  0 0.17661548E+04</rscale>
<asrwt>0</asrwt>
<pdfrwt beam="1">  1        2 0.56529988E-01 0.17661548E+04</pdfrwt>
<pdfrwt beam="2">  1       -2 0.32650657E+00 0.17661548E+04</pdfrwt>
<totfact> 0.18130169E+00</totfact>
</mgrwt>
</event>
<event>
12    1  0.4612066E-007  0.2272686E+04  0.7818608E-02  0.8488769E-01
         -1   -1    0    0    0  501 -0.00000000000E+00  0.00000000000E+00  0.62484243984E+03  0.62484243984E+03  0.00000000000E+00 0.  1.
          1   -1    0    0  501    0  0.00000000000E+00 -0.00000000000E+00 -0.20665620876E+04  0.20665620876E+04  0.00000000000E+00 0. -1.
         23    2    1    2    0    0  0.33628544930E+03 -0.45847062594E+03 -0.15288024250E+04  0.16338209212E+04  0.94078317140E+02 0.  0.
        254    2    1    2    0    0 -0.33628544930E+03  0.45847062594E+03  0.87082777251E+02  0.10575836062E+04  0.88747758041E+03 0.  0.
        -24    2    4    4    0    0 -0.34860758421E+03 -0.18592816032E+03  0.11277846573E+02  0.40303828018E+03  0.78842481537E+02 0.  0.
         24    2    4    4    0    0  0.12322134916E+02  0.64439878626E+03  0.75804930678E+02  0.65454532601E+03  0.85332089806E+02 0.  0.
         11    1    3    3    0    0  0.17339717919E+03 -0.21941698716E+03 -0.62155478261E+03  0.68157225867E+03  0.00000000000E+00 0.  1.
        -11    1    3    3    0    0  0.16288827011E+03 -0.23905363878E+03 -0.90724764237E+03  0.95224866256E+03  0.00000000000E+00 0. -1.
          4    1    6    6  502    0  0.56532989643E+01  0.29697038750E+03  0.77811144688E+02  0.30704713820E+03  0.00000000000E+00 0. -1.
          1    1    5    5  503    0 -0.57416923983E+02 -0.49303410084E+02 -0.24158352922E+02  0.79442780802E+02  0.00000000000E+00 0. -1.
         -4    1    5    5    0  503 -0.29119066023E+03 -0.13662475024E+03  0.35436199495E+02  0.32359549938E+03  0.00000000000E+00 0.  1.
         -3    1    6    6    0  502  0.66688359517E+01  0.34742839876E+03 -0.20062140096E+01  0.34749818781E+03  0.00000000000E+00 0.  1.
<mgrwt>
<rscale>  0 0.22726862E+04</rscale>
<asrwt>0</asrwt>
<pdfrwt beam="1">  1        1 0.31793263E+00 0.22726862E+04</pdfrwt>
<pdfrwt beam="2">  1       -1 0.96129604E-01 0.22726862E+04</pdfrwt>
<totfact> 0.25361867E+00</totfact>
</mgrwt>
</event>
<event>
12    1  0.4612066E-007  0.3121137E+04  0.7818608E-02  0.8209961E-01
          1   -1    0    0  501    0  0.00000000000E+00  0.00000000000E+00  0.30647303613E+04  0.30647303613E+04  0.00000000000E+00 0. -1.
         -1   -1    0    0    0  501 -0.00000000000E+00 -0.00000000000E+00 -0.79464530462E+03  0.79464530462E+03  0.00000000000E+00 0.  1.
         23    2    1    2    0    0 -0.84645925791E+02 -0.14060328908E+04  0.13366911452E+04  0.19440991066E+04  0.93191716299E+02 0.  0.
        254    2    1    2    0    0  0.84645925791E+02  0.14060328908E+04  0.93339391144E+03  0.19152765593E+04  0.90164665024E+03 0.  0.
        -24    2    4    4    0    0  0.19765297286E+03  0.76267110243E+03  0.97478469765E+03  0.12559245586E+04  0.80046124340E+02 0.  0.
         24    2    4    4    0    0 -0.11300704707E+03  0.64336178835E+03 -0.41390786205E+02  0.65935200065E+03  0.79667309391E+02 0.  0.
         13    1    3    3    0    0 -0.69208983124E+02 -0.13754757071E+04  0.13092125528E+04  0.19002002033E+04  0.00000000000E+00 0. -1.
        -13    1    3    3    0    0 -0.15436942667E+02 -0.30557183722E+02  0.27478592403E+02  0.43898903362E+02  0.00000000000E+00 0.  1.
          2    1    6    6  502    0 -0.10786582930E+03  0.61264856872E+03 -0.56702464419E+02  0.62465068267E+03  0.00000000000E+00 0. -1.
          1    1    5    5  503    0  0.17452602560E+03  0.60572306487E+03  0.73340954056E+03  0.96708289154E+03  0.00000000000E+00 0. -1.
         -2    1    5    5    0  503  0.23126947262E+02  0.15694803756E+03  0.24137515709E+03  0.28884166708E+03  0.00000000000E+00 0.  1.
         -1    1    6    6    0  502 -0.51412177669E+01  0.30713219630E+02  0.15311678214E+02  0.34701317985E+02  0.00000000000E+00 0.  1.
<mgrwt>
<rscale>  0 0.31211367E+04</rscale>
<asrwt>0</asrwt>
<pdfrwt beam="1">  1        1 0.47149697E+00 0.31211367E+04</pdfrwt>
<pdfrwt beam="2">  1       -1 0.12225313E+00 0.31211367E+04</pdfrwt>
<totfact> 0.26667605E-01</totfact>
</mgrwt>
</event>
<event>
12    1  0.4612066E-007  0.1592852E+04  0.7818608E-02  0.8824951E-01
         -2   -1    0    0    0  501 -0.00000000000E+00  0.00000000000E+00  0.27402669149E+03  0.27402669149E+03  0.00000000000E+00 0. -1.
          2   -1    0    0  501    0  0.00000000000E+00 -0.00000000000E+00 -0.23147175128E+04  0.23147175128E+04  0.00000000000E+00 0.  1.
         23    2    1    2    0    0  0.23238287173E+03  0.46092945316E+03 -0.44215880117E+03  0.68569051606E+03  0.90605289538E+02 0.  0.
        254    2    1    2    0    0 -0.23238287173E+03 -0.46092945316E+03 -0.15985320201E+04  0.19030536882E+04  0.89434387177E+03 0.  0.
        -24    2    4    4    0    0  0.23557796191E+03 -0.39702744241E+03 -0.41490100508E+03  0.62603486786E+03  0.81541680050E+02 0.  0.
         24    2    4    4    0    0 -0.46796083363E+03 -0.63902010747E+02 -0.11836310150E+04  0.12770188203E+04  0.81999262094E+02 0.  0.
         11    1    3    3    0    0  0.10384443405E+02  0.89012777750E+02 -0.58062858489E+02  0.10678205282E+03  0.00000000000E+00 0.  1.
        -11    1    3    3    0    0  0.22199842832E+03  0.37191667541E+03 -0.38409594268E+03  0.57890846324E+03  0.00000000000E+00 0. -1.
          2    1    6    6  502    0 -0.80080924707E+02  0.19513515225E+02 -0.21773755135E+03  0.23281617866E+03  0.00000000000E+00 0. -1.
          3    1    5    5  503    0  0.95697663194E+02 -0.13947996535E+03 -0.20373609187E+03  0.26480388706E+03  0.00000000000E+00 0. -1.
         -4    1    5    5    0  503  0.13988029871E+03 -0.25754747706E+03 -0.21116491322E+03  0.36123098079E+03  0.00000000000E+00 0.  1.
         -1    1    6    6    0  502 -0.38787990893E+03 -0.83415525972E+02 -0.96589346367E+03  0.10442026417E+04  0.00000000000E+00 0.  1.
<mgrwt>
<rscale>  0 0.15928520E+04</rscale>
<asrwt>0</asrwt>
<pdfrwt beam="1">  1        2 0.35611039E+00 0.15928520E+04</pdfrwt>
<pdfrwt beam="2">  1       -2 0.42157952E-01 0.15928520E+04</pdfrwt>
<totfact> 0.22782298E+01</totfact>
</mgrwt>
</event>
<event>
12    1  0.4612066E-007  0.2966518E+04  0.7818608E-02  0.8253357E-01
         -2   -1    0    0    0  501 -0.00000000000E+00  0.00000000000E+00  0.57660972372E+03  0.57660972372E+03  0.00000000000E+00 0.  1.
          2   -1    0    0  501    0  0.00000000000E+00 -0.00000000000E+00 -0.38155051459E+04  0.38155051459E+04  0.00000000000E+00 0. -1.
         23    2    1    2    0    0  0.81966880626E+03 -0.60187729753E+03 -0.17748552959E+03  0.10364408812E+04  0.92711130824E+02 0.  0.
        254    2    1    2    0    0 -0.81966880626E+03  0.60187729753E+03 -0.30614098926E+04  0.33556739884E+04  0.92423165545E+03 0.  0.
        -24    2    4    4    0    0  0.17581831957E+03  0.13512335316E+03 -0.88719703446E+03  0.91796454826E+03  0.79811852762E+02 0.  0.
         24    2    4    4    0    0 -0.99548712583E+03  0.46675394437E+03 -0.21742128581E+04  0.24377094401E+04  0.79824181486E+02 0.  0.
         13    1    3    3    0    0  0.10941627665E+02 -0.25882687322E+02 -0.78318293907E+01  0.29171394731E+02  0.00000000000E+00 0. -1.
        -13    1    3    3    0    0  0.80872717859E+03 -0.57599461021E+03 -0.16965370020E+03  0.10072694865E+04  0.00000000000E+00 0.  1.
          4    1    6    6  502    0 -0.60921583034E+03  0.28559889149E+03 -0.14152857180E+04  0.15670814652E+04  0.00000000000E+00 0. -1.
          1    1    5    5  503    0  0.17063205893E+03  0.14072147743E+03 -0.78731408189E+03  0.81779049718E+03  0.00000000000E+00 0. -1.
         -2    1    5    5    0  503  0.51862606394E+01 -0.55981242621E+01 -0.99882952576E+02  0.10017405108E+03  0.00000000000E+00 0.  1.
         -3    1    6    6    0  502 -0.38627129548E+03  0.18115505288E+03 -0.75892714006E+03  0.87062797498E+03  0.00000000000E+00 0.  1.
<mgrwt>
<rscale>  0 0.29665181E+04</rscale>
<asrwt>0</asrwt>
<pdfrwt beam="1">  1        2 0.58700079E+00 0.29665181E+04</pdfrwt>
<pdfrwt beam="2">  1       -2 0.88709189E-01 0.29665181E+04</pdfrwt>
<totfact> 0.44798105E-01</totfact>
</mgrwt>
</event>
<event>
12    1  0.4612066E-007  0.2726676E+04  0.7818608E-02  0.8326401E-01
          2   -1    0    0  501    0  0.00000000000E+00  0.00000000000E+00  0.36964791467E+04  0.36964791467E+04  0.00000000000E+00 0.  1.
         -2   -1    0    0    0  501 -0.00000000000E+00 -0.00000000000E+00 -0.50282728312E+03  0.50282728312E+03  0.00000000000E+00 0. -1.
         23    2    1    2    0    0  0.12008024159E+04 -0.17445717944E+03  0.14228988551E+04  0.18722391131E+04  0.90974697033E+02 0.  0.
        254    2    1    2    0    0 -0.12008024159E+04  0.17445717944E+03  0.17707530085E+04  0.23270673167E+04  0.89850672228E+03 0.  0.
        -24    2    4    4    0    0 -0.74561307959E+03  0.53207419508E+03  0.98168152623E+03  0.13450448591E+04  0.80032746513E+02 0.  0.
         24    2    4    4    0    0 -0.45518933626E+03 -0.35761701564E+03  0.78907148226E+03  0.98202245760E+03  0.81529389747E+02 0.  0.
         13    1    3    3    0    0  0.76506419281E+03 -0.11613691475E+03  0.97318044226E+03  0.12433387211E+04  0.00000000000E+00 0.  1.
        -13    1    3    3    0    0  0.43573822304E+03 -0.58320264684E+02  0.44971841281E+03  0.62890039204E+03  0.00000000000E+00 0. -1.
          2    1    6    6  502    0 -0.35913524027E+03 -0.31736133753E+03  0.67096800830E+03  0.82455709780E+03  0.00000000000E+00 0. -1.
          3    1    5    5  503    0 -0.63816201584E+03  0.41914839466E+03  0.82266318018E+03  0.11223684080E+04  0.00000000000E+00 0. -1.
         -4    1    5    5    0  503 -0.10745106375E+03  0.11292580042E+03  0.15901834605E+03  0.22267645111E+03  0.00000000000E+00 0.  1.
         -1    1    6    6    0  502 -0.96054095992E+02 -0.40255678112E+02  0.11810347396E+03  0.15746535980E+03  0.00000000000E+00 0.  1.
<mgrwt>
<rscale>  0 0.27266760E+04</rscale>
<asrwt>0</asrwt>
<pdfrwt beam="1">  1        2 0.56868908E+00 0.27266760E+04</pdfrwt>
<pdfrwt beam="2">  1       -2 0.77358046E-01 0.27266760E+04</pdfrwt>
<totfact> 0.76649110E-01</totfact>
</mgrwt>
</event>
<event>
12    1  0.4612066E-007  0.2385654E+04  0.7818608E-02  0.8444894E-01
         -2   -1    0    0    0  501 -0.00000000000E+00  0.00000000000E+00  0.15593590786E+04  0.15593590786E+04  0.00000000000E+00 0.  1.
          2   -1    0    0  501    0  0.00000000000E+00 -0.00000000000E+00 -0.91244956766E+03  0.91244956766E+03  0.00000000000E+00 0. -1.
         23    2    1    2    0    0 -0.14896552853E+03 -0.97457613359E+03  0.56790669318E+03  0.11414045544E+04  0.91087736711E+02 0.  0.
        254    2    1    2    0    0  0.14896552853E+03  0.97457613359E+03  0.79002817803E+02  0.13304040919E+04  0.88980010883E+03 0.  0.
        -24    2    4    4    0    0  0.39974750882E+03  0.14823959563E+03  0.15294017374E+03  0.46001679506E+03  0.80322515396E+02 0.  0.
         24    2    4    4    0    0 -0.25078198029E+03  0.82633653796E+03 -0.73937355935E+02  0.87038729684E+03  0.79897673927E+02 0.  0.
         13    1    3    3    0    0 -0.26176989529E+02 -0.31643192034E+03  0.14127164809E+03  0.34752276694E+03  0.00000000000E+00 0. -1.
        -13    1    3    3    0    0 -0.12278853900E+03 -0.65814421325E+03  0.42663504509E+03  0.79388178745E+03  0.00000000000E+00 0.  1.
          4    1    6    6  502    0 -0.67479806047E+02  0.17962143106E+03 -0.47532588874E+02  0.19767834915E+03  0.00000000000E+00 0. -1.
          1    1    5    5  503    0  0.23176791081E+02 -0.49120974074E+01  0.23534967826E+02  0.33394416544E+02  0.00000000000E+00 0. -1.
         -2    1    5    5    0  503  0.37657071774E+03  0.15315169304E+03  0.12940520591E+03  0.42662237852E+03  0.00000000000E+00 0.  1.
         -1    1    6    6    0  502 -0.18330217424E+03  0.64671510690E+03 -0.26404767061E+02  0.67270894769E+03  0.00000000000E+00 0.  1.
<mgrwt>
<rscale>  0 0.23856542E+04</rscale>
<asrwt>0</asrwt>
<pdfrwt beam="1">  1        2 0.14037686E+00 0.23856542E+04</pdfrwt>
<pdfrwt beam="2">  1       -2 0.23990140E+00 0.23856542E+04</pdfrwt>
<totfact> 0.19202644E+00</totfact>
</mgrwt>
</event>
<event>
12    1  0.4612066E-007  0.1382147E+04  0.7818608E-02  0.8966844E-01
          1   -1    0    0  501    0  0.00000000000E+00  0.00000000000E+00  0.73342731799E+03  0.73342731799E+03  0.00000000000E+00 0. -1.
         -1   -1    0    0    0  501 -0.00000000000E+00 -0.00000000000E+00 -0.65116522725E+03  0.65116522725E+03  0.00000000000E+00 0.  1.
         23    2    1    2    0    0  0.24767823623E+03 -0.22392488041E+03  0.13217097327E+03  0.37057016353E+03  0.91467038652E+02 0.  0.
        254    2    1    2    0    0 -0.24767823623E+03  0.22392488041E+03 -0.49908882520E+02  0.10140223817E+04  0.95617134097E+03 0.  0.
        -24    2    4    4    0    0 -0.25310389195E+03 -0.34545661739E+03  0.84699063039E+01  0.43608092322E+03  0.81810620705E+02 0.  0.
         24    2    4    4    0    0  0.54256557208E+01  0.56938149780E+03 -0.58378788824E+02  0.57794145849E+03  0.79896925359E+02 0.  0.
         13    1    3    3    0    0  0.60667252831E+02 -0.10866011746E+03  0.28566403757E+02  0.12768545773E+03  0.00000000000E+00 0.  1.
        -13    1    3    3    0    0  0.18701098340E+03 -0.11526476295E+03  0.10360456951E+03  0.24288470580E+03  0.00000000000E+00 0. -1.
          2    1    6    6  502    0 -0.34369554829E+02  0.19034373774E+03 -0.89540795746E+01  0.19362897598E+03  0.00000000000E+00 0. -1.
          3    1    5    5  503    0 -0.14982096830E+03 -0.26562604594E+03 -0.35965402388E+01  0.30498598972E+03  0.00000000000E+00 0. -1.
         -4    1    5    5    0  503 -0.10328292365E+03 -0.79830571448E+02  0.12066446543E+02  0.13109493349E+03  0.00000000000E+00 0.  1.
         -1    1    6    6    0  502  0.39795210550E+02  0.37903776006E+03 -0.49424709250E+02  0.38431248251E+03  0.00000000000E+00 0.  1.
<mgrwt>
<rscale>  0 0.13821467E+04</rscale>
<asrwt>0</asrwt>
<pdfrwt beam="1">  1        1 0.11283497E+00 0.13821467E+04</pdfrwt>
<pdfrwt beam="2">  1       -1 0.10017927E+00 0.13821467E+04</pdfrwt>
<totfact> 0.23514475E+01</totfact>
</mgrwt>
</event>
<event>
12    1  0.4612066E-007  0.2549847E+04  0.7818608E-02  0.8385439E-01
         -2   -1    0    0    0  501 -0.00000000000E+00  0.00000000000E+00  0.26318604334E+04  0.26318604334E+04  0.00000000000E+00 0. -1.
          2   -1    0    0  501    0  0.00000000000E+00 -0.00000000000E+00 -0.61759720929E+03  0.61759720929E+03  0.00000000000E+00 0.  1.
         23    2    1    2    0    0 -0.12216278014E+03  0.73520043431E+03 -0.17126075295E+03  0.77015274451E+03  0.91441680362E+02 0.  0.
        254    2    1    2    0    0  0.12216278014E+03 -0.73520043431E+03  0.21855239771E+04  0.24793048982E+04  0.90277034757E+03 0.  0.
        -24    2    4    4    0    0  0.73927281379E+02  0.17107971962E+03  0.76748651068E+03  0.79382766076E+03  0.79958098453E+02 0.  0.
         24    2    4    4    0    0  0.48235498756E+02 -0.90628015393E+03  0.14180374664E+04  0.16854772374E+04  0.79579401413E+02 0.  0.
         11    1    3    3    0    0 -0.37274145202E+02  0.32566389685E+03 -0.32058626408E+02  0.32935405134E+03  0.00000000000E+00 0. -1.
        -11    1    3    3    0    0 -0.84888634933E+02  0.40953653746E+03 -0.13920212654E+03  0.44079869316E+03  0.00000000000E+00 0.  1.
          4    1    6    6  502    0  0.27420767699E+02 -0.81163892467E+03  0.12992901713E+04  0.15322090562E+04  0.00000000000E+00 0. -1.
          1    1    5    5  503    0  0.64493691695E+02  0.12502237093E+03  0.41444573293E+03  0.43767030405E+03  0.00000000000E+00 0. -1.
         -2    1    5    5    0  503  0.94335896845E+01  0.46057348684E+02  0.35304077775E+03  0.35615735671E+03  0.00000000000E+00 0.  1.
         -3    1    6    6    0  502  0.20814731057E+02 -0.94641229257E+02  0.11874729508E+03  0.15326818128E+03  0.00000000000E+00 0.  1.
<mgrwt>
<rscale>  0 0.25498468E+04</rscale>
<asrwt>0</asrwt>
<pdfrwt beam="1">  1        2 0.95014957E-01 0.25498468E+04</pdfrwt>
<pdfrwt beam="2">  1       -2 0.40490160E+00 0.25498468E+04</pdfrwt>
<totfact> 0.29320522E-01</totfact>
</mgrwt>
</event>
<event>
12    1  0.4612066E-007  0.2004590E+04  0.7818608E-02  0.8604478E-01
         -2   -1    0    0    0  501 -0.00000000000E+00  0.00000000000E+00  0.46701432165E+03  0.46701432165E+03  0.00000000000E+00 0.  1.
          2   -1    0    0  501    0  0.00000000000E+00 -0.00000000000E+00 -0.21511016973E+04  0.21511016973E+04  0.00000000000E+00 0. -1.
         23    2    1    2    0    0 -0.78858884410E+03  0.24427842007E+02 -0.53567185943E+03  0.95788743531E+03  0.90193753863E+02 0.  0.
        254    2    1    2    0    0  0.78858884410E+03 -0.24427842007E+02 -0.11484155162E+04  0.16602285837E+04  0.90279104314E+03 0.  0.
        -24    2    4    4    0    0  0.81418157355E+03 -0.15468230443E+03 -0.12293698993E+04  0.14847017982E+04  0.78554631890E+02 0.  0.
         24    2    4    4    0    0 -0.25592729457E+02  0.13025446242E+03  0.80954383115E+02  0.17552678544E+03  0.81454450338E+02 0.  0.
         13    1    3    3    0    0 -0.23485511241E+03 -0.32153204905E+02 -0.17475304373E+03  0.29449852072E+03  0.00000000000E+00 0. -1.
        -13    1    3    3    0    0 -0.55373373168E+03  0.56581046911E+02 -0.36091881570E+03  0.66338891459E+03  0.00000000000E+00 0.  1.
          2    1    6    6  502    0 -0.79540009741E+01  0.78726316732E+01 -0.15212420985E+02  0.18885502725E+02  0.00000000000E+00 0. -1.
          3    1    5    5  503    0  0.47251111216E+02 -0.19388988502E+02 -0.10758289505E+03  0.11909105631E+03  0.00000000000E+00 0. -1.
         -4    1    5    5    0  503  0.76693046234E+03 -0.13529331593E+03 -0.11217870043E+04  0.13656107419E+04  0.00000000000E+00 0.  1.
         -1    1    6    6    0  502 -0.17638728483E+02  0.12238183075E+03  0.96166804101E+02  0.15664128271E+03  0.00000000000E+00 0.  1.
<mgrwt>
<rscale>  0 0.20045900E+04</rscale>
<asrwt>0</asrwt>
<pdfrwt beam="1">  1        2 0.33093873E+00 0.20045900E+04</pdfrwt>
<pdfrwt beam="2">  1       -2 0.71848355E-01 0.20045900E+04</pdfrwt>
<totfact> 0.89694656E+00</totfact>
</mgrwt>
</event>
<event>
12    1  0.5767887E-007  0.1440634E+04  0.7818608E-02  0.8924920E-01
          1   -1    0    0  501    0  0.00000000000E+00  0.00000000000E+00  0.15236200977E+04  0.15236200977E+04  0.00000000000E+00 0. -1.
         -1   -1    0    0    0  501 -0.00000000000E+00 -0.00000000000E+00 -0.34054176555E+03  0.34054176555E+03  0.00000000000E+00 0.  1.
         23    2    1    2    0    0  0.11585001681E+03  0.71225637065E+01 -0.17801552200E+03  0.23131028576E+03  0.91339832025E+02 0.  0.
        254    2    1    2    0    0 -0.11585001681E+03 -0.71225637065E+01  0.13610938541E+04  0.16328515775E+04  0.89451430230E+03 0.  0.
        -24    2    4    4    0    0  0.22168405767E+02  0.12054703050E+03 -0.87339862428E+02  0.17008929322E+03  0.79240717585E+02 0.  0.
         24    2    4    4    0    0 -0.13801842258E+03 -0.12766959421E+03  0.14484337166E+04  0.14627622843E+04  0.79778811248E+02 0.  0.
         11    1    3    3    0    0 -0.34028680853E+01  0.15233837845E+01  0.88278572954E+01  0.95828635485E+01  0.00000000000E+00 0. -1.
        -11    1    3    3    0    0  0.11925288489E+03  0.55991799220E+01 -0.18684337930E+03  0.22172742221E+03  0.00000000000E+00 0.  1.
          4    1    6    6  502    0 -0.99836411203E+01 -0.46295493155E+02  0.22297893319E+03  0.22795295660E+03  0.00000000000E+00 0. -1.
          3    1    5    5  503    0  0.14976136691E+02 -0.55834368833E+01  0.86908856757E+00  0.16006709611E+02  0.00000000000E+00 0. -1.
         -4    1    5    5    0  503  0.71922690762E+01  0.12613046738E+03 -0.88208950995E+02  0.15408258361E+03  0.00000000000E+00 0.  1.
         -3    1    6    6    0  502 -0.12803478146E+03 -0.81374101053E+02  0.12254547834E+04  0.12348093277E+04  0.00000000000E+00 0.  1.
<mgrwt>
<rscale>  0 0.14406336E+04</rscale>
<asrwt>0</asrwt>
<pdfrwt beam="1">  1        1 0.23440309E+00 0.14406336E+04</pdfrwt>
<pdfrwt beam="2">  1       -1 0.52391041E-01 0.14406336E+04</pdfrwt>
<totfact> 0.22472034E+01</totfact>
</mgrwt>
</event>
<event>
12    1  0.4612066E-007  0.3523130E+04  0.7818608E-02  0.8108330E-01
          2   -1    0    0  501    0  0.00000000000E+00  0.00000000000E+00  0.24284430024E+04  0.24284430024E+04  0.00000000000E+00 0. -1.
         -2   -1    0    0    0  501 -0.00000000000E+00 -0.00000000000E+00 -0.12778194902E+04  0.12778194902E+04  0.00000000000E+00 0.  1.
         23    2    1    2    0    0  0.10314664167E+04 -0.12266050926E+04  0.13113681110E+03  0.16106375275E+04  0.92050854660E+02 0.  0.
        254    2    1    2    0    0 -0.10314664167E+04  0.12266050926E+04  0.10194867011E+04  0.20956249650E+04  0.88532922577E+03 0.  0.
        -24    2    4    4    0    0 -0.11354137730E+04  0.81802700539E+03  0.75834583857E+03  0.15936294996E+04  0.78955390668E+02 0.  0.
         24    2    4    4    0    0  0.10394735630E+03  0.40857808722E+03  0.26114086256E+03  0.50199546534E+03  0.77870346628E+02 0.  0.
         11    1    3    3    0    0  0.39175612052E+03 -0.52821298126E+03  0.32718157493E+02  0.65844687665E+03  0.00000000000E+00 0.  1.
        -11    1    3    3    0    0  0.63971029623E+03 -0.69839211134E+03  0.98418653611E+02  0.95219065090E+03  0.00000000000E+00 0. -1.
          4    1    6    6  502    0  0.42223230650E+02  0.89346883069E+02  0.30731312070E+02  0.10348951764E+03  0.00000000000E+00 0. -1.
          3    1    5    5  503    0 -0.54525202816E+03  0.43853221535E+03  0.39406843744E+03  0.80305679220E+03  0.00000000000E+00 0. -1.
         -4    1    5    5    0  503 -0.59016174488E+03  0.37949479004E+03  0.36427740113E+03  0.79057270744E+03  0.00000000000E+00 0.  1.
         -3    1    6    6    0  502  0.61724125646E+02  0.31923120415E+03  0.23040955049E+03  0.39850594769E+03  0.00000000000E+00 0.  1.
<mgrwt>
<rscale>  0 0.35231303E+04</rscale>
<asrwt>0</asrwt>
<pdfrwt beam="1">  1        2 0.37360662E+00 0.35231303E+04</pdfrwt>
<pdfrwt beam="2">  1       -2 0.19658761E+00 0.35231303E+04</pdfrwt>
<totfact> 0.43984081E-01</totfact>
</mgrwt>
</event>
<event>
12    1  0.4612066E-007  0.2533712E+04  0.7818608E-02  0.8391073E-01
         -2   -1    0    0    0  501 -0.00000000000E+00  0.00000000000E+00  0.98357963917E+03  0.98357963917E+03  0.00000000000E+00 0.  1.
          2   -1    0    0  501    0  0.00000000000E+00 -0.00000000000E+00 -0.16317169159E+04  0.16317169159E+04  0.00000000000E+00 0. -1.
         23    2    1    2    0    0  0.31423655653E+03  0.95986476082E+03  0.17928325895E+03  0.10299947846E+04  0.93068774659E+02 0.  0.
        254    2    1    2    0    0 -0.31423655653E+03 -0.95986476082E+03 -0.82742053570E+03  0.15853017705E+04  0.89915070379E+03 0.  0.
        -24    2    4    4    0    0  0.10701345745E+03 -0.90308870552E+03 -0.63349903878E+03  0.11113113292E+04  0.81674648607E+02 0.  0.
         24    2    4    4    0    0 -0.42125001398E+03 -0.56776055296E+02 -0.19392149692E+03  0.47399044127E+03  0.79914308536E+02 0.  0.
         13    1    3    3    0    0  0.22962560544E+03  0.71737057754E+03  0.92431605378E+02  0.75887552725E+03  0.00000000000E+00 0. -1.
        -13    1    3    3    0    0  0.84610951093E+02  0.24249418328E+03  0.86851653574E+02  0.27111925734E+03  0.00000000000E+00 0.  1.
          4    1    6    6  502    0 -0.17935769236E+03 -0.63740030318E+02 -0.78860366293E+02  0.20603623624E+03  0.00000000000E+00 0. -1.
          3    1    5    5  503    0  0.25951054935E+02 -0.12765683670E+03 -0.12462361274E+03  0.18027969952E+03  0.00000000000E+00 0. -1.
         -4    1    5    5    0  503  0.81062402517E+02 -0.77543186882E+03 -0.50887542604E+03  0.93103162971E+03  0.00000000000E+00 0.  1.
         -3    1    6    6    0  502 -0.24189232162E+03  0.69639750221E+01 -0.11506113063E+03  0.26795420502E+03  0.00000000000E+00 0.  1.
<mgrwt>
<rscale>  0 0.25337115E+04</rscale>
<asrwt>0</asrwt>
<pdfrwt beam="1">  1        2 0.25103337E+00 0.25337115E+04</pdfrwt>
<pdfrwt beam="2">  1       -2 0.15131994E+00 0.25337115E+04</pdfrwt>
<totfact> 0.27876598E+00</totfact>
</mgrwt>
</event>
<event>
12    1  0.4612066E-007  0.2144117E+04  0.7818608E-02  0.8542055E-01
          2   -1    0    0  501    0  0.00000000000E+00  0.00000000000E+00  0.32396400895E+04  0.32396400895E+04  0.00000000000E+00 0. -1.
         -2   -1    0    0    0  501 -0.00000000000E+00 -0.00000000000E+00 -0.35476451673E+03  0.35476451673E+03  0.00000000000E+00 0.  1.
         23    2    1    2    0    0  0.32498421394E+03  0.26180374545E+03  0.24965991647E+04  0.25328933671E+04  0.91572263197E+02 0.  0.
        254    2    1    2    0    0 -0.32498421394E+03 -0.26180374545E+03  0.38827640810E+03  0.10615112392E+04  0.89548400397E+03 0.  0.
        -24    2    4    4    0    0 -0.63708654276E+02 -0.47661178571E+03  0.49810897353E+03  0.69729530945E+03  0.83009711269E+02 0.  0.
         24    2    4    4    0    0 -0.26127555967E+03  0.21480804026E+03 -0.10983256543E+03  0.36421592973E+03  0.78629757708E+02 0.  0.
         13    1    3    3    0    0  0.15535488649E+03  0.16783597854E+03  0.15341517853E+04  0.15511046891E+04  0.00000000000E+00 0. -1.
        -13    1    3    3    0    0  0.16962932745E+03  0.93967766910E+02  0.96244737943E+03  0.98178867794E+03  0.00000000000E+00 0.  1.
          2    1    6    6  502    0 -0.11416357112E+03  0.45881075465E+02 -0.32792421059E+02  0.12733317296E+03  0.00000000000E+00 0. -1.
          1    1    5    5  503    0  0.18860173666E+02 -0.55968288384E+02  0.67515359684E+02  0.89702169698E+02  0.00000000000E+00 0. -1.
         -2    1    5    5    0  503 -0.82568827942E+02 -0.42064349733E+03  0.43059361385E+03  0.60759313975E+03  0.00000000000E+00 0.  1.
         -1    1    6    6    0  502 -0.14711198855E+03  0.16892696480E+03 -0.77040144372E+02  0.23688275677E+03  0.00000000000E+00 0.  1.
<mgrwt>
<rscale>  0 0.21441169E+04</rscale>
<asrwt>0</asrwt>
<pdfrwt beam="1">  1        2 0.49840615E+00 0.21441169E+04</pdfrwt>
<pdfrwt beam="2">  1       -2 0.54579159E-01 0.21441169E+04</pdfrwt>
<totfact> 0.35521818E+00</totfact>
</mgrwt>
</event>
<event>
12    1  0.5394503E-007  0.2125713E+04  0.7818608E-02  0.8550001E-01
          2   -1    0    0  501    0  0.00000000000E+00  0.00000000000E+00  0.13512279416E+04  0.13512279416E+04  0.00000000000E+00 0. -1.
         -2   -1    0    0    0  501 -0.00000000000E+00 -0.00000000000E+00 -0.83602736866E+03  0.83602736866E+03  0.00000000000E+00 0.  1.
         23    2    1    2    0    0  0.93621899565E+01 -0.82038066411E+03 -0.78728525242E+02  0.82889988190E+03  0.88117812470E+02 0.  0.
        254    2    1    2    0    0 -0.93621899565E+01  0.82038066411E+03  0.59392909822E+03  0.13583554284E+04  0.90513292475E+03 0.  0.
        -24    2    4    4    0    0 -0.26229438398E+03  0.10350480170E+03 -0.11442145854E+03  0.31575877146E+03  0.84259977069E+02 0.  0.
         24    2    4    4    0    0  0.25293219403E+03  0.71687586242E+03  0.70835055675E+03  0.10425966569E+04  0.85799655555E+02 0.  0.
         13    1    3    3    0    0 -0.95717662709E+01 -0.33225268512E+03  0.93781435009E+01  0.33252280381E+03  0.00000000000E+00 0. -1.
        -13    1    3    3    0    0  0.18933956227E+02 -0.48812797899E+03 -0.88106668743E+02  0.49637707809E+03  0.00000000000E+00 0.  1.
          2    1    6    6  502    0  0.22561250897E+03  0.64216641692E+03  0.59456575440E+03  0.90376277171E+03  0.00000000000E+00 0. -1.
          3    1    5    5  503    0 -0.22809309183E+03  0.54854222471E+02 -0.96268563489E+02  0.25358052090E+03  0.00000000000E+00 0. -1.
         -4    1    5    5    0  503 -0.34201292153E+02  0.48650579225E+02 -0.18152895049E+02  0.62178250559E+02  0.00000000000E+00 0.  1.
         -1    1    6    6    0  502  0.27319685060E+02  0.74709445491E+02  0.11378480235E+03  0.13883388521E+03  0.00000000000E+00 0.  1.
<mgrwt>
<rscale>  0 0.21257126E+04</rscale>
<asrwt>0</asrwt>
<pdfrwt beam="1">  1        2 0.20788122E+00 0.21257126E+04</pdfrwt>
<pdfrwt beam="2">  1       -2 0.12861960E+00 0.21257126E+04</pdfrwt>
<totfact> 0.63352868E+00</totfact>
</mgrwt>
</event>
<event>
12    1  0.4612066E-007  0.3858480E+04  0.7818608E-02  0.8033720E-01
         -2   -1    0    0    0  501 -0.00000000000E+00  0.00000000000E+00  0.20487163824E+04  0.20487163824E+04  0.00000000000E+00 0.  1.
          2   -1    0    0  501    0  0.00000000000E+00 -0.00000000000E+00 -0.18167310379E+04  0.18167310379E+04  0.00000000000E+00 0. -1.
         23    2    1    2    0    0  0.15430003396E+04  0.58609687459E+03 -0.64485693149E+03  0.17741430552E+04  0.85927433328E+02 0.  0.
        254    2    1    2    0    0 -0.15430003396E+04 -0.58609687459E+03  0.87684227601E+03  0.20913043650E+04  0.93826540792E+03 0.  0.
        -24    2    4    4    0    0 -0.80997245475E+03 -0.76469694882E+03  0.68208587532E+03  0.13085549712E+04  0.79108598495E+02 0.  0.
         24    2    4    4    0    0 -0.73302788487E+03  0.17860007423E+03  0.19475640069E+03  0.78274939383E+03  0.74422385171E+02 0.  0.
         13    1    3    3    0    0  0.38449215190E+03  0.14073196754E+03 -0.19988482388E+03  0.45562445542E+03  0.00000000000E+00 0. -1.
        -13    1    3    3    0    0  0.11585081877E+04  0.44536490706E+03 -0.44497210761E+03  0.13185185998E+04  0.00000000000E+00 0.  1.
          2    1    6    6  502    0 -0.56845813459E+03  0.12910850108E+03  0.18081568063E+03  0.61033430691E+03  0.00000000000E+00 0. -1.
          1    1    5    5  503    0 -0.75457615668E+03 -0.73701410883E+03  0.64554207146E+03  0.12366485106E+04  0.00000000000E+00 0. -1.
         -4    1    5    5    0  503 -0.55396298067E+02 -0.27682839986E+02  0.36543803861E+02  0.71906460557E+02  0.00000000000E+00 0.  1.
         -1    1    6    6    0  502 -0.16456975029E+03  0.49491573151E+02  0.13940720065E+02  0.17241508692E+03  0.00000000000E+00 0.  1.
<mgrwt>
<rscale>  0 0.38584798E+04</rscale>
<asrwt>0</asrwt>
<pdfrwt beam="1">  1        2 0.27949708E+00 0.38584798E+04</pdfrwt>
<pdfrwt beam="2">  1       -2 0.31518713E+00 0.38584798E+04</pdfrwt>
<totfact> 0.17279043E-01</totfact>
</mgrwt>
</event>
<event>
12    1  0.4612066E-007  0.1664342E+04  0.7818608E-02  0.8781967E-01
          2   -1    0    0  501    0  0.00000000000E+00  0.00000000000E+00  0.13708610473E+04  0.13708610473E+04  0.00000000000E+00 0. -1.
         -2   -1    0    0    0  501 -0.00000000000E+00 -0.00000000000E+00 -0.50516329156E+03  0.50516329156E+03  0.00000000000E+00 0.  1.
         23    2    1    2    0    0 -0.48075926386E+03  0.19126836202E+03  0.42915129324E+02  0.52691696066E+03  0.89926186427E+02 0.  0.
        254    2    1    2    0    0  0.48075926386E+03 -0.19126836202E+03  0.82278262644E+03  0.13491073782E+04  0.93563155756E+03 0.  0.
        -24    2    4    4    0    0  0.75483199700E+03 -0.10618753375E+03  0.55079033753E+03  0.94389958675E+03  0.80804071347E+02 0.  0.
         24    2    4    4    0    0 -0.27407273313E+03 -0.85080828267E+02  0.27199228891E+03  0.40520779147E+03  0.88650655118E+02 0.  0.
         13    1    3    3    0    0 -0.30443432914E+03  0.15033921776E+03  0.61124806170E+02  0.34499041013E+03  0.00000000000E+00 0. -1.
        -13    1    3    3    0    0 -0.17632493472E+03  0.40929144262E+02 -0.18209676845E+02  0.18192655053E+03  0.00000000000E+00 0.  1.
          2    1    6    6  502    0 -0.77938470639E+01 -0.24008849967E+02  0.11535284883E+02  0.27753048952E+02  0.00000000000E+00 0. -1.
          1    1    5    5  503    0  0.74122759600E+02 -0.12974925669E+02  0.86606935364E+02  0.11473139692E+03  0.00000000000E+00 0. -1.
         -2    1    5    5    0  503  0.68070923740E+03 -0.93212608084E+02  0.46418340216E+03  0.82916818983E+03  0.00000000000E+00 0.  1.
         -1    1    6    6    0  502 -0.26627888607E+03 -0.61071978300E+02  0.26045700403E+03  0.37745474252E+03  0.00000000000E+00 0.  1.
<mgrwt>
<rscale>  0 0.16643421E+04</rscale>
<asrwt>0</asrwt>
<pdfrwt beam="1">  1        2 0.21090170E+00 0.16643421E+04</pdfrwt>
<pdfrwt beam="2">  1       -2 0.77717430E-01 0.16643421E+04</pdfrwt>
<totfact> 0.21168462E+01</totfact>
</mgrwt>
</event>
<event>
12    1  0.4612066E-007  0.1437956E+04  0.7818608E-02  0.8926793E-01
          1   -1    0    0  501    0  0.00000000000E+00  0.00000000000E+00  0.20296863587E+04  0.20296863587E+04  0.00000000000E+00 0. -1.
         -1   -1    0    0    0  501 -0.00000000000E+00 -0.00000000000E+00 -0.25468423655E+03  0.25468423655E+03  0.00000000000E+00 0.  1.
         23    2    1    2    0    0  0.20109310643E+03  0.20812222092E+03  0.10830788241E+04  0.11247889605E+04  0.91308104951E+02 0.  0.
        254    2    1    2    0    0 -0.20109310643E+03 -0.20812222092E+03  0.69192329803E+03  0.11595816348E+04  0.88437459319E+03 0.  0.
        -24    2    4    4    0    0 -0.36357538946E+03  0.19673542307E+01  0.78343687913E+03  0.86738159606E+03  0.79915926351E+02 0.  0.
         24    2    4    4    0    0  0.16248228303E+03 -0.21008957516E+03 -0.91513581107E+02  0.29220003873E+03  0.80423909486E+02 0.  0.
         13    1    3    3    0    0  0.67066963709E+02  0.72949261384E+02  0.22508113361E+03  0.24592903258E+03  0.00000000000E+00 0.  1.
        -13    1    3    3    0    0  0.13402614272E+03  0.13517295954E+03  0.85799769053E+03  0.87885992790E+03  0.00000000000E+00 0. -1.
          2    1    6    6  502    0  0.13500835733E+03 -0.19689922757E+03 -0.55656458429E+02  0.24514119142E+03  0.00000000000E+00 0. -1.
          1    1    5    5  503    0 -0.34842342833E+03 -0.19473484453E+01  0.69366941131E+03  0.77626022039E+03  0.00000000000E+00 0. -1.
         -2    1    5    5    0  503 -0.15151961127E+02  0.39147026760E+01  0.89767467825E+02  0.91121375663E+02  0.00000000000E+00 0.  1.
         -1    1    6    6    0  502  0.27473925702E+02 -0.13190347583E+02 -0.35857122678E+02  0.47058847304E+02  0.00000000000E+00 0.  1.
<mgrwt>
<rscale>  0 0.14379557E+04</rscale>
<asrwt>0</asrwt>
<pdfrwt beam="1">  1        1 0.31225943E+00 0.14379557E+04</pdfrwt>
<pdfrwt beam="2">  1       -1 0.39182192E-01 0.14379557E+04</pdfrwt>
<totfact> 0.17510126E+01</totfact>
</mgrwt>
</event>
<event>
12    1  0.4612066E-007  0.1109722E+04  0.7818608E-02  0.9195768E-01
          2   -1    0    0  501    0  0.00000000000E+00  0.00000000000E+00  0.61912759930E+03  0.61912759930E+03  0.00000000000E+00 0.  1.
         -2   -1    0    0    0  501 -0.00000000000E+00 -0.00000000000E+00 -0.49726496083E+03  0.49726496083E+03  0.00000000000E+00 0. -1.
         23    2    1    2    0    0 -0.78492580513E+02  0.11033334434E+03 -0.14075902008E+03  0.21494694208E+03  0.89747167691E+02 0.  0.
        254    2    1    2    0    0  0.78492580513E+02 -0.11033334434E+03  0.26262165855E+03  0.90144561805E+03  0.85164519296E+03 0.  0.
        -24    2    4    4    0    0  0.30987889141E+03  0.98682984651E+02 -0.15948697375E+03  0.37069062736E+03  0.78817432169E+02 0.  0.
         24    2    4    4    0    0 -0.23138631090E+03 -0.20901632899E+03  0.42210863230E+03  0.53075499070E+03  0.79358125177E+02 0.  0.
         11    1    3    3    0    0 -0.44470877368E+02  0.93766919517E+02 -0.14340177086E+03  0.17701401644E+03  0.00000000000E+00 0. -1.
        -11    1    3    3    0    0 -0.34021703146E+02  0.16566424820E+02  0.26427507810E+01  0.37932925644E+02  0.00000000000E+00 0.  1.
          4    1    6    6  502    0 -0.42842689502E+01 -0.33010108002E+02  0.58740951530E+02  0.67516824403E+02  0.00000000000E+00 0. -1.
          1    1    5    5  503    0  0.12541746466E+03  0.80728558174E+02 -0.76475337321E+02  0.16761598302E+03  0.00000000000E+00 0. -1.
         -2    1    5    5    0  503  0.18446142675E+03  0.17954426476E+02 -0.83011636429E+02  0.20307464433E+03  0.00000000000E+00 0.  1.
         -3    1    6    6    0  502 -0.22710204195E+03 -0.17600622099E+03  0.36336768077E+03  0.46323816629E+03  0.00000000000E+00 0.  1.
<mgrwt>
<rscale>  0 0.11097215E+04</rscale>
<asrwt>0</asrwt>
<pdfrwt beam="1">  1        2 0.95250401E-01 0.11097215E+04</pdfrwt>
<pdfrwt beam="2">  1       -2 0.76502301E-01 0.11097215E+04</pdfrwt>
<totfact> 0.72421733E+01</totfact>
</mgrwt>
</event>
<event>
12    1  0.4612066E-007  0.1637045E+04  0.7818608E-02  0.8798108E-01
         -1   -1    0    0    0  501 -0.00000000000E+00  0.00000000000E+00  0.42567668691E+03  0.42567668691E+03  0.00000000000E+00 0.  1.
          1   -1    0    0  501    0  0.00000000000E+00 -0.00000000000E+00 -0.15739145911E+04  0.15739145911E+04  0.00000000000E+00 0. -1.
         23    2    1    2    0    0 -0.39378591608E+03 -0.32032278061E+03 -0.70348337095E+03  0.87232115854E+03  0.91549543715E+02 0.  0.
        254    2    1    2    0    0  0.39378591608E+03  0.32032278061E+03 -0.44475453322E+03  0.11272701194E+04  0.90291599604E+03 0.  0.
        -24    2    4    4    0    0  0.28905834163E+03 -0.13673009097E+03 -0.54862033539E+03  0.64002084901E+03  0.79953562298E+02 0.  0.
         24    2    4    4    0    0  0.10472757445E+03  0.45705287158E+03  0.10386580216E+03  0.48724927044E+03  0.82210427629E+02 0.  0.
         13    1    3    3    0    0 -0.82192055318E+02 -0.10929935929E+03 -0.22888024000E+03  0.26662342013E+03  0.00000000000E+00 0. -1.
        -13    1    3    3    0    0 -0.31159386076E+03 -0.21102342132E+03 -0.47460313095E+03  0.60569773841E+03  0.00000000000E+00 0.  1.
          2    1    6    6  502    0 -0.79515033924E+01  0.86581695690E+01  0.10105796559E+02  0.15502175027E+02  0.00000000000E+00 0. -1.
          1    1    5    5  503    0  0.72102041134E+02  0.16923812256E+01 -0.11266815614E+03  0.13377474312E+03  0.00000000000E+00 0. -1.
         -2    1    5    5    0  503  0.21695630050E+03 -0.13842247220E+03 -0.43595217925E+03  0.50624610589E+03  0.00000000000E+00 0.  1.
         -1    1    6    6    0  502  0.11267907784E+03  0.44839470201E+03  0.93760005604E+02  0.47174709541E+03  0.00000000000E+00 0.  1.
<mgrwt>
<rscale>  0 0.16370446E+04</rscale>
<asrwt>0</asrwt>
<pdfrwt beam="1">  1        1 0.24214070E+00 0.16370446E+04</pdfrwt>
<pdfrwt beam="2">  1       -1 0.65488722E-01 0.16370446E+04</pdfrwt>
<totfact> 0.13148794E+01</totfact>
</mgrwt>
</event>
<event>
12    1  0.4612066E-007  0.1576485E+04  0.7818608E-02  0.8835126E-01
         -1   -1    0    0    0  501 -0.00000000000E+00  0.00000000000E+00  0.99013096412E+03  0.99013096412E+03  0.00000000000E+00 0.  1.
          1   -1    0    0  501    0  0.00000000000E+00 -0.00000000000E+00 -0.62751922938E+03  0.62751922938E+03  0.00000000000E+00 0. -1.
         23    2    1    2    0    0  0.27783236721E+03  0.41425293270E+03 -0.52407464902E+02  0.50968523040E+03  0.90753375687E+02 0.  0.
        254    2    1    2    0    0 -0.27783236721E+03 -0.41425293270E+03  0.41501919964E+03  0.11079649631E+04  0.89808079083E+03 0.  0.
        -24    2    4    4    0    0 -0.32388148634E+03 -0.67373906738E+03  0.32253588048E+03  0.81806744802E+03  0.79883710496E+02 0.  0.
         24    2    4    4    0    0  0.46049119131E+02  0.25948613468E+03  0.92483319155E+02  0.28989751508E+03  0.77677728231E+02 0.  0.
         13    1    3    3    0    0  0.52929948675E+01  0.10199086215E+02 -0.17661310278E+02  0.21070335427E+02  0.00000000000E+00 0. -1.
        -13    1    3    3    0    0  0.27253937234E+03  0.40405384648E+03 -0.34746154625E+02  0.48861489498E+03  0.00000000000E+00 0.  1.
          2    1    6    6  502    0  0.29868300963E+02  0.14774468922E+03  0.11938447985E+02  0.15120560550E+03  0.00000000000E+00 0. -1.
          1    1    5    5  503    0 -0.27878685781E+03 -0.62842942562E+03  0.28766595655E+03  0.74524986255E+03  0.00000000000E+00 0. -1.
         -2    1    5    5    0  503 -0.45094628525E+02 -0.45309641758E+02  0.34869923935E+02  0.72817585467E+02  0.00000000000E+00 0.  1.
         -1    1    6    6    0  502  0.16180818168E+02  0.11174144546E+03  0.80544871171E+02  0.13869190958E+03  0.00000000000E+00 0.  1.
<mgrwt>
<rscale>  0 0.15764850E+04</rscale>
<asrwt>0</asrwt>
<pdfrwt beam="1">  1        1 0.96541420E-01 0.15764850E+04</pdfrwt>
<pdfrwt beam="2">  1       -1 0.15232784E+00 0.15764850E+04</pdfrwt>
<totfact> 0.10321494E+01</totfact>
</mgrwt>
</event>
<event>
12    1  0.4612066E-007  0.1739054E+04  0.7818608E-02  0.8739399E-01
         -1   -1    0    0    0  501 -0.00000000000E+00  0.00000000000E+00  0.35326971324E+03  0.35326971324E+03  0.00000000000E+00 0.  1.
          1   -1    0    0  501    0  0.00000000000E+00 -0.00000000000E+00 -0.21402264614E+04  0.21402264614E+04  0.00000000000E+00 0. -1.
         23    2    1    2    0    0 -0.56244624438E+03  0.16621465708E+03 -0.31762873816E+03  0.67271895769E+03  0.87690881451E+02 0.  0.
        254    2    1    2    0    0  0.56244624438E+03 -0.16621465708E+03 -0.14693280101E+04  0.18207772170E+04  0.90129450390E+03 0.  0.
        -24    2    4    4    0    0  0.52429913992E+03 -0.48451484377E+03 -0.11844393802E+04  0.13852102992E+04  0.79162526832E+02 0.  0.
         24    2    4    4    0    0  0.38147104454E+02  0.31830018669E+03 -0.28488862988E+03  0.43556691783E+03  0.76071006591E+02 0.  0.
         13    1    3    3    0    0 -0.10752263036E+03  0.65615618953E+02 -0.50899643007E+02  0.13585764295E+03  0.00000000000E+00 0.  1.
        -13    1    3    3    0    0 -0.45492361401E+03  0.10059903812E+03 -0.26672909515E+03  0.53686131474E+03  0.00000000000E+00 0. -1.
          4    1    6    6  502    0 -0.77916858574E-01  0.55102537102E+02 -0.91200677848E+02  0.10655448984E+03  0.00000000000E+00 0. -1.
          3    1    5    5  503    0  0.51200633786E+02 -0.19782000659E+02 -0.99666882910E+02  0.11378189662E+03  0.00000000000E+00 0. -1.
         -4    1    5    5    0  503  0.47309850614E+03 -0.46473284311E+03 -0.10847724973E+04  0.12714284025E+04  0.00000000000E+00 0.  1.
         -3    1    6    6    0  502  0.38225021312E+02  0.26319764959E+03 -0.19368795203E+03  0.32901242798E+03  0.00000000000E+00 0.  1.
<mgrwt>
<rscale>  0 0.17390540E+04</rscale>
<asrwt>0</asrwt>
<pdfrwt beam="1">  1        1 0.32926561E+00 0.17390540E+04</pdfrwt>
<pdfrwt beam="2">  1       -1 0.54349187E-01 0.17390540E+04</pdfrwt>
<totfact> 0.77633255E+00</totfact>
</mgrwt>
</event>
<event>
12    1  0.4612066E-007  0.1412400E+04  0.7818608E-02  0.8944892E-01
         -1   -1    0    0    0  501 -0.00000000000E+00  0.00000000000E+00  0.70479667000E+03  0.70479667000E+03  0.00000000000E+00 0.  1.
          1   -1    0    0  501    0  0.00000000000E+00 -0.00000000000E+00 -0.70760592927E+03  0.70760592927E+03  0.00000000000E+00 0. -1.
         23    2    1    2    0    0  0.78684113339E+02  0.28862052254E+03 -0.28134424119E+03  0.42672435821E+03  0.11595732021E+03 0.  0.
        254    2    1    2    0    0 -0.78684113339E+02 -0.28862052254E+03  0.27853498192E+03  0.98567824105E+03  0.89693191660E+03 0.  0.
        -24    2    4    4    0    0 -0.36290010966E+03 -0.40375738112E+03  0.36110260788E+03  0.65712110359E+03  0.81832383352E+02 0.  0.
         24    2    4    4    0    0  0.28421599632E+03  0.11513685858E+03 -0.82567625960E+02  0.32855713746E+03  0.84244590056E+02 0.  0.
         11    1    3    3    0    0  0.54005261255E+02  0.28565638216E+03 -0.27687958246E+03  0.40147034772E+03  0.00000000000E+00 0.  1.
        -11    1    3    3    0    0  0.24678852083E+02  0.29641403855E+01 -0.44646587314E+01  0.25254010493E+02  0.00000000000E+00 0. -1.
          2    1    6    6  502    0 -0.15264309088E+01  0.14066560354E+02 -0.86479841882E+01  0.16582694052E+02  0.00000000000E+00 0. -1.
          3    1    5    5  503    0 -0.27695959243E+03 -0.27340449527E+03  0.29116878939E+03  0.48604104537E+03  0.00000000000E+00 0. -1.
         -4    1    5    5    0  503 -0.85940517233E+02 -0.13035288585E+03  0.69933818494E+02  0.17108005822E+03  0.00000000000E+00 0.  1.
         -1    1    6    6    0  502  0.28574242723E+03  0.10107029822E+03 -0.73919641771E+02  0.31197444341E+03  0.00000000000E+00 0.  1.
<mgrwt>
<rscale>  0 0.14123998E+04</rscale>
<asrwt>0</asrwt>
<pdfrwt beam="1">  1        1 0.10886245E+00 0.14123998E+04</pdfrwt>
<pdfrwt beam="2">  1       -1 0.10843026E+00 0.14123998E+04</pdfrwt>
<totfact> 0.20619400E+01</totfact>
</mgrwt>
</event>
<event>
12    1  0.4612066E-007  0.1426884E+04  0.7818608E-02  0.8934585E-01
         -2   -1    0    0    0  501 -0.00000000000E+00  0.00000000000E+00  0.15885138237E+03  0.15885138237E+03  0.00000000000E+00 0.  1.
          2   -1    0    0  501    0  0.00000000000E+00 -0.00000000000E+00 -0.32042517835E+04  0.32042517835E+04  0.00000000000E+00 0. -1.
         23    2    1    2    0    0 -0.33103806075E+03  0.25709972497E+03 -0.97551816415E+03  0.10669409055E+04  0.10507493044E+03 0.  0.
        254    2    1    2    0    0  0.33103806075E+03 -0.25709972497E+03 -0.20698822370E+04  0.22961622604E+04  0.90125589303E+03 0.  0.
        -24    2    4    4    0    0  0.10951397541E+03 -0.50356503301E+02  0.49765386508E+02  0.15370565572E+03  0.81361825647E+02 0.  0.
         24    2    4    4    0    0  0.22152408534E+03 -0.20674322167E+03 -0.21196476235E+04  0.21424566047E+04  0.73474995204E+02 0.  0.
         13    1    3    3    0    0 -0.14266042764E+03  0.84370391804E+02 -0.50480277727E+03  0.53131554143E+03  0.00000000000E+00 0. -1.
        -13    1    3    3    0    0 -0.18837763311E+03  0.17272933317E+03 -0.47071538688E+03  0.53562536407E+03  0.00000000000E+00 0.  1.
          2    1    6    6  502    0  0.33101496769E+02 -0.69575861572E+02 -0.62855568766E+03  0.63326042202E+03  0.00000000000E+00 0. -1.
          1    1    5    5  503    0 -0.20102663294E+01 -0.17136292512E+02 -0.12895629453E+02  0.21540449178E+02  0.00000000000E+00 0. -1.
         -2    1    5    5    0  503  0.11152424174E+03 -0.33220210789E+02  0.62661015961E+02  0.13216520655E+03  0.00000000000E+00 0.  1.
         -1    1    6    6    0  502  0.18842258857E+03 -0.13716736010E+03 -0.14910919359E+04  0.15091961827E+04  0.00000000000E+00 0.  1.
<mgrwt>
<rscale>  0 0.14268845E+04</rscale>
<asrwt>0</asrwt>
<pdfrwt beam="1">  1        2 0.49296181E+00 0.14268845E+04</pdfrwt>
<pdfrwt beam="2">  1       -2 0.24438674E-01 0.14268845E+04</pdfrwt>
<totfact> 0.18926990E+01</totfact>
</mgrwt>
</event>
<event>
12    1  0.4612066E-007  0.3095366E+04  0.7818608E-02  0.8217011E-01
          2   -1    0    0  501    0  0.00000000000E+00  0.00000000000E+00  0.13244560989E+04  0.13244560989E+04  0.00000000000E+00 0. -1.
         -2   -1    0    0    0  501 -0.00000000000E+00 -0.00000000000E+00 -0.18085326870E+04  0.18085326870E+04  0.00000000000E+00 0.  1.
         23    2    1    2    0    0  0.14089051503E+04 -0.10845792622E+03 -0.16902670607E+03  0.14263307839E+04  0.95250372411E+02 0.  0.
        254    2    1    2    0    0 -0.14089051503E+04  0.10845792622E+03 -0.31504988203E+03  0.17066580020E+04  0.90368593192E+03 0.  0.
        -24    2    4    4    0    0 -0.79648978769E+02  0.31008882466E+03 -0.74206594388E+02  0.33849338374E+03  0.81068570894E+02 0.  0.
         24    2    4    4    0    0 -0.13292561715E+04 -0.20163089844E+03 -0.24084328764E+03  0.13681646183E+04  0.79321780783E+02 0.  0.
         11    1    3    3    0    0  0.39201169491E+03 -0.48385917707E+02 -0.86348908300E+02  0.40431485249E+03  0.00000000000E+00 0.  1.
        -11    1    3    3    0    0  0.10168934554E+04 -0.60072008511E+02 -0.82677797768E+02  0.10220159314E+04  0.00000000000E+00 0. -1.
          2    1    6    6  502    0 -0.10590301761E+04 -0.14307251230E+03 -0.21854580072E+03  0.10907689602E+04  0.00000000000E+00 0. -1.
          1    1    5    5  503    0 -0.65304223781E+02  0.22243049051E+03 -0.89246646644E+02  0.24840476785E+03  0.00000000000E+00 0. -1.
         -2    1    5    5    0  503 -0.14344754989E+02  0.87658334141E+02  0.15040052256E+02  0.90088615884E+02  0.00000000000E+00 0.  1.
         -1    1    6    6    0  502 -0.27022599544E+03 -0.58558386136E+02 -0.22297486926E+02  0.27739565808E+03  0.00000000000E+00 0.  1.
<mgrwt>
<rscale>  0 0.30953657E+04</rscale>
<asrwt>0</asrwt>
<pdfrwt beam="1">  1        2 0.20376248E+00 0.30953657E+04</pdfrwt>
<pdfrwt beam="2">  1       -2 0.27823580E+00 0.30953657E+04</pdfrwt>
<totfact> 0.58654985E-01</totfact>
</mgrwt>
</event>
<event>
12    1  0.4612066E-007  0.1733526E+04  0.7818608E-02  0.8742471E-01
         -1   -1    0    0    0  501 -0.00000000000E+00  0.00000000000E+00  0.14031479792E+04  0.14031479792E+04  0.00000000000E+00 0.  1.
          1   -1    0    0  501    0  0.00000000000E+00 -0.00000000000E+00 -0.53542320844E+03  0.53542320844E+03  0.00000000000E+00 0. -1.
         23    2    1    2    0    0  0.44957926736E+03  0.19598674289E+03 -0.77637145436E+02  0.50479632325E+03  0.90881684531E+02 0.  0.
        254    2    1    2    0    0 -0.44957926736E+03 -0.19598674289E+03  0.94536191614E+03  0.14337748643E+04  0.95993171013E+03 0.  0.
        -24    2    4    4    0    0 -0.48918020681E+03  0.25785311879E+03  0.74502071304E+03  0.93113343880E+03  0.78537331179E+02 0.  0.
         24    2    4    4    0    0  0.39600939445E+02 -0.45383986167E+03  0.20034120310E+03  0.50264142555E+03  0.70519150395E+02 0.  0.
         11    1    3    3    0    0  0.24427455926E+03  0.10521547205E+03 -0.87807281222E+02  0.28009011852E+03  0.00000000000E+00 0. -1.
        -11    1    3    3    0    0  0.20530470810E+03  0.90771270835E+02  0.10170135786E+02  0.22470620472E+03  0.00000000000E+00 0.  1.
          2    1    6    6  502    0  0.59826927471E+02 -0.33452246433E+03  0.14224516479E+03  0.36839954845E+03  0.00000000000E+00 0. -1.
          1    1    5    5  503    0 -0.39097394481E+03  0.23600971659E+03  0.58561364999E+03  0.74263352934E+03  0.00000000000E+00 0. -1.
         -2    1    5    5    0  503 -0.98206261995E+02  0.21843402193E+02  0.15940706305E+03  0.18849990946E+03  0.00000000000E+00 0.  1.
         -1    1    6    6    0  502 -0.20225988026E+02 -0.11931739735E+03  0.58096038316E+02  0.13424187711E+03  0.00000000000E+00 0.  1.
<mgrwt>
<rscale>  0 0.17335259E+04</rscale>
<asrwt>0</asrwt>
<pdfrwt beam="1">  1        1 0.82372802E-01 0.17335259E+04</pdfrwt>
<pdfrwt beam="2">  1       -1 0.21586892E+00 0.17335259E+04</pdfrwt>
<totfact> 0.44845539E+00</totfact>
</mgrwt>
</event>
<event>
12    1  0.4612066E-007  0.1560502E+04  0.7818608E-02  0.8845187E-01
          1   -1    0    0  501    0  0.00000000000E+00  0.00000000000E+00  0.16358387164E+04  0.16358387164E+04  0.00000000000E+00 0. -1.
         -1   -1    0    0    0  501 -0.00000000000E+00 -0.00000000000E+00 -0.37215892212E+03  0.37215892212E+03  0.00000000000E+00 0.  1.
         23    2    1    2    0    0 -0.24423736414E+03  0.45516933194E+03  0.46368732551E+03  0.70046331964E+03  0.93871803776E+02 0.  0.
        254    2    1    2    0    0  0.24423736414E+03 -0.45516933194E+03  0.79999246881E+03  0.13075343189E+04  0.89600615747E+03 0.  0.
        -24    2    4    4    0    0 -0.98242173314E+02 -0.58559594587E+03  0.69585363665E+03  0.91829666109E+03  0.80512966086E+02 0.  0.
         24    2    4    4    0    0  0.34247953746E+03  0.13042661392E+03  0.10413883217E+03  0.38923765783E+03  0.79735329126E+02 0.  0.
         13    1    3    3    0    0 -0.66816957270E+02  0.19271100928E+03  0.22585967156E+03  0.30432651892E+03  0.00000000000E+00 0. -1.
        -13    1    3    3    0    0 -0.17742040687E+03  0.26245832266E+03  0.23782765394E+03  0.39613680073E+03  0.00000000000E+00 0.  1.
          4    1    6    6  502    0  0.11997313666E+03  0.53638596969E+02  0.76949522694E+02  0.15228880999E+03  0.00000000000E+00 0. -1.
          1    1    5    5  503    0 -0.32402302657E+02 -0.31123118068E+03  0.31181687467E+03  0.44175165011E+03  0.00000000000E+00 0. -1.
         -2    1    5    5    0  503 -0.65839870657E+02 -0.27436476518E+03  0.38403676198E+03  0.47654501098E+03  0.00000000000E+00 0.  1.
         -3    1    6    6    0  502  0.22250640079E+03  0.76788016954E+02  0.27189309471E+02  0.23694884784E+03  0.00000000000E+00 0.  1.
<mgrwt>
<rscale>  0 0.15605024E+04</rscale>
<asrwt>0</asrwt>
<pdfrwt beam="1">  1        1 0.25166749E+00 0.15605024E+04</pdfrwt>
<pdfrwt beam="2">  1       -1 0.57255219E-01 0.15605024E+04</pdfrwt>
<totfact> 0.15679066E+01</totfact>
</mgrwt>
</event>
<event>
12    1  0.4612066E-007  0.4521917E+04  0.7818608E-02  0.7906811E-01
         -2   -1    0    0    0  501 -0.00000000000E+00  0.00000000000E+00  0.13253597019E+04  0.13253597019E+04  0.00000000000E+00 0.  1.
          2   -1    0    0  501    0  0.00000000000E+00 -0.00000000000E+00 -0.38570155463E+04  0.38570155463E+04  0.00000000000E+00 0. -1.
         23    2    1    2    0    0 -0.12262834107E+04  0.17791549547E+04 -0.96870028462E+03  0.23696277586E+04  0.87132752363E+02 0.  0.
        254    2    1    2    0    0  0.12262834107E+04 -0.17791549547E+04 -0.15629555598E+04  0.28127474896E+04  0.89417839499E+03 0.  0.
        -24    2    4    4    0    0  0.45522009609E+03 -0.26648530641E+03 -0.47105883807E+02  0.53525466071E+03  0.77709929274E+02 0.  0.
         24    2    4    4    0    0  0.77106331462E+03 -0.15126696483E+04 -0.15158496760E+04  0.22774928289E+04  0.80406749574E+02 0.  0.
         11    1    3    3    0    0 -0.24755236056E+03  0.30153706908E+03 -0.16688526277E+03  0.42433178785E+03  0.00000000000E+00 0.  1.
        -11    1    3    3    0    0 -0.97873105015E+03  0.14776178857E+04 -0.80181502185E+03  0.19452959707E+04  0.00000000000E+00 0. -1.
          4    1    6    6  502    0  0.52184553821E+03 -0.10242461888E+04 -0.97531195841E+03  0.15075265958E+04  0.00000000000E+00 0. -1.
          3    1    5    5  503    0  0.15268164323E+03 -0.12780068476E+03 -0.35442853455E+02  0.20223969706E+03  0.00000000000E+00 0. -1.
         -4    1    5    5    0  503  0.30253845286E+03 -0.13868462165E+03 -0.11663030351E+02  0.33301496365E+03  0.00000000000E+00 0.  1.
         -3    1    6    6    0  502  0.24921777641E+03 -0.48842345956E+03 -0.54053771755E+03  0.76996623304E+03  0.00000000000E+00 0.  1.
<mgrwt>
<rscale>  0 0.45219168E+04</rscale>
<asrwt>0</asrwt>
<pdfrwt beam="1">  1        2 0.59338700E+00 0.45219168E+04</pdfrwt>
<pdfrwt beam="2">  1       -2 0.20390150E+00 0.45219168E+04</pdfrwt>
<totfact> 0.41973887E-02</totfact>
</mgrwt>
</event>
<event>
12    1  0.4612066E-007  0.1151524E+04  0.7818608E-02  0.9156379E-01
         -2   -1    0    0    0  501 -0.00000000000E+00  0.00000000000E+00  0.11098036487E+03  0.11098036487E+03  0.00000000000E+00 0.  1.
          2   -1    0    0  501    0  0.00000000000E+00 -0.00000000000E+00 -0.29870327292E+04  0.29870327292E+04  0.00000000000E+00 0. -1.
         23    2    1    2    0    0  0.31957389697E+02 -0.17638397730E+03 -0.84403517797E+03  0.86738431259E+03  0.88473622495E+02 0.  0.
        254    2    1    2    0    0 -0.31957389697E+02  0.17638397730E+03 -0.20320171864E+04  0.22306287815E+04  0.90248453335E+03 0.  0.
        -24    2    4    4    0    0 -0.11926961754E+03 -0.34618874642E+03 -0.99709599592E+03  0.10652107712E+04  0.80010450181E+02 0.  0.
         24    2    4    4    0    0  0.87312227839E+02  0.52257272371E+03 -0.10349211905E+04  0.11654180103E+04  0.80197204662E+02 0.  0.
         13    1    3    3    0    0  0.23057195180E+02 -0.12139839163E+03 -0.73099571505E+03  0.74136626519E+03  0.00000000000E+00 0. -1.
        -13    1    3    3    0    0  0.89001945173E+01 -0.54985585671E+02 -0.11303946292E+03  0.12601804740E+03  0.00000000000E+00 0.  1.
          2    1    6    6  502    0  0.13656900011E+01  0.22111054289E+01  0.11422259397E+01  0.28387984244E+01  0.00000000000E+00 0. -1.
          1    1    5    5  503    0 -0.42085249874E+02 -0.48183124519E+02 -0.12581150333E+03  0.14114289255E+03  0.00000000000E+00 0. -1.
         -2    1    5    5    0  503 -0.77184367663E+02 -0.29800562190E+03 -0.87128449259E+03  0.92406787863E+03  0.00000000000E+00 0.  1.
         -1    1    6    6    0  502  0.85946537838E+02  0.52036161828E+03 -0.10360634164E+04  0.11625792119E+04  0.00000000000E+00 0.  1.
<mgrwt>
<rscale>  0 0.11515242E+04</rscale>
<asrwt>0</asrwt>
<pdfrwt beam="1">  1        2 0.45954343E+00 0.11515242E+04</pdfrwt>
<pdfrwt beam="2">  1       -2 0.17073905E-01 0.11515242E+04</pdfrwt>
<totfact> 0.50229971E+01</totfact>
</mgrwt>
</event>
<event>
12    1  0.4612066E-007  0.1058619E+04  0.7818608E-02  0.9246491E-01
          2   -1    0    0  501    0  0.00000000000E+00  0.00000000000E+00  0.67427773937E+03  0.67427773937E+03  0.00000000000E+00 0.  1.
         -2   -1    0    0    0  501 -0.00000000000E+00 -0.00000000000E+00 -0.41550878621E+03  0.41550878621E+03  0.00000000000E+00 0. -1.
         23    2    1    2    0    0  0.68435345545E+02  0.72749978523E+02  0.80639289962E+00  0.13322002512E+03  0.88153099366E+02 0.  0.
        254    2    1    2    0    0 -0.68435345545E+02 -0.72749978523E+02  0.25796256026E+03  0.95656650046E+03  0.91569581817E+03 0.  0.
        -24    2    4    4    0    0 -0.66630843578E+02 -0.39022128107E+03 -0.15314190189E+03  0.43119061775E+03  0.75898545448E+02 0.  0.
         24    2    4    4    0    0 -0.18045019668E+01  0.31747130255E+03  0.41110446215E+03  0.52537588271E+03  0.78877469286E+02 0.  0.
         11    1    3    3    0    0  0.49378381377E+02  0.50639487469E+02 -0.41361305979E+02  0.81934973429E+02  0.00000000000E+00 0. -1.
        -11    1    3    3    0    0  0.19056964168E+02  0.22110491054E+02  0.42167698879E+02  0.51285051689E+02  0.00000000000E+00 0.  1.
          4    1    6    6  502    0 -0.98766161381E+01  0.15049047872E+03  0.13397995149E+03  0.20173140344E+03  0.00000000000E+00 0. -1.
          3    1    5    5  503    0 -0.11473797476E+02 -0.27340388986E+03 -0.96903344291E+02  0.29029569951E+03  0.00000000000E+00 0. -1.
         -4    1    5    5    0  503 -0.55157046102E+02 -0.11681739122E+03 -0.56238557603E+02  0.14089491824E+03  0.00000000000E+00 0.  1.
         -3    1    6    6    0  502  0.80721141713E+01  0.16698082383E+03  0.27712451066E+03  0.32364447927E+03  0.00000000000E+00 0.  1.
<mgrwt>
<rscale>  0 0.10586186E+04</rscale>
<asrwt>0</asrwt>
<pdfrwt beam="1">  1        2 0.10373504E+00 0.10586186E+04</pdfrwt>
<pdfrwt beam="2">  1       -2 0.63924429E-01 0.10586186E+04</pdfrwt>
<totfact> 0.96790482E+01</totfact>
</mgrwt>
</event>
<event>
12    1  0.4612066E-007  0.1499490E+04  0.7818608E-02  0.8884792E-01
          2   -1    0    0  501    0  0.00000000000E+00  0.00000000000E+00  0.16448521799E+04  0.16448521799E+04  0.00000000000E+00 0. -1.
         -2   -1    0    0    0  501 -0.00000000000E+00 -0.00000000000E+00 -0.34174342838E+03  0.34174342838E+03  0.00000000000E+00 0.  1.
         23    2    1    2    0    0 -0.34437642490E+02 -0.43573769712E+03  0.68656109982E+03  0.81894532118E+03  0.90840538223E+02 0.  0.
        254    2    1    2    0    0  0.34437642490E+02  0.43573769712E+03  0.61654765167E+03  0.11676502871E+04  0.89006903901E+03 0.  0.
        -24    2    4    4    0    0 -0.18796084399E+03  0.58743216298E+03  0.63144221585E+03  0.88635094051E+03  0.80578488521E+02 0.  0.
         24    2    4    4    0    0  0.22239848648E+03 -0.15169446585E+03 -0.14894564180E+02  0.28129934656E+03  0.80219552302E+02 0.  0.
         11    1    3    3    0    0 -0.25488561476E+02 -0.43114867078E+03  0.68333299631E+03  0.80838284676E+03  0.00000000000E+00 0. -1.
        -11    1    3    3    0    0 -0.89490810137E+01 -0.45890263397E+01  0.32281035129E+01  0.10562474427E+02  0.00000000000E+00 0.  1.
          4    1    6    6  502    0  0.84040327125E+02 -0.41347289639E+02  0.30670029962E+02  0.98554683712E+02  0.00000000000E+00 0. -1.
          3    1    5    5  503    0 -0.27139578294E+02  0.33795364869E+02  0.27079412845E+02  0.51107514091E+02  0.00000000000E+00 0. -1.
         -4    1    5    5    0  503 -0.16082126570E+03  0.55363679811E+03  0.60436280300E+03  0.83524342642E+03  0.00000000000E+00 0.  1.
         -3    1    6    6    0  502  0.13835815936E+03 -0.11034717621E+03 -0.45564594142E+02  0.18274466285E+03  0.00000000000E+00 0.  1.
<mgrwt>
<rscale>  0 0.14994898E+04</rscale>
<asrwt>0</asrwt>
<pdfrwt beam="1">  1        2 0.25305418E+00 0.14994898E+04</pdfrwt>
<pdfrwt beam="2">  1       -2 0.52575913E-01 0.14994898E+04</pdfrwt>
<totfact> 0.34711559E+01</totfact>
</mgrwt>
</event>
<event>
12    1  0.4612066E-007  0.1793634E+04  0.7818608E-02  0.8709692E-01
          2   -1    0    0  501    0  0.00000000000E+00  0.00000000000E+00  0.13748916840E+04  0.13748916840E+04  0.00000000000E+00 0. -1.
         -2   -1    0    0    0  501 -0.00000000000E+00 -0.00000000000E+00 -0.58497752414E+03  0.58497752414E+03  0.00000000000E+00 0.  1.
         23    2    1    2    0    0  0.52547340341E+03  0.35397848982E+03  0.52129031286E+03  0.82615701149E+03  0.96792295116E+02 0.  0.
        254    2    1    2    0    0 -0.52547340341E+03 -0.35397848982E+03  0.26862384695E+03  0.11337121966E+04  0.90095588385E+03 0.  0.
        -24    2    4    4    0    0 -0.63226351138E+03 -0.55232937892E+03  0.29506933320E+03  0.89366039285E+03  0.82085904495E+02 0.  0.
         24    2    4    4    0    0  0.10679010796E+03  0.19835088910E+03 -0.26445486250E+02  0.24005180376E+03  0.78602177968E+02 0.  0.
         13    1    3    3    0    0  0.39249280384E+03  0.24282912400E+03  0.32605127717E+03  0.56508939105E+03  0.00000000000E+00 0.  1.
        -13    1    3    3    0    0  0.13298059958E+03  0.11114936582E+03  0.19523903569E+03  0.26106762044E+03  0.00000000000E+00 0. -1.
          2    1    6    6  502    0  0.92517643205E+02  0.19437073360E+03 -0.41164396973E+02  0.21916661233E+03  0.00000000000E+00 0. -1.
          3    1    5    5  503    0 -0.54617492894E+03 -0.51133073077E+03  0.26007900983E+03  0.79209043713E+03  0.00000000000E+00 0. -1.
         -4    1    5    5    0  503 -0.86088582436E+02 -0.40998648148E+02  0.34990323373E+02  0.10156995572E+03  0.00000000000E+00 0.  1.
         -1    1    6    6    0  502  0.14272464757E+02  0.39801554980E+01  0.14718910722E+02  0.20885191426E+02  0.00000000000E+00 0.  1.
<mgrwt>
<rscale>  0 0.17936340E+04</rscale>
<asrwt>0</asrwt>
<pdfrwt beam="1">  1        2 0.21152180E+00 0.17936340E+04</pdfrwt>
<pdfrwt beam="2">  1       -2 0.89996542E-01 0.17936340E+04</pdfrwt>
<totfact> 0.14935045E+01</totfact>
</mgrwt>
</event>
<event>
12    1  0.4612066E-007  0.2321753E+04  0.7818608E-02  0.8469393E-01
         -2   -1    0    0    0  501 -0.00000000000E+00  0.00000000000E+00  0.13887080723E+04  0.13887080723E+04  0.00000000000E+00 0.  1.
          2   -1    0    0  501    0  0.00000000000E+00 -0.00000000000E+00 -0.97042299511E+03  0.97042299511E+03  0.00000000000E+00 0. -1.
         23    2    1    2    0    0  0.10063338372E+03 -0.17027344000E+03  0.11601943164E+04  0.11809733866E+04  0.97607201342E+02 0.  0.
        254    2    1    2    0    0 -0.10063338372E+03  0.17027344000E+03 -0.74190923924E+03  0.11781576808E+04  0.89359167364E+03 0.  0.
        -24    2    4    4    0    0  0.81275106551E+02 -0.58257024780E+02  0.17297669747E+03  0.21459199042E+03  0.78289594468E+02 0.  0.
         24    2    4    4    0    0 -0.18190849027E+03  0.22853046478E+03 -0.91488593672E+03  0.96356569036E+03  0.78266789014E+02 0.  0.
         13    1    3    3    0    0  0.63698120461E+02 -0.12603606114E+03  0.10147274843E+04  0.10245069090E+04  0.00000000000E+00 0.  1.
        -13    1    3    3    0    0  0.36935263260E+02 -0.44237378864E+02  0.14546683210E+03  0.15646647757E+03  0.00000000000E+00 0. -1.
          4    1    6    6  502    0 -0.91007985180E+02  0.16564604296E+03 -0.63888788437E+03  0.66625730293E+03  0.00000000000E+00 0. -1.
          3    1    5    5  503    0  0.25863530998E+02 -0.48626925387E+02  0.13743614369E+03  0.14806145245E+03  0.00000000000E+00 0. -1.
         -4    1    5    5    0  503  0.55411575553E+02 -0.96300993930E+01  0.35540553782E+02  0.66530537971E+02  0.00000000000E+00 0.  1.
         -3    1    6    6    0  502 -0.90900505092E+02  0.62884421827E+02 -0.27599805235E+03  0.29730838743E+03  0.00000000000E+00 0.  1.
<mgrwt>
<rscale>  0 0.23217530E+04</rscale>
<asrwt>0</asrwt>
<pdfrwt beam="1">  1        2 0.14929585E+00 0.23217530E+04</pdfrwt>
<pdfrwt beam="2">  1       -2 0.21364739E+00 0.23217530E+04</pdfrwt>
<totfact> 0.25841174E+00</totfact>
</mgrwt>
</event>
<event>
12    1  0.4612066E-007  0.3305320E+04  0.7818608E-02  0.8161543E-01
         -2   -1    0    0    0  501 -0.00000000000E+00  0.00000000000E+00  0.10583516017E+04  0.10583516017E+04  0.00000000000E+00 0.  1.
          2   -1    0    0  501    0  0.00000000000E+00 -0.00000000000E+00 -0.25806967328E+04  0.25806967328E+04  0.00000000000E+00 0. -1.
         23    2    1    2    0    0  0.14759917144E+04  0.29739095823E+03 -0.39796894210E+03  0.15599831042E+04  0.90416169476E+02 0.  0.
        254    2    1    2    0    0 -0.14759917144E+04 -0.29739095823E+03 -0.11243761890E+04  0.20790652303E+04  0.88954904002E+03 0.  0.
        -24    2    4    4    0    0  0.93403322443E+02  0.19155014678E+02 -0.28214667682E+01  0.12264685874E+03  0.77092127052E+02 0.  0.
         24    2    4    4    0    0 -0.15693950368E+04 -0.31654597291E+03 -0.11215547222E+04  0.19564183716E+04  0.80533937867E+02 0.  0.
         13    1    3    3    0    0  0.12098713670E+04  0.27817265338E+03 -0.32021473424E+03  0.12820710689E+04  0.00000000000E+00 0. -1.
        -13    1    3    3    0    0  0.26612034735E+03  0.19218304846E+02 -0.77754207868E+02  0.27791203528E+03  0.00000000000E+00 0.  1.
          4    1    6    6  502    0 -0.85304934514E+03 -0.21250946056E+03 -0.62220024620E+03  0.10770267418E+04  0.00000000000E+00 0. -1.
          3    1    5    5  503    0  0.77484167319E+02  0.45780818278E+02  0.65614996359E+01  0.90237092068E+02  0.00000000000E+00 0. -1.
         -4    1    5    5    0  503  0.15919155123E+02 -0.26625803600E+02 -0.93829664041E+01  0.32409766672E+02  0.00000000000E+00 0.  1.
         -3    1    6    6    0  502 -0.71634569167E+03 -0.10403651235E+03 -0.49935447602E+03  0.87939162981E+03  0.00000000000E+00 0.  1.
<mgrwt>
<rscale>  0 0.33053197E+04</rscale>
<asrwt>0</asrwt>
<pdfrwt beam="1">  1        2 0.39703026E+00 0.33053197E+04</pdfrwt>
<pdfrwt beam="2">  1       -2 0.16282332E+00 0.33053197E+04</pdfrwt>
<totfact> 0.62605079E-01</totfact>
</mgrwt>
</event>
<event>
12    1  0.4612066E-007  0.4291214E+04  0.7818608E-02  0.7948245E-01
          2   -1    0    0  501    0  0.00000000000E+00  0.00000000000E+00  0.22701607200E+04  0.22701607200E+04  0.00000000000E+00 0. -1.
         -2   -1    0    0    0  501 -0.00000000000E+00 -0.00000000000E+00 -0.20278870186E+04  0.20278870186E+04  0.00000000000E+00 0.  1.
         23    2    1    2    0    0  0.17062643855E+04 -0.23839218869E+03  0.12167815033E+04  0.21110444598E+04  0.88218456458E+02 0.  0.
        254    2    1    2    0    0 -0.17062643855E+04  0.23839218869E+03 -0.97450780183E+03  0.21870032787E+04  0.93013380567E+03 0.  0.
        -24    2    4    4    0    0 -0.10649808387E+04 -0.21414283195E+02 -0.10568808114E+03  0.10734005585E+04  0.79850047882E+02 0.  0.
         24    2    4    4    0    0 -0.64128354677E+03  0.25980647189E+03 -0.86881972069E+03  0.11136027202E+04  0.80742313610E+02 0.  0.
         11    1    3    3    0    0  0.16469740242E+04 -0.23489863878E+03  0.11924503777E+04  0.20468606963E+04  0.00000000000E+00 0. -1.
        -11    1    3    3    0    0  0.59290361228E+02 -0.34935499152E+01  0.24331125564E+02  0.64183763498E+02  0.00000000000E+00 0.  1.
          2    1    6    6  502    0 -0.25525752081E+03  0.14521416773E+03 -0.38149837118E+03  0.48144009353E+03  0.00000000000E+00 0. -1.
          1    1    5    5  503    0 -0.95963455494E+03 -0.17627083354E+01 -0.11142606202E+03  0.96608351268E+03  0.00000000000E+00 0. -1.
         -2    1    5    5    0  503 -0.10534628375E+03 -0.19651574860E+02  0.57379808801E+01  0.10731704580E+03  0.00000000000E+00 0.  1.
         -1    1    6    6    0  502 -0.38602602595E+03  0.11459230416E+03 -0.48732134951E+03  0.63216262668E+03  0.00000000000E+00 0.  1.
<mgrwt>
<rscale>  0 0.42912140E+04</rscale>
<asrwt>0</asrwt>
<pdfrwt beam="1">  1        2 0.34925550E+00 0.42912140E+04</pdfrwt>
<pdfrwt beam="2">  1       -2 0.31198262E+00 0.42912140E+04</pdfrwt>
<totfact> 0.97458927E-02</totfact>
</mgrwt>
</event>
<event>
12    1  0.4612066E-007  0.1514243E+04  0.7818608E-02  0.8875036E-01
          2   -1    0    0  501    0  0.00000000000E+00  0.00000000000E+00  0.11330262149E+04  0.11330262149E+04  0.00000000000E+00 0. -1.
         -2   -1    0    0    0  501 -0.00000000000E+00 -0.00000000000E+00 -0.50593118999E+03  0.50593118999E+03  0.00000000000E+00 0.  1.
         23    2    1    2    0    0  0.43900716744E+03  0.20956242816E+03  0.19968365801E+03  0.53301256366E+03  0.87092625298E+02 0.  0.
        254    2    1    2    0    0 -0.43900716744E+03 -0.20956242816E+03  0.42741136687E+03  0.11059448412E+04  0.89654325656E+03 0.  0.
        -24    2    4    4    0    0  0.65031674239E+01  0.30740624031E+03  0.49005432032E+02  0.32176326720E+03  0.81173764116E+02 0.  0.
         24    2    4    4    0    0 -0.44551033487E+03 -0.51696866848E+03  0.37840593484E+03  0.78418157400E+03  0.77547577767E+02 0.  0.
         11    1    3    3    0    0  0.22239678239E+03  0.12919782044E+03  0.14625766607E+03  0.29587786417E+03  0.00000000000E+00 0. -1.
        -11    1    3    3    0    0  0.21661038505E+03  0.80364607724E+02  0.53425991947E+02  0.23713469949E+03  0.00000000000E+00 0.  1.
          2    1    6    6  502    0 -0.11590402009E+03 -0.14241467106E+03  0.64006004777E+02  0.19445423383E+03  0.00000000000E+00 0. -1.
          1    1    5    5  503    0 -0.12484107425E+02  0.11542919959E+02  0.16195015724E+02  0.23481279217E+02  0.00000000000E+00 0. -1.
         -2    1    5    5    0  503  0.18987274849E+02  0.29586332035E+03  0.32810416309E+02  0.29828198798E+03  0.00000000000E+00 0.  1.
         -1    1    6    6    0  502 -0.32960631478E+03 -0.37455399742E+03  0.31439993006E+03  0.58972734017E+03  0.00000000000E+00 0.  1.
<mgrwt>
<rscale>  0 0.15142434E+04</rscale>
<asrwt>0</asrwt>
<pdfrwt beam="1">  1        2 0.17431172E+00 0.15142434E+04</pdfrwt>
<pdfrwt beam="2">  1       -2 0.77835568E-01 0.15142434E+04</pdfrwt>
<totfact> 0.29505113E+01</totfact>
</mgrwt>
</event>
<event>
12    1  0.4612066E-007  0.1765209E+04  0.7818608E-02  0.8725023E-01
         -1   -1    0    0    0  501 -0.00000000000E+00  0.00000000000E+00  0.91883373522E+03  0.91883373522E+03  0.00000000000E+00 0.  1.
          1   -1    0    0  501    0  0.00000000000E+00 -0.00000000000E+00 -0.84780369088E+03  0.84780369088E+03  0.00000000000E+00 0. -1.
         23    2    1    2    0    0 -0.74215954180E+02  0.44220609544E+02  0.66818844335E+03  0.67888404612E+03  0.83332359161E+02 0.  0.
        254    2    1    2    0    0  0.74215954180E+02 -0.44220609544E+02 -0.59715839901E+03  0.10877533800E+04  0.90506673344E+03 0.  0.
        -24    2    4    4    0    0 -0.40607041781E+02 -0.40495880179E+03 -0.56353269287E+03  0.69941105469E+03  0.77240950953E+02 0.  0.
         24    2    4    4    0    0  0.11482299596E+03  0.36073819224E+03 -0.33625706141E+02  0.38834232529E+03  0.79766595469E+02 0.  0.
         11    1    3    3    0    0 -0.12738253500E+02  0.12077717333E+02  0.44078005034E+03  0.44112944488E+03  0.00000000000E+00 0. -1.
        -11    1    3    3    0    0 -0.61477700680E+02  0.32142892210E+02  0.22740839301E+03  0.23775460124E+03  0.00000000000E+00 0.  1.
          4    1    6    6  502    0  0.69388164020E+02  0.97685602794E+02 -0.60475482946E+01  0.11997402694E+03  0.00000000000E+00 0. -1.
          3    1    5    5  503    0 -0.51893909926E+02 -0.36480928750E+03 -0.47180660789E+03  0.59864870281E+03  0.00000000000E+00 0. -1.
         -4    1    5    5    0  503  0.11286868145E+02 -0.40149514289E+02 -0.91726084977E+02  0.10076235187E+03  0.00000000000E+00 0.  1.
         -3    1    6    6    0  502  0.45434831940E+02  0.26305258945E+03 -0.27578157846E+02  0.26836829835E+03  0.00000000000E+00 0.  1.
<mgrwt>
<rscale>  0 0.17652089E+04</rscale>
<asrwt>0</asrwt>
<pdfrwt beam="1">  1        1 0.13043134E+00 0.17652089E+04</pdfrwt>
<pdfrwt beam="2">  1       -1 0.14135904E+00 0.17652089E+04</pdfrwt>
<totfact> 0.77801555E+00</totfact>
</mgrwt>
</event>
<event>
12    1  0.4612066E-007  0.1269084E+04  0.7818608E-02  0.9054447E-01
         -2   -1    0    0    0  501 -0.00000000000E+00  0.00000000000E+00  0.11834788395E+03  0.11834788395E+03  0.00000000000E+00 0.  1.
          2   -1    0    0  501    0  0.00000000000E+00 -0.00000000000E+00 -0.34022039694E+04  0.34022039694E+04  0.00000000000E+00 0. -1.
         23    2    1    2    0    0  0.23872141145E+03  0.15281106199E+03 -0.11816123810E+04  0.12189490758E+04  0.96384114665E+02 0.  0.
        254    2    1    2    0    0 -0.23872141145E+03 -0.15281106199E+03 -0.21022437045E+04  0.23016027776E+04  0.89308880841E+03 0.  0.
        -24    2    4    4    0    0 -0.67285626810E+02 -0.51360630716E+03 -0.13086782427E+04  0.14096432942E+04  0.78336962885E+02 0.  0.
         24    2    4    4    0    0 -0.17143578464E+03  0.36079524518E+03 -0.79356546181E+03  0.89195948335E+03  0.79259955590E+02 0.  0.
         11    1    3    3    0    0  0.14856663404E+03  0.11168941044E+03 -0.93267721494E+03  0.95101701164E+03  0.00000000000E+00 0. -1.
        -11    1    3    3    0    0  0.90154777405E+02  0.41121651547E+02 -0.24893516603E+03  0.26793206415E+03  0.00000000000E+00 0.  1.
          2    1    6    6  502    0 -0.13816034625E+03  0.34071303124E+03 -0.70097259190E+03  0.79154041308E+03  0.00000000000E+00 0. -1.
          3    1    5    5  503    0 -0.59012359411E+02 -0.41253008404E+03 -0.11269569899E+04  0.12015388408E+04  0.00000000000E+00 0. -1.
         -4    1    5    5    0  503 -0.82732673991E+01 -0.10107622312E+03 -0.18172125277E+03  0.20810445344E+03  0.00000000000E+00 0.  1.
         -1    1    6    6    0  502 -0.33275438389E+02  0.20082213932E+02 -0.92592869907E+02  0.10041907027E+03  0.00000000000E+00 0.  1.
<mgrwt>
<rscale>  0 0.12690841E+04</rscale>
<asrwt>0</asrwt>
<pdfrwt beam="1">  1        2 0.52341595E+00 0.12690841E+04</pdfrwt>
<pdfrwt beam="2">  1       -2 0.18207368E-01 0.12690841E+04</pdfrwt>
<totfact> 0.23981001E+01</totfact>
</mgrwt>
</event>
<event>
12    1  0.4612066E-007  0.2981563E+04  0.7818608E-02  0.8249015E-01
         -2   -1    0    0    0  501 -0.00000000000E+00  0.00000000000E+00  0.56810413819E+03  0.56810413819E+03  0.00000000000E+00 0.  1.
          2   -1    0    0  501    0  0.00000000000E+00 -0.00000000000E+00 -0.39120102559E+04  0.39120102559E+04  0.00000000000E+00 0. -1.
         23    2    1    2    0    0  0.73051774230E+03  0.73347557804E+03 -0.21650519934E+03  0.10616209802E+04  0.92314726933E+02 0.  0.
        254    2    1    2    0    0 -0.73051774230E+03 -0.73347557804E+03 -0.31274009183E+04  0.34184934139E+04  0.91313641989E+03 0.  0.
        -24    2    4    4    0    0  0.18119912744E+03 -0.27934182101E+03 -0.57574854189E+03  0.66989448767E+03  0.80045389436E+02 0.  0.
         24    2    4    4    0    0 -0.91171686974E+03 -0.45413375703E+03 -0.25516523764E+04  0.27485989262E+04  0.80006794112E+02 0.  0.
         13    1    3    3    0    0  0.45386431377E+03  0.46832673458E+03 -0.91538656475E+02  0.65856060562E+03  0.00000000000E+00 0.  1.
        -13    1    3    3    0    0  0.27665342853E+03  0.26514884346E+03 -0.12496654287E+03  0.40306037456E+03  0.00000000000E+00 0. -1.
          2    1    6    6  502    0 -0.82728143452E+03 -0.40174789823E+03 -0.23565799176E+04  0.25296768280E+04  0.00000000000E+00 0. -1.
          3    1    5    5  503    0  0.47722504025E+02 -0.14390531378E+03 -0.23452740387E+03  0.27926560814E+03  0.00000000000E+00 0. -1.
         -4    1    5    5    0  503  0.13347662341E+03 -0.13543650723E+03 -0.34122113802E+03  0.39062887952E+03  0.00000000000E+00 0.  1.
         -1    1    6    6    0  502 -0.84435435221E+02 -0.52385858802E+02 -0.19507245880E+03  0.21892209825E+03  0.00000000000E+00 0.  1.
<mgrwt>
<rscale>  0 0.29815628E+04</rscale>
<asrwt>0</asrwt>
<pdfrwt beam="1">  1        2 0.60184775E+00 0.29815628E+04</pdfrwt>
<pdfrwt beam="2">  1       -2 0.87400634E-01 0.29815628E+04</pdfrwt>
<totfact> 0.38964400E-01</totfact>
</mgrwt>
</event>
<event>
12    1  0.4612066E-007  0.1341506E+04  0.7818608E-02  0.8997283E-01
         -1   -1    0    0    0  501 -0.00000000000E+00  0.00000000000E+00  0.25296458936E+03  0.25296458936E+03  0.00000000000E+00 0.  1.
          1   -1    0    0  501    0  0.00000000000E+00 -0.00000000000E+00 -0.17785485178E+04  0.17785485178E+04  0.00000000000E+00 0. -1.
         23    2    1    2    0    0 -0.23690933561E+03 -0.30235497737E+03 -0.38019719867E+03  0.54813853620E+03  0.91440578255E+02 0.  0.
        254    2    1    2    0    0  0.23690933561E+03  0.30235497737E+03 -0.11453867298E+04  0.14833745710E+04  0.86078150037E+03 0.  0.
        -24    2    4    4    0    0 -0.30937309962E+03  0.32715904819E+02 -0.48606566480E+03  0.58252924761E+03  0.79362765978E+02 0.  0.
         24    2    4    4    0    0  0.54628243524E+03  0.26963907255E+03 -0.65932106497E+03  0.90084532334E+03  0.75420828550E+02 0.  0.
         13    1    3    3    0    0 -0.12758403283E+03 -0.19553453388E+03 -0.17263199637E+03  0.29036743196E+03  0.00000000000E+00 0.  1.
        -13    1    3    3    0    0 -0.10932530278E+03 -0.10682044349E+03 -0.20756520230E+03  0.25777110424E+03  0.00000000000E+00 0. -1.
          2    1    6    6  502    0  0.93282980458E+01  0.17612769704E+02 -0.30249853994E+02  0.36225411905E+02  0.00000000000E+00 0. -1.
          1    1    5    5  503    0 -0.54373934364E+02 -0.23358736433E+02 -0.10645116561E+03  0.12179493408E+03  0.00000000000E+00 0. -1.
         -2    1    5    5    0  503 -0.25499916526E+03  0.56074641252E+02 -0.37961449919E+03  0.46073431353E+03  0.00000000000E+00 0.  1.
         -1    1    6    6    0  502  0.53695413719E+03  0.25202630285E+03 -0.62907121098E+03  0.86461991144E+03  0.00000000000E+00 0.  1.
<mgrwt>
<rscale>  0 0.13415063E+04</rscale>
<asrwt>0</asrwt>
<pdfrwt beam="1">  1        1 0.27362285E+00 0.13415063E+04</pdfrwt>
<pdfrwt beam="2">  1       -1 0.38917629E-01 0.13415063E+04</pdfrwt>
<totfact> 0.26438186E+01</totfact>
</mgrwt>
</event>
<event>
12    1  0.4612066E-007  0.2565613E+04  0.7818608E-02  0.8379976E-01
         -2   -1    0    0    0  501 -0.00000000000E+00  0.00000000000E+00  0.38700195998E+03  0.38700195998E+03  0.00000000000E+00 0.  1.
          2   -1    0    0  501    0  0.00000000000E+00 -0.00000000000E+00 -0.42521557646E+04  0.42521557646E+04  0.00000000000E+00 0. -1.
         23    2    1    2    0    0  0.63720855507E+03 -0.18443425904E+02 -0.33890761073E+04  0.34497482818E+04  0.92474019755E+02 0.  0.
        254    2    1    2    0    0 -0.63720855507E+03  0.18443425904E+02 -0.47607769736E+03  0.11894094428E+04  0.88412100194E+03 0.  0.
        -24    2    4    4    0    0 -0.98991593500E+02  0.19610327429E+02 -0.61446907291E+03  0.62826972417E+03  0.83466785098E+02 0.  0.
         24    2    4    4    0    0 -0.53821696157E+03 -0.11669015254E+01  0.13839137555E+03  0.56113971863E+03  0.77760861715E+02 0.  0.
         11    1    3    3    0    0  0.54848675544E+03  0.16595883406E+02 -0.28966875383E+04  0.29482048502E+04  0.00000000000E+00 0. -1.
        -11    1    3    3    0    0  0.88721799635E+02 -0.35039309310E+02 -0.49238856899E+03  0.50154343162E+03  0.00000000000E+00 0.  1.
          4    1    6    6  502    0 -0.40439116219E+03 -0.99702404096E+01  0.13678541125E+03  0.42701506587E+03  0.00000000000E+00 0. -1.
          3    1    5    5  503    0 -0.11116462847E+03  0.58042763994E+01 -0.49277230621E+03  0.50518888548E+03  0.00000000000E+00 0. -1.
         -4    1    5    5    0  503  0.12173034973E+02  0.13806051030E+02 -0.12169676670E+03  0.12308083869E+03  0.00000000000E+00 0.  1.
         -3    1    6    6    0  502 -0.13382579939E+03  0.88033388842E+01  0.16059642966E+01  0.13412465276E+03  0.00000000000E+00 0.  1.
<mgrwt>
<rscale>  0 0.25656131E+04</rscale>
<asrwt>0</asrwt>
<pdfrwt beam="1">  1        2 0.65417780E+00 0.25656131E+04</pdfrwt>
<pdfrwt beam="2">  1       -2 0.59538764E-01 0.25656131E+04</pdfrwt>
<totfact> 0.49061032E-01</totfact>
</mgrwt>
</event>
<event>
12    1  0.4612066E-007  0.1351949E+04  0.7818608E-02  0.8989354E-01
         -1   -1    0    0    0  501 -0.00000000000E+00  0.00000000000E+00  0.11027572572E+04  0.11027572572E+04  0.00000000000E+00 0.  1.
          1   -1    0    0  501    0  0.00000000000E+00 -0.00000000000E+00 -0.41436246891E+03  0.41436246891E+03  0.00000000000E+00 0. -1.
         23    2    1    2    0    0 -0.34785851516E+03  0.57011569797E+02  0.78243003967E+02  0.37404843598E+03  0.97644247829E+02 0.  0.
        254    2    1    2    0    0  0.34785851516E+03 -0.57011569797E+02  0.61015178437E+03  0.11430712902E+04  0.90003939292E+03 0.  0.
        -24    2    4    4    0    0  0.53801303988E+03 -0.28308581862E+03  0.56458878056E+03  0.83343876766E+03  0.79145919198E+02 0.  0.
         24    2    4    4    0    0 -0.19015452472E+03  0.22607424882E+03  0.45563003806E+02  0.30963252252E+03  0.80796054550E+02 0.  0.
         11    1    3    3    0    0 -0.24879346681E+03  0.24779705531E+02  0.11425978154E+02  0.25028538893E+03  0.00000000000E+00 0. -1.
        -11    1    3    3    0    0 -0.99065048343E+02  0.32231864266E+02  0.66817025813E+02  0.12376304705E+03  0.00000000000E+00 0.  1.
          4    1    6    6  502    0 -0.17460723103E+03  0.22640239327E+03  0.29752462402E+02  0.28745597546E+03  0.00000000000E+00 0. -1.
          3    1    5    5  503    0  0.26331549270E+03 -0.17187698756E+03  0.32642511848E+03  0.45324398013E+03  0.00000000000E+00 0. -1.
         -4    1    5    5    0  503  0.27469754718E+03 -0.11120883106E+03  0.23816366208E+03  0.38019478753E+03  0.00000000000E+00 0.  1.
         -3    1    6    6    0  502 -0.15547293695E+02 -0.32814445029E+00  0.15810541404E+02  0.22176547060E+02  0.00000000000E+00 0.  1.
<mgrwt>
<rscale>  0 0.13519485E+04</rscale>
<asrwt>0</asrwt>
<pdfrwt beam="1">  1        1 0.63748073E-01 0.13519485E+04</pdfrwt>
<pdfrwt beam="2">  1       -1 0.16965496E+00 0.13519485E+04</pdfrwt>
<totfact> 0.13862020E+01</totfact>
</mgrwt>
</event>
<event>
12    1  0.4612066E-007  0.1201919E+04  0.7818608E-02  0.9111179E-01
         -2   -1    0    0    0  501 -0.00000000000E+00  0.00000000000E+00  0.58079019021E+03  0.58079019021E+03  0.00000000000E+00 0.  1.
          2   -1    0    0  501    0  0.00000000000E+00 -0.00000000000E+00 -0.62182883936E+03  0.62182883936E+03  0.00000000000E+00 0. -1.
         23    2    1    2    0    0  0.14905644562E+03  0.33056946698E+02  0.19175539416E+03  0.26136605505E+03  0.90727602410E+02 0.  0.
        254    2    1    2    0    0 -0.14905644562E+03 -0.33056946698E+02 -0.23279404331E+03  0.94125297452E+03  0.89914042826E+03 0.  0.
        -24    2    4    4    0    0  0.18409912927E+02 -0.35584365240E+03  0.16241213180E+03  0.39957859709E+03  0.79509275260E+02 0.  0.
         24    2    4    4    0    0 -0.16746635855E+03  0.32278670570E+03 -0.39520617511E+03  0.54167437743E+03  0.70618493990E+02 0.  0.
         13    1    3    3    0    0  0.58431381640E+02  0.49325140964E+02  0.46834545302E+02  0.89669786021E+02  0.00000000000E+00 0. -1.
        -13    1    3    3    0    0  0.90625063979E+02 -0.16268194266E+02  0.14492084885E+03  0.17169626903E+03  0.00000000000E+00 0.  1.
          4    1    6    6  502    0 -0.17233859615E+03  0.31279492380E+03 -0.39158930058E+03  0.52998437374E+03  0.00000000000E+00 0. -1.
          1    1    5    5  503    0  0.42825369816E+02 -0.11968201330E+03  0.46266772781E+02  0.13527161887E+03  0.00000000000E+00 0. -1.
         -2    1    5    5    0  503 -0.24415456889E+02 -0.23616163910E+03  0.11614535902E+03  0.26430697822E+03  0.00000000000E+00 0.  1.
         -3    1    6    6    0  502  0.48722376078E+01  0.99917818989E+01 -0.36168745314E+01  0.11690003687E+02  0.00000000000E+00 0.  1.
<mgrwt>
<rscale>  0 0.12019186E+04</rscale>
<asrwt>0</asrwt>
<pdfrwt beam="1">  1        2 0.95665975E-01 0.12019186E+04</pdfrwt>
<pdfrwt beam="2">  1       -2 0.89352337E-01 0.12019186E+04</pdfrwt>
<totfact> 0.50364485E+01</totfact>
</mgrwt>
</event>
<event>
12    1  0.4612066E-007  0.2090433E+04  0.7818608E-02  0.8565469E-01
         -1   -1    0    0    0  501 -0.00000000000E+00  0.00000000000E+00  0.46502551591E+03  0.46502551591E+03  0.00000000000E+00 0.  1.
          1   -1    0    0  501    0  0.00000000000E+00 -0.00000000000E+00 -0.23492851235E+04  0.23492851235E+04  0.00000000000E+00 0. -1.
         23    2    1    2    0    0  0.21008305566E+02 -0.35799036713E+03 -0.18077348608E+04  0.18449465758E+04  0.85580889221E+02 0.  0.
        254    2    1    2    0    0 -0.21008305566E+02  0.35799036713E+03 -0.76524746722E+02  0.96936406358E+03  0.89733616836E+03 0.  0.
        -24    2    4    4    0    0 -0.38834018830E+03  0.10741233583E+03 -0.25465362769E+03  0.48337136985E+03  0.80336164689E+02 0.  0.
         24    2    4    4    0    0  0.36733188273E+03  0.25057803129E+03  0.17812888097E+03  0.48599269373E+03  0.82078854080E+02 0.  0.
         13    1    3    3    0    0  0.16446263121E+02 -0.85047804654E+01 -0.11783513704E+03  0.11928088859E+03  0.00000000000E+00 0.  1.
        -13    1    3    3    0    0  0.45620424447E+01 -0.34948558666E+03 -0.16898997238E+04  0.17256656872E+04  0.00000000000E+00 0. -1.
          4    1    6    6  502    0  0.54406956923E+02  0.97001035685E+01  0.73593841515E+01  0.55752753348E+02  0.00000000000E+00 0. -1.
          3    1    5    5  503    0 -0.39128362458E+02 -0.64365435574E+01 -0.46783246041E+02  0.61328051915E+02  0.00000000000E+00 0. -1.
         -4    1    5    5    0  503 -0.34921182584E+03  0.11384887939E+03 -0.20787038165E+03  0.42204331793E+03  0.00000000000E+00 0.  1.
         -3    1    6    6    0  502  0.31292492581E+03  0.24087792772E+03  0.17076949682E+03  0.43023994038E+03  0.00000000000E+00 0.  1.
<mgrwt>
<rscale>  0 0.20904330E+04</rscale>
<asrwt>0</asrwt>
<pdfrwt beam="1">  1        1 0.36142849E+00 0.20904330E+04</pdfrwt>
<pdfrwt beam="2">  1       -1 0.71542385E-01 0.20904330E+04</pdfrwt>
<totfact> 0.31260952E+00</totfact>
</mgrwt>
</event>
<event>
12    1  0.4612066E-007  0.1455084E+04  0.7818608E-02  0.8914883E-01
          1   -1    0    0  501    0  0.00000000000E+00  0.00000000000E+00  0.11830547726E+04  0.11830547726E+04  0.00000000000E+00 0. -1.
         -1   -1    0    0    0  501 -0.00000000000E+00 -0.00000000000E+00 -0.44741586956E+03  0.44741586956E+03  0.00000000000E+00 0.  1.
         23    2    1    2    0    0  0.23288346441E+03  0.29819301632E+03  0.47939090211E+03  0.61781999510E+03  0.93445847095E+02 0.  0.
        254    2    1    2    0    0 -0.23288346441E+03 -0.29819301632E+03  0.25624800097E+03  0.10126506471E+04  0.90368385627E+03 0.  0.
        -24    2    4    4    0    0 -0.39702952713E+03  0.62605954239E+02 -0.15205385303E+03  0.43796147977E+03  0.84486286583E+02 0.  0.
         24    2    4    4    0    0  0.16414606272E+03 -0.36079897056E+03  0.40830185400E+03  0.57468916732E+03  0.80233459311E+02 0.  0.
         11    1    3    3    0    0  0.97326056063E+02  0.64495246700E+02  0.18000979307E+03  0.21455890482E+03  0.00000000000E+00 0. -1.
        -11    1    3    3    0    0  0.13555740835E+03  0.23369776962E+03  0.29938110904E+03  0.40326109028E+03  0.00000000000E+00 0.  1.
          4    1    6    6  502    0  0.12511606844E+02 -0.42106161508E+01  0.22040969307E+01  0.13383857347E+02  0.00000000000E+00 0. -1.
          3    1    5    5  503    0 -0.15876769908E+02  0.10876884060E+02 -0.27667285915E+02  0.33702479723E+02  0.00000000000E+00 0. -1.
         -4    1    5    5    0  503 -0.38115275722E+03  0.51729070178E+02 -0.12438656712E+03  0.40425900005E+03  0.00000000000E+00 0.  1.
         -3    1    6    6    0  502  0.15163445588E+03 -0.35658835441E+03  0.40609775707E+03  0.56130530998E+03  0.00000000000E+00 0.  1.
<mgrwt>
<rscale>  0 0.14550842E+04</rscale>
<asrwt>0</asrwt>
<pdfrwt beam="1">  1        1 0.18200843E+00 0.14550842E+04</pdfrwt>
<pdfrwt beam="2">  1       -1 0.68833211E-01 0.14550842E+04</pdfrwt>
<totfact> 0.22800475E+01</totfact>
</mgrwt>
</event>
<event>
12    1  0.4612066E-007  0.1793416E+04  0.7818608E-02  0.8709809E-01
         -1   -1    0    0    0  501 -0.00000000000E+00  0.00000000000E+00  0.48651663237E+03  0.48651663237E+03  0.00000000000E+00 0.  1.
          1   -1    0    0  501    0  0.00000000000E+00 -0.00000000000E+00 -0.16527393934E+04  0.16527393934E+04  0.00000000000E+00 0. -1.
         23    2    1    2    0    0  0.28436059264E+03 -0.59078653826E+03 -0.57782992157E+03  0.87860831201E+03  0.90418290339E+02 0.  0.
        254    2    1    2    0    0 -0.28436059264E+03  0.59078653826E+03 -0.58839283947E+03  0.12606477138E+04  0.90174100730E+03 0.  0.
        -24    2    4    4    0    0 -0.48121807393E+03  0.18674264743E+03 -0.82947536017E+01  0.52234464742E+03  0.79570576855E+02 0.  0.
         24    2    4    4    0    0  0.19685748129E+03  0.40404389084E+03 -0.58009808587E+03  0.73830306635E+03  0.81075858889E+02 0.  0.
         13    1    3    3    0    0  0.25359569335E+03 -0.51424867779E+03 -0.54083215778E+03  0.78820168814E+03  0.00000000000E+00 0. -1.
        -13    1    3    3    0    0  0.30764899289E+02 -0.76537860469E+02 -0.36997763788E+02  0.90406623866E+02  0.00000000000E+00 0.  1.
          4    1    6    6  502    0  0.34816313390E+02  0.87963771455E+02 -0.74537213942E+02  0.12043918394E+03  0.00000000000E+00 0. -1.
          1    1    5    5  503    0 -0.18774085442E+03  0.10093493361E+03 -0.32528695997E+02  0.21562143981E+03  0.00000000000E+00 0. -1.
         -2    1    5    5    0  503 -0.29347721951E+03  0.85807713820E+02  0.24233942396E+02  0.30672320761E+03  0.00000000000E+00 0.  1.
         -3    1    6    6    0  502  0.16204116790E+03  0.31608011938E+03 -0.50556087192E+03  0.61786388241E+03  0.00000000000E+00 0.  1.
<mgrwt>
<rscale>  0 0.17934160E+04</rscale>
<asrwt>0</asrwt>
<pdfrwt beam="1">  1        1 0.25426760E+00 0.17934160E+04</pdfrwt>
<pdfrwt beam="2">  1       -1 0.74848713E-01 0.17934160E+04</pdfrwt>
<totfact> 0.87026772E+00</totfact>
</mgrwt>
</event>
<event>
12    1  0.4612066E-007  0.1109464E+04  0.7818608E-02  0.9196017E-01
         -2   -1    0    0    0  501 -0.00000000000E+00  0.00000000000E+00  0.23435594810E+03  0.23435594810E+03  0.00000000000E+00 0. -1.
          2   -1    0    0  501    0  0.00000000000E+00 -0.00000000000E+00 -0.13130770786E+04  0.13130770786E+04  0.00000000000E+00 0.  1.
         23    2    1    2    0    0 -0.87202151612E+02  0.13614277619E+03 -0.80037635839E+02  0.20069888152E+03  0.87948548238E+02 0.  0.
        254    2    1    2    0    0  0.87202151612E+02 -0.13614277619E+03 -0.99868349468E+03  0.13467341452E+04  0.88892354259E+03 0.  0.
        -24    2    4    4    0    0  0.12951154186E+03 -0.49080149090E+03 -0.42846168909E+03  0.66915272892E+03  0.80787453617E+02 0.  0.
         24    2    4    4    0    0 -0.42309390249E+02  0.35465871471E+03 -0.57022180559E+03  0.67758141629E+03  0.79942352363E+02 0.  0.
         11    1    3    3    0    0 -0.50807713261E+00  0.42797227590E+02 -0.56932973384E+02  0.71226570113E+02  0.00000000000E+00 0.  1.
        -11    1    3    3    0    0 -0.86694074479E+02  0.93345548597E+02 -0.23104662455E+02  0.12947231140E+03  0.00000000000E+00 0. -1.
          4    1    6    6  502    0  0.13209772686E+02  0.15583322300E+03 -0.20227965570E+03  0.25568643021E+03  0.00000000000E+00 0. -1.
          1    1    5    5  503    0  0.46960965045E+02 -0.32893139004E+03 -0.27973163466E+03  0.43433970463E+03  0.00000000000E+00 0. -1.
         -2    1    5    5    0  503  0.82550576816E+02 -0.16187010086E+03 -0.14873005444E+03  0.23481302429E+03  0.00000000000E+00 0.  1.
         -3    1    6    6    0  502 -0.55519162935E+02  0.19882549171E+03 -0.36794214989E+03  0.42189498607E+03  0.00000000000E+00 0.  1.
<mgrwt>
<rscale>  0 0.11094637E+04</rscale>
<asrwt>0</asrwt>
<pdfrwt beam="1">  1        2 0.20201186E+00 0.11094637E+04</pdfrwt>
<pdfrwt beam="2">  1       -2 0.36054760E-01 0.11094637E+04</pdfrwt>
<totfact> 0.11653227E+02</totfact>
</mgrwt>
</event>
<event>
12    1  0.4612066E-007  0.2439711E+04  0.7818608E-02  0.8424784E-01
         -2   -1    0    0    0  501 -0.00000000000E+00  0.00000000000E+00  0.81616083573E+03  0.81616083573E+03  0.00000000000E+00 0.  1.
          2   -1    0    0  501    0  0.00000000000E+00 -0.00000000000E+00 -0.18232288449E+04  0.18232288449E+04  0.00000000000E+00 0. -1.
         23    2    1    2    0    0  0.41793442913E+03 -0.64085446244E+03  0.34284419225E+03  0.84328371033E+03  0.90673297410E+02 0.  0.
        254    2    1    2    0    0 -0.41793442913E+03  0.64085446244E+03 -0.13499122014E+04  0.17961059703E+04  0.90463809113E+03 0.  0.
        -24    2    4    4    0    0 -0.49406170628E+03 -0.28898872775E+02 -0.49560040524E+03  0.70499393366E+03  0.80402552009E+02 0.  0.
         24    2    4    4    0    0  0.76127277147E+02  0.66975333522E+03 -0.85431179616E+03  0.10911120366E+04  0.79447712615E+02 0.  0.
         13    1    3    3    0    0  0.10223008476E+03 -0.15211800535E+03  0.40981679942E+02  0.18780408908E+03  0.00000000000E+00 0. -1.
        -13    1    3    3    0    0  0.31570434437E+03 -0.48873645709E+03  0.30186251230E+03  0.65547962125E+03  0.00000000000E+00 0.  1.
          2    1    6    6  502    0  0.21674594206E+02  0.35112028401E+02 -0.42533135424E+02  0.59259684284E+02  0.00000000000E+00 0. -1.
          3    1    5    5  503    0 -0.13827599230E+03  0.12522867994E+02 -0.18206768109E+03  0.22896661933E+03  0.00000000000E+00 0. -1.
         -4    1    5    5    0  503 -0.35578571398E+03 -0.41421740769E+02 -0.31353272415E+03  0.47602731434E+03  0.00000000000E+00 0.  1.
         -1    1    6    6    0  502  0.54452682942E+02  0.63464130682E+03 -0.81177866073E+03  0.10318523523E+04  0.00000000000E+00 0.  1.
<mgrwt>
<rscale>  0 0.24397114E+04</rscale>
<asrwt>0</asrwt>
<pdfrwt beam="1">  1        2 0.28049674E+00 0.24397114E+04</pdfrwt>
<pdfrwt beam="2">  1       -2 0.12556321E+00 0.24397114E+04</pdfrwt>
<totfact> 0.35597050E+00</totfact>
</mgrwt>
</event>
<event>
12    1  0.4612066E-007  0.1921805E+04  0.7818608E-02  0.8644078E-01
         -1   -1    0    0    0  501 -0.00000000000E+00  0.00000000000E+00  0.75389969070E+03  0.75389969070E+03  0.00000000000E+00 0.  1.
          1   -1    0    0  501    0  0.00000000000E+00 -0.00000000000E+00 -0.12247431699E+04  0.12247431699E+04  0.00000000000E+00 0. -1.
         23    2    1    2    0    0 -0.44536326710E+03 -0.35011269524E+02  0.43565678161E+03  0.63169606198E+03  0.98330334564E+02 0.  0.
        254    2    1    2    0    0  0.44536326710E+03  0.35011269524E+02 -0.90650026083E+03  0.13469467987E+04  0.89047668517E+03 0.  0.
        -24    2    4    4    0    0 -0.24802985070E+03  0.11342221404E+03 -0.18141607478E+03  0.33758530998E+03  0.81661764916E+02 0.  0.
         24    2    4    4    0    0  0.69339311780E+03 -0.78410944517E+02 -0.72508418606E+03  0.10093614887E+04  0.78238391595E+02 0.  0.
         11    1    3    3    0    0 -0.12535307361E+03  0.19721007634E+02  0.79349476282E+02  0.14966178735E+03  0.00000000000E+00 0. -1.
        -11    1    3    3    0    0 -0.32001019348E+03 -0.54732277159E+02  0.35630730532E+03  0.48203427463E+03  0.00000000000E+00 0.  1.
          4    1    6    6  502    0  0.36627648576E+03 -0.66174850140E+01 -0.40491455905E+03  0.54603851078E+03  0.00000000000E+00 0. -1.
          1    1    5    5  503    0 -0.18392742443E+03  0.63577239258E+02 -0.87325109663E+02  0.21330034596E+03  0.00000000000E+00 0. -1.
         -2    1    5    5    0  503 -0.64102426272E+02  0.49844974783E+02 -0.94090965116E+02  0.12428496402E+03  0.00000000000E+00 0.  1.
         -3    1    6    6    0  502  0.32711663204E+03 -0.71793459503E+02 -0.32016962701E+03  0.46332297789E+03  0.00000000000E+00 0.  1.
<mgrwt>
<rscale>  0 0.19218049E+04</rscale>
<asrwt>0</asrwt>
<pdfrwt beam="1">  1        1 0.18842202E+00 0.19218049E+04</pdfrwt>
<pdfrwt beam="2">  1       -1 0.11598457E+00 0.19218049E+04</pdfrwt>
<totfact> 0.64378337E+00</totfact>
</mgrwt>
</event>
<event>
12    1  0.4612066E-007  0.1190832E+04  0.7818608E-02  0.9120919E-01
         -1   -1    0    0    0  501 -0.00000000000E+00  0.00000000000E+00  0.36335911973E+03  0.36335911973E+03  0.00000000000E+00 0.  1.
          1   -1    0    0  501    0  0.00000000000E+00 -0.00000000000E+00 -0.97567483368E+03  0.97567483368E+03  0.00000000000E+00 0. -1.
         23    2    1    2    0    0 -0.22001134514E+03 -0.85886366945E+02 -0.21527330034E+03  0.33031805711E+03  0.83582085375E+02 0.  0.
        254    2    1    2    0    0  0.22001134514E+03  0.85886366945E+02 -0.39704241360E+03  0.10087158963E+04  0.89670709891E+03 0.  0.
        -24    2    4    4    0    0  0.31528195924E+03  0.33699989061E+03  0.59414088440E+02  0.47212257638E+03  0.79987831121E+02 0.  0.
         24    2    4    4    0    0 -0.95270614108E+02 -0.25111352367E+03 -0.45645650204E+03  0.53659331992E+03  0.86286505557E+02 0.  0.
         13    1    3    3    0    0 -0.38576457374E+02 -0.26866171922E+02 -0.91569395145E+02  0.10293147422E+03  0.00000000000E+00 0. -1.
        -13    1    3    3    0    0 -0.18143488776E+03 -0.59020195023E+02 -0.12370390520E+03  0.22738658289E+03  0.00000000000E+00 0.  1.
          2    1    6    6  502    0 -0.35068700648E+02 -0.19717006030E+03 -0.34496089384E+03  0.39887825802E+03  0.00000000000E+00 0. -1.
          1    1    5    5  503    0  0.10430762147E+02  0.14428143809E+02 -0.13497341596E+02  0.22341673234E+02  0.00000000000E+00 0. -1.
         -2    1    5    5    0  503  0.30485119710E+03  0.32257174680E+03  0.72911430036E+02  0.44978090315E+03  0.00000000000E+00 0.  1.
         -1    1    6    6    0  502 -0.60201913460E+02 -0.53943463369E+02 -0.11149560821E+03  0.13771506190E+03  0.00000000000E+00 0.  1.
<mgrwt>
<rscale>  0 0.11908322E+04</rscale>
<asrwt>0</asrwt>
<pdfrwt beam="1">  1        1 0.15010382E+00 0.11908322E+04</pdfrwt>
<pdfrwt beam="2">  1       -1 0.55901403E-01 0.11908322E+04</pdfrwt>
<totfact> 0.50687759E+01</totfact>
</mgrwt>
</event>
<event>
12    1  0.4612066E-007  0.1741207E+04  0.7818608E-02  0.8738205E-01
         -1   -1    0    0    0  501 -0.00000000000E+00  0.00000000000E+00  0.30474224994E+03  0.30474224994E+03  0.00000000000E+00 0.  1.
          1   -1    0    0  501    0  0.00000000000E+00 -0.00000000000E+00 -0.24871857214E+04  0.24871857214E+04  0.00000000000E+00 0. -1.
         23    2    1    2    0    0 -0.27648856730E+03  0.49878140276E+03 -0.12797624657E+04  0.14041363055E+04  0.92617385312E+02 0.  0.
        254    2    1    2    0    0  0.27648856730E+03 -0.49878140276E+03 -0.90268100578E+03  0.13877916659E+04  0.88651220759E+03 0.  0.
        -24    2    4    4    0    0  0.20555377967E+03 -0.72686053112E+03 -0.48901772617E+03  0.90337723308E+03  0.79834207574E+02 0.  0.
         24    2    4    4    0    0  0.70934787626E+02  0.22807912836E+03 -0.41366327961E+03  0.48441443284E+03  0.80549369669E+02 0.  0.
         11    1    3    3    0    0 -0.31763378806E+02  0.11946448543E+03 -0.33473820431E+03  0.35683377214E+03  0.00000000000E+00 0.  1.
        -11    1    3    3    0    0 -0.24472518849E+03  0.37931691733E+03 -0.94502426141E+03  0.10473025333E+04  0.00000000000E+00 0. -1.
          4    1    6    6  502    0 -0.49218271929E+01  0.71319955196E+02 -0.75088534379E+02  0.10367761758E+03  0.00000000000E+00 0. -1.
          1    1    5    5  503    0  0.18882686177E+03 -0.60492740243E+03 -0.43689093969E+03  0.76971841547E+03  0.00000000000E+00 0. -1.
         -2    1    5    5    0  503  0.16726917900E+02 -0.12193312869E+03 -0.52126786482E+02  0.13365881761E+03  0.00000000000E+00 0.  1.
         -3    1    6    6    0  502  0.75856614818E+02  0.15675917316E+03 -0.33857474524E+03  0.38073681526E+03  0.00000000000E+00 0.  1.
<mgrwt>
<rscale>  0 0.17412071E+04</rscale>
<asrwt>0</asrwt>
<pdfrwt beam="1">  1        1 0.38264396E+00 0.17412071E+04</pdfrwt>
<pdfrwt beam="2">  1       -1 0.46883422E-01 0.17412071E+04</pdfrwt>
<totfact> 0.59540661E+00</totfact>
</mgrwt>
</event>
<event>
12    1  0.4612066E-007  0.1671687E+04  0.7818608E-02  0.8777679E-01
         -1   -1    0    0    0  501 -0.00000000000E+00  0.00000000000E+00  0.55521071126E+03  0.55521071126E+03  0.00000000000E+00 0.  1.
          1   -1    0    0  501    0  0.00000000000E+00 -0.00000000000E+00 -0.12583223940E+04  0.12583223940E+04  0.00000000000E+00 0. -1.
         23    2    1    2    0    0 -0.54732904344E+03 -0.10963744577E+02 -0.23529180512E+03  0.60185757233E+03  0.84740889277E+02 0.  0.
        254    2    1    2    0    0  0.54732904344E+03  0.10963744577E+02 -0.46781987760E+03  0.12116755329E+04  0.97448082264E+03 0.  0.
        -24    2    4    4    0    0  0.35668081683E+03 -0.30795696781E+03 -0.63716912394E+03  0.79619052425E+03  0.76656110580E+02 0.  0.
         24    2    4    4    0    0  0.19064822661E+03  0.31892071238E+03  0.16934924634E+03  0.41548500867E+03  0.76755834272E+02 0.  0.
         11    1    3    3    0    0 -0.46618982109E+03 -0.36984590822E+02 -0.18502685942E+03  0.50292717958E+03  0.00000000000E+00 0.  1.
        -11    1    3    3    0    0 -0.81139222350E+02  0.26020846246E+02 -0.50264945706E+02  0.98930392750E+02  0.00000000000E+00 0. -1.
          2    1    6    6  502    0  0.59738192038E+02  0.12201804514E+03  0.10121466376E+03  0.16941506157E+03  0.00000000000E+00 0. -1.
          3    1    5    5  503    0  0.10948892882E+03 -0.55728992189E+02 -0.19212043207E+03  0.22804343122E+03  0.00000000000E+00 0. -1.
         -4    1    5    5    0  503  0.24719188801E+03 -0.25222797562E+03 -0.44504869186E+03  0.56814709302E+03  0.00000000000E+00 0.  1.
         -1    1    6    6    0  502  0.13091003458E+03  0.19690266724E+03  0.68134582576E+02  0.24606994709E+03  0.00000000000E+00 0.  1.
<mgrwt>
<rscale>  0 0.16716867E+04</rscale>
<asrwt>0</asrwt>
<pdfrwt beam="1">  1        1 0.19358806E+00 0.16716867E+04</pdfrwt>
<pdfrwt beam="2">  1       -1 0.85417033E-01 0.16716867E+04</pdfrwt>
<totfact> 0.12523536E+01</totfact>
</mgrwt>
</event>
<event>
12    1  0.4612066E-007  0.3602672E+04  0.7818608E-02  0.8089880E-01
         -2   -1    0    0    0  501 -0.00000000000E+00  0.00000000000E+00  0.15838126579E+04  0.15838126579E+04  0.00000000000E+00 0.  1.
          2   -1    0    0  501    0  0.00000000000E+00 -0.00000000000E+00 -0.20487341974E+04  0.20487341974E+04  0.00000000000E+00 0. -1.
         23    2    1    2    0    0 -0.13357816885E+04 -0.16218054017E+03 -0.12527525360E+04  0.18408515829E+04  0.93436539515E+02 0.  0.
        254    2    1    2    0    0  0.13357816885E+04  0.16218054017E+03  0.78783099651E+03  0.17916952724E+04  0.88254123019E+03 0.  0.
        -24    2    4    4    0    0  0.99662477933E+03  0.33397709811E+03  0.90241938161E+03  0.13877656293E+04  0.82042969505E+02 0.  0.
         24    2    4    4    0    0  0.33915690920E+03 -0.17179655794E+03 -0.11458838510E+03  0.40392964304E+03  0.74075583986E+02 0.  0.
         11    1    3    3    0    0 -0.39147031393E+03 -0.10336043161E+02 -0.33575634340E+03  0.51583734123E+03  0.00000000000E+00 0.  1.
        -11    1    3    3    0    0 -0.94431137461E+03 -0.15184449701E+03 -0.91699619260E+03  0.13250142417E+04  0.00000000000E+00 0. -1.
          2    1    6    6  502    0  0.16197572086E+03 -0.12290043356E+03 -0.53585269271E+02  0.21026657319E+03  0.00000000000E+00 0. -1.
          1    1    5    5  503    0  0.55268006537E+03  0.22805094380E+03  0.50987604154E+03  0.78577100058E+03  0.00000000000E+00 0. -1.
         -2    1    5    5    0  503  0.44394471396E+03  0.10592615431E+03  0.39254334007E+03  0.60199462876E+03  0.00000000000E+00 0.  1.
         -1    1    6    6    0  502  0.17718118834E+03 -0.48896124380E+02 -0.61003115833E+02  0.19366306984E+03  0.00000000000E+00 0.  1.
<mgrwt>
<rscale>  0 0.36026719E+04</rscale>
<asrwt>0</asrwt>
<pdfrwt beam="1">  1        2 0.31518988E+00 0.36026719E+04</pdfrwt>
<pdfrwt beam="2">  1       -2 0.24366349E+00 0.36026719E+04</pdfrwt>
<totfact> 0.35960540E-01</totfact>
</mgrwt>
</event>
<event>
12    1  0.4612066E-007  0.2239791E+04  0.7818608E-02  0.8502046E-01
          1   -1    0    0  501    0  0.00000000000E+00  0.00000000000E+00  0.42334832343E+03  0.42334832343E+03  0.00000000000E+00 0. -1.
         -1   -1    0    0    0  501 -0.00000000000E+00 -0.00000000000E+00 -0.29624917494E+04  0.29624917494E+04  0.00000000000E+00 0.  1.
         23    2    1    2    0    0 -0.85462850835E+03  0.37878844094E+02 -0.47235991466E+03  0.98105335318E+03  0.86701203518E+02 0.  0.
        254    2    1    2    0    0  0.85462850835E+03 -0.37878844094E+02 -0.20667835113E+04  0.24047867197E+04  0.88293849745E+03 0.  0.
        -24    2    4    4    0    0  0.34074149855E+03 -0.22073511351E+03 -0.20290044659E+03  0.46105610786E+03  0.81088742776E+02 0.  0.
         24    2    4    4    0    0  0.51388700980E+03  0.18285626942E+03 -0.18638830648E+04  0.19437306118E+04  0.80699058968E+02 0.  0.
         13    1    3    3    0    0 -0.17881515291E+03 -0.20670261432E+02 -0.75941968471E+02  0.19536965270E+03  0.00000000000E+00 0.  1.
        -13    1    3    3    0    0 -0.67581335544E+03  0.58549105526E+02 -0.39641794619E+03  0.78568370048E+03  0.00000000000E+00 0. -1.
          4    1    6    6  502    0  0.22596308230E+03  0.11839582006E+03 -0.79973740059E+03  0.83943838051E+03  0.00000000000E+00 0. -1.
          3    1    5    5  503    0  0.34406391169E+03 -0.21840148553E+03 -0.20532153919E+03  0.45632895883E+03  0.00000000000E+00 0. -1.
         -4    1    5    5    0  503 -0.33224131403E+01 -0.23336279766E+01  0.24210926047E+01  0.47271490360E+01  0.00000000000E+00 0.  1.
         -3    1    6    6    0  502  0.28792392750E+03  0.64460449351E+02 -0.10641456642E+04  0.11042922313E+04  0.00000000000E+00 0.  1.
<mgrwt>
<rscale>  0 0.22397910E+04</rscale>
<asrwt>0</asrwt>
<pdfrwt beam="1">  1        1 0.65130513E-01 0.22397910E+04</pdfrwt>
<pdfrwt beam="2">  1       -1 0.45576795E+00 0.22397910E+04</pdfrwt>
<totfact> 0.14909944E-01</totfact>
</mgrwt>
</event>
<event>
12    1  0.4612066E-007  0.1395140E+04  0.7818608E-02  0.8957344E-01
          1   -1    0    0  501    0  0.00000000000E+00  0.00000000000E+00  0.38774751538E+03  0.38774751538E+03  0.00000000000E+00 0. -1.
         -1   -1    0    0    0  501 -0.00000000000E+00 -0.00000000000E+00 -0.12549505942E+04  0.12549505942E+04  0.00000000000E+00 0.  1.
         23    2    1    2    0    0  0.38255514056E+03 -0.92948042207E+02 -0.30849536021E+03  0.50812662324E+03  0.89640971960E+02 0.  0.
        254    2    1    2    0    0 -0.38255514056E+03  0.92948042207E+02 -0.55870771860E+03  0.11345714863E+04  0.90559945266E+03 0.  0.
        -24    2    4    4    0    0 -0.14629114038E+03  0.48799709373E+03 -0.34738832266E+03  0.62165699765E+03  0.78971607306E+02 0.  0.
         24    2    4    4    0    0 -0.23626400018E+03 -0.39504905153E+03 -0.21131939594E+03  0.51291448868E+03  0.80876168980E+02 0.  0.
         11    1    3    3    0    0  0.26247645808E+03 -0.10445201438E+03 -0.20292186275E+03  0.34782380127E+03  0.00000000000E+00 0. -1.
        -11    1    3    3    0    0  0.12007868248E+03  0.11503972176E+02 -0.10557349746E+03  0.16030282196E+03  0.00000000000E+00 0.  1.
          2    1    6    6  502    0 -0.11024034724E+03 -0.15079805937E+03 -0.46722711428E+02  0.19255129351E+03  0.00000000000E+00 0. -1.
          3    1    5    5  503    0 -0.38822481326E+02  0.51841308972E+02 -0.28415102549E+02  0.70725698477E+02  0.00000000000E+00 0. -1.
         -4    1    5    5    0  503 -0.10746865905E+03  0.43615578476E+03 -0.31897322012E+03  0.55093129917E+03  0.00000000000E+00 0.  1.
         -1    1    6    6    0  502 -0.12602365294E+03 -0.24425099215E+03 -0.16459668451E+03  0.32036319517E+03  0.00000000000E+00 0.  1.
<mgrwt>
<rscale>  0 0.13951401E+04</rscale>
<asrwt>0</asrwt>
<pdfrwt beam="1">  1        1 0.59653463E-01 0.13951401E+04</pdfrwt>
<pdfrwt beam="2">  1       -1 0.19306932E+00 0.13951401E+04</pdfrwt>
<totfact> 0.10256461E+01</totfact>
</mgrwt>
</event>
<event>
12    1  0.4612066E-007  0.1197039E+04  0.7818608E-02  0.9115452E-01
          1   -1    0    0  501    0  0.00000000000E+00  0.00000000000E+00  0.10033089508E+04  0.10033089508E+04  0.00000000000E+00 0. -1.
         -1   -1    0    0    0  501 -0.00000000000E+00 -0.00000000000E+00 -0.35704433707E+03  0.35704433707E+03  0.00000000000E+00 0.  1.
         23    2    1    2    0    0 -0.20578459119E+03  0.13959592868E+03  0.15503951161E+03  0.30697403260E+03  0.91441157360E+02 0.  0.
        254    2    1    2    0    0  0.20578459119E+03 -0.13959592868E+03  0.49122510212E+03  0.10533792553E+04  0.89803754554E+03 0.  0.
        -24    2    4    4    0    0  0.47291749794E+03  0.17431321746E+03  0.29952690748E+03  0.59191289298E+03  0.81292354692E+02 0.  0.
         24    2    4    4    0    0 -0.26713290676E+03 -0.31390914613E+03  0.19169819463E+03  0.46146636228E+03  0.79398134700E+02 0.  0.
         11    1    3    3    0    0 -0.21335559857E+02  0.57114641387E+02  0.52170587056E+02  0.80243744484E+02  0.00000000000E+00 0. -1.
        -11    1    3    3    0    0 -0.18444903133E+03  0.82481287292E+02  0.10286892456E+03  0.22673028812E+03  0.00000000000E+00 0.  1.
          4    1    6    6  502    0 -0.53916130675E+02 -0.51957178122E+02  0.38260699680E+01  0.74974237687E+02  0.00000000000E+00 0. -1.
          3    1    5    5  503    0  0.18606663587E+03  0.73052442377E+02  0.16542562617E+03  0.25946693453E+03  0.00000000000E+00 0. -1.
         -4    1    5    5    0  503  0.28685086207E+03  0.10126077508E+03  0.13410128132E+03  0.33244595845E+03  0.00000000000E+00 0.  1.
         -3    1    6    6    0  502 -0.21321677608E+03 -0.26195196801E+03  0.18787212467E+03  0.38649212460E+03  0.00000000000E+00 0.  1.
<mgrwt>
<rscale>  0 0.11970393E+04</rscale>
<asrwt>0</asrwt>
<pdfrwt beam="1">  1        1 0.15435522E+00 0.11970393E+04</pdfrwt>
<pdfrwt beam="2">  1       -1 0.54929898E-01 0.11970393E+04</pdfrwt>
<totfact> 0.49863984E+01</totfact>
</mgrwt>
</event>
<event>
12    1  0.4612066E-007  0.1552823E+04  0.7818608E-02  0.8850067E-01
         -1   -1    0    0    0  501 -0.00000000000E+00  0.00000000000E+00  0.42734679364E+03  0.42734679364E+03  0.00000000000E+00 0.  1.
          1   -1    0    0  501    0  0.00000000000E+00 -0.00000000000E+00 -0.14105986221E+04  0.14105986221E+04  0.00000000000E+00 0. -1.
         23    2    1    2    0    0 -0.26204461545E+03  0.13490405359E+03 -0.79883118753E+03  0.85642461894E+03  0.92007486632E+02 0.  0.
        254    2    1    2    0    0  0.26204461545E+03 -0.13490405359E+03 -0.18442064096E+03  0.98152079682E+03  0.91788104764E+03 0.  0.
        -24    2    4    4    0    0 -0.32414278334E+03  0.62436734274E+02 -0.43592050641E+02  0.34224447757E+03  0.79146230300E+02 0.  0.
         24    2    4    4    0    0  0.58618739879E+03 -0.19734078787E+03 -0.14082859032E+03  0.63927631926E+03  0.79262017741E+02 0.  0.
         13    1    3    3    0    0 -0.40006840069E+01 -0.27452152021E+00 -0.89720318053E+02  0.89809889801E+02  0.00000000000E+00 0.  1.
        -13    1    3    3    0    0 -0.25804393144E+03  0.13517857511E+03 -0.70911086948E+03  0.76661472914E+03  0.00000000000E+00 0. -1.
          4    1    6    6  502    0  0.24798918461E+03 -0.48949437058E+02 -0.78881179483E+02  0.26479600365E+03  0.00000000000E+00 0. -1.
          1    1    5    5  503    0 -0.37224383825E+02  0.34116412886E+02 -0.14113031110E+02  0.52428637465E+02  0.00000000000E+00 0. -1.
         -2    1    5    5    0  503 -0.28691839951E+03  0.28320321388E+02 -0.29479019530E+02  0.28981584010E+03  0.00000000000E+00 0.  1.
         -3    1    6    6    0  502  0.33819821418E+03 -0.14839135081E+03 -0.61947410839E+02  0.37448031561E+03  0.00000000000E+00 0.  1.
<mgrwt>
<rscale>  0 0.15528230E+04</rscale>
<asrwt>0</asrwt>
<pdfrwt beam="1">  1        1 0.21701517E+00 0.15528230E+04</pdfrwt>
<pdfrwt beam="2">  1       -1 0.65745661E-01 0.15528230E+04</pdfrwt>
<totfact> 0.17057704E+01</totfact>
</mgrwt>
</event>
<event>
12    1  0.4612066E-007  0.1464298E+04  0.7818608E-02  0.8908547E-01
         -2   -1    0    0    0  501 -0.00000000000E+00  0.00000000000E+00  0.26139364835E+03  0.26139364835E+03  0.00000000000E+00 0.  1.
          2   -1    0    0  501    0  0.00000000000E+00 -0.00000000000E+00 -0.20507092760E+04  0.20507092760E+04  0.00000000000E+00 0. -1.
         23    2    1    2    0    0  0.44072540588E+03 -0.77491590577E+02 -0.82737563387E+03  0.94512098340E+03  0.91975016968E+02 0.  0.
        254    2    1    2    0    0 -0.44072540588E+03  0.77491590577E+02 -0.96193999380E+03  0.13669819410E+04  0.86201348323E+03 0.  0.
        -24    2    4    4    0    0  0.94042248643E+02 -0.22541466967E+03 -0.59148563225E+03  0.64495882396E+03  0.80379808475E+02 0.  0.
         24    2    4    4    0    0 -0.53476765452E+03  0.30290626025E+03 -0.37045436155E+03  0.72202311701E+03  0.79701321771E+02 0.  0.
         13    1    3    3    0    0  0.17998393180E+03 -0.59022596955E+02 -0.42494496186E+03  0.46524843178E+03  0.00000000000E+00 0. -1.
        -13    1    3    3    0    0  0.26074147408E+03 -0.18468993622E+02 -0.40243067201E+03  0.47987255163E+03  0.00000000000E+00 0.  1.
          4    1    6    6  502    0 -0.98212426996E+02  0.91909623154E+02 -0.70410166408E+02  0.15182440903E+03  0.00000000000E+00 0. -1.
          1    1    5    5  503    0  0.14360665237E+02 -0.10492640433E+03 -0.32527791119E+03  0.34208405186E+03  0.00000000000E+00 0. -1.
         -2    1    5    5    0  503  0.79681583405E+02 -0.12048826534E+03 -0.26620772106E+03  0.30287477210E+03  0.00000000000E+00 0.  1.
         -3    1    6    6    0  502 -0.43655522753E+03  0.21099663709E+03 -0.30004419514E+03  0.57019870798E+03  0.00000000000E+00 0.  1.
<mgrwt>
<rscale>  0 0.14642983E+04</rscale>
<asrwt>0</asrwt>
<pdfrwt beam="1">  1        2 0.31549375E+00 0.14642983E+04</pdfrwt>
<pdfrwt beam="2">  1       -2 0.40214406E-01 0.14642983E+04</pdfrwt>
<totfact> 0.35516784E+01</totfact>
</mgrwt>
</event>
<event>
12    1  0.4612066E-007  0.2144976E+04  0.7818608E-02  0.8541686E-01
          1   -1    0    0  501    0  0.00000000000E+00  0.00000000000E+00  0.19962196496E+04  0.19962196496E+04  0.00000000000E+00 0. -1.
         -1   -1    0    0    0  501 -0.00000000000E+00 -0.00000000000E+00 -0.57620435928E+03  0.57620435928E+03  0.00000000000E+00 0.  1.
         23    2    1    2    0    0  0.13947827516E+03 -0.87409403941E+03  0.76338877412E+03  0.11724661486E+04  0.91759851087E+02 0.  0.
        254    2    1    2    0    0 -0.13947827516E+03  0.87409403941E+03  0.65662651616E+03  0.13999578602E+04  0.86326649979E+03 0.  0.
        -24    2    4    4    0    0 -0.55222963492E+02  0.12032672433E+02  0.50812506655E+03  0.51748526660E+03  0.80034723597E+02 0.  0.
         24    2    4    4    0    0 -0.84255311672E+02  0.86206136697E+03  0.14850144961E+03  0.88247259361E+03  0.80351975513E+02 0.  0.
         13    1    3    3    0    0  0.82245064513E+02 -0.60967336761E+03  0.47665683774E+03  0.77824649487E+03  0.00000000000E+00 0.  1.
        -13    1    3    3    0    0  0.57233210651E+02 -0.26442067179E+03  0.28673193638E+03  0.39421965377E+03  0.00000000000E+00 0. -1.
          4    1    6    6  502    0 -0.15318786110E+02  0.33750536225E+03  0.22452951717E+02  0.33859809479E+03  0.00000000000E+00 0. -1.
          3    1    5    5  503    0 -0.46634704504E+02 -0.24223637608E+02  0.39257046876E+03  0.39607215659E+03  0.00000000000E+00 0. -1.
         -4    1    5    5    0  503 -0.85882589882E+01  0.36256310041E+02  0.11555459780E+03  0.12141311001E+03  0.00000000000E+00 0.  1.
         -3    1    6    6    0  502 -0.68936525562E+02  0.52455600472E+03  0.12604849789E+03  0.54387449882E+03  0.00000000000E+00 0.  1.
<mgrwt>
<rscale>  0 0.21449760E+04</rscale>
<asrwt>0</asrwt>
<pdfrwt beam="1">  1        1 0.30711071E+00 0.21449760E+04</pdfrwt>
<pdfrwt beam="2">  1       -1 0.88646825E-01 0.21449760E+04</pdfrwt>
<totfact> 0.34293625E+00</totfact>
</mgrwt>
</event>
<event>
12    1  0.4612066E-007  0.2118851E+04  0.7818608E-02  0.8552985E-01
          2   -1    0    0  501    0  0.00000000000E+00  0.00000000000E+00  0.14989699065E+04  0.14989699065E+04  0.00000000000E+00 0. -1.
         -2   -1    0    0    0  501 -0.00000000000E+00 -0.00000000000E+00 -0.74876916324E+03  0.74876916324E+03  0.00000000000E+00 0.  1.
         23    2    1    2    0    0 -0.71518060129E+03  0.29721051661E+03 -0.10525236358E+03  0.78792613901E+03  0.99660206943E+02 0.  0.
        254    2    1    2    0    0  0.71518060129E+03 -0.29721051661E+03  0.85545310689E+03  0.14598129308E+04  0.89411206856E+03 0.  0.
        -24    2    4    4    0    0 -0.16322478697E+02  0.95057413982E+02  0.56213024314E+03  0.57598645732E+03  0.80421722817E+02 0.  0.
         24    2    4    4    0    0  0.73150307999E+03 -0.39226793059E+03  0.29332286375E+03  0.88382647346E+03  0.78358454481E+02 0.  0.
         13    1    3    3    0    0 -0.28992377011E+03  0.72375114323E+02 -0.20893109826E+02  0.29955044932E+03  0.00000000000E+00 0. -1.
        -13    1    3    3    0    0 -0.42525683118E+03  0.22483540229E+03 -0.84359253754E+02  0.48837568969E+03  0.00000000000E+00 0.  1.
          4    1    6    6  502    0  0.70264930860E+03 -0.35707558367E+03  0.27949366979E+03  0.83626295791E+03  0.00000000000E+00 0. -1.
          1    1    5    5  503    0  0.27307874063E+02  0.69272178564E+02  0.35769987502E+03  0.36536769876E+03  0.00000000000E+00 0. -1.
         -2    1    5    5    0  503 -0.43630352760E+02  0.25785235418E+02  0.20443036812E+03  0.21061875856E+03  0.00000000000E+00 0.  1.
         -3    1    6    6    0  502  0.28853771387E+02 -0.35192346928E+02  0.13829193954E+02  0.47563515545E+02  0.00000000000E+00 0.  1.
<mgrwt>
<rscale>  0 0.21188510E+04</rscale>
<asrwt>0</asrwt>
<pdfrwt beam="1">  1        2 0.23061075E+00 0.21188510E+04</pdfrwt>
<pdfrwt beam="2">  1       -2 0.11519526E+00 0.21188510E+04</pdfrwt>
<totfact> 0.68688813E+00</totfact>
</mgrwt>
</event>
<event>
12    1  0.4612066E-007  0.1714281E+04  0.7818608E-02  0.8753261E-01
         -2   -1    0    0    0  501 -0.00000000000E+00  0.00000000000E+00  0.17685206916E+04  0.17685206916E+04  0.00000000000E+00 0.  1.
          2   -1    0    0  501    0  0.00000000000E+00 -0.00000000000E+00 -0.41542625732E+03  0.41542625732E+03  0.00000000000E+00 0. -1.
         23    2    1    2    0    0  0.59709151591E+03  0.88117223481E+02  0.33714467767E+03  0.69768010659E+03  0.93851339896E+02 0.  0.
        254    2    1    2    0    0 -0.59709151591E+03 -0.88117223481E+02  0.10159497566E+04  0.14862668424E+04  0.90141682659E+03 0.  0.
        -24    2    4    4    0    0 -0.53048139251E+03  0.85017282219E+02  0.10618944313E+03  0.55447805607E+03  0.86782894390E+02 0.  0.
         24    2    4    4    0    0 -0.66610123406E+02 -0.17313450570E+03  0.90976031352E+03  0.93178878630E+03  0.78447744528E+02 0.  0.
         13    1    3    3    0    0  0.33529201826E+03  0.52826676277E+02  0.13604106280E+03  0.36567549275E+03  0.00000000000E+00 0. -1.
        -13    1    3    3    0    0  0.26179949766E+03  0.35290547204E+02  0.20110361486E+03  0.33200461383E+03  0.00000000000E+00 0.  1.
          2    1    6    6  502    0 -0.14805502323E+02 -0.77717247130E+02  0.22567203949E+03  0.23913812496E+03  0.00000000000E+00 0. -1.
          3    1    5    5  503    0 -0.21193904667E+03 -0.88583437518E+01  0.42368308251E+02  0.21631389993E+03  0.00000000000E+00 0. -1.
         -4    1    5    5    0  503 -0.31854234583E+03  0.93875625971E+02  0.63821134876E+02  0.33816415614E+03  0.00000000000E+00 0.  1.
         -1    1    6    6    0  502 -0.51804621083E+02 -0.95417258570E+02  0.68408827403E+03  0.69265066135E+03  0.00000000000E+00 0.  1.
<mgrwt>
<rscale>  0 0.17142811E+04</rscale>
<asrwt>0</asrwt>
<pdfrwt beam="1">  1        2 0.63911733E-01 0.17142811E+04</pdfrwt>
<pdfrwt beam="2">  1       -2 0.27208010E+00 0.17142811E+04</pdfrwt>
<totfact> 0.34114083E+00</totfact>
</mgrwt>
</event>
<event>
12    1  0.4612066E-007  0.2495506E+04  0.7818608E-02  0.8404588E-01
          2   -1    0    0  501    0  0.00000000000E+00  0.00000000000E+00  0.17316449035E+04  0.17316449035E+04  0.00000000000E+00 0. -1.
         -2   -1    0    0    0  501 -0.00000000000E+00 -0.00000000000E+00 -0.89908004491E+03  0.89908004491E+03  0.00000000000E+00 0.  1.
         23    2    1    2    0    0 -0.10727840953E+04  0.15092518721E+03  0.30490992517E+03  0.11292489890E+04  0.92677341020E+02 0.  0.
        254    2    1    2    0    0  0.10727840953E+04 -0.15092518721E+03  0.52765493339E+03  0.15014759594E+04  0.89574896074E+03 0.  0.
        -24    2    4    4    0    0  0.97982504625E+03  0.21680476803E+03  0.29335227285E+03  0.10485308934E+04  0.79372852926E+02 0.  0.
         24    2    4    4    0    0  0.92959049006E+02 -0.36772995524E+03  0.23430266053E+03  0.45294506594E+03  0.79967438733E+02 0.  0.
         11    1    3    3    0    0 -0.77410621994E+03  0.73104524535E+02  0.24110047514E+03  0.81407257070E+03  0.00000000000E+00 0. -1.
        -11    1    3    3    0    0 -0.29867787532E+03  0.77820662676E+02  0.63809450030E+02  0.31517641831E+03  0.00000000000E+00 0.  1.
          2    1    6    6  502    0  0.24635611216E+02 -0.24198234621E+03  0.16516013382E+03  0.29400720913E+03  0.00000000000E+00 0. -1.
          1    1    5    5  503    0  0.25263713523E+03  0.91734058187E+02  0.81041599697E+02  0.28072833916E+03  0.00000000000E+00 0. -1.
         -2    1    5    5    0  503  0.72718791103E+03  0.12507070984E+03  0.21231067316E+03  0.76780255427E+03  0.00000000000E+00 0.  1.
         -1    1    6    6    0  502  0.68323437790E+02 -0.12574760904E+03  0.69142526710E+02  0.15893785682E+03  0.00000000000E+00 0.  1.
<mgrwt>
<rscale>  0 0.24955059E+04</rscale>
<asrwt>0</asrwt>
<pdfrwt beam="1">  1        2 0.26640691E+00 0.24955059E+04</pdfrwt>
<pdfrwt beam="2">  1       -2 0.13832001E+00 0.24955059E+04</pdfrwt>
<totfact> 0.31142707E+00</totfact>
</mgrwt>
</event>
<event>
12    1  0.4612066E-007  0.2404627E+04  0.7818608E-02  0.8437773E-01
         -1   -1    0    0    0  501 -0.00000000000E+00  0.00000000000E+00  0.48063916986E+03  0.48063916986E+03  0.00000000000E+00 0.  1.
          1   -1    0    0  501    0  0.00000000000E+00 -0.00000000000E+00 -0.30075744007E+04  0.30075744007E+04  0.00000000000E+00 0. -1.
         23    2    1    2    0    0 -0.34027496725E+03  0.41151554317E+03  0.19191032167E+03  0.57438470932E+03  0.89197125130E+02 0.  0.
        254    2    1    2    0    0  0.34027496725E+03 -0.41151554317E+03 -0.27188455525E+04  0.29138288612E+04  0.90174575053E+03 0.  0.
        -24    2    4    4    0    0  0.50056825807E+03 -0.24233968737E+03 -0.78648070878E+03  0.96583670555E+03  0.70650770977E+02 0.  0.
         24    2    4    4    0    0 -0.16029329082E+03 -0.16917585580E+03 -0.19323648437E+04  0.19479921557E+04  0.79530749396E+02 0.  0.
         13    1    3    3    0    0 -0.52366627566E+02  0.11851780185E+03  0.31102386063E+02  0.13325198481E+03  0.00000000000E+00 0. -1.
        -13    1    3    3    0    0 -0.28790833968E+03  0.29299774132E+03  0.16080793561E+03  0.44113272451E+03  0.00000000000E+00 0.  1.
          2    1    6    6  502    0 -0.15399582243E+03 -0.13407216782E+03 -0.17711058509E+04  0.17828365025E+04  0.00000000000E+00 0. -1.
          3    1    5    5  503    0  0.45803785309E+03 -0.19850161977E+03 -0.71078754036E+03  0.86857382843E+03  0.00000000000E+00 0. -1.
         -4    1    5    5    0  503  0.42530404980E+02 -0.43838067597E+02 -0.75693168423E+02  0.97262877113E+02  0.00000000000E+00 0.  1.
         -1    1    6    6    0  502 -0.62974683894E+01 -0.35103687983E+02 -0.16125899285E+03  0.16515565322E+03  0.00000000000E+00 0.  1.
<mgrwt>
<rscale>  0 0.24046273E+04</rscale>
<asrwt>0</asrwt>
<pdfrwt beam="1">  1        1 0.46270375E+00 0.24046273E+04</pdfrwt>
<pdfrwt beam="2">  1       -1 0.73944489E-01 0.24046273E+04</pdfrwt>
<totfact> 0.97386192E-01</totfact>
</mgrwt>
</event>
<event>
12    1  0.4612066E-007  0.3687573E+04  0.7818608E-02  0.8070721E-01
         -2   -1    0    0    0  501 -0.00000000000E+00  0.00000000000E+00  0.14589001390E+04  0.14589001390E+04  0.00000000000E+00 0.  1.
          2   -1    0    0  501    0  0.00000000000E+00 -0.00000000000E+00 -0.23302131869E+04  0.23302131869E+04  0.00000000000E+00 0. -1.
         23    2    1    2    0    0 -0.16065892925E+04 -0.44516404190E+03  0.77299013157E+02  0.16713575405E+04  0.90336659720E+02 0.  0.
        254    2    1    2    0    0  0.16065892925E+04  0.44516404190E+03 -0.94861206104E+03  0.21177557853E+04  0.89762160460E+03 0.  0.
        -24    2    4    4    0    0  0.12668727081E+04  0.34728577075E+03 -0.11091739733E+04  0.17212498985E+04  0.82827803407E+02 0.  0.
         24    2    4    4    0    0  0.33971658439E+03  0.97878271157E+02  0.16056191222E+03  0.39650588684E+03  0.80307390505E+02 0.  0.
         11    1    3    3    0    0 -0.15958192524E+03 -0.53437526421E+02 -0.17924708185E+02  0.16924318378E+03  0.00000000000E+00 0. -1.
        -11    1    3    3    0    0 -0.14470073672E+04 -0.39172651548E+03  0.95223721341E+02  0.15021143568E+04  0.00000000000E+00 0.  1.
          2    1    6    6  502    0  0.27836277480E+03  0.68828720498E+02  0.94847042488E+02  0.30202514569E+03  0.00000000000E+00 0. -1.
          3    1    5    5  503    0  0.39640418048E+03  0.14729139088E+03 -0.37004151688E+03  0.56192682116E+03  0.00000000000E+00 0. -1.
         -4    1    5    5    0  503  0.87046852758E+03  0.19999437986E+03 -0.73913245639E+03  0.11593230773E+04  0.00000000000E+00 0.  1.
         -1    1    6    6    0  502  0.61353809590E+02  0.29049550658E+02  0.65714869734E+02  0.94480741153E+02  0.00000000000E+00 0.  1.
<mgrwt>
<rscale>  0 0.36875728E+04</rscale>
<asrwt>0</asrwt>
<pdfrwt beam="1">  1        2 0.35849433E+00 0.36875728E+04</pdfrwt>
<pdfrwt beam="2">  1       -2 0.22444618E+00 0.36875728E+04</pdfrwt>
<totfact> 0.32670997E-01</totfact>
</mgrwt>
</event>
<event>
12    1  0.4612066E-007  0.1167673E+04  0.7818608E-02  0.9141632E-01
         -2   -1    0    0    0  501 -0.00000000000E+00  0.00000000000E+00  0.47644720368E+03  0.47644720368E+03  0.00000000000E+00 0.  1.
          2   -1    0    0  501    0  0.00000000000E+00 -0.00000000000E+00 -0.71543143285E+03  0.71543143285E+03  0.00000000000E+00 0. -1.
         23    2    1    2    0    0  0.13013610889E+03  0.16395609076E+03  0.22146314274E+02  0.22727563933E+03  0.85713187229E+02 0.  0.
        254    2    1    2    0    0 -0.13013610889E+03 -0.16395609076E+03 -0.26113054345E+03  0.96460299720E+03  0.90468379833E+03 0.  0.
        -24    2    4    4    0    0 -0.46830607679E+03  0.74237711482E+02 -0.24788606137E+02  0.48196397794E+03  0.82782737775E+02 0.  0.
         24    2    4    4    0    0  0.33816996789E+03 -0.23819380224E+03 -0.23634193731E+03  0.48263901926E+03  0.77380210491E+02 0.  0.
         11    1    3    3    0    0  0.19046538199E+02  0.20876018363E+02 -0.27521952879E+02  0.39446630406E+02  0.00000000000E+00 0. -1.
        -11    1    3    3    0    0  0.11108957069E+03  0.14308007239E+03  0.49668267154E+02  0.18782900893E+03  0.00000000000E+00 0.  1.
          4    1    6    6  502    0  0.71407229941E+02 -0.79050087134E+02 -0.33586549856E+02  0.11169585979E+03  0.00000000000E+00 0. -1.
          3    1    5    5  503    0 -0.25270563771E+03  0.81008383408E+02 -0.21350330586E+02  0.26622985206E+03  0.00000000000E+00 0. -1.
         -4    1    5    5    0  503 -0.21560043907E+03 -0.67706719268E+01 -0.34382755513E+01  0.21573412587E+03  0.00000000000E+00 0.  1.
         -3    1    6    6    0  502  0.26676273795E+03 -0.15914371510E+03 -0.20275538746E+03  0.37094315947E+03  0.00000000000E+00 0.  1.
<mgrwt>
<rscale>  0 0.11676734E+04</rscale>
<asrwt>0</asrwt>
<pdfrwt beam="1">  1        2 0.11006637E+00 0.11676734E+04</pdfrwt>
<pdfrwt beam="2">  1       -2 0.73299570E-01 0.11676734E+04</pdfrwt>
<totfact> 0.66233314E+01</totfact>
</mgrwt>
</event>
<event>
12    1  0.4612066E-007  0.1536221E+04  0.7818608E-02  0.8860717E-01
         -1   -1    0    0    0  501 -0.00000000000E+00  0.00000000000E+00  0.54579276635E+03  0.54579276635E+03  0.00000000000E+00 0.  1.
          1   -1    0    0  501    0  0.00000000000E+00 -0.00000000000E+00 -0.10809846278E+04  0.10809846278E+04  0.00000000000E+00 0. -1.
         23    2    1    2    0    0 -0.40724788231E+03 -0.24714975638E+03 -0.25830322723E+01  0.48492676081E+03  0.90628094859E+02 0.  0.
        254    2    1    2    0    0  0.40724788231E+03  0.24714975638E+03 -0.53260882918E+03  0.11418506333E+04  0.89062723078E+03 0.  0.
        -24    2    4    4    0    0  0.48239689661E+03  0.52122604470E+03 -0.36876573471E+03  0.80409796111E+03  0.78752831267E+02 0.  0.
         24    2    4    4    0    0 -0.75149014303E+02 -0.27407628832E+03 -0.16384309447E+03  0.33775267223E+03  0.80418417158E+02 0.  0.
         11    1    3    3    0    0 -0.22184880317E+03 -0.10108666033E+03  0.33763773191E+02  0.24612069549E+03  0.00000000000E+00 0.  1.
        -11    1    3    3    0    0 -0.18539907913E+03 -0.14606309605E+03 -0.36346805463E+02  0.23880606533E+03  0.00000000000E+00 0. -1.
          4    1    6    6  502    0 -0.75455960721E+02 -0.27592440229E+03 -0.16901228488E+03  0.33225446608E+03  0.00000000000E+00 0. -1.
          1    1    5    5  503    0  0.19401175084E+03  0.16598454020E+03 -0.15862811070E+03  0.30058992757E+03  0.00000000000E+00 0. -1.
         -2    1    5    5    0  503  0.28838514577E+03  0.35524150450E+03 -0.21013762401E+03  0.50350803354E+03  0.00000000000E+00 0.  1.
         -3    1    6    6    0  502  0.30694641800E+00  0.18481139666E+01  0.51691904116E+01  0.54982061483E+01  0.00000000000E+00 0.  1.
<mgrwt>
<rscale>  0 0.15362208E+04</rscale>
<asrwt>0</asrwt>
<pdfrwt beam="1">  1        1 0.16630532E+00 0.15362208E+04</pdfrwt>
<pdfrwt beam="2">  1       -1 0.83968119E-01 0.15362208E+04</pdfrwt>
<totfact> 0.17773896E+01</totfact>
</mgrwt>
</event>
<event>
12    1  0.4612066E-007  0.1182597E+04  0.7818608E-02  0.9128227E-01
          2   -1    0    0  501    0  0.00000000000E+00  0.00000000000E+00  0.40232343462E+03  0.40232343462E+03  0.00000000000E+00 0. -1.
         -2   -1    0    0    0  501 -0.00000000000E+00 -0.00000000000E+00 -0.86903744310E+03  0.86903744310E+03  0.00000000000E+00 0.  1.
         23    2    1    2    0    0 -0.47598209115E+02 -0.28469042449E+02 -0.34945571975E+03  0.36608998618E+03  0.93949465278E+02 0.  0.
        254    2    1    2    0    0  0.47598209115E+02  0.28469042449E+02 -0.11725828872E+03  0.90527089154E+03  0.89592957586E+03 0.  0.
        -24    2    4    4    0    0 -0.21948600480E+03  0.35271592531E+03  0.86005087839E+02  0.43174339877E+03  0.80142728810E+02 0.  0.
         24    2    4    4    0    0  0.26708421391E+03 -0.32424688286E+03 -0.20326337656E+03  0.47352749276E+03  0.80263738917E+02 0.  0.
         11    1    3    3    0    0 -0.10098163590E+02  0.33883618050E+02 -0.92343700901E+02  0.98880895911E+02  0.00000000000E+00 0. -1.
        -11    1    3    3    0    0 -0.37500045525E+02 -0.62352660499E+02 -0.25711201885E+03  0.26720909027E+03  0.00000000000E+00 0.  1.
          2    1    6    6  502    0  0.16185096344E+03 -0.16791773717E+03 -0.72777125142E+02  0.24431252684E+03  0.00000000000E+00 0. -1.
          3    1    5    5  503    0 -0.30366587848E+01  0.45809169103E+02  0.21474942227E+02  0.50684064696E+02  0.00000000000E+00 0. -1.
         -4    1    5    5    0  503 -0.21644934601E+03  0.30690675621E+03  0.64530145612E+02  0.38105933408E+03  0.00000000000E+00 0.  1.
         -1    1    6    6    0  502  0.10523325047E+03 -0.15632914569E+03 -0.13048625142E+03  0.22921496593E+03  0.00000000000E+00 0.  1.
<mgrwt>
<rscale>  0 0.11825974E+04</rscale>
<asrwt>0</asrwt>
<pdfrwt beam="1">  1        2 0.61895914E-01 0.11825974E+04</pdfrwt>
<pdfrwt beam="2">  1       -2 0.13369807E+00 0.11825974E+04</pdfrwt>
<totfact> 0.31536043E+01</totfact>
</mgrwt>
</event>
<event>
12    1  0.4612066E-007  0.1111250E+04  0.7818608E-02  0.9194295E-01
          2   -1    0    0  501    0  0.00000000000E+00  0.00000000000E+00  0.92611498235E+03  0.92611498235E+03  0.00000000000E+00 0. -1.
         -2   -1    0    0    0  501 -0.00000000000E+00 -0.00000000000E+00 -0.33334889030E+03  0.33334889030E+03  0.00000000000E+00 0.  1.
         23    2    1    2    0    0 -0.11212670590E+03  0.10800541638E+03  0.11381534087E+02  0.18037241403E+03  0.90372010505E+02 0.  0.
        254    2    1    2    0    0  0.11212670590E+03 -0.10800541638E+03  0.58138455797E+03  0.10790914586E+04  0.89565216668E+03 0.  0.
        -24    2    4    4    0    0 -0.27497530404E+03 -0.30948580843E+03  0.11899803350E+03  0.43843431006E+03  0.81677590587E+02 0.  0.
         24    2    4    4    0    0  0.38710200994E+03  0.20148039205E+03  0.46238652446E+03  0.64065714856E+03  0.78727184073E+02 0.  0.
         13    1    3    3    0    0  0.12842586367E+01  0.64873231793E+01  0.26593899454E+02  0.27403834959E+02  0.00000000000E+00 0. -1.
        -13    1    3    3    0    0 -0.11341096453E+03  0.10151809320E+03 -0.15212365367E+02  0.15296857907E+03  0.00000000000E+00 0.  1.
          4    1    6    6  502    0  0.38425935354E+03  0.18582395718E+03  0.43834725163E+03  0.61182849464E+03  0.00000000000E+00 0. -1.
          3    1    5    5  503    0 -0.25702754498E+03 -0.24996162198E+03  0.11328158808E+03  0.37600091694E+03  0.00000000000E+00 0. -1.
         -4    1    5    5    0  503 -0.17947759064E+02 -0.59524186449E+02  0.57164454219E+01  0.62433393117E+02  0.00000000000E+00 0.  1.
         -3    1    6    6    0  502  0.28426564030E+01  0.15656434873E+02  0.24039272831E+02  0.28828653916E+02  0.00000000000E+00 0.  1.
<mgrwt>
<rscale>  0 0.11112505E+04</rscale>
<asrwt>0</asrwt>
<pdfrwt beam="1">  1        2 0.14247923E+00 0.11112505E+04</pdfrwt>
<pdfrwt beam="2">  1       -2 0.51284445E-01 0.11112505E+04</pdfrwt>
<totfact> 0.10036959E+02</totfact>
</mgrwt>
</event>
<event>
12    1  0.4612066E-007  0.1442710E+04  0.7818608E-02  0.8923470E-01
         -2   -1    0    0    0  501 -0.00000000000E+00  0.00000000000E+00  0.25258918961E+03  0.25258918961E+03  0.00000000000E+00 0.  1.
          2   -1    0    0  501    0  0.00000000000E+00 -0.00000000000E+00 -0.20600770848E+04  0.20600770848E+04  0.00000000000E+00 0. -1.
         23    2    1    2    0    0  0.37651401585E+03  0.13920875081E+03 -0.86724913547E+03  0.96009209320E+03  0.92270710545E+02 0.  0.
        254    2    1    2    0    0 -0.37651401585E+03 -0.13920875081E+03 -0.94023875970E+03  0.13525741812E+04  0.88558800239E+03 0.  0.
        -24    2    4    4    0    0 -0.22102830433E+02  0.35188968601E+03 -0.34834643133E+03  0.50200604689E+03  0.79686565087E+02 0.  0.
         24    2    4    4    0    0 -0.35441118542E+03 -0.49109843682E+03 -0.59189232837E+03  0.85056813431E+03  0.79653372334E+02 0.  0.
         13    1    3    3    0    0  0.34800963686E+03  0.12507242706E+03 -0.84146369033E+03  0.91913816235E+03  0.00000000000E+00 0. -1.
        -13    1    3    3    0    0  0.28504378990E+02  0.14136323743E+02 -0.25785445139E+02  0.40953930844E+02  0.00000000000E+00 0.  1.
          2    1    6    6  502    0 -0.15506167114E+03 -0.20863401163E+03 -0.30941074765E+03  0.40411295875E+03  0.00000000000E+00 0. -1.
          1    1    5    5  503    0  0.14690746749E+02  0.13806898786E+03 -0.93909211498E+02  0.16762399426E+03  0.00000000000E+00 0. -1.
         -2    1    5    5    0  503 -0.36793577182E+02  0.21382069815E+03 -0.25443721984E+03  0.33438205263E+03  0.00000000000E+00 0.  1.
         -1    1    6    6    0  502 -0.19934951428E+03 -0.28246442519E+03 -0.28248158072E+03  0.44645517556E+03  0.00000000000E+00 0.  1.
<mgrwt>
<rscale>  0 0.14427102E+04</rscale>
<asrwt>0</asrwt>
<pdfrwt beam="1">  1        2 0.31693495E+00 0.14427102E+04</pdfrwt>
<pdfrwt beam="2">  1       -2 0.38859874E-01 0.14427102E+04</pdfrwt>
<totfact> 0.37587997E+01</totfact>
</mgrwt>
</event>
<event>
12    1  0.4612066E-007  0.1878800E+04  0.7818608E-02  0.8665482E-01
         -2   -1    0    0    0  501 -0.00000000000E+00  0.00000000000E+00  0.10015540535E+04  0.10015540535E+04  0.00000000000E+00 0.  1.
          2   -1    0    0  501    0  0.00000000000E+00 -0.00000000000E+00 -0.88110274991E+03  0.88110274991E+03  0.00000000000E+00 0. -1.
         23    2    1    2    0    0 -0.11642377640E+03  0.15513415593E+03 -0.63966996394E+03  0.67220196584E+03  0.71110604472E+02 0.  0.
        254    2    1    2    0    0  0.11642377640E+03 -0.15513415593E+03  0.76012126750E+03  0.12104548375E+04  0.92184351728E+03 0.  0.
        -24    2    4    4    0    0  0.13867619232E+03 -0.18066973142E+03  0.96037951911E+03  0.99047930288E+03  0.82751377898E+02 0.  0.
         24    2    4    4    0    0 -0.22252415917E+02  0.25535575488E+02 -0.20025825161E+03  0.21997553465E+03  0.84490430704E+02 0.  0.
         11    1    3    3    0    0 -0.71568721720E+02  0.10198161584E+03 -0.51066271679E+03  0.52564126761E+03  0.00000000000E+00 0. -1.
        -11    1    3    3    0    0 -0.44855054683E+02  0.53152540089E+02 -0.12900724715E+03  0.14656069823E+03  0.00000000000E+00 0.  1.
          2    1    6    6  502    0 -0.15682769254E+02  0.18797226501E+02 -0.20697234381E+03  0.20841505722E+03  0.00000000000E+00 0. -1.
          1    1    5    5  503    0  0.13646124854E+03 -0.12544668177E+03  0.68684881355E+03  0.71142099702E+03  0.00000000000E+00 0. -1.
         -2    1    5    5    0  503  0.22149437784E+01 -0.55223049645E+02  0.27353070555E+03  0.27905830586E+03  0.00000000000E+00 0.  1.
         -1    1    6    6    0  502 -0.65696466634E+01  0.67383489867E+01  0.67140922024E+01  0.11560477432E+02  0.00000000000E+00 0.  1.
<mgrwt>
<rscale>  0 0.18787996E+04</rscale>
<asrwt>0</asrwt>
<pdfrwt beam="1">  1        2 0.13555427E+00 0.18787996E+04</pdfrwt>
<pdfrwt beam="2">  1       -2 0.15408524E+00 0.18787996E+04</pdfrwt>
<totfact> 0.79009908E+00</totfact>
</mgrwt>
</event>
<event>
12    1  0.4612066E-007  0.2239987E+04  0.7818608E-02  0.8501967E-01
         -2   -1    0    0    0  501 -0.00000000000E+00  0.00000000000E+00  0.14241359842E+04  0.14241359842E+04  0.00000000000E+00 0.  1.
          2   -1    0    0  501    0  0.00000000000E+00 -0.00000000000E+00 -0.88080420040E+03  0.88080420040E+03  0.00000000000E+00 0. -1.
         23    2    1    2    0    0 -0.41911540031E+03 -0.72950309499E+03 -0.20445346015E+03  0.87065534898E+03  0.91689884693E+02 0.  0.
        254    2    1    2    0    0  0.41911540031E+03  0.72950309499E+03  0.74778524393E+03  0.14342848356E+04  0.88890816974E+03 0.  0.
        -24    2    4    4    0    0  0.49036083927E+03  0.47230643424E+02  0.48319006424E+03  0.69469613648E+03  0.80284478493E+02 0.  0.
         24    2    4    4    0    0 -0.71245438958E+02  0.68227245156E+03  0.26459517969E+03  0.73958869913E+03  0.80057629422E+02 0.  0.
         11    1    3    3    0    0 -0.23968984422E+03 -0.48071940143E+03 -0.98377395001E+02  0.54609566577E+03  0.00000000000E+00 0.  1.
        -11    1    3    3    0    0 -0.17942555610E+03 -0.24878369356E+03 -0.10607606515E+03  0.32455968320E+03  0.00000000000E+00 0. -1.
          4    1    6    6  502    0  0.16200425826E+02  0.15657289356E+03  0.51154061899E+02  0.16551212295E+03  0.00000000000E+00 0. -1.
          1    1    5    5  503    0  0.43281886754E+03  0.50798734204E+02  0.45666835419E+03  0.63123582694E+03  0.00000000000E+00 0. -1.
         -2    1    5    5    0  503  0.57541971729E+02 -0.35680907797E+01  0.26521710051E+02  0.63460309536E+02  0.00000000000E+00 0.  1.
         -3    1    6    6    0  502 -0.87445864784E+02  0.52569955800E+03  0.21344111779E+03  0.57407657618E+03  0.00000000000E+00 0.  1.
<mgrwt>
<rscale>  0 0.22399866E+04</rscale>
<asrwt>0</asrwt>
<pdfrwt beam="1">  1        2 0.13550834E+00 0.22399866E+04</pdfrwt>
<pdfrwt beam="2">  1       -2 0.21909784E+00 0.22399866E+04</pdfrwt>
<totfact> 0.27561933E+00</totfact>
</mgrwt>
</event>
<event>
12    1  0.4612066E-007  0.1348080E+04  0.7818608E-02  0.8992283E-01
         -2   -1    0    0    0  501 -0.00000000000E+00  0.00000000000E+00  0.80999931131E+03  0.80999931131E+03  0.00000000000E+00 0.  1.
          2   -1    0    0  501    0  0.00000000000E+00 -0.00000000000E+00 -0.56090178831E+03  0.56090178831E+03  0.00000000000E+00 0. -1.
         23    2    1    2    0    0 -0.35314801462E+03  0.74710642294E+02  0.13937750651E+03  0.39829479987E+03  0.94432293115E+02 0.  0.
        254    2    1    2    0    0  0.35314801462E+03 -0.74710642294E+02  0.10972001649E+03  0.97260629974E+03  0.89645375339E+03 0.  0.
        -24    2    4    4    0    0  0.17408153522E+03  0.40085628936E+03  0.11116268653E+03  0.45810937048E+03  0.80727361052E+02 0.  0.
         24    2    4    4    0    0  0.17906647940E+03 -0.47556693166E+03 -0.14426700387E+01  0.51449692926E+03  0.80475452093E+02 0.  0.
         13    1    3    3    0    0 -0.26684636854E+03  0.14040740765E+02  0.91518490868E+02  0.28245311288E+03  0.00000000000E+00 0. -1.
        -13    1    3    3    0    0 -0.86301646084E+02  0.60669901529E+02  0.47859015639E+02  0.11584168700E+03  0.00000000000E+00 0.  1.
          4    1    6    6  502    0  0.79709678943E+02 -0.17543231501E+03  0.36359592822E+02  0.19609219785E+03  0.00000000000E+00 0. -1.
          1    1    5    5  503    0  0.14760315752E+03  0.29394292705E+03  0.11346550157E+03  0.34794188670E+03  0.00000000000E+00 0. -1.
         -2    1    5    5    0  503  0.26478377699E+02  0.10691336231E+03 -0.23028150404E+01  0.11016748378E+03  0.00000000000E+00 0.  1.
         -3    1    6    6    0  502  0.99356800461E+02 -0.30013461665E+03 -0.37802262861E+02  0.31840473141E+03  0.00000000000E+00 0.  1.
<mgrwt>
<rscale>  0 0.13480802E+04</rscale>
<asrwt>0</asrwt>
<pdfrwt beam="1">  1        2 0.86292583E-01 0.13480802E+04</pdfrwt>
<pdfrwt beam="2">  1       -2 0.12461528E+00 0.13480802E+04</pdfrwt>
<totfact> 0.25378527E+01</totfact>
</mgrwt>
</event>
<event>
12    1  0.4612066E-007  0.3161878E+04  0.7818608E-02  0.8198958E-01
         -2   -1    0    0    0  501 -0.00000000000E+00  0.00000000000E+00  0.84441051102E+03  0.84441051102E+03  0.00000000000E+00 0.  1.
          2   -1    0    0  501    0  0.00000000000E+00 -0.00000000000E+00 -0.29598968883E+04  0.29598968883E+04  0.00000000000E+00 0. -1.
         23    2    1    2    0    0  0.86439717423E+03 -0.10369736047E+04 -0.32861635953E+03  0.13923199760E+04  0.89830240986E+02 0.  0.
        254    2    1    2    0    0 -0.86439717423E+03  0.10369736047E+04 -0.17868700178E+04  0.24119874233E+04  0.89570203649E+03 0.  0.
        -24    2    4    4    0    0 -0.49838423100E+03  0.80434018571E+03 -0.17221372976E+04  0.19666065426E+04  0.80214996044E+02 0.  0.
         24    2    4    4    0    0 -0.36601294323E+03  0.23263341899E+03 -0.64732720111E+02  0.44538088066E+03  0.78038590211E+02 0.  0.
         11    1    3    3    0    0  0.74124646633E+03 -0.87230111982E+03 -0.24678859495E+03  0.11710081887E+04  0.00000000000E+00 0.  1.
        -11    1    3    3    0    0  0.12315070790E+03 -0.16467248488E+03 -0.81827764577E+02  0.22131178728E+03  0.00000000000E+00 0. -1.
          2    1    6    6  502    0 -0.19630973219E+03  0.14042606756E+03  0.99646284489E+00  0.24136690814E+03  0.00000000000E+00 0. -1.
          1    1    5    5  503    0 -0.44721080391E+03  0.71268178886E+03 -0.15779879157E+04  0.17882837296E+04  0.00000000000E+00 0. -1.
         -2    1    5    5    0  503 -0.51173427094E+02  0.91658396846E+02 -0.14414938193E+03  0.17832281308E+03  0.00000000000E+00 0.  1.
         -1    1    6    6    0  502 -0.16970321103E+03  0.92207351431E+02 -0.65729182956E+02  0.20401397252E+03  0.00000000000E+00 0.  1.
<mgrwt>
<rscale>  0 0.31618780E+04</rscale>
<asrwt>0</asrwt>
<pdfrwt beam="1">  1        2 0.45536876E+00 0.31618780E+04</pdfrwt>
<pdfrwt beam="2">  1       -2 0.12990931E+00 0.31618780E+04</pdfrwt>
<totfact> 0.67745748E-01</totfact>
</mgrwt>
</event>
<event>
12    1  0.4612066E-007  0.1260048E+04  0.7818608E-02  0.9061861E-01
         -1   -1    0    0    0  501 -0.00000000000E+00  0.00000000000E+00  0.26177674625E+03  0.26177674625E+03  0.00000000000E+00 0.  1.
          1   -1    0    0  501    0  0.00000000000E+00 -0.00000000000E+00 -0.15162938296E+04  0.15162938296E+04  0.00000000000E+00 0. -1.
         23    2    1    2    0    0  0.16004357451E+03  0.40213976157E+02 -0.65915158387E+03  0.68555875278E+03  0.90988369488E+02 0.  0.
        254    2    1    2    0    0 -0.16004357451E+03 -0.40213976157E+02 -0.59536549946E+03  0.10925118230E+04  0.90104988536E+03 0.  0.
        -24    2    4    4    0    0 -0.19834540921E+03  0.20330757456E+03  0.12979258081E+03  0.32249677279E+03  0.80518216592E+02 0.  0.
         24    2    4    4    0    0  0.38301834693E+02 -0.24352155071E+03 -0.72515808027E+03  0.77001505025E+03  0.79367247831E+02 0.  0.
         11    1    3    3    0    0  0.11605368450E+03 -0.77556903233E+01 -0.50515795936E+03  0.51837551285E+03  0.00000000000E+00 0. -1.
        -11    1    3    3    0    0  0.43989890009E+02  0.47969666480E+02 -0.15399362450E+03  0.16718323993E+03  0.00000000000E+00 0.  1.
          2    1    6    6  502    0  0.41015007903E+02 -0.22947682617E+03 -0.71609086530E+03  0.75307899452E+03  0.00000000000E+00 0. -1.
          1    1    5    5  503    0 -0.17005278674E+03  0.18287784600E+03  0.81046839907E+02  0.26254684743E+03  0.00000000000E+00 0. -1.
         -2    1    5    5    0  503 -0.28292622463E+02  0.20429728552E+02  0.48745740900E+02  0.59949925358E+02  0.00000000000E+00 0.  1.
         -1    1    6    6    0  502 -0.27131732090E+01 -0.14044724541E+02 -0.90672149672E+01  0.16936055726E+02  0.00000000000E+00 0.  1.
<mgrwt>
<rscale>  0 0.12600484E+04</rscale>
<asrwt>0</asrwt>
<pdfrwt beam="1">  1        1 0.23327597E+00 0.12600484E+04</pdfrwt>
<pdfrwt beam="2">  1       -1 0.40273346E-01 0.12600484E+04</pdfrwt>
<totfact> 0.37774787E+01</totfact>
</mgrwt>
</event>
<event>
12    1  0.4612066E-007  0.1851985E+04  0.7818608E-02  0.8679133E-01
          2   -1    0    0  501    0  0.00000000000E+00  0.00000000000E+00  0.21311881640E+04  0.21311881640E+04  0.00000000000E+00 0. -1.
         -2   -1    0    0    0  501 -0.00000000000E+00 -0.00000000000E+00 -0.40233988660E+03  0.40233988660E+03  0.00000000000E+00 0.  1.
         23    2    1    2    0    0 -0.21359218529E+03  0.64990297398E+03  0.85570014651E+03  0.11020694591E+04  0.11974495689E+03 0.  0.
        254    2    1    2    0    0  0.21359218529E+03 -0.64990297398E+03  0.87314813087E+03  0.14314585915E+04  0.90481519856E+03 0.  0.
        -24    2    4    4    0    0 -0.19071214097E+03 -0.65287946297E+03  0.71477594144E+03  0.99005316341E+03  0.81718455797E+02 0.  0.
         24    2    4    4    0    0  0.40430432626E+03  0.29764889900E+01  0.15837218943E+03  0.44140542810E+03  0.79285268817E+02 0.  0.
         13    1    3    3    0    0 -0.19908441833E+03  0.43038249926E+03  0.59959276912E+03  0.76444436689E+03  0.00000000000E+00 0.  1.
        -13    1    3    3    0    0 -0.14507766962E+02  0.21952047472E+03  0.25610737739E+03  0.33762509220E+03  0.00000000000E+00 0. -1.
          2    1    6    6  502    0  0.21064555408E+03 -0.36917075219E+02  0.72156458580E+02  0.22570107313E+03  0.00000000000E+00 0. -1.
          1    1    5    5  503    0 -0.16682063441E+03 -0.43658435836E+03  0.49445837822E+03  0.68038526866E+03  0.00000000000E+00 0. -1.
         -4    1    5    5    0  503 -0.23891506553E+02 -0.21629510462E+03  0.22031756323E+03  0.30966789474E+03  0.00000000000E+00 0.  1.
         -1    1    6    6    0  502  0.19365877218E+03  0.39893564209E+02  0.86215730848E+02  0.21570435497E+03  0.00000000000E+00 0.  1.
<mgrwt>
<rscale>  0 0.18519849E+04</rscale>
<asrwt>0</asrwt>
<pdfrwt beam="1">  1        2 0.32787509E+00 0.18519849E+04</pdfrwt>
<pdfrwt beam="2">  1       -2 0.61898445E-01 0.18519849E+04</pdfrwt>
<totfact> 0.12865043E+01</totfact>
</mgrwt>
</event>
<event>
12    1  0.4612066E-007  0.1301607E+04  0.7818608E-02  0.9028292E-01
         -2   -1    0    0    0  501 -0.00000000000E+00  0.00000000000E+00  0.18874541594E+04  0.18874541594E+04  0.00000000000E+00 0.  1.
          2   -1    0    0  501    0  0.00000000000E+00 -0.00000000000E+00 -0.22440011664E+03  0.22440011664E+03  0.00000000000E+00 0. -1.
         23    2    1    2    0    0 -0.44183549408E+02  0.13546882532E+03  0.99058822248E+03  0.10050780397E+04  0.92805445299E+02 0.  0.
        254    2    1    2    0    0  0.44183549408E+02 -0.13546882532E+03  0.67246582030E+03  0.11067762364E+04  0.86743263097E+03 0.  0.
        -24    2    4    4    0    0  0.62886043959E+01  0.29588368391E+03  0.58042669634E+03  0.65704686549E+03  0.85021954042E+02 0.  0.
         24    2    4    4    0    0  0.37894945012E+02 -0.43135250923E+03  0.92039123957E+02  0.44972937089E+03  0.79273530421E+02 0.  0.
         11    1    3    3    0    0 -0.72541961159E+02  0.11021627469E+03  0.78520186182E+03  0.79621098155E+03  0.00000000000E+00 0.  1.
        -11    1    3    3    0    0  0.28358411751E+02  0.25252550623E+02  0.20538636065E+03  0.20886705813E+03  0.00000000000E+00 0. -1.
          2    1    6    6  502    0  0.13977550904E+02 -0.36145889853E+03  0.51243297689E+02  0.36534063943E+03  0.00000000000E+00 0. -1.
          3    1    5    5  503    0 -0.24499832862E+02  0.24052353285E+03  0.49291518712E+03  0.54901474785E+03  0.00000000000E+00 0. -1.
         -4    1    5    5    0  503  0.30788437257E+02  0.55360151069E+02  0.87511509221E+02  0.10803211764E+03  0.00000000000E+00 0.  1.
         -1    1    6    6    0  502  0.23917394108E+02 -0.69893610698E+02  0.40795826268E+02  0.84388731465E+02  0.00000000000E+00 0.  1.
<mgrwt>
<rscale>  0 0.13016066E+04</rscale>
<asrwt>0</asrwt>
<pdfrwt beam="1">  1        2 0.34523096E-01 0.13016066E+04</pdfrwt>
<pdfrwt beam="2">  1       -2 0.29037755E+00 0.13016066E+04</pdfrwt>
<totfact> 0.54491857E+00</totfact>
</mgrwt>
</event>
<event>
12    1  0.4612066E-007  0.1375728E+04  0.7818608E-02  0.8971578E-01
          2   -1    0    0  501    0  0.00000000000E+00  0.00000000000E+00  0.26575020491E+04  0.26575020491E+04  0.00000000000E+00 0. -1.
         -2   -1    0    0    0  501 -0.00000000000E+00 -0.00000000000E+00 -0.17804561281E+03  0.17804561281E+03  0.00000000000E+00 0.  1.
         23    2    1    2    0    0  0.13306334122E+03  0.25984148639E+02 -0.31631326797E+02  0.16309594624E+03  0.84963039547E+02 0.  0.
        254    2    1    2    0    0 -0.13306334122E+03 -0.25984148639E+02  0.25110877631E+04  0.26724517157E+04  0.90446414517E+03 0.  0.
        -24    2    4    4    0    0 -0.22473294071E+03 -0.34703980992E+03  0.20752036257E+04  0.21176020206E+04  0.82623878608E+02 0.  0.
         24    2    4    4    0    0  0.91669599496E+02  0.32105566128E+03  0.43588413742E+03  0.55484969508E+03  0.79894616591E+02 0.  0.
         11    1    3    3    0    0  0.12778429711E+03 -0.55735998933E+01 -0.23015893891E+02  0.12996008224E+03  0.00000000000E+00 0.  1.
        -11    1    3    3    0    0  0.52790441073E+01  0.31557748533E+02 -0.86154329055E+01  0.33135864004E+02  0.00000000000E+00 0. -1.
          2    1    6    6  502    0  0.13137323461E+02  0.13022627605E+03  0.12022039953E+03  0.17772005150E+03  0.00000000000E+00 0. -1.
          3    1    5    5  503    0 -0.40021740738E+01 -0.24129436291E+02  0.23612187804E+03  0.23738531627E+03  0.00000000000E+00 0. -1.
         -4    1    5    5    0  503 -0.22073076664E+03 -0.32291037363E+03  0.18390817476E+04  0.18802167043E+04  0.00000000000E+00 0.  1.
         -1    1    6    6    0  502  0.78532276035E+02  0.19082938523E+03  0.31566373789E+03  0.37712964358E+03  0.00000000000E+00 0.  1.
<mgrwt>
<rscale>  0 0.13757276E+04</rscale>
<asrwt>0</asrwt>
<pdfrwt beam="1">  1        2 0.40884644E+00 0.13757276E+04</pdfrwt>
<pdfrwt beam="2">  1       -2 0.27391635E-01 0.13757276E+04</pdfrwt>
<totfact> 0.33494139E+01</totfact>
</mgrwt>
</event>
<event>
12    1  0.4612066E-007  0.2069547E+04  0.7818608E-02  0.8574778E-01
         -1   -1    0    0    0  501 -0.00000000000E+00  0.00000000000E+00  0.61663392557E+03  0.61663392557E+03  0.00000000000E+00 0.  1.
          1   -1    0    0  501    0  0.00000000000E+00 -0.00000000000E+00 -0.17364543730E+04  0.17364543730E+04  0.00000000000E+00 0. -1.
         23    2    1    2    0    0  0.83033514175E+03 -0.14024655398E+03 -0.45542495060E+03  0.96177908454E+03  0.92095484771E+02 0.  0.
        254    2    1    2    0    0 -0.83033514175E+03  0.14024655398E+03 -0.66439549683E+03  0.13913092140E+04  0.88611196206E+03 0.  0.
        -24    2    4    4    0    0 -0.10443070980E+03 -0.60852180899E+01 -0.63242128982E+03  0.64571699556E+03  0.77787836508E+02 0.  0.
         24    2    4    4    0    0 -0.72590443195E+03  0.14633177207E+03 -0.31974207007E+02  0.74559221847E+03  0.80840426073E+02 0.  0.
         13    1    3    3    0    0  0.50425679546E+03 -0.82672237023E+02 -0.32678832432E+03  0.60654779157E+03  0.00000000000E+00 0. -1.
        -13    1    3    3    0    0  0.32607834628E+03 -0.57574316961E+02 -0.12863662628E+03  0.35523129297E+03  0.00000000000E+00 0.  1.
          2    1    6    6  502    0 -0.41793849109E+03  0.65962511061E+02  0.17583297109E+02  0.42347704488E+03  0.00000000000E+00 0. -1.
          3    1    5    5  503    0 -0.98855887339E+02 -0.18140224679E+02 -0.38381679514E+03  0.39675796960E+03  0.00000000000E+00 0. -1.
         -4    1    5    5    0  503 -0.55748224583E+01  0.12055006589E+02 -0.24860449468E+03  0.24895902596E+03  0.00000000000E+00 0.  1.
         -1    1    6    6    0  502 -0.30796594086E+03  0.80369261013E+02 -0.49557504116E+02  0.32211517359E+03  0.00000000000E+00 0.  1.
<mgrwt>
<rscale>  0 0.20695475E+04</rscale>
<asrwt>0</asrwt>
<pdfrwt beam="1">  1        1 0.26714682E+00 0.20695475E+04</pdfrwt>
<pdfrwt beam="2">  1       -1 0.94866760E-01 0.20695475E+04</pdfrwt>
<totfact> 0.44573774E+00</totfact>
</mgrwt>
</event>
<event>
12    1  0.4612066E-007  0.3024553E+04  0.7818608E-02  0.8236754E-01
         -1   -1    0    0    0  501 -0.00000000000E+00  0.00000000000E+00  0.10030877013E+04  0.10030877013E+04  0.00000000000E+00 0.  1.
          1   -1    0    0  501    0  0.00000000000E+00 -0.00000000000E+00 -0.22799408342E+04  0.22799408342E+04  0.00000000000E+00 0. -1.
         23    2    1    2    0    0  0.53803303816E+03  0.22254734173E+03  0.77201448950E+03  0.97130190050E+03  0.91728624057E+02 0.  0.
        254    2    1    2    0    0 -0.53803303816E+03 -0.22254734173E+03 -0.20488676224E+04  0.23117266350E+04  0.89845124045E+03 0.  0.
        -24    2    4    4    0    0  0.14461648141E+03  0.12357173570E+03 -0.93746158840E+03  0.95997314037E+03  0.80810271289E+02 0.  0.
         24    2    4    4    0    0 -0.68264951957E+03 -0.34611907743E+03 -0.11114060340E+04  0.13517534946E+04  0.78774079165E+02 0.  0.
         11    1    3    3    0    0  0.44130290776E+03  0.20510328580E+03  0.68343294197E+03  0.83898522062E+03  0.00000000000E+00 0.  1.
        -11    1    3    3    0    0  0.96730130401E+02  0.17444055928E+02  0.88581547523E+02  0.13231667989E+03  0.00000000000E+00 0. -1.
          4    1    6    6  502    0 -0.73686767237E+02 -0.39428808048E+02 -0.16926894415E+03  0.18877591484E+03  0.00000000000E+00 0. -1.
          1    1    5    5  503    0  0.34856584785E+02  0.57193512253E+01 -0.31659066106E+03  0.31855508025E+03  0.00000000000E+00 0. -1.
         -2    1    5    5    0  503  0.10975989663E+03  0.11785238448E+03 -0.62087092734E+03  0.64141806012E+03  0.00000000000E+00 0.  1.
         -3    1    6    6    0  502 -0.60896275233E+03 -0.30669026939E+03 -0.94213708985E+03  0.11629775798E+04  0.00000000000E+00 0.  1.
<mgrwt>
<rscale>  0 0.30245533E+04</rscale>
<asrwt>0</asrwt>
<pdfrwt beam="1">  1        1 0.35076013E+00 0.30245533E+04</pdfrwt>
<pdfrwt beam="2">  1       -1 0.15432119E+00 0.30245533E+04</pdfrwt>
<totfact> 0.52682961E-01</totfact>
</mgrwt>
</event>
<event>
12    1  0.4612066E-007  0.2734202E+04  0.7818608E-02  0.8323992E-01
          2   -1    0    0  501    0  0.00000000000E+00  0.00000000000E+00  0.78369529026E+03  0.78369529026E+03  0.00000000000E+00 0. -1.
         -2   -1    0    0    0  501 -0.00000000000E+00 -0.00000000000E+00 -0.23848108544E+04  0.23848108544E+04  0.00000000000E+00 0.  1.
         23    2    1    2    0    0 -0.69179807726E+03 -0.22412732107E+03 -0.18413568930E+04  0.19818886699E+04  0.92031824060E+02 0.  0.
        254    2    1    2    0    0  0.69179807726E+03  0.22412732107E+03  0.24024132886E+03  0.11866174748E+04  0.90638154196E+03 0.  0.
        -24    2    4    4    0    0  0.75688340172E+03  0.32649876830E+03 -0.83898240540E+02  0.83215741926E+03  0.77286002414E+02 0.  0.
         24    2    4    4    0    0 -0.65085324458E+02 -0.10237144722E+03  0.32413956940E+03  0.35446005552E+03  0.76547095569E+02 0.  0.
         13    1    3    3    0    0 -0.37065400423E+03 -0.82183502895E+02 -0.10335712895E+04  0.11010940602E+04  0.00000000000E+00 0.  1.
        -13    1    3    3    0    0 -0.32114407302E+03 -0.14194381818E+03 -0.80778560356E+03  0.88079460970E+03  0.00000000000E+00 0. -1.
          4    1    6    6  502    0 -0.38008494665E+02 -0.71396168054E+02  0.28978466391E+03  0.30086078162E+03  0.00000000000E+00 0. -1.
          3    1    5    5  503    0  0.51236498154E+03  0.25276625366E+03 -0.78651276768E+02  0.57671021895E+03  0.00000000000E+00 0. -1.
         -4    1    5    5    0  503  0.24451842017E+03  0.73732514641E+02 -0.52469637725E+01  0.25544720031E+03  0.00000000000E+00 0.  1.
         -3    1    6    6    0  502 -0.27076829793E+02 -0.30975279169E+02  0.34354905496E+02  0.53599273903E+02  0.00000000000E+00 0.  1.
<mgrwt>
<rscale>  0 0.27342019E+04</rscale>
<asrwt>0</asrwt>
<pdfrwt beam="1">  1        2 0.12056851E+00 0.27342019E+04</pdfrwt>
<pdfrwt beam="2">  1       -2 0.36689398E+00 0.27342019E+04</pdfrwt>
<totfact> 0.37639007E-01</totfact>
</mgrwt>
</event>
<event>
12    1  0.4612066E-007  0.2007897E+04  0.7818608E-02  0.8602938E-01
         -2   -1    0    0    0  501 -0.00000000000E+00  0.00000000000E+00  0.43867205706E+03  0.43867205706E+03  0.00000000000E+00 0. -1.
          2   -1    0    0  501    0  0.00000000000E+00 -0.00000000000E+00 -0.22976439567E+04  0.22976439567E+04  0.00000000000E+00 0.  1.
         23    2    1    2    0    0  0.14522704865E+03 -0.51722664937E+03 -0.15544854068E+04  0.16472230771E+04  0.91130036381E+02 0.  0.
        254    2    1    2    0    0 -0.14522704865E+03  0.51722664937E+03 -0.30448649287E+03  0.10890929366E+04  0.89710484213E+03 0.  0.
        -24    2    4    4    0    0 -0.43687891103E+03  0.16057409396E+02 -0.22564787866E+03  0.49834556240E+03  0.79437466733E+02 0.  0.
         24    2    4    4    0    0  0.29165186238E+03  0.50116923998E+03 -0.78838614211E+02  0.59074737422E+03  0.80842545297E+02 0.  0.
         13    1    3    3    0    0  0.14515705941E+03 -0.46390205692E+03 -0.14592008909E+04  0.15380321616E+04  0.00000000000E+00 0.  1.
        -13    1    3    3    0    0  0.69989237156E-01 -0.53324592451E+02 -0.95284515884E+02  0.10919091549E+03  0.00000000000E+00 0. -1.
          4    1    6    6  502    0  0.49787036478E+02  0.86177096605E+02 -0.45003200324E+02  0.10922696105E+03  0.00000000000E+00 0. -1.
          3    1    5    5  503    0  0.11082393300E+00  0.97007977358E+00  0.42361793497E+01  0.43472465072E+01  0.00000000000E+00 0. -1.
         -4    1    5    5    0  503 -0.43698973496E+03  0.15087329623E+02 -0.22988405801E+03  0.49399831589E+03  0.00000000000E+00 0.  1.
         -3    1    6    6    0  502  0.24186482590E+03  0.41499214337E+03 -0.33835413887E+02  0.48152041317E+03  0.00000000000E+00 0.  1.
<mgrwt>
<rscale>  0 0.20078966E+04</rscale>
<asrwt>0</asrwt>
<pdfrwt beam="1">  1        2 0.35348368E+00 0.20078966E+04</pdfrwt>
<pdfrwt beam="2">  1       -2 0.67488010E-01 0.20078966E+04</pdfrwt>
<totfact> 0.85003742E+00</totfact>
</mgrwt>
</event>
<event>
12    1  0.4612066E-007  0.1260382E+04  0.7818608E-02  0.9061586E-01
          2   -1    0    0  501    0  0.00000000000E+00  0.00000000000E+00  0.13915868910E+04  0.13915868910E+04  0.00000000000E+00 0.  1.
         -2   -1    0    0    0  501 -0.00000000000E+00 -0.00000000000E+00 -0.28538709971E+03  0.28538709971E+03  0.00000000000E+00 0. -1.
         23    2    1    2    0    0 -0.19658000878E+02 -0.28821532213E+03  0.15599207432E+03  0.34060264059E+03  0.90675920816E+02 0.  0.
        254    2    1    2    0    0  0.19658000878E+02  0.28821532213E+03  0.95020771699E+03  0.13363713502E+04  0.89416954275E+03 0.  0.
        -24    2    4    4    0    0 -0.26600002258E+03  0.47748285187E+03  0.75039649716E+03  0.93175279814E+03  0.79514074522E+02 0.  0.
         24    2    4    4    0    0  0.28565802346E+03 -0.18926752975E+03  0.19981121983E+03  0.40461855201E+03  0.79805669470E+02 0.  0.
         13    1    3    3    0    0 -0.12654459677E+02 -0.13192332976E+02  0.36174512108E+02  0.40531078512E+02  0.00000000000E+00 0.  1.
        -13    1    3    3    0    0 -0.70035412013E+01 -0.27502298915E+03  0.11981756221E+03  0.30007156207E+03  0.00000000000E+00 0. -1.
          4    1    6    6  502    0  0.17615856241E+02  0.25518992524E+01  0.27313234863E+02  0.32601278803E+02  0.00000000000E+00 0. -1.
          1    1    5    5  503    0 -0.13527004010E+03  0.19965690038E+03  0.38715495411E+03  0.45612478568E+03  0.00000000000E+00 0. -1.
         -2    1    5    5    0  503 -0.13072998248E+03  0.27782595149E+03  0.36324154305E+03  0.47562801246E+03  0.00000000000E+00 0.  1.
         -3    1    6    6    0  502  0.26804216722E+03 -0.19181942900E+03  0.17249798497E+03  0.37201727321E+03  0.00000000000E+00 0.  1.
<mgrwt>
<rscale>  0 0.12603824E+04</rscale>
<asrwt>0</asrwt>
<pdfrwt beam="1">  1        2 0.21409029E+00 0.12603824E+04</pdfrwt>
<pdfrwt beam="2">  1       -2 0.43905709E-01 0.12603824E+04</pdfrwt>
<totfact> 0.70712398E+01</totfact>
</mgrwt>
</event>
<event>
12    1  0.4612066E-007  0.1775739E+04  0.7818608E-02  0.8719309E-01
          3   -1    0    0  501    0  0.00000000000E+00  0.00000000000E+00  0.83096922348E+03  0.83096922348E+03  0.00000000000E+00 0. -1.
         -3   -1    0    0    0  501 -0.00000000000E+00 -0.00000000000E+00 -0.94866582275E+03  0.94866582275E+03  0.00000000000E+00 0.  1.
         23    2    1    2    0    0  0.57521400521E+03 -0.21024275040E+03 -0.28129644541E+03  0.67924010617E+03  0.84653799323E+02 0.  0.
        254    2    1    2    0    0 -0.57521400521E+03  0.21024275040E+03  0.16359984614E+03  0.11003949401E+04  0.89946147699E+03 0.  0.
        -24    2    4    4    0    0 -0.11333448350E+03  0.13909466177E+03 -0.35028472835E+03  0.40121810666E+03  0.78003513508E+02 0.  0.
         24    2    4    4    0    0 -0.46187952171E+03  0.71148088631E+02  0.51388457448E+03  0.69917683341E+03  0.79850769508E+02 0.  0.
         13    1    3    3    0    0  0.30574760673E+03 -0.68618435154E+02 -0.15613296232E+03  0.35009654466E+03  0.00000000000E+00 0.  1.
        -13    1    3    3    0    0  0.26946639849E+03 -0.14162431524E+03 -0.12516348309E+03  0.32914356150E+03  0.00000000000E+00 0. -1.
          4    1    6    6  502    0 -0.45442912495E+03  0.65524765628E+02  0.48082517928E+03  0.66482492247E+03  0.00000000000E+00 0. -1.
          3    1    5    5  503    0 -0.59363624897E+02  0.12616137411E+03 -0.23452411027E+03  0.27284114531E+03  0.00000000000E+00 0. -1.
         -4    1    5    5    0  503 -0.53970858607E+02  0.12933287659E+02 -0.11576061808E+03  0.12837696135E+03  0.00000000000E+00 0.  1.
         -3    1    6    6    0  502 -0.74503967582E+01  0.56233230023E+01  0.33059395204E+02  0.34351910933E+02  0.00000000000E+00 0.  1.
<mgrwt>
<rscale>  0 0.17757388E+04</rscale>
<asrwt>0</asrwt>
<pdfrwt beam="1">  1        3 0.12784142E+00 0.17757388E+04</pdfrwt>
<pdfrwt beam="2">  1       -3 0.14594859E+00 0.17757388E+04</pdfrwt>
<totfact> 0.41534325E-01</totfact>
</mgrwt>
</event>
<event>
12    1  0.4612066E-007  0.2152413E+04  0.7818608E-02  0.8538500E-01
          4   -1    0    0  501    0  0.00000000000E+00  0.00000000000E+00  0.47365615746E+03  0.47365615746E+03  0.00000000000E+00 0.  1.
         -4   -1    0    0    0  501 -0.00000000000E+00 -0.00000000000E+00 -0.24452767352E+04  0.24452767352E+04  0.00000000000E+00 0. -1.
         23    2    1    2    0    0  0.39245558906E+03  0.68754583199E+03 -0.12638327193E+04  0.14942418242E+04  0.93513775176E+02 0.  0.
        254    2    1    2    0    0 -0.39245558906E+03 -0.68754583199E+03 -0.70778785843E+03  0.14246910685E+04  0.94975803642E+03 0.  0.
        -24    2    4    4    0    0 -0.18124189225E+03  0.22297793688E+03 -0.15766383743E+03  0.33726242617E+03  0.79500154904E+02 0.  0.
         24    2    4    4    0    0 -0.21121369681E+03 -0.91052376887E+03 -0.55012402100E+03  0.10874286424E+04  0.78739153830E+02 0.  0.
         11    1    3    3    0    0  0.13378765654E+03  0.32666116839E+03 -0.57486373903E+03  0.67459245062E+03  0.00000000000E+00 0. -1.
        -11    1    3    3    0    0  0.25866793252E+03  0.36088466360E+03 -0.68896898030E+03  0.81964937354E+03  0.00000000000E+00 0.  1.
          4    1    6    6  502    0 -0.17759564146E+01 -0.58433745477E+02 -0.53159419904E+02  0.79016330947E+02  0.00000000000E+00 0. -1.
          3    1    5    5  503    0 -0.10111504977E+03  0.74365055371E+02 -0.41015419820E+02  0.13204801934E+03  0.00000000000E+00 0. -1.
         -4    1    5    5    0  503 -0.80126842479E+02  0.14861288151E+03 -0.11664841761E+03  0.20521440682E+03  0.00000000000E+00 0.  1.
         -3    1    6    6    0  502 -0.20943774040E+03 -0.85209002339E+03 -0.49696460109E+03  0.10084123114E+04  0.00000000000E+00 0.  1.
<mgrwt>
<rscale>  0 0.21524130E+04</rscale>
<asrwt>0</asrwt>
<pdfrwt beam="1">  1        4 0.72870178E-01 0.21524130E+04</pdfrwt>
<pdfrwt beam="2">  1       -4 0.37619642E+00 0.21524130E+04</pdfrwt>
<totfact> 0.31287735E-02</totfact>
</mgrwt>
</event>
<event>
12    1  0.4612066E-007  0.1210351E+04  0.7818608E-02  0.9103844E-01
          2   -1    0    0  501    0  0.00000000000E+00  0.00000000000E+00  0.41298198838E+04  0.41298198838E+04  0.00000000000E+00 0. -1.
         -2   -1    0    0    0  501 -0.00000000000E+00 -0.00000000000E+00 -0.88681205595E+02  0.88681205595E+02  0.00000000000E+00 0.  1.
         23    2    1    2    0    0 -0.23850687639E+03  0.99271485240E+02  0.82462858386E+03  0.86869988386E+03  0.88807820820E+02 0.  0.
        254    2    1    2    0    0  0.23850687639E+03 -0.99271485240E+02  0.32165100944E+04  0.33498012056E+04  0.89916103770E+03 0.  0.
        -24    2    4    4    0    0  0.24286475206E+02 -0.91846495979E+02  0.30809459989E+04  0.30834170694E+04  0.78784285854E+02 0.  0.
         24    2    4    4    0    0  0.21422040118E+03 -0.74249892612E+01  0.13556409548E+03  0.26638413622E+03  0.81470076098E+02 0.  0.
         11    1    3    3    0    0 -0.96637154342E+02  0.25437274172E+02  0.45685811096E+03  0.46765920077E+03  0.00000000000E+00 0. -1.
        -11    1    3    3    0    0 -0.14186972205E+03  0.73834211068E+02  0.36777047290E+03  0.40104068309E+03  0.00000000000E+00 0.  1.
          2    1    6    6  502    0  0.14804670493E+03  0.31113724432E+02  0.10386643667E+03  0.18350511534E+03  0.00000000000E+00 0. -1.
          1    1    5    5  503    0  0.25587268509E+02 -0.36098220287E+02  0.23234673814E+04  0.23238886510E+04  0.00000000000E+00 0. -1.
         -2    1    5    5    0  503 -0.13007933030E+01 -0.55748275692E+02  0.75747861751E+03  0.75952841835E+03  0.00000000000E+00 0.  1.
         -3    1    6    6    0  502  0.66173696253E+02 -0.38538713693E+02  0.31697658812E+02  0.82879020886E+02  0.00000000000E+00 0.  1.
<mgrwt>
<rscale>  0 0.12103510E+04</rscale>
<asrwt>0</asrwt>
<pdfrwt beam="1">  1        2 0.63535676E+00 0.12103510E+04</pdfrwt>
<pdfrwt beam="2">  1       -2 0.13643266E-01 0.12103510E+04</pdfrwt>
<totfact> 0.11334711E+01</totfact>
</mgrwt>
</event>
<event>
12    1  0.4612066E-007  0.1649298E+04  0.7818608E-02  0.8790822E-01
          2   -1    0    0  501    0  0.00000000000E+00  0.00000000000E+00  0.20406413444E+04  0.20406413444E+04  0.00000000000E+00 0. -1.
         -2   -1    0    0    0  501 -0.00000000000E+00 -0.00000000000E+00 -0.33325116463E+03  0.33325116463E+03  0.00000000000E+00 0.  1.
         23    2    1    2    0    0  0.45886864377E+03  0.30561005090E+03  0.43693229667E+03  0.70944659514E+03  0.91905952132E+02 0.  0.
        254    2    1    2    0    0 -0.45886864377E+03 -0.30561005090E+03  0.12704578831E+04  0.16644459139E+04  0.92323292407E+03 0.  0.
        -24    2    4    4    0    0 -0.49399735350E+03  0.20655826553E+03  0.78313149133E+03  0.95194341611E+03  0.78750444028E+02 0.  0.
         24    2    4    4    0    0  0.35128709727E+02 -0.51216831643E+03  0.48732639176E+03  0.71250249777E+03  0.81378047582E+02 0.  0.
         13    1    3    3    0    0  0.27776912940E+03  0.22881079339E+03  0.25092284282E+03  0.43871669842E+03  0.00000000000E+00 0.  1.
        -13    1    3    3    0    0  0.18109951437E+03  0.76799257508E+02  0.18600945385E+03  0.27072989673E+03  0.00000000000E+00 0. -1.
          2    1    6    6  502    0  0.11126199892E+02 -0.47466258358E+02  0.19040616885E+02  0.52339116327E+02  0.00000000000E+00 0. -1.
          3    1    5    5  503    0 -0.24861383785E+03  0.93300975681E+02  0.32112499026E+03  0.41669553849E+03  0.00000000000E+00 0. -1.
         -4    1    5    5    0  503 -0.24538351565E+03  0.11325728985E+03  0.46200650107E+03  0.53524787761E+03  0.00000000000E+00 0.  1.
         -1    1    6    6    0  502  0.24002509835E+02 -0.46470205807E+03  0.46828577487E+03  0.66016338144E+03  0.00000000000E+00 0.  1.
<mgrwt>
<rscale>  0 0.16492982E+04</rscale>
<asrwt>0</asrwt>
<pdfrwt beam="1">  1        2 0.31394481E+00 0.16492982E+04</pdfrwt>
<pdfrwt beam="2">  1       -2 0.51269411E-01 0.16492982E+04</pdfrwt>
<totfact> 0.21784233E+01</totfact>
</mgrwt>
</event>
<event>
12    1  0.4612066E-007  0.2028129E+04  0.7818608E-02  0.8593581E-01
          2   -1    0    0  501    0  0.00000000000E+00  0.00000000000E+00  0.79645783886E+03  0.79645783886E+03  0.00000000000E+00 0. -1.
         -2   -1    0    0    0  501 -0.00000000000E+00 -0.00000000000E+00 -0.12911256248E+04  0.12911256248E+04  0.00000000000E+00 0.  1.
         23    2    1    2    0    0 -0.44983876505E+02  0.20312033100E+03  0.60836211617E+03  0.64945060156E+03  0.91652613000E+02 0.  0.
        254    2    1    2    0    0  0.44983876505E+02 -0.20312033100E+03 -0.11030299021E+04  0.14381328621E+04  0.89903823394E+03 0.  0.
        -24    2    4    4    0    0  0.42821249250E+03 -0.28447666979E+03 -0.66944994395E+03  0.84791478278E+03  0.80643270062E+02 0.  0.
         24    2    4    4    0    0 -0.38322861600E+03  0.81356338784E+02 -0.43357995817E+03  0.59021807933E+03  0.82962491887E+02 0.  0.
         13    1    3    3    0    0 -0.49909783002E+02  0.53699157492E+02  0.14354544733E+03  0.16118275778E+03  0.00000000000E+00 0.  1.
        -13    1    3    3    0    0  0.49259064965E+01  0.14942117351E+03  0.46481666883E+03  0.48826784379E+03  0.00000000000E+00 0. -1.
          2    1    6    6  502    0 -0.36106772403E+03  0.57002733762E+02 -0.37959280868E+03  0.52698189095E+03  0.00000000000E+00 0. -1.
          1    1    5    5  503    0  0.38317817762E+03 -0.22644020922E+03 -0.54801366858E+03  0.70598843129E+03  0.00000000000E+00 0. -1.
         -2    1    5    5    0  503  0.45034314883E+02 -0.58036460572E+02 -0.12143627536E+03  0.14192635149E+03  0.00000000000E+00 0.  1.
         -1    1    6    6    0  502 -0.22160891973E+02  0.24353605022E+02 -0.53987149482E+02  0.63236188372E+02  0.00000000000E+00 0.  1.
<mgrwt>
<rscale>  0 0.20281293E+04</rscale>
<asrwt>0</asrwt>
<pdfrwt beam="1">  1        2 0.12253198E+00 0.20281293E+04</pdfrwt>
<pdfrwt beam="2">  1       -2 0.19863471E+00 0.20281293E+04</pdfrwt>
<totfact> 0.43589072E+00</totfact>
</mgrwt>
</event>
<event>
12    1  0.4612066E-007  0.1367193E+04  0.7818608E-02  0.8977914E-01
          1   -1    0    0  501    0  0.00000000000E+00  0.00000000000E+00  0.12204964811E+04  0.12204964811E+04  0.00000000000E+00 0. -1.
         -1   -1    0    0    0  501 -0.00000000000E+00 -0.00000000000E+00 -0.38288037057E+03  0.38288037057E+03  0.00000000000E+00 0.  1.
         23    2    1    2    0    0  0.10137658172E+03 -0.35509508709E+03  0.11241544124E+03  0.39691394176E+03  0.92378100965E+02 0.  0.
        254    2    1    2    0    0 -0.10137658172E+03  0.35509508709E+03  0.72520066930E+03  0.12064629099E+04  0.89065538232E+03 0.  0.
        -24    2    4    4    0    0  0.29838183251E+03  0.44447688820E+03  0.48062404495E+03  0.72384614692E+03  0.79764338640E+02 0.  0.
         24    2    4    4    0    0 -0.39975841422E+03 -0.89381801106E+02  0.24457662435E+03  0.48261676300E+03  0.72837618270E+02 0.  0.
         13    1    3    3    0    0  0.22496586951E+02 -0.16275122439E+03  0.85487271833E+01  0.16452093545E+03  0.00000000000E+00 0.  1.
        -13    1    3    3    0    0  0.78879994767E+02 -0.19234386270E+03  0.10386671405E+03  0.23239300631E+03  0.00000000000E+00 0. -1.
          4    1    6    6  502    0 -0.43502593054E+01  0.77527665056E+01  0.52932039606E+01  0.10346407719E+02  0.00000000000E+00 0. -1.
          1    1    5    5  503    0  0.23982577141E+02  0.25611883088E+02  0.95875539013E+01  0.36373805842E+02  0.00000000000E+00 0. -1.
         -2    1    5    5    0  503  0.27439925536E+03  0.41886500511E+03  0.47103649105E+03  0.68747234108E+03  0.00000000000E+00 0.  1.
         -3    1    6    6    0  502 -0.39540815492E+03 -0.97134567612E+02  0.23928342039E+03  0.47227035528E+03  0.00000000000E+00 0.  1.
<mgrwt>
<rscale>  0 0.13671930E+04</rscale>
<asrwt>0</asrwt>
<pdfrwt beam="1">  1        1 0.18776869E+00 0.13671930E+04</pdfrwt>
<pdfrwt beam="2">  1       -1 0.58904673E-01 0.13671930E+04</pdfrwt>
<totfact> 0.29477038E+01</totfact>
</mgrwt>
</event>
<event>
12    1  0.4612066E-007  0.1343491E+04  0.7818608E-02  0.8995770E-01
          2   -1    0    0  501    0  0.00000000000E+00  0.00000000000E+00  0.34331856789E+04  0.34331856789E+04  0.00000000000E+00 0. -1.
         -2   -1    0    0    0  501 -0.00000000000E+00 -0.00000000000E+00 -0.13143537229E+03  0.13143537229E+03  0.00000000000E+00 0.  1.
         23    2    1    2    0    0 -0.71423283043E+02 -0.12300739247E+03  0.47972759083E+02  0.17618837334E+03  0.92243445960E+02 0.  0.
        254    2    1    2    0    0  0.71423283043E+02  0.12300739247E+03  0.32537775475E+04  0.33884326778E+04  0.93497357159E+03 0.  0.
        -24    2    4    4    0    0  0.39796340013E+03 -0.21868886571E+03  0.17909932727E+04  0.18494067010E+04  0.80302894956E+02 0.  0.
         24    2    4    4    0    0 -0.32654011709E+03  0.34169625818E+03  0.14627842748E+04  0.15390259768E+04  0.74015821763E+02 0.  0.
         11    1    3    3    0    0 -0.22911314941E+02  0.11540064743E+02  0.10978928383E+01  0.25676970524E+02  0.00000000000E+00 0. -1.
        -11    1    3    3    0    0 -0.48511968102E+02 -0.13454745721E+03  0.46874866245E+02  0.15051140281E+03  0.00000000000E+00 0.  1.
          2    1    6    6  502    0 -0.19573969570E+03  0.15129951597E+03  0.75850880795E+03  0.79783531117E+03  0.00000000000E+00 0. -1.
          1    1    5    5  503    0  0.13019230857E+03 -0.31926341124E+02  0.56589440825E+03  0.58155464898E+03  0.00000000000E+00 0. -1.
         -2    1    5    5    0  503  0.26777109156E+03 -0.18676252459E+03  0.12250988645E+04  0.12678520520E+04  0.00000000000E+00 0.  1.
         -1    1    6    6    0  502 -0.13080042139E+03  0.19039674221E+03  0.70427546680E+03  0.74119066563E+03  0.00000000000E+00 0.  1.
<mgrwt>
<rscale>  0 0.13434910E+04</rscale>
<asrwt>0</asrwt>
<pdfrwt beam="1">  1        2 0.52818234E+00 0.13434910E+04</pdfrwt>
<pdfrwt beam="2">  1       -2 0.20220829E-01 0.13434910E+04</pdfrwt>
<totfact> 0.18869679E+01</totfact>
</mgrwt>
</event>
<event>
12    1  0.4612066E-007  0.1371101E+04  0.7818608E-02  0.8975007E-01
         -2   -1    0    0    0  501 -0.00000000000E+00  0.00000000000E+00  0.19839658728E+03  0.19839658728E+03  0.00000000000E+00 0.  1.
          2   -1    0    0  501    0  0.00000000000E+00 -0.00000000000E+00 -0.23688901298E+04  0.23688901298E+04  0.00000000000E+00 0. -1.
         23    2    1    2    0    0  0.27931979237E+03 -0.12730169260E+02 -0.13184665606E+03  0.32191499829E+03  0.89800455431E+02 0.  0.
        254    2    1    2    0    0 -0.27931979237E+03  0.12730169260E+02 -0.20386468865E+04  0.22453717188E+04  0.89857188037E+03 0.  0.
        -24    2    4    4    0    0 -0.61440735948E+02 -0.42974203689E+03 -0.94168927093E+03  0.10399665458E+04  0.79363411401E+02 0.  0.
         24    2    4    4    0    0 -0.21787905642E+03  0.44247220615E+03 -0.10969576155E+04  0.12054051730E+04  0.80204017090E+02 0.  0.
         13    1    3    3    0    0  0.21891018165E+01  0.86670612517E+01 -0.20724191979E+02  0.22569941309E+02  0.00000000000E+00 0. -1.
        -13    1    3    3    0    0  0.27713069055E+03 -0.21397230512E+02 -0.11112246408E+03  0.29934505699E+03  0.00000000000E+00 0.  1.
          2    1    6    6  502    0 -0.22248366637E+03  0.42637208849E+03 -0.10359369691E+04  0.11421285145E+04  0.00000000000E+00 0. -1.
          3    1    5    5  503    0 -0.33356909807E+02 -0.37825193957E+03 -0.77004237723E+03  0.85857584170E+03  0.00000000000E+00 0. -1.
         -4    1    5    5    0  503 -0.28083826141E+02 -0.51490097321E+02 -0.17164689370E+03  0.18139070409E+03  0.00000000000E+00 0.  1.
         -1    1    6    6    0  502  0.46046099479E+01  0.16100117665E+02 -0.61020646397E+02  0.63276658480E+02  0.00000000000E+00 0.  1.
<mgrwt>
<rscale>  0 0.13711013E+04</rscale>
<asrwt>0</asrwt>
<pdfrwt beam="1">  1        2 0.36444463E+00 0.13711013E+04</pdfrwt>
<pdfrwt beam="2">  1       -2 0.30522552E-01 0.13711013E+04</pdfrwt>
<totfact> 0.40223117E+01</totfact>
</mgrwt>
</event>
<event>
12    1  0.4612066E-007  0.1275455E+04  0.7818608E-02  0.9049259E-01
          2   -1    0    0  501    0  0.00000000000E+00  0.00000000000E+00  0.10647004728E+04  0.10647004728E+04  0.00000000000E+00 0. -1.
         -2   -1    0    0    0  501 -0.00000000000E+00 -0.00000000000E+00 -0.38198209440E+03  0.38198209440E+03  0.00000000000E+00 0.  1.
         23    2    1    2    0    0  0.23041305316E+03 -0.66857674127E+02  0.39287046373E+03  0.46907351668E+03  0.90125685155E+02 0.  0.
        254    2    1    2    0    0 -0.23041305316E+03  0.66857674127E+02  0.28984791467E+03  0.97760905053E+03  0.90230123483E+03 0.  0.
        -24    2    4    4    0    0  0.32432989884E+03 -0.29588145452E+02 -0.87641389652E+01  0.33513080866E+03  0.78552575690E+02 0.  0.
         24    2    4    4    0    0 -0.55474295200E+03  0.96445819579E+02  0.29861205364E+03  0.64247824187E+03  0.81040692213E+02 0.  0.
         13    1    3    3    0    0  0.22481298121E+03 -0.47342811287E+02  0.38270312617E+03  0.44636745074E+03  0.00000000000E+00 0. -1.
        -13    1    3    3    0    0  0.56000719531E+01 -0.19514862841E+02  0.10167337563E+02  0.22706065945E+02  0.00000000000E+00 0.  1.
          2    1    6    6  502    0 -0.24926038995E+03  0.70826809478E+01  0.11037814985E+03  0.27269807908E+03  0.00000000000E+00 0. -1.
          1    1    5    5  503    0  0.29650345200E+03 -0.11448471923E+02 -0.25719194381E+02  0.29783693780E+03  0.00000000000E+00 0. -1.
         -2    1    5    5    0  503  0.27826446832E+02 -0.18139673529E+02  0.16955055416E+02  0.37293870853E+02  0.00000000000E+00 0.  1.
         -1    1    6    6    0  502 -0.30548256204E+03  0.89363138631E+02  0.18823390379E+03  0.36978016279E+03  0.00000000000E+00 0.  1.
<mgrwt>
<rscale>  0 0.12754552E+04</rscale>
<asrwt>0</asrwt>
<pdfrwt beam="1">  1        2 0.16380007E+00 0.12754552E+04</pdfrwt>
<pdfrwt beam="2">  1       -2 0.58766477E-01 0.12754552E+04</pdfrwt>
<totfact> 0.60888956E+01</totfact>
</mgrwt>
</event>
<event>
12    1  0.4612066E-007  0.1352537E+04  0.7818608E-02  0.8988910E-01
         -2   -1    0    0    0  501 -0.00000000000E+00  0.00000000000E+00  0.20338265235E+03  0.20338265235E+03  0.00000000000E+00 0.  1.
          2   -1    0    0  501    0  0.00000000000E+00 -0.00000000000E+00 -0.22486627359E+04  0.22486627359E+04  0.00000000000E+00 0. -1.
         23    2    1    2    0    0 -0.11787463049E+03 -0.27391291073E+03 -0.18099965595E+03  0.36074327641E+03  0.91935438445E+02 0.  0.
        254    2    1    2    0    0  0.11787463049E+03  0.27391291073E+03 -0.18642804276E+04  0.20913021118E+04  0.89948890990E+03 0.  0.
        -24    2    4    4    0    0 -0.38659201652E+01 -0.11897251045E+03  0.33893900665E+02  0.14745153056E+03  0.80148323631E+02 0.  0.
         24    2    4    4    0    0  0.12174055066E+03  0.39288542118E+03 -0.18981743283E+04  0.19438505813E+04  0.79432902334E+02 0.  0.
         13    1    3    3    0    0 -0.82149140580E+02 -0.24316758145E+03 -0.18018775018E+03  0.31360258175E+03  0.00000000000E+00 0. -1.
        -13    1    3    3    0    0 -0.35725489910E+02 -0.30745329286E+02 -0.81190577091E+00  0.47140694662E+02  0.00000000000E+00 0.  1.
          2    1    6    6  502    0  0.69648260562E+02  0.20776770912E+03 -0.11911986900E+04  0.12111864515E+04  0.00000000000E+00 0. -1.
          1    1    5    5  503    0  0.30946690875E+02 -0.16071668861E+02  0.85630650277E+01  0.35907134372E+02  0.00000000000E+00 0. -1.
         -2    1    5    5    0  503 -0.34812611040E+02 -0.10290084159E+03  0.25330835637E+02  0.11154439619E+03  0.00000000000E+00 0.  1.
         -1    1    6    6    0  502  0.52092290094E+02  0.18511771206E+03 -0.70697563827E+03  0.73266412981E+03  0.00000000000E+00 0.  1.
<mgrwt>
<rscale>  0 0.13525369E+04</rscale>
<asrwt>0</asrwt>
<pdfrwt beam="1">  1        2 0.34594811E+00 0.13525369E+04</pdfrwt>
<pdfrwt beam="2">  1       -2 0.31289639E-01 0.13525369E+04</pdfrwt>
<totfact> 0.44958167E+01</totfact>
</mgrwt>
</event>
<event>
12    1  0.4612066E-007  0.2275857E+04  0.7818608E-02  0.8487501E-01
         -1   -1    0    0    0  501 -0.00000000000E+00  0.00000000000E+00  0.41087975253E+03  0.41087975253E+03  0.00000000000E+00 0.  1.
          1   -1    0    0  501    0  0.00000000000E+00 -0.00000000000E+00 -0.31514858283E+04  0.31514858283E+04  0.00000000000E+00 0. -1.
         23    2    1    2    0    0  0.73745847860E+02 -0.84979221883E+03 -0.18496298048E+04  0.20388631021E+04  0.90813376621E+02 0.  0.
        254    2    1    2    0    0 -0.73745847860E+02  0.84979221883E+03 -0.89097627102E+03  0.15235024787E+04  0.89422358602E+03 0.  0.
        -24    2    4    4    0    0  0.21619798906E+03  0.30217512592E+03  0.61059675190E+02  0.38494431159E+03  0.80015385332E+02 0.  0.
         24    2    4    4    0    0 -0.28994383692E+03  0.54761709291E+03 -0.95203594621E+03  0.11385581671E+04  0.77397338338E+02 0.  0.
         13    1    3    3    0    0  0.69311278822E+02 -0.32122459646E+03 -0.74654828268E+03  0.81567372957E+03  0.00000000000E+00 0. -1.
        -13    1    3    3    0    0  0.44345690380E+01 -0.52856762237E+03 -0.11030815221E+04  0.12231893726E+04  0.00000000000E+00 0.  1.
          4    1    6    6  502    0 -0.37459236358E+02  0.28086839116E+02 -0.70891277226E+02  0.84956683709E+02  0.00000000000E+00 0. -1.
          3    1    5    5  503    0  0.25204686170E+02  0.93698739789E+02  0.22330632354E+02  0.99565994116E+02  0.00000000000E+00 0. -1.
         -4    1    5    5    0  503  0.19099330289E+03  0.20847638613E+03  0.38729042836E+02  0.28537831747E+03  0.00000000000E+00 0.  1.
         -3    1    6    6    0  502 -0.25248460056E+03  0.51953025379E+03 -0.88114466899E+03  0.10536014834E+04  0.00000000000E+00 0.  1.
<mgrwt>
<rscale>  0 0.22758574E+04</rscale>
<asrwt>0</asrwt>
<pdfrwt beam="1">  1        1 0.48484396E+00 0.22758574E+04</pdfrwt>
<pdfrwt beam="2">  1       -1 0.63212272E-01 0.22758574E+04</pdfrwt>
<totfact> 0.10635438E+00</totfact>
</mgrwt>
</event>
<event>
12    1  0.4612066E-007  0.1528669E+04  0.7818608E-02  0.8865609E-01
         -1   -1    0    0    0  501 -0.00000000000E+00  0.00000000000E+00  0.98742511636E+03  0.98742511636E+03  0.00000000000E+00 0.  1.
          1   -1    0    0  501    0  0.00000000000E+00 -0.00000000000E+00 -0.59164731071E+03  0.59164731071E+03  0.00000000000E+00 0. -1.
         23    2    1    2    0    0 -0.21991882294E+03 -0.40581745073E+03  0.31551413896E+03  0.56648391677E+03  0.91119504363E+02 0.  0.
        254    2    1    2    0    0  0.21991882294E+03  0.40581745073E+03  0.80263666689E+02  0.10125885103E+04  0.89768655053E+03 0.  0.
        -24    2    4    4    0    0 -0.19141526177E+03  0.35669807755E+03  0.32500419217E+03  0.52391236183E+03  0.70591196181E+02 0.  0.
         24    2    4    4    0    0  0.41133408471E+03  0.49119373179E+02 -0.24474052548E+03  0.48867614848E+03  0.85428398176E+02 0.  0.
         11    1    3    3    0    0 -0.15877142041E+03 -0.31432547520E+03  0.19211574002E+03  0.40114501849E+03  0.00000000000E+00 0. -1.
        -11    1    3    3    0    0 -0.61147402529E+02 -0.91491975535E+02  0.12339839894E+03  0.16533889828E+03  0.00000000000E+00 0.  1.
          2    1    6    6  502    0  0.37614387557E+03  0.19321605969E+02 -0.21300402778E+03  0.43269880452E+03  0.00000000000E+00 0. -1.
          1    1    5    5  503    0 -0.16005245409E+03  0.23163298707E+03  0.23395881852E+03  0.36607015383E+03  0.00000000000E+00 0. -1.
         -2    1    5    5    0  503 -0.31362807677E+02  0.12506509048E+03  0.91045373652E+02  0.15784220800E+03  0.00000000000E+00 0.  1.
         -1    1    6    6    0  502  0.35190209140E+02  0.29797767210E+02 -0.31736497708E+02  0.55977343960E+02  0.00000000000E+00 0.  1.
<mgrwt>
<rscale>  0 0.15286692E+04</rscale>
<asrwt>0</asrwt>
<pdfrwt beam="1">  1        1 0.91022664E-01 0.15286692E+04</pdfrwt>
<pdfrwt beam="2">  1       -1 0.15191156E+00 0.15286692E+04</pdfrwt>
<totfact> 0.11372387E+01</totfact>
</mgrwt>
</event>
<event>
12    1  0.4612066E-007  0.4784268E+04  0.7818608E-02  0.7862676E-01
         -1   -1    0    0    0  501 -0.00000000000E+00  0.00000000000E+00  0.23548217440E+04  0.23548217440E+04  0.00000000000E+00 0.  1.
          1   -1    0    0  501    0  0.00000000000E+00 -0.00000000000E+00 -0.24300374362E+04  0.24300374362E+04  0.00000000000E+00 0. -1.
         23    2    1    2    0    0  0.17579123735E+04 -0.14746425389E+04  0.20846828632E+03  0.23057627125E+04  0.90863245625E+02 0.  0.
        254    2    1    2    0    0 -0.17579123735E+04  0.14746425389E+04 -0.28368397858E+03  0.24790964677E+04  0.89477157188E+03 0.  0.
        -24    2    4    4    0    0 -0.54067460022E+03  0.26177145465E+03  0.28120558194E+03  0.66835656076E+03  0.82283626589E+02 0.  0.
         24    2    4    4    0    0 -0.12172377733E+04  0.12128710843E+04 -0.56488956052E+03  0.18107399069E+04  0.83395030777E+02 0.  0.
         13    1    3    3    0    0  0.12423270635E+04 -0.10797193984E+04  0.12024249013E+03  0.16503420156E+04  0.00000000000E+00 0.  1.
        -13    1    3    3    0    0  0.51558531003E+03 -0.39492314045E+03  0.88225796189E+02  0.65542069688E+03  0.00000000000E+00 0. -1.
          4    1    6    6  502    0 -0.11541144830E+04  0.11631992934E+04 -0.55379687360E+03  0.17296542467E+04  0.00000000000E+00 0. -1.
          3    1    5    5  503    0 -0.10765130903E+03  0.25851876630E+02  0.75758114665E+02  0.13415072046E+03  0.00000000000E+00 0. -1.
         -4    1    5    5    0  503 -0.43302329120E+03  0.23591957802E+03  0.20544746727E+03  0.53420584031E+03  0.00000000000E+00 0.  1.
         -3    1    6    6    0  502 -0.63123290303E+02  0.49671790891E+02 -0.11092686922E+02  0.81085660213E+02  0.00000000000E+00 0.  1.
<mgrwt>
<rscale>  0 0.47842680E+04</rscale>
<asrwt>0</asrwt>
<pdfrwt beam="1">  1        1 0.37385191E+00 0.47842680E+04</pdfrwt>
<pdfrwt beam="2">  1       -1 0.36228027E+00 0.47842680E+04</pdfrwt>
<totfact> 0.14318498E-02</totfact>
</mgrwt>
</event>
<event>
12    1  0.4612066E-007  0.2260418E+04  0.7818608E-02  0.8493693E-01
         -2   -1    0    0    0  501 -0.00000000000E+00  0.00000000000E+00  0.82676234198E+03  0.82676234198E+03  0.00000000000E+00 0. -1.
          2   -1    0    0  501    0  0.00000000000E+00 -0.00000000000E+00 -0.15450295700E+04  0.15450295700E+04  0.00000000000E+00 0.  1.
         23    2    1    2    0    0 -0.24952661912E+03  0.73230737374E+03 -0.85895492139E+03  0.11590721818E+04  0.84303869101E+02 0.  0.
        254    2    1    2    0    0  0.24952661912E+03 -0.73230737374E+03  0.14068769332E+03  0.12127197302E+04  0.92323263253E+03 0.  0.
        -24    2    4    4    0    0 -0.33130671003E+02 -0.72458727242E+03  0.38985317743E+03  0.82741419101E+03  0.80649778814E+02 0.  0.
         24    2    4    4    0    0  0.28265729012E+03 -0.77201013256E+01 -0.24916548411E+03  0.38530553923E+03  0.80138483056E+02 0.  0.
         11    1    3    3    0    0 -0.14503971907E+03  0.48970500098E+03 -0.61594204314E+03  0.80014505473E+03  0.00000000000E+00 0.  1.
        -11    1    3    3    0    0 -0.10448690005E+03  0.24260237276E+03 -0.24301287825E+03  0.35892712707E+03  0.00000000000E+00 0. -1.
          4    1    6    6  502    0  0.17298009121E+03  0.14507345015E+02 -0.19470685090E+03  0.26085116983E+03  0.00000000000E+00 0. -1.
          1    1    5    5  503    0  0.39968336704E+01 -0.59470045593E+03  0.31589779137E+03  0.67340628268E+03  0.00000000000E+00 0. -1.
         -2    1    5    5    0  503 -0.37127504673E+02 -0.12988681649E+03  0.73955386058E+02  0.15400790833E+03  0.00000000000E+00 0.  1.
         -3    1    6    6    0  502  0.10967719891E+03 -0.22227446340E+02 -0.54458633210E+02  0.12445436940E+03  0.00000000000E+00 0.  1.
<mgrwt>
<rscale>  0 0.22604179E+04</rscale>
<asrwt>0</asrwt>
<pdfrwt beam="1">  1        2 0.23769686E+00 0.22604179E+04</pdfrwt>
<pdfrwt beam="2">  1       -2 0.12719421E+00 0.22604179E+04</pdfrwt>
<totfact> 0.49985709E+00</totfact>
</mgrwt>
</event>
<event>
12    1  0.4612066E-007  0.1394803E+04  0.7818608E-02  0.8957589E-01
         -1   -1    0    0    0  501 -0.00000000000E+00  0.00000000000E+00  0.35824632025E+03  0.35824632025E+03  0.00000000000E+00 0.  1.
          1   -1    0    0  501    0  0.00000000000E+00 -0.00000000000E+00 -0.13576372608E+04  0.13576372608E+04  0.00000000000E+00 0. -1.
         23    2    1    2    0    0 -0.27659964158E+03  0.19730122219E+02 -0.65047189394E+03  0.71302960150E+03  0.91656360249E+02 0.  0.
        254    2    1    2    0    0  0.27659964158E+03 -0.19730122219E+02 -0.34891904657E+03  0.10028539795E+04  0.89837351012E+03 0.  0.
        -24    2    4    4    0    0  0.10210305404E+03  0.13607254151E+03  0.27457755986E+03  0.33208324938E+03  0.77108222258E+02 0.  0.
         24    2    4    4    0    0  0.17449658754E+03 -0.15580266373E+03 -0.62349660644E+03  0.67077073011E+03  0.80385477859E+02 0.  0.
         13    1    3    3    0    0 -0.10622654162E+03  0.49097466410E+02 -0.22112623755E+03  0.25018283771E+03  0.00000000000E+00 0.  1.
        -13    1    3    3    0    0 -0.17037309996E+03 -0.29367344191E+02 -0.42934565638E+03  0.46284676379E+03  0.00000000000E+00 0. -1.
          2    1    6    6  502    0  0.74252345727E+02 -0.17356351515E+02 -0.18085621577E+03  0.19627436044E+03  0.00000000000E+00 0. -1.
          1    1    5    5  503    0 -0.21792097236E+01  0.38348297247E+02  0.29704562360E+02  0.48556172437E+02  0.00000000000E+00 0. -1.
         -2    1    5    5    0  503  0.10428226377E+03  0.97724244267E+02  0.24487299750E+03  0.28352707694E+03  0.00000000000E+00 0.  1.
         -1    1    6    6    0  502  0.10024424181E+03 -0.13844631222E+03 -0.44264039067E+03  0.47449636968E+03  0.00000000000E+00 0.  1.
<mgrwt>
<rscale>  0 0.13948026E+04</rscale>
<asrwt>0</asrwt>
<pdfrwt beam="1">  1        1 0.20886727E+00 0.13948026E+04</pdfrwt>
<pdfrwt beam="2">  1       -1 0.55114819E-01 0.13948026E+04</pdfrwt>
<totfact> 0.26711766E+01</totfact>
</mgrwt>
</event>
<event>
12    1  0.4612066E-007  0.1477892E+04  0.7818608E-02  0.8899289E-01
         -1   -1    0    0    0  501 -0.00000000000E+00  0.00000000000E+00  0.27621473683E+03  0.27621473683E+03  0.00000000000E+00 0. -1.
          1   -1    0    0  501    0  0.00000000000E+00 -0.00000000000E+00 -0.19768726240E+04  0.19768726240E+04  0.00000000000E+00 0.  1.
         23    2    1    2    0    0 -0.90473142363E+02  0.38089962724E+03 -0.88804807703E+03  0.97486868094E+03  0.92030660393E+02 0.  0.
        254    2    1    2    0    0  0.90473142363E+02 -0.38089962724E+03 -0.81260981011E+03  0.12782186799E+04  0.90567012457E+03 0.  0.
        -24    2    4    4    0    0  0.26224426386E+03 -0.44267758093E+03 -0.91618862179E+03  0.10537609077E+04  0.79214678461E+02 0.  0.
         24    2    4    4    0    0 -0.17177112150E+03  0.61777953693E+02  0.10357881168E+03  0.22445777217E+03  0.79566874503E+02 0.  0.
         13    1    3    3    0    0 -0.10671835574E+03  0.31613494693E+03 -0.77126110451E+03  0.84034148026E+03  0.00000000000E+00 0. -1.
        -13    1    3    3    0    0  0.16245213372E+02  0.64764680308E+02 -0.11678697252E+03  0.13452720068E+03  0.00000000000E+00 0.  1.
          2    1    6    6  502    0 -0.53602020757E+02  0.35128957250E+02  0.77464133746E+02  0.10053811359E+03  0.00000000000E+00 0. -1.
          1    1    5    5  503    0  0.31884857661E+02 -0.11619280337E+03 -0.23275806947E+03  0.26209488855E+03  0.00000000000E+00 0. -1.
         -2    1    5    5    0  503  0.23035940620E+03 -0.32648477756E+03 -0.68343055232E+03  0.79166601913E+03  0.00000000000E+00 0.  1.
         -1    1    6    6    0  502 -0.11816910074E+03  0.26648996443E+02  0.26114677934E+02  0.12391965859E+03  0.00000000000E+00 0.  1.
<mgrwt>
<rscale>  0 0.14778922E+04</rscale>
<asrwt>0</asrwt>
<pdfrwt beam="1">  1        1 0.30413425E+00 0.14778922E+04</pdfrwt>
<pdfrwt beam="2">  1       -1 0.42494575E-01 0.14778922E+04</pdfrwt>
<totfact> 0.16323472E+01</totfact>
</mgrwt>
</event>
<event>
12    1  0.4612066E-007  0.1339183E+04  0.7818608E-02  0.8999057E-01
          1   -1    0    0  501    0  0.00000000000E+00  0.00000000000E+00  0.86057825248E+03  0.86057825248E+03  0.00000000000E+00 0. -1.
         -1   -1    0    0    0  501 -0.00000000000E+00 -0.00000000000E+00 -0.52099037374E+03  0.52099037374E+03  0.00000000000E+00 0.  1.
         23    2    1    2    0    0 -0.16267258695E+03 -0.67084782292E+02  0.37975657187E+03  0.42818847812E+03  0.90374666575E+02 0.  0.
        254    2    1    2    0    0  0.16267258695E+03  0.67084782292E+02 -0.40168693136E+02  0.95338014809E+03  0.93613965000E+03 0.  0.
        -24    2    4    4    0    0 -0.32797337185E+03  0.15117537432E+03 -0.20534949377E+03  0.42288805146E+03  0.79027609276E+02 0.  0.
         24    2    4    4    0    0  0.49064595880E+03 -0.84090592031E+02  0.16518080063E+03  0.53049209663E+03  0.79576900779E+02 0.  0.
         11    1    3    3    0    0 -0.90930633064E+02  0.72329162497E+01  0.21734964289E+03  0.23571500243E+03  0.00000000000E+00 0. -1.
        -11    1    3    3    0    0 -0.71741953885E+02 -0.74317698542E+02  0.16240692898E+03  0.19247347569E+03  0.00000000000E+00 0.  1.
          2    1    6    6  502    0  0.18115466945E+03 -0.46398740847E+02  0.99671082314E+02  0.21190606896E+03  0.00000000000E+00 0. -1.
          3    1    5    5  503    0 -0.48827963299E+02  0.33806097338E+02 -0.68279965361E+02  0.90494065479E+02  0.00000000000E+00 0. -1.
         -4    1    5    5    0  503 -0.27914540855E+03  0.11736927699E+03 -0.13706952841E+03  0.33239398598E+03  0.00000000000E+00 0.  1.
         -1    1    6    6    0  502  0.30949128935E+03 -0.37691851184E+02  0.65509718320E+02  0.31858602767E+03  0.00000000000E+00 0.  1.
<mgrwt>
<rscale>  0 0.13391833E+04</rscale>
<asrwt>0</asrwt>
<pdfrwt beam="1">  1        1 0.13239665E+00 0.13391833E+04</pdfrwt>
<pdfrwt beam="2">  1       -1 0.80152365E-01 0.13391833E+04</pdfrwt>
<totfact> 0.29872577E+01</totfact>
</mgrwt>
</event>
<event>
12    1  0.4612066E-007  0.2011393E+04  0.7818608E-02  0.8601313E-01
         -3   -1    0    0    0  501 -0.00000000000E+00  0.00000000000E+00  0.79031891966E+03  0.79031891966E+03  0.00000000000E+00 0.  1.
          3   -1    0    0  501    0  0.00000000000E+00 -0.00000000000E+00 -0.12797685447E+04  0.12797685447E+04  0.00000000000E+00 0. -1.
         23    2    1    2    0    0 -0.13321417098E+03 -0.69966419457E+03  0.17773774564E+03  0.73979465333E+03  0.91811885737E+02 0.  0.
        254    2    1    2    0    0  0.13321417098E+03  0.69966419457E+03 -0.66718737070E+03  0.13302928110E+04  0.90402653445E+03 0.  0.
        -24    2    4    4    0    0  0.21250090791E+03  0.30637591200E+03  0.15517609126E+03  0.41194714188E+03  0.81228031399E+02 0.  0.
         24    2    4    4    0    0 -0.79286736931E+02  0.39328828257E+03 -0.82236346197E+03  0.91834566917E+03  0.78198750956E+02 0.  0.
         11    1    3    3    0    0 -0.12469266208E+03 -0.51599676484E+03  0.16313677483E+03  0.55535081579E+03  0.00000000000E+00 0.  1.
        -11    1    3    3    0    0 -0.85215088940E+01 -0.18366742973E+03  0.14600970818E+02  0.18444383754E+03  0.00000000000E+00 0. -1.
          2    1    6    6  502    0 -0.93392404368E+02  0.35323396244E+03 -0.71646954594E+03  0.80425430286E+03  0.00000000000E+00 0. -1.
          1    1    5    5  503    0  0.20247484829E+03  0.29199259153E+03  0.16509149791E+03  0.39180472226E+03  0.00000000000E+00 0. -1.
         -2    1    5    5    0  503  0.10026059611E+02  0.14383320467E+02 -0.99154066484E+01  0.20142419616E+02  0.00000000000E+00 0.  1.
         -1    1    6    6    0  502  0.14105667437E+02  0.40054320130E+02 -0.10589391603E+03  0.11409136631E+03  0.00000000000E+00 0.  1.
<mgrwt>
<rscale>  0 0.20113928E+04</rscale>
<asrwt>0</asrwt>
<pdfrwt beam="1">  1        3 0.19688747E+00 0.20113928E+04</pdfrwt>
<pdfrwt beam="2">  1       -3 0.12158753E+00 0.20113928E+04</pdfrwt>
<totfact> 0.20466829E-01</totfact>
</mgrwt>
</event>
<event>
12    1  0.4612066E-007  0.1115717E+04  0.7818608E-02  0.9190007E-01
         -2   -1    0    0    0  501 -0.00000000000E+00  0.00000000000E+00  0.25534569000E+03  0.25534569000E+03  0.00000000000E+00 0. -1.
          2   -1    0    0  501    0  0.00000000000E+00 -0.00000000000E+00 -0.12187640756E+04  0.12187640756E+04  0.00000000000E+00 0.  1.
         23    2    1    2    0    0  0.12059410712E+03  0.39048189657E+02 -0.38686426400E+03  0.41727477778E+03  0.91578281400E+02 0.  0.
        254    2    1    2    0    0 -0.12059410712E+03 -0.39048189657E+02 -0.57655412162E+03  0.10568349878E+04  0.87659445388E+03 0.  0.
        -24    2    4    4    0    0 -0.11817507822E+03 -0.13263325180E+03 -0.78840192049E+03  0.81206985610E+03  0.79516880987E+02 0.  0.
         24    2    4    4    0    0 -0.24190288944E+01  0.93585062139E+02  0.21184779887E+03  0.24476513173E+03  0.79161002188E+02 0.  0.
         13    1    3    3    0    0  0.10672094237E+03  0.29289884104E+02 -0.19151486877E+03  0.22119041980E+03  0.00000000000E+00 0. -1.
        -13    1    3    3    0    0  0.13873164745E+02  0.97583055528E+01 -0.19534939523E+03  0.19608435798E+03  0.00000000000E+00 0.  1.
          2    1    6    6  502    0 -0.19564639051E+02  0.87541734648E+02  0.11307836308E+03  0.14433657403E+03  0.00000000000E+00 0. -1.
          3    1    5    5  503    0 -0.46560403348E+01 -0.48607143754E+02 -0.13449723479E+03  0.14308682435E+03  0.00000000000E+00 0. -1.
         -4    1    5    5    0  503 -0.11351903789E+03 -0.84026108042E+02 -0.65390468570E+03  0.66898303175E+03  0.00000000000E+00 0.  1.
         -1    1    6    6    0  502  0.17145610156E+02  0.60433274912E+01  0.98769435788E+02  0.10042855770E+03  0.00000000000E+00 0.  1.
<mgrwt>
<rscale>  0 0.11157171E+04</rscale>
<asrwt>0</asrwt>
<pdfrwt beam="1">  1        2 0.18750217E+00 0.11157171E+04</pdfrwt>
<pdfrwt beam="2">  1       -2 0.39283952E-01 0.11157171E+04</pdfrwt>
<totfact> 0.11209575E+02</totfact>
</mgrwt>
</event>
<event>
12    1  0.4612066E-007  0.1349221E+04  0.7818608E-02  0.8991418E-01
          1   -1    0    0  501    0  0.00000000000E+00  0.00000000000E+00  0.24158605043E+04  0.24158605043E+04  0.00000000000E+00 0. -1.
         -1   -1    0    0    0  501 -0.00000000000E+00 -0.00000000000E+00 -0.18837970142E+03  0.18837970142E+03  0.00000000000E+00 0.  1.
         23    2    1    2    0    0  0.23362031903E+03 -0.24639744472E+03  0.87947798781E+03  0.94701792579E+03  0.89840227605E+02 0.  0.
        254    2    1    2    0    0 -0.23362031903E+03  0.24639744472E+03  0.13480028151E+04  0.16572222800E+04  0.90221058598E+03 0.  0.
        -24    2    4    4    0    0 -0.22088255026E+03  0.44882630523E+03  0.13469481057E+04  0.14390151979E+04  0.79128925428E+02 0.  0.
         24    2    4    4    0    0 -0.12737768771E+02 -0.20242886050E+03  0.10547093505E+01  0.21820708210E+03  0.80458212436E+02 0.  0.
         11    1    3    3    0    0  0.36361486079E+02 -0.63423673150E+02  0.28945494227E+03  0.29854460905E+03  0.00000000000E+00 0. -1.
        -11    1    3    3    0    0  0.19725883295E+03 -0.18297377157E+03  0.59002304554E+03  0.64847331674E+03  0.00000000000E+00 0.  1.
          2    1    6    6  502    0 -0.15095339082E+02 -0.56883236494E+02  0.35355646253E+02  0.68655615779E+02  0.00000000000E+00 0. -1.
          1    1    5    5  503    0 -0.33163048966E+02  0.68828338055E+02  0.13535934013E+03  0.15543255417E+03  0.00000000000E+00 0. -1.
         -2    1    5    5    0  503 -0.18771950130E+03  0.37999796717E+03  0.12115887656E+04  0.12835826437E+04  0.00000000000E+00 0.  1.
         -1    1    6    6    0  502  0.23575703117E+01 -0.14554562401E+03 -0.34300936902E+02  0.14955146632E+03  0.00000000000E+00 0.  1.
<mgrwt>
<rscale>  0 0.13492206E+04</rscale>
<asrwt>0</asrwt>
<pdfrwt beam="1">  1        1 0.37167083E+00 0.13492206E+04</pdfrwt>
<pdfrwt beam="2">  1       -1 0.28981494E-01 0.13492206E+04</pdfrwt>
<totfact> 0.16496678E+01</totfact>
</mgrwt>
</event>
<event>
12    1  0.4612066E-007  0.1579467E+04  0.7818608E-02  0.8833262E-01
         -2   -1    0    0    0  501 -0.00000000000E+00  0.00000000000E+00  0.70416570064E+03  0.70416570064E+03  0.00000000000E+00 0.  1.
          2   -1    0    0  501    0  0.00000000000E+00 -0.00000000000E+00 -0.88569944679E+03  0.88569944679E+03  0.00000000000E+00 0. -1.
         23    2    1    2    0    0  0.25515417090E+03 -0.44627103258E+03  0.39266980862E+02  0.52336173656E+03  0.90022919635E+02 0.  0.
        254    2    1    2    0    0 -0.25515417090E+03  0.44627103258E+03 -0.22080072701E+03  0.10665034109E+04  0.90797306066E+03 0.  0.
        -24    2    4    4    0    0 -0.47986318825E+03  0.41741134102E+03  0.11713456362E+03  0.65194661751E+03  0.82540771936E+02 0.  0.
         24    2    4    4    0    0  0.22470901735E+03  0.28859691560E+02 -0.33793529062E+03  0.41455679336E+03  0.79561611334E+02 0.  0.
         11    1    3    3    0    0  0.11625236271E+03 -0.12157455296E+03  0.18026278172E+01  0.16822078716E+03  0.00000000000E+00 0. -1.
        -11    1    3    3    0    0  0.13890180819E+03 -0.32469647962E+03  0.37464353045E+02  0.35514094941E+03  0.00000000000E+00 0.  1.
          2    1    6    6  502    0  0.12844937882E+03  0.82646979439E+01 -0.12246780147E+03  0.17766797840E+03  0.00000000000E+00 0. -1.
          1    1    5    5  503    0 -0.23635859884E+03  0.21529553572E+03  0.10015026115E+03  0.33503377405E+03  0.00000000000E+00 0. -1.
         -2    1    5    5    0  503 -0.24350458941E+03  0.20211580530E+03  0.16984302470E+02  0.31691284345E+03  0.00000000000E+00 0.  1.
         -1    1    6    6    0  502  0.96259638527E+02  0.20594993617E+02 -0.21546748916E+03  0.23688881496E+03  0.00000000000E+00 0.  1.
<mgrwt>
<rscale>  0 0.15794672E+04</rscale>
<asrwt>0</asrwt>
<pdfrwt beam="1">  1        2 0.13626145E+00 0.15794672E+04</pdfrwt>
<pdfrwt beam="2">  1       -2 0.10833319E+00 0.15794672E+04</pdfrwt>
<totfact> 0.19636782E+01</totfact>
</mgrwt>
</event>
<event>
12    1  0.4612066E-007  0.1521209E+04  0.7818608E-02  0.8870471E-01
          1   -1    0    0  501    0  0.00000000000E+00  0.00000000000E+00  0.12386226497E+04  0.12386226497E+04  0.00000000000E+00 0. -1.
         -1   -1    0    0    0  501 -0.00000000000E+00 -0.00000000000E+00 -0.46706633593E+03  0.46706633593E+03  0.00000000000E+00 0.  1.
         23    2    1    2    0    0  0.44800550344E+03 -0.38391566459E+02  0.58665032483E+02  0.46239449263E+03  0.90466774536E+02 0.  0.
        254    2    1    2    0    0 -0.44800550344E+03  0.38391566459E+02  0.71289128127E+03  0.12432944930E+04  0.91399363996E+03 0.  0.
        -24    2    4    4    0    0 -0.21351886863E+02 -0.38041487850E+03  0.14373364794E+03  0.41409906674E+03  0.75148470808E+02 0.  0.
         24    2    4    4    0    0 -0.42665361657E+03  0.41880644496E+03  0.56915763333E+03  0.82919542625E+03  0.78692416765E+02 0.  0.
         13    1    3    3    0    0  0.32251519591E+03 -0.35825710440E+02  0.82065623678E+02  0.33471525169E+03  0.00000000000E+00 0. -1.
        -13    1    3    3    0    0  0.12549030752E+03 -0.25658560187E+01 -0.23400591194E+02  0.12767924094E+03  0.00000000000E+00 0.  1.
          4    1    6    6  502    0 -0.37596069357E+03  0.38059537017E+03  0.47369823679E+03  0.71455531518E+03  0.00000000000E+00 0. -1.
          3    1    5    5  503    0 -0.20041583978E+02 -0.38328755875E+03  0.14551949819E+03  0.41047160942E+03  0.00000000000E+00 0. -1.
         -4    1    5    5    0  503 -0.13103028844E+01  0.28726802531E+01 -0.17858502511E+01  0.36274573195E+01  0.00000000000E+00 0.  1.
         -1    1    6    6    0  502 -0.50692923002E+02  0.38211074786E+02  0.95459396535E+02  0.11464011107E+03  0.00000000000E+00 0.  1.
<mgrwt>
<rscale>  0 0.15212087E+04</rscale>
<asrwt>0</asrwt>
<pdfrwt beam="1">  1        1 0.19055733E+00 0.15212087E+04</pdfrwt>
<pdfrwt beam="2">  1       -1 0.71856360E-01 0.15212087E+04</pdfrwt>
<totfact> 0.18905665E+01</totfact>
</mgrwt>
</event>
<event>
12    1  0.4612066E-007  0.4017872E+04  0.7818608E-02  0.8000951E-01
          2   -1    0    0  501    0  0.00000000000E+00  0.00000000000E+00  0.23661010603E+04  0.23661010603E+04  0.00000000000E+00 0. -1.
         -2   -1    0    0    0  501 -0.00000000000E+00 -0.00000000000E+00 -0.17056851194E+04  0.17056851194E+04  0.00000000000E+00 0.  1.
         23    2    1    2    0    0  0.18427101572E+04 -0.34602029883E+03 -0.10368878588E+02  0.18774013358E+04  0.96007769003E+02 0.  0.
        254    2    1    2    0    0 -0.18427101572E+04  0.34602029883E+03  0.67078481949E+03  0.21943848438E+04  0.92198795982E+03 0.  0.
        -24    2    4    4    0    0 -0.81029952318E+03  0.35026220224E+03  0.74227824734E+03  0.11561449243E+04  0.80157107868E+02 0.  0.
         24    2    4    4    0    0 -0.10324106340E+04 -0.42419034128E+01 -0.71493427848E+02  0.10382399195E+04  0.83313319867E+02 0.  0.
         11    1    3    3    0    0  0.11795305046E+04 -0.24300722034E+03 -0.47535997126E+02  0.12052403874E+04  0.00000000000E+00 0.  1.
        -11    1    3    3    0    0  0.66317965258E+03 -0.10301307849E+03  0.37167118538E+02  0.67216094846E+03  0.00000000000E+00 0. -1.
          4    1    6    6  502    0 -0.15260301529E+03  0.83603829999E+01 -0.39060994545E+02  0.15774453263E+03  0.00000000000E+00 0. -1.
          1    1    5    5  503    0 -0.55926898275E+03  0.21147404256E+03  0.46827454921E+03  0.75946304662E+03  0.00000000000E+00 0. -1.
         -2    1    5    5    0  503 -0.25103054043E+03  0.13878815968E+03  0.27400369814E+03  0.39668187769E+03  0.00000000000E+00 0.  1.
         -3    1    6    6    0  502 -0.87980761868E+03 -0.12602286413E+02 -0.32432433303E+02  0.88049538684E+03  0.00000000000E+00 0.  1.
<mgrwt>
<rscale>  0 0.40178718E+04</rscale>
<asrwt>0</asrwt>
<pdfrwt beam="1">  1        2 0.36401555E+00 0.40178718E+04</pdfrwt>
<pdfrwt beam="2">  1       -2 0.26241309E+00 0.40178718E+04</pdfrwt>
<totfact> 0.17661284E-01</totfact>
</mgrwt>
</event>
<event>
12    1  0.4612066E-007  0.2589924E+04  0.7818608E-02  0.8371632E-01
          1   -1    0    0  501    0  0.00000000000E+00  0.00000000000E+00  0.19812985957E+04  0.19812985957E+04  0.00000000000E+00 0. -1.
         -1   -1    0    0    0  501 -0.00000000000E+00 -0.00000000000E+00 -0.84637725295E+03  0.84637725295E+03  0.00000000000E+00 0.  1.
         23    2    1    2    0    0 -0.46349974347E+03  0.60237977531E+03  0.14213855733E+04  0.16145855271E+04  0.94106697189E+02 0.  0.
        254    2    1    2    0    0  0.46349974347E+03 -0.60237977531E+03 -0.28646423051E+03  0.12130903216E+04  0.90101773958E+03 0.  0.
        -24    2    4    4    0    0 -0.11372612837E+03 -0.34677141471E+03  0.18893788446E+03  0.41877072033E+03  0.80544060537E+02 0.  0.
         24    2    4    4    0    0  0.57722587184E+03 -0.25560836060E+03 -0.47540211497E+03  0.79431960125E+03  0.80069450341E+02 0.  0.
         11    1    3    3    0    0 -0.38569077333E+03  0.55026581208E+03  0.12338893247E+04  0.14050027410E+04  0.00000000000E+00 0. -1.
        -11    1    3    3    0    0 -0.77808970136E+02  0.52113963225E+02  0.18749624858E+03  0.20958278610E+03  0.00000000000E+00 0.  1.
          4    1    6    6  502    0  0.25456666052E+03 -0.80896191934E+02 -0.23395016648E+03  0.35507894744E+03  0.00000000000E+00 0. -1.
          1    1    5    5  503    0 -0.47004161432E+02 -0.23761725761E+03  0.95581238153E+02  0.26039801342E+03  0.00000000000E+00 0. -1.
         -2    1    5    5    0  503 -0.66721966939E+02 -0.10915415710E+03  0.93356646308E+02  0.15837270691E+03  0.00000000000E+00 0.  1.
         -3    1    6    6    0  502  0.32265921131E+03 -0.17471216867E+03 -0.24145194849E+03  0.43924065381E+03  0.00000000000E+00 0.  1.
<mgrwt>
<rscale>  0 0.25899236E+04</rscale>
<asrwt>0</asrwt>
<pdfrwt beam="1">  1        1 0.30481517E+00 0.25899236E+04</pdfrwt>
<pdfrwt beam="2">  1       -1 0.13021189E+00 0.25899236E+04</pdfrwt>
<totfact> 0.13658870E+00</totfact>
</mgrwt>
</event>
<event>
12    1  0.4612066E-007  0.1505105E+04  0.7818608E-02  0.8881065E-01
          1   -1    0    0  501    0  0.00000000000E+00  0.00000000000E+00  0.62768276040E+03  0.62768276040E+03  0.00000000000E+00 0. -1.
         -1   -1    0    0    0  501 -0.00000000000E+00 -0.00000000000E+00 -0.90226378592E+03  0.90226378592E+03  0.00000000000E+00 0.  1.
         23    2    1    2    0    0 -0.24101931264E+03 -0.41274959056E+03 -0.11141720843E+03  0.49925072674E+03  0.91569428514E+02 0.  0.
        254    2    1    2    0    0  0.24101931264E+03  0.41274959056E+03 -0.16316381709E+03  0.10306958196E+04  0.89847588043E+03 0.  0.
        -24    2    4    4    0    0  0.48988332319E+03  0.52581149998E+03 -0.18244600849E+03  0.74520349691E+03  0.74688030806E+02 0.  0.
         24    2    4    4    0    0 -0.24886401055E+03 -0.11306190941E+03  0.19282191393E+02  0.28549232268E+03  0.80110999851E+02 0.  0.
         11    1    3    3    0    0 -0.19224615125E+03 -0.37910928499E+03 -0.81248922579E+02  0.43276300680E+03  0.00000000000E+00 0. -1.
        -11    1    3    3    0    0 -0.48773161390E+02 -0.33640305574E+02 -0.30168285852E+02  0.66487719937E+02  0.00000000000E+00 0.  1.
          4    1    6    6  502    0 -0.25009480764E+03 -0.11140095428E+03  0.78726342686E+01  0.27389699486E+03  0.00000000000E+00 0. -1.
          3    1    5    5  503    0  0.25792611594E+03  0.25241623644E+03 -0.57042929889E+02  0.36536794270E+03  0.00000000000E+00 0. -1.
         -4    1    5    5    0  503  0.23195720724E+03  0.27339526354E+03 -0.12540307860E+03  0.37983555421E+03  0.00000000000E+00 0.  1.
         -3    1    6    6    0  502  0.12307970929E+01 -0.16609551376E+01  0.11409557125E+02  0.11595327819E+02  0.00000000000E+00 0.  1.
<mgrwt>
<rscale>  0 0.15051052E+04</rscale>
<asrwt>0</asrwt>
<pdfrwt beam="1">  1        1 0.96566579E-01 0.15051052E+04</pdfrwt>
<pdfrwt beam="2">  1       -1 0.13880981E+00 0.15051052E+04</pdfrwt>
<totfact> 0.13293278E+01</totfact>
</mgrwt>
</event>
<event>
12    1  0.4612066E-007  0.1111732E+04  0.7818608E-02  0.9193832E-01
         -2   -1    0    0    0  501 -0.00000000000E+00  0.00000000000E+00  0.21722721565E+03  0.21722721565E+03  0.00000000000E+00 0.  1.
          2   -1    0    0  501    0  0.00000000000E+00 -0.00000000000E+00 -0.14224126776E+04  0.14224126776E+04  0.00000000000E+00 0. -1.
         23    2    1    2    0    0  0.89753275578E+02 -0.11055910557E+03 -0.93523469008E+02  0.19287816940E+03  0.90423352473E+02 0.  0.
        254    2    1    2    0    0 -0.89753275578E+02  0.11055910557E+03 -0.11116619930E+04  0.14467617239E+04  0.91490334614E+03 0.  0.
        -24    2    4    4    0    0  0.32474305649E+03  0.61133827869E+02 -0.10815494320E+03  0.35697815726E+03  0.80873452829E+02 0.  0.
         24    2    4    4    0    0 -0.41449633207E+03  0.49425277705E+02 -0.10035070498E+04  0.10897835666E+04  0.79697903136E+02 0.  0.
         11    1    3    3    0    0  0.85412699950E+02 -0.34934528763E+02 -0.42862584433E+02  0.10174945581E+03  0.00000000000E+00 0. -1.
        -11    1    3    3    0    0  0.43405756273E+01 -0.75624576811E+02 -0.50660884575E+02  0.91128713590E+02  0.00000000000E+00 0.  1.
          4    1    6    6  502    0 -0.35578494050E+03  0.14092642750E+02 -0.82384782949E+03  0.89750029115E+03  0.00000000000E+00 0. -1.
          3    1    5    5  503    0  0.31628689771E+03  0.70775308023E+02 -0.11303855470E+03  0.34325538705E+03  0.00000000000E+00 0. -1.
         -4    1    5    5    0  503  0.84561587794E+01 -0.96414801545E+01  0.48836115036E+01  0.13722770208E+02  0.00000000000E+00 0.  1.
         -3    1    6    6    0  502 -0.58711391574E+02  0.35332634955E+02 -0.17965922028E+03  0.19228327547E+03  0.00000000000E+00 0.  1.
<mgrwt>
<rscale>  0 0.11117315E+04</rscale>
<asrwt>0</asrwt>
<pdfrwt beam="1">  1        2 0.21883272E+00 0.11117315E+04</pdfrwt>
<pdfrwt beam="2">  1       -2 0.33419571E-01 0.11117315E+04</pdfrwt>
<totfact> 0.11653294E+02</totfact>
</mgrwt>
</event>
<event>
12    1  0.4612066E-007  0.1168887E+04  0.7818608E-02  0.9140534E-01
         -1   -1    0    0    0  501 -0.00000000000E+00  0.00000000000E+00  0.28924848941E+03  0.28924848941E+03  0.00000000000E+00 0.  1.
          1   -1    0    0  501    0  0.00000000000E+00 -0.00000000000E+00 -0.11809027891E+04  0.11809027891E+04  0.00000000000E+00 0. -1.
         23    2    1    2    0    0 -0.38598262308E+02 -0.13345137303E+03 -0.39712285120E+03  0.43044018121E+03  0.90956560172E+02 0.  0.
        254    2    1    2    0    0  0.38598262308E+02  0.13345137303E+03 -0.49453144845E+03  0.10397110973E+04  0.90395725422E+03 0.  0.
        -24    2    4    4    0    0  0.30595869678E+03  0.38186673384E+03 -0.11759071334E+03  0.50921803581E+03  0.77733555025E+02 0.  0.
         24    2    4    4    0    0 -0.26736043447E+03 -0.24841536081E+03 -0.37694073511E+03  0.53049306146E+03  0.78401384341E+02 0.  0.
         11    1    3    3    0    0 -0.83523541116E+01 -0.10451646424E+03 -0.35838644947E+03  0.37340902544E+03  0.00000000000E+00 0. -1.
        -11    1    3    3    0    0 -0.30245908197E+02 -0.28934908792E+02 -0.38736401726E+02  0.57031155767E+02  0.00000000000E+00 0.  1.
          4    1    6    6  502    0  0.40262640933E+01 -0.25985448410E+00 -0.21748701887E+00  0.40404984229E+01  0.00000000000E+00 0. -1.
          3    1    5    5  503    0  0.20483615604E+03  0.29777301474E+03 -0.63258385622E+02  0.36691721475E+03  0.00000000000E+00 0. -1.
         -4    1    5    5    0  503  0.10112254074E+03  0.84093719099E+02 -0.54332327716E+02  0.14230082105E+03  0.00000000000E+00 0.  1.
         -3    1    6    6    0  502 -0.27138669856E+03 -0.24815550633E+03 -0.37672324810E+03  0.52645256304E+03  0.00000000000E+00 0.  1.
<mgrwt>
<rscale>  0 0.11688872E+04</rscale>
<asrwt>0</asrwt>
<pdfrwt beam="1">  1        1 0.18167735E+00 0.11688872E+04</pdfrwt>
<pdfrwt beam="2">  1       -1 0.44499768E-01 0.11688872E+04</pdfrwt>
<totfact> 0.54716463E+01</totfact>
</mgrwt>
</event>
<event>
12    1  0.4612066E-007  0.1302854E+04  0.7818608E-02  0.9027305E-01
         -2   -1    0    0    0  501 -0.00000000000E+00  0.00000000000E+00  0.62090371533E+03  0.62090371533E+03  0.00000000000E+00 0.  1.
          2   -1    0    0  501    0  0.00000000000E+00 -0.00000000000E+00 -0.68345095484E+03  0.68345095484E+03  0.00000000000E+00 0. -1.
         23    2    1    2    0    0 -0.29273738386E+03  0.16322548192E+03 -0.91286317373E+01  0.34679206399E+03  0.88564495545E+02 0.  0.
        254    2    1    2    0    0  0.29273738386E+03 -0.16322548192E+03 -0.53418607769E+02  0.95756260618E+03  0.89539648382E+03 0.  0.
        -24    2    4    4    0    0  0.45872072845E+03 -0.20824849684E+03 -0.34040099459E+03  0.61333904916E+03  0.80745333997E+02 0.  0.
         24    2    4    4    0    0 -0.16598334458E+03  0.45023014922E+02  0.28698238682E+03  0.34422355702E+03  0.80953222997E+02 0.  0.
         11    1    3    3    0    0 -0.99155677316E+02  0.22912656668E+02  0.26260920736E+02  0.10510220805E+03  0.00000000000E+00 0.  1.
        -11    1    3    3    0    0 -0.19358170655E+03  0.14031282525E+03 -0.35389552473E+02  0.24168985594E+03  0.00000000000E+00 0. -1.
          4    1    6    6  502    0 -0.16676810399E+03  0.26366613436E+02  0.23802902820E+03  0.29182977415E+03  0.00000000000E+00 0. -1.
          3    1    5    5  503    0  0.42316609464E+03 -0.17473908791E+03 -0.28416537059E+03  0.53884436560E+03  0.00000000000E+00 0. -1.
         -4    1    5    5    0  503  0.35554633809E+02 -0.33509408931E+02 -0.56235623999E+02  0.74494683560E+02  0.00000000000E+00 0.  1.
         -3    1    6    6    0  502  0.78475941201E+00  0.18656401486E+02  0.48953358620E+02  0.52393782874E+02  0.00000000000E+00 0.  1.
<mgrwt>
<rscale>  0 0.13028542E+04</rscale>
<asrwt>0</asrwt>
<pdfrwt beam="1">  1        2 0.10514630E+00 0.13028542E+04</pdfrwt>
<pdfrwt beam="2">  1       -2 0.95523648E-01 0.13028542E+04</pdfrwt>
<totfact> 0.38090450E+01</totfact>
</mgrwt>
</event>
<event>
12    1  0.4612066E-007  0.1430129E+04  0.7818608E-02  0.8932294E-01
         -2   -1    0    0    0  501 -0.00000000000E+00  0.00000000000E+00  0.59872046089E+03  0.59872046089E+03  0.00000000000E+00 0.  1.
          2   -1    0    0  501    0  0.00000000000E+00 -0.00000000000E+00 -0.85401683538E+03  0.85401683538E+03  0.00000000000E+00 0. -1.
         23    2    1    2    0    0 -0.33215082825E+03 -0.25606580162E+03 -0.13507720306E+03  0.45081310030E+03  0.95355823886E+02 0.  0.
        254    2    1    2    0    0  0.33215082825E+03  0.25606580162E+03 -0.12021917142E+03  0.10019241960E+04  0.90194544060E+03 0.  0.
        -24    2    4    4    0    0 -0.12283790223E+03 -0.14958692089E+03 -0.29635400296E+03  0.36262223955E+03  0.78764182347E+02 0.  0.
         24    2    4    4    0    0  0.45498873048E+03  0.40565272251E+03  0.17613483154E+03  0.63930195642E+03  0.78196140897E+02 0.  0.
         13    1    3    3    0    0 -0.12391864804E+03 -0.14604996776E+03 -0.34003210725E+02  0.19453185538E+03  0.00000000000E+00 0.  1.
        -13    1    3    3    0    0 -0.20823218021E+03 -0.11001583385E+03 -0.10107399234E+03  0.25628124492E+03  0.00000000000E+00 0. -1.
          2    1    6    6  502    0  0.29640784340E+03  0.28713358786E+03  0.84929022893E+02  0.42132676848E+03  0.00000000000E+00 0. -1.
          3    1    5    5  503    0  0.54759376056E+01 -0.37418140834E+02 -0.42805538322E+02  0.57117574066E+02  0.00000000000E+00 0. -1.
         -4    1    5    5    0  503 -0.12831383984E+03 -0.11216878006E+03 -0.25354846464E+03  0.30550466549E+03  0.00000000000E+00 0.  1.
         -1    1    6    6    0  502  0.15858088708E+03  0.11851913465E+03  0.91205808649E+02  0.21797518794E+03  0.00000000000E+00 0.  1.
<mgrwt>
<rscale>  0 0.14301292E+04</rscale>
<asrwt>0</asrwt>
<pdfrwt beam="1">  1        2 0.13138720E+00 0.14301292E+04</pdfrwt>
<pdfrwt beam="2">  1       -2 0.92110841E-01 0.14301292E+04</pdfrwt>
<totfact> 0.30682797E+01</totfact>
</mgrwt>
</event>
<event>
12    1  0.4612066E-007  0.1438781E+04  0.7818608E-02  0.8926216E-01
         -1   -1    0    0    0  501 -0.00000000000E+00  0.00000000000E+00  0.13561930043E+04  0.13561930043E+04  0.00000000000E+00 0.  1.
          1   -1    0    0  501    0  0.00000000000E+00 -0.00000000000E+00 -0.38159933798E+03  0.38159933798E+03  0.00000000000E+00 0. -1.
         23    2    1    2    0    0  0.36559766791E+03  0.78619746862E+02  0.54635318691E+03  0.66892194986E+03  0.95457062488E+02 0.  0.
        254    2    1    2    0    0 -0.36559766791E+03 -0.78619746862E+02  0.42824047937E+03  0.10688703924E+04  0.90512501245E+03 0.  0.
        -24    2    4    4    0    0 -0.47917854484E+03 -0.32445244620E+03  0.51126411544E+03  0.77619652767E+03  0.78794582050E+02 0.  0.
         24    2    4    4    0    0  0.11358087693E+03  0.24583269934E+03 -0.83023636061E+02  0.29267386471E+03  0.73693522581E+02 0.  0.
         13    1    3    3    0    0  0.24306401303E+03  0.52481558597E+01  0.34256561883E+03  0.42007006650E+03  0.00000000000E+00 0. -1.
        -13    1    3    3    0    0  0.12253365488E+03  0.73371591002E+02  0.20378756808E+03  0.24885188336E+03  0.00000000000E+00 0.  1.
          2    1    6    6  502    0  0.56076886900E+02  0.89650061870E+02 -0.67652289316E+02  0.12553319516E+03  0.00000000000E+00 0. -1.
          3    1    5    5  503    0 -0.42437419203E+03 -0.30317720008E+03  0.48349028955E+03  0.71117700300E+03  0.00000000000E+00 0. -1.
         -4    1    5    5    0  503 -0.54804352807E+02 -0.21275246120E+02  0.27773825887E+02  0.65019524671E+02  0.00000000000E+00 0.  1.
         -1    1    6    6    0  502  0.57503990027E+02  0.15618263747E+03 -0.15371346745E+02  0.16714066955E+03  0.00000000000E+00 0.  1.
<mgrwt>
<rscale>  0 0.14387805E+04</rscale>
<asrwt>0</asrwt>
<pdfrwt beam="1">  1        1 0.58707591E-01 0.14387805E+04</pdfrwt>
<pdfrwt beam="2">  1       -1 0.20864508E+00 0.14387805E+04</pdfrwt>
<totfact> 0.81538146E+00</totfact>
</mgrwt>
</event>
<event>
12    1  0.4612066E-007  0.1548105E+04  0.7818608E-02  0.8853079E-01
         -1   -1    0    0    0  501 -0.00000000000E+00  0.00000000000E+00  0.35705615261E+03  0.35705615261E+03  0.00000000000E+00 0.  1.
          1   -1    0    0  501    0  0.00000000000E+00 -0.00000000000E+00 -0.16780478277E+04  0.16780478277E+04  0.00000000000E+00 0. -1.
         23    2    1    2    0    0 -0.95191043811E+02 -0.25336681361E+03  0.11932567471E+03  0.30959171842E+03  0.91391128715E+02 0.  0.
        254    2    1    2    0    0  0.95191043811E+02  0.25336681361E+03 -0.14403173498E+04  0.17255122619E+04  0.91083611083E+03 0.  0.
        -24    2    4    4    0    0 -0.30211055338E+03  0.38132955819E+03 -0.99068891510E+03  0.11066590953E+04  0.80912349702E+02 0.  0.
         24    2    4    4    0    0  0.39730159719E+03 -0.12796274458E+03 -0.44962843475E+03  0.61885316662E+03  0.81181829133E+02 0.  0.
         13    1    3    3    0    0 -0.11017141453E+02 -0.26654342358E+01 -0.10084120961E+02  0.15171402078E+02  0.00000000000E+00 0. -1.
        -13    1    3    3    0    0 -0.84173902358E+02 -0.25070137937E+03  0.12940979567E+03  0.29442031634E+03  0.00000000000E+00 0.  1.
          2    1    6    6  502    0  0.31594260162E+03 -0.10029071664E+03 -0.30406210076E+03  0.44981297945E+03  0.00000000000E+00 0. -1.
          3    1    5    5  503    0 -0.15643257120E+03  0.15615263363E+03 -0.51802134892E+03  0.56320592350E+03  0.00000000000E+00 0. -1.
         -4    1    5    5    0  503 -0.14567798217E+03  0.22517692456E+03 -0.47266756618E+03  0.54345317182E+03  0.00000000000E+00 0.  1.
         -1    1    6    6    0  502  0.81358995566E+02 -0.27672027939E+02 -0.14556633399E+03  0.16904018717E+03  0.00000000000E+00 0.  1.
<mgrwt>
<rscale>  0 0.15481050E+04</rscale>
<asrwt>0</asrwt>
<pdfrwt beam="1">  1        1 0.25816120E+00 0.15481050E+04</pdfrwt>
<pdfrwt beam="2">  1       -1 0.54931717E-01 0.15481050E+04</pdfrwt>
<totfact> 0.15921724E+01</totfact>
</mgrwt>
</event>
<event>
12    1  0.4612066E-007  0.2231892E+04  0.7818608E-02  0.8505270E-01
          1   -1    0    0  501    0  0.00000000000E+00  0.00000000000E+00  0.16702191937E+04  0.16702191937E+04  0.00000000000E+00 0. -1.
         -1   -1    0    0    0  501 -0.00000000000E+00 -0.00000000000E+00 -0.74561193306E+03  0.74561193306E+03  0.00000000000E+00 0.  1.
         23    2    1    2    0    0  0.44771954701E+03 -0.15986422753E+03 -0.48229922405E+03  0.68336442792E+03  0.91460569734E+02 0.  0.
        254    2    1    2    0    0 -0.44771954701E+03  0.15986422753E+03  0.14069064847E+04  0.17324666989E+04  0.89221389919E+03 0.  0.
        -24    2    4    4    0    0 -0.54793462875E+03  0.17629848184E+03  0.37334457191E+03  0.69080560247E+03  0.80701294584E+02 0.  0.
         24    2    4    4    0    0  0.10021508175E+03 -0.16434254316E+02  0.10335619128E+04  0.10416610964E+04  0.80588242276E+02 0.  0.
         11    1    3    3    0    0  0.10189455705E+03 -0.43359707092E+01 -0.73049658288E+02  0.12544940803E+03  0.00000000000E+00 0. -1.
        -11    1    3    3    0    0  0.34582498995E+03 -0.15552825682E+03 -0.40924956576E+03  0.55791501989E+03  0.00000000000E+00 0.  1.
          4    1    6    6  502    0  0.92986753416E+02 -0.81683848083E+00  0.99615071891E+03  0.10004816132E+04  0.00000000000E+00 0. -1.
          3    1    5    5  503    0 -0.41693245906E+03  0.10276156545E+03  0.29846937809E+03  0.52294988709E+03  0.00000000000E+00 0. -1.
         -4    1    5    5    0  503 -0.13100216969E+03  0.73536916395E+02  0.74875193824E+02  0.16785571539E+03  0.00000000000E+00 0.  1.
         -3    1    6    6    0  502  0.72283283340E+01 -0.15617415835E+02  0.37411193892E+02  0.41179483196E+02  0.00000000000E+00 0.  1.
<mgrwt>
<rscale>  0 0.22318919E+04</rscale>
<asrwt>0</asrwt>
<pdfrwt beam="1">  1        1 0.25695680E+00 0.22318919E+04</pdfrwt>
<pdfrwt beam="2">  1       -1 0.11470953E+00 0.22318919E+04</pdfrwt>
<totfact> 0.31358100E+00</totfact>
</mgrwt>
</event>
<event>
12    1  0.4612066E-007  0.3115781E+04  0.7818608E-02  0.8211420E-01
         -2   -1    0    0    0  501 -0.00000000000E+00  0.00000000000E+00  0.35724334956E+04  0.35724334956E+04  0.00000000000E+00 0.  1.
          2   -1    0    0  501    0  0.00000000000E+00 -0.00000000000E+00 -0.67937510529E+03  0.67937510529E+03  0.00000000000E+00 0. -1.
         23    2    1    2    0    0 -0.60820290512E+03 -0.90543108206E+03  0.25724359751E+04  0.27956913801E+04  0.93526619061E+02 0.  0.
        254    2    1    2    0    0  0.60820290512E+03  0.90543108206E+03  0.32062241513E+03  0.14561172207E+04  0.90981449169E+03 0.  0.
        -24    2    4    4    0    0 -0.15100142646E+03 -0.66582412329E+02  0.17441087822E+02  0.18346650989E+03  0.78237588686E+02 0.  0.
         24    2    4    4    0    0  0.75920433158E+03  0.97201349439E+03  0.30318132730E+03  0.12726507108E+04  0.80743199317E+02 0.  0.
         11    1    3    3    0    0 -0.51931333941E+03 -0.70973756718E+03  0.20955042444E+04  0.22725650259E+04  0.00000000000E+00 0.  1.
        -11    1    3    3    0    0 -0.88889565715E+02 -0.19569351488E+03  0.47693173077E+03  0.52312635421E+03  0.00000000000E+00 0. -1.
          2    1    6    6  502    0  0.49651962867E+03  0.60053822097E+03  0.15794805812E+03  0.79506319596E+03  0.00000000000E+00 0. -1.
          3    1    5    5  503    0 -0.10899915016E+03 -0.74676695353E+02  0.35841678303E+02  0.13690160506E+03  0.00000000000E+00 0. -1.
         -4    1    5    5    0  503 -0.42002276301E+02  0.80942830239E+01 -0.18400590481E+02  0.46564904833E+02  0.00000000000E+00 0.  1.
         -1    1    6    6    0  502  0.26268470291E+03  0.37147527341E+03  0.14523326918E+03  0.47758751489E+03  0.00000000000E+00 0.  1.
<mgrwt>
<rscale>  0 0.31157807E+04</rscale>
<asrwt>0</asrwt>
<pdfrwt beam="1">  1        2 0.10451925E+00 0.31157807E+04</pdfrwt>
<pdfrwt beam="2">  1       -2 0.54960514E+00 0.31157807E+04</pdfrwt>
<totfact> 0.30734291E-02</totfact>
</mgrwt>
</event>
<event>
12    1  0.4612066E-007  0.1007305E+04  0.7818608E-02  0.9300568E-01
         -1   -1    0    0    0  501 -0.00000000000E+00  0.00000000000E+00  0.54047981847E+03  0.54047981847E+03  0.00000000000E+00 0.  1.
          1   -1    0    0  501    0  0.00000000000E+00 -0.00000000000E+00 -0.46933494011E+03  0.46933494011E+03  0.00000000000E+00 0. -1.
         23    2    1    2    0    0  0.88511934588E+01  0.65017866238E+02  0.18842794470E+02  0.10885806345E+03  0.84790096825E+02 0.  0.
        254    2    1    2    0    0 -0.88511934588E+01 -0.65017866238E+02  0.52302083892E+02  0.90095669513E+03  0.89704057431E+03 0.  0.
        -24    2    4    4    0    0  0.11564022791E+03  0.29444769912E+03  0.29577046279E+03  0.44223899305E+03  0.89571482557E+02 0.  0.
         24    2    4    4    0    0 -0.12449142137E+03 -0.35946556536E+03 -0.24346837890E+03  0.45871770208E+03  0.80196458804E+02 0.  0.
         13    1    3    3    0    0 -0.22424489351E+02  0.63324147737E+02  0.32574638966E+02  0.74658639908E+02  0.00000000000E+00 0.  1.
        -13    1    3    3    0    0  0.31275682809E+02  0.16937185011E+01 -0.13731844496E+02  0.34199423545E+02  0.00000000000E+00 0. -1.
          4    1    6    6  502    0 -0.10693641333E+03 -0.35075626993E+03 -0.24138042134E+03  0.43901009692E+03  0.00000000000E+00 0. -1.
          3    1    5    5  503    0  0.10988008525E+03  0.23626875663E+03  0.27824692555E+03  0.38120586312E+03  0.00000000000E+00 0. -1.
         -4    1    5    5    0  503  0.57601426594E+01  0.58178942484E+02  0.17523537239E+02  0.61033129933E+02  0.00000000000E+00 0.  1.
         -3    1    6    6    0  502 -0.17555008043E+02 -0.87092954226E+01 -0.20879575539E+01  0.19707605154E+02  0.00000000000E+00 0.  1.
<mgrwt>
<rscale>  0 0.10073054E+04</rscale>
<asrwt>0</asrwt>
<pdfrwt beam="1">  1        1 0.72205376E-01 0.10073054E+04</pdfrwt>
<pdfrwt beam="2">  1       -1 0.83150741E-01 0.10073054E+04</pdfrwt>
<totfact> 0.69623230E+01</totfact>
</mgrwt>
</event>
<event>
12    1  0.4612066E-007  0.1649813E+04  0.7818608E-02  0.8790517E-01
          2   -1    0    0  501    0  0.00000000000E+00  0.00000000000E+00  0.19413652970E+04  0.19413652970E+04  0.00000000000E+00 0. -1.
         -2   -1    0    0    0  501 -0.00000000000E+00 -0.00000000000E+00 -0.35051131855E+03  0.35051131855E+03  0.00000000000E+00 0.  1.
         23    2    1    2    0    0 -0.55282844906E+03  0.51969528609E+02  0.31421950315E+03  0.64527627451E+03  0.96578715531E+02 0.  0.
        254    2    1    2    0    0  0.55282844906E+03 -0.51969528609E+02  0.12766344753E+04  0.16466003411E+04  0.87930482406E+03 0.  0.
        -24    2    4    4    0    0  0.16461252170E+03 -0.79623244940E+02  0.12306551703E+04  0.12468601606E+04  0.81920500747E+02 0.  0.
         24    2    4    4    0    0  0.38821592735E+03  0.27653716332E+02  0.45979305004E+02  0.39974018046E+03  0.78751387948E+02 0.  0.
         13    1    3    3    0    0 -0.32967136430E+03  0.74121084199E+02  0.16607540207E+03  0.37650787872E+03  0.00000000000E+00 0.  1.
        -13    1    3    3    0    0 -0.22315708476E+03 -0.22151555591E+02  0.14814410108E+03  0.26876839579E+03  0.00000000000E+00 0. -1.
          4    1    6    6  502    0  0.27317933469E+03 -0.16874659583E+02  0.29305687037E+02  0.27526446616E+03  0.00000000000E+00 0. -1.
          3    1    5    5  503    0  0.50197441357E+02 -0.13339167365E+02  0.61371007964E+03  0.61590403340E+03  0.00000000000E+00 0. -1.
         -4    1    5    5    0  503  0.11441508035E+03 -0.66284077575E+02  0.61694509069E+03  0.63095612722E+03  0.00000000000E+00 0.  1.
         -3    1    6    6    0  502  0.11503659267E+03  0.44528375914E+02  0.16673617967E+02  0.12447571430E+03  0.00000000000E+00 0.  1.
<mgrwt>
<rscale>  0 0.16498127E+04</rscale>
<asrwt>0</asrwt>
<pdfrwt beam="1">  1        2 0.29867158E+00 0.16498127E+04</pdfrwt>
<pdfrwt beam="2">  1       -2 0.53924819E-01 0.16498127E+04</pdfrwt>
<totfact> 0.22286938E+01</totfact>
</mgrwt>
</event>
<event>
12    1  0.4612066E-007  0.2773802E+04  0.7818608E-02  0.8311448E-01
          2   -1    0    0  501    0  0.00000000000E+00  0.00000000000E+00  0.18176897102E+04  0.18176897102E+04  0.00000000000E+00 0.  1.
         -2   -1    0    0    0  501 -0.00000000000E+00 -0.00000000000E+00 -0.10582085929E+04  0.10582085929E+04  0.00000000000E+00 0. -1.
         23    2    1    2    0    0 -0.10622039145E+04 -0.45644827967E+03  0.80956633580E+03  0.14144518122E+04  0.93027356376E+02 0.  0.
        254    2    1    2    0    0  0.10622039145E+04  0.45644827967E+03 -0.50085218524E+02  0.14614464909E+04  0.89257779976E+03 0.  0.
        -24    2    4    4    0    0  0.30367507018E+03  0.59655656219E+03 -0.11217093321E+03  0.68318613173E+03  0.77863291700E+02 0.  0.
         24    2    4    4    0    0  0.75852884429E+03 -0.14010828252E+03  0.62085714685E+02  0.77826035913E+03  0.82693483335E+02 0.  0.
         11    1    3    3    0    0 -0.23115381881E+03 -0.13781546856E+03  0.20898535698E+03  0.34073460458E+03  0.00000000000E+00 0.  1.
        -11    1    3    3    0    0 -0.83105009566E+03 -0.31863281111E+03  0.60058097882E+03  0.10737172076E+04  0.00000000000E+00 0. -1.
          2    1    6    6  502    0  0.19661053303E+01 -0.27926080418E+01  0.64853193521E+01  0.73296382546E+01  0.00000000000E+00 0. -1.
          3    1    5    5  503    0  0.22156611175E+02  0.99822228457E+02 -0.28310504774E+02  0.10609843257E+03  0.00000000000E+00 0. -1.
         -4    1    5    5    0  503  0.28151845900E+03  0.49673433373E+03 -0.83860428434E+02  0.57708769916E+03  0.00000000000E+00 0.  1.
         -1    1    6    6    0  502  0.75656273896E+03 -0.13731567447E+03  0.55600395332E+02  0.77093072088E+03  0.00000000000E+00 0.  1.
<mgrwt>
<rscale>  0 0.27738024E+04</rscale>
<asrwt>0</asrwt>
<pdfrwt beam="1">  1        2 0.27964457E+00 0.27738024E+04</pdfrwt>
<pdfrwt beam="2">  1       -2 0.16280132E+00 0.27738024E+04</pdfrwt>
<totfact> 0.17673444E+00</totfact>
</mgrwt>
</event>
<event>
12    1  0.4612066E-007  0.1715672E+04  0.7818608E-02  0.8752476E-01
         -2   -1    0    0    0  501 -0.00000000000E+00  0.00000000000E+00  0.36901307434E+03  0.36901307434E+03  0.00000000000E+00 0. -1.
          2   -1    0    0  501    0  0.00000000000E+00 -0.00000000000E+00 -0.19941915946E+04  0.19941915946E+04  0.00000000000E+00 0.  1.
         23    2    1    2    0    0 -0.22193266492E+02  0.17024121983E+03  0.22902236550E+03  0.30015618736E+03  0.90376318260E+02 0.  0.
        254    2    1    2    0    0  0.22193266492E+02 -0.17024121983E+03 -0.18542008858E+04  0.20630484816E+04  0.88805039193E+03 0.  0.
        -24    2    4    4    0    0  0.10649233251E+03  0.29663993794E+03 -0.32393306165E+03  0.45886000528E+03  0.79271724798E+02 0.  0.
         24    2    4    4    0    0 -0.84299066015E+02 -0.46688115777E+03 -0.15302678242E+04  0.16041884763E+04  0.81343137196E+02 0.  0.
         11    1    3    3    0    0 -0.55010521107E+02  0.13537049807E+03  0.17387540779E+03  0.22712108359E+03  0.00000000000E+00 0. -1.
        -11    1    3    3    0    0  0.32817254614E+02  0.34870721760E+02  0.55146957718E+02  0.73035103766E+02  0.00000000000E+00 0.  1.
          4    1    6    6  502    0 -0.88083600502E+01 -0.16958616626E+01 -0.16802093847E+02  0.19046614166E+02  0.00000000000E+00 0. -1.
          1    1    5    5  503    0 -0.12200854194E+02  0.17479420108E+02 -0.26689429607E+02  0.34157233833E+02  0.00000000000E+00 0. -1.
         -2    1    5    5    0  503  0.11869318670E+03  0.27916051783E+03 -0.29724363204E+03  0.42470277145E+03  0.00000000000E+00 0.  1.
         -3    1    6    6    0  502 -0.75490705965E+02 -0.46518529611E+03 -0.15134657303E+04  0.15851418622E+04  0.00000000000E+00 0.  1.
<mgrwt>
<rscale>  0 0.17156722E+04</rscale>
<asrwt>0</asrwt>
<pdfrwt beam="1">  1        2 0.30679870E+00 0.17156722E+04</pdfrwt>
<pdfrwt beam="2">  1       -2 0.56771243E-01 0.17156722E+04</pdfrwt>
<totfact> 0.18616256E+01</totfact>
</mgrwt>
</event>
<event>
12    1  0.4612066E-007  0.2173708E+04  0.7818608E-02  0.8529452E-01
          1   -1    0    0  501    0  0.00000000000E+00  0.00000000000E+00  0.17312583538E+04  0.17312583538E+04  0.00000000000E+00 0. -1.
         -1   -1    0    0    0  501 -0.00000000000E+00 -0.00000000000E+00 -0.68230808990E+03  0.68230808990E+03  0.00000000000E+00 0.  1.
         23    2    1    2    0    0 -0.52354325398E+02  0.65480290810E+03 -0.24322014438E+03  0.70624507850E+03  0.90101323120E+02 0.  0.
        254    2    1    2    0    0  0.52354325398E+02 -0.65480290810E+03  0.12921704083E+04  0.17073213652E+04  0.90207209036E+03 0.  0.
        -24    2    4    4    0    0  0.14474735308E+03 -0.84746282428E+03  0.86077258262E+03  0.12191750946E+04  0.79457142018E+02 0.  0.
         24    2    4    4    0    0 -0.92393027678E+02  0.19265991618E+03  0.43139782566E+03  0.48814627066E+03  0.80798407822E+02 0.  0.
         11    1    3    3    0    0  0.12000977843E+02  0.63699435074E+02 -0.47152417946E+02  0.80156047907E+02  0.00000000000E+00 0.  1.
        -11    1    3    3    0    0 -0.64355303241E+02  0.59110347303E+03 -0.19606772644E+03  0.62608903060E+03  0.00000000000E+00 0. -1.
          2    1    6    6  502    0 -0.40206885689E+02  0.15382187366E+03  0.25926963613E+03  0.30413567152E+03  0.00000000000E+00 0. -1.
          3    1    5    5  503    0  0.59730846915E+02 -0.53245737809E+03  0.56742785485E+03  0.78041848006E+03  0.00000000000E+00 0. -1.
         -4    1    5    5    0  503  0.85016506161E+02 -0.31500544619E+03  0.29334472777E+03  0.43875661449E+03  0.00000000000E+00 0.  1.
         -1    1    6    6    0  502 -0.52186141990E+02  0.38838042513E+02  0.17212818954E+03  0.18401059914E+03  0.00000000000E+00 0.  1.
<mgrwt>
<rscale>  0 0.21737080E+04</rscale>
<asrwt>0</asrwt>
<pdfrwt beam="1">  1        1 0.26634744E+00 0.21737080E+04</pdfrwt>
<pdfrwt beam="2">  1       -1 0.10497048E+00 0.21737080E+04</pdfrwt>
<totfact> 0.35321071E+00</totfact>
</mgrwt>
</event>
<event>
12    1  0.4612066E-007  0.3458348E+04  0.7818608E-02  0.8123732E-01
          2   -1    0    0  501    0  0.00000000000E+00  0.00000000000E+00  0.10227858948E+04  0.10227858948E+04  0.00000000000E+00 0. -1.
         -2   -1    0    0    0  501 -0.00000000000E+00 -0.00000000000E+00 -0.29234303609E+04  0.29234303609E+04  0.00000000000E+00 0.  1.
         23    2    1    2    0    0 -0.15256680569E+04  0.43067189553E+03 -0.55318230558E+03  0.16814027464E+04  0.89236936220E+02 0.  0.
        254    2    1    2    0    0  0.15256680569E+04 -0.43067189553E+03 -0.13474621605E+04  0.22648135094E+04  0.89475396438E+03 0.  0.
        -24    2    4    4    0    0  0.10227928604E+04  0.12737201722E+03 -0.56879113534E+03  0.11798841815E+04  0.79211490159E+02 0.  0.
         24    2    4    4    0    0  0.50287519653E+03 -0.55804391275E+03 -0.77867102520E+03  0.10849293279E+04  0.80290778591E+02 0.  0.
         13    1    3    3    0    0 -0.82560159116E+03  0.19337842158E+03 -0.31975636845E+03  0.90623249579E+03  0.00000000000E+00 0.  1.
        -13    1    3    3    0    0 -0.70006646575E+03  0.23729347395E+03 -0.23342593713E+03  0.77517025057E+03  0.00000000000E+00 0. -1.
          4    1    6    6  502    0  0.30097853535E+03 -0.38276125426E+03 -0.53134168026E+03  0.72070676262E+03  0.00000000000E+00 0. -1.
          3    1    5    5  503    0  0.97350350776E+03  0.10400750360E+03 -0.54308301594E+03  0.11195828699E+04  0.00000000000E+00 0. -1.
         -4    1    5    5    0  503  0.49289352625E+02  0.23364513624E+02 -0.25708119400E+02  0.60301311613E+02  0.00000000000E+00 0.  1.
         -3    1    6    6    0  502  0.20189666118E+03 -0.17528265848E+03 -0.24732934494E+03  0.36422256524E+03  0.00000000000E+00 0.  1.
<mgrwt>
<rscale>  0 0.34583484E+04</rscale>
<asrwt>0</asrwt>
<pdfrwt beam="1">  1        2 0.15735168E+00 0.34583484E+04</pdfrwt>
<pdfrwt beam="2">  1       -2 0.44975851E+00 0.34583484E+04</pdfrwt>
<totfact> 0.69877901E-02</totfact>
</mgrwt>
</event>
<event>
12    1  0.5000513E-007  0.2884749E+04  0.7818608E-02  0.8277430E-01
          2   -1    0    0  501    0  0.00000000000E+00  0.00000000000E+00  0.18605084216E+04  0.18605084216E+04  0.00000000000E+00 0. -1.
         -2   -1    0    0    0  501 -0.00000000000E+00 -0.00000000000E+00 -0.11182125185E+04  0.11182125185E+04  0.00000000000E+00 0.  1.
         23    2    1    2    0    0 -0.11425829684E+04  0.51558823155E+03  0.68775512363E+03  0.14327074119E+04  0.91194045534E+02 0.  0.
        254    2    1    2    0    0  0.11425829684E+04 -0.51558823155E+03  0.54540779430E+02  0.15460135282E+04  0.90324751247E+03 0.  0.
        -24    2    4    4    0    0  0.66047892063E+03 -0.52284258326E+03  0.41106739352E+03  0.94078735705E+03  0.80670178430E+02 0.  0.
         24    2    4    4    0    0  0.48210404773E+03  0.72543517081E+01 -0.35652661409E+03  0.60522617119E+03  0.81917966812E+02 0.  0.
         11    1    3    3    0    0 -0.37841496458E+03  0.21429612459E+03  0.25812891929E+03  0.50571855158E+03  0.00000000000E+00 0. -1.
        -11    1    3    3    0    0 -0.76416800378E+03  0.30129210697E+03  0.42962620434E+03  0.92698886033E+03  0.00000000000E+00 0.  1.
          4    1    6    6  502    0  0.47549781249E+03  0.17058578388E+02 -0.35422570889E+03  0.59318211168E+03  0.00000000000E+00 0. -1.
          1    1    5    5  503    0  0.58299981271E+03 -0.43357940692E+03  0.33372079048E+03  0.79953076847E+03  0.00000000000E+00 0. -1.
         -2    1    5    5    0  503  0.77479107925E+02 -0.89263176342E+02  0.77346603044E+02  0.14125658858E+03  0.00000000000E+00 0.  1.
         -3    1    6    6    0  502  0.66062352308E+01 -0.98042266795E+01 -0.23009052079E+01  0.12044059510E+02  0.00000000000E+00 0.  1.
<mgrwt>
<rscale>  0 0.28847487E+04</rscale>
<asrwt>0</asrwt>
<pdfrwt beam="1">  1        2 0.28623206E+00 0.28847487E+04</pdfrwt>
<pdfrwt beam="2">  1       -2 0.17203270E+00 0.28847487E+04</pdfrwt>
<totfact> 0.14230862E+00</totfact>
</mgrwt>
</event>
<event>
12    1  0.4612066E-007  0.1400119E+04  0.7818608E-02  0.8953733E-01
          1   -1    0    0  501    0  0.00000000000E+00  0.00000000000E+00  0.19299153344E+04  0.19299153344E+04  0.00000000000E+00 0. -1.
         -1   -1    0    0    0  501 -0.00000000000E+00 -0.00000000000E+00 -0.25394018775E+03  0.25394018775E+03  0.00000000000E+00 0.  1.
         23    2    1    2    0    0 -0.91105505002E+01  0.37990450478E+03  0.26707394789E+03  0.47337840625E+03  0.91368413474E+02 0.  0.
        254    2    1    2    0    0  0.91105505002E+01 -0.37990450478E+03  0.14089011988E+04  0.17104771160E+04  0.89236704406E+03 0.  0.
        -24    2    4    4    0    0 -0.23110905341E+02 -0.44827367560E+03  0.20114446627E+03  0.49792758900E+03  0.77391119627E+02 0.  0.
         24    2    4    4    0    0  0.32221455842E+02  0.68369170825E+02  0.12077567325E+04  0.12125495270E+04  0.76729815542E+02 0.  0.
         13    1    3    3    0    0 -0.26863718129E+02  0.17351590308E+03  0.75166586515E+02  0.19099592587E+03  0.00000000000E+00 0. -1.
        -13    1    3    3    0    0  0.17753167629E+02  0.20638860170E+03  0.19190736137E+03  0.28238248037E+03  0.00000000000E+00 0.  1.
          2    1    6    6  502    0  0.43322677052E+02  0.68571583815E+02  0.11779955999E+04  0.11807847178E+04  0.00000000000E+00 0. -1.
          1    1    5    5  503    0  0.77237797475E+01 -0.37775078395E+03  0.17720730908E+03  0.41732210814E+03  0.00000000000E+00 0. -1.
         -2    1    5    5    0  503 -0.30834685089E+02 -0.70522891655E+02  0.23937157189E+02  0.80605480870E+02  0.00000000000E+00 0.  1.
         -1    1    6    6    0  502 -0.11101221210E+02 -0.20241299021E+00  0.29761132606E+02  0.31764809103E+02  0.00000000000E+00 0.  1.
<mgrwt>
<rscale>  0 0.14001187E+04</rscale>
<asrwt>0</asrwt>
<pdfrwt beam="1">  1        1 0.29691004E+00 0.14001187E+04</pdfrwt>
<pdfrwt beam="2">  1       -1 0.39067723E-01 0.14001187E+04</pdfrwt>
<totfact> 0.20631578E+01</totfact>
</mgrwt>
</event>
<event>
12    1  0.4612066E-007  0.1445318E+04  0.7818608E-02  0.8921653E-01
          1   -1    0    0  501    0  0.00000000000E+00  0.00000000000E+00  0.17293886469E+04  0.17293886469E+04  0.00000000000E+00 0. -1.
         -1   -1    0    0    0  501 -0.00000000000E+00 -0.00000000000E+00 -0.30197737224E+03  0.30197737224E+03  0.00000000000E+00 0.  1.
         23    2    1    2    0    0 -0.10447152945E+03 -0.27102615749E+03 -0.17594847677E+02  0.30264519282E+03  0.83156813065E+02 0.  0.
        254    2    1    2    0    0  0.10447152945E+03  0.27102615749E+03  0.14450061224E+04  0.17287208264E+04  0.90336234330E+03 0.  0.
        -24    2    4    4    0    0 -0.31631637204E+03  0.37532428988E+03  0.89519824398E+03  0.10240339201E+04  0.79631674635E+02 0.  0.
         24    2    4    4    0    0  0.42078790149E+03 -0.10429813239E+03  0.54980787839E+03  0.70468690630E+03  0.79714329423E+02 0.  0.
         13    1    3    3    0    0 -0.79649364979E+02 -0.26399619479E+03 -0.21348591023E+02  0.27657507940E+03  0.00000000000E+00 0.  1.
        -13    1    3    3    0    0 -0.24822164471E+02 -0.70299627052E+01  0.37537433460E+01  0.26070113421E+02  0.00000000000E+00 0. -1.
          2    1    6    6  502    0  0.29039732846E+03 -0.83100026494E+02  0.43548846383E+03  0.52998719315E+03  0.00000000000E+00 0. -1.
          1    1    5    5  503    0 -0.25463725571E+02  0.62816618205E+02  0.90095438568E+02  0.11274536307E+03  0.00000000000E+00 0. -1.
         -2    1    5    5    0  503 -0.29085264647E+03  0.31250767168E+03  0.80510280542E+03  0.91128855699E+03  0.00000000000E+00 0.  1.
         -1    1    6    6    0  502  0.13039057303E+03 -0.21198105897E+02  0.11431941456E+03  0.17469971315E+03  0.00000000000E+00 0.  1.
<mgrwt>
<rscale>  0 0.14453183E+04</rscale>
<asrwt>0</asrwt>
<pdfrwt beam="1">  1        1 0.26605979E+00 0.14453183E+04</pdfrwt>
<pdfrwt beam="2">  1       -1 0.46458058E-01 0.14453183E+04</pdfrwt>
<totfact> 0.20400632E+01</totfact>
</mgrwt>
</event>
<event>
12    1  0.4612066E-007  0.1323145E+04  0.7818608E-02  0.9011410E-01
         -4   -1    0    0    0  501 -0.00000000000E+00  0.00000000000E+00  0.29898081602E+03  0.29898081602E+03  0.00000000000E+00 0.  1.
          4   -1    0    0  501    0  0.00000000000E+00 -0.00000000000E+00 -0.14638994899E+04  0.14638994899E+04  0.00000000000E+00 0. -1.
         23    2    1    2    0    0  0.18415033245E+03  0.29139189755E+03 -0.33066256239E+03  0.48608030001E+03  0.90087429699E+02 0.  0.
        254    2    1    2    0    0 -0.18415033245E+03 -0.29139189755E+03 -0.83425611154E+03  0.12768000060E+04  0.90300299706E+03 0.  0.
        -24    2    4    4    0    0  0.29634872659E+03 -0.14560413936E+02 -0.59010696996E+03  0.66536833365E+03  0.80338098207E+02 0.  0.
         24    2    4    4    0    0 -0.48049905904E+03 -0.27683148361E+03 -0.24414914157E+03  0.61143167231E+03  0.82005307848E+02 0.  0.
         11    1    3    3    0    0  0.81712807952E+02  0.55093095520E+02 -0.84610173736E+02  0.12988885117E+03  0.00000000000E+00 0. -1.
        -11    1    3    3    0    0  0.10243752450E+03  0.23629880203E+03 -0.24605238865E+03  0.35619144884E+03  0.00000000000E+00 0.  1.
          2    1    6    6  502    0 -0.90975114495E+02 -0.36166510864E+02 -0.74946897692E+02  0.12329446638E+03  0.00000000000E+00 0. -1.
          3    1    5    5  503    0  0.39074939403E+01  0.86844261899E+00  0.22384438711E+01  0.45862111204E+01  0.00000000000E+00 0. -1.
         -4    1    5    5    0  503  0.29244123265E+03 -0.15428856555E+02 -0.59234541383E+03  0.66078212253E+03  0.00000000000E+00 0.  1.
         -1    1    6    6    0  502 -0.38952394455E+03 -0.24066497275E+03 -0.16920224388E+03  0.48813720593E+03  0.00000000000E+00 0.  1.
<mgrwt>
<rscale>  0 0.13231445E+04</rscale>
<asrwt>0</asrwt>
<pdfrwt beam="1">  1        4 0.22521531E+00 0.13231445E+04</pdfrwt>
<pdfrwt beam="2">  1       -4 0.45997049E-01 0.13231445E+04</pdfrwt>
<totfact> 0.81236323E-01</totfact>
</mgrwt>
</event>
<event>
12    1  0.4612066E-007  0.1629551E+04  0.7818608E-02  0.8802597E-01
         -2   -1    0    0    0  501 -0.00000000000E+00  0.00000000000E+00  0.26524932064E+03  0.26524932064E+03  0.00000000000E+00 0.  1.
          2   -1    0    0  501    0  0.00000000000E+00 -0.00000000000E+00 -0.25027739984E+04  0.25027739984E+04  0.00000000000E+00 0. -1.
         23    2    1    2    0    0  0.39570898864E+03 -0.41337548691E+03 -0.68446783292E+03  0.89678892510E+03  0.90935499208E+02 0.  0.
        254    2    1    2    0    0 -0.39570898864E+03  0.41337548691E+03 -0.15530568448E+04  0.18712343939E+04  0.87296488868E+03 0.  0.
        -24    2    4    4    0    0  0.24704123236E+03  0.25615072419E+03 -0.68127549735E+03  0.77370974103E+03  0.88588351838E+02 0.  0.
         24    2    4    4    0    0 -0.64275022100E+03  0.15722476272E+03 -0.87178134746E+03  0.10975246529E+04  0.81915647400E+02 0.  0.
         11    1    3    3    0    0  0.18704747995E+03 -0.19524780306E+03 -0.25360710429E+03  0.37070881794E+03  0.00000000000E+00 0.  1.
        -11    1    3    3    0    0  0.20866150868E+03 -0.21812768384E+03 -0.43086072863E+03  0.52608010715E+03  0.00000000000E+00 0. -1.
          4    1    6    6  502    0 -0.17521839430E+03  0.24128651472E+02 -0.28651197561E+03  0.33670876094E+03  0.00000000000E+00 0. -1.
          3    1    5    5  503    0  0.47658386769E+02  0.45676561809E+02 -0.64985801733E+02  0.92632740190E+02  0.00000000000E+00 0. -1.
         -4    1    5    5    0  503  0.19938284559E+03  0.21047416238E+03 -0.61628969562E+03  0.68107700084E+03  0.00000000000E+00 0.  1.
         -3    1    6    6    0  502 -0.46753182670E+03  0.13309611125E+03 -0.58526937185E+03  0.76081589194E+03  0.00000000000E+00 0.  1.
<mgrwt>
<rscale>  0 0.16295510E+04</rscale>
<asrwt>0</asrwt>
<pdfrwt beam="1">  1        2 0.38504216E+00 0.16295510E+04</pdfrwt>
<pdfrwt beam="2">  1       -2 0.40807588E-01 0.16295510E+04</pdfrwt>
<totfact> 0.18907575E+01</totfact>
</mgrwt>
</event>
<event>
12    1  0.4612066E-007  0.1853506E+04  0.7818608E-02  0.8678352E-01
          1   -1    0    0  501    0  0.00000000000E+00  0.00000000000E+00  0.23388698895E+04  0.23388698895E+04  0.00000000000E+00 0. -1.
         -1   -1    0    0    0  501 -0.00000000000E+00 -0.00000000000E+00 -0.36721626650E+03  0.36721626650E+03  0.00000000000E+00 0.  1.
         23    2    1    2    0    0  0.59024477756E+02 -0.70368091706E+03  0.76889729971E+03  0.10483120441E+04  0.95416782088E+02 0.  0.
        254    2    1    2    0    0 -0.59024477756E+02  0.70368091706E+03  0.12027563232E+04  0.16577741119E+04  0.89607003678E+03 0.  0.
        -24    2    4    4    0    0  0.17836281602E+03  0.78782622955E+03  0.11157266294E+04  0.13797619540E+04  0.80085429404E+02 0.  0.
         24    2    4    4    0    0 -0.23738729378E+03 -0.84145312488E+02  0.87029693823E+02  0.27801215785E+03  0.79268098538E+02 0.  0.
         11    1    3    3    0    0  0.67761347491E+02 -0.38754573327E+03  0.47278369964E+03  0.61506725017E+03  0.00000000000E+00 0. -1.
        -11    1    3    3    0    0 -0.87368697347E+01 -0.31613518379E+03  0.29611360007E+03  0.43324479393E+03  0.00000000000E+00 0.  1.
          4    1    6    6  502    0 -0.13376145602E+03 -0.69971597113E+02  0.85335223131E+02  0.17340776172E+03  0.00000000000E+00 0. -1.
          3    1    5    5  503    0  0.12869107799E+03  0.41877723685E+03  0.64100943512E+03  0.77642054556E+03  0.00000000000E+00 0. -1.
         -4    1    5    5    0  503  0.49671738028E+02  0.36904899270E+03  0.47471719431E+03  0.60334140844E+03  0.00000000000E+00 0.  1.
         -3    1    6    6    0  502 -0.10362583776E+03 -0.14173715375E+02  0.16944706920E+01  0.10460439613E+03  0.00000000000E+00 0.  1.
<mgrwt>
<rscale>  0 0.18535059E+04</rscale>
<asrwt>0</asrwt>
<pdfrwt beam="1">  1        1 0.35982613E+00 0.18535059E+04</pdfrwt>
<pdfrwt beam="2">  1       -1 0.56494812E-01 0.18535059E+04</pdfrwt>
<totfact> 0.52159967E+00</totfact>
</mgrwt>
</event>
<event>
12    1  0.4612066E-007  0.3179856E+04  0.7818608E-02  0.8194157E-01
          1   -1    0    0  501    0  0.00000000000E+00  0.00000000000E+00  0.24226660819E+04  0.24226660819E+04  0.00000000000E+00 0. -1.
         -1   -1    0    0    0  501 -0.00000000000E+00 -0.00000000000E+00 -0.10434252781E+04  0.10434252781E+04  0.00000000000E+00 0.  1.
         23    2    1    2    0    0 -0.95475131295E+03 -0.91889215019E+03 -0.35341349766E+02  0.13293783852E+04  0.10042423405E+03 0.  0.
        254    2    1    2    0    0  0.95475131295E+03  0.91889215019E+03  0.14145821535E+04  0.21367129748E+04  0.89921455414E+03 0.  0.
        -24    2    4    4    0    0  0.58314100835E+03  0.38476826801E+03  0.12902392660E+04  0.14695187637E+04  0.81657685210E+02 0.  0.
         24    2    4    4    0    0  0.37161030460E+03  0.53412388218E+03  0.12434288749E+03  0.66719421111E+03  0.79400388331E+02 0.  0.
         13    1    3    3    0    0 -0.94459111104E+03 -0.88838600279E+03 -0.32998446097E+02  0.12971395278E+04  0.00000000000E+00 0.  1.
        -13    1    3    3    0    0 -0.10160201904E+02 -0.30506147405E+02 -0.23429036698E+01  0.32238857453E+02  0.00000000000E+00 0. -1.
          4    1    6    6  502    0  0.35900476089E+03  0.47747247545E+03  0.11640683542E+03  0.60861723150E+03  0.00000000000E+00 0. -1.
          3    1    5    5  503    0  0.39507839366E+03  0.25239908833E+03  0.94165947934E+03  0.10519100779E+04  0.00000000000E+00 0. -1.
         -4    1    5    5    0  503  0.18806261469E+03  0.13236917968E+03  0.34857978670E+03  0.41760868582E+03  0.00000000000E+00 0.  1.
         -3    1    6    6    0  502  0.12605543710E+02  0.56651406734E+02  0.79360520634E+01  0.58576979604E+02  0.00000000000E+00 0.  1.
<mgrwt>
<rscale>  0 0.31798560E+04</rscale>
<asrwt>0</asrwt>
<pdfrwt beam="1">  1        1 0.37271786E+00 0.31798560E+04</pdfrwt>
<pdfrwt beam="2">  1       -1 0.16052697E+00 0.31798560E+04</pdfrwt>
<totfact> 0.37181470E-01</totfact>
</mgrwt>
</event>
<event>
12    1  0.4612066E-007  0.2715250E+04  0.7818608E-02  0.8330074E-01
         -1   -1    0    0    0  501 -0.00000000000E+00  0.00000000000E+00  0.65665509023E+03  0.65665509023E+03  0.00000000000E+00 0.  1.
          1   -1    0    0  501    0  0.00000000000E+00 -0.00000000000E+00 -0.28068703300E+04  0.28068703300E+04  0.00000000000E+00 0. -1.
         23    2    1    2    0    0 -0.59193870271E+03  0.53693529283E+03  0.19725173256E+03  0.82724093522E+03  0.82026717945E+02 0.  0.
        254    2    1    2    0    0  0.59193870271E+03 -0.53693529283E+03 -0.23474669723E+04  0.26362844850E+04  0.89482052013E+03 0.  0.
        -24    2    4    4    0    0 -0.13263968875E+03 -0.36597158612E+03 -0.47808136998E+03  0.62208860134E+03  0.83089967602E+02 0.  0.
         24    2    4    4    0    0  0.72457839146E+03 -0.17096370671E+03 -0.18693856023E+04  0.20141958837E+04  0.90222464631E+02 0.  0.
         13    1    3    3    0    0 -0.24375214663E+03  0.22677195190E+03  0.40916953567E+02  0.33543229458E+03  0.00000000000E+00 0. -1.
        -13    1    3    3    0    0 -0.34818655608E+03  0.31016334093E+03  0.15633477899E+03  0.49180864065E+03  0.00000000000E+00 0.  1.
          2    1    6    6  502    0  0.15778984643E+03 -0.64449413393E+02 -0.35754621527E+03  0.39609425466E+03  0.00000000000E+00 0. -1.
          1    1    5    5  503    0 -0.10585728059E+03 -0.22017696983E+03 -0.24593560513E+03  0.34665254040E+03  0.00000000000E+00 0. -1.
         -2    1    5    5    0  503 -0.26782408156E+02 -0.14579461629E+03 -0.23214576485E+03  0.27543606094E+03  0.00000000000E+00 0.  1.
         -1    1    6    6    0  502  0.56678854502E+03 -0.10651429332E+03 -0.15118393871E+04  0.16181016290E+04  0.00000000000E+00 0.  1.
<mgrwt>
<rscale>  0 0.27152500E+04</rscale>
<asrwt>0</asrwt>
<pdfrwt beam="1">  1        1 0.43182621E+00 0.27152500E+04</pdfrwt>
<pdfrwt beam="2">  1       -1 0.10102386E+00 0.27152500E+04</pdfrwt>
<totfact> 0.66869552E-01</totfact>
</mgrwt>
</event>
<event>
12    1  0.4612066E-007  0.2120389E+04  0.7818608E-02  0.8552315E-01
         -1   -1    0    0    0  501 -0.00000000000E+00  0.00000000000E+00  0.29994583567E+03  0.29994583567E+03  0.00000000000E+00 0.  1.
          1   -1    0    0  501    0  0.00000000000E+00 -0.00000000000E+00 -0.37473828794E+04  0.37473828794E+04  0.00000000000E+00 0. -1.
         23    2    1    2    0    0 -0.37411758830E+03  0.55801881622E+03 -0.24767566368E+04  0.25678638027E+04  0.90841081422E+02 0.  0.
        254    2    1    2    0    0  0.37411758830E+03 -0.55801881622E+03 -0.97068040690E+03  0.14794649124E+04  0.89176622802E+03 0.  0.
        -24    2    4    4    0    0  0.36437980807E+03 -0.78392521849E+03 -0.68476980853E+03  0.11057069942E+04  0.79792692221E+02 0.  0.
         24    2    4    4    0    0  0.97377802343E+01  0.22590640227E+03 -0.28591059837E+03  0.37375791812E+03  0.82592881916E+02 0.  0.
         13    1    3    3    0    0 -0.12565080104E+03  0.17686784497E+03 -0.96696293792E+03  0.99100337118E+03  0.00000000000E+00 0. -1.
        -13    1    3    3    0    0 -0.24846678727E+03  0.38115097124E+03 -0.15097936989E+04  0.15768604315E+04  0.00000000000E+00 0.  1.
          4    1    6    6  502    0  0.29669418190E+02  0.16573248467E+03 -0.24845765736E+03  0.30013120189E+03  0.00000000000E+00 0. -1.
          3    1    5    5  503    0  0.29845613350E+03 -0.67558392325E+03 -0.55167721111E+03  0.92186628436E+03  0.00000000000E+00 0. -1.
         -4    1    5    5    0  503  0.65923674566E+02 -0.10834129524E+03 -0.13309259743E+03  0.18384070989E+03  0.00000000000E+00 0.  1.
         -3    1    6    6    0  502 -0.19931637956E+02  0.60173917606E+02 -0.37452941013E+02  0.73626716225E+02  0.00000000000E+00 0.  1.
<mgrwt>
<rscale>  0 0.21203885E+04</rscale>
<asrwt>0</asrwt>
<pdfrwt beam="1">  1        1 0.57652043E+00 0.21203885E+04</pdfrwt>
<pdfrwt beam="2">  1       -1 0.46145514E-01 0.21203885E+04</pdfrwt>
<totfact> 0.67957644E-01</totfact>
</mgrwt>
</event>
<event>
12    1  0.4612066E-007  0.1221692E+04  0.7818608E-02  0.9094079E-01
          2   -1    0    0  501    0  0.00000000000E+00  0.00000000000E+00  0.24348291672E+04  0.24348291672E+04  0.00000000000E+00 0.  1.
         -2   -1    0    0    0  501 -0.00000000000E+00 -0.00000000000E+00 -0.15324800602E+03  0.15324800602E+03  0.00000000000E+00 0. -1.
         23    2    1    2    0    0 -0.36231234033E+02 -0.29661213837E+03  0.50987501971E+03  0.59776860526E+03  0.89795917312E+02 0.  0.
        254    2    1    2    0    0  0.36231234033E+02  0.29661213837E+03  0.17717061415E+04  0.19903085680E+04  0.85620913390E+03 0.  0.
        -24    2    4    4    0    0  0.13760031327E+03  0.49153738805E+03  0.58370829198E+03  0.77963820542E+03  0.81101856732E+02 0.  0.
         24    2    4    4    0    0 -0.10136907924E+03 -0.19492524968E+03  0.11879978495E+04  0.12106703625E+04  0.78181155755E+02 0.  0.
         11    1    3    3    0    0 -0.42326515592E+02 -0.18576492888E+03  0.39198665533E+03  0.43583675921E+03  0.00000000000E+00 0.  1.
        -11    1    3    3    0    0  0.60952815596E+01 -0.11084720949E+03  0.11788836438E+03  0.16193184605E+03  0.00000000000E+00 0. -1.
          2    1    6    6  502    0 -0.97824667731E+01 -0.94962896006E+02  0.57381148872E+03  0.58169860999E+03  0.00000000000E+00 0. -1.
          3    1    5    5  503    0  0.19833674153E+02  0.63538608680E+02  0.12308815292E+03  0.13993292255E+03  0.00000000000E+00 0. -1.
         -4    1    5    5    0  503  0.11776663912E+03  0.42799877937E+03  0.46062013906E+03  0.63970528288E+03  0.00000000000E+00 0.  1.
         -1    1    6    6    0  502 -0.91586612462E+02 -0.99962353675E+02  0.61418636079E+03  0.62897175255E+03  0.00000000000E+00 0.  1.
<mgrwt>
<rscale>  0 0.12216918E+04</rscale>
<asrwt>0</asrwt>
<pdfrwt beam="1">  1        2 0.37458907E+00 0.12216918E+04</pdfrwt>
<pdfrwt beam="2">  1       -2 0.23576618E-01 0.12216918E+04</pdfrwt>
<totfact> 0.59977694E+01</totfact>
</mgrwt>
</event>
<event>
12    1  0.4612066E-007  0.1941014E+04  0.7818608E-02  0.8634706E-01
          1   -1    0    0  501    0  0.00000000000E+00  0.00000000000E+00  0.12957033890E+04  0.12957033890E+04  0.00000000000E+00 0.  1.
         -1   -1    0    0    0  501 -0.00000000000E+00 -0.00000000000E+00 -0.72692885590E+03  0.72692885590E+03  0.00000000000E+00 0. -1.
         23    2    1    2    0    0 -0.58876461813E+03 -0.35863414276E+03  0.58560788870E+03  0.90928584635E+03  0.92746574861E+02 0.  0.
        254    2    1    2    0    0  0.58876461813E+03  0.35863414276E+03 -0.16833355574E+02  0.11133463986E+04  0.87406785630E+03 0.  0.
        -24    2    4    4    0    0  0.15844950691E+03  0.59067447786E+03  0.13420600863E+02  0.61687873002E+03  0.79728727480E+02 0.  0.
         24    2    4    4    0    0  0.43031511122E+03 -0.23204033510E+03 -0.30253956436E+02  0.49646766855E+03  0.80938445600E+02 0.  0.
         13    1    3    3    0    0 -0.19855859821E+03 -0.83784517072E+02  0.22084327447E+03  0.30857270473E+03  0.00000000000E+00 0.  1.
        -13    1    3    3    0    0 -0.39020601992E+03 -0.27484962569E+03  0.36476461423E+03  0.60071314162E+03  0.00000000000E+00 0. -1.
          4    1    6    6  502    0  0.82332490608E+02 -0.73711454094E+02  0.14874883405E+02  0.11150461708E+03  0.00000000000E+00 0. -1.
          1    1    5    5  503    0  0.90754696240E+02  0.23370721759E+03 -0.22820379551E+02  0.25174639653E+03  0.00000000000E+00 0. -1.
         -2    1    5    5    0  503  0.67694810671E+02  0.35696726028E+03  0.36240980414E+02  0.36513233349E+03  0.00000000000E+00 0.  1.
         -3    1    6    6    0  502  0.34798262061E+03 -0.15832888100E+03 -0.45128839841E+02  0.38496305146E+03  0.00000000000E+00 0.  1.
<mgrwt>
<rscale>  0 0.19410144E+04</rscale>
<asrwt>0</asrwt>
<pdfrwt beam="1">  1        1 0.19933898E+00 0.19410144E+04</pdfrwt>
<pdfrwt beam="2">  1       -1 0.11183521E+00 0.19410144E+04</pdfrwt>
<totfact> 0.62328314E+00</totfact>
</mgrwt>
</event>
<event>
12    1  0.4612066E-007  0.1363254E+04  0.7818608E-02  0.8980855E-01
          1   -1    0    0  501    0  0.00000000000E+00  0.00000000000E+00  0.37220160663E+04  0.37220160663E+04  0.00000000000E+00 0. -1.
         -1   -1    0    0    0  501 -0.00000000000E+00 -0.00000000000E+00 -0.12482892254E+03  0.12482892254E+03  0.00000000000E+00 0.  1.
         23    2    1    2    0    0 -0.31248869803E+03 -0.21323917265E+03  0.10800014434E+04  0.11479410855E+04  0.90804662860E+02 0.  0.
        254    2    1    2    0    0  0.31248869803E+03  0.21323917265E+03  0.25171857003E+04  0.26989039033E+04  0.89707206978E+03 0.  0.
        -24    2    4    4    0    0 -0.14141002017E+02  0.64973210396E+02  0.22305696291E+04  0.22330266416E+04  0.80905042480E+02 0.  0.
         24    2    4    4    0    0  0.32662970005E+03  0.14826596225E+03  0.28661607120E+03  0.46587726170E+03  0.78886590621E+02 0.  0.
         13    1    3    3    0    0 -0.43548397320E+02  0.28216878420E+01  0.13943492025E+03  0.14610448938E+03  0.00000000000E+00 0. -1.
        -13    1    3    3    0    0 -0.26894030071E+03 -0.21606086049E+03  0.94056652320E+03  0.10018365961E+04  0.00000000000E+00 0.  1.
          4    1    6    6  502    0  0.13556375426E+02  0.29441627987E+02  0.25523557177E+02  0.41255748014E+02  0.00000000000E+00 0. -1.
          1    1    5    5  503    0  0.19978008269E+02 -0.87379440664E+01  0.65741776487E+03  0.65777928672E+03  0.00000000000E+00 0. -1.
         -2    1    5    5    0  503 -0.34119010286E+02  0.73711154462E+02  0.15731518643E+04  0.15752473549E+04  0.00000000000E+00 0.  1.
         -3    1    6    6    0  502  0.31307332462E+03  0.11882433426E+03  0.26109251403E+03  0.42462151368E+03  0.00000000000E+00 0.  1.
<mgrwt>
<rscale>  0 0.13632538E+04</rscale>
<asrwt>0</asrwt>
<pdfrwt beam="1">  1        1 0.57261777E+00 0.13632538E+04</pdfrwt>
<pdfrwt beam="2">  1       -1 0.19204453E-01 0.13632538E+04</pdfrwt>
<totfact> 0.36123454E+00</totfact>
</mgrwt>
</event>
<event>
12    1  0.4612066E-007  0.1433931E+04  0.7818608E-02  0.8929617E-01
          2   -1    0    0  501    0  0.00000000000E+00  0.00000000000E+00  0.38866194259E+04  0.38866194259E+04  0.00000000000E+00 0. -1.
         -2   -1    0    0    0  501 -0.00000000000E+00 -0.00000000000E+00 -0.13225871940E+03  0.13225871940E+03  0.00000000000E+00 0.  1.
         23    2    1    2    0    0 -0.96132866290E+02  0.20574200590E+03  0.12980856798E+03  0.27724652753E+03  0.91891630376E+02 0.  0.
        254    2    1    2    0    0  0.96132866290E+02 -0.20574200590E+03  0.36245521385E+04  0.37416316177E+04  0.90047635022E+03 0.  0.
        -24    2    4    4    0    0  0.31033006652E+03 -0.28711727743E+03  0.81458368599E+03  0.92118628391E+03  0.79350532522E+02 0.  0.
         24    2    4    4    0    0 -0.21419720023E+03  0.81375271530E+02  0.28099684525E+04  0.28204453338E+04  0.80540683316E+02 0.  0.
         11    1    3    3    0    0 -0.75324746093E+02  0.66342057915E+02  0.77863310851E+02  0.12703456695E+03  0.00000000000E+00 0. -1.
        -11    1    3    3    0    0 -0.20808120197E+02  0.13939994799E+03  0.51945257133E+02  0.15021196059E+03  0.00000000000E+00 0.  1.
          2    1    6    6  502    0 -0.24419591651E+02 -0.16152139200E+02  0.30121328325E+03  0.30263286349E+03  0.00000000000E+00 0. -1.
          3    1    5    5  503    0  0.16110516638E+03 -0.96273867471E+02  0.37031432312E+03  0.41515807845E+03  0.00000000000E+00 0. -1.
         -4    1    5    5    0  503  0.14922490014E+03 -0.19084340996E+03  0.44426936287E+03  0.50602820547E+03  0.00000000000E+00 0.  1.
         -1    1    6    6    0  502 -0.18977760858E+03  0.97527410731E+02  0.25087551692E+04  0.25178124703E+04  0.00000000000E+00 0.  1.
<mgrwt>
<rscale>  0 0.14339307E+04</rscale>
<asrwt>0</asrwt>
<pdfrwt beam="1">  1        2 0.59794136E+00 0.14339307E+04</pdfrwt>
<pdfrwt beam="2">  1       -2 0.20347498E-01 0.14339307E+04</pdfrwt>
<totfact> 0.86841302E+00</totfact>
</mgrwt>
</event>
<event>
12    1  0.4612066E-007  0.1778511E+04  0.7818608E-02  0.8717811E-01
          1   -1    0    0  501    0  0.00000000000E+00  0.00000000000E+00  0.95959508428E+03  0.95959508428E+03  0.00000000000E+00 0. -1.
         -1   -1    0    0    0  501 -0.00000000000E+00 -0.00000000000E+00 -0.82407180768E+03  0.82407180768E+03  0.00000000000E+00 0.  1.
         23    2    1    2    0    0  0.18133066458E+03  0.43633802604E+03 -0.40853618348E+03  0.63134051062E+03  0.91746085766E+02 0.  0.
        254    2    1    2    0    0 -0.18133066458E+03 -0.43633802604E+03  0.54405946008E+03  0.11523263813E+04  0.89921282806E+03 0.  0.
        -24    2    4    4    0    0 -0.53541292066E+03 -0.28600047581E+03  0.41541005948E+03  0.73987093791E+03  0.79876276026E+02 0.  0.
         24    2    4    4    0    0  0.35408225609E+03 -0.15033755022E+03  0.12864940060E+03  0.41245544343E+03  0.74787709254E+02 0.  0.
         13    1    3    3    0    0  0.16312673076E+03  0.28086041718E+03 -0.27694662863E+03  0.42683994581E+03  0.00000000000E+00 0.  1.
        -13    1    3    3    0    0  0.18203933815E+02  0.15547760886E+03 -0.13158955485E+03  0.20450056481E+03  0.00000000000E+00 0. -1.
          2    1    6    6  502    0  0.33213727263E+03 -0.13712271455E+03  0.97887663204E+02  0.37242422225E+03  0.00000000000E+00 0. -1.
          1    1    5    5  503    0 -0.35549453661E+03 -0.21014519393E+03  0.32067058827E+03  0.52284509587E+03  0.00000000000E+00 0. -1.
         -2    1    5    5    0  503 -0.17991838405E+03 -0.75855281879E+02  0.94739471207E+02  0.21702584204E+03  0.00000000000E+00 0.  1.
         -1    1    6    6    0  502  0.21944983460E+02 -0.13214835678E+02  0.30761737400E+02  0.40031221177E+02  0.00000000000E+00 0.  1.
<mgrwt>
<rscale>  0 0.17785109E+04</rscale>
<asrwt>0</asrwt>
<pdfrwt beam="1">  1        1 0.14763001E+00 0.17785109E+04</pdfrwt>
<pdfrwt beam="2">  1       -1 0.12678028E+00 0.17785109E+04</pdfrwt>
<totfact> 0.83175083E+00</totfact>
</mgrwt>
</event>
<event>
12    1  0.4612066E-007  0.1842549E+04  0.7818608E-02  0.8683994E-01
         -1   -1    0    0    0  501 -0.00000000000E+00  0.00000000000E+00  0.83106238658E+03  0.83106238658E+03  0.00000000000E+00 0.  1.
          1   -1    0    0  501    0  0.00000000000E+00 -0.00000000000E+00 -0.10212786380E+04  0.10212786380E+04  0.00000000000E+00 0. -1.
         23    2    1    2    0    0 -0.52559696388E+03 -0.36516337425E+03 -0.35050835391E+03  0.73520138939E+03  0.89824932332E+02 0.  0.
        254    2    1    2    0    0  0.52559696388E+03  0.36516337425E+03  0.16029210250E+03  0.11171396352E+04  0.90150482419E+03 0.  0.
        -24    2    4    4    0    0  0.55390657057E+03  0.45585673120E+03 -0.18962026061E+03  0.74594171899E+03  0.76520301850E+02 0.  0.
         24    2    4    4    0    0 -0.28309606691E+02 -0.90693356952E+02  0.34991236311E+03  0.37119791619E+03  0.79514227017E+02 0.  0.
         13    1    3    3    0    0 -0.39890517759E+03 -0.25845731329E+03 -0.21725495164E+03  0.52261385124E+03  0.00000000000E+00 0.  1.
        -13    1    3    3    0    0 -0.12669178629E+03 -0.10670606096E+03 -0.13325340227E+03  0.21258753815E+03  0.00000000000E+00 0. -1.
          2    1    6    6  502    0 -0.40300678849E+02 -0.70881753214E+02  0.33215232976E+03  0.34201394389E+03  0.00000000000E+00 0. -1.
          3    1    5    5  503    0  0.30397411967E+03  0.29618064527E+03 -0.98722409511E+02  0.43574000757E+03  0.00000000000E+00 0. -1.
         -4    1    5    5    0  503  0.24993245090E+03  0.15967608593E+03 -0.90897851099E+02  0.31020171142E+03  0.00000000000E+00 0.  1.
         -1    1    6    6    0  502  0.11991072158E+02 -0.19811603738E+02  0.17760033355E+02  0.29183972296E+02  0.00000000000E+00 0.  1.
<mgrwt>
<rscale>  0 0.18425485E+04</rscale>
<asrwt>0</asrwt>
<pdfrwt beam="1">  1        1 0.15711979E+00 0.18425485E+04</pdfrwt>
<pdfrwt beam="2">  1       -1 0.12785575E+00 0.18425485E+04</pdfrwt>
<totfact> 0.72427586E+00</totfact>
</mgrwt>
</event>
<event>
12    1  0.4612066E-007  0.1469138E+04  0.7818608E-02  0.8905239E-01
          4   -1    0    0  501    0  0.00000000000E+00  0.00000000000E+00  0.15181754769E+04  0.15181754769E+04  0.00000000000E+00 0. -1.
         -4   -1    0    0    0  501 -0.00000000000E+00 -0.00000000000E+00 -0.35542114100E+03  0.35542114100E+03  0.00000000000E+00 0.  1.
         23    2    1    2    0    0  0.17893848344E+03  0.40498387164E+03  0.47906038176E+03  0.65856852293E+03  0.90458459428E+02 0.  0.
        254    2    1    2    0    0 -0.17893848344E+03 -0.40498387164E+03  0.68369395418E+03  0.12150280950E+04  0.90156804044E+03 0.  0.
        -24    2    4    4    0    0  0.18177002308E+03 -0.53395286484E+03  0.22465328036E+03  0.61228914276E+03  0.79264713493E+02 0.  0.
         24    2    4    4    0    0 -0.36070850652E+03  0.12896899320E+03  0.45904067383E+03  0.60273895225E+03  0.76369342364E+02 0.  0.
         11    1    3    3    0    0  0.89516131238E+02  0.11148216119E+03  0.18267074821E+03  0.23196985207E+03  0.00000000000E+00 0. -1.
        -11    1    3    3    0    0  0.89422352203E+02  0.29350171045E+03  0.29638963355E+03  0.42659867087E+03  0.00000000000E+00 0.  1.
          4    1    6    6  502    0 -0.34347209739E+03  0.10494845445E+03  0.40632027331E+03  0.54229459178E+03  0.00000000000E+00 0. -1.
          3    1    5    5  503    0  0.12220398214E+03 -0.23646493544E+03  0.10254766563E+03  0.28524638941E+03  0.00000000000E+00 0. -1.
         -4    1    5    5    0  503  0.59566040934E+02 -0.29748792941E+03  0.12210561472E+03  0.32704275335E+03  0.00000000000E+00 0.  1.
         -3    1    6    6    0  502 -0.17236409129E+02  0.24020538757E+02  0.52720400516E+02  0.60444360468E+02  0.00000000000E+00 0.  1.
<mgrwt>
<rscale>  0 0.14691381E+04</rscale>
<asrwt>0</asrwt>
<pdfrwt beam="1">  1        4 0.23356545E+00 0.14691381E+04</pdfrwt>
<pdfrwt beam="2">  1       -4 0.54680176E-01 0.14691381E+04</pdfrwt>
<totfact> 0.49623480E-01</totfact>
</mgrwt>
</event>
<event>
12    1  0.4612066E-007  0.1586017E+04  0.7818608E-02  0.8829185E-01
          2   -1    0    0  501    0  0.00000000000E+00  0.00000000000E+00  0.14470943066E+04  0.14470943066E+04  0.00000000000E+00 0. -1.
         -2   -1    0    0    0  501 -0.00000000000E+00 -0.00000000000E+00 -0.43456912844E+03  0.43456912844E+03  0.00000000000E+00 0.  1.
         23    2    1    2    0    0  0.42428447669E+03  0.32555042076E+03  0.32279506971E+03  0.63168014287E+03  0.93929506865E+02 0.  0.
        254    2    1    2    0    0 -0.42428447669E+03 -0.32555042076E+03  0.68973010844E+03  0.12499832922E+04  0.89483530025E+03 0.  0.
        -24    2    4    4    0    0 -0.35149633568E+03 -0.60596823889E+03  0.32271539752E+03  0.77539965360E+03  0.79700780846E+02 0.  0.
         24    2    4    4    0    0 -0.72788141007E+02  0.28041781813E+03  0.36701471092E+03  0.47458363856E+03  0.81225400946E+02 0.  0.
         13    1    3    3    0    0  0.10358539004E+03  0.43763643658E+02  0.98214141646E+02  0.14930240171E+03  0.00000000000E+00 0. -1.
        -13    1    3    3    0    0  0.32069908664E+03  0.28178677710E+03  0.22458092806E+03  0.48237774117E+03  0.00000000000E+00 0.  1.
          4    1    6    6  502    0 -0.21484908886E+02  0.18592897950E+03  0.27728799016E+03  0.33454419172E+03  0.00000000000E+00 0. -1.
          1    1    5    5  503    0 -0.14976473924E+03 -0.18483482541E+03  0.11772484967E+03  0.26542895478E+03  0.00000000000E+00 0. -1.
         -2    1    5    5    0  503 -0.20173159644E+03 -0.42113341348E+03  0.20499054785E+03  0.50997069882E+03  0.00000000000E+00 0.  1.
         -3    1    6    6    0  502 -0.51303232121E+02  0.94488838633E+02  0.89726720762E+02  0.14003944684E+03  0.00000000000E+00 0.  1.
<mgrwt>
<rscale>  0 0.15860170E+04</rscale>
<asrwt>0</asrwt>
<pdfrwt beam="1">  1        2 0.22262989E+00 0.15860170E+04</pdfrwt>
<pdfrwt beam="2">  1       -2 0.66856790E-01 0.15860170E+04</pdfrwt>
<totfact> 0.26822079E+01</totfact>
</mgrwt>
</event>
<event>
12    1  0.4612066E-007  0.1847456E+04  0.7818608E-02  0.8681462E-01
         -2   -1    0    0    0  501 -0.00000000000E+00  0.00000000000E+00  0.39815007219E+03  0.39815007219E+03  0.00000000000E+00 0.  1.
          2   -1    0    0  501    0  0.00000000000E+00 -0.00000000000E+00 -0.21430954450E+04  0.21430954450E+04  0.00000000000E+00 0. -1.
         23    2    1    2    0    0 -0.89270142469E+02 -0.46412882939E+03  0.35962152293E+02  0.48286182406E+03  0.92073536503E+02 0.  0.
        254    2    1    2    0    0  0.89270142469E+02  0.46412882939E+03 -0.17809075251E+04  0.20583836932E+04  0.91756584863E+03 0.  0.
        -24    2    4    4    0    0 -0.60761564240E+02 -0.25416009638E+03 -0.31472771718E+03  0.41688799569E+03  0.80328965571E+02 0.  0.
         24    2    4    4    0    0  0.15003170671E+03  0.71828892577E+03 -0.14661798080E+04  0.16414956975E+04  0.79852374092E+02 0.  0.
         13    1    3    3    0    0 -0.11114851199E+02 -0.27349112337E+03  0.36966840223E-01  0.27371688996E+03  0.00000000000E+00 0.  1.
        -13    1    3    3    0    0 -0.78155291270E+02 -0.19063770602E+03  0.35925185453E+02  0.20914493410E+03  0.00000000000E+00 0. -1.
          2    1    6    6  502    0  0.67176391545E+02  0.48902918835E+03 -0.94668612301E+03  0.10676501441E+04  0.00000000000E+00 0. -1.
          1    1    5    5  503    0 -0.66685725451E+02 -0.22875139501E+03 -0.30896113381E+03  0.39016812903E+03  0.00000000000E+00 0. -1.
         -2    1    5    5    0  503  0.59241612109E+01 -0.25408701362E+02 -0.57665833713E+01  0.26719866668E+02  0.00000000000E+00 0.  1.
         -1    1    6    6    0  502  0.82855315164E+02  0.22925973742E+03 -0.51949368496E+03  0.57384555341E+03  0.00000000000E+00 0.  1.
<mgrwt>
<rscale>  0 0.18474562E+04</rscale>
<asrwt>0</asrwt>
<pdfrwt beam="1">  1        2 0.32970699E+00 0.18474562E+04</pdfrwt>
<pdfrwt beam="2">  1       -2 0.61253857E-01 0.18474562E+04</pdfrwt>
<totfact> 0.12959234E+01</totfact>
</mgrwt>
</event>
<event>
12    1  0.4612066E-007  0.2603564E+04  0.7818608E-02  0.8366992E-01
         -1   -1    0    0    0  501 -0.00000000000E+00  0.00000000000E+00  0.17463700802E+04  0.17463700802E+04  0.00000000000E+00 0.  1.
          1   -1    0    0  501    0  0.00000000000E+00 -0.00000000000E+00 -0.97037621204E+03  0.97037621204E+03  0.00000000000E+00 0. -1.
         23    2    1    2    0    0 -0.11115659042E+04 -0.26589237086E+03  0.31884992668E+03  0.11899442678E+04  0.89579978515E+02 0.  0.
        254    2    1    2    0    0  0.11115659042E+04  0.26589237086E+03  0.45714394146E+03  0.15268020244E+04  0.90325319064E+03 0.  0.
        -24    2    4    4    0    0  0.11908836590E+04  0.10192465479E+03  0.53662587751E+03  0.13126240120E+04  0.80137007071E+02 0.  0.
         24    2    4    4    0    0 -0.79317754822E+02  0.16396771606E+03 -0.79481936056E+02  0.21417801245E+03  0.79863162456E+02 0.  0.
         13    1    3    3    0    0 -0.25026318884E+03 -0.32361177552E+02  0.97281520366E+02  0.27044889296E+03  0.00000000000E+00 0. -1.
        -13    1    3    3    0    0 -0.86130271532E+03 -0.23353119330E+03  0.22156840631E+03  0.91949537483E+03  0.00000000000E+00 0.  1.
          4    1    6    6  502    0 -0.27012732715E+02  0.58690280719E+02  0.11377930753E+02  0.65602546352E+02  0.00000000000E+00 0. -1.
          3    1    5    5  503    0  0.57424833365E+02 -0.50803197969E+01  0.11188867500E+02  0.58724883075E+02  0.00000000000E+00 0. -1.
         -4    1    5    5    0  503  0.11334588256E+04  0.10700497459E+03  0.52543701001E+03  0.12538991289E+04  0.00000000000E+00 0.  1.
         -3    1    6    6    0  502 -0.52305022107E+02  0.10527743534E+03 -0.90859866808E+02  0.14857546610E+03  0.00000000000E+00 0.  1.
<mgrwt>
<rscale>  0 0.26035637E+04</rscale>
<asrwt>0</asrwt>
<pdfrwt beam="1">  1        1 0.14928865E+00 0.26035637E+04</pdfrwt>
<pdfrwt beam="2">  1       -1 0.26867232E+00 0.26035637E+04</pdfrwt>
<totfact> 0.74088124E-01</totfact>
</mgrwt>
</event>
<event>
12    1  0.4612066E-007  0.1505610E+04  0.7818608E-02  0.8880731E-01
          2   -1    0    0  501    0  0.00000000000E+00  0.00000000000E+00  0.20113374434E+04  0.20113374434E+04  0.00000000000E+00 0. -1.
         -2   -1    0    0    0  501 -0.00000000000E+00 -0.00000000000E+00 -0.28176052898E+03  0.28176052898E+03  0.00000000000E+00 0.  1.
         23    2    1    2    0    0  0.41804044120E+03  0.66878069942E+02  0.22435714425E+03  0.48763685229E+03  0.90681226407E+02 0.  0.
        254    2    1    2    0    0 -0.41804044120E+03 -0.66878069942E+02  0.15052197702E+04  0.18054611201E+04  0.90264766823E+03 0.  0.
        -24    2    4    4    0    0 -0.10284532978E+03  0.19912505011E+03  0.13293485348E+04  0.13502801682E+04  0.76557547995E+02 0.  0.
         24    2    4    4    0    0 -0.31519511141E+03 -0.26600312005E+03  0.17587123538E+03  0.45518095192E+03  0.78443542896E+02 0.  0.
         13    1    3    3    0    0  0.35069753636E+03  0.79732797167E+02  0.16010009112E+03  0.39367260525E+03  0.00000000000E+00 0.  1.
        -13    1    3    3    0    0  0.67342904838E+02 -0.12854727225E+02  0.64257053135E+02  0.93964247039E+02  0.00000000000E+00 0. -1.
          2    1    6    6  502    0 -0.22514447614E+03 -0.23113872674E+03  0.12498528314E+03  0.34602957552E+03  0.00000000000E+00 0. -1.
          1    1    5    5  503    0 -0.97680991592E+02  0.20556732931E+03  0.13008440397E+04  0.13206039219E+04  0.00000000000E+00 0. -1.
         -2    1    5    5    0  503 -0.51643381910E+01 -0.64422792017E+01  0.28504495118E+02  0.29676246262E+02  0.00000000000E+00 0.  1.
         -1    1    6    6    0  502 -0.90050635274E+02 -0.34864393311E+02  0.50885952238E+02  0.10915137640E+03  0.00000000000E+00 0.  1.
<mgrwt>
<rscale>  0 0.15056102E+04</rscale>
<asrwt>0</asrwt>
<pdfrwt beam="1">  1        2 0.30943652E+00 0.15056102E+04</pdfrwt>
<pdfrwt beam="2">  1       -2 0.43347775E-01 0.15056102E+04</pdfrwt>
<totfact> 0.32104492E+01</totfact>
</mgrwt>
</event>
<event>
12    1  0.4612066E-007  0.3224748E+04  0.7818608E-02  0.8182312E-01
          2   -1    0    0  501    0  0.00000000000E+00  0.00000000000E+00  0.15192610016E+04  0.15192610016E+04  0.00000000000E+00 0. -1.
         -2   -1    0    0    0  501 -0.00000000000E+00 -0.00000000000E+00 -0.17111941990E+04  0.17111941990E+04  0.00000000000E+00 0.  1.
         23    2    1    2    0    0 -0.21829259547E+03  0.14699184511E+04 -0.84985367980E+02  0.14915061169E+04  0.95163405826E+02 0.  0.
        254    2    1    2    0    0  0.21829259547E+03 -0.14699184511E+04 -0.10694782937E+03  0.17389490837E+04  0.89676873686E+03 0.  0.
        -24    2    4    4    0    0 -0.10157310098E+03  0.12677464208E+02 -0.17305545253E+03  0.21869831324E+03  0.86040395288E+02 0.  0.
         24    2    4    4    0    0  0.31986569645E+03 -0.14825959153E+04  0.66107623163E+02  0.15202507705E+04  0.79921683031E+02 0.  0.
         13    1    3    3    0    0 -0.18527031392E+03  0.12187787727E+04 -0.34740635170E+02  0.12332695154E+04  0.00000000000E+00 0. -1.
        -13    1    3    3    0    0 -0.33022281554E+02  0.25113967845E+03 -0.50244732810E+02  0.25823660149E+03  0.00000000000E+00 0.  1.
          2    1    6    6  502    0  0.10218600466E+02 -0.11311579895E+02 -0.60714349119E+00  0.15255827032E+02  0.00000000000E+00 0. -1.
          3    1    5    5  503    0 -0.56970566682E+02  0.21867546534E+02 -0.28899796865E+02  0.67520614025E+02  0.00000000000E+00 0. -1.
         -4    1    5    5    0  503 -0.44602534299E+02 -0.91900823258E+01 -0.14415565567E+03  0.15117769922E+03  0.00000000000E+00 0.  1.
         -1    1    6    6    0  502  0.30964709599E+03 -0.14712843354E+04  0.66714766655E+02  0.15049949434E+04  0.00000000000E+00 0.  1.
<mgrwt>
<rscale>  0 0.32247484E+04</rscale>
<asrwt>0</asrwt>
<pdfrwt beam="1">  1        2 0.23373246E+00 0.32247484E+04</pdfrwt>
<pdfrwt beam="2">  1       -2 0.26326064E+00 0.32247484E+04</pdfrwt>
<totfact> 0.55438289E-01</totfact>
</mgrwt>
</event>
<event>
12    1  0.4612066E-007  0.2300061E+04  0.7818608E-02  0.8477897E-01
         -1   -1    0    0    0  501 -0.00000000000E+00  0.00000000000E+00  0.41414391578E+03  0.41414391578E+03  0.00000000000E+00 0.  1.
          1   -1    0    0  501    0  0.00000000000E+00 -0.00000000000E+00 -0.31935030098E+04  0.31935030098E+04  0.00000000000E+00 0. -1.
         23    2    1    2    0    0  0.80183521127E+03  0.53280134681E+03 -0.17314397924E+04  0.19829990671E+04  0.87089402360E+02 0.  0.
        254    2    1    2    0    0 -0.80183521127E+03 -0.53280134681E+03 -0.10479193016E+04  0.16246478585E+04  0.78391888630E+03 0.  0.
        -24    2    4    4    0    0 -0.54645597865E+03 -0.30653597766E+03 -0.13356766585E+03  0.64547842314E+03  0.78889994146E+02 0.  0.
         24    2    4    4    0    0 -0.25537923263E+03 -0.22626536915E+03 -0.91435163572E+03  0.97916943536E+03  0.79494022748E+02 0.  0.
         13    1    3    3    0    0  0.32106428051E+03  0.26356964920E+03 -0.76562630020E+03  0.87105388109E+03  0.00000000000E+00 0. -1.
        -13    1    3    3    0    0  0.48077093076E+03  0.26923169761E+03 -0.96581349224E+03  0.11119451860E+04  0.00000000000E+00 0.  1.
          4    1    6    6  502    0 -0.50132186416E+02 -0.88229727427E+02 -0.30892506606E+03  0.32516521548E+03  0.00000000000E+00 0. -1.
          1    1    5    5  503    0 -0.15620635550E+03 -0.12600575909E+03 -0.57986256320E+02  0.20890256758E+03  0.00000000000E+00 0. -1.
         -2    1    5    5    0  503 -0.39024962315E+03 -0.18053021858E+03 -0.75581409525E+02  0.43657585556E+03  0.00000000000E+00 0.  1.
         -3    1    6    6    0  502 -0.20524704621E+03 -0.13803564172E+03 -0.60542656966E+03  0.65400421987E+03  0.00000000000E+00 0.  1.
<mgrwt>
<rscale>  0 0.23000607E+04</rscale>
<asrwt>0</asrwt>
<pdfrwt beam="1">  1        1 0.49130815E+00 0.23000607E+04</pdfrwt>
<pdfrwt beam="2">  1       -1 0.63714449E-01 0.23000607E+04</pdfrwt>
<totfact> 0.97171074E-01</totfact>
</mgrwt>
</event>
<event>
12    1  0.4612066E-007  0.1538323E+04  0.7818608E-02  0.8859361E-01
         -1   -1    0    0    0  501 -0.00000000000E+00  0.00000000000E+00  0.29258992237E+03  0.29258992237E+03  0.00000000000E+00 0.  1.
          1   -1    0    0  501    0  0.00000000000E+00 -0.00000000000E+00 -0.20219753458E+04  0.20219753458E+04  0.00000000000E+00 0. -1.
         23    2    1    2    0    0  0.45192608339E+03 -0.13189336148E+03 -0.29574860371E+03  0.56334769259E+03  0.90886426358E+02 0.  0.
        254    2    1    2    0    0 -0.45192608339E+03  0.13189336148E+03 -0.14336368198E+04  0.17512175756E+04  0.88871560274E+03 0.  0.
        -24    2    4    4    0    0 -0.23891096181E+03  0.42212873122E+03 -0.12398855096E+04  0.13340478489E+04  0.84240565485E+02 0.  0.
         24    2    4    4    0    0 -0.21301512159E+03 -0.29023536974E+03 -0.19375131012E+03  0.41716972668E+03  0.82939730002E+02 0.  0.
         11    1    3    3    0    0  0.28726878458E+03 -0.85417277709E+02 -0.23822547971E+03  0.38284571972E+03  0.00000000000E+00 0. -1.
        -11    1    3    3    0    0  0.16465729882E+03 -0.46476083775E+02 -0.57523124005E+02  0.18050197288E+03  0.00000000000E+00 0.  1.
          4    1    6    6  502    0 -0.14887631160E+03 -0.14902469103E+03 -0.14042692244E+03  0.25316444308E+03  0.00000000000E+00 0. -1.
          1    1    5    5  503    0 -0.50909083601E+02  0.35382249708E+02 -0.14155145009E+03  0.15453301074E+03  0.00000000000E+00 0. -1.
         -2    1    5    5    0  503 -0.18800187821E+03  0.38674648151E+03 -0.10983340595E+04  0.11795148382E+04  0.00000000000E+00 0.  1.
         -3    1    6    6    0  502 -0.64138809986E+02 -0.14121067871E+03 -0.53324387673E+02  0.16400528360E+03  0.00000000000E+00 0.  1.
<mgrwt>
<rscale>  0 0.15383233E+04</rscale>
<asrwt>0</asrwt>
<pdfrwt beam="1">  1        1 0.31107312E+00 0.15383233E+04</pdfrwt>
<pdfrwt beam="2">  1       -1 0.45013836E-01 0.15383233E+04</pdfrwt>
<totfact> 0.13599029E+01</totfact>
</mgrwt>
</event>
<event>
12    1  0.4612066E-007  0.1767710E+04  0.7818608E-02  0.8723662E-01
         -1   -1    0    0    0  501 -0.00000000000E+00  0.00000000000E+00  0.41141422246E+03  0.41141422246E+03  0.00000000000E+00 0.  1.
          1   -1    0    0  501    0  0.00000000000E+00 -0.00000000000E+00 -0.18988159923E+04  0.18988159923E+04  0.00000000000E+00 0. -1.
         23    2    1    2    0    0 -0.24594128109E+03  0.27585042320E+03  0.14946832341E+03  0.40843646780E+03  0.88876311789E+02 0.  0.
        254    2    1    2    0    0  0.24594128109E+03 -0.27585042320E+03 -0.16368700932E+04  0.19017937469E+04  0.89492747420E+03 0.  0.
        -24    2    4    4    0    0  0.26146531884E+03 -0.58571388002E+03 -0.10492575115E+04  0.12323327786E+04  0.79233134385E+02 0.  0.
         24    2    4    4    0    0 -0.15524037754E+02  0.30986345682E+03 -0.58761258169E+03  0.66946096830E+03  0.81443749279E+02 0.  0.
         13    1    3    3    0    0 -0.19798391023E+02  0.36535350963E+01 -0.72606971161E+01  0.21401923475E+02  0.00000000000E+00 0. -1.
        -13    1    3    3    0    0 -0.22614289006E+03  0.27219688811E+03  0.15672902053E+03  0.38703454432E+03  0.00000000000E+00 0.  1.
          2    1    6    6  502    0 -0.36860964373E+02  0.74253637807E+02 -0.12728576993E+03  0.15190128587E+03  0.00000000000E+00 0. -1.
          1    1    5    5  503    0  0.66412179631E+02 -0.16409106329E+03 -0.22633936308E+03  0.28734293438E+03  0.00000000000E+00 0. -1.
         -2    1    5    5    0  503  0.19505313921E+03 -0.42162281673E+03 -0.82291814845E+03  0.94498984426E+03  0.00000000000E+00 0.  1.
         -1    1    6    6    0  502  0.21336926619E+02  0.23560981901E+03 -0.46032681176E+03  0.51755968243E+03  0.00000000000E+00 0.  1.
<mgrwt>
<rscale>  0 0.17677103E+04</rscale>
<asrwt>0</asrwt>
<pdfrwt beam="1">  1        1 0.29212554E+00 0.17677103E+04</pdfrwt>
<pdfrwt beam="2">  1       -1 0.63294496E-01 0.17677103E+04</pdfrwt>
<totfact> 0.83619513E+00</totfact>
</mgrwt>
</event>
<event>
12    1  0.4612066E-007  0.1274832E+04  0.7818608E-02  0.9049765E-01
          2   -1    0    0  501    0  0.00000000000E+00  0.00000000000E+00  0.37286377469E+03  0.37286377469E+03  0.00000000000E+00 0. -1.
         -2   -1    0    0    0  501 -0.00000000000E+00 -0.00000000000E+00 -0.10896720237E+04  0.10896720237E+04  0.00000000000E+00 0.  1.
         23    2    1    2    0    0  0.24587400802E+03 -0.24962651378E+02 -0.36268469519E+03  0.44852900964E+03  0.92525253739E+02 0.  0.
        254    2    1    2    0    0 -0.24587400802E+03  0.24962651378E+02 -0.35412355385E+03  0.10140067888E+04  0.91745796336E+03 0.  0.
        -24    2    4    4    0    0 -0.56924023109E+03  0.10984557349E+03 -0.11854120674E+03  0.59712473784E+03  0.80034018624E+02 0.  0.
         24    2    4    4    0    0  0.32336622307E+03 -0.84882922113E+02 -0.23558234711E+03  0.41688205095E+03  0.80751330898E+02 0.  0.
         11    1    3    3    0    0  0.13067282936E+03  0.80448319082E+01 -0.25838673904E+03  0.28966155176E+03  0.00000000000E+00 0.  1.
        -11    1    3    3    0    0  0.11520117866E+03 -0.33007483286E+02 -0.10429795615E+03  0.15886745788E+03  0.00000000000E+00 0. -1.
          4    1    6    6  502    0  0.17462507505E+03 -0.36343976581E+02 -0.77540998640E+02  0.19449269379E+03  0.00000000000E+00 0. -1.
          3    1    5    5  503    0 -0.23573297451E+03  0.11309606344E+02 -0.68787813612E+02  0.24582454265E+03  0.00000000000E+00 0. -1.
         -4    1    5    5    0  503 -0.33350725658E+03  0.98535967147E+02 -0.49753393133E+02  0.35130019519E+03  0.00000000000E+00 0.  1.
         -3    1    6    6    0  502  0.14874114802E+03 -0.48538945533E+02 -0.15804134847E+03  0.22238935715E+03  0.00000000000E+00 0.  1.
<mgrwt>
<rscale>  0 0.12748321E+04</rscale>
<asrwt>0</asrwt>
<pdfrwt beam="1">  1        2 0.57363658E-01 0.12748321E+04</pdfrwt>
<pdfrwt beam="2">  1       -2 0.16764185E+00 0.12748321E+04</pdfrwt>
<totfact> 0.18702256E+01</totfact>
</mgrwt>
</event>
<event>
12    1  0.4612066E-007  0.1888875E+04  0.7818608E-02  0.8660414E-01
          2   -1    0    0  501    0  0.00000000000E+00  0.00000000000E+00  0.12777485674E+04  0.12777485674E+04  0.00000000000E+00 0. -1.
         -2   -1    0    0    0  501 -0.00000000000E+00 -0.00000000000E+00 -0.69807302088E+03  0.69807302088E+03  0.00000000000E+00 0.  1.
         23    2    1    2    0    0 -0.14166429347E+03 -0.23713562243E+03  0.92752548301E+03  0.97201749327E+03  0.90622348915E+02 0.  0.
        254    2    1    2    0    0  0.14166429347E+03  0.23713562243E+03 -0.34784993652E+03  0.10038040950E+04  0.90017831972E+03 0.  0.
        -24    2    4    4    0    0  0.38515089999E+03 -0.19498306859E+03 -0.16010451712E+03  0.46740424754E+03  0.80459066737E+02 0.  0.
         24    2    4    4    0    0 -0.24348660651E+03  0.43211869102E+03 -0.18774541940E+03  0.53639984744E+03  0.80400019623E+02 0.  0.
         11    1    3    3    0    0 -0.14159416543E+03 -0.16486314833E+03  0.65733533695E+03  0.69232832570E+03  0.00000000000E+00 0. -1.
        -11    1    3    3    0    0 -0.70128047168E-01 -0.72272474092E+02  0.27019014606E+03  0.27968916757E+03  0.00000000000E+00 0.  1.
          2    1    6    6  502    0 -0.39234436645E+02  0.27350510019E+02 -0.29504663111E+02  0.56195342889E+02  0.00000000000E+00 0. -1.
          1    1    5    5  503    0  0.97379485365E+02 -0.40224989841E+02 -0.43896450157E+01  0.10545180397E+03  0.00000000000E+00 0. -1.
         -2    1    5    5    0  503  0.28777141462E+03 -0.15475807875E+03 -0.15571487210E+03  0.36195244357E+03  0.00000000000E+00 0.  1.
         -1    1    6    6    0  502 -0.20425216987E+03  0.40476818100E+03 -0.15824075629E+03  0.48020450456E+03  0.00000000000E+00 0.  1.
<mgrwt>
<rscale>  0 0.18888746E+04</rscale>
<asrwt>0</asrwt>
<pdfrwt beam="1">  1        2 0.19657670E+00 0.18888746E+04</pdfrwt>
<pdfrwt beam="2">  1       -2 0.10739585E+00 0.18888746E+04</pdfrwt>
<totfact> 0.11119315E+01</totfact>
</mgrwt>
</event>
<event>
12    1  0.4612066E-007  0.2338024E+04  0.7818608E-02  0.8463078E-01
         -2   -1    0    0    0  501 -0.00000000000E+00  0.00000000000E+00  0.99549472894E+03  0.99549472894E+03  0.00000000000E+00 0.  1.
          2   -1    0    0  501    0  0.00000000000E+00 -0.00000000000E+00 -0.13727732697E+04  0.13727732697E+04  0.00000000000E+00 0. -1.
         23    2    1    2    0    0  0.52992481929E+02 -0.59171116232E+03  0.64488292017E+03  0.88130036488E+03  0.88803432700E+02 0.  0.
        254    2    1    2    0    0 -0.52992481929E+02  0.59171116232E+03 -0.10221614609E+04  0.14869676337E+04  0.90184720925E+03 0.  0.
        -24    2    4    4    0    0 -0.56633705987E+02  0.52301606510E+03 -0.11813247699E+04  0.12957304039E+04  0.81460950333E+02 0.  0.
         24    2    4    4    0    0  0.36412240579E+01  0.68695097213E+02  0.15916330903E+03  0.19123722986E+03  0.80662533133E+02 0.  0.
         11    1    3    3    0    0  0.63976216138E+02 -0.23047274912E+03  0.26419120877E+03  0.35638131140E+03  0.00000000000E+00 0.  1.
        -11    1    3    3    0    0 -0.10983734209E+02 -0.36123841319E+03  0.38069171140E+03  0.52491905349E+03  0.00000000000E+00 0. -1.
          2    1    6    6  502    0 -0.73002453833E-01  0.47098854373E+02  0.16239483188E+03  0.16908692685E+03  0.00000000000E+00 0. -1.
          3    1    5    5  503    0 -0.53058089246E+02  0.31390094842E+03 -0.79607504566E+03  0.85737065764E+03  0.00000000000E+00 0. -1.
         -4    1    5    5    0  503 -0.35756167412E+01  0.20911511668E+03 -0.38524972428E+03  0.43835974624E+03  0.00000000000E+00 0.  1.
         -1    1    6    6    0  502  0.37142265117E+01  0.21596242841E+02 -0.32315228509E+01  0.22150303008E+02  0.00000000000E+00 0.  1.
<mgrwt>
<rscale>  0 0.23380236E+04</rscale>
<asrwt>0</asrwt>
<pdfrwt beam="1">  1        2 0.21119589E+00 0.23380236E+04</pdfrwt>
<pdfrwt beam="2">  1       -2 0.15315303E+00 0.23380236E+04</pdfrwt>
<totfact> 0.38439538E+00</totfact>
</mgrwt>
</event>
<event>
12    1  0.4612066E-007  0.1780203E+04  0.7818608E-02  0.8716899E-01
         -2   -1    0    0    0  501 -0.00000000000E+00  0.00000000000E+00  0.93233690332E+03  0.93233690332E+03  0.00000000000E+00 0.  1.
          2   -1    0    0  501    0  0.00000000000E+00 -0.00000000000E+00 -0.84977955116E+03  0.84977955116E+03  0.00000000000E+00 0. -1.
         23    2    1    2    0    0  0.49649120551E+03 -0.39623609372E+03  0.19846138488E+03  0.67174109066E+03  0.91337902744E+02 0.  0.
        254    2    1    2    0    0 -0.49649120551E+03  0.39623609372E+03 -0.11590403271E+03  0.11103753638E+04  0.90332338875E+03 0.  0.
        -24    2    4    4    0    0 -0.79840394166E+02  0.48962635578E+03  0.23253093297E+03  0.55343251903E+03  0.78156647320E+02 0.  0.
         24    2    4    4    0    0 -0.41665081135E+03 -0.93390262060E+02 -0.34843496567E+03  0.55694284479E+03  0.80366457007E+02 0.  0.
         11    1    3    3    0    0  0.36552076555E+03 -0.29560023198E+03  0.18784276682E+03  0.50623100680E+03  0.00000000000E+00 0.  1.
        -11    1    3    3    0    0  0.13097043996E+03 -0.10063586174E+03  0.10618618060E+02  0.16551008387E+03  0.00000000000E+00 0. -1.
          4    1    6    6  502    0 -0.88803744517E+02 -0.45387359831E+02 -0.52601479903E+02  0.11275208717E+03  0.00000000000E+00 0. -1.
          1    1    5    5  503    0  0.40049331759E+01  0.18171135508E+03  0.65188815669E+02  0.19309230369E+03  0.00000000000E+00 0. -1.
         -2    1    5    5    0  503 -0.83845327342E+02  0.30791500070E+03  0.16734211730E+03  0.36034021534E+03  0.00000000000E+00 0.  1.
         -3    1    6    6    0  502 -0.32784706683E+03 -0.48002902229E+02 -0.29583348577E+03  0.44419075762E+03  0.00000000000E+00 0.  1.
<mgrwt>
<rscale>  0 0.17802032E+04</rscale>
<asrwt>0</asrwt>
<pdfrwt beam="1">  1        2 0.13073531E+00 0.17802032E+04</pdfrwt>
<pdfrwt beam="2">  1       -2 0.14343645E+00 0.17802032E+04</pdfrwt>
<totfact> 0.10118505E+01</totfact>
</mgrwt>
</event>
<event>
12    1  0.4612066E-007  0.1512286E+04  0.7818608E-02  0.8876324E-01
         -1   -1    0    0    0  501 -0.00000000000E+00  0.00000000000E+00  0.50349632428E+03  0.50349632428E+03  0.00000000000E+00 0.  1.
          1   -1    0    0  501    0  0.00000000000E+00 -0.00000000000E+00 -0.11355639021E+04  0.11355639021E+04  0.00000000000E+00 0. -1.
         23    2    1    2    0    0 -0.19798293913E+03  0.26411698352E+03 -0.47558927675E+03  0.58604893702E+03  0.91176593812E+02 0.  0.
        254    2    1    2    0    0  0.19798293913E+03 -0.26411698352E+03 -0.15647830105E+03  0.10530112893E+04  0.98761950750E+03 0.  0.
        -24    2    4    4    0    0 -0.32745433942E+03 -0.15369951077E+02 -0.29687229011E+03  0.44963484592E+03  0.81091049029E+02 0.  0.
         24    2    4    4    0    0  0.52543727855E+03 -0.24874703244E+03  0.14039398906E+03  0.60337644341E+03  0.79957741666E+02 0.  0.
         11    1    3    3    0    0 -0.67613859630E+02  0.15755706029E+03 -0.20377576774E+03  0.26630888979E+03  0.00000000000E+00 0.  1.
        -11    1    3    3    0    0 -0.13036907950E+03  0.10655992323E+03 -0.27181350900E+03  0.31974004723E+03  0.00000000000E+00 0. -1.
          2    1    6    6  502    0  0.31243725425E+03 -0.14462929336E+03  0.12320215593E+03  0.36566848588E+03  0.00000000000E+00 0. -1.
          3    1    5    5  503    0 -0.30985837868E+03 -0.53522091200E+01 -0.29720372425E+03  0.42938434378E+03  0.00000000000E+00 0. -1.
         -4    1    5    5    0  503 -0.17595960741E+02 -0.10017741957E+02  0.33143413804E+00  0.20250502139E+02  0.00000000000E+00 0.  1.
         -1    1    6    6    0  502  0.21300002430E+03 -0.10411773908E+03  0.17191833132E+02  0.23770795752E+03  0.00000000000E+00 0.  1.
<mgrwt>
<rscale>  0 0.15122860E+04</rscale>
<asrwt>0</asrwt>
<pdfrwt beam="1">  1        1 0.17470214E+00 0.15122860E+04</pdfrwt>
<pdfrwt beam="2">  1       -1 0.77460974E-01 0.15122860E+04</pdfrwt>
<totfact> 0.19250957E+01</totfact>
</mgrwt>
</event>
<event>
12    1  0.4612066E-007  0.1628437E+04  0.7818608E-02  0.8803266E-01
         -2   -1    0    0    0  501 -0.00000000000E+00  0.00000000000E+00  0.31565998581E+03  0.31565998581E+03  0.00000000000E+00 0. -1.
          2   -1    0    0  501    0  0.00000000000E+00 -0.00000000000E+00 -0.21002085755E+04  0.21002085755E+04  0.00000000000E+00 0.  1.
         23    2    1    2    0    0 -0.27266474343E+03 -0.44622915228E+03 -0.32379138342E+03  0.62187828381E+03  0.91789003903E+02 0.  0.
        254    2    1    2    0    0  0.27266474343E+03  0.44622915228E+03 -0.14607572063E+04  0.17939902775E+04  0.90062366249E+03 0.  0.
        -24    2    4    4    0    0  0.24673327440E+03  0.71403463334E+03 -0.11071901645E+04  0.13427040665E+04  0.79128905393E+02 0.  0.
         24    2    4    4    0    0  0.25931469032E+02 -0.26780548106E+03 -0.35356704182E+03  0.45128621099E+03  0.79103567538E+02 0.  0.
         13    1    3    3    0    0 -0.10362820301E+03 -0.21470760356E+03 -0.10144763024E+03  0.25909415502E+03  0.00000000000E+00 0. -1.
        -13    1    3    3    0    0 -0.16903654042E+03 -0.23152154873E+03 -0.22234375318E+03  0.36278412879E+03  0.00000000000E+00 0.  1.
          4    1    6    6  502    0  0.16337516801E+02 -0.10368120075E+03 -0.20216530877E+03  0.22778831821E+03  0.00000000000E+00 0. -1.
          3    1    5    5  503    0 -0.16078291791E+01  0.83770649301E+01 -0.31594649695E+01  0.90962932234E+01  0.00000000000E+00 0. -1.
         -4    1    5    5    0  503  0.24834110358E+03  0.70565756841E+03 -0.11040306995E+04  0.13336077733E+04  0.00000000000E+00 0.  1.
         -3    1    6    6    0  502  0.95939522305E+01 -0.16412428030E+03 -0.15140173305E+03  0.22349789278E+03  0.00000000000E+00 0.  1.
<mgrwt>
<rscale>  0 0.16284371E+04</rscale>
<asrwt>0</asrwt>
<pdfrwt beam="1">  1        2 0.32310901E+00 0.16284371E+04</pdfrwt>
<pdfrwt beam="2">  1       -2 0.48563075E-01 0.16284371E+04</pdfrwt>
<totfact> 0.22581712E+01</totfact>
</mgrwt>
</event>
<event>
12    1  0.4612066E-007  0.1577615E+04  0.7818608E-02  0.8834419E-01
         -2   -1    0    0    0  501 -0.00000000000E+00  0.00000000000E+00  0.64843162283E+03  0.64843162283E+03  0.00000000000E+00 0.  1.
          2   -1    0    0  501    0  0.00000000000E+00 -0.00000000000E+00 -0.95957318858E+03  0.95957318858E+03  0.00000000000E+00 0. -1.
         23    2    1    2    0    0 -0.12045689190E+03  0.27564084260E+02  0.35261429623E+03  0.38479127640E+03  0.91966531653E+02 0.  0.
        254    2    1    2    0    0  0.12045689190E+03 -0.27564084260E+02 -0.66375586198E+03  0.12232135350E+04  0.10200048364E+04 0.  0.
        -24    2    4    4    0    0  0.10636067869E+03  0.48179645053E+03 -0.41972557452E+03  0.65274208442E+03  0.80388165488E+02 0.  0.
         24    2    4    4    0    0  0.14096213205E+02 -0.50936053479E+03 -0.24403028746E+03  0.57047145058E+03  0.78993905474E+02 0.  0.
         13    1    3    3    0    0  0.31733803225E+01  0.35503002399E+01 -0.42334862745E+01  0.63716073718E+01  0.00000000000E+00 0. -1.
        -13    1    3    3    0    0 -0.12363027222E+03  0.24013784020E+02  0.35684778250E+03  0.37841966903E+03  0.00000000000E+00 0.  1.
          4    1    6    6  502    0  0.32991830339E+02 -0.46128964286E+03 -0.23217803563E+03  0.51747776349E+03  0.00000000000E+00 0. -1.
          1    1    5    5  503    0  0.83196993620E+02  0.46093036143E+03 -0.38737258540E+03  0.60781251859E+03  0.00000000000E+00 0. -1.
         -2    1    5    5    0  503  0.23163685075E+02  0.20866089101E+02 -0.32352989128E+02  0.44929565835E+02  0.00000000000E+00 0.  1.
         -3    1    6    6    0  502 -0.18895617134E+02 -0.48070891936E+02 -0.11852251826E+02  0.52993687093E+02  0.00000000000E+00 0.  1.
<mgrwt>
<rscale>  0 0.15776154E+04</rscale>
<asrwt>0</asrwt>
<pdfrwt beam="1">  1        2 0.14762664E+00 0.15776154E+04</pdfrwt>
<pdfrwt beam="2">  1       -2 0.99758711E-01 0.15776154E+04</pdfrwt>
<totfact> 0.21357891E+01</totfact>
</mgrwt>
</event>
<event>
12    1  0.4612066E-007  0.1958016E+04  0.7818608E-02  0.8626505E-01
         -2   -1    0    0    0  501 -0.00000000000E+00  0.00000000000E+00  0.61386679931E+03  0.61386679931E+03  0.00000000000E+00 0.  1.
          2   -1    0    0  501    0  0.00000000000E+00 -0.00000000000E+00 -0.15613425281E+04  0.15613425281E+04  0.00000000000E+00 0. -1.
         23    2    1    2    0    0 -0.31998278024E+03  0.55898442030E+03  0.99382758518E+02  0.65805359213E+03  0.91131968281E+02 0.  0.
        254    2    1    2    0    0  0.31998278024E+03 -0.55898442030E+03 -0.10468584873E+04  0.15171557352E+04  0.88937971127E+03 0.  0.
        -24    2    4    4    0    0  0.25446704490E+02  0.21666554891E+03 -0.93099773477E+02  0.25055629154E+03  0.80742755420E+02 0.  0.
         24    2    4    4    0    0  0.29453607575E+03 -0.77564996921E+03 -0.95375871379E+03  0.12665994437E+04  0.78956266318E+02 0.  0.
         13    1    3    3    0    0 -0.22850314311E+03  0.30925570166E+03  0.61990235427E+02  0.38948114808E+03  0.00000000000E+00 0. -1.
        -13    1    3    3    0    0 -0.91479637125E+02  0.24972871864E+03  0.37392523092E+02  0.26857244405E+03  0.00000000000E+00 0.  1.
          2    1    6    6  502    0  0.27728944920E+03 -0.70403023244E+03 -0.89750961296E+03  0.11739129066E+04  0.00000000000E+00 0. -1.
          1    1    5    5  503    0  0.24555746385E+02  0.22307757004E+03 -0.84530382920E+02  0.23981653941E+03  0.00000000000E+00 0. -1.
         -2    1    5    5    0  503  0.89095810570E+00 -0.64120211297E+01 -0.85693905572E+01  0.10739752131E+02  0.00000000000E+00 0.  1.
         -1    1    6    6    0  502  0.17246626542E+02 -0.71619736775E+02 -0.56249100823E+02  0.92686537135E+02  0.00000000000E+00 0.  1.
<mgrwt>
<rscale>  0 0.19580157E+04</rscale>
<asrwt>0</asrwt>
<pdfrwt beam="1">  1        2 0.24020654E+00 0.19580157E+04</pdfrwt>
<pdfrwt beam="2">  1       -2 0.94441046E-01 0.19580157E+04</pdfrwt>
<totfact> 0.10327166E+01</totfact>
</mgrwt>
</event>
<event>
12    1  0.4612066E-007  0.2906956E+04  0.7818608E-02  0.8270811E-01
         -1   -1    0    0    0  501 -0.00000000000E+00  0.00000000000E+00  0.65549953489E+03  0.65549953489E+03  0.00000000000E+00 0.  1.
          1   -1    0    0  501    0  0.00000000000E+00 -0.00000000000E+00 -0.32228819751E+04  0.32228819751E+04  0.00000000000E+00 0. -1.
         23    2    1    2    0    0  0.30249183881E+03 -0.12039096408E+04 -0.59525091379E+03  0.13796987115E+04  0.91351784592E+02 0.  0.
        254    2    1    2    0    0 -0.30249183881E+03  0.12039096408E+04 -0.19721315264E+04  0.24986827985E+04  0.90178336323E+03 0.  0.
        -24    2    4    4    0    0 -0.21426082323E+03  0.27147874581E+02 -0.39446721921E+02  0.23302188319E+03  0.78092552197E+02 0.  0.
         24    2    4    4    0    0 -0.88231015578E+02  0.11767617662E+04 -0.19326848045E+04  0.22656609153E+04  0.73456538384E+02 0.  0.
         11    1    3    3    0    0  0.72547524188E+02 -0.17908717611E+03 -0.71277825952E+02  0.20595117962E+03  0.00000000000E+00 0.  1.
        -11    1    3    3    0    0  0.22994431462E+03 -0.10248224646E+04 -0.52397308784E+03  0.11737475319E+04  0.00000000000E+00 0. -1.
          4    1    6    6  502    0 -0.17934137090E+01  0.42057590708E+02 -0.46085363511E+02  0.62417289262E+02  0.00000000000E+00 0. -1.
          3    1    5    5  503    0 -0.65807676679E+02  0.45532691430E+02 -0.16004588037E+02  0.81608964808E+02  0.00000000000E+00 0. -1.
         -4    1    5    5    0  503 -0.14845314655E+03 -0.18384816848E+02 -0.23442133883E+02  0.15141291838E+03  0.00000000000E+00 0.  1.
         -3    1    6    6    0  502 -0.86437601869E+02  0.11347041755E+04 -0.18865994410E+04  0.22032436260E+04  0.00000000000E+00 0.  1.
<mgrwt>
<rscale>  0 0.29069555E+04</rscale>
<asrwt>0</asrwt>
<pdfrwt beam="1">  1        1 0.49582799E+00 0.29069555E+04</pdfrwt>
<pdfrwt beam="2">  1       -1 0.10084608E+00 0.29069555E+04</pdfrwt>
<totfact> 0.32741862E-01</totfact>
</mgrwt>
</event>
<event>
12    1  0.4612066E-007  0.3311162E+04  0.7818608E-02  0.8160061E-01
         -1   -1    0    0    0  501 -0.00000000000E+00  0.00000000000E+00  0.10394339412E+04  0.10394339412E+04  0.00000000000E+00 0. -1.
          1   -1    0    0  501    0  0.00000000000E+00 -0.00000000000E+00 -0.26369621195E+04  0.26369621195E+04  0.00000000000E+00 0.  1.
         23    2    1    2    0    0 -0.49988697492E+03  0.14228671947E+04 -0.44199613917E+03  0.15741999020E+04  0.91141115366E+02 0.  0.
        254    2    1    2    0    0  0.49988697492E+03 -0.14228671947E+04 -0.11555320391E+04  0.21021961587E+04  0.89974238240E+03 0.  0.
        -24    2    4    4    0    0  0.58010627148E+03 -0.45407689542E+03 -0.72247913778E+03  0.10349446726E+04  0.80157705034E+02 0.  0.
         24    2    4    4    0    0 -0.80219296564E+02 -0.96879029932E+03 -0.43305290135E+03  0.10672514861E+04  0.80629644737E+02 0.  0.
         11    1    3    3    0    0 -0.13882765184E+03  0.51816904452E+03 -0.17311723436E+03  0.56368595197E+03  0.00000000000E+00 0. -1.
        -11    1    3    3    0    0 -0.36105932307E+03  0.90469815022E+03 -0.26887890481E+03  0.10105139501E+04  0.00000000000E+00 0.  1.
          4    1    6    6  502    0 -0.85477421391E+02 -0.56559401152E+03 -0.24342853574E+03  0.62165941435E+03  0.00000000000E+00 0. -1.
          3    1    5    5  503    0  0.13248336530E+03 -0.63268530502E+02 -0.14367498211E+03  0.20541969116E+03  0.00000000000E+00 0. -1.
         -4    1    5    5    0  503  0.44762290618E+03 -0.39080836492E+03 -0.57880415567E+03  0.82952498145E+03  0.00000000000E+00 0.  1.
         -3    1    6    6    0  502  0.52581248268E+01 -0.40319628780E+03 -0.18962436561E+03  0.44559207174E+03  0.00000000000E+00 0.  1.
<mgrwt>
<rscale>  0 0.33111617E+04</rscale>
<asrwt>0</asrwt>
<pdfrwt beam="1">  1        1 0.40568648E+00 0.33111617E+04</pdfrwt>
<pdfrwt beam="2">  1       -1 0.15991291E+00 0.33111617E+04</pdfrwt>
<totfact> 0.26359049E-01</totfact>
</mgrwt>
</event>
<event>
12    1  0.4612066E-007  0.2240594E+04  0.7818608E-02  0.8501719E-01
          2   -1    0    0  501    0  0.00000000000E+00  0.00000000000E+00  0.27949023279E+04  0.27949023279E+04  0.00000000000E+00 0. -1.
         -2   -1    0    0    0  501 -0.00000000000E+00 -0.00000000000E+00 -0.44905532391E+03  0.44905532391E+03  0.00000000000E+00 0.  1.
         23    2    1    2    0    0 -0.91243008385E+03 -0.13530129976E+03  0.74137604342E+03  0.11868771357E+04  0.90574819396E+02 0.  0.
        254    2    1    2    0    0  0.91243008385E+03  0.13530129976E+03  0.16044709606E+04  0.20570805161E+04  0.89800784337E+03 0.  0.
        -24    2    4    4    0    0  0.71965576372E+03 -0.23637560279E+03  0.13759629243E+04  0.15727312250E+04  0.80197838181E+02 0.  0.
         24    2    4    4    0    0  0.19277432013E+03  0.37167690255E+03  0.22850803626E+03  0.48434929106E+03  0.84099076859E+02 0.  0.
         11    1    3    3    0    0 -0.63809901047E+03 -0.11776987795E+03  0.56397233045E+03  0.85971209183E+03  0.00000000000E+00 0. -1.
        -11    1    3    3    0    0 -0.27433107338E+03 -0.17531421807E+02  0.17740371297E+03  0.32716504389E+03  0.00000000000E+00 0.  1.
          2    1    6    6  502    0  0.15932754912E+03  0.25151589009E+03  0.19243270247E+03  0.35450790662E+03  0.00000000000E+00 0. -1.
          3    1    5    5  503    0  0.54679921249E+02 -0.38638413229E+02  0.99623010703E+02  0.12003151680E+03  0.00000000000E+00 0. -1.
         -2    1    5    5    0  503  0.66497584247E+03 -0.19773718956E+03  0.12763399136E+04  0.14526997082E+04  0.00000000000E+00 0.  1.
         -1    1    6    6    0  502  0.33446771016E+02  0.12016101246E+03  0.36075333785E+02  0.12984138444E+03  0.00000000000E+00 0.  1.
<mgrwt>
<rscale>  0 0.22405944E+04</rscale>
<asrwt>0</asrwt>
<pdfrwt beam="1">  1        2 0.42998496E+00 0.22405944E+04</pdfrwt>
<pdfrwt beam="2">  1       -2 0.69085436E-01 0.22405944E+04</pdfrwt>
<totfact> 0.40609553E+00</totfact>
</mgrwt>
</event>
<event>
12    1  0.4612066E-007  0.1469894E+04  0.7818608E-02  0.8904724E-01
          2   -1    0    0  501    0  0.00000000000E+00  0.00000000000E+00  0.11102442683E+04  0.11102442683E+04  0.00000000000E+00 0. -1.
         -2   -1    0    0    0  501 -0.00000000000E+00 -0.00000000000E+00 -0.48651164216E+03  0.48651164216E+03  0.00000000000E+00 0.  1.
         23    2    1    2    0    0 -0.36439836441E+03 -0.28414414179E+03  0.28911965642E+03  0.55272331656E+03  0.91590543412E+02 0.  0.
        254    2    1    2    0    0  0.36439836441E+03  0.28414414179E+03  0.33461296968E+03  0.10440325939E+04  0.87436500173E+03 0.  0.
        -24    2    4    4    0    0 -0.27700818877E+03  0.16490322927E+03  0.12669327391E+03  0.35526977152E+03  0.78986158504E+02 0.  0.
         24    2    4    4    0    0  0.64140655318E+03  0.11924091252E+03  0.20791969577E+03  0.68876282234E+03  0.74450412132E+02 0.  0.
         11    1    3    3    0    0 -0.23638235590E+03 -0.17775384185E+03  0.13218411510E+03  0.32395321693E+03  0.00000000000E+00 0.  1.
        -11    1    3    3    0    0 -0.12801600851E+03 -0.10639029994E+03  0.15693554132E+03  0.22877009963E+03  0.00000000000E+00 0. -1.
          2    1    6    6  502    0  0.28980868636E+03  0.17709460132E+02  0.10262548083E+03  0.30795241350E+03  0.00000000000E+00 0. -1.
          3    1    5    5  503    0 -0.22080809651E+03  0.16470177400E+03  0.11026427503E+03  0.29671720575E+03  0.00000000000E+00 0. -1.
         -4    1    5    5    0  503 -0.56200092256E+02  0.20145527388E+00  0.16428998882E+02  0.58552565768E+02  0.00000000000E+00 0.  1.
         -1    1    6    6    0  502  0.35159786682E+03  0.10153145239E+03  0.10529421493E+03  0.38081040883E+03  0.00000000000E+00 0.  1.
<mgrwt>
<rscale>  0 0.14698936E+04</rscale>
<asrwt>0</asrwt>
<pdfrwt beam="1">  1        2 0.17080681E+00 0.14698936E+04</pdfrwt>
<pdfrwt beam="2">  1       -2 0.74847945E-01 0.14698936E+04</pdfrwt>
<totfact> 0.33356498E+01</totfact>
</mgrwt>
</event>
<event>
12    1  0.4612066E-007  0.1526372E+04  0.7818608E-02  0.8867103E-01
          1   -1    0    0  501    0  0.00000000000E+00  0.00000000000E+00  0.46604799935E+03  0.46604799935E+03  0.00000000000E+00 0. -1.
         -1   -1    0    0    0  501 -0.00000000000E+00 -0.00000000000E+00 -0.12497704918E+04  0.12497704918E+04  0.00000000000E+00 0.  1.
         23    2    1    2    0    0 -0.39699611412E+03 -0.21159032456E+02  0.67258173664E+02  0.41345892827E+03  0.91493191874E+02 0.  0.
        254    2    1    2    0    0  0.39699611412E+03  0.21159032456E+02 -0.85098066617E+03  0.13023595629E+04  0.90217443860E+03 0.  0.
        -24    2    4    4    0    0  0.39880415735E+03 -0.37441472687E+03 -0.64236169817E+03  0.84756723765E+03  0.80687839457E+02 0.  0.
         24    2    4    4    0    0 -0.18080432326E+01  0.39557375933E+03 -0.20861896800E+03  0.45479232527E+03  0.82657832234E+02 0.  0.
         11    1    3    3    0    0 -0.39293658851E+03 -0.16171663995E+02  0.78009072863E+02  0.40093154124E+03  0.00000000000E+00 0. -1.
        -11    1    3    3    0    0 -0.40595256084E+01 -0.49873684601E+01 -0.10750899199E+02  0.12527387034E+02  0.00000000000E+00 0.  1.
          4    1    6    6  502    0 -0.25722007644E+02  0.34161352850E+03 -0.15898150031E+03  0.37767253273E+03  0.00000000000E+00 0. -1.
          1    1    5    5  503    0  0.61038626109E+02 -0.89858796055E+02 -0.95547526390E+02  0.14467082258E+03  0.00000000000E+00 0. -1.
         -4    1    5    5    0  503  0.33776553125E+03 -0.28455593082E+03 -0.54681417178E+03  0.70289641507E+03  0.00000000000E+00 0.  1.
         -3    1    6    6    0  502  0.23913964411E+02  0.53960230826E+02 -0.49637467681E+02  0.77119792547E+02  0.00000000000E+00 0.  1.
<mgrwt>
<rscale>  0 0.15263722E+04</rscale>
<asrwt>0</asrwt>
<pdfrwt beam="1">  1        1 0.71699692E-01 0.15263722E+04</pdfrwt>
<pdfrwt beam="2">  1       -1 0.19227238E+00 0.15263722E+04</pdfrwt>
<totfact> 0.80253892E+00</totfact>
</mgrwt>
</event>
<event>
12    1  0.4612066E-007  0.1357367E+04  0.7818608E-02  0.8985270E-01
          1   -1    0    0  501    0  0.00000000000E+00  0.00000000000E+00  0.13898501569E+04  0.13898501569E+04  0.00000000000E+00 0. -1.
         -1   -1    0    0    0  501 -0.00000000000E+00 -0.00000000000E+00 -0.33141052599E+03  0.33141052599E+03  0.00000000000E+00 0.  1.
         23    2    1    2    0    0 -0.16779605972E+03 -0.30576084724E+03  0.15176927088E+03  0.39150503608E+03  0.92720377101E+02 0.  0.
        254    2    1    2    0    0  0.16779605972E+03  0.30576084724E+03  0.90667036006E+03  0.13297556468E+04  0.90804940676E+03 0.  0.
        -24    2    4    4    0    0  0.23296027139E+03 -0.12283840689E+03 -0.47408295351E+02  0.27884685762E+03  0.78410849284E+02 0.  0.
         24    2    4    4    0    0 -0.65164211666E+02  0.42859925413E+03  0.95407865541E+03  0.10509087892E+04  0.78736950678E+02 0.  0.
         11    1    3    3    0    0 -0.85512599621E+02 -0.24236968152E+03  0.10688846799E+03  0.27835339373E+03  0.00000000000E+00 0.  1.
        -11    1    3    3    0    0 -0.82283460101E+02 -0.63391165718E+02  0.44880802891E+02  0.11315164235E+03  0.00000000000E+00 0. -1.
          2    1    6    6  502    0 -0.82867189362E+02  0.34032928115E+03  0.74252826696E+03  0.82099891469E+03  0.00000000000E+00 0. -1.
          3    1    5    5  503    0  0.16987730869E+03 -0.11893693344E+03 -0.56645042195E+02  0.21497198643E+03  0.00000000000E+00 0. -1.
         -4    1    5    5    0  503  0.63082962701E+02 -0.39014734538E+01  0.92367468449E+01  0.63874871197E+02  0.00000000000E+00 0.  1.
         -1    1    6    6    0  502  0.17702977696E+02  0.88269972979E+02  0.21155038845E+03  0.22990987452E+03  0.00000000000E+00 0.  1.
<mgrwt>
<rscale>  0 0.13573665E+04</rscale>
<asrwt>0</asrwt>
<pdfrwt beam="1">  1        1 0.21382310E+00 0.13573665E+04</pdfrwt>
<pdfrwt beam="2">  1       -1 0.50986235E-01 0.13573665E+04</pdfrwt>
<totfact> 0.29540943E+01</totfact>
</mgrwt>
</event>
<event>
12    1  0.4612066E-007  0.1674593E+04  0.7818608E-02  0.8775989E-01
          2   -1    0    0  501    0  0.00000000000E+00  0.00000000000E+00  0.18398285975E+04  0.18398285975E+04  0.00000000000E+00 0. -1.
         -2   -1    0    0    0  501 -0.00000000000E+00 -0.00000000000E+00 -0.38104952891E+03  0.38104952891E+03  0.00000000000E+00 0.  1.
         23    2    1    2    0    0  0.35102751783E+03 -0.94493704959E+02 -0.96661709455E+02  0.38692858360E+03  0.90668981333E+02 0.  0.
        254    2    1    2    0    0 -0.35102751783E+03  0.94493704959E+02  0.15554407780E+04  0.18339495428E+04  0.90101361424E+03 0.  0.
        -24    2    4    4    0    0 -0.17808228048E+03  0.46816870302E+03  0.11225321209E+04  0.12317323902E+04  0.78683450922E+02 0.  0.
         24    2    4    4    0    0 -0.17294523735E+03 -0.37367499806E+03  0.43290865710E+03  0.60221715260E+03  0.75581308553E+02 0.  0.
         13    1    3    3    0    0  0.42910900678E+02  0.17536649822E+02 -0.18335552420E+02  0.49850496151E+02  0.00000000000E+00 0. -1.
        -13    1    3    3    0    0  0.30811661715E+03 -0.11203035478E+03 -0.78326157035E+02  0.33707808744E+03  0.00000000000E+00 0.  1.
          2    1    6    6  502    0 -0.14984950439E+03 -0.29776263691E+03  0.38611019746E+03  0.51009660506E+03  0.00000000000E+00 0. -1.
          1    1    5    5  503    0 -0.63125157711E+02  0.20570757310E+03  0.57127473332E+03  0.61045492225E+03  0.00000000000E+00 0. -1.
         -2    1    5    5    0  503 -0.11495712277E+03  0.26246112992E+03  0.55125738759E+03  0.62127746794E+03  0.00000000000E+00 0.  1.
         -1    1    6    6    0  502 -0.23095732956E+02 -0.75912361145E+02  0.46798459636E+02  0.92120547543E+02  0.00000000000E+00 0.  1.
<mgrwt>
<rscale>  0 0.16745935E+04</rscale>
<asrwt>0</asrwt>
<pdfrwt beam="1">  1        2 0.28305055E+00 0.16745935E+04</pdfrwt>
<pdfrwt beam="2">  1       -2 0.58623006E-01 0.16745935E+04</pdfrwt>
<totfact> 0.21266500E+01</totfact>
</mgrwt>
</event>
<event>
12    1  0.4612066E-007  0.2094489E+04  0.7818608E-02  0.8563675E-01
          2   -1    0    0  501    0  0.00000000000E+00  0.00000000000E+00  0.10230897111E+04  0.10230897111E+04  0.00000000000E+00 0. -1.
         -2   -1    0    0    0  501 -0.00000000000E+00 -0.00000000000E+00 -0.10719699844E+04  0.10719699844E+04  0.00000000000E+00 0.  1.
         23    2    1    2    0    0  0.25557709620E+01 -0.67780268995E+03  0.49318058367E+03  0.84334542174E+03  0.92635812678E+02 0.  0.
        254    2    1    2    0    0 -0.25557709620E+01  0.67780268995E+03 -0.54206085697E+03  0.12517142737E+04  0.90196210112E+03 0.  0.
        -24    2    4    4    0    0  0.31097122799E+02  0.34653653709E+02  0.22723634511E+03  0.24539023890E+03  0.80075627055E+02 0.  0.
         24    2    4    4    0    0 -0.33652893761E+02  0.64314903624E+03 -0.76929720208E+03  0.10063240348E+04  0.78081225677E+02 0.  0.
         13    1    3    3    0    0 -0.28275569518E+01 -0.31526186499E+03  0.17294754275E+03  0.35959545483E+03  0.00000000000E+00 0.  1.
        -13    1    3    3    0    0  0.53833279139E+01 -0.36254082496E+03  0.32023304092E+03  0.48374996691E+03  0.00000000000E+00 0. -1.
          2    1    6    6  502    0  0.48808309397E+01  0.46582253546E+02 -0.89841940621E+02  0.10131783234E+03  0.00000000000E+00 0. -1.
          3    1    5    5  503    0  0.12085653765E+02 -0.16432402818E+02  0.12680122643E+02  0.24018168114E+02  0.00000000000E+00 0. -1.
         -4    1    5    5    0  503  0.19011469034E+02  0.51086056527E+02  0.21455622247E+03  0.22137207079E+03  0.00000000000E+00 0.  1.
         -1    1    6    6    0  502 -0.38533724701E+02  0.59656678269E+03 -0.67945526146E+03  0.90500620245E+03  0.00000000000E+00 0.  1.
<mgrwt>
<rscale>  0 0.20944894E+04</rscale>
<asrwt>0</asrwt>
<pdfrwt beam="1">  1        2 0.15739842E+00 0.20944894E+04</pdfrwt>
<pdfrwt beam="2">  1       -2 0.16491846E+00 0.20944894E+04</pdfrwt>
<totfact> 0.52029136E+00</totfact>
</mgrwt>
</event>
<event>
12    1  0.4612066E-007  0.1207014E+04  0.7818608E-02  0.9106739E-01
         -3   -1    0    0    0  501 -0.00000000000E+00  0.00000000000E+00  0.31657513567E+03  0.31657513567E+03  0.00000000000E+00 0.  1.
          3   -1    0    0  501    0  0.00000000000E+00 -0.00000000000E+00 -0.11505038417E+04  0.11505038417E+04  0.00000000000E+00 0. -1.
         23    2    1    2    0    0 -0.77937845388E+02  0.15809169089E+03 -0.44175362502E+03  0.48333699934E+03  0.86029641626E+02 0.  0.
        254    2    1    2    0    0  0.77937845388E+02 -0.15809169089E+03 -0.39217508099E+03  0.98374197801E+03  0.88480489074E+03 0.  0.
        -24    2    4    4    0    0 -0.30162185613E+02 -0.34707565054E+03 -0.58313513480E+03  0.68377192622E+03  0.78270026179E+02 0.  0.
         24    2    4    4    0    0  0.10810003100E+03  0.18898395965E+03  0.19096005381E+03  0.29997005179E+03  0.78203172021E+02 0.  0.
         11    1    3    3    0    0 -0.15862448911E+02  0.16732499089E+02 -0.10602442951E+02  0.25377265569E+02  0.00000000000E+00 0.  1.
        -11    1    3    3    0    0 -0.62075396477E+02  0.14135919180E+03 -0.43115118207E+03  0.45795973377E+03  0.00000000000E+00 0. -1.
          2    1    6    6  502    0  0.72528795405E+02  0.50758828392E+02  0.69259945877E+02  0.11240028881E+03  0.00000000000E+00 0. -1.
          3    1    5    5  503    0  0.16066485488E+01 -0.12311690215E+02 -0.64352259036E+02  0.65539089699E+02  0.00000000000E+00 0. -1.
         -4    1    5    5    0  503 -0.31768834161E+02 -0.33476396033E+03 -0.51878287577E+03  0.61823283652E+03  0.00000000000E+00 0.  1.
         -1    1    6    6    0  502  0.35571235596E+02  0.13822513126E+03  0.12170010793E+03  0.18756976298E+03  0.00000000000E+00 0.  1.
<mgrwt>
<rscale>  0 0.12070143E+04</rscale>
<asrwt>0</asrwt>
<pdfrwt beam="1">  1        3 0.17700059E+00 0.12070143E+04</pdfrwt>
<pdfrwt beam="2">  1       -3 0.48703867E-01 0.12070143E+04</pdfrwt>
<totfact> 0.22529091E+00</totfact>
</mgrwt>
</event>
<event>
12    1  0.4612066E-007  0.2367530E+04  0.7818608E-02  0.8451761E-01
          2   -1    0    0  501    0  0.00000000000E+00  0.00000000000E+00  0.91543852698E+03  0.91543852698E+03  0.00000000000E+00 0. -1.
         -2   -1    0    0    0  501 -0.00000000000E+00 -0.00000000000E+00 -0.15307411829E+04  0.15307411829E+04  0.00000000000E+00 0.  1.
         23    2    1    2    0    0 -0.94824800229E+03 -0.16732256415E+03  0.81868585639E+02  0.97074347518E+03  0.92028881224E+02 0.  0.
        254    2    1    2    0    0  0.94824800229E+03  0.16732256415E+03 -0.69717124155E+03  0.14754362347E+04  0.87389543325E+03 0.  0.
        -24    2    4    4    0    0  0.26191070484E+03 -0.19005171469E+03 -0.60706464289E+03  0.69253891597E+03  0.79785950658E+02 0.  0.
         24    2    4    4    0    0  0.68633729744E+03  0.35737427884E+03 -0.90106598668E+02  0.78289731871E+03  0.77677226300E+02 0.  0.
         13    1    3    3    0    0 -0.25341469494E+03 -0.68602744075E+02  0.56077133013E+02  0.26845854233E+03  0.00000000000E+00 0. -1.
        -13    1    3    3    0    0 -0.69483330735E+03 -0.98719820078E+02  0.25791452626E+02  0.70228493285E+03  0.00000000000E+00 0.  1.
          2    1    6    6  502    0  0.71086902605E+02  0.59873198672E+02 -0.25909457158E+02  0.96485478759E+02  0.00000000000E+00 0. -1.
          1    1    5    5  503    0  0.94529297548E+02 -0.87286541812E+02 -0.16854648435E+03  0.21204397154E+03  0.00000000000E+00 0. -1.
         -2    1    5    5    0  503  0.16738140730E+03 -0.10276517288E+03 -0.43851815853E+03  0.48049494443E+03  0.00000000000E+00 0.  1.
         -1    1    6    6    0  502  0.61525039484E+03  0.29750108017E+03 -0.64197141510E+02  0.68641183996E+03  0.00000000000E+00 0.  1.
<mgrwt>
<rscale>  0 0.23675299E+04</rscale>
<asrwt>0</asrwt>
<pdfrwt beam="1">  1        2 0.14083670E+00 0.23675299E+04</pdfrwt>
<pdfrwt beam="2">  1       -2 0.23549864E+00 0.23675299E+04</pdfrwt>
<totfact> 0.20385864E+00</totfact>
</mgrwt>
</event>
<event>
12    1  0.4612066E-007  0.1441079E+04  0.7818608E-02  0.8924609E-01
         -1   -1    0    0    0  501 -0.00000000000E+00  0.00000000000E+00  0.23292940032E+03  0.23292940032E+03  0.00000000000E+00 0.  1.
          1   -1    0    0  501    0  0.00000000000E+00 -0.00000000000E+00 -0.22289042693E+04  0.22289042693E+04  0.00000000000E+00 0. -1.
         23    2    1    2    0    0  0.35855460179E+03  0.27661644918E+03 -0.11707496507E+04  0.12584912624E+04  0.89818987430E+02 0.  0.
        254    2    1    2    0    0 -0.35855460179E+03 -0.27661644918E+03 -0.82522521830E+03  0.12033424072E+04  0.74963873014E+03 0.  0.
        -24    2    4    4    0    0  0.19811322218E+03  0.41482482903E+02 -0.29740549256E+03  0.36906044996E+03  0.82376838554E+02 0.  0.
         24    2    4    4    0    0 -0.55666782397E+03 -0.31809893209E+03 -0.52781972573E+03  0.83428195728E+03  0.79791757292E+02 0.  0.
         13    1    3    3    0    0  0.24329641821E+03  0.22609655781E+03 -0.91595923891E+03  0.97431726245E+03  0.00000000000E+00 0. -1.
        -13    1    3    3    0    0  0.11525818358E+03  0.50519891373E+02 -0.25479041176E+03  0.28417399992E+03  0.00000000000E+00 0.  1.
          2    1    6    6  502    0 -0.47514528438E+03 -0.25980355412E+03 -0.40773792634E+03  0.67787251352E+03  0.00000000000E+00 0. -1.
          1    1    5    5  503    0  0.16261523503E+03  0.22039055414E+01 -0.24850140297E+03  0.29698740569E+03  0.00000000000E+00 0. -1.
         -2    1    5    5    0  503  0.35497987148E+02  0.39278577362E+02 -0.48904089599E+02  0.72073044272E+02  0.00000000000E+00 0.  1.
         -1    1    6    6    0  502 -0.81522539583E+02 -0.58295377963E+02 -0.12008179939E+03  0.15640944376E+03  0.00000000000E+00 0.  1.
<mgrwt>
<rscale>  0 0.14410792E+04</rscale>
<asrwt>0</asrwt>
<pdfrwt beam="1">  1        1 0.34290834E+00 0.14410792E+04</pdfrwt>
<pdfrwt beam="2">  1       -1 0.35835293E-01 0.14410792E+04</pdfrwt>
<totfact> 0.15073624E+01</totfact>
</mgrwt>
</event>
<event>
12    1  0.5812421E-007  0.1470362E+04  0.7818608E-02  0.8904405E-01
         -1   -1    0    0    0  501 -0.00000000000E+00  0.00000000000E+00  0.38209105505E+03  0.38209105505E+03  0.00000000000E+00 0.  1.
          1   -1    0    0  501    0  0.00000000000E+00 -0.00000000000E+00 -0.14145608757E+04  0.14145608757E+04  0.00000000000E+00 0. -1.
         23    2    1    2    0    0 -0.84708768838E+02 -0.27639479446E+03 -0.88240262967E+03  0.93269001854E+03  0.87787310724E+02 0.  0.
        254    2    1    2    0    0  0.84708768838E+02  0.27639479446E+03 -0.15006719101E+03  0.86396191224E+03  0.80021270051E+03 0.  0.
        -24    2    4    4    0    0 -0.27296276374E+03  0.31063774640E+03 -0.24157216202E+03  0.48487125130E+03  0.75753158327E+02 0.  0.
         24    2    4    4    0    0  0.35767153258E+03 -0.34242951943E+02  0.91504971003E+02  0.37909066094E+03  0.78962424708E+02 0.  0.
         13    1    3    3    0    0  0.10180543615E+02 -0.25879224464E+02 -0.39984995804E+02  0.48705006073E+02  0.00000000000E+00 0.  1.
        -13    1    3    3    0    0 -0.94889312453E+02 -0.25051556999E+03 -0.84241763387E+03  0.88398501247E+03  0.00000000000E+00 0. -1.
          2    1    6    6  502    0  0.34708018517E+03 -0.33211671078E+02  0.10286708111E+03  0.36352346060E+03  0.00000000000E+00 0. -1.
          3    1    5    5  503    0 -0.27588276912E+03  0.29422862547E+03 -0.22760766342E+03  0.46312744984E+03  0.00000000000E+00 0. -1.
         -4    1    5    5    0  503  0.29200053760E+01  0.16409120928E+02 -0.13964498598E+02  0.21743801464E+02  0.00000000000E+00 0.  1.
         -1    1    6    6    0  502  0.10591347414E+02 -0.10312808654E+01 -0.11362110107E+02  0.15567200337E+02  0.00000000000E+00 0.  1.
<mgrwt>
<rscale>  0 0.14703619E+04</rscale>
<asrwt>0</asrwt>
<pdfrwt beam="1">  1        1 0.21762475E+00 0.14703619E+04</pdfrwt>
<pdfrwt beam="2">  1       -1 0.58783239E-01 0.14703619E+04</pdfrwt>
<totfact> 0.21340184E+01</totfact>
</mgrwt>
</event>
<event>
12    1  0.4612066E-007  0.9971657E+03  0.7818608E-02  0.9311659E-01
          2   -1    0    0  501    0  0.00000000000E+00  0.00000000000E+00  0.10793549865E+04  0.10793549865E+04  0.00000000000E+00 0. -1.
         -2   -1    0    0    0  501 -0.00000000000E+00 -0.00000000000E+00 -0.23030872760E+03  0.23030872760E+03  0.00000000000E+00 0.  1.
         23    2    1    2    0    0  0.64223637685E+02  0.83797857193E+01  0.10907636343E+03  0.15758919100E+03  0.93497612882E+02 0.  0.
        254    2    1    2    0    0 -0.64223637685E+02 -0.83797857193E+01  0.73996989551E+03  0.11520745231E+04  0.88063917932E+03 0.  0.
        -24    2    4    4    0    0  0.98532755761E+02 -0.11055686691E+01 -0.17660217051E+03  0.21814425745E+03  0.81784253921E+02 0.  0.
         24    2    4    4    0    0 -0.16275639345E+03 -0.72742170502E+01  0.91657206602E+03  0.93393026568E+03  0.74691573252E+02 0.  0.
         13    1    3    3    0    0  0.53167048431E+02 -0.11667937237E+02  0.12033700480E+03  0.13207524569E+03  0.00000000000E+00 0. -1.
        -13    1    3    3    0    0  0.11056589254E+02  0.20047722957E+02 -0.11260641367E+02  0.25513945318E+02  0.00000000000E+00 0.  1.
          4    1    6    6  502    0 -0.18449823207E+02 -0.13789936932E+02  0.29039503625E+03  0.29130711529E+03  0.00000000000E+00 0. -1.
          3    1    5    5  503    0  0.61238311784E+02  0.12775274628E+02 -0.36339093859E+02  0.72345478189E+02  0.00000000000E+00 0. -1.
         -4    1    5    5    0  503  0.37294443978E+02 -0.13880843297E+02 -0.14026307665E+03  0.14579877926E+03  0.00000000000E+00 0.  1.
         -3    1    6    6    0  502 -0.14430657024E+03  0.65157198816E+01  0.62617702977E+03  0.64262315040E+03  0.00000000000E+00 0.  1.
<mgrwt>
<rscale>  0 0.99716573E+03</rscale>
<asrwt>0</asrwt>
<pdfrwt beam="1">  1        2 0.16605461E+00 0.99716573E+03</pdfrwt>
<pdfrwt beam="2">  1       -2 0.35432113E-01 0.99716573E+03</pdfrwt>
<totfact> 0.16744033E+02</totfact>
</mgrwt>
</event>
<event>
12    1  0.5022480E-007  0.3593252E+04  0.7818608E-02  0.8092039E-01
          2   -1    0    0  501    0  0.00000000000E+00  0.00000000000E+00  0.26977149517E+04  0.26977149517E+04  0.00000000000E+00 0. -1.
         -2   -1    0    0    0  501 -0.00000000000E+00 -0.00000000000E+00 -0.11965182696E+04  0.11965182696E+04  0.00000000000E+00 0.  1.
         23    2    1    2    0    0 -0.20471648959E+03 -0.16632023918E+04  0.53863223146E+03  0.17625487773E+04  0.91117915718E+02 0.  0.
        254    2    1    2    0    0  0.20471648959E+03  0.16632023918E+04  0.96256445072E+03  0.21316844440E+04  0.89966505420E+03 0.  0.
        -24    2    4    4    0    0 -0.22416841676E+02  0.65822008199E+03 -0.74807724814E+02  0.66755097524E+03  0.79195440051E+02 0.  0.
         24    2    4    4    0    0  0.22713333127E+03  0.10049823098E+04  0.10373721755E+04  0.14641334687E+04  0.77245003267E+02 0.  0.
         11    1    3    3    0    0 -0.14370340249E+03 -0.97470203923E+03  0.35654163577E+03  0.10477674700E+04  0.00000000000E+00 0. -1.
        -11    1    3    3    0    0 -0.61013087109E+02 -0.68850035256E+03  0.18209059568E+03  0.71478130733E+03  0.00000000000E+00 0.  1.
          4    1    6    6  502    0  0.21341424211E+03  0.96125967617E+03  0.96653539115E+03  0.13797668158E+04  0.00000000000E+00 0. -1.
          1    1    5    5  503    0  0.99478650250E+01  0.48175543638E+03 -0.77910648208E+02  0.48811610258E+03  0.00000000000E+00 0. -1.
         -2    1    5    5    0  503 -0.32364706701E+02  0.17646464561E+03  0.31029233945E+01  0.17943487266E+03  0.00000000000E+00 0.  1.
         -3    1    6    6    0  502  0.13719089156E+02  0.43722633632E+02  0.70836784377E+02  0.84366652890E+02  0.00000000000E+00 0.  1.
<mgrwt>
<rscale>  0 0.35932521E+04</rscale>
<asrwt>0</asrwt>
<pdfrwt beam="1">  1        2 0.41503307E+00 0.35932521E+04</pdfrwt>
<pdfrwt beam="2">  1       -2 0.18407973E+00 0.35932521E+04</pdfrwt>
<totfact> 0.36917473E-01</totfact>
</mgrwt>
</event>
<event>
12    1  0.4612066E-007  0.1402917E+04  0.7818608E-02  0.8951710E-01
         -1   -1    0    0    0  501 -0.00000000000E+00  0.00000000000E+00  0.10817447805E+04  0.10817447805E+04  0.00000000000E+00 0.  1.
          1   -1    0    0  501    0  0.00000000000E+00 -0.00000000000E+00 -0.45486172380E+03  0.45486172380E+03  0.00000000000E+00 0. -1.
         23    2    1    2    0    0  0.23396278016E+03 -0.32248199239E+03  0.93887615615E+02  0.41902402104E+03  0.89627160650E+02 0.  0.
        254    2    1    2    0    0 -0.23396278016E+03  0.32248199239E+03  0.53299544104E+03  0.11175824832E+04  0.89787151013E+03 0.  0.
        -24    2    4    4    0    0 -0.28692694954E+03 -0.52015934816E+01 -0.16545596233E+03  0.34029853806E+03  0.77931306885E+02 0.  0.
         24    2    4    4    0    0  0.52964169374E+02  0.32768358587E+03  0.69845140337E+03  0.77728394515E+03  0.78448918611E+02 0.  0.
         13    1    3    3    0    0  0.76290990999E+02 -0.91942687000E+02  0.70554622748E+02  0.13875059564E+03  0.00000000000E+00 0.  1.
        -13    1    3    3    0    0  0.15767178916E+03 -0.23053930539E+03  0.23332992867E+02  0.28027342540E+03  0.00000000000E+00 0. -1.
          4    1    6    6  502    0  0.40541804496E+01  0.23473402495E+03  0.51266172529E+03  0.56386039356E+03  0.00000000000E+00 0. -1.
          3    1    5    5  503    0 -0.12688594298E+03  0.21887029212E+02 -0.39000253753E+02  0.13453662835E+03  0.00000000000E+00 0. -1.
         -4    1    5    5    0  503 -0.16004100655E+03 -0.27088622694E+02 -0.12645570858E+03  0.20576190972E+03  0.00000000000E+00 0.  1.
         -3    1    6    6    0  502  0.48909988925E+02  0.92949560925E+02  0.18578967808E+03  0.21342355159E+03  0.00000000000E+00 0.  1.
<mgrwt>
<rscale>  0 0.14029174E+04</rscale>
<asrwt>0</asrwt>
<pdfrwt beam="1">  1        1 0.69978727E-01 0.14029174E+04</pdfrwt>
<pdfrwt beam="2">  1       -1 0.16642227E+00 0.14029174E+04</pdfrwt>
<totfact> 0.12864212E+01</totfact>
</mgrwt>
</event>
<event>
12    1  0.4612066E-007  0.1536098E+04  0.7818608E-02  0.8860796E-01
          2   -1    0    0  501    0  0.00000000000E+00  0.00000000000E+00  0.30346555015E+03  0.30346555015E+03  0.00000000000E+00 0. -1.
         -2   -1    0    0    0  501 -0.00000000000E+00 -0.00000000000E+00 -0.19438767123E+04  0.19438767123E+04  0.00000000000E+00 0.  1.
         23    2    1    2    0    0 -0.63852162274E+02 -0.38045367340E+03 -0.10072008234E+04  0.10824425217E+04  0.91685430099E+02 0.  0.
        254    2    1    2    0    0  0.63852162274E+02  0.38045367340E+03 -0.63321033878E+03  0.11648997407E+04  0.89845087594E+03 0.  0.
        -24    2    4    4    0    0 -0.92910182035E+01  0.46203467906E+03  0.47042715642E+02  0.47140481389E+03  0.80293921250E+02 0.  0.
         24    2    4    4    0    0  0.73143180477E+02 -0.81581005660E+02 -0.68025305442E+03  0.69349492680E+03  0.78648649757E+02 0.  0.
         13    1    3    3    0    0 -0.17067647541E+01 -0.11378322982E+02 -0.10587612642E+03  0.10649945270E+03  0.00000000000E+00 0.  1.
        -13    1    3    3    0    0 -0.62145397520E+02 -0.36907535041E+03 -0.90132469693E+03  0.97594306905E+03  0.00000000000E+00 0. -1.
          4    1    6    6  502    0  0.18764157996E+02 -0.11142118125E+02 -0.37239438509E+03  0.37303326724E+03  0.00000000000E+00 0. -1.
          3    1    5    5  503    0 -0.58698492638E+00  0.18759220858E+03 -0.20295708591E+02  0.18868782965E+03  0.00000000000E+00 0. -1.
         -4    1    5    5    0  503 -0.87040332771E+01  0.27444247047E+03  0.67338424233E+02  0.28271698423E+03  0.00000000000E+00 0.  1.
         -3    1    6    6    0  502  0.54379022481E+02 -0.70438887535E+02 -0.30785866933E+03  0.32046165956E+03  0.00000000000E+00 0.  1.
<mgrwt>
<rscale>  0 0.15360985E+04</rscale>
<asrwt>0</asrwt>
<pdfrwt beam="1">  1        2 0.46687009E-01 0.15360985E+04</pdfrwt>
<pdfrwt beam="2">  1       -2 0.29905795E+00 0.15360985E+04</pdfrwt>
<totfact> 0.33751965E+00</totfact>
</mgrwt>
</event>
<event>
12    1  0.4612066E-007  0.1684902E+04  0.7818608E-02  0.8770022E-01
          1   -1    0    0  501    0  0.00000000000E+00  0.00000000000E+00  0.53531867475E+03  0.53531867475E+03  0.00000000000E+00 0. -1.
         -1   -1    0    0    0  501 -0.00000000000E+00 -0.00000000000E+00 -0.13257971436E+04  0.13257971436E+04  0.00000000000E+00 0.  1.
         23    2    1    2    0    0 -0.41424081663E+03  0.41706006006E+03 -0.17621489062E+03  0.62191860579E+03  0.10097780293E+03 0.  0.
        254    2    1    2    0    0  0.41424081663E+03 -0.41706006006E+03 -0.61426357823E+03  0.12391972126E+04  0.90152950046E+03 0.  0.
        -24    2    4    4    0    0  0.26065050946E+02 -0.59253490055E+03 -0.52612392677E+03  0.79697583478E+03  0.81160949051E+02 0.  0.
         24    2    4    4    0    0  0.38817576569E+03  0.17547484048E+03 -0.88139651461E+02  0.44222137778E+03  0.79494050708E+02 0.  0.
         11    1    3    3    0    0 -0.12472204949E+03  0.19532431899E+03 -0.70122642195E+02  0.24212468723E+03  0.00000000000E+00 0. -1.
        -11    1    3    3    0    0 -0.28951876714E+03  0.22173574107E+03 -0.10609224842E+03  0.37979391855E+03  0.00000000000E+00 0.  1.
          2    1    6    6  502    0  0.66274257980E+02  0.79642713141E+01 -0.35319621593E+02  0.75519418416E+02  0.00000000000E+00 0. -1.
          1    1    5    5  503    0  0.38334522481E+02 -0.22134453535E+03 -0.16286899836E+03  0.27746936690E+03  0.00000000000E+00 0. -1.
         -2    1    5    5    0  503 -0.12269471535E+02 -0.37119036519E+03 -0.36325492841E+03  0.51950646787E+03  0.00000000000E+00 0.  1.
         -1    1    6    6    0  502  0.32190150771E+03  0.16751056917E+03 -0.52820029868E+02  0.36670195937E+03  0.00000000000E+00 0.  1.
<mgrwt>
<rscale>  0 0.16849023E+04</rscale>
<asrwt>0</asrwt>
<pdfrwt beam="1">  1        1 0.82356721E-01 0.16849023E+04</pdfrwt>
<pdfrwt beam="2">  1       -1 0.20396879E+00 0.16849023E+04</pdfrwt>
<totfact> 0.54259173E+00</totfact>
</mgrwt>
</event>
<event>
12    1  0.4612066E-007  0.1778447E+04  0.7818608E-02  0.8717846E-01
          2   -1    0    0  501    0  0.00000000000E+00  0.00000000000E+00  0.13625643414E+04  0.13625643414E+04  0.00000000000E+00 0. -1.
         -2   -1    0    0    0  501 -0.00000000000E+00 -0.00000000000E+00 -0.58031617078E+03  0.58031617078E+03  0.00000000000E+00 0.  1.
         23    2    1    2    0    0 -0.56589125715E+03  0.22447642443E+03  0.20427475865E+02  0.61482783438E+03  0.83506910511E+02 0.  0.
        254    2    1    2    0    0  0.56589125715E+03 -0.22447642443E+03  0.76182069480E+03  0.13280526778E+04  0.90151570371E+03 0.  0.
        -24    2    4    4    0    0  0.16060522110E+03 -0.53315571498E+03  0.48673312850E+03  0.74364118376E+03  0.77743284853E+02 0.  0.
         24    2    4    4    0    0  0.40528603605E+03  0.30867929055E+03  0.27508756630E+03  0.58441149408E+03  0.79523266057E+02 0.  0.
         11    1    3    3    0    0 -0.47013625747E+03  0.21657918141E+03  0.28508422068E+02  0.51840849967E+03  0.00000000000E+00 0. -1.
        -11    1    3    3    0    0 -0.95754999688E+02  0.78972430175E+01 -0.80809462029E+01  0.96419334701E+02  0.00000000000E+00 0.  1.
          2    1    6    6  502    0  0.30145381444E+03  0.27014833568E+03  0.21175930968E+03  0.45683315417E+03  0.00000000000E+00 0. -1.
          1    1    5    5  503    0  0.15224530009E+03 -0.48939108799E+03  0.41627979884E+03  0.66028110630E+03  0.00000000000E+00 0. -1.
         -2    1    5    5    0  503  0.83599210112E+01 -0.43764626990E+02  0.70453329660E+02  0.83360077465E+02  0.00000000000E+00 0.  1.
         -1    1    6    6    0  502  0.10383222161E+03  0.38530954876E+02  0.63328256613E+02  0.12757833991E+03  0.00000000000E+00 0.  1.
<mgrwt>
<rscale>  0 0.17784466E+04</rscale>
<asrwt>0</asrwt>
<pdfrwt beam="1">  1        2 0.20962528E+00 0.17784466E+04</pdfrwt>
<pdfrwt beam="2">  1       -2 0.89279411E-01 0.17784466E+04</pdfrwt>
<totfact> 0.15482828E+01</totfact>
</mgrwt>
</event>
<event>
12    1  0.4612066E-007  0.1649075E+04  0.7818608E-02  0.8790954E-01
         -1   -1    0    0    0  501 -0.00000000000E+00  0.00000000000E+00  0.11725688599E+04  0.11725688599E+04  0.00000000000E+00 0.  1.
          1   -1    0    0  501    0  0.00000000000E+00 -0.00000000000E+00 -0.57980568854E+03  0.57980568854E+03  0.00000000000E+00 0. -1.
         23    2    1    2    0    0 -0.27952880705E+03  0.31940405830E+03 -0.18430710785E+03  0.47170905156E+03  0.91569715976E+02 0.  0.
        254    2    1    2    0    0  0.27952880705E+03 -0.31940405830E+03  0.77707027922E+03  0.12806654969E+04  0.92526244366E+03 0.  0.
        -24    2    4    4    0    0  0.51660233174E+03  0.95945832020E+02  0.44369937411E+03  0.69224184133E+03  0.79032021776E+02 0.  0.
         24    2    4    4    0    0 -0.23707352469E+03 -0.41534989032E+03  0.33337090511E+03  0.58842365556E+03  0.79917773660E+02 0.  0.
         13    1    3    3    0    0 -0.16384730214E+03  0.16945803382E+03 -0.14957357246E+03  0.27916700597E+03  0.00000000000E+00 0. -1.
        -13    1    3    3    0    0 -0.11568150492E+03  0.14994602448E+03 -0.34733535385E+02  0.19254204559E+03  0.00000000000E+00 0.  1.
          2    1    6    6  502    0 -0.12189657184E+03 -0.17592174268E+03  0.19168054340E+03  0.28731283385E+03  0.00000000000E+00 0. -1.
          1    1    5    5  503    0  0.71675071932E+02  0.15048635404E+02  0.29354655955E+02  0.78901667855E+02  0.00000000000E+00 0. -1.
         -2    1    5    5    0  503  0.44492725981E+03  0.80897196616E+02  0.41434471815E+03  0.61334017348E+03  0.00000000000E+00 0.  1.
         -1    1    6    6    0  502 -0.11517695285E+03 -0.23942814764E+03  0.14169036171E+03  0.30111082171E+03  0.00000000000E+00 0.  1.
<mgrwt>
<rscale>  0 0.16490750E+04</rscale>
<asrwt>0</asrwt>
<pdfrwt beam="1">  1        1 0.89200875E-01 0.16490750E+04</pdfrwt>
<pdfrwt beam="2">  1       -1 0.18039521E+00 0.16490750E+04</pdfrwt>
<totfact> 0.71083942E+00</totfact>
</mgrwt>
</event>
<event>
12    1  0.4612066E-007  0.2023544E+04  0.7818608E-02  0.8595691E-01
         -1   -1    0    0    0  501 -0.00000000000E+00  0.00000000000E+00  0.56276251254E+03  0.56276251254E+03  0.00000000000E+00 0.  1.
          1   -1    0    0  501    0  0.00000000000E+00 -0.00000000000E+00 -0.18190316850E+04  0.18190316850E+04  0.00000000000E+00 0. -1.
         23    2    1    2    0    0 -0.20182358463E+03  0.31759754616E+03 -0.13511313392E+04  0.14075604056E+04  0.11861466568E+03 0.  0.
        254    2    1    2    0    0  0.20182358463E+03 -0.31759754616E+03  0.94862166791E+02  0.97423379193E+03  0.89360600379E+03 0.  0.
        -24    2    4    4    0    0 -0.13955963030E+03  0.24262045445E+03 -0.56505090165E+02  0.29629490638E+03  0.79096592890E+02 0.  0.
         24    2    4    4    0    0  0.34138321493E+03 -0.56021800060E+03  0.15136725696E+03  0.67793888554E+03  0.79387520497E+02 0.  0.
         13    1    3    3    0    0 -0.16832144555E+03  0.24864692573E+03 -0.86992709993E+03  0.92028830369E+03  0.00000000000E+00 0.  1.
        -13    1    3    3    0    0 -0.33502139080E+02  0.68950620424E+02 -0.48120423930E+03  0.48727210191E+03  0.00000000000E+00 0. -1.
          4    1    6    6  502    0  0.22391380466E+02 -0.10872988533E+02  0.11781584723E+02  0.27539091078E+02  0.00000000000E+00 0. -1.
          1    1    5    5  503    0 -0.78479343681E+02  0.12544015018E+03  0.10105722251E+02  0.14831171324E+03  0.00000000000E+00 0. -1.
         -2    1    5    5    0  503 -0.61080286622E+02  0.11718030427E+03 -0.66610812416E+02  0.14798319315E+03  0.00000000000E+00 0.  1.
         -3    1    6    6    0  502  0.31899183447E+03 -0.54934501207E+03  0.13958567223E+03  0.65039979446E+03  0.00000000000E+00 0.  1.
<mgrwt>
<rscale>  0 0.20235443E+04</rscale>
<asrwt>0</asrwt>
<pdfrwt beam="1">  1        1 0.27985102E+00 0.20235443E+04</pdfrwt>
<pdfrwt beam="2">  1       -1 0.86578850E-01 0.20235443E+04</pdfrwt>
<totfact> 0.48146270E+00</totfact>
</mgrwt>
</event>
<event>
12    1  0.4612066E-007  0.1300628E+04  0.7818608E-02  0.9029068E-01
         -2   -1    0    0    0  501 -0.00000000000E+00  0.00000000000E+00  0.39362845290E+03  0.39362845290E+03  0.00000000000E+00 0.  1.
          2   -1    0    0  501    0  0.00000000000E+00 -0.00000000000E+00 -0.10743838198E+04  0.10743838198E+04  0.00000000000E+00 0. -1.
         23    2    1    2    0    0  0.59515709220E+02 -0.43387559682E+02 -0.53776808845E+03  0.55038429642E+03  0.91124951635E+02 0.  0.
        254    2    1    2    0    0 -0.59515709220E+02  0.43387559682E+02 -0.14298727848E+03  0.91762797632E+03  0.90342190650E+03 0.  0.
        -24    2    4    4    0    0  0.10174011901E+03  0.41224263412E+03 -0.24257261868E+03  0.49533344315E+03  0.78858755822E+02 0.  0.
         24    2    4    4    0    0 -0.16125582823E+03 -0.36885507444E+03  0.99585340196E+02  0.42229453317E+03  0.79736595644E+02 0.  0.
         13    1    3    3    0    0 -0.76374731799E+01 -0.31831333222E+02 -0.33237823286E+03  0.33398630877E+03  0.00000000000E+00 0. -1.
        -13    1    3    3    0    0  0.67153182400E+02 -0.11556226459E+02 -0.20538985559E+03  0.21639798765E+03  0.00000000000E+00 0.  1.
          4    1    6    6  502    0 -0.21844907230E+02 -0.56226168976E+02  0.45916782666E+02  0.75808528412E+02  0.00000000000E+00 0. -1.
          3    1    5    5  503    0 -0.47639656163E+01  0.65874607023E+02 -0.15994012016E+02  0.67955629930E+02  0.00000000000E+00 0. -1.
         -2    1    5    5    0  503  0.10650408463E+03  0.34636802710E+03 -0.22657860666E+03  0.42737781322E+03  0.00000000000E+00 0.  1.
         -3    1    6    6    0  502 -0.13941092100E+03 -0.31262890546E+03  0.53668557530E+02  0.34648600476E+03  0.00000000000E+00 0.  1.
<mgrwt>
<rscale>  0 0.13006276E+04</rscale>
<asrwt>0</asrwt>
<pdfrwt beam="1">  1        2 0.16528982E+00 0.13006276E+04</pdfrwt>
<pdfrwt beam="2">  1       -2 0.60558223E-01 0.13006276E+04</pdfrwt>
<totfact> 0.56256145E+01</totfact>
</mgrwt>
</event>
<event>
12    1  0.4612066E-007  0.1545927E+04  0.7818608E-02  0.8854473E-01
          2   -1    0    0  501    0  0.00000000000E+00  0.00000000000E+00  0.25466378493E+04  0.25466378493E+04  0.00000000000E+00 0. -1.
         -2   -1    0    0    0  501 -0.00000000000E+00 -0.00000000000E+00 -0.23461238749E+03  0.23461238749E+03  0.00000000000E+00 0.  1.
         23    2    1    2    0    0 -0.97394856512E+02  0.30257908985E+03  0.22744392723E+02  0.33183638314E+03  0.92510616075E+02 0.  0.
        254    2    1    2    0    0  0.97394856512E+02 -0.30257908985E+03  0.22892810691E+04  0.24494138536E+04  0.81103671280E+03 0.  0.
        -24    2    4    4    0    0 -0.54674805507E+02 -0.21006249505E+03  0.22358248725E+04  0.22477749579E+04  0.80397854214E+02 0.  0.
         24    2    4    4    0    0  0.15206966202E+03 -0.92516594797E+02  0.53456196591E+02  0.20163889570E+03  0.78205990083E+02 0.  0.
         13    1    3    3    0    0 -0.17699136988E+02  0.18855185321E+03 -0.72616566237E+01  0.18951989990E+03  0.00000000000E+00 0.  1.
        -13    1    3    3    0    0 -0.79695719524E+02  0.11402723663E+03  0.30006049346E+02  0.14231648324E+03  0.00000000000E+00 0. -1.
          4    1    6    6  502    0  0.12288792822E+03 -0.93480702671E+02  0.17605522688E+02  0.15540282849E+03  0.00000000000E+00 0. -1.
          1    1    5    5  503    0 -0.71355245497E+02 -0.19161296959E+03  0.20733111079E+04  0.20833689187E+04  0.00000000000E+00 0. -1.
         -2    1    5    5    0  503  0.16680439989E+02 -0.18449525456E+02  0.16251376457E+03  0.16440603925E+03  0.00000000000E+00 0.  1.
         -3    1    6    6    0  502  0.29181733803E+02  0.96410787394E+00  0.35850673902E+02  0.46236067209E+02  0.00000000000E+00 0.  1.
<mgrwt>
<rscale>  0 0.15459273E+04</rscale>
<asrwt>0</asrwt>
<pdfrwt beam="1">  1        2 0.39179042E+00 0.15459273E+04</pdfrwt>
<pdfrwt beam="2">  1       -2 0.36094215E-01 0.15459273E+04</pdfrwt>
<totfact> 0.22800865E+01</totfact>
</mgrwt>
</event>
<event>
12    1  0.4612066E-007  0.1876880E+04  0.7818608E-02  0.8666451E-01
          1   -1    0    0  501    0  0.00000000000E+00  0.00000000000E+00  0.13913328911E+04  0.13913328911E+04  0.00000000000E+00 0. -1.
         -1   -1    0    0    0  501 -0.00000000000E+00 -0.00000000000E+00 -0.63296802915E+03  0.63296802915E+03  0.00000000000E+00 0.  1.
         23    2    1    2    0    0 -0.16502841695E+02 -0.68912123696E+02  0.10647367060E+04  0.10708178328E+04  0.89248828056E+02 0.  0.
        254    2    1    2    0    0  0.16502841695E+02  0.68912123696E+02 -0.30637184407E+03  0.95348308747E+03  0.90013613786E+03 0.  0.
        -24    2    4    4    0    0 -0.32318744397E+03 -0.91658532275E+02 -0.42877223823E+03  0.55023619281E+03  0.77864145316E+02 0.  0.
         24    2    4    4    0    0  0.33969028566E+03  0.16057065597E+03  0.12240039416E+03  0.40324689466E+03  0.80335395843E+02 0.  0.
         13    1    3    3    0    0 -0.50156292976E+02 -0.20839598355E+02  0.58156859641E+03  0.58409928515E+03  0.00000000000E+00 0. -1.
        -13    1    3    3    0    0  0.33653451281E+02 -0.48072525342E+02  0.48316810963E+03  0.48671854767E+03  0.00000000000E+00 0.  1.
          2    1    6    6  502    0  0.13048850301E+03  0.21763646528E+02  0.29448141707E+02  0.13552895918E+03  0.00000000000E+00 0. -1.
          1    1    5    5  503    0 -0.30192818082E+03 -0.77237631077E+02 -0.35641019868E+03  0.47344958311E+03  0.00000000000E+00 0. -1.
         -2    1    5    5    0  503 -0.21259263147E+02 -0.14420901197E+02 -0.72362039552E+02  0.76786609699E+02  0.00000000000E+00 0.  1.
         -1    1    6    6    0  502  0.20920178266E+03  0.13880700944E+03  0.92952252458E+02  0.26771793547E+03  0.00000000000E+00 0.  1.
<mgrwt>
<rscale>  0 0.18768796E+04</rscale>
<asrwt>0</asrwt>
<pdfrwt beam="1">  1        1 0.21405121E+00 0.18768796E+04</pdfrwt>
<pdfrwt beam="2">  1       -1 0.97379697E-01 0.18768796E+04</pdfrwt>
<totfact> 0.73960489E+00</totfact>
</mgrwt>
</event>
<event>
12    1  0.4612066E-007  0.1302308E+04  0.7818608E-02  0.9027737E-01
         -2   -1    0    0    0  501 -0.00000000000E+00  0.00000000000E+00  0.16471371751E+03  0.16471371751E+03  0.00000000000E+00 0.  1.
          2   -1    0    0  501    0  0.00000000000E+00 -0.00000000000E+00 -0.25741712151E+04  0.25741712151E+04  0.00000000000E+00 0. -1.
         23    2    1    2    0    0 -0.27798290042E+03  0.16940809265E+03 -0.82329678889E+03  0.89025283698E+03  0.93589082595E+02 0.  0.
        254    2    1    2    0    0  0.27798290042E+03 -0.16940809265E+03 -0.15861607087E+04  0.18486320956E+04  0.89194239519E+03 0.  0.
        -24    2    4    4    0    0 -0.30103551863E+02 -0.27321028803E+03 -0.14651876355E+04  0.14928671625E+04  0.79545410107E+02 0.  0.
         24    2    4    4    0    0  0.30808645228E+03  0.10380219538E+03 -0.12097307318E+03  0.35576493311E+03  0.79006615900E+02 0.  0.
         11    1    3    3    0    0 -0.10814736192E+03  0.61484195962E+02 -0.44126522755E+03  0.45846609394E+03  0.00000000000E+00 0. -1.
        -11    1    3    3    0    0 -0.16983553849E+03  0.10792389669E+03 -0.38203156134E+03  0.43178674305E+03  0.00000000000E+00 0.  1.
          4    1    6    6  502    0  0.78698526355E+01  0.11313768541E+02 -0.22800236671E+02  0.26641822974E+02  0.00000000000E+00 0. -1.
          1    1    5    5  503    0 -0.11787623448E+01 -0.50093837428E+01 -0.29021604573E+01  0.59081250383E+01  0.00000000000E+00 0. -1.
         -2    1    5    5    0  503 -0.28924789518E+02 -0.26820090429E+03 -0.14622854750E+04  0.14869590374E+04  0.00000000000E+00 0.  1.
         -3    1    6    6    0  502  0.30021659965E+03  0.92488426837E+02 -0.98172836505E+02  0.32912311014E+03  0.00000000000E+00 0.  1.
<mgrwt>
<rscale>  0 0.13023077E+04</rscale>
<asrwt>0</asrwt>
<pdfrwt beam="1">  1        2 0.39602630E+00 0.13023077E+04</pdfrwt>
<pdfrwt beam="2">  1       -2 0.25340575E-01 0.13023077E+04</pdfrwt>
<totfact> 0.43470180E+01</totfact>
</mgrwt>
</event>
<event>
12    1  0.4612066E-007  0.1514769E+04  0.7818608E-02  0.8874691E-01
          2   -1    0    0  501    0  0.00000000000E+00  0.00000000000E+00  0.11254893660E+04  0.11254893660E+04  0.00000000000E+00 0. -1.
         -2   -1    0    0    0  501 -0.00000000000E+00 -0.00000000000E+00 -0.50967283182E+03  0.50967283182E+03  0.00000000000E+00 0.  1.
         23    2    1    2    0    0 -0.43456418507E+03 -0.87701905996E+02  0.38024333181E+03  0.59104405710E+03  0.90611427417E+02 0.  0.
        254    2    1    2    0    0  0.43456418507E+03  0.87701905996E+02  0.23557320238E+03  0.10441181407E+04  0.91550549035E+03 0.  0.
        -24    2    4    4    0    0 -0.10132535243E+03  0.23527733763E+03  0.37923280428E+03  0.46443250086E+03  0.79106101938E+02 0.  0.
         24    2    4    4    0    0  0.53588953750E+03 -0.14757543163E+03 -0.14365960190E+03  0.57968563987E+03  0.80257432247E+02 0.  0.
         13    1    3    3    0    0 -0.11270937948E+02  0.23789180097E+01 -0.41151037604E+01  0.12232226783E+02  0.00000000000E+00 0.  1.
        -13    1    3    3    0    0 -0.42329324713E+03 -0.90080824006E+02  0.38435843557E+03  0.57881183032E+03  0.00000000000E+00 0. -1.
          2    1    6    6  502    0  0.39723447558E+03 -0.12325759832E+03 -0.73363786207E+02  0.42233861919E+03  0.00000000000E+00 0. -1.
          1    1    5    5  503    0  0.26965351517E+01 -0.37264071794E+01  0.44067737253E+00  0.46207801114E+01  0.00000000000E+00 0. -1.
         -4    1    5    5    0  503 -0.10402188758E+03  0.23900374481E+03  0.37879212691E+03  0.45981172075E+03  0.00000000000E+00 0.  1.
         -1    1    6    6    0  502  0.13865506192E+03 -0.24317833312E+02 -0.70295815693E+02  0.15734702068E+03  0.00000000000E+00 0.  1.
<mgrwt>
<rscale>  0 0.15147691E+04</rscale>
<asrwt>0</asrwt>
<pdfrwt beam="1">  1        2 0.17315221E+00 0.15147691E+04</pdfrwt>
<pdfrwt beam="2">  1       -2 0.78411205E-01 0.15147691E+04</pdfrwt>
<totfact> 0.29331016E+01</totfact>
</mgrwt>
</event>
<event>
12    1  0.4612066E-007  0.2248854E+04  0.7818608E-02  0.8498365E-01
          2   -1    0    0  501    0  0.00000000000E+00  0.00000000000E+00  0.12953204952E+04  0.12953204952E+04  0.00000000000E+00 0. -1.
         -2   -1    0    0    0  501 -0.00000000000E+00 -0.00000000000E+00 -0.97608000371E+03  0.97608000371E+03  0.00000000000E+00 0.  1.
         23    2    1    2    0    0 -0.24219073065E+03 -0.72102800327E+03  0.69652690947E+03  0.10354397108E+04  0.91912608259E+02 0.  0.
        254    2    1    2    0    0  0.24219073065E+03  0.72102800327E+03 -0.37728641797E+03  0.12359607881E+04  0.89817386796E+03 0.  0.
        -24    2    4    4    0    0  0.49560649092E+03  0.20502247059E+03  0.23193831996E+01  0.54249602111E+03  0.81464999120E+02 0.  0.
         24    2    4    4    0    0 -0.25341576028E+03  0.51600553267E+03 -0.37960580117E+03  0.69346476702E+03  0.79445336604E+02 0.  0.
         11    1    3    3    0    0 -0.11072680093E+03 -0.19948756529E+03  0.21651349746E+03  0.31453745044E+03  0.00000000000E+00 0.  1.
        -11    1    3    3    0    0 -0.13146392972E+03 -0.52154043798E+03  0.48001341201E+03  0.72090226035E+03  0.00000000000E+00 0. -1.
          4    1    6    6  502    0 -0.16706219605E+02  0.86322074129E+02 -0.38641971255E+02  0.96040617438E+02  0.00000000000E+00 0. -1.
          1    1    5    5  503    0  0.34834757933E+02  0.32738502753E+02 -0.15475751692E+02  0.50247077658E+02  0.00000000000E+00 0. -1.
         -2    1    5    5    0  503  0.46077173299E+03  0.17228396784E+03  0.17795134892E+02  0.49224894345E+03  0.00000000000E+00 0.  1.
         -3    1    6    6    0  502 -0.23670954067E+03  0.42968345855E+03 -0.34096382991E+03  0.59742414958E+03  0.00000000000E+00 0.  1.
<mgrwt>
<rscale>  0 0.22488543E+04</rscale>
<asrwt>0</asrwt>
<pdfrwt beam="1">  1        2 0.19928008E+00 0.22488543E+04</pdfrwt>
<pdfrwt beam="2">  1       -2 0.15016615E+00 0.22488543E+04</pdfrwt>
<totfact> 0.45250692E+00</totfact>
</mgrwt>
</event>
<event>
12    1  0.4612066E-007  0.2089123E+04  0.7818608E-02  0.8566050E-01
          2   -1    0    0  501    0  0.00000000000E+00  0.00000000000E+00  0.30072448351E+04  0.30072448351E+04  0.00000000000E+00 0. -1.
         -2   -1    0    0    0  501 -0.00000000000E+00 -0.00000000000E+00 -0.36282671759E+03  0.36282671759E+03  0.00000000000E+00 0.  1.
         23    2    1    2    0    0 -0.49802169973E+03  0.31643532045E+03  0.20604749246E+04  0.21452165822E+04  0.90776340506E+02 0.  0.
        254    2    1    2    0    0  0.49802169973E+03 -0.31643532045E+03  0.58394319291E+03  0.12248549706E+04  0.90062373992E+03 0.  0.
        -24    2    4    4    0    0  0.24280709496E+03 -0.62061138933E+03  0.36434401630E+03  0.76445023395E+03  0.86739933368E+02 0.  0.
         24    2    4    4    0    0  0.25521460477E+03  0.30417606889E+03  0.21959917661E+03  0.46040473660E+03  0.78045805431E+02 0.  0.
         13    1    3    3    0    0 -0.47503816240E+03  0.27847048244E+03  0.18549080666E+04  0.19349136934E+04  0.00000000000E+00 0. -1.
        -13    1    3    3    0    0 -0.22983537331E+02  0.37964838004E+02  0.20556685800E+03  0.21030288876E+03  0.00000000000E+00 0.  1.
          4    1    6    6  502    0  0.20499672610E+03  0.20304428938E+03  0.13098890513E+03  0.31687337286E+03  0.00000000000E+00 0. -1.
          3    1    5    5  503    0  0.93758309609E+02 -0.35752950313E+03  0.19570566633E+03  0.41823279889E+03  0.00000000000E+00 0. -1.
         -4    1    5    5    0  503  0.14904878535E+03 -0.26308188620E+03  0.16863834997E+03  0.34621743506E+03  0.00000000000E+00 0.  1.
         -3    1    6    6    0  502  0.50217878665E+02  0.10113177951E+03  0.88610271485E+02  0.14353136374E+03  0.00000000000E+00 0.  1.
<mgrwt>
<rscale>  0 0.20891230E+04</rscale>
<asrwt>0</asrwt>
<pdfrwt beam="1">  1        2 0.46265303E+00 0.20891230E+04</pdfrwt>
<pdfrwt beam="2">  1       -2 0.55819497E-01 0.20891230E+04</pdfrwt>
<totfact> 0.47999441E+00</totfact>
</mgrwt>
</event>
<event>
12    1  0.4612066E-007  0.1490513E+04  0.7818608E-02  0.8890786E-01
          2   -1    0    0  501    0  0.00000000000E+00  0.00000000000E+00  0.16631113537E+04  0.16631113537E+04  0.00000000000E+00 0.  1.
         -2   -1    0    0    0  501 -0.00000000000E+00 -0.00000000000E+00 -0.33395676404E+03  0.33395676404E+03  0.00000000000E+00 0. -1.
         23    2    1    2    0    0 -0.24960668886E+03 -0.35902886947E+03  0.66186225832E+03  0.79564037664E+03  0.61455119508E+02 0.  0.
        254    2    1    2    0    0  0.24960668886E+03  0.35902886947E+03  0.66729233134E+03  0.12014277411E+04  0.89830080341E+03 0.  0.
        -24    2    4    4    0    0  0.53773603710E+03  0.27667552364E+03  0.20508161552E+03  0.64456691782E+03  0.87741959950E+02 0.  0.
         24    2    4    4    0    0 -0.28812934825E+03  0.82353345827E+02  0.46221071582E+03  0.55686082330E+03  0.81575951176E+02 0.  0.
         11    1    3    3    0    0 -0.18587135597E+03 -0.25766717245E+03  0.52639072161E+03  0.61483959251E+03  0.00000000000E+00 0.  1.
        -11    1    3    3    0    0 -0.63735332888E+02 -0.10136169702E+03  0.13547153672E+03  0.18080078413E+03  0.00000000000E+00 0. -1.
          4    1    6    6  502    0 -0.18973641039E+03  0.75246678334E+02  0.24924687175E+03  0.32215830132E+03  0.00000000000E+00 0. -1.
          3    1    5    5  503    0  0.27238529233E+03  0.14284360744E+03  0.15046418178E+03  0.34239964027E+03  0.00000000000E+00 0. -1.
         -4    1    5    5    0  503  0.26535074478E+03  0.13383191620E+03  0.54617433743E+02  0.30216727754E+03  0.00000000000E+00 0.  1.
         -3    1    6    6    0  502 -0.98392937857E+02  0.71066674935E+01  0.21296384407E+03  0.23470252198E+03  0.00000000000E+00 0.  1.
<mgrwt>
<rscale>  0 0.14905130E+04</rscale>
<asrwt>0</asrwt>
<pdfrwt beam="1">  1        2 0.25586328E+00 0.14905130E+04</pdfrwt>
<pdfrwt beam="2">  1       -2 0.51377964E-01 0.14905130E+04</pdfrwt>
<totfact> 0.35578388E+01</totfact>
</mgrwt>
</event>
<event>
12    1  0.4612066E-007  0.1850379E+04  0.7818608E-02  0.8679958E-01
          2   -1    0    0  501    0  0.00000000000E+00  0.00000000000E+00  0.18749010966E+04  0.18749010966E+04  0.00000000000E+00 0.  1.
         -2   -1    0    0    0  501 -0.00000000000E+00 -0.00000000000E+00 -0.45654448029E+03  0.45654448029E+03  0.00000000000E+00 0. -1.
         23    2    1    2    0    0  0.27746164668E+03 -0.50079036165E+03  0.10538968033E+04  0.12037511771E+04  0.10267654442E+03 0.  0.
        254    2    1    2    0    0 -0.27746164668E+03  0.50079036165E+03  0.36445981310E+03  0.11276943998E+04  0.90060410411E+03 0.  0.
        -24    2    4    4    0    0  0.28073453801E+03  0.35179031587E+03  0.36197097442E+02  0.45831397698E+03  0.78569488055E+02 0.  0.
         24    2    4    4    0    0 -0.55819618469E+03  0.14900004578E+03  0.32826271566E+03  0.66938042286E+03  0.80806842334E+02 0.  0.
         13    1    3    3    0    0  0.64034824728E+01 -0.33672746460E+01  0.54440168644E+02  0.54918804505E+02  0.00000000000E+00 0. -1.
        -13    1    3    3    0    0  0.27105816421E+03 -0.49742308701E+03  0.99945663461E+03  0.11488323726E+04  0.00000000000E+00 0.  1.
          4    1    6    6  502    0 -0.52113410195E+03  0.11682915935E+03  0.30561793583E+03  0.61533090886E+03  0.00000000000E+00 0. -1.
          1    1    5    5  503    0  0.17215068500E+03  0.26639390122E+03  0.42593980396E+02  0.32002471173E+03  0.00000000000E+00 0. -1.
         -2    1    5    5    0  503  0.10858385301E+03  0.85396414656E+02 -0.63968829536E+01  0.13828926524E+03  0.00000000000E+00 0.  1.
         -3    1    6    6    0  502 -0.37062082739E+02  0.32170886424E+02  0.22644779826E+02  0.54049514000E+02  0.00000000000E+00 0.  1.
<mgrwt>
<rscale>  0 0.18503791E+04</rscale>
<asrwt>0</asrwt>
<pdfrwt beam="1">  1        2 0.28844632E+00 0.18503791E+04</pdfrwt>
<pdfrwt beam="2">  1       -2 0.70237613E-01 0.18503791E+04</pdfrwt>
<totfact> 0.13602752E+01</totfact>
</mgrwt>
</event>
<event>
12    1  0.4612066E-007  0.1857805E+04  0.7818608E-02  0.8676149E-01
         -2   -1    0    0    0  501 -0.00000000000E+00  0.00000000000E+00  0.91210657490E+03  0.91210657490E+03  0.00000000000E+00 0.  1.
          2   -1    0    0  501    0  0.00000000000E+00 -0.00000000000E+00 -0.94600774732E+03  0.94600774732E+03  0.00000000000E+00 0. -1.
         23    2    1    2    0    0 -0.63370286551E+03 -0.19536347568E+03  0.24410359324E+03  0.70931324948E+03  0.61583376614E+02 0.  0.
        254    2    1    2    0    0  0.63370286551E+03  0.19536347568E+03 -0.27800476566E+03  0.11488010727E+04  0.89594142979E+03 0.  0.
        -24    2    4    4    0    0 -0.16195867280E+03  0.10585028326E+03 -0.27163542901E+03  0.34393282672E+03  0.84077873667E+02 0.  0.
         24    2    4    4    0    0  0.79566153830E+03  0.89513192416E+02 -0.63693366467E+01  0.80486824602E+03  0.81746130495E+02 0.  0.
         13    1    3    3    0    0 -0.30697819043E+03 -0.81821140078E+02  0.86846347468E+02  0.32935178219E+03  0.00000000000E+00 0. -1.
        -13    1    3    3    0    0 -0.32672467507E+03 -0.11354233560E+03  0.15725724577E+03  0.37996146729E+03  0.00000000000E+00 0.  1.
          4    1    6    6  502    0  0.59020876620E+02 -0.93121984745E+01 -0.14893578711E+02  0.61579214060E+02  0.00000000000E+00 0. -1.
          3    1    5    5  503    0 -0.75709004808E+02  0.21252014072E+01 -0.10689366421E+03  0.13100620343E+03  0.00000000000E+00 0. -1.
         -4    1    5    5    0  503 -0.86249667988E+02  0.10372508185E+03 -0.16474176480E+03  0.21292662328E+03  0.00000000000E+00 0.  1.
         -3    1    6    6    0  502  0.73664066168E+03  0.98825390891E+02  0.85242420640E+01  0.74328903196E+03  0.00000000000E+00 0.  1.
<mgrwt>
<rscale>  0 0.18578050E+04</rscale>
<asrwt>0</asrwt>
<pdfrwt beam="1">  1        2 0.14553965E+00 0.18578050E+04</pdfrwt>
<pdfrwt beam="2">  1       -2 0.14032409E+00 0.18578050E+04</pdfrwt>
<totfact> 0.91628396E+00</totfact>
</mgrwt>
</event>
<event>
12    1  0.4612066E-007  0.2326797E+04  0.7818608E-02  0.8467430E-01
          2   -1    0    0  501    0  0.00000000000E+00  0.00000000000E+00  0.48630112190E+03  0.48630112190E+03  0.00000000000E+00 0. -1.
         -2   -1    0    0    0  501 -0.00000000000E+00 -0.00000000000E+00 -0.27832459193E+04  0.27832459193E+04  0.00000000000E+00 0.  1.
         23    2    1    2    0    0 -0.27148332188E+03 -0.92928196051E+03 -0.12626684875E+04  0.15936328648E+04  0.89810034403E+02 0.  0.
        254    2    1    2    0    0  0.27148332188E+03  0.92928196051E+03 -0.10342763099E+04  0.16759141764E+04  0.89537293081E+03 0.  0.
        -24    2    4    4    0    0  0.27603779975E+03  0.10163472430E+04 -0.57749880012E+03  0.12038716096E+04  0.81507073220E+02 0.  0.
         24    2    4    4    0    0 -0.45544778732E+01 -0.87065282479E+02 -0.45677750979E+03  0.47204256682E+03  0.81101077426E+02 0.  0.
         11    1    3    3    0    0 -0.56310941674E+01 -0.78129531008E+01 -0.23599752985E+01  0.99156916596E+01  0.00000000000E+00 0. -1.
        -11    1    3    3    0    0 -0.26585222771E+03 -0.92146900741E+03 -0.12603085122E+04  0.15837171731E+04  0.00000000000E+00 0.  1.
          2    1    6    6  502    0  0.27945170173E+02 -0.61111113495E+02 -0.17955074625E+03  0.19171325256E+03  0.00000000000E+00 0. -1.
          1    1    5    5  503    0  0.50758043946E+02  0.22892429054E+03 -0.16597717510E+03  0.28728232190E+03  0.00000000000E+00 0. -1.
         -2    1    5    5    0  503  0.22527975580E+03  0.78742295246E+03 -0.41152162502E+03  0.91658928768E+03  0.00000000000E+00 0.  1.
         -1    1    6    6    0  502 -0.32499648046E+02 -0.25954168984E+02 -0.27722676354E+03  0.28032931426E+03  0.00000000000E+00 0.  1.
<mgrwt>
<rscale>  0 0.23267966E+04</rscale>
<asrwt>0</asrwt>
<pdfrwt beam="1">  1        2 0.74815556E-01 0.23267966E+04</pdfrwt>
<pdfrwt beam="2">  1       -2 0.42819168E+00 0.23267966E+04</pdfrwt>
<totfact> 0.27860718E-01</totfact>
</mgrwt>
</event>
<event>
12    1  0.4612066E-007  0.1449507E+04  0.7818608E-02  0.8918742E-01
          2   -1    0    0  501    0  0.00000000000E+00  0.00000000000E+00  0.30324771093E+03  0.30324771093E+03  0.00000000000E+00 0.  1.
         -2   -1    0    0    0  501 -0.00000000000E+00 -0.00000000000E+00 -0.17321402394E+04  0.17321402394E+04  0.00000000000E+00 0. -1.
         23    2    1    2    0    0  0.27617933356E+03 -0.20231551017E+03 -0.62913760956E+02  0.36028230259E+03  0.92944103090E+02 0.  0.
        254    2    1    2    0    0 -0.27617933356E+03  0.20231551017E+03 -0.13659787675E+04  0.16751056478E+04  0.90712421855E+03 0.  0.
        -24    2    4    4    0    0 -0.36372509015E+03  0.26022767007E+03 -0.14503244253E+04  0.15195345667E+04  0.74363830500E+02 0.  0.
         24    2    4    4    0    0  0.87545756586E+02 -0.57912159901E+02  0.84345657761E+02  0.15557108107E+03  0.77910804917E+02 0.  0.
         11    1    3    3    0    0  0.22129559032E+03 -0.15909547838E+03 -0.10152454474E+02  0.27273830290E+03  0.00000000000E+00 0.  1.
        -11    1    3    3    0    0  0.54883743241E+02 -0.43220031792E+02 -0.52761306482E+02  0.87543999691E+02  0.00000000000E+00 0. -1.
          4    1    6    6  502    0 -0.25204264143E+01 -0.26847007847E+02 -0.19369182623E+01  0.27034534063E+02  0.00000000000E+00 0. -1.
          1    1    5    5  503    0 -0.15811716488E+03  0.14283793685E+03 -0.78207084261E+03  0.81057912439E+03  0.00000000000E+00 0. -1.
         -2    1    5    5    0  503 -0.20560792527E+03  0.11738973322E+03 -0.66825358269E+03  0.70895544230E+03  0.00000000000E+00 0.  1.
         -3    1    6    6    0  502  0.90066183000E+02 -0.31065152054E+02  0.86282576023E+02  0.12853654701E+03  0.00000000000E+00 0.  1.
<mgrwt>
<rscale>  0 0.14495069E+04</rscale>
<asrwt>0</asrwt>
<pdfrwt beam="1">  1        2 0.46653493E-01 0.14495069E+04</pdfrwt>
<pdfrwt beam="2">  1       -2 0.26648312E+00 0.14495069E+04</pdfrwt>
<totfact> 0.53675550E+00</totfact>
</mgrwt>
</event>
<event>
12    1  0.4612066E-007  0.1143019E+04  0.7818608E-02  0.9164248E-01
          2   -1    0    0  501    0  0.00000000000E+00  0.00000000000E+00  0.18551701170E+04  0.18551701170E+04  0.00000000000E+00 0. -1.
         -2   -1    0    0    0  501 -0.00000000000E+00 -0.00000000000E+00 -0.17606105651E+03  0.17606105651E+03  0.00000000000E+00 0.  1.
         23    2    1    2    0    0 -0.20936050113E+03 -0.40196904032E+02  0.36645311026E+03  0.43343865596E+03  0.90186340069E+02 0.  0.
        254    2    1    2    0    0  0.20936050113E+03  0.40196904032E+02  0.13126559502E+04  0.15977925176E+04  0.88567921673E+03 0.  0.
        -24    2    4    4    0    0 -0.92730058121E+02  0.13386317658E+03 -0.55361558838E+02  0.19146553040E+03  0.84118567565E+02 0.  0.
         24    2    4    4    0    0  0.30209055925E+03 -0.93666272551E+02  0.13680175091E+04  0.14063269872E+04  0.79067142866E+02 0.  0.
         13    1    3    3    0    0 -0.91448768566E+02  0.25021242189E+02  0.17931240055E+03  0.20283460460E+03  0.00000000000E+00 0. -1.
        -13    1    3    3    0    0 -0.11791173256E+03 -0.65218146220E+02  0.18714070971E+03  0.23060405136E+03  0.00000000000E+00 0.  1.
          4    1    6    6  502    0  0.19284679561E+03 -0.91454254446E+02  0.80560248303E+03  0.83339614104E+03  0.00000000000E+00 0. -1.
          3    1    5    5  503    0 -0.20775068458E+01  0.41264401004E+02  0.15066648593E+02  0.43978070953E+02  0.00000000000E+00 0. -1.
         -4    1    5    5    0  503 -0.90652551275E+02  0.92598775579E+02 -0.70428207431E+02  0.14748745944E+03  0.00000000000E+00 0.  1.
         -3    1    6    6    0  502  0.10924376364E+03 -0.22120181053E+01  0.56241502604E+03  0.57293084612E+03  0.00000000000E+00 0.  1.
<mgrwt>
<rscale>  0 0.11430192E+04</rscale>
<asrwt>0</asrwt>
<pdfrwt beam="1">  1        2 0.28541077E+00 0.11430192E+04</pdfrwt>
<pdfrwt beam="2">  1       -2 0.27086318E-01 0.11430192E+04</pdfrwt>
<totfact> 0.98752324E+01</totfact>
</mgrwt>
</event>
<event>
12    1  0.4612066E-007  0.1826986E+04  0.7818608E-02  0.8692079E-01
         -1   -1    0    0    0  501 -0.00000000000E+00  0.00000000000E+00  0.57084672350E+03  0.57084672350E+03  0.00000000000E+00 0.  1.
          1   -1    0    0  501    0  0.00000000000E+00 -0.00000000000E+00 -0.14618104628E+04  0.14618104628E+04  0.00000000000E+00 0. -1.
         23    2    1    2    0    0  0.37916393589E+03  0.48227494833E+03 -0.69751481407E+03  0.93422576599E+03  0.99480902256E+02 0.  0.
        254    2    1    2    0    0 -0.37916393589E+03 -0.48227494833E+03 -0.19344892527E+03  0.10984314204E+04  0.89037895441E+03 0.  0.
        -24    2    4    4    0    0  0.22219876686E+03  0.82564394817E+02 -0.18790471178E+02  0.25103173861E+03  0.80465400643E+02 0.  0.
         24    2    4    4    0    0 -0.60136270275E+03 -0.56483934315E+03 -0.17465845410E+03  0.84739968174E+03  0.83066606942E+02 0.  0.
         13    1    3    3    0    0  0.36431165998E+03  0.48405500805E+03 -0.68683265621E+03  0.91584460148E+03  0.00000000000E+00 0. -1.
        -13    1    3    3    0    0  0.14852275911E+02 -0.17800597109E+01 -0.10682157861E+02  0.18381164513E+02  0.00000000000E+00 0.  1.
          2    1    6    6  502    0 -0.56230663665E+03 -0.51522282204E+03 -0.14009853426E+03  0.77541660369E+03  0.00000000000E+00 0. -1.
          1    1    5    5  503    0  0.91261844288E+02 -0.72278875452E+01 -0.80725132083E+01  0.91902840275E+02  0.00000000000E+00 0. -1.
         -2    1    5    5    0  503  0.13093692257E+03  0.89792282362E+02 -0.10717957970E+02  0.15912889834E+03  0.00000000000E+00 0.  1.
         -1    1    6    6    0  502 -0.39056066101E+02 -0.49616521111E+02 -0.34559919836E+02  0.71983078050E+02  0.00000000000E+00 0.  1.
<mgrwt>
<rscale>  0 0.18269863E+04</rscale>
<asrwt>0</asrwt>
<pdfrwt beam="1">  1        1 0.22489392E+00 0.18269863E+04</pdfrwt>
<pdfrwt beam="2">  1       -1 0.87822573E-01 0.18269863E+04</pdfrwt>
<totfact> 0.83463338E+00</totfact>
</mgrwt>
</event>
<event>
12    1  0.6148692E-007  0.1738524E+04  0.7818608E-02  0.8739693E-01
          1   -1    0    0  501    0  0.00000000000E+00  0.00000000000E+00  0.15730070306E+04  0.15730070306E+04  0.00000000000E+00 0. -1.
         -1   -1    0    0    0  501 -0.00000000000E+00 -0.00000000000E+00 -0.48036408942E+03  0.48036408942E+03  0.00000000000E+00 0.  1.
         23    2    1    2    0    0  0.19749691567E+03  0.18588099442E+03  0.10804105299E+04  0.11168199370E+04  0.80268815341E+02 0.  0.
        254    2    1    2    0    0 -0.19749691567E+03 -0.18588099442E+03  0.12232411220E+02  0.93655118298E+03  0.89633794446E+03 0.  0.
        -24    2    4    4    0    0 -0.43564615570E+03  0.95215105749E+02  0.22296256128E+03  0.50492679984E+03  0.79907947827E+02 0.  0.
         24    2    4    4    0    0  0.23814924003E+03 -0.28109610017E+03 -0.21073015006E+03  0.43162438314E+03  0.78500534498E+02 0.  0.
         11    1    3    3    0    0  0.16174099650E+02 -0.25651506231E+01  0.13210188702E+03  0.13311307243E+03  0.00000000000E+00 0.  1.
        -11    1    3    3    0    0  0.18132281602E+03  0.18844614504E+03  0.94830864290E+03  0.98370686456E+03  0.00000000000E+00 0. -1.
          2    1    6    6  502    0  0.24113133540E+03 -0.26968151090E+03 -0.21270639949E+03  0.41966230545E+03  0.00000000000E+00 0. -1.
          1    1    5    5  503    0 -0.42233133481E+03  0.10629747550E+03  0.21140876040E+03  0.48410388724E+03  0.00000000000E+00 0. -1.
         -2    1    5    5    0  503 -0.13314820892E+02 -0.11082369754E+02  0.11553800877E+02  0.20822912607E+02  0.00000000000E+00 0.  1.
         -1    1    6    6    0  502 -0.29820953626E+01 -0.11414589266E+02  0.19762494246E+01  0.11962077689E+02  0.00000000000E+00 0.  1.
<mgrwt>
<rscale>  0 0.17385236E+04</rscale>
<asrwt>0</asrwt>
<pdfrwt beam="1">  1        1 0.24200108E+00 0.17385236E+04</pdfrwt>
<pdfrwt beam="2">  1       -1 0.73902168E-01 0.17385236E+04</pdfrwt>
<totfact> 0.10185507E+01</totfact>
</mgrwt>
</event>
<event>
12    1  0.4612066E-007  0.1697619E+04  0.7818608E-02  0.8762723E-01
         -2   -1    0    0    0  501 -0.00000000000E+00  0.00000000000E+00  0.42335821345E+03  0.42335821345E+03  0.00000000000E+00 0.  1.
          2   -1    0    0  501    0  0.00000000000E+00 -0.00000000000E+00 -0.17018155717E+04  0.17018155717E+04  0.00000000000E+00 0. -1.
         23    2    1    2    0    0  0.57493102097E+03 -0.20595564994E+03 -0.39763498162E+03  0.73476327947E+03  0.93808792939E+02 0.  0.
        254    2    1    2    0    0 -0.57493102097E+03  0.20595564994E+03 -0.88082237667E+03  0.13904105057E+04  0.88568047656E+03 0.  0.
        -24    2    4    4    0    0  0.21321291972E+03  0.10782123418E+03 -0.35434590255E+03  0.43429400090E+03  0.77234013802E+02 0.  0.
         24    2    4    4    0    0 -0.78814394069E+03  0.98134415762E+02 -0.52647647412E+03  0.95611650482E+03  0.78613346173E+02 0.  0.
         11    1    3    3    0    0  0.45150363470E+03 -0.12171932818E+03 -0.31723677436E+03  0.56507547992E+03  0.00000000000E+00 0.  1.
        -11    1    3    3    0    0  0.12342738627E+03 -0.84236321762E+02 -0.80398207253E+02  0.16968779955E+03  0.00000000000E+00 0. -1.
          4    1    6    6  502    0 -0.13197088865E+02 -0.44956518490E+01 -0.55152167257E+00  0.13952713579E+02  0.00000000000E+00 0. -1.
          1    1    5    5  503    0  0.11455299219E+03  0.86612103636E+02 -0.25515307328E+03  0.29279196594E+03  0.00000000000E+00 0. -1.
         -2    1    5    5    0  503  0.98659927528E+02  0.21209130544E+02 -0.99192829269E+02  0.14150203496E+03  0.00000000000E+00 0.  1.
         -3    1    6    6    0  502 -0.77494685182E+03  0.10263006761E+03 -0.52592495245E+03  0.94216379124E+03  0.00000000000E+00 0.  1.
<mgrwt>
<rscale>  0 0.16976190E+04</rscale>
<asrwt>0</asrwt>
<pdfrwt beam="1">  1        2 0.26181778E+00 0.16976190E+04</pdfrwt>
<pdfrwt beam="2">  1       -2 0.65132034E-01 0.16976190E+04</pdfrwt>
<totfact> 0.20238213E+01</totfact>
</mgrwt>
</event>
<event>
12    1  0.4612066E-007  0.2258377E+04  0.7818608E-02  0.8494516E-01
          2   -1    0    0  501    0  0.00000000000E+00  0.00000000000E+00  0.13905102463E+04  0.13905102463E+04  0.00000000000E+00 0. -1.
         -2   -1    0    0    0  501 -0.00000000000E+00 -0.00000000000E+00 -0.91697767993E+03  0.91697767993E+03  0.00000000000E+00 0.  1.
         23    2    1    2    0    0  0.88190498364E+03  0.13900149112E+03  0.48998872265E+03  0.10224696418E+04  0.90980247498E+02 0.  0.
        254    2    1    2    0    0 -0.88190498364E+03 -0.13900149112E+03 -0.16456156311E+02  0.12850182844E+04  0.92407974296E+03 0.  0.
        -24    2    4    4    0    0 -0.83220337250E+03 -0.45638544099E+03  0.11006793102E+02  0.95259396002E+03  0.80398875671E+02 0.  0.
         24    2    4    4    0    0 -0.49701611140E+02  0.31738394987E+03 -0.27462949413E+02  0.33242432434E+03  0.80925249685E+02 0.  0.
         13    1    3    3    0    0  0.25573020957E+03 -0.12193731098E+01  0.13964529419E+03  0.29137644920E+03  0.00000000000E+00 0.  1.
        -13    1    3    3    0    0  0.62617477407E+03  0.14022086423E+03  0.35034342847E+03  0.73109319264E+03  0.00000000000E+00 0. -1.
          2    1    6    6  502    0 -0.70217272263E+02  0.27868442103E+03 -0.21163709377E+02  0.28817247343E+03  0.00000000000E+00 0. -1.
          1    1    5    5  503    0 -0.23301837182E+03 -0.16425792164E+03 -0.14944700423E+02  0.28548479907E+03  0.00000000000E+00 0. -1.
         -2    1    5    5    0  503 -0.59918500068E+03 -0.29212751935E+03  0.25951493525E+02  0.66710916095E+03  0.00000000000E+00 0.  1.
         -3    1    6    6    0  502  0.20515661123E+02  0.38699528843E+02 -0.62992400357E+01  0.44251850911E+02  0.00000000000E+00 0.  1.
<mgrwt>
<rscale>  0 0.22583772E+04</rscale>
<asrwt>0</asrwt>
<pdfrwt beam="1">  1        2 0.21392465E+00 0.22583772E+04</pdfrwt>
<pdfrwt beam="2">  1       -2 0.14107349E+00 0.22583772E+04</pdfrwt>
<totfact> 0.46940813E+00</totfact>
</mgrwt>
</event>
<event>
12    1  0.4612066E-007  0.1440095E+04  0.7818608E-02  0.8925296E-01
          1   -1    0    0  501    0  0.00000000000E+00  0.00000000000E+00  0.23399600503E+04  0.23399600503E+04  0.00000000000E+00 0. -1.
         -1   -1    0    0    0  501 -0.00000000000E+00 -0.00000000000E+00 -0.22157155390E+03  0.22157155390E+03  0.00000000000E+00 0.  1.
         23    2    1    2    0    0  0.10528744640E+02  0.28583746881E+03  0.12417119964E+04  0.12774835975E+04  0.91113922180E+02 0.  0.
        254    2    1    2    0    0 -0.10528744640E+02 -0.28583746881E+03  0.87667650004E+03  0.12840480067E+04  0.89353437812E+03 0.  0.
        -24    2    4    4    0    0  0.16494641004E+03 -0.39118491069E+03  0.57458372313E+02  0.43569545643E+03  0.79348053980E+02 0.  0.
         24    2    4    4    0    0 -0.17547515468E+03  0.10534744188E+03  0.81921812772E+03  0.84835255031E+03  0.81817451760E+02 0.  0.
         13    1    3    3    0    0  0.75807875953E+01  0.22401205616E+03  0.77749562133E+03  0.80915901456E+03  0.00000000000E+00 0.  1.
        -13    1    3    3    0    0  0.29479570449E+01  0.61825412647E+02  0.46421637508E+03  0.46832458294E+03  0.00000000000E+00 0. -1.
          4    1    6    6  502    0 -0.12634940808E+03  0.55299063059E+02  0.39522692838E+03  0.41860062615E+03  0.00000000000E+00 0. -1.
          3    1    5    5  503    0  0.16590785313E+03 -0.36824072787E+03  0.69405266083E+02  0.40980939515E+03  0.00000000000E+00 0. -1.
         -4    1    5    5    0  503 -0.96144308614E+00 -0.22944182824E+02 -0.11946893770E+02  0.25886061289E+02  0.00000000000E+00 0.  1.
         -3    1    6    6    0  502 -0.49125746607E+02  0.50048378825E+02  0.42399119935E+03  0.42975192417E+03  0.00000000000E+00 0.  1.
<mgrwt>
<rscale>  0 0.14400953E+04</rscale>
<asrwt>0</asrwt>
<pdfrwt beam="1">  1        1 0.35999384E+00 0.14400953E+04</pdfrwt>
<pdfrwt beam="2">  1       -1 0.34087933E-01 0.14400953E+04</pdfrwt>
<totfact> 0.13848070E+01</totfact>
</mgrwt>
</event>
<event>
12    1  0.4612066E-007  0.2314350E+04  0.7818608E-02  0.8472285E-01
         -2   -1    0    0    0  501 -0.00000000000E+00  0.00000000000E+00  0.13770133191E+04  0.13770133191E+04  0.00000000000E+00 0.  1.
          2   -1    0    0  501    0  0.00000000000E+00 -0.00000000000E+00 -0.97243341358E+03  0.97243341358E+03  0.00000000000E+00 0. -1.
         23    2    1    2    0    0  0.95724251770E+03 -0.74110314718E+02  0.37454589642E+03  0.10343824648E+04  0.88639034614E+02 0.  0.
        254    2    1    2    0    0 -0.95724251770E+03  0.74110314718E+02  0.30034009078E+02  0.13150642679E+04  0.89815723042E+03 0.  0.
        -24    2    4    4    0    0 -0.10735625899E+04  0.20350645452E+03 -0.72751233563E+02  0.10979968339E+04  0.79704415105E+02 0.  0.
         24    2    4    4    0    0  0.11632007223E+03 -0.12939613980E+03  0.10278524264E+03  0.21706743397E+03  0.79244839501E+02 0.  0.
         13    1    3    3    0    0  0.34820767635E+03 -0.59220417673E+02  0.10747825860E+03  0.36919807666E+03  0.00000000000E+00 0. -1.
        -13    1    3    3    0    0  0.60903484136E+03 -0.14889897045E+02  0.26706763783E+03  0.66518438812E+03  0.00000000000E+00 0.  1.
          2    1    6    6  502    0  0.39361674701E+00 -0.14016758132E+02  0.39116272228E+02  0.41553666453E+02  0.00000000000E+00 0. -1.
          3    1    5    5  503    0 -0.10334590487E+03  0.18635601615E+01  0.85645769826E+01  0.10371692672E+03  0.00000000000E+00 0. -1.
         -4    1    5    5    0  503 -0.97021668506E+03  0.20164289435E+03 -0.81315810545E+02  0.99427990720E+03  0.00000000000E+00 0.  1.
         -1    1    6    6    0  502  0.11592645549E+03 -0.11537938167E+03  0.63668970412E+02  0.17551376752E+03  0.00000000000E+00 0.  1.
<mgrwt>
<rscale>  0 0.23143498E+04</rscale>
<asrwt>0</asrwt>
<pdfrwt beam="1">  1        2 0.14960514E+00 0.23143498E+04</pdfrwt>
<pdfrwt beam="2">  1       -2 0.21184820E+00 0.23143498E+04</pdfrwt>
<totfact> 0.26473379E+00</totfact>
</mgrwt>
</event>
<event>
12    1  0.4612066E-007  0.1441058E+04  0.7818608E-02  0.8924623E-01
          1   -1    0    0  501    0  0.00000000000E+00  0.00000000000E+00  0.17102793055E+04  0.17102793055E+04  0.00000000000E+00 0. -1.
         -1   -1    0    0    0  501 -0.00000000000E+00 -0.00000000000E+00 -0.30355392894E+03  0.30355392894E+03  0.00000000000E+00 0.  1.
         23    2    1    2    0    0 -0.52361844042E+01  0.96646362889E+02 -0.16148834086E+03  0.20829876737E+03  0.89117647908E+02 0.  0.
        254    2    1    2    0    0  0.52361844042E+01 -0.96646362889E+02  0.15682137174E+04  0.18055344671E+04  0.88954623892E+03 0.  0.
        -24    2    4    4    0    0  0.42868071626E+03  0.44762359474E+02  0.84117414234E+03  0.94874572107E+03  0.82302370581E+02 0.  0.
         24    2    4    4    0    0 -0.42344453186E+03 -0.14140872236E+03  0.72703957508E+03  0.85678874599E+03  0.78731907157E+02 0.  0.
         13    1    3    3    0    0 -0.33373751420E+02  0.94789098973E+02 -0.14223556322E+03  0.17415434537E+03  0.00000000000E+00 0.  1.
        -13    1    3    3    0    0  0.28137567016E+02  0.18572639160E+01 -0.19252777640E+02  0.34144422000E+02  0.00000000000E+00 0. -1.
          4    1    6    6  502    0 -0.17919205805E+03 -0.55065051394E+02  0.37992962048E+03  0.42366079601E+03  0.00000000000E+00 0. -1.
          1    1    5    5  503    0  0.24347827278E+02 -0.14658028786E+02  0.78367599893E+02  0.83361593159E+02  0.00000000000E+00 0. -1.
         -2    1    5    5    0  503  0.40433288898E+03  0.59420388260E+02  0.76280654244E+03  0.86538412791E+03  0.00000000000E+00 0.  1.
         -3    1    6    6    0  502 -0.24425247380E+03 -0.86343670969E+02  0.34710995460E+03  0.43312794998E+03  0.00000000000E+00 0.  1.
<mgrwt>
<rscale>  0 0.14410579E+04</rscale>
<asrwt>0</asrwt>
<pdfrwt beam="1">  1        1 0.26311989E+00 0.14410579E+04</pdfrwt>
<pdfrwt beam="2">  1       -1 0.46700606E-01 0.14410579E+04</pdfrwt>
<totfact> 0.20823730E+01</totfact>
</mgrwt>
</event>
<event>
12    1  0.4612066E-007  0.1896639E+04  0.7818608E-02  0.8656531E-01
         -2   -1    0    0    0  501 -0.00000000000E+00  0.00000000000E+00  0.92044094602E+03  0.92044094602E+03  0.00000000000E+00 0.  1.
          2   -1    0    0  501    0  0.00000000000E+00 -0.00000000000E+00 -0.97704234648E+03  0.97704234648E+03  0.00000000000E+00 0. -1.
         23    2    1    2    0    0 -0.49107693495E+03 -0.27408287764E+03  0.42715153527E+03  0.71218285021E+03  0.92021726727E+02 0.  0.
        254    2    1    2    0    0  0.49107693495E+03  0.27408287764E+03 -0.48375293574E+03  0.11853004423E+04  0.92446863430E+03 0.  0.
        -24    2    4    4    0    0  0.54553386437E+03 -0.18976056775E+03 -0.13853897684E+03  0.59931401325E+03  0.79799549643E+02 0.  0.
         24    2    4    4    0    0 -0.54456929422E+02  0.46384344539E+03 -0.34521395889E+03  0.58598642904E+03  0.78045618793E+02 0.  0.
         13    1    3    3    0    0 -0.45226716614E+03 -0.22741899561E+03  0.40223395265E+03  0.64657338470E+03  0.00000000000E+00 0.  1.
        -13    1    3    3    0    0 -0.38809768813E+02 -0.46663882024E+02  0.24917582616E+02  0.65609465508E+02  0.00000000000E+00 0. -1.
          4    1    6    6  502    0 -0.41724794560E+02  0.40689725761E+03 -0.26723029578E+03  0.48858813710E+03  0.00000000000E+00 0. -1.
          1    1    5    5  503    0  0.51539741693E+03 -0.16266112120E+03 -0.14151314071E+03  0.55867620920E+03  0.00000000000E+00 0. -1.
         -2    1    5    5    0  503  0.30136447443E+02 -0.27099446549E+02  0.29741638633E+01  0.40637804055E+02  0.00000000000E+00 0.  1.
         -3    1    6    6    0  502 -0.12732134861E+02  0.56946187777E+02 -0.77983663109E+02  0.97398291937E+02  0.00000000000E+00 0.  1.
<mgrwt>
<rscale>  0 0.18966389E+04</rscale>
<asrwt>0</asrwt>
<pdfrwt beam="1">  1        2 0.15031421E+00 0.18966389E+04</pdfrwt>
<pdfrwt beam="2">  1       -2 0.14160630E+00 0.18966389E+04</pdfrwt>
<totfact> 0.85124184E+00</totfact>
</mgrwt>
</event>
<event>
12    1  0.4612066E-007  0.3242449E+04  0.7818608E-02  0.8177696E-01
         -2   -1    0    0    0  501 -0.00000000000E+00  0.00000000000E+00  0.70391530206E+03  0.70391530206E+03  0.00000000000E+00 0.  1.
          2   -1    0    0  501    0  0.00000000000E+00 -0.00000000000E+00 -0.37339274529E+04  0.37339274529E+04  0.00000000000E+00 0. -1.
         23    2    1    2    0    0 -0.99626963244E+03 -0.11102433063E+04 -0.12660434456E+04  0.19586767467E+04  0.91406850849E+02 0.  0.
        254    2    1    2    0    0  0.99626963244E+03  0.11102433063E+04 -0.17639687052E+04  0.24791660082E+04  0.89971391214E+03 0.  0.
        -24    2    4    4    0    0  0.15095973361E+02 -0.12815594163E+03 -0.92892848261E+02  0.17828721278E+03  0.80656154125E+02 0.  0.
         24    2    4    4    0    0  0.98117365908E+03  0.12383992479E+04 -0.16710758570E+04  0.23008787955E+04  0.72209868657E+02 0.  0.
         13    1    3    3    0    0 -0.78058952848E+02 -0.61571208519E+02 -0.10508901466E+03  0.14466483622E+03  0.00000000000E+00 0.  1.
        -13    1    3    3    0    0 -0.91821067960E+03 -0.10486720977E+04 -0.11609544309E+04  0.18140119105E+04  0.00000000000E+00 0. -1.
          2    1    6    6  502    0  0.31030670670E+03  0.33973363044E+03 -0.47751638727E+03  0.66312223005E+03  0.00000000000E+00 0. -1.
          3    1    5    5  503    0 -0.13806852582E+02 -0.10461257226E+02  0.93886228248E+01  0.19703129689E+02  0.00000000000E+00 0. -1.
         -4    1    5    5    0  503  0.28902825943E+02 -0.11769468440E+03 -0.10228147109E+03  0.15858408310E+03  0.00000000000E+00 0.  1.
         -1    1    6    6    0  502  0.67086695238E+03  0.89866561745E+03 -0.11935594697E+04  0.16377565654E+04  0.00000000000E+00 0.  1.
<mgrwt>
<rscale>  0 0.32424489E+04</rscale>
<asrwt>0</asrwt>
<pdfrwt beam="1">  1        2 0.57445038E+00 0.32424489E+04</pdfrwt>
<pdfrwt beam="2">  1       -2 0.10829466E+00 0.32424489E+04</pdfrwt>
<totfact> 0.31485721E-01</totfact>
</mgrwt>
</event>
<event>
12    1  0.4612066E-007  0.1448339E+04  0.7818608E-02  0.8919553E-01
          1   -1    0    0  501    0  0.00000000000E+00  0.00000000000E+00  0.22760688524E+04  0.22760688524E+04  0.00000000000E+00 0. -1.
         -1   -1    0    0    0  501 -0.00000000000E+00 -0.00000000000E+00 -0.23040671945E+03  0.23040671945E+03  0.00000000000E+00 0.  1.
         23    2    1    2    0    0 -0.40300574155E+02  0.13561488385E+03 -0.84322991058E+02  0.18822220427E+03  0.91113656281E+02 0.  0.
        254    2    1    2    0    0  0.40300574155E+02 -0.13561488385E+03  0.21299851240E+04  0.23182533675E+04  0.90412748810E+03 0.  0.
        -24    2    4    4    0    0  0.12562940905E+03 -0.24580271312E+03  0.13662141174E+03  0.31849798103E+03  0.81079168602E+02 0.  0.
         24    2    4    4    0    0 -0.85328834894E+02  0.11018782927E+03  0.19933637122E+04  0.19997553865E+04  0.78104729658E+02 0.  0.
         11    1    3    3    0    0 -0.23490679426E+02  0.14259008508E+03 -0.56902173331E+02  0.15531130581E+03  0.00000000000E+00 0.  1.
        -11    1    3    3    0    0 -0.16809894730E+02 -0.69752012240E+01 -0.27420817727E+02  0.32910898465E+02  0.00000000000E+00 0. -1.
          4    1    6    6  502    0  0.13715412801E+02  0.23755511031E+02  0.43048712687E+03  0.43136017810E+03  0.00000000000E+00 0. -1.
          1    1    5    5  503    0  0.44431838025E+02 -0.11159208996E+03  0.17171643669E+02  0.12133362319E+03  0.00000000000E+00 0. -1.
         -2    1    5    5    0  503  0.81197571025E+02 -0.13421062317E+03  0.11944976807E+03  0.19716435784E+03  0.00000000000E+00 0.  1.
         -3    1    6    6    0  502 -0.99044247695E+02  0.86432318237E+02  0.15628765854E+04  0.15683952084E+04  0.00000000000E+00 0.  1.
<mgrwt>
<rscale>  0 0.14483391E+04</rscale>
<asrwt>0</asrwt>
<pdfrwt beam="1">  1        1 0.35016442E+00 0.14483391E+04</pdfrwt>
<pdfrwt beam="2">  1       -1 0.35447189E-01 0.14483391E+04</pdfrwt>
<totfact> 0.14266038E+01</totfact>
</mgrwt>
</event>
<event>
12    1  0.4612066E-007  0.1245597E+04  0.7818608E-02  0.9073856E-01
         -2   -1    0    0    0  501 -0.00000000000E+00  0.00000000000E+00  0.22671648678E+03  0.22671648678E+03  0.00000000000E+00 0.  1.
          2   -1    0    0  501    0  0.00000000000E+00 -0.00000000000E+00 -0.17108497951E+04  0.17108497951E+04  0.00000000000E+00 0. -1.
         23    2    1    2    0    0 -0.80554168469E+02 -0.83536426110E+02  0.47740835400E+02  0.16391410687E+03  0.10545775705E+03 0.  0.
        254    2    1    2    0    0  0.80554168469E+02  0.83536426110E+02 -0.15318741438E+04  0.17736521751E+04  0.88641769906E+03 0.  0.
        -24    2    4    4    0    0 -0.25873417933E+03  0.33994099423E+03 -0.98317544846E+03  0.10749406831E+04  0.79751204482E+02 0.  0.
         24    2    4    4    0    0  0.33928834780E+03 -0.25640456811E+03 -0.54869869530E+03  0.69871149196E+03  0.79168208673E+02 0.  0.
         11    1    3    3    0    0 -0.25442310510E+02 -0.11488160045E+02  0.65752775325E+02  0.71433300696E+02  0.00000000000E+00 0.  1.
        -11    1    3    3    0    0 -0.55111857959E+02 -0.72048266065E+02 -0.18011939925E+02  0.92480806174E+02  0.00000000000E+00 0. -1.
          2    1    6    6  502    0  0.62534164569E+02 -0.23341249223E+02 -0.12368608426E+03  0.14054744072E+03  0.00000000000E+00 0. -1.
          3    1    5    5  503    0 -0.12405770039E+03  0.13004630498E+03 -0.32988116760E+03  0.37566466323E+03  0.00000000000E+00 0. -1.
         -4    1    5    5    0  503 -0.13467647894E+03  0.20989468925E+03 -0.65329428087E+03  0.69927601987E+03  0.00000000000E+00 0.  1.
         -1    1    6    6    0  502  0.27675418323E+03 -0.23306331889E+03 -0.42501261105E+03  0.55816405124E+03  0.00000000000E+00 0.  1.
<mgrwt>
<rscale>  0 0.12455968E+04</rscale>
<asrwt>0</asrwt>
<pdfrwt beam="1">  1        2 0.26320767E+00 0.12455968E+04</pdfrwt>
<pdfrwt beam="2">  1       -2 0.34879459E-01 0.12455968E+04</pdfrwt>
<totfact> 0.73363329E+01</totfact>
</mgrwt>
</event>
<event>
12    1  0.4612066E-007  0.1471820E+04  0.7818608E-02  0.8903412E-01
         -2   -1    0    0    0  501 -0.00000000000E+00  0.00000000000E+00  0.48150700789E+03  0.48150700789E+03  0.00000000000E+00 0.  1.
          2   -1    0    0  501    0  0.00000000000E+00 -0.00000000000E+00 -0.11247254621E+04  0.11247254621E+04  0.00000000000E+00 0. -1.
         23    2    1    2    0    0  0.39283442666E+03  0.30194177181E+03 -0.26086283915E+03  0.56706281876E+03  0.89571754712E+02 0.  0.
        254    2    1    2    0    0 -0.39283442666E+03 -0.30194177181E+03 -0.38235561509E+03  0.10391696513E+04  0.82957219540E+03 0.  0.
        -24    2    4    4    0    0 -0.24538799489E+03 -0.58011868992E+03 -0.19383119914E+03  0.66363594977E+03  0.78033182927E+02 0.  0.
         24    2    4    4    0    0 -0.14744643177E+03  0.27817691810E+03 -0.18852441596E+03  0.37553370149E+03  0.79757492053E+02 0.  0.
         13    1    3    3    0    0  0.38882892631E+03  0.28363439215E+03 -0.23629681842E+03  0.53616470300E+03  0.00000000000E+00 0.  1.
        -13    1    3    3    0    0  0.40055003433E+01  0.18307379667E+02 -0.24566020732E+02  0.30898115766E+02  0.00000000000E+00 0. -1.
          4    1    6    6  502    0 -0.15674288571E+03  0.25782504204E+03 -0.16899193673E+03  0.34583284864E+03  0.00000000000E+00 0. -1.
          3    1    5    5  503    0 -0.12252329893E+03 -0.33371996919E+03 -0.72813015800E+02  0.36288112639E+03  0.00000000000E+00 0. -1.
         -4    1    5    5    0  503 -0.12286469596E+03 -0.24639872072E+03 -0.12101818334E+03  0.30075482338E+03  0.00000000000E+00 0.  1.
         -3    1    6    6    0  502  0.92964539374E+01  0.20351876062E+02 -0.19532479231E+02  0.29700852848E+02  0.00000000000E+00 0.  1.
<mgrwt>
<rscale>  0 0.14718195E+04</rscale>
<asrwt>0</asrwt>
<pdfrwt beam="1">  1        2 0.17303469E+00 0.14718195E+04</pdfrwt>
<pdfrwt beam="2">  1       -2 0.74078001E-01 0.14718195E+04</pdfrwt>
<totfact> 0.33432583E+01</totfact>
</mgrwt>
</event>
<event>
12    1  0.4612066E-007  0.1191758E+04  0.7818608E-02  0.9120101E-01
          1   -1    0    0  501    0  0.00000000000E+00  0.00000000000E+00  0.19406432814E+04  0.19406432814E+04  0.00000000000E+00 0. -1.
         -1   -1    0    0    0  501 -0.00000000000E+00 -0.00000000000E+00 -0.18296603008E+03  0.18296603008E+03  0.00000000000E+00 0.  1.
         23    2    1    2    0    0  0.23903605509E+02 -0.12265306530E+03  0.75341905204E+03  0.76900323058E+03  0.90058558068E+02 0.  0.
        254    2    1    2    0    0 -0.23903605509E+02  0.12265306530E+03  0.10042581993E+04  0.13546060809E+04  0.90044874744E+03 0.  0.
        -24    2    4    4    0    0  0.26051936971E+03  0.36840108516E+03  0.28902814387E+03  0.54269428746E+03  0.85965808071E+02 0.  0.
         24    2    4    4    0    0 -0.28442297522E+03 -0.24574801986E+03  0.71523005538E+03  0.81191179340E+03  0.79738385038E+02 0.  0.
         11    1    3    3    0    0 -0.18913773983E+02  0.41161981206E+01  0.12570000499E+03  0.12718162284E+03  0.00000000000E+00 0.  1.
        -11    1    3    3    0    0  0.42817379492E+02 -0.12676926342E+03  0.62771904705E+03  0.64182160774E+03  0.00000000000E+00 0. -1.
          2    1    6    6  502    0 -0.72993018488E+01 -0.17226967912E+02  0.80019812397E+02  0.82177969110E+02  0.00000000000E+00 0. -1.
          1    1    5    5  503    0  0.13225076619E+03  0.25868783799E+03  0.18192389031E+03  0.34279143010E+03  0.00000000000E+00 0. -1.
         -2    1    5    5    0  503  0.12826860352E+03  0.10971324716E+03  0.10710425356E+03  0.19990285737E+03  0.00000000000E+00 0.  1.
         -1    1    6    6    0  502 -0.27712367337E+03 -0.22852105195E+03  0.63521024299E+03  0.72973382429E+03  0.00000000000E+00 0.  1.
<mgrwt>
<rscale>  0 0.11917580E+04</rscale>
<asrwt>0</asrwt>
<pdfrwt beam="1">  1        1 0.29856049E+00 0.11917580E+04</pdfrwt>
<pdfrwt beam="2">  1       -1 0.28148621E-01 0.11917580E+04</pdfrwt>
<totfact> 0.36996060E+01</totfact>
</mgrwt>
</event>
<event>
12    1  0.4612066E-007  0.1377483E+04  0.7818608E-02  0.8970280E-01
          1   -1    0    0  501    0  0.00000000000E+00  0.00000000000E+00  0.10801716670E+04  0.10801716670E+04  0.00000000000E+00 0. -1.
         -1   -1    0    0    0  501 -0.00000000000E+00 -0.00000000000E+00 -0.43915710546E+03  0.43915710546E+03  0.00000000000E+00 0.  1.
         23    2    1    2    0    0  0.75557987440E+02 -0.95850084253E+02 -0.22115754406E+03  0.26836092846E+03  0.90612805457E+02 0.  0.
        254    2    1    2    0    0 -0.75557987440E+02  0.95850084253E+02  0.86217210559E+03  0.12509678440E+04  0.89815564291E+03 0.  0.
        -24    2    4    4    0    0 -0.35834046059E+03 -0.23168492514E+03  0.26392158622E+03  0.50818136618E+03  0.80671599857E+02 0.  0.
         24    2    4    4    0    0  0.28278247315E+03  0.32753500939E+03  0.59825051936E+03  0.74278647780E+03  0.81135431168E+02 0.  0.
         11    1    3    3    0    0  0.64742095955E+02 -0.34801384277E+02 -0.17867514860E+03  0.19320321960E+03  0.00000000000E+00 0.  1.
        -11    1    3    3    0    0  0.10815891485E+02 -0.61048699977E+02 -0.42482395460E+02  0.75157708863E+02  0.00000000000E+00 0. -1.
          2    1    6    6  502    0  0.65699895329E+02  0.75702342038E+02  0.85888386078E+02  0.13200051401E+03  0.00000000000E+00 0. -1.
          3    1    5    5  503    0 -0.24187449556E+03 -0.18269958304E+03  0.21950868752E+03  0.37425455661E+03  0.00000000000E+00 0. -1.
         -4    1    5    5    0  503 -0.11646596502E+03 -0.48985342100E+02  0.44412898707E+02  0.13392680957E+03  0.00000000000E+00 0.  1.
         -1    1    6    6    0  502  0.21708257782E+03  0.25183266735E+03  0.51236213329E+03  0.61078596379E+03  0.00000000000E+00 0.  1.
<mgrwt>
<rscale>  0 0.13774833E+04</rscale>
<asrwt>0</asrwt>
<pdfrwt beam="1">  1        1 0.16618026E+00 0.13774833E+04</pdfrwt>
<pdfrwt beam="2">  1       -1 0.67562632E-01 0.13774833E+04</pdfrwt>
<totfact> 0.28443539E+01</totfact>
</mgrwt>
</event>
<event>
12    1  0.4612066E-007  0.1658786E+04  0.7818608E-02  0.8785226E-01
          2   -1    0    0  501    0  0.00000000000E+00  0.00000000000E+00  0.15554486057E+04  0.15554486057E+04  0.00000000000E+00 0.  1.
         -2   -1    0    0    0  501 -0.00000000000E+00 -0.00000000000E+00 -0.44224715437E+03  0.44224715437E+03  0.00000000000E+00 0. -1.
         23    2    1    2    0    0  0.42391771077E+03 -0.14935947193E+03  0.83575215552E+03  0.95339812776E+03  0.92042637890E+02 0.  0.
        254    2    1    2    0    0 -0.42391771077E+03  0.14935947193E+03  0.27744929584E+03  0.10442976323E+04  0.90086900034E+03 0.  0.
        -24    2    4    4    0    0 -0.28027134325E+03  0.27057693171E+03 -0.25675690709E+03  0.47255018184E+03  0.74937728835E+02 0.  0.
         24    2    4    4    0    0 -0.14364636753E+03 -0.12121745978E+03  0.53420620292E+03  0.57174745049E+03  0.78682453183E+02 0.  0.
         13    1    3    3    0    0  0.39194858503E+03 -0.10948164327E+03  0.75838922234E+03  0.86067655718E+03  0.00000000000E+00 0.  1.
        -13    1    3    3    0    0  0.31969125748E+02 -0.39877828665E+02  0.77362933178E+02  0.92721570575E+02  0.00000000000E+00 0. -1.
          2    1    6    6  502    0 -0.55594716679E+02 -0.25190408982E+01  0.16075529219E+03  0.17011579015E+03  0.00000000000E+00 0. -1.
          3    1    5    5  503    0  0.11928866574E+01  0.11304811510E+02  0.59659118057E+00  0.11383218477E+02  0.00000000000E+00 0. -1.
         -4    1    5    5    0  503 -0.28146422990E+03  0.25927212020E+03 -0.25735349827E+03  0.46116696337E+03  0.00000000000E+00 0.  1.
         -1    1    6    6    0  502 -0.88051650848E+02 -0.11869841888E+03  0.37345091073E+03  0.40163166034E+03  0.00000000000E+00 0.  1.
<mgrwt>
<rscale>  0 0.16587860E+04</rscale>
<asrwt>0</asrwt>
<pdfrwt beam="1">  1        2 0.23929978E+00 0.16587860E+04</pdfrwt>
<pdfrwt beam="2">  1       -2 0.68038024E-01 0.16587860E+04</pdfrwt>
<totfact> 0.22299851E+01</totfact>
</mgrwt>
</event>
<event>
12    1  0.4612066E-007  0.1925489E+04  0.7818608E-02  0.8642272E-01
         -2   -1    0    0    0  501 -0.00000000000E+00  0.00000000000E+00  0.34086300945E+03  0.34086300945E+03  0.00000000000E+00 0.  1.
          2   -1    0    0  501    0  0.00000000000E+00 -0.00000000000E+00 -0.27192067119E+04  0.27192067119E+04  0.00000000000E+00 0. -1.
         23    2    1    2    0    0 -0.29999550337E+03 -0.41366707910E+03 -0.87702329449E+02  0.52648624379E+03  0.91533119357E+02 0.  0.
        254    2    1    2    0    0  0.29999550337E+03  0.41366707910E+03 -0.22906413730E+04  0.25335834776E+04  0.95440535605E+03 0.  0.
        -24    2    4    4    0    0  0.17896732739E+03  0.68739540825E+03 -0.19319819977E+04  0.20598975978E+04  0.77986680757E+02 0.  0.
         24    2    4    4    0    0  0.12102817598E+03 -0.27372832915E+03 -0.35865937533E+03  0.47368587980E+03  0.78528642201E+02 0.  0.
         11    1    3    3    0    0 -0.29269814363E+03 -0.40279490244E+03 -0.10074859022E+03  0.50800218026E+03  0.00000000000E+00 0. -1.
        -11    1    3    3    0    0 -0.72973597420E+01 -0.10872176661E+02  0.13046260776E+02  0.18484063535E+02  0.00000000000E+00 0.  1.
          2    1    6    6  502    0  0.11896283248E+02 -0.12159246152E+03 -0.13908944125E+03  0.18512731003E+03  0.00000000000E+00 0. -1.
          3    1    5    5  503    0  0.11609783187E+03  0.53276097720E+03 -0.15471167515E+04  0.16403911754E+04  0.00000000000E+00 0. -1.
         -4    1    5    5    0  503  0.62869495520E+02  0.15463443105E+03 -0.38486524617E+03  0.41950642241E+03  0.00000000000E+00 0.  1.
         -1    1    6    6    0  502  0.10913189273E+03 -0.15213586763E+03 -0.21956993408E+03  0.28855856977E+03  0.00000000000E+00 0.  1.
<mgrwt>
<rscale>  0 0.19254890E+04</rscale>
<asrwt>0</asrwt>
<pdfrwt beam="1">  1        2 0.41833949E+00 0.19254890E+04</pdfrwt>
<pdfrwt beam="2">  1       -2 0.52440463E-01 0.19254890E+04</pdfrwt>
<totfact> 0.83078730E+00</totfact>
</mgrwt>
</event>
<event>
12    1  0.4612066E-007  0.1525393E+04  0.7818608E-02  0.8867740E-01
          1   -1    0    0  501    0  0.00000000000E+00  0.00000000000E+00  0.41203447771E+03  0.41203447771E+03  0.00000000000E+00 0. -1.
         -1   -1    0    0    0  501 -0.00000000000E+00 -0.00000000000E+00 -0.14117902046E+04  0.14117902046E+04  0.00000000000E+00 0.  1.
         23    2    1    2    0    0 -0.87939278358E+02  0.15072970876E+03 -0.87803506930E+03  0.89978911404E+03  0.90675823859E+02 0.  0.
        254    2    1    2    0    0  0.87939278358E+02 -0.15072970876E+03 -0.12172065759E+03  0.92403556827E+03  0.89920690120E+03 0.  0.
        -24    2    4    4    0    0 -0.15512519243E+03 -0.45731199881E+03  0.42394118681E+02  0.49115734814E+03  0.78994871667E+02 0.  0.
         24    2    4    4    0    0  0.24306447079E+03  0.30658229004E+03 -0.16411477627E+03  0.43287822013E+03  0.85888626403E+02 0.  0.
         11    1    3    3    0    0 -0.10138012160E+03  0.15092194586E+03 -0.83994047885E+03  0.85939244283E+03  0.00000000000E+00 0.  1.
        -11    1    3    3    0    0  0.13440843244E+02 -0.19223709194E+00 -0.38094590457E+02  0.40396671203E+02  0.00000000000E+00 0. -1.
          2    1    6    6  502    0  0.12544507758E+03  0.10568583547E+03 -0.39047001501E+02  0.16861385362E+03  0.00000000000E+00 0. -1.
          1    1    5    5  503    0  0.64537698748E+01 -0.41103265350E+02  0.13536474707E+02  0.43753465183E+02  0.00000000000E+00 0. -1.
         -4    1    5    5    0  503 -0.16157896231E+03 -0.41620873346E+03  0.28857643974E+02  0.44740388295E+03  0.00000000000E+00 0.  1.
         -1    1    6    6    0  502  0.11761939321E+03  0.20089645458E+03 -0.12506777477E+03  0.26426436651E+03  0.00000000000E+00 0.  1.
<mgrwt>
<rscale>  0 0.15253934E+04</rscale>
<asrwt>0</asrwt>
<pdfrwt beam="1">  1        1 0.63389922E-01 0.15253934E+04</pdfrwt>
<pdfrwt beam="2">  1       -1 0.21719849E+00 0.15253934E+04</pdfrwt>
<totfact> 0.63971688E+00</totfact>
</mgrwt>
</event>
<event>
12    1  0.4834852E-007  0.2988099E+04  0.7818608E-02  0.8247137E-01
         -2   -1    0    0    0  501 -0.00000000000E+00  0.00000000000E+00  0.14061864177E+04  0.14061864177E+04  0.00000000000E+00 0.  1.
          2   -1    0    0  501    0  0.00000000000E+00 -0.00000000000E+00 -0.15874029632E+04  0.15874029632E+04  0.00000000000E+00 0. -1.
         23    2    1    2    0    0  0.66977927018E+03 -0.99303854687E+03 -0.72224478289E+03  0.14017081388E+04  0.91751586715E+02 0.  0.
        254    2    1    2    0    0 -0.66977927018E+03  0.99303854687E+03  0.54102823740E+03  0.15918812421E+04  0.89813390374E+03 0.  0.
        -24    2    4    4    0    0 -0.98065528304E+02 -0.16125458845E+03  0.61768835860E+02  0.21508259418E+03  0.82615029487E+02 0.  0.
         24    2    4    4    0    0 -0.57171374187E+03  0.11542931353E+04  0.47925940154E+03  0.13767986479E+04  0.81459794572E+02 0.  0.
         13    1    3    3    0    0  0.24628417202E+03 -0.34147501740E+03 -0.30310009205E+03  0.51877812858E+03  0.00000000000E+00 0. -1.
        -13    1    3    3    0    0  0.42349509816E+03 -0.65156352947E+03 -0.41914469084E+03  0.88293001023E+03  0.00000000000E+00 0.  1.
          4    1    6    6  502    0 -0.40813227600E+03  0.87222770679E+03  0.38783809664E+03  0.10381577512E+04  0.00000000000E+00 0. -1.
          3    1    5    5  503    0 -0.96668015340E+02 -0.16896352081E+03  0.66761626355E+02  0.20579234997E+03  0.00000000000E+00 0. -1.
         -4    1    5    5    0  503 -0.13975129641E+01  0.77089323543E+01 -0.49927904952E+01  0.92902442087E+01  0.00000000000E+00 0.  1.
         -3    1    6    6    0  502 -0.16358146588E+03  0.28206542852E+03  0.91421304900E+02  0.33864089673E+03  0.00000000000E+00 0.  1.
<mgrwt>
<rscale>  0 0.29880994E+04</rscale>
<asrwt>0</asrwt>
<pdfrwt beam="1">  1        2 0.24421584E+00 0.29880994E+04</pdfrwt>
<pdfrwt beam="2">  1       -2 0.21633637E+00 0.29880994E+04</pdfrwt>
<totfact> 0.10128802E+00</totfact>
</mgrwt>
</event>
<event>
12    1  0.4612066E-007  0.1792805E+04  0.7818608E-02  0.8710135E-01
         -2   -1    0    0    0  501 -0.00000000000E+00  0.00000000000E+00  0.26366480467E+03  0.26366480467E+03  0.00000000000E+00 0.  1.
          2   -1    0    0  501    0  0.00000000000E+00 -0.00000000000E+00 -0.30475717297E+04  0.30475717297E+04  0.00000000000E+00 0. -1.
         23    2    1    2    0    0  0.13847639729E+03 -0.50258038327E+03 -0.31212336517E+03  0.61201596452E+03  0.73347061948E+02 0.  0.
        254    2    1    2    0    0 -0.13847639729E+03  0.50258038327E+03 -0.24717835599E+04  0.26992205699E+04  0.95095476425E+03 0.  0.
        -24    2    4    4    0    0  0.48496461942E+02  0.67609170994E+03 -0.10499570395E+04  0.12521421609E+04  0.77448688074E+02 0.  0.
         24    2    4    4    0    0 -0.18697285923E+03 -0.17351132668E+03 -0.14218265204E+04  0.14470784089E+04  0.85908305773E+02 0.  0.
         13    1    3    3    0    0  0.24258602581E+02 -0.21999703002E+03 -0.14185715610E+03  0.26288899892E+03  0.00000000000E+00 0. -1.
        -13    1    3    3    0    0  0.11421779471E+03 -0.28258335324E+03 -0.17026620907E+03  0.34912696560E+03  0.00000000000E+00 0.  1.
          2    1    6    6  502    0 -0.15575401500E+03 -0.93353486070E+02 -0.10342687875E+04  0.10500886207E+04  0.00000000000E+00 0. -1.
          1    1    5    5  503    0 -0.10259204549E+02  0.38219804509E+03 -0.60336091838E+03  0.71430035334E+03  0.00000000000E+00 0. -1.
         -2    1    5    5    0  503  0.58755666491E+02  0.29389366485E+03 -0.44659612112E+03  0.53784180758E+03  0.00000000000E+00 0.  1.
         -1    1    6    6    0  502 -0.31218844236E+02 -0.80157840609E+02 -0.38755773286E+03  0.39698978821E+03  0.00000000000E+00 0.  1.
<mgrwt>
<rscale>  0 0.17928050E+04</rscale>
<asrwt>0</asrwt>
<pdfrwt beam="1">  1        2 0.46885722E+00 0.17928050E+04</pdfrwt>
<pdfrwt beam="2">  1       -2 0.40563814E-01 0.17928050E+04</pdfrwt>
<totfact> 0.88701963E+00</totfact>
</mgrwt>
</event>
<event>
12    1  0.4612066E-007  0.2788812E+04  0.7818608E-02  0.8306750E-01
         -2   -1    0    0    0  501 -0.00000000000E+00  0.00000000000E+00  0.71744887400E+03  0.71744887400E+03  0.00000000000E+00 0.  1.
          2   -1    0    0  501    0  0.00000000000E+00 -0.00000000000E+00 -0.27101141420E+04  0.27101141420E+04  0.00000000000E+00 0. -1.
         23    2    1    2    0    0  0.81748317223E+03 -0.91607078286E+03 -0.60538621452E+03  0.13711679351E+04  0.78387635091E+02 0.  0.
        254    2    1    2    0    0 -0.81748317223E+03  0.91607078286E+03 -0.13872790535E+04  0.20563950809E+04  0.89261029602E+03 0.  0.
        -24    2    4    4    0    0 -0.36049087854E+02 -0.51203288211E+02 -0.53967826304E+03  0.54931385781E+03  0.81066474747E+02 0.  0.
         24    2    4    4    0    0 -0.78143408438E+03  0.96727407107E+03 -0.84760079044E+03  0.15070812231E+04  0.81291797455E+02 0.  0.
         11    1    3    3    0    0  0.34636651656E+03 -0.41803991254E+03 -0.30492832630E+03  0.62266236151E+03  0.00000000000E+00 0. -1.
        -11    1    3    3    0    0  0.47111665567E+03 -0.49803087032E+03 -0.30045788823E+03  0.74850557355E+03  0.00000000000E+00 0.  1.
          4    1    6    6  502    0 -0.55855264072E+03  0.73037671083E+03 -0.65708681299E+03  0.11301302013E+04  0.00000000000E+00 0. -1.
          3    1    5    5  503    0 -0.20043149598E+02 -0.66692072866E+02 -0.48931023561E+03  0.49424089987E+03  0.00000000000E+00 0. -1.
         -4    1    5    5    0  503 -0.16005938256E+02  0.15488784656E+02 -0.50368027426E+02  0.55072957941E+02  0.00000000000E+00 0.  1.
         -3    1    6    6    0  502 -0.22288144366E+03  0.23689736023E+03 -0.19051397745E+03  0.37695102178E+03  0.00000000000E+00 0.  1.
<mgrwt>
<rscale>  0 0.27888122E+04</rscale>
<asrwt>0</asrwt>
<pdfrwt beam="1">  1        2 0.41694064E+00 0.27888122E+04</pdfrwt>
<pdfrwt beam="2">  1       -2 0.11037675E+00 0.27888122E+04</pdfrwt>
<totfact> 0.14857201E+00</totfact>
</mgrwt>
</event>
<event>
12    1  0.4612066E-007  0.1918575E+04  0.7818608E-02  0.8645665E-01
          2   -1    0    0  501    0  0.00000000000E+00  0.00000000000E+00  0.75424311419E+03  0.75424311419E+03  0.00000000000E+00 0. -1.
         -2   -1    0    0    0  501 -0.00000000000E+00 -0.00000000000E+00 -0.12200745491E+04  0.12200745491E+04  0.00000000000E+00 0.  1.
         23    2    1    2    0    0 -0.33040469832E+03  0.46873075314E+02  0.49964837679E+03  0.60853060528E+03  0.96419122983E+02 0.  0.
        254    2    1    2    0    0  0.33040469832E+03 -0.46873075314E+02 -0.96547981168E+03  0.13657870580E+04  0.90656421237E+03 0.  0.
        -24    2    4    4    0    0  0.53300522385E+03 -0.87755682955E+02 -0.21930453815E+03  0.58752566725E+03  0.72775687407E+02 0.  0.
         24    2    4    4    0    0 -0.20260052554E+03  0.40882607641E+02 -0.74617527353E+03  0.77826139074E+03  0.78707642144E+02 0.  0.
         11    1    3    3    0    0 -0.91837066163E+02 -0.18498480143E+01  0.73164878075E+02  0.11743324931E+03  0.00000000000E+00 0.  1.
        -11    1    3    3    0    0 -0.23856763215E+03  0.48722923329E+02  0.42648349872E+03  0.49109735598E+03  0.00000000000E+00 0. -1.
          4    1    6    6  502    0 -0.32452826350E+02  0.29404590275E+02 -0.24456572429E+03  0.24845564869E+03  0.00000000000E+00 0. -1.
          1    1    5    5  503    0  0.25583777353E+03 -0.78106816972E+02 -0.99124634520E+02  0.28527063359E+03  0.00000000000E+00 0. -1.
         -2    1    5    5    0  503  0.27716745033E+03 -0.96488659833E+01 -0.12017990363E+03  0.30225503366E+03  0.00000000000E+00 0.  1.
         -3    1    6    6    0  502 -0.17014769919E+03  0.11478017365E+02 -0.50160954923E+03  0.52980574204E+03  0.00000000000E+00 0.  1.
<mgrwt>
<rscale>  0 0.19185753E+04</rscale>
<asrwt>0</asrwt>
<pdfrwt beam="1">  1        2 0.11603740E+00 0.19185753E+04</pdfrwt>
<pdfrwt beam="2">  1       -2 0.18770378E+00 0.19185753E+04</pdfrwt>
<totfact> 0.55882251E+00</totfact>
</mgrwt>
</event>
<event>
12    1  0.4612066E-007  0.3343042E+04  0.7818608E-02  0.8152029E-01
         -1   -1    0    0    0  501 -0.00000000000E+00  0.00000000000E+00  0.11669241011E+04  0.11669241011E+04  0.00000000000E+00 0.  1.
          1   -1    0    0  501    0  0.00000000000E+00 -0.00000000000E+00 -0.23943134496E+04  0.23943134496E+04  0.00000000000E+00 0. -1.
         23    2    1    2    0    0  0.15420036713E+04  0.11278882915E+03 -0.59818944048E+03  0.16602698021E+04  0.90380122671E+02 0.  0.
        254    2    1    2    0    0 -0.15420036713E+04 -0.11278882915E+03 -0.62919990808E+03  0.19009677486E+04  0.90955440439E+03 0.  0.
        -24    2    4    4    0    0 -0.10194539151E+04 -0.13877830600E+03 -0.84030398783E+03  0.13307163656E+04  0.78419069574E+02 0.  0.
         24    2    4    4    0    0 -0.52254975622E+03  0.25989476851E+02  0.21110407975E+03  0.57025138301E+03  0.82994016032E+02 0.  0.
         13    1    3    3    0    0  0.84021945620E+03  0.79105405470E+02 -0.37074965370E+03  0.92178181012E+03  0.00000000000E+00 0. -1.
        -13    1    3    3    0    0  0.70178421512E+03  0.33683423676E+02 -0.22743978678E+03  0.73848799194E+03  0.00000000000E+00 0.  1.
          4    1    6    6  502    0 -0.29952844431E+03 -0.95438407953E+01  0.15572719756E+03  0.33772671483E+03  0.00000000000E+00 0. -1.
          3    1    5    5  503    0 -0.63539678783E+03 -0.52346027797E+02 -0.49683683671E+03  0.80827967123E+03  0.00000000000E+00 0. -1.
         -2    1    5    5    0  503 -0.38405712727E+03 -0.86432278200E+02 -0.34346715112E+03  0.52243669437E+03  0.00000000000E+00 0.  1.
         -3    1    6    6    0  502 -0.22302131191E+03  0.35533317646E+02  0.55376882187E+02  0.23252466818E+03  0.00000000000E+00 0.  1.
<mgrwt>
<rscale>  0 0.33430418E+04</rscale>
<asrwt>0</asrwt>
<pdfrwt beam="1">  1        1 0.36835591E+00 0.33430418E+04</pdfrwt>
<pdfrwt beam="2">  1       -1 0.17952679E+00 0.33430418E+04</pdfrwt>
<totfact> 0.27791092E-01</totfact>
</mgrwt>
</event>
<event>
12    1  0.4612066E-007  0.1571793E+04  0.7818608E-02  0.8838066E-01
          2   -1    0    0  501    0  0.00000000000E+00  0.00000000000E+00  0.42004108128E+03  0.42004108128E+03  0.00000000000E+00 0. -1.
         -2   -1    0    0    0  501 -0.00000000000E+00 -0.00000000000E+00 -0.14704120154E+04  0.14704120154E+04  0.00000000000E+00 0.  1.
         23    2    1    2    0    0  0.19240672095E+03  0.15794715611E+03 -0.93262353665E+03  0.96955014490E+03  0.90956978646E+02 0.  0.
        254    2    1    2    0    0 -0.19240672095E+03 -0.15794715611E+03 -0.11774739743E+03  0.92090295175E+03  0.87876626389E+03 0.  0.
        -24    2    4    4    0    0 -0.44104198115E+03  0.17748925677E+03 -0.11029844084E+03  0.49466398530E+03  0.80661309820E+02 0.  0.
         24    2    4    4    0    0  0.24863526020E+03 -0.33543641289E+03 -0.74489565920E+01  0.42623896645E+03  0.85364453137E+02 0.  0.
         11    1    3    3    0    0  0.16443035347E+03  0.13161745732E+03 -0.87708364520E+03  0.90201785841E+03  0.00000000000E+00 0.  1.
        -11    1    3    3    0    0  0.27976367475E+02  0.26329698799E+02 -0.55539891458E+02  0.67532286494E+02  0.00000000000E+00 0. -1.
          2    1    6    6  502    0 -0.35528885244E+01 -0.25213793599E+02 -0.71315617302E+01  0.26442722576E+02  0.00000000000E+00 0. -1.
          3    1    5    5  503    0 -0.18438939149E+03  0.44417245392E+02 -0.14973878976E+02  0.19025392620E+03  0.00000000000E+00 0. -1.
         -4    1    5    5    0  503 -0.25665258965E+03  0.13307201138E+03 -0.95324561860E+02  0.30441005910E+03  0.00000000000E+00 0.  1.
         -1    1    6    6    0  502  0.25218814872E+03 -0.31022261929E+03 -0.31739486181E+00  0.39979624387E+03  0.00000000000E+00 0.  1.
<mgrwt>
<rscale>  0 0.15717932E+04</rscale>
<asrwt>0</asrwt>
<pdfrwt beam="1">  1        2 0.64621704E-01 0.15717932E+04</pdfrwt>
<pdfrwt beam="2">  1       -2 0.22621724E+00 0.15717932E+04</pdfrwt>
<totfact> 0.65252793E+00</totfact>
</mgrwt>
</event>
<event>
12    1  0.4612066E-007  0.1595872E+04  0.7818608E-02  0.8823088E-01
          1   -1    0    0  501    0  0.00000000000E+00  0.00000000000E+00  0.49151636883E+03  0.49151636883E+03  0.00000000000E+00 0. -1.
         -1   -1    0    0    0  501 -0.00000000000E+00 -0.00000000000E+00 -0.12953824300E+04  0.12953824300E+04  0.00000000000E+00 0.  1.
         23    2    1    2    0    0 -0.40316089755E+03 -0.17377588919E+03 -0.61274880289E+03  0.75909930352E+03  0.89631959630E+02 0.  0.
        254    2    1    2    0    0  0.40316089755E+03  0.17377588919E+03 -0.19111725827E+03  0.10277994953E+04  0.90945545637E+03 0.  0.
        -24    2    4    4    0    0  0.46599257875E+03  0.14823226409E+03 -0.49803574955E+03  0.70238659922E+03  0.78647564295E+02 0.  0.
         24    2    4    4    0    0 -0.62831681196E+02  0.25543625100E+02  0.30691849128E+03  0.32541289607E+03  0.84227642090E+02 0.  0.
         11    1    3    3    0    0 -0.66952295768E+02 -0.45926859698E+02 -0.65957444599E+02  0.10460530985E+03  0.00000000000E+00 0. -1.
        -11    1    3    3    0    0 -0.33620860178E+03 -0.12784902950E+03 -0.54679135829E+03  0.65449399367E+03  0.00000000000E+00 0.  1.
          2    1    6    6  502    0  0.79400981764E+01  0.35485459739E+02  0.92108084003E+02  0.99026068036E+02  0.00000000000E+00 0. -1.
          3    1    5    5  503    0  0.22459202538E+02  0.24981473577E+02 -0.48209103777E+02  0.58758892840E+02  0.00000000000E+00 0. -1.
         -4    1    5    5    0  503  0.44353337621E+03  0.12325079052E+03 -0.44982664577E+03  0.64362770638E+03  0.00000000000E+00 0.  1.
         -1    1    6    6    0  502 -0.70771779372E+02 -0.99418346390E+01  0.21481040728E+03  0.22638682803E+03  0.00000000000E+00 0.  1.
<mgrwt>
<rscale>  0 0.15958718E+04</rscale>
<asrwt>0</asrwt>
<pdfrwt beam="1">  1        1 0.75617904E-01 0.15958718E+04</pdfrwt>
<pdfrwt beam="2">  1       -1 0.19928960E+00 0.15958718E+04</pdfrwt>
<totfact> 0.66293565E+00</totfact>
</mgrwt>
</event>
<event>
12    1  0.4612066E-007  0.1579786E+04  0.7818608E-02  0.8833063E-01
          2   -1    0    0  501    0  0.00000000000E+00  0.00000000000E+00  0.18203429589E+04  0.18203429589E+04  0.00000000000E+00 0. -1.
         -2   -1    0    0    0  501 -0.00000000000E+00 -0.00000000000E+00 -0.34275460539E+03  0.34275460539E+03  0.00000000000E+00 0.  1.
         23    2    1    2    0    0  0.29773745411E+02  0.39935056008E+03  0.34296591135E+02  0.41214753916E+03  0.91224953376E+02 0.  0.
        254    2    1    2    0    0 -0.29773745411E+02 -0.39935056008E+03  0.14432917624E+04  0.17509500251E+04  0.90684482324E+03 0.  0.
        -24    2    4    4    0    0  0.12136468640E+03 -0.65496013556E+03  0.11041541721E+04  0.12919557968E+04  0.79316952015E+02 0.  0.
         24    2    4    4    0    0 -0.15113843181E+03  0.25560957548E+03  0.33913759033E+03  0.45899422837E+03  0.86500380653E+02 0.  0.
         13    1    3    3    0    0 -0.23316664897E+02  0.21520659831E+03  0.41320080937E+02  0.22037444477E+03  0.00000000000E+00 0. -1.
        -13    1    3    3    0    0  0.53090410307E+02  0.18414396177E+03 -0.70234898025E+01  0.19177309439E+03  0.00000000000E+00 0.  1.
          2    1    6    6  502    0 -0.13306673775E+03  0.25380090343E+03  0.29504066338E+03  0.41130359629E+03  0.00000000000E+00 0. -1.
          1    1    5    5  503    0  0.33005564869E+02 -0.35475858110E+03  0.63202837046E+03  0.72553627011E+03  0.00000000000E+00 0. -1.
         -2    1    5    5    0  503  0.88359121527E+02 -0.30020155447E+03  0.47212580160E+03  0.56641952667E+03  0.00000000000E+00 0.  1.
         -1    1    6    6    0  502 -0.18071694060E+02  0.18086720457E+01  0.44096926954E+02  0.47690632073E+02  0.00000000000E+00 0.  1.
<mgrwt>
<rscale>  0 0.15797860E+04</rscale>
<asrwt>0</asrwt>
<pdfrwt beam="1">  1        2 0.28005276E+00 0.15797860E+04</pdfrwt>
<pdfrwt beam="2">  1       -2 0.52731479E-01 0.15797860E+04</pdfrwt>
<totfact> 0.27392776E+01</totfact>
</mgrwt>
</event>
<event>
12    1  0.4612066E-007  0.1405138E+04  0.7818608E-02  0.8950108E-01
          1   -1    0    0  501    0  0.00000000000E+00  0.00000000000E+00  0.21086008573E+04  0.21086008573E+04  0.00000000000E+00 0. -1.
         -1   -1    0    0    0  501 -0.00000000000E+00 -0.00000000000E+00 -0.23409036828E+03  0.23409036828E+03  0.00000000000E+00 0.  1.
         23    2    1    2    0    0 -0.19684098294E+03  0.35034675719E+03  0.56477965772E+03  0.69925428839E+03  0.92148115619E+02 0.  0.
        254    2    1    2    0    0  0.19684098294E+03 -0.35034675719E+03  0.13097308313E+04  0.16434369372E+04  0.90774494945E+03 0.  0.
        -24    2    4    4    0    0 -0.33180657009E+03 -0.29920395094E+03  0.55021034666E+03  0.71321780600E+03  0.79558839919E+02 0.  0.
         24    2    4    4    0    0  0.52864755304E+03 -0.51142806257E+02  0.75952048467E+03  0.93021913123E+03  0.79702217662E+02 0.  0.
         11    1    3    3    0    0 -0.42286568859E+02  0.86710117355E+02  0.76042574950E+02  0.12283839613E+03  0.00000000000E+00 0.  1.
        -11    1    3    3    0    0 -0.15455441408E+03  0.26363663984E+03  0.48873708277E+03  0.57641589226E+03  0.00000000000E+00 0. -1.
          4    1    6    6  502    0  0.50944595828E+03 -0.58152659927E+02  0.74763663613E+03  0.90657457274E+03  0.00000000000E+00 0. -1.
          3    1    5    5  503    0 -0.30603407644E+03 -0.24861492170E+03  0.45227896456E+03  0.60001874722E+03  0.00000000000E+00 0. -1.
         -4    1    5    5    0  503 -0.25772493655E+02 -0.50589029237E+02  0.97931382095E+02  0.11319905877E+03  0.00000000000E+00 0.  1.
         -3    1    6    6    0  502  0.19201594757E+02  0.70098536705E+01  0.11883848547E+02  0.23644558485E+02  0.00000000000E+00 0.  1.
<mgrwt>
<rscale>  0 0.14051379E+04</rscale>
<asrwt>0</asrwt>
<pdfrwt beam="1">  1        1 0.32440012E+00 0.14051379E+04</pdfrwt>
<pdfrwt beam="2">  1       -1 0.36013904E-01 0.14051379E+04</pdfrwt>
<totfact> 0.18088265E+01</totfact>
</mgrwt>
</event>
<event>
12    1  0.4612066E-007  0.1070591E+04  0.7818608E-02  0.9234339E-01
          1   -1    0    0  501    0  0.00000000000E+00  0.00000000000E+00  0.99216981086E+03  0.99216981086E+03  0.00000000000E+00 0. -1.
         -1   -1    0    0    0  501 -0.00000000000E+00 -0.00000000000E+00 -0.28880275174E+03  0.28880275174E+03  0.00000000000E+00 0.  1.
         23    2    1    2    0    0  0.12346116107E+03 -0.48647238642E+02  0.68088155531E+02  0.17460198765E+03  0.90777998699E+02 0.  0.
        254    2    1    2    0    0 -0.12346116107E+03  0.48647238642E+02  0.63527890359E+03  0.11063705750E+04  0.89602865560E+03 0.  0.
        -24    2    4    4    0    0  0.16260419270E+03 -0.33585472078E+03  0.44232394004E+03  0.58412290140E+03  0.79439153150E+02 0.  0.
         24    2    4    4    0    0 -0.28606535377E+03  0.38450195942E+03  0.19295496355E+03  0.52224767356E+03  0.76392873710E+02 0.  0.
         11    1    3    3    0    0  0.11817759780E+03 -0.17946368558E+02  0.26149795818E+02  0.12235942378E+03  0.00000000000E+00 0.  1.
        -11    1    3    3    0    0  0.52835632728E+01 -0.30700870084E+02  0.41938359713E+02  0.52242563874E+02  0.00000000000E+00 0. -1.
          2    1    6    6  502    0 -0.12834235306E+02  0.57644341946E+02  0.28716556502E+02  0.65667559507E+02  0.00000000000E+00 0. -1.
          1    1    5    5  503    0  0.29004354021E+01 -0.73936268568E+01  0.39862322050E+02  0.40645823436E+02  0.00000000000E+00 0. -1.
         -2    1    5    5    0  503  0.15970375730E+03 -0.32846109392E+03  0.40246161799E+03  0.54347707796E+03  0.00000000000E+00 0.  1.
         -1    1    6    6    0  502 -0.27323111846E+03  0.32685761747E+03  0.16423840705E+03  0.45658011405E+03  0.00000000000E+00 0.  1.
<mgrwt>
<rscale>  0 0.10705912E+04</rscale>
<asrwt>0</asrwt>
<pdfrwt beam="1">  1        1 0.15264151E+00 0.10705912E+04</pdfrwt>
<pdfrwt beam="2">  1       -1 0.44431193E-01 0.10705912E+04</pdfrwt>
<totfact> 0.76791193E+01</totfact>
</mgrwt>
</event>
<event>
12    1  0.4612066E-007  0.1857995E+04  0.7818608E-02  0.8676052E-01
          2   -1    0    0  501    0  0.00000000000E+00  0.00000000000E+00  0.16969750268E+04  0.16969750268E+04  0.00000000000E+00 0. -1.
         -2   -1    0    0    0  501 -0.00000000000E+00 -0.00000000000E+00 -0.50857339614E+03  0.50857339614E+03  0.00000000000E+00 0.  1.
         23    2    1    2    0    0 -0.39948745125E+03 -0.29128960625E+03  0.11014350220E+04  0.12107266742E+04  0.90885167230E+02 0.  0.
        254    2    1    2    0    0  0.39948745125E+03  0.29128960625E+03  0.86966608702E+02  0.99482174873E+03  0.85887558022E+03 0.  0.
        -24    2    4    4    0    0 -0.23170765561E+03 -0.44474366500E+02  0.11651259284E+03  0.27477783562E+03  0.79128172704E+02 0.  0.
         24    2    4    4    0    0  0.63119510686E+03  0.33576397275E+03 -0.29545984143E+02  0.72004391310E+03  0.80284265565E+02 0.  0.
         13    1    3    3    0    0 -0.28686123352E+03 -0.19657177133E+03  0.86436533631E+03  0.93169590705E+03  0.00000000000E+00 0. -1.
        -13    1    3    3    0    0 -0.11262621772E+03 -0.94717834922E+02  0.23706968565E+03  0.27903076716E+03  0.00000000000E+00 0.  1.
          2    1    6    6  502    0  0.30804071847E+03  0.19952604530E+03  0.97969350280E+01  0.36714534850E+03  0.00000000000E+00 0. -1.
          1    1    5    5  503    0  0.41841606191E+01  0.21121349549E+01  0.11462079200E+02  0.12383358742E+02  0.00000000000E+00 0. -1.
         -2    1    5    5    0  503 -0.23589181623E+03 -0.46586501455E+02  0.10505051365E+03  0.26239447688E+03  0.00000000000E+00 0.  1.
         -1    1    6    6    0  502  0.32315438839E+03  0.13623792746E+03 -0.39342919171E+02  0.35289856460E+03  0.00000000000E+00 0.  1.
<mgrwt>
<rscale>  0 0.18579950E+04</rscale>
<asrwt>0</asrwt>
<pdfrwt beam="1">  1        2 0.26107308E+00 0.18579950E+04</pdfrwt>
<pdfrwt beam="2">  1       -2 0.78242062E-01 0.18579950E+04</pdfrwt>
<totfact> 0.13441489E+01</totfact>
</mgrwt>
</event>
<event>
12    1  0.4612066E-007  0.1343026E+04  0.7818608E-02  0.8996124E-01
          1   -1    0    0  501    0  0.00000000000E+00  0.00000000000E+00  0.22144961881E+04  0.22144961881E+04  0.00000000000E+00 0.  1.
         -1   -1    0    0    0  501 -0.00000000000E+00 -0.00000000000E+00 -0.20362630709E+03  0.20362630709E+03  0.00000000000E+00 0. -1.
         23    2    1    2    0    0  0.13288265408E+03 -0.29411778326E+03  0.10119057381E+04  0.10660968403E+04  0.91903100989E+02 0.  0.
        254    2    1    2    0    0 -0.13288265408E+03  0.29411778326E+03  0.99896414289E+03  0.13520256548E+04  0.85198646841E+03 0.  0.
        -24    2    4    4    0    0 -0.25869049028E+03  0.53299468835E+03  0.83049561162E+03  0.10232533307E+04  0.79500379336E+02 0.  0.
         24    2    4    4    0    0  0.12580783620E+03 -0.23887690509E+03  0.16846853127E+03  0.32877232412E+03  0.82582126678E+02 0.  0.
         11    1    3    3    0    0  0.10570439024E+03 -0.17452231735E+03  0.74366648387E+03  0.77114933482E+03  0.00000000000E+00 0.  1.
        -11    1    3    3    0    0  0.27178263836E+02 -0.11959546592E+03  0.26823925423E+03  0.29494750551E+03  0.00000000000E+00 0. -1.
          4    1    6    6  502    0  0.97199033604E+02 -0.99462202554E+02  0.69869991719E+02  0.15563482134E+03  0.00000000000E+00 0. -1.
          3    1    5    5  503    0 -0.11846942628E+03  0.25444175346E+03  0.46128387972E+03  0.53996150655E+03  0.00000000000E+00 0. -1.
         -4    1    5    5    0  503 -0.14022106400E+03  0.27855293489E+03  0.36921173190E+03  0.48329182416E+03  0.00000000000E+00 0.  1.
         -3    1    6    6    0  502  0.28608802599E+02 -0.13941470253E+03  0.98598539548E+02  0.17313750278E+03  0.00000000000E+00 0.  1.
<mgrwt>
<rscale>  0 0.13430260E+04</rscale>
<asrwt>0</asrwt>
<pdfrwt beam="1">  1        1 0.34069170E+00 0.13430260E+04</pdfrwt>
<pdfrwt beam="2">  1       -1 0.31327126E-01 0.13430260E+04</pdfrwt>
<totfact> 0.19759638E+01</totfact>
</mgrwt>
</event>
<event>
12    1  0.4612066E-007  0.1329102E+04  0.7818608E-02  0.9006800E-01
         -1   -1    0    0    0  501 -0.00000000000E+00  0.00000000000E+00  0.11045780527E+04  0.11045780527E+04  0.00000000000E+00 0.  1.
          1   -1    0    0  501    0  0.00000000000E+00 -0.00000000000E+00 -0.39981629979E+03  0.39981629979E+03  0.00000000000E+00 0. -1.
         23    2    1    2    0    0 -0.13684418824E+02 -0.26731167335E+03 -0.75700489981E+02  0.29186846941E+03  0.88395957057E+02 0.  0.
        254    2    1    2    0    0  0.13684418824E+02  0.26731167335E+03  0.78046224290E+03  0.12125258831E+04  0.88851275204E+03 0.  0.
        -24    2    4    4    0    0  0.28982697423E+03 -0.16970662082E+03  0.52971979057E+03  0.63239392772E+03  0.80740393599E+02 0.  0.
         24    2    4    4    0    0 -0.27614255541E+03  0.43701829417E+03  0.25074245233E+03  0.58013195537E+03  0.80259628052E+02 0.  0.
         13    1    3    3    0    0  0.47268896367E+01 -0.23514495594E+03 -0.36652152891E+02  0.23803124606E+03  0.00000000000E+00 0. -1.
        -13    1    3    3    0    0 -0.18411308461E+02 -0.32166717405E+02 -0.39048337090E+02  0.53837223343E+02  0.00000000000E+00 0.  1.
          4    1    6    6  502    0 -0.15772396233E+03  0.24160388285E+03  0.95638298247E+02  0.30396705182E+03  0.00000000000E+00 0. -1.
          1    1    5    5  503    0  0.89502802045E+02 -0.56448696088E+02  0.24082086039E+03  0.26304352048E+03  0.00000000000E+00 0. -1.
         -2    1    5    5    0  503  0.20032417219E+03 -0.11325792473E+03  0.28889893017E+03  0.36935040724E+03  0.00000000000E+00 0.  1.
         -3    1    6    6    0  502 -0.11841859307E+03  0.19541441132E+03  0.15510415409E+03  0.27616490355E+03  0.00000000000E+00 0.  1.
<mgrwt>
<rscale>  0 0.13291024E+04</rscale>
<asrwt>0</asrwt>
<pdfrwt beam="1">  1        1 0.61510201E-01 0.13291024E+04</pdfrwt>
<pdfrwt beam="2">  1       -1 0.16993508E+00 0.13291024E+04</pdfrwt>
<totfact> 0.14497136E+01</totfact>
</mgrwt>
</event>
<event>
12    1  0.4612066E-007  0.1851861E+04  0.7818608E-02  0.8679196E-01
          2   -1    0    0  501    0  0.00000000000E+00  0.00000000000E+00  0.35225725255E+04  0.35225725255E+04  0.00000000000E+00 0.  1.
         -2   -1    0    0    0  501 -0.00000000000E+00 -0.00000000000E+00 -0.24338669187E+03  0.24338669187E+03  0.00000000000E+00 0. -1.
         23    2    1    2    0    0 -0.22766057303E+03 -0.61753225158E+03  0.78060728396E+03  0.10252611186E+04  0.92936598498E+02 0.  0.
        254    2    1    2    0    0  0.22766057303E+03  0.61753225158E+03  0.24985785497E+04  0.27406980988E+04  0.91397805301E+03 0.  0.
        -24    2    4    4    0    0  0.16070756190E+03  0.78076423959E+03  0.23852462729E+04  0.25161727392E+04  0.79408769652E+02 0.  0.
         24    2    4    4    0    0  0.66953011132E+02 -0.16323198801E+03  0.11333227681E+03  0.22452535962E+03  0.80249888072E+02 0.  0.
         13    1    3    3    0    0 -0.18165774877E+03 -0.37825569468E+03  0.46115376488E+03  0.62348993826E+03  0.00000000000E+00 0. -1.
        -13    1    3    3    0    0 -0.46002824262E+02 -0.23927655690E+03  0.31945351907E+03  0.40177118036E+03  0.00000000000E+00 0.  1.
          4    1    6    6  502    0  0.18194426556E+02 -0.52938861151E+00  0.30580796735E+02  0.35587954970E+02  0.00000000000E+00 0. -1.
          3    1    5    5  503    0  0.41993900857E+02  0.10313910933E+03  0.39417570026E+03  0.40960425566E+03  0.00000000000E+00 0. -1.
         -4    1    5    5    0  503  0.11871366104E+03  0.67762513026E+03  0.19910705726E+04  0.21065684835E+04  0.00000000000E+00 0.  1.
         -3    1    6    6    0  502  0.48758584576E+02 -0.16270259940E+03  0.82751480078E+02  0.18893740465E+03  0.00000000000E+00 0.  1.
<mgrwt>
<rscale>  0 0.18518610E+04</rscale>
<asrwt>0</asrwt>
<pdfrwt beam="1">  1        2 0.54193420E+00 0.18518610E+04</pdfrwt>
<pdfrwt beam="2">  1       -2 0.37444109E-01 0.18518610E+04</pdfrwt>
<totfact> 0.49952154E+00</totfact>
</mgrwt>
</event>
<event>
12    1  0.4818346E-007  0.1868640E+04  0.7818608E-02  0.8670626E-01
         -1   -1    0    0    0  501 -0.00000000000E+00  0.00000000000E+00  0.59615838121E+03  0.59615838121E+03  0.00000000000E+00 0.  1.
          1   -1    0    0  501    0  0.00000000000E+00 -0.00000000000E+00 -0.14642981733E+04  0.14642981733E+04  0.00000000000E+00 0. -1.
         23    2    1    2    0    0  0.60264345666E+03 -0.37160540944E+03 -0.45159085067E+03  0.84510964862E+03  0.94901557413E+02 0.  0.
        254    2    1    2    0    0 -0.60264345666E+03  0.37160540944E+03 -0.41654894145E+03  0.12153469059E+04  0.89570383774E+03 0.  0.
        -24    2    4    4    0    0 -0.45056693894E+03  0.40643482225E+03  0.14342864573E+03  0.62860968041E+03  0.79865653983E+02 0.  0.
         24    2    4    4    0    0 -0.15207651772E+03 -0.34829412808E+02 -0.55997758718E+03  0.58673722552E+03  0.79657507011E+02 0.  0.
         11    1    3    3    0    0  0.38584822740E+03 -0.21855463272E+03 -0.23090602657E+03  0.49996257378E+03  0.00000000000E+00 0.  1.
        -11    1    3    3    0    0  0.21679522927E+03 -0.15305077672E+03 -0.22068482410E+03  0.34514707484E+03  0.00000000000E+00 0. -1.
          4    1    6    6  502    0 -0.17154645603E+02 -0.30052634981E+02 -0.64505205806E+02  0.73200849115E+02  0.00000000000E+00 0. -1.
          3    1    5    5  503    0 -0.39491034847E+01  0.22513150589E+02  0.86099736324E+01  0.24424762306E+02  0.00000000000E+00 0. -1.
         -4    1    5    5    0  503 -0.44661783545E+03  0.38392167166E+03  0.13481867210E+03  0.60418491810E+03  0.00000000000E+00 0.  1.
         -3    1    6    6    0  502 -0.13492187212E+03 -0.47767778265E+01 -0.49547238138E+03  0.51353637641E+03  0.00000000000E+00 0.  1.
<mgrwt>
<rscale>  0 0.18686397E+04</rscale>
<asrwt>0</asrwt>
<pdfrwt beam="1">  1        1 0.22527664E+00 0.18686397E+04</pdfrwt>
<pdfrwt beam="2">  1       -1 0.91716675E-01 0.18686397E+04</pdfrwt>
<totfact> 0.75268274E+00</totfact>
</mgrwt>
</event>
<event>
12    1  0.4612066E-007  0.1827871E+04  0.7818608E-02  0.8691617E-01
          1   -1    0    0  501    0  0.00000000000E+00  0.00000000000E+00  0.73929100768E+03  0.73929100768E+03  0.00000000000E+00 0. -1.
         -1   -1    0    0    0  501 -0.00000000000E+00 -0.00000000000E+00 -0.11298361726E+04  0.11298361726E+04  0.00000000000E+00 0.  1.
         23    2    1    2    0    0 -0.82291356754E+02  0.56413069051E+03  0.26336901790E+03  0.63467897374E+03  0.91863250248E+02 0.  0.
        254    2    1    2    0    0  0.82291356754E+02 -0.56413069051E+03 -0.65391418284E+03  0.12344482066E+04  0.87820459621E+03 0.  0.
        -24    2    4    4    0    0 -0.14182208696E+03  0.17932828551E+03 -0.49901490355E+02  0.24732850013E+03  0.80056791742E+02 0.  0.
         24    2    4    4    0    0  0.22411344371E+03 -0.74345897603E+03 -0.60401269248E+03  0.98711970643E+03  0.81338167323E+02 0.  0.
         13    1    3    3    0    0 -0.65605540103E+02  0.54045654678E+03  0.26535217810E+03  0.60564770640E+03  0.00000000000E+00 0. -1.
        -13    1    3    3    0    0 -0.16685816651E+02  0.23674143731E+02 -0.19831602034E+01  0.29031267336E+02  0.00000000000E+00 0.  1.
          4    1    6    6  502    0  0.15464726262E+03 -0.61277571619E+03 -0.50617211028E+03  0.80970368618E+03  0.00000000000E+00 0. -1.
          1    1    5    5  503    0 -0.12793635433E+03  0.10934303065E+03 -0.18280958485E+02  0.16928615583E+03  0.00000000000E+00 0. -1.
         -2    1    5    5    0  503 -0.13885732623E+02  0.69985254863E+02 -0.31620531870E+02  0.78042344304E+02  0.00000000000E+00 0.  1.
         -3    1    6    6    0  502  0.69466181091E+02 -0.13068325983E+03 -0.97840582199E+02  0.17741602025E+03  0.00000000000E+00 0.  1.
<mgrwt>
<rscale>  0 0.18278706E+04</rscale>
<asrwt>0</asrwt>
<pdfrwt beam="1">  1        1 0.11373708E+00 0.18278706E+04</pdfrwt>
<pdfrwt beam="2">  1       -1 0.17382095E+00 0.18278706E+04</pdfrwt>
<totfact> 0.54396983E+00</totfact>
</mgrwt>
</event>
<event>
12    1  0.4612066E-007  0.1622704E+04  0.7818608E-02  0.8806720E-01
         -1   -1    0    0    0  501 -0.00000000000E+00  0.00000000000E+00  0.11291198609E+04  0.11291198609E+04  0.00000000000E+00 0.  1.
          1   -1    0    0  501    0  0.00000000000E+00 -0.00000000000E+00 -0.58301360950E+03  0.58301360950E+03  0.00000000000E+00 0. -1.
         23    2    1    2    0    0 -0.49179324414E+03 -0.66265135514E+02  0.46941152327E+03  0.68864565128E+03  0.87372717038E+02 0.  0.
        254    2    1    2    0    0  0.49179324414E+03  0.66265135514E+02  0.76694728144E+02  0.10234878191E+04  0.89184840158E+03 0.  0.
        -24    2    4    4    0    0  0.58663004624E+03 -0.93045691464E+02 -0.24195521062E+03  0.64626058665E+03  0.79486540141E+02 0.  0.
         24    2    4    4    0    0 -0.94836802095E+02  0.15931082698E+03  0.31864993877E+03  0.37722723247E+03  0.79928986109E+02 0.  0.
         13    1    3    3    0    0 -0.37831650291E+03 -0.48705966920E+02  0.40758984352E+03  0.55823393674E+03  0.00000000000E+00 0.  1.
        -13    1    3    3    0    0 -0.11347674123E+03 -0.17559168595E+02  0.61821679745E+02  0.13041171454E+03  0.00000000000E+00 0. -1.
          2    1    6    6  502    0 -0.21245636448E+02  0.19146812283E+02  0.99141986783E+01  0.30269932675E+02  0.00000000000E+00 0. -1.
          3    1    5    5  503    0  0.25266245780E+02 -0.19415379189E+02 -0.39937687205E+01  0.32113709120E+02  0.00000000000E+00 0. -1.
         -4    1    5    5    0  503  0.56136380046E+03 -0.73630312275E+02 -0.23796144190E+03  0.61414687753E+03  0.00000000000E+00 0.  1.
         -1    1    6    6    0  502 -0.73591165647E+02  0.14016401470E+03  0.30873574009E+03  0.34695729980E+03  0.00000000000E+00 0.  1.
<mgrwt>
<rscale>  0 0.16227042E+04</rscale>
<asrwt>0</asrwt>
<pdfrwt beam="1">  1        1 0.89694402E-01 0.16227042E+04</pdfrwt>
<pdfrwt beam="2">  1       -1 0.17371075E+00 0.16227042E+04</pdfrwt>
<totfact> 0.79014895E+00</totfact>
</mgrwt>
</event>
<event>
12    1  0.4612066E-007  0.1189228E+04  0.7818608E-02  0.9122338E-01
         -2   -1    0    0    0  501 -0.00000000000E+00  0.00000000000E+00  0.16408677445E+03  0.16408677445E+03  0.00000000000E+00 0.  1.
          2   -1    0    0  501    0  0.00000000000E+00 -0.00000000000E+00 -0.21547479017E+04  0.21547479017E+04  0.00000000000E+00 0. -1.
         23    2    1    2    0    0 -0.17211373552E+03 -0.88839612602E+02 -0.16183985968E+03  0.26775932775E+03  0.89371710818E+02 0.  0.
        254    2    1    2    0    0  0.17211373552E+03  0.88839612602E+02 -0.18288212676E+04  0.20510753484E+04  0.90818898992E+03 0.  0.
        -24    2    4    4    0    0 -0.43856220973E+02 -0.26155252180E+02 -0.17884004194E+04  0.17909273568E+04  0.80232612857E+02 0.  0.
         24    2    4    4    0    0  0.21596995649E+03  0.11499486478E+03 -0.40420848235E+02  0.26014799159E+03  0.78589385576E+02 0.  0.
         13    1    3    3    0    0 -0.16732210068E+03 -0.85694926095E+02 -0.11458697081E+03  0.22016012267E+03  0.00000000000E+00 0.  1.
        -13    1    3    3    0    0 -0.47916348387E+01 -0.31446865070E+01 -0.47252888874E+02  0.47599205083E+02  0.00000000000E+00 0. -1.
          2    1    6    6  502    0  0.56784882360E+02 -0.59132787598E+01 -0.89953771774E+01  0.57796250232E+02  0.00000000000E+00 0. -1.
          3    1    5    5  503    0 -0.24774401334E+02  0.43911985693E+01 -0.14741740301E+03  0.14954913673E+03  0.00000000000E+00 0. -1.
         -4    1    5    5    0  503 -0.19081819639E+02 -0.30546450749E+02 -0.16409830164E+04  0.16413782201E+04  0.00000000000E+00 0.  1.
         -1    1    6    6    0  502  0.15918507413E+03  0.12090814354E+03 -0.31425471058E+02  0.20235174136E+03  0.00000000000E+00 0.  1.
<mgrwt>
<rscale>  0 0.11892277E+04</rscale>
<asrwt>0</asrwt>
<pdfrwt beam="1">  1        2 0.33149969E+00 0.11892277E+04</pdfrwt>
<pdfrwt beam="2">  1       -2 0.25244118E-01 0.11892277E+04</pdfrwt>
<totfact> 0.76408660E+01</totfact>
</mgrwt>
</event>
<event>
12    1  0.4612066E-007  0.1480841E+04  0.7818608E-02  0.8897294E-01
         -2   -1    0    0    0  501 -0.00000000000E+00  0.00000000000E+00  0.12571049001E+04  0.12571049001E+04  0.00000000000E+00 0. -1.
          2   -1    0    0  501    0  0.00000000000E+00 -0.00000000000E+00 -0.43609912916E+03  0.43609912916E+03  0.00000000000E+00 0.  1.
         23    2    1    2    0    0 -0.25390931430E+03 -0.38304825027E+03  0.34370744812E+03  0.58106913887E+03  0.91162669586E+02 0.  0.
        254    2    1    2    0    0  0.25390931430E+03  0.38304825027E+03  0.47729832280E+03  0.11121348904E+04  0.89321577656E+03 0.  0.
        -24    2    4    4    0    0  0.11184352734E+03 -0.28172224908E+03  0.95981181089E+02  0.32769785835E+03  0.79354262729E+02 0.  0.
         24    2    4    4    0    0  0.14206578697E+03  0.66477049935E+03  0.38131714171E+03  0.78443703201E+03  0.88522257045E+02 0.  0.
         13    1    3    3    0    0 -0.15175327542E+03 -0.17177289912E+03  0.21062323184E+03  0.31128304044E+03  0.00000000000E+00 0. -1.
        -13    1    3    3    0    0 -0.10215603888E+03 -0.21127535115E+03  0.13308421628E+03  0.26978609843E+03  0.00000000000E+00 0.  1.
          2    1    6    6  502    0  0.40346984038E+02  0.15746842798E+03  0.50091950539E+02  0.17009817295E+03  0.00000000000E+00 0. -1.
          1    1    5    5  503    0 -0.11832896062E+02 -0.41252365925E+02  0.12945705000E+02  0.44825956783E+02  0.00000000000E+00 0. -1.
         -2    1    5    5    0  503  0.12367642340E+03 -0.24046988316E+03  0.83035476089E+02  0.28287190157E+03  0.00000000000E+00 0.  1.
         -1    1    6    6    0  502  0.10171880293E+03  0.50730207137E+03  0.33122519117E+03  0.61433885906E+03  0.00000000000E+00 0.  1.
<mgrwt>
<rscale>  0 0.14808408E+04</rscale>
<asrwt>0</asrwt>
<pdfrwt beam="1">  1        2 0.67092174E-01 0.14808408E+04</pdfrwt>
<pdfrwt beam="2">  1       -2 0.19340075E+00 0.14808408E+04</pdfrwt>
<totfact> 0.10248088E+01</totfact>
</mgrwt>
</event>
<event>
12    1  0.4612066E-007  0.1548143E+04  0.7818608E-02  0.8853055E-01
         -2   -1    0    0    0  501 -0.00000000000E+00  0.00000000000E+00  0.26755619800E+03  0.26755619800E+03  0.00000000000E+00 0.  1.
          2   -1    0    0  501    0  0.00000000000E+00 -0.00000000000E+00 -0.22394796263E+04  0.22394796263E+04  0.00000000000E+00 0. -1.
         23    2    1    2    0    0 -0.25395210114E+03 -0.17308171021E+03 -0.13094568285E+04  0.13480897790E+04  0.90663766119E+02 0.  0.
        254    2    1    2    0    0  0.25395210114E+03  0.17308171021E+03 -0.66246659981E+03  0.11589460453E+04  0.89991388029E+03 0.  0.
        -24    2    4    4    0    0 -0.16254477434E+03  0.10490741401E+03  0.13589028799E+03  0.25236556838E+03  0.88294057302E+02 0.  0.
         24    2    4    4    0    0  0.41649687548E+03  0.68174296200E+02 -0.79835688780E+03  0.90658047691E+03  0.79981615863E+02 0.  0.
         11    1    3    3    0    0 -0.13843154340E+03 -0.92849114866E+02 -0.51573691831E+03  0.54200444578E+03  0.00000000000E+00 0.  1.
        -11    1    3    3    0    0 -0.11552055774E+03 -0.80232595345E+02 -0.79371991016E+03  0.80608533320E+03  0.00000000000E+00 0. -1.
          2    1    6    6  502    0  0.41091598627E+03  0.55424497261E+02 -0.78181536214E+03  0.88496275806E+03  0.00000000000E+00 0. -1.
          3    1    5    5  503    0 -0.14392609010E+03  0.76915149256E+02  0.68357841419E+02  0.17692782167E+03  0.00000000000E+00 0. -1.
         -4    1    5    5    0  503 -0.18618684231E+02  0.27992264754E+02  0.67532446568E+02  0.75437746706E+02  0.00000000000E+00 0.  1.
         -1    1    6    6    0  502  0.55808892076E+01  0.12749798939E+02 -0.16541525652E+02  0.21617718849E+02  0.00000000000E+00 0.  1.
<mgrwt>
<rscale>  0 0.15481430E+04</rscale>
<asrwt>0</asrwt>
<pdfrwt beam="1">  1        2 0.34453532E+00 0.15481430E+04</pdfrwt>
<pdfrwt beam="2">  1       -2 0.41162492E-01 0.15481430E+04</pdfrwt>
<totfact> 0.26431334E+01</totfact>
</mgrwt>
</event>
<event>
12    1  0.4612066E-007  0.3128692E+04  0.7818608E-02  0.8207907E-01
         -1   -1    0    0    0  501 -0.00000000000E+00  0.00000000000E+00  0.12629919271E+04  0.12629919271E+04  0.00000000000E+00 0.  1.
          1   -1    0    0  501    0  0.00000000000E+00 -0.00000000000E+00 -0.19376044466E+04  0.19376044466E+04  0.00000000000E+00 0. -1.
         23    2    1    2    0    0  0.13139559502E+04  0.55545463826E+03 -0.25104628585E+03  0.14513873490E+04  0.92146107034E+02 0.  0.
        254    2    1    2    0    0 -0.13139559502E+04 -0.55545463826E+03 -0.42356623361E+03  0.17492090246E+04  0.91940946444E+03 0.  0.
        -24    2    4    4    0    0 -0.85874738452E+03  0.66062874949E+02  0.28340957355E+01  0.86507964414E+03  0.80891190786E+02 0.  0.
         24    2    4    4    0    0 -0.45520856570E+03 -0.62151751321E+03 -0.42640032935E+03  0.88412938049E+03  0.79803903748E+02 0.  0.
         11    1    3    3    0    0  0.68138511573E+03  0.23813532397E+03 -0.12368219296E+03  0.73231918813E+03  0.00000000000E+00 0. -1.
        -11    1    3    3    0    0  0.63257083449E+03  0.31731931430E+03 -0.12736409289E+03  0.71906816091E+03  0.00000000000E+00 0.  1.
          2    1    6    6  502    0 -0.15827714874E+03 -0.27018265211E+03 -0.19870701266E+03  0.37085684326E+03  0.00000000000E+00 0. -1.
          1    1    5    5  503    0 -0.77603435338E+03  0.77284843835E+02  0.18780141224E+02  0.78009932599E+03  0.00000000000E+00 0. -1.
         -2    1    5    5    0  503 -0.82713031142E+02 -0.11221968886E+02 -0.15946045488E+02  0.84980318151E+02  0.00000000000E+00 0.  1.
         -1    1    6    6    0  502 -0.29693141696E+03 -0.35133486110E+03 -0.22769331670E+03  0.51327253722E+03  0.00000000000E+00 0.  1.
<mgrwt>
<rscale>  0 0.31286922E+04</rscale>
<asrwt>0</asrwt>
<pdfrwt beam="1">  1        1 0.29809299E+00 0.31286922E+04</pdfrwt>
<pdfrwt beam="2">  1       -1 0.19430645E+00 0.31286922E+04</pdfrwt>
<totfact> 0.45587487E-01</totfact>
</mgrwt>
</event>
<event>
12    1  0.4612066E-007  0.1782235E+04  0.7818608E-02  0.8715804E-01
          2   -1    0    0  501    0  0.00000000000E+00  0.00000000000E+00  0.31052788702E+04  0.31052788702E+04  0.00000000000E+00 0. -1.
         -2   -1    0    0    0  501 -0.00000000000E+00 -0.00000000000E+00 -0.25572274916E+03  0.25572274916E+03  0.00000000000E+00 0.  1.
         23    2    1    2    0    0 -0.26721028184E+03  0.19594579492E+03 -0.58119982721E+01  0.34388374144E+03  0.91794112197E+02 0.  0.
        254    2    1    2    0    0  0.26721028184E+03 -0.19594579492E+03  0.28553681193E+04  0.30171178779E+04  0.91655720125E+03 0.  0.
        -24    2    4    4    0    0 -0.16291752993E+03  0.97575946961E+01  0.21741342610E+04  0.21818110153E+04  0.82475386568E+02 0.  0.
         24    2    4    4    0    0  0.43012781177E+03 -0.20570338962E+03  0.68123385831E+03  0.83530686262E+03  0.79587474327E+02 0.  0.
         11    1    3    3    0    0 -0.78222261631E+02  0.33824669790E+02  0.33942119812E+02  0.91732753139E+02  0.00000000000E+00 0. -1.
        -11    1    3    3    0    0 -0.18898802021E+03  0.16212112513E+03 -0.39754118084E+02  0.25215098830E+03  0.00000000000E+00 0.  1.
          2    1    6    6  502    0  0.28395796804E+03 -0.16158862187E+03  0.41231315629E+03  0.52606572705E+03  0.00000000000E+00 0. -1.
          3    1    5    5  503    0 -0.16019936486E+03 -0.12228283735E+02  0.19262584967E+04  0.19329472738E+04  0.00000000000E+00 0. -1.
         -4    1    5    5    0  503 -0.27181650736E+01  0.21985878431E+02  0.24787576436E+03  0.24886374149E+03  0.00000000000E+00 0.  1.
         -1    1    6    6    0  502  0.14616984373E+03 -0.44114767749E+02  0.26892070203E+03  0.30924113557E+03  0.00000000000E+00 0.  1.
<mgrwt>
<rscale>  0 0.17822351E+04</rscale>
<asrwt>0</asrwt>
<pdfrwt beam="1">  1        2 0.47773519E+00 0.17822351E+04</pdfrwt>
<pdfrwt beam="2">  1       -2 0.39341964E-01 0.17822351E+04</pdfrwt>
<totfact> 0.86662645E+00</totfact>
</mgrwt>
</event>
<event>
12    1  0.4612066E-007  0.1947082E+04  0.7818608E-02  0.8631769E-01
          1   -1    0    0  501    0  0.00000000000E+00  0.00000000000E+00  0.11496185172E+04  0.11496185172E+04  0.00000000000E+00 0. -1.
         -1   -1    0    0    0  501 -0.00000000000E+00 -0.00000000000E+00 -0.82443179529E+03  0.82443179529E+03  0.00000000000E+00 0.  1.
         23    2    1    2    0    0  0.60555302923E+03  0.30392092342E+03  0.46859703788E+03  0.82897041091E+03  0.92446521610E+02 0.  0.
        254    2    1    2    0    0 -0.60555302923E+03 -0.30392092342E+03 -0.14341031599E+03  0.11450799016E+04  0.91190956971E+03 0.  0.
        -24    2    4    4    0    0 -0.22178253387E+02 -0.45947087266E+03  0.11898416676E+03  0.48204744037E+03  0.81284347137E+02 0.  0.
         24    2    4    4    0    0 -0.58337477584E+03  0.15554994924E+03 -0.26239448275E+03  0.66303246119E+03  0.78989013247E+02 0.  0.
         13    1    3    3    0    0  0.28117180239E+03  0.16257863906E+03  0.27534877984E+03  0.42580083008E+03  0.00000000000E+00 0. -1.
        -13    1    3    3    0    0  0.32438122683E+03  0.14134228436E+03  0.19324825804E+03  0.40316958083E+03  0.00000000000E+00 0.  1.
          4    1    6    6  502    0 -0.40656147070E+03  0.98059215052E+02 -0.21908694459E+03  0.47213020281E+03  0.00000000000E+00 0. -1.
          3    1    5    5  503    0 -0.51356523186E+02 -0.34071738517E+03  0.95128963738E+02  0.35745677889E+03  0.00000000000E+00 0. -1.
         -4    1    5    5    0  503  0.29178269799E+02 -0.11875348748E+03  0.23855203022E+02  0.12459066149E+03  0.00000000000E+00 0.  1.
         -3    1    6    6    0  502 -0.17681330514E+03  0.57490734186E+02 -0.43307538160E+02  0.19090225838E+03  0.00000000000E+00 0.  1.
<mgrwt>
<rscale>  0 0.19470820E+04</rscale>
<asrwt>0</asrwt>
<pdfrwt beam="1">  1        1 0.17686439E+00 0.19470820E+04</pdfrwt>
<pdfrwt beam="2">  1       -1 0.12683566E+00 0.19470820E+04</pdfrwt>
<totfact> 0.58536627E+00</totfact>
</mgrwt>
</event>
<event>
12    1  0.4612066E-007  0.1623990E+04  0.7818608E-02  0.8805944E-01
          1   -1    0    0  501    0  0.00000000000E+00  0.00000000000E+00  0.10136415304E+04  0.10136415304E+04  0.00000000000E+00 0. -1.
         -1   -1    0    0    0  501 -0.00000000000E+00 -0.00000000000E+00 -0.65046281578E+03  0.65046281578E+03  0.00000000000E+00 0.  1.
         23    2    1    2    0    0 -0.18844302074E+03 -0.52189716170E+03  0.20045555431E+03  0.59685867670E+03  0.90390437780E+02 0.  0.
        254    2    1    2    0    0  0.18844302074E+03  0.52189716170E+03  0.16272316030E+03  0.10672456695E+04  0.89702122198E+03 0.  0.
        -24    2    4    4    0    0  0.17066284314E+03  0.74966798706E+03  0.24611857559E+03  0.81132332493E+03  0.80890589617E+02 0.  0.
         24    2    4    4    0    0  0.17780177601E+02 -0.22777082536E+03 -0.83395415292E+02  0.25592234455E+03  0.79660326046E+02 0.  0.
         11    1    3    3    0    0 -0.67415091062E+02 -0.13986119810E+03  0.96644833605E+02  0.18288294918E+03  0.00000000000E+00 0. -1.
        -11    1    3    3    0    0 -0.12102792968E+03 -0.38203596360E+03  0.10381072071E+03  0.41397572752E+03  0.00000000000E+00 0.  1.
          4    1    6    6  502    0  0.46691833922E+02 -0.11224909403E+03 -0.55349039150E+02  0.13357957404E+03  0.00000000000E+00 0. -1.
          1    1    5    5  503    0  0.13909297124E+02  0.67991628136E+02 -0.12275384286E+01  0.69410639628E+02  0.00000000000E+00 0. -1.
         -2    1    5    5    0  503  0.15675354601E+03  0.68167635892E+03  0.24734611402E+03  0.74191268531E+03  0.00000000000E+00 0.  1.
         -3    1    6    6    0  502 -0.28911656321E+02 -0.11552173133E+03 -0.28046376141E+02  0.12234277051E+03  0.00000000000E+00 0.  1.
<mgrwt>
<rscale>  0 0.16239903E+04</rscale>
<asrwt>0</asrwt>
<pdfrwt beam="1">  1        1 0.15594485E+00 0.16239903E+04</pdfrwt>
<pdfrwt beam="2">  1       -1 0.10007120E+00 0.16239903E+04</pdfrwt>
<totfact> 0.13457358E+01</totfact>
</mgrwt>
</event>
<event>
12    1  0.4612066E-007  0.1753773E+04  0.7818608E-02  0.8731276E-01
         -2   -1    0    0    0  501 -0.00000000000E+00  0.00000000000E+00  0.10898640433E+04  0.10898640433E+04  0.00000000000E+00 0. -1.
          2   -1    0    0  501    0  0.00000000000E+00 -0.00000000000E+00 -0.70552831171E+03  0.70552831171E+03  0.00000000000E+00 0.  1.
         23    2    1    2    0    0  0.41374720167E+03 -0.12402598540E+03  0.62827652841E+03  0.76793227165E+03  0.91757210841E+02 0.  0.
        254    2    1    2    0    0 -0.41374720167E+03  0.12402598540E+03 -0.24394079684E+03  0.10274600834E+04  0.89977659370E+03 0.  0.
        -24    2    4    4    0    0 -0.50370771971E+01 -0.57349447341E+02  0.30004554661E+03  0.31848167311E+03  0.89938394511E+02 0.  0.
         24    2    4    4    0    0 -0.40871012448E+03  0.18137543274E+03 -0.54398634346E+03  0.70897841024E+03  0.82390720768E+02 0.  0.
         11    1    3    3    0    0  0.23427425415E+03 -0.23712789884E+02  0.35357158513E+03  0.42480535351E+03  0.00000000000E+00 0. -1.
        -11    1    3    3    0    0  0.17947294753E+03 -0.10031319551E+03  0.27470494328E+03  0.34312691814E+03  0.00000000000E+00 0.  1.
          2    1    6    6  502    0 -0.52961872084E+01 -0.70158114750E+01 -0.59685516609E+01  0.10625197341E+02  0.00000000000E+00 0. -1.
          3    1    5    5  503    0 -0.14981856495E+02  0.18081112036E+02  0.31025086713E+02  0.38909364452E+02  0.00000000000E+00 0. -1.
         -4    1    5    5    0  503  0.99447792984E+01 -0.75430559377E+02  0.26902045990E+03  0.27957230866E+03  0.00000000000E+00 0.  1.
         -1    1    6    6    0  502 -0.40341393727E+03  0.18839124421E+03 -0.53801779179E+03  0.69835321290E+03  0.00000000000E+00 0.  1.
<mgrwt>
<rscale>  0 0.17537730E+04</rscale>
<asrwt>0</asrwt>
<pdfrwt beam="1">  1        2 0.10854282E+00 0.17537730E+04</pdfrwt>
<pdfrwt beam="2">  1       -2 0.16767139E+00 0.17537730E+04</pdfrwt>
<totfact> 0.85067628E+00</totfact>
</mgrwt>
</event>
<event>
12    1  0.4612066E-007  0.1529449E+04  0.7818608E-02  0.8865103E-01
          2   -1    0    0  501    0  0.00000000000E+00  0.00000000000E+00  0.25650838618E+04  0.25650838618E+04  0.00000000000E+00 0. -1.
         -2   -1    0    0    0  501 -0.00000000000E+00 -0.00000000000E+00 -0.22798601480E+03  0.22798601480E+03  0.00000000000E+00 0.  1.
         23    2    1    2    0    0 -0.69735665738E+02  0.97104936730E+02 -0.10941308099E+03  0.18602578837E+03  0.91334220500E+02 0.  0.
        254    2    1    2    0    0  0.69735665738E+02 -0.97104936730E+02  0.24465109280E+04  0.26070440883E+04  0.89273216889E+03 0.  0.
        -24    2    4    4    0    0 -0.41150329965E+02  0.35359993995E+03  0.60962133261E+03  0.71075121884E+03  0.82479444232E+02 0.  0.
         24    2    4    4    0    0  0.11088599570E+03 -0.45070487668E+03  0.18368895954E+04  0.18962928694E+04  0.79578080859E+02 0.  0.
         13    1    3    3    0    0 -0.73416718385E+00 -0.17046016253E+02 -0.12344738825E+02  0.21059398097E+02  0.00000000000E+00 0. -1.
        -13    1    3    3    0    0 -0.69001498554E+02  0.11415095298E+03 -0.97068342163E+02  0.16496639027E+03  0.00000000000E+00 0.  1.
          2    1    6    6  502    0  0.10517087384E+03 -0.27893206916E+03  0.11061847857E+04  0.11456477609E+04  0.00000000000E+00 0. -1.
          1    1    5    5  503    0 -0.27541638652E+02  0.24319137358E+03  0.48795178199E+03  0.54589149800E+03  0.00000000000E+00 0. -1.
         -2    1    5    5    0  503 -0.13608691313E+02  0.11040856637E+03  0.12166955063E+03  0.16485972084E+03  0.00000000000E+00 0.  1.
         -1    1    6    6    0  502  0.57151218633E+01 -0.17177280753E+03  0.73070480969E+03  0.75064510850E+03  0.00000000000E+00 0.  1.
<mgrwt>
<rscale>  0 0.15294486E+04</rscale>
<asrwt>0</asrwt>
<pdfrwt beam="1">  1        2 0.39462827E+00 0.15294486E+04</pdfrwt>
<pdfrwt beam="2">  1       -2 0.35074773E-01 0.15294486E+04</pdfrwt>
<totfact> 0.23535229E+01</totfact>
</mgrwt>
</event>
<event>
12    1  0.4612066E-007  0.2508801E+04  0.7818608E-02  0.8399857E-01
         -2   -1    0    0    0  501 -0.00000000000E+00  0.00000000000E+00  0.15172312032E+04  0.15172312032E+04  0.00000000000E+00 0.  1.
          2   -1    0    0  501    0  0.00000000000E+00 -0.00000000000E+00 -0.10370998382E+04  0.10370998382E+04  0.00000000000E+00 0. -1.
         23    2    1    2    0    0 -0.38024445540E+03 -0.17285713361E+03 -0.81920797456E+03  0.92401343609E+03  0.90739682506E+02 0.  0.
        254    2    1    2    0    0  0.38024445540E+03  0.17285713361E+03  0.12993393395E+04  0.16303176054E+04  0.89173277418E+03 0.  0.
        -24    2    4    4    0    0 -0.22051076942E+03  0.28270031935E+03  0.44276916321E+03  0.57548449173E+03  0.81199743502E+02 0.  0.
         24    2    4    4    0    0  0.60075522482E+03 -0.10984318574E+03  0.85657017633E+03  0.10548331136E+04  0.77382588607E+02 0.  0.
         13    1    3    3    0    0 -0.28562967031E+03 -0.13153907725E+03 -0.52220566040E+03  0.60957820594E+03  0.00000000000E+00 0.  1.
        -13    1    3    3    0    0 -0.94614785089E+02 -0.41318056360E+02 -0.29700231416E+03  0.31443523014E+03  0.00000000000E+00 0. -1.
          4    1    6    6  502    0  0.36207362668E+03 -0.41716495452E+02  0.45844203872E+03  0.58566772149E+03  0.00000000000E+00 0. -1.
          1    1    5    5  503    0 -0.18606476586E+03  0.19960685791E+03  0.37024103557E+03  0.45993632085E+03  0.00000000000E+00 0. -1.
         -2    1    5    5    0  503 -0.34446003561E+02  0.83093461436E+02  0.72528127643E+02  0.11554817088E+03  0.00000000000E+00 0.  1.
         -3    1    6    6    0  502  0.23868159814E+03 -0.68126690285E+02  0.39812813760E+03  0.46916539213E+03  0.00000000000E+00 0.  1.
<mgrwt>
<rscale>  0 0.25088007E+04</rscale>
<asrwt>0</asrwt>
<pdfrwt beam="1">  1        2 0.15955382E+00 0.25088007E+04</pdfrwt>
<pdfrwt beam="2">  1       -2 0.23342018E+00 0.25088007E+04</pdfrwt>
<totfact> 0.17299442E+00</totfact>
</mgrwt>
</event>
<event>
12    1  0.4612066E-007  0.1561737E+04  0.7818608E-02  0.8844406E-01
          1   -1    0    0  501    0  0.00000000000E+00  0.00000000000E+00  0.24910212592E+04  0.24910212592E+04  0.00000000000E+00 0. -1.
         -1   -1    0    0    0  501 -0.00000000000E+00 -0.00000000000E+00 -0.24478131615E+03  0.24478131615E+03  0.00000000000E+00 0.  1.
         23    2    1    2    0    0 -0.49847371089E+03 -0.49459573944E+02  0.52254791239E+03  0.72963702232E+03  0.91605533091E+02 0.  0.
        254    2    1    2    0    0  0.49847371089E+03  0.49459573944E+02  0.17236920306E+04  0.20061655530E+04  0.89591501813E+03 0.  0.
        -24    2    4    4    0    0  0.73502697132E+03 -0.71813309621E+02  0.13485213625E+04  0.15395386676E+04  0.79042039346E+02 0.  0.
         24    2    4    4    0    0 -0.23655326044E+03  0.12127288357E+03  0.37517066811E+03  0.46662688536E+03  0.79517687485E+02 0.  0.
         13    1    3    3    0    0 -0.31503067823E+03 -0.52710452362E+02  0.38548720348E+03  0.50062271628E+03  0.00000000000E+00 0. -1.
        -13    1    3    3    0    0 -0.18344303266E+03  0.32508784178E+01  0.13706070892E+03  0.22901430604E+03  0.00000000000E+00 0.  1.
          4    1    6    6  502    0 -0.10388843110E+03  0.11247611853E+02  0.12672059770E+03  0.16424805865E+03  0.00000000000E+00 0. -1.
          1    1    5    5  503    0  0.47183759786E+03 -0.79166846574E+01  0.85972901566E+03  0.98072798115E+03  0.00000000000E+00 0. -1.
         -2    1    5    5    0  503  0.26318937347E+03 -0.63896624964E+02  0.48879234684E+03  0.55881068648E+03  0.00000000000E+00 0.  1.
         -3    1    6    6    0  502 -0.13266482934E+03  0.11002527171E+03  0.24845007042E+03  0.30237882672E+03  0.00000000000E+00 0.  1.
<mgrwt>
<rscale>  0 0.15617368E+04</rscale>
<asrwt>0</asrwt>
<pdfrwt beam="1">  1        1 0.38323402E+00 0.15617368E+04</pdfrwt>
<pdfrwt beam="2">  1       -1 0.37658666E-01 0.15617368E+04</pdfrwt>
<totfact> 0.90138911E+00</totfact>
</mgrwt>
</event>
<event>
12    1  0.4612066E-007  0.1756495E+04  0.7818608E-02  0.8729783E-01
         -2   -1    0    0    0  501 -0.00000000000E+00  0.00000000000E+00  0.48299047914E+03  0.48299047914E+03  0.00000000000E+00 0.  1.
          2   -1    0    0  501    0  0.00000000000E+00 -0.00000000000E+00 -0.15969640239E+04  0.15969640239E+04  0.00000000000E+00 0. -1.
         23    2    1    2    0    0 -0.42060912392E+03 -0.24180957022E+03  0.90250190394E+02  0.50158079799E+03  0.89745733448E+02 0.  0.
        254    2    1    2    0    0  0.42060912392E+03  0.24180957022E+03 -0.12042237351E+04  0.15783737051E+04  0.89762177177E+03 0.  0.
        -24    2    4    4    0    0  0.68206363729E+03  0.82359312030E+02 -0.70664408331E+03  0.98880272501E+03  0.79944398924E+02 0.  0.
         24    2    4    4    0    0 -0.26145451337E+03  0.15945025819E+03 -0.49757965184E+03  0.58957098004E+03  0.78902364911E+02 0.  0.
         11    1    3    3    0    0 -0.30661775862E+03 -0.14360515396E+03  0.92911608068E+02  0.35109750363E+03  0.00000000000E+00 0.  1.
        -11    1    3    3    0    0 -0.11399136530E+03 -0.98204416262E+02 -0.26614176740E+01  0.15048329436E+03  0.00000000000E+00 0. -1.
          2    1    6    6  502    0 -0.21196859083E+03  0.16169514901E+03 -0.41401737173E+03  0.49242906982E+03  0.00000000000E+00 0. -1.
          1    1    5    5  503    0  0.30915672816E+03 -0.26404696346E+01 -0.31272786237E+03  0.43975398867E+03  0.00000000000E+00 0. -1.
         -2    1    5    5    0  503  0.37290690913E+03  0.84999781665E+02 -0.39391622094E+03  0.54904873634E+03  0.00000000000E+00 0.  1.
         -1    1    6    6    0  502 -0.49485922546E+02 -0.22448908234E+01 -0.83562280104E+02  0.97141910220E+02  0.00000000000E+00 0.  1.
<mgrwt>
<rscale>  0 0.17564947E+04</rscale>
<asrwt>0</asrwt>
<pdfrwt beam="1">  1        2 0.24568677E+00 0.17564947E+04</pdfrwt>
<pdfrwt beam="2">  1       -2 0.74306227E-01 0.17564947E+04</pdfrwt>
<totfact> 0.17287127E+01</totfact>
</mgrwt>
</event>
<event>
12    1  0.4612066E-007  0.4540814E+04  0.7818608E-02  0.7903530E-01
         -2   -1    0    0    0  501 -0.00000000000E+00  0.00000000000E+00  0.13032775871E+04  0.13032775871E+04  0.00000000000E+00 0.  1.
          2   -1    0    0  501    0  0.00000000000E+00 -0.00000000000E+00 -0.39552187286E+04  0.39552187286E+04  0.00000000000E+00 0. -1.
         23    2    1    2    0    0  0.19264815225E+04 -0.76794168989E+03 -0.20536498280E+04  0.29201768220E+04  0.94284462968E+02 0.  0.
        254    2    1    2    0    0 -0.19264815225E+04  0.76794168989E+03 -0.59829131344E+03  0.23383194937E+04  0.89928864285E+03 0.  0.
        -24    2    4    4    0    0 -0.10960759369E+04  0.67881724791E+03 -0.73804240632E+03  0.14876846266E+04  0.79521312608E+02 0.  0.
         24    2    4    4    0    0 -0.83040558552E+03  0.89124441980E+02  0.13975109288E+03  0.85063486702E+03  0.80825159535E+02 0.  0.
         11    1    3    3    0    0  0.13861529368E+04 -0.53783632410E+03 -0.14147562190E+04  0.20523701018E+04  0.00000000000E+00 0.  1.
        -11    1    3    3    0    0  0.54032858569E+03 -0.23010536580E+03 -0.63889360907E+03  0.86780672018E+03  0.00000000000E+00 0. -1.
          4    1    6    6  502    0 -0.63833226695E+03  0.34038064708E+02  0.10901575659E+03  0.64846827838E+03  0.00000000000E+00 0. -1.
          3    1    5    5  503    0 -0.80165379214E+03  0.48089292276E+03 -0.57242810259E+03  0.10961663826E+04  0.00000000000E+00 0. -1.
         -4    1    5    5    0  503 -0.29442214480E+03  0.19792432515E+03 -0.16561430372E+03  0.39151824406E+03  0.00000000000E+00 0.  1.
         -3    1    6    6    0  502 -0.19207331857E+03  0.55086377272E+02  0.30735336293E+02  0.20216658865E+03  0.00000000000E+00 0.  1.
<mgrwt>
<rscale>  0 0.45408140E+04</rscale>
<asrwt>0</asrwt>
<pdfrwt beam="1">  1        2 0.60849519E+00 0.45408140E+04</pdfrwt>
<pdfrwt beam="2">  1       -2 0.20050424E+00 0.45408140E+04</pdfrwt>
<totfact> 0.36904404E-02</totfact>
</mgrwt>
</event>
<event>
12    1  0.4612066E-007  0.2747026E+04  0.7818608E-02  0.8319906E-01
         -2   -1    0    0    0  501 -0.00000000000E+00  0.00000000000E+00  0.83502422665E+03  0.83502422665E+03  0.00000000000E+00 0.  1.
          2   -1    0    0  501    0  0.00000000000E+00 -0.00000000000E+00 -0.22592611878E+04  0.22592611878E+04  0.00000000000E+00 0. -1.
         23    2    1    2    0    0  0.55034727202E+03 -0.10565168498E+04 -0.96561532206E+03  0.15360939252E+04  0.89786541408E+02 0.  0.
        254    2    1    2    0    0 -0.55034727202E+03  0.10565168498E+04 -0.45862163906E+03  0.15581914892E+04  0.89359774817E+03 0.  0.
        -24    2    4    4    0    0  0.23832472505E+03  0.27190474141E+03 -0.16496206963E+03  0.40464701435E+03  0.76130538121E+02 0.  0.
         24    2    4    4    0    0 -0.78867199708E+03  0.78461210841E+03 -0.29365956943E+03  0.11535444749E+04  0.82518077894E+02 0.  0.
         13    1    3    3    0    0  0.26618762412E+03 -0.45455667310E+03 -0.38027458099E+03  0.64968175074E+03  0.00000000000E+00 0.  1.
        -13    1    3    3    0    0  0.28415964790E+03 -0.60196017672E+03 -0.58534074106E+03  0.88641217444E+03  0.00000000000E+00 0. -1.
          2    1    6    6  502    0 -0.30533170752E+03  0.30771861824E+03 -0.15612089269E+03  0.46075148699E+03  0.00000000000E+00 0. -1.
          3    1    5    5  503    0  0.23196348962E+03  0.27645753465E+03 -0.16502597067E+03  0.39682414238E+03  0.00000000000E+00 0. -1.
         -4    1    5    5    0  503  0.63612354293E+01 -0.45527932407E+01  0.63901040432E-01  0.78228719676E+01  0.00000000000E+00 0.  1.
         -1    1    6    6    0  502 -0.48334028956E+03  0.47689349017E+03 -0.13753867674E+03  0.69279298790E+03  0.00000000000E+00 0.  1.
<mgrwt>
<rscale>  0 0.27470259E+04</rscale>
<asrwt>0</asrwt>
<pdfrwt beam="1">  1        2 0.34757865E+00 0.27470259E+04</pdfrwt>
<pdfrwt beam="2">  1       -2 0.12846526E+00 0.27470259E+04</pdfrwt>
<totfact> 0.18698689E+00</totfact>
</mgrwt>
</event>
<event>
12    1  0.4612066E-007  0.2859226E+04  0.7818608E-02  0.8285113E-01
         -3   -1    0    0    0  501 -0.00000000000E+00  0.00000000000E+00  0.10279958224E+04  0.10279958224E+04  0.00000000000E+00 0.  1.
          3   -1    0    0  501    0  0.00000000000E+00 -0.00000000000E+00 -0.19881332495E+04  0.19881332495E+04  0.00000000000E+00 0. -1.
         23    2    1    2    0    0 -0.29393667488E+03  0.12451567312E+04 -0.58092571737E+03  0.14080062525E+04  0.90514439563E+02 0.  0.
        254    2    1    2    0    0  0.29393667488E+03 -0.12451567312E+04 -0.37921170970E+03  0.16081228194E+04  0.89746500054E+03 0.  0.
        -24    2    4    4    0    0  0.49769703328E+03 -0.86119878188E+03  0.40687712129E+02  0.99845932193E+03  0.76810473129E+02 0.  0.
         24    2    4    4    0    0 -0.20376035840E+03 -0.38395794936E+03 -0.41989942183E+03  0.60966349743E+03  0.80200156629E+02 0.  0.
         11    1    3    3    0    0 -0.16675183693E+03  0.64124517978E+03 -0.34757967028E+03  0.74820664452E+03  0.00000000000E+00 0. -1.
        -11    1    3    3    0    0 -0.12718483796E+03  0.60391155146E+03 -0.23334604708E+03  0.65979960797E+03  0.00000000000E+00 0.  1.
          2    1    6    6  502    0 -0.11472817699E+03 -0.13255944247E+03 -0.16613735417E+03  0.24152884058E+03  0.00000000000E+00 0. -1.
          1    1    5    5  503    0  0.37246850996E+02 -0.11313993296E+03  0.15525524716E+00  0.11911337643E+03  0.00000000000E+00 0. -1.
         -2    1    5    5    0  503  0.46045018228E+03 -0.74805884892E+03  0.40532456882E+02  0.87934594550E+03  0.00000000000E+00 0.  1.
         -1    1    6    6    0  502 -0.89032181404E+02 -0.25139850689E+03 -0.25376206765E+03  0.36813465685E+03  0.00000000000E+00 0.  1.
<mgrwt>
<rscale>  0 0.28592255E+04</rscale>
<asrwt>0</asrwt>
<pdfrwt beam="1">  1        3 0.30586665E+00 0.28592255E+04</pdfrwt>
<pdfrwt beam="2">  1       -3 0.15815321E+00 0.28592255E+04</pdfrwt>
<totfact> 0.22673664E-02</totfact>
</mgrwt>
</event>
<event>
12    1  0.4612066E-007  0.1199269E+04  0.7818608E-02  0.9113497E-01
          1   -1    0    0  501    0  0.00000000000E+00  0.00000000000E+00  0.14907319443E+04  0.14907319443E+04  0.00000000000E+00 0. -1.
         -1   -1    0    0    0  501 -0.00000000000E+00 -0.00000000000E+00 -0.24119795753E+03  0.24119795753E+03  0.00000000000E+00 0.  1.
         23    2    1    2    0    0 -0.36129996279E+02  0.23767662182E+03  0.17150803161E+03  0.30894140794E+03  0.90742688084E+02 0.  0.
        254    2    1    2    0    0  0.36129996279E+02 -0.23767662182E+03  0.10780259552E+04  0.14229884939E+04  0.89719604354E+03 0.  0.
        -24    2    4    4    0    0  0.13067808812E+03  0.32128964564E+03  0.42238365999E+03  0.55255676956E+03  0.81284858655E+02 0.  0.
         24    2    4    4    0    0 -0.94548091838E+02 -0.55896626746E+03  0.65564229516E+03  0.87043172433E+03  0.80012109558E+02 0.  0.
         13    1    3    3    0    0 -0.52900373085E+02  0.21129345750E+03  0.17221498920E+03  0.27767134739E+03  0.00000000000E+00 0. -1.
        -13    1    3    3    0    0  0.16770376807E+02  0.26383164321E+02 -0.70695758888E+00  0.31270060551E+02  0.00000000000E+00 0.  1.
          4    1    6    6  502    0  0.17011246820E+01 -0.16883600340E+03  0.22680341854E+03  0.28275126973E+03  0.00000000000E+00 0. -1.
          3    1    5    5  503    0 -0.79643102286E+01  0.45558431757E+02  0.39865219486E+02  0.61059288124E+02  0.00000000000E+00 0. -1.
         -4    1    5    5    0  503  0.13864239834E+03  0.27573121388E+03  0.38251844050E+03  0.49149748143E+03  0.00000000000E+00 0.  1.
         -3    1    6    6    0  502 -0.96249216520E+02 -0.39013026406E+03  0.42883887662E+03  0.58768045460E+03  0.00000000000E+00 0.  1.
<mgrwt>
<rscale>  0 0.11992689E+04</rscale>
<asrwt>0</asrwt>
<pdfrwt beam="1">  1        1 0.22934337E+00 0.11992689E+04</pdfrwt>
<pdfrwt beam="2">  1       -1 0.37107379E-01 0.11992689E+04</pdfrwt>
<totfact> 0.45879787E+01</totfact>
</mgrwt>
</event>
<event>
12    1  0.4612066E-007  0.1723767E+04  0.7818608E-02  0.8747924E-01
          1   -1    0    0  501    0  0.00000000000E+00  0.00000000000E+00  0.26398894595E+04  0.26398894595E+04  0.00000000000E+00 0. -1.
         -1   -1    0    0    0  501 -0.00000000000E+00 -0.00000000000E+00 -0.28139185540E+03  0.28139185540E+03  0.00000000000E+00 0.  1.
         23    2    1    2    0    0 -0.53960250041E+03 -0.25493420710E+03  0.57032050802E+03  0.83077472323E+03  0.93588730595E+02 0.  0.
        254    2    1    2    0    0  0.53960250041E+03  0.25493420710E+03  0.17881770961E+04  0.20905065917E+04  0.90359181853E+03 0.  0.
        -24    2    4    4    0    0 -0.12259968003E+03 -0.16188157295E+03  0.78772501770E+03  0.81741791629E+03  0.80156229685E+02 0.  0.
         24    2    4    4    0    0  0.66220218044E+03  0.41681578005E+03  0.10004520784E+04  0.12730886754E+04  0.87196857697E+02 0.  0.
         13    1    3    3    0    0 -0.21333567091E+03 -0.13642919948E+03  0.28667883476E+03  0.38250462644E+03  0.00000000000E+00 0. -1.
        -13    1    3    3    0    0 -0.32626682950E+03 -0.11850500763E+03  0.28364167326E+03  0.44827009679E+03  0.00000000000E+00 0.  1.
          2    1    6    6  502    0  0.49503527444E+03  0.32208977477E+03  0.81099569821E+03  0.10032525945E+04  0.00000000000E+00 0. -1.
          3    1    5    5  503    0 -0.11216997949E+03 -0.10549794454E+03  0.47066249672E+03  0.49521218324E+03  0.00000000000E+00 0. -1.
         -4    1    5    5    0  503 -0.10429700537E+02 -0.56383628409E+02  0.31706252097E+03  0.32220573305E+03  0.00000000000E+00 0.  1.
         -1    1    6    6    0  502  0.16716690600E+03  0.94726005279E+02  0.18945638019E+03  0.26983608086E+03  0.00000000000E+00 0.  1.
<mgrwt>
<rscale>  0 0.17237673E+04</rscale>
<asrwt>0</asrwt>
<pdfrwt beam="1">  1        1 0.40613682E+00 0.17237673E+04</pdfrwt>
<pdfrwt beam="2">  1       -1 0.43291056E-01 0.17237673E+04</pdfrwt>
<totfact> 0.54191769E+00</totfact>
</mgrwt>
</event>
<event>
12    1  0.4612066E-007  0.1809005E+04  0.7818608E-02  0.8701525E-01
          1   -1    0    0  501    0  0.00000000000E+00  0.00000000000E+00  0.10567604475E+04  0.10567604475E+04  0.00000000000E+00 0. -1.
         -1   -1    0    0    0  501 -0.00000000000E+00 -0.00000000000E+00 -0.77418194392E+03  0.77418194392E+03  0.00000000000E+00 0.  1.
         23    2    1    2    0    0  0.26313552672E+03 -0.60203523501E+03  0.25111893711E+03  0.70850527760E+03  0.85042802107E+02 0.  0.
        254    2    1    2    0    0 -0.26313552672E+03  0.60203523501E+03  0.31459566461E+02  0.11224371138E+04  0.90949911520E+03 0.  0.
        -24    2    4    4    0    0 -0.52208324957E+03  0.49204992676E+03  0.24252017614E+03  0.76148291842E+03  0.79725462096E+02 0.  0.
         24    2    4    4    0    0  0.25894772285E+03  0.10998530825E+03 -0.21106060968E+03  0.36095419540E+03  0.81182873911E+02 0.  0.
         13    1    3    3    0    0  0.11227342355E+03 -0.31693977203E+03  0.16562385433E+03  0.37481649090E+03  0.00000000000E+00 0. -1.
        -13    1    3    3    0    0  0.15086210317E+03 -0.28509546298E+03  0.85495082780E+02  0.33368878670E+03  0.00000000000E+00 0.  1.
          4    1    6    6  502    0  0.27527173210E+02  0.37058194387E+02 -0.57771691431E+02  0.73950141089E+02  0.00000000000E+00 0. -1.
          3    1    5    5  503    0 -0.23500733039E+03  0.17207772562E+03  0.11423456125E+03  0.31287173726E+03  0.00000000000E+00 0. -1.
         -4    1    5    5    0  503 -0.28707591918E+03  0.31997220114E+03  0.12828561489E+03  0.44861118116E+03  0.00000000000E+00 0.  1.
         -3    1    6    6    0  502  0.23142054964E+03  0.72927113864E+02 -0.15328891825E+03  0.28700405431E+03  0.00000000000E+00 0.  1.
<mgrwt>
<rscale>  0 0.18090051E+04</rscale>
<asrwt>0</asrwt>
<pdfrwt beam="1">  1        1 0.16257853E+00 0.18090051E+04</pdfrwt>
<pdfrwt beam="2">  1       -1 0.11910491E+00 0.18090051E+04</pdfrwt>
<totfact> 0.81315471E+00</totfact>
</mgrwt>
</event>
<event>
12    1  0.4612066E-007  0.2123092E+04  0.7818608E-02  0.8551139E-01
         -2   -1    0    0    0  501 -0.00000000000E+00  0.00000000000E+00  0.12041476431E+04  0.12041476431E+04  0.00000000000E+00 0.  1.
          2   -1    0    0  501    0  0.00000000000E+00 -0.00000000000E+00 -0.93583190220E+03  0.93583190220E+03  0.00000000000E+00 0. -1.
         23    2    1    2    0    0  0.41153206588E+03 -0.74793538833E+03 -0.39756619874E+02  0.85954302210E+03  0.92019735159E+02 0.  0.
        254    2    1    2    0    0 -0.41153206588E+03  0.74793538833E+03  0.30807236078E+03  0.12804365232E+04  0.90324034682E+03 0.  0.
        -24    2    4    4    0    0 -0.53300970612E+03  0.43530063860E+03 -0.14824029688E+03  0.70849179164E+03  0.79996502473E+02 0.  0.
         24    2    4    4    0    0  0.12147764024E+03  0.31263474973E+03  0.45631265767E+03  0.57194473157E+03  0.80013940069E+02 0.  0.
         11    1    3    3    0    0  0.16653184910E+03 -0.32277778802E+03  0.27558880528E+02  0.36424970707E+03  0.00000000000E+00 0.  1.
        -11    1    3    3    0    0  0.24500021677E+03 -0.42515760031E+03 -0.67315500402E+02  0.49529331503E+03  0.00000000000E+00 0. -1.
          4    1    6    6  502    0  0.45880296917E+02  0.11656754297E+03  0.23784755409E+03  0.26882048417E+03  0.00000000000E+00 0. -1.
          1    1    5    5  503    0 -0.21136287528E+03  0.19062324547E+03 -0.99089966033E+02  0.30138066980E+03  0.00000000000E+00 0. -1.
         -2    1    5    5    0  503 -0.32164683084E+03  0.24467739313E+03 -0.49150330851E+02  0.40711112184E+03  0.00000000000E+00 0.  1.
         -3    1    6    6    0  502  0.75597343328E+02  0.19606720676E+03  0.21846510357E+03  0.30312424740E+03  0.00000000000E+00 0.  1.
<mgrwt>
<rscale>  0 0.21230919E+04</rscale>
<asrwt>0</asrwt>
<pdfrwt beam="1">  1        2 0.14397414E+00 0.21230919E+04</pdfrwt>
<pdfrwt beam="2">  1       -2 0.18525348E+00 0.21230919E+04</pdfrwt>
<totfact> 0.42573307E+00</totfact>
</mgrwt>
</event>
<event>
12    1  0.4612066E-007  0.1664912E+04  0.7818608E-02  0.8781633E-01
         -2   -1    0    0    0  501 -0.00000000000E+00  0.00000000000E+00  0.62078050243E+03  0.62078050243E+03  0.00000000000E+00 0.  1.
          2   -1    0    0  501    0  0.00000000000E+00 -0.00000000000E+00 -0.11163089956E+04  0.11163089956E+04  0.00000000000E+00 0. -1.
         23    2    1    2    0    0 -0.42014050903E+02  0.57677411805E+03 -0.26004102289E+03  0.64000527626E+03  0.86901417270E+02 0.  0.
        254    2    1    2    0    0  0.42014050903E+02 -0.57677411805E+03 -0.23548747026E+03  0.10970842217E+04  0.90205647120E+03 0.  0.
        -24    2    4    4    0    0 -0.31798847325E+03 -0.43438980810E+03 -0.39181172361E+03  0.67184956073E+03  0.89745367567E+02 0.  0.
         24    2    4    4    0    0  0.36000252415E+03 -0.14238430995E+03  0.15632425335E+03  0.42523466102E+03  0.80697804366E+02 0.  0.
         13    1    3    3    0    0 -0.39947723914E+01  0.11014024102E+03 -0.13961642428E+02  0.11109346677E+03  0.00000000000E+00 0.  1.
        -13    1    3    3    0    0 -0.38019278511E+02  0.46663387703E+03 -0.24607938046E+03  0.52891180949E+03  0.00000000000E+00 0. -1.
          4    1    6    6  502    0  0.17106894021E+03 -0.53977129413E+02  0.11354562534E+03  0.21229866188E+03  0.00000000000E+00 0. -1.
          1    1    5    5  503    0  0.50484382204E+01 -0.11384103068E+02 -0.16100711859E+02  0.20354789448E+02  0.00000000000E+00 0. -1.
         -2    1    5    5    0  503 -0.32303691147E+03 -0.42300570503E+03 -0.37571101175E+03  0.65149477128E+03  0.00000000000E+00 0.  1.
         -3    1    6    6    0  502  0.18893358394E+03 -0.88407180538E+02  0.42778628004E+02  0.21293599913E+03  0.00000000000E+00 0.  1.
<mgrwt>
<rscale>  0 0.16649118E+04</rscale>
<asrwt>0</asrwt>
<pdfrwt beam="1">  1        2 0.17173984E+00 0.16649118E+04</pdfrwt>
<pdfrwt beam="2">  1       -2 0.95504694E-01 0.16649118E+04</pdfrwt>
<totfact> 0.18700954E+01</totfact>
</mgrwt>
</event>
<event>
12    1  0.4612066E-007  0.2318856E+04  0.7818608E-02  0.8470523E-01
          2   -1    0    0  501    0  0.00000000000E+00  0.00000000000E+00  0.13728021382E+04  0.13728021382E+04  0.00000000000E+00 0. -1.
         -2   -1    0    0    0  501 -0.00000000000E+00 -0.00000000000E+00 -0.97921869511E+03  0.97921869511E+03  0.00000000000E+00 0.  1.
         23    2    1    2    0    0 -0.62315144620E+03 -0.31940628488E+03  0.86794203878E+03  0.11188212647E+04  0.89997443679E+02 0.  0.
        254    2    1    2    0    0  0.62315144620E+03  0.31940628488E+03 -0.47435859570E+03  0.12331995686E+04  0.89745584796E+03 0.  0.
        -24    2    4    4    0    0 -0.18041164715E+03 -0.10569957027E+03 -0.95569554431E+02  0.24479996293E+03  0.84099468091E+02 0.  0.
         24    2    4    4    0    0  0.80356309335E+03  0.42510585515E+03 -0.37878904127E+03  0.98839960570E+03  0.83809365133E+02 0.  0.
         11    1    3    3    0    0 -0.39667389530E+03 -0.20073268113E+03  0.61774614814E+03  0.76108744046E+03  0.00000000000E+00 0. -1.
        -11    1    3    3    0    0 -0.22647755090E+03 -0.11867360374E+03  0.25019589064E+03  0.35773382421E+03  0.00000000000E+00 0.  1.
          2    1    6    6  502    0  0.21136698545E+02  0.88815309743E+01  0.35435966146E+01  0.23199109784E+02  0.00000000000E+00 0. -1.
          3    1    5    5  503    0  0.54387720887E+01 -0.15849986765E+02  0.12277200378E+01  0.16802071860E+02  0.00000000000E+00 0. -1.
         -4    1    5    5    0  503 -0.18585041924E+03 -0.89849583506E+02 -0.96797274469E+02  0.22799789107E+03  0.00000000000E+00 0.  1.
         -1    1    6    6    0  502  0.78242639481E+03  0.41622432417E+03 -0.38233263789E+03  0.96520049592E+03  0.00000000000E+00 0.  1.
<mgrwt>
<rscale>  0 0.23188562E+04</rscale>
<asrwt>0</asrwt>
<pdfrwt beam="1">  1        2 0.21120033E+00 0.23188562E+04</pdfrwt>
<pdfrwt beam="2">  1       -2 0.15064903E+00 0.23188562E+04</pdfrwt>
<totfact> 0.40226972E+00</totfact>
</mgrwt>
</event>
<event>
12    1  0.4612066E-007  0.1974109E+04  0.7818608E-02  0.8618822E-01
         -2   -1    0    0    0  501 -0.00000000000E+00  0.00000000000E+00  0.46685300196E+03  0.46685300196E+03  0.00000000000E+00 0.  1.
          2   -1    0    0  501    0  0.00000000000E+00 -0.00000000000E+00 -0.20869023285E+04  0.20869023285E+04  0.00000000000E+00 0. -1.
         23    2    1    2    0    0 -0.18050380358E+03 -0.60200951805E+03 -0.12480523800E+04  0.14003006229E+04  0.90609095752E+02 0.  0.
        254    2    1    2    0    0  0.18050380358E+03  0.60200951805E+03 -0.37199694652E+03  0.11534547076E+04  0.89279278183E+03 0.  0.
        -24    2    4    4    0    0  0.19254059263E+03  0.22385706660E+03 -0.62199514370E+03  0.69300179917E+03  0.78674448127E+02 0.  0.
         24    2    4    4    0    0 -0.12036789050E+02  0.37815245144E+03  0.24999819718E+03  0.46045290841E+03  0.79834963776E+02 0.  0.
         13    1    3    3    0    0 -0.10282988922E+03 -0.31210483823E+03 -0.74961361578E+03  0.81847662711E+03  0.00000000000E+00 0. -1.
        -13    1    3    3    0    0 -0.77673914352E+02 -0.28990467982E+03 -0.49843876421E+03  0.58182399574E+03  0.00000000000E+00 0.  1.
          4    1    6    6  502    0 -0.20163338113E+02  0.26059863454E+03  0.12870753934E+03  0.29134831253E+03  0.00000000000E+00 0. -1.
          3    1    5    5  503    0  0.57800705222E+02  0.48498255775E+02 -0.93802442473E+02  0.12038230996E+03  0.00000000000E+00 0. -1.
         -4    1    5    5    0  503  0.13473988741E+03  0.17535881083E+03 -0.52819270123E+03  0.57261948921E+03  0.00000000000E+00 0.  1.
         -3    1    6    6    0  502  0.81265490628E+01  0.11755381690E+03  0.12129065784E+03  0.16910459588E+03  0.00000000000E+00 0.  1.
<mgrwt>
<rscale>  0 0.19741090E+04</rscale>
<asrwt>0</asrwt>
<pdfrwt beam="1">  1        2 0.32106189E+00 0.19741090E+04</pdfrwt>
<pdfrwt beam="2">  1       -2 0.71823540E-01 0.19741090E+04</pdfrwt>
<totfact> 0.97745834E+00</totfact>
</mgrwt>
</event>
<event>
12    1  0.4612066E-007  0.1665591E+04  0.7818608E-02  0.8781236E-01
         -2   -1    0    0    0  501 -0.00000000000E+00  0.00000000000E+00  0.23485724948E+03  0.23485724948E+03  0.00000000000E+00 0.  1.
          2   -1    0    0  501    0  0.00000000000E+00 -0.00000000000E+00 -0.29530624466E+04  0.29530624466E+04  0.00000000000E+00 0. -1.
         23    2    1    2    0    0  0.71786008602E+02 -0.48430713552E+03 -0.36525883982E+03  0.61775068951E+03  0.92169744350E+02 0.  0.
        254    2    1    2    0    0 -0.71786008602E+02  0.48430713552E+03 -0.23529463573E+04  0.25701690066E+04  0.91088173186E+03 0.  0.
        -24    2    4    4    0    0 -0.28082233733E+03  0.28669791353E+03 -0.21912772667E+04  0.22292042356E+04  0.81231677931E+02 0.  0.
         24    2    4    4    0    0  0.20903632872E+03  0.19760922199E+03 -0.16166909060E+03  0.34096477101E+03  0.85874844226E+02 0.  0.
         11    1    3    3    0    0  0.72243825483E+02 -0.31057663606E+03 -0.27941095231E+03  0.42396638718E+03  0.00000000000E+00 0. -1.
        -11    1    3    3    0    0 -0.45781688043E+00 -0.17373049946E+03 -0.85847887509E+02  0.19378430233E+03  0.00000000000E+00 0.  1.
          2    1    6    6  502    0  0.17858209626E+03  0.17205317771E+03 -0.99555507801E+02  0.26721743992E+03  0.00000000000E+00 0. -1.
          1    1    5    5  503    0 -0.14494662914E+03  0.18190531287E+03 -0.10804372796E+04  0.11051894785E+04  0.00000000000E+00 0. -1.
         -2    1    5    5    0  503 -0.13587570819E+03  0.10479260066E+03 -0.11108399871E+04  0.11240147571E+04  0.00000000000E+00 0.  1.
         -1    1    6    6    0  502  0.30454232464E+02  0.25556044282E+02 -0.62113582799E+02  0.73747331088E+02  0.00000000000E+00 0.  1.
<mgrwt>
<rscale>  0 0.16655907E+04</rscale>
<asrwt>0</asrwt>
<pdfrwt beam="1">  1        2 0.45431728E+00 0.16655907E+04</pdfrwt>
<pdfrwt beam="2">  1       -2 0.36131886E-01 0.16655907E+04</pdfrwt>
<totfact> 0.12869586E+01</totfact>
</mgrwt>
</event>
<event>
12    1  0.4612066E-007  0.1860894E+04  0.7818608E-02  0.8674571E-01
         -2   -1    0    0    0  501 -0.00000000000E+00  0.00000000000E+00  0.18897676714E+04  0.18897676714E+04  0.00000000000E+00 0.  1.
          2   -1    0    0  501    0  0.00000000000E+00 -0.00000000000E+00 -0.45811532432E+03  0.45811532432E+03  0.00000000000E+00 0. -1.
         23    2    1    2    0    0  0.59831611782E+03 -0.30235495727E+03  0.25420192732E+03  0.72218186838E+03  0.86760210582E+02 0.  0.
        254    2    1    2    0    0 -0.59831611782E+03  0.30235495727E+03  0.11774504198E+04  0.16257011274E+04  0.89839521783E+03 0.  0.
        -24    2    4    4    0    0 -0.37324603837E+03  0.60846774893E+03  0.88319321563E+03  0.11383253286E+04  0.78795246781E+02 0.  0.
         24    2    4    4    0    0 -0.22507007945E+03 -0.30611279165E+03  0.29425720416E+03  0.48737579878E+03  0.81155931144E+02 0.  0.
         11    1    3    3    0    0  0.36117235302E+03 -0.13484524630E+03  0.13879500510E+03  0.40974719337E+03  0.00000000000E+00 0. -1.
        -11    1    3    3    0    0  0.23714376480E+03 -0.16750971097E+03  0.11540692222E+03  0.31243467501E+03  0.00000000000E+00 0.  1.
          4    1    6    6  502    0 -0.23121982014E+03 -0.29567697879E+03  0.27793336823E+03  0.46704864649E+03  0.00000000000E+00 0. -1.
          1    1    5    5  503    0 -0.34435223296E+03  0.51029536092E+03  0.74747050418E+03  0.96834496453E+03  0.00000000000E+00 0. -1.
         -2    1    5    5    0  503 -0.28893805403E+02  0.98172388012E+02  0.13572271145E+03  0.16998036405E+03  0.00000000000E+00 0.  1.
         -3    1    6    6    0  502  0.61497406917E+01 -0.10435812859E+02  0.16323835938E+02  0.20327152293E+02  0.00000000000E+00 0.  1.
<mgrwt>
<rscale>  0 0.18608939E+04</rscale>
<asrwt>0</asrwt>
<pdfrwt beam="1">  1        2 0.70479282E-01 0.18608939E+04</pdfrwt>
<pdfrwt beam="2">  1       -2 0.29073348E+00 0.18608939E+04</pdfrwt>
<totfact> 0.23208154E+00</totfact>
</mgrwt>
</event>
<event>
12    1  0.4612066E-007  0.1657462E+04  0.7818608E-02  0.8786004E-01
         -2   -1    0    0    0  501 -0.00000000000E+00  0.00000000000E+00  0.53222336745E+03  0.53222336745E+03  0.00000000000E+00 0.  1.
          2   -1    0    0  501    0  0.00000000000E+00 -0.00000000000E+00 -0.12904262848E+04  0.12904262848E+04  0.00000000000E+00 0. -1.
         23    2    1    2    0    0  0.13832761394E+03 -0.48585439324E+03  0.49918034095E+02  0.51683371889E+03  0.97140427461E+02 0.  0.
        254    2    1    2    0    0 -0.13832761394E+03  0.48585439324E+03 -0.80812095141E+03  0.13058159333E+04  0.89269634222E+03 0.  0.
        -24    2    4    4    0    0 -0.21390472596E+03 -0.14889929898E+03 -0.54744030224E+03  0.61150694654E+03  0.79521243231E+02 0.  0.
         24    2    4    4    0    0  0.75577112025E+02  0.63475369222E+03 -0.26068064917E+03  0.69430898679E+03  0.74070362726E+02 0.  0.
         11    1    3    3    0    0  0.59293082927E+02 -0.24643467756E+03 -0.22631574222E+02  0.25447575158E+03  0.00000000000E+00 0. -1.
        -11    1    3    3    0    0  0.79034531010E+02 -0.23941971568E+03  0.72549608317E+02  0.26235796732E+03  0.00000000000E+00 0.  1.
          2    1    6    6  502    0 -0.37670907202E+01  0.21077166477E+03 -0.64524134084E+02  0.22045917881E+03  0.00000000000E+00 0. -1.
          3    1    5    5  503    0 -0.56725981278E+02 -0.17160564468E+02 -0.19426454954E+03  0.20310351335E+03  0.00000000000E+00 0. -1.
         -4    1    5    5    0  503 -0.15717874469E+03 -0.13173873451E+03 -0.35317575270E+03  0.40840343319E+03  0.00000000000E+00 0.  1.
         -1    1    6    6    0  502  0.79344202746E+02  0.42398202745E+03 -0.19615651509E+03  0.47384980798E+03  0.00000000000E+00 0.  1.
<mgrwt>
<rscale>  0 0.16574619E+04</rscale>
<asrwt>0</asrwt>
<pdfrwt beam="1">  1        2 0.19852712E+00 0.16574619E+04</pdfrwt>
<pdfrwt beam="2">  1       -2 0.81880519E-01 0.16574619E+04</pdfrwt>
<totfact> 0.20972151E+01</totfact>
</mgrwt>
</event>
<event>
12    1  0.4612066E-007  0.1599320E+04  0.7818608E-02  0.8820966E-01
         -1   -1    0    0    0  501 -0.00000000000E+00  0.00000000000E+00  0.17940382644E+03  0.17940382644E+03  0.00000000000E+00 0.  1.
          1   -1    0    0  501    0  0.00000000000E+00 -0.00000000000E+00 -0.35643375781E+04  0.35643375781E+04  0.00000000000E+00 0. -1.
         23    2    1    2    0    0  0.42852583453E+03 -0.28663917421E+03 -0.79861786445E+03  0.95495572023E+03  0.91397631916E+02 0.  0.
        254    2    1    2    0    0 -0.42852583453E+03  0.28663917421E+03 -0.25863158872E+04  0.27887856843E+04  0.90691748111E+03 0.  0.
        -24    2    4    4    0    0 -0.41417828715E+03 -0.20155274779E+03 -0.17915266005E+04  0.18516721646E+04  0.83397128170E+02 0.  0.
         24    2    4    4    0    0 -0.14347547383E+02  0.48819192200E+03 -0.79478928668E+03  0.93711351974E+03  0.89188193302E+02 0.  0.
         13    1    3    3    0    0  0.79572871698E+02 -0.49532186889E+02 -0.88159262360E+02  0.12867530839E+03  0.00000000000E+00 0.  1.
        -13    1    3    3    0    0  0.34895296283E+03 -0.23710698732E+03 -0.71045860209E+03  0.82628041184E+03  0.00000000000E+00 0. -1.
          4    1    6    6  502    0 -0.91242814822E+01  0.48426024109E+03 -0.79459086836E+03  0.93057287823E+03  0.00000000000E+00 0. -1.
          1    1    5    5  503    0 -0.16995455101E+03 -0.43255179163E+02 -0.59897504453E+03  0.62412071261E+03  0.00000000000E+00 0. -1.
         -2    1    5    5    0  503 -0.24422373614E+03 -0.15829756862E+03 -0.11925515560E+04  0.12275514520E+04  0.00000000000E+00 0.  1.
         -3    1    6    6    0  502 -0.52232659007E+01  0.39316809164E+01 -0.19841831836E+00  0.65406415073E+01  0.00000000000E+00 0.  1.
<mgrwt>
<rscale>  0 0.15993196E+04</rscale>
<asrwt>0</asrwt>
<pdfrwt beam="1">  1        1 0.54835958E+00 0.15993196E+04</pdfrwt>
<pdfrwt beam="2">  1       -1 0.27600591E-01 0.15993196E+04</pdfrwt>
<totfact> 0.25431341E+00</totfact>
</mgrwt>
</event>
<event>
12    1  0.4612066E-007  0.1474258E+04  0.7818608E-02  0.8901754E-01
         -1   -1    0    0    0  501 -0.00000000000E+00  0.00000000000E+00  0.50323072452E+03  0.50323072452E+03  0.00000000000E+00 0.  1.
          1   -1    0    0  501    0  0.00000000000E+00 -0.00000000000E+00 -0.10797414737E+04  0.10797414737E+04  0.00000000000E+00 0. -1.
         23    2    1    2    0    0  0.13073882273E+03 -0.43428049499E+03 -0.23253802460E+03  0.51988919167E+03  0.10256047305E+03 0.  0.
        254    2    1    2    0    0 -0.13073882273E+03  0.43428049499E+03 -0.34397272459E+03  0.10630830066E+04  0.89785079801E+03 0.  0.
        -24    2    4    4    0    0 -0.12250578700E+03  0.43918766704E+03  0.20605185445E+03  0.50661543011E+03  0.79425138150E+02 0.  0.
         24    2    4    4    0    0 -0.82330357297E+01 -0.49071720564E+01 -0.55002457904E+03  0.55646757645E+03  0.83888395353E+02 0.  0.
         11    1    3    3    0    0  0.48938856357E+01 -0.16053678908E+03 -0.52818015543E+02  0.16907321944E+03  0.00000000000E+00 0.  1.
        -11    1    3    3    0    0  0.12584493709E+03 -0.27374370591E+03 -0.17972000906E+03  0.35081597223E+03  0.00000000000E+00 0. -1.
          2    1    6    6  502    0 -0.13680883254E+02  0.34253382756E+02 -0.14894940448E+03  0.15344831668E+03  0.00000000000E+00 0. -1.
          1    1    5    5  503    0 -0.71775671106E+02  0.12167919348E+03  0.61184164169E+02  0.15395153469E+03  0.00000000000E+00 0. -1.
         -2    1    5    5    0  503 -0.50730115891E+02  0.31750847357E+03  0.14486769028E+03  0.35266389542E+03  0.00000000000E+00 0.  1.
         -1    1    6    6    0  502  0.54478475245E+01 -0.39160554813E+02 -0.40107517457E+03  0.40301925977E+03  0.00000000000E+00 0.  1.
<mgrwt>
<rscale>  0 0.14742579E+04</rscale>
<asrwt>0</asrwt>
<pdfrwt beam="1">  1        1 0.16611407E+00 0.14742579E+04</pdfrwt>
<pdfrwt beam="2">  1       -1 0.77420112E-01 0.14742579E+04</pdfrwt>
<totfact> 0.21295212E+01</totfact>
</mgrwt>
</event>
<event>
12    1  0.4612066E-007  0.4308905E+04  0.7818608E-02  0.7944974E-01
          1   -1    0    0  501    0  0.00000000000E+00  0.00000000000E+00  0.21657829334E+04  0.21657829334E+04  0.00000000000E+00 0. -1.
         -1   -1    0    0    0  501 -0.00000000000E+00 -0.00000000000E+00 -0.21431809964E+04  0.21431809964E+04  0.00000000000E+00 0.  1.
         23    2    1    2    0    0  0.13544881625E+04 -0.14389448215E+04  0.58769171073E+03  0.20637391136E+04  0.91854234052E+02 0.  0.
        254    2    1    2    0    0 -0.13544881625E+04  0.14389448215E+04 -0.56508977372E+03  0.22452248162E+04  0.90360812368E+03 0.  0.
        -24    2    4    4    0    0 -0.46771187449E+02  0.35680093543E+03 -0.38957972386E+03  0.53685917076E+03  0.83372396434E+02 0.  0.
         24    2    4    4    0    0 -0.13077169750E+04  0.10821438861E+04 -0.17551004986E+03  0.17083656454E+04  0.80934071278E+02 0.  0.
         13    1    3    3    0    0  0.12899024574E+04 -0.13839332465E+04  0.57890610799E+03  0.19784468308E+04  0.00000000000E+00 0. -1.
        -13    1    3    3    0    0  0.64585705042E+02 -0.55011575045E+02  0.87856027361E+01  0.85292282770E+02  0.00000000000E+00 0.  1.
          2    1    6    6  502    0 -0.47863715688E+03  0.38852382321E+03 -0.10248852070E+03  0.62493854580E+03  0.00000000000E+00 0. -1.
          1    1    5    5  503    0  0.21049240564E+02  0.11858535925E+03 -0.10708746336E+03  0.16116228704E+03  0.00000000000E+00 0. -1.
         -2    1    5    5    0  503 -0.67820428012E+02  0.23821557618E+03 -0.28249226050E+03  0.37569688372E+03  0.00000000000E+00 0.  1.
         -1    1    6    6    0  502 -0.82907981814E+03  0.69362006290E+03 -0.73021529160E+02  0.10834270996E+04  0.00000000000E+00 0.  1.
<mgrwt>
<rscale>  0 0.43089047E+04</rscale>
<asrwt>0</asrwt>
<pdfrwt beam="1">  1        1 0.33319738E+00 0.43089047E+04</pdfrwt>
<pdfrwt beam="2">  1       -1 0.32972015E+00 0.43089047E+04</pdfrwt>
<totfact> 0.37086701E-02</totfact>
</mgrwt>
</event>
<event>
12    1  0.4612066E-007  0.1475864E+04  0.7818608E-02  0.8900663E-01
          1   -1    0    0  501    0  0.00000000000E+00  0.00000000000E+00  0.46758271847E+03  0.46758271847E+03  0.00000000000E+00 0. -1.
         -1   -1    0    0    0  501 -0.00000000000E+00 -0.00000000000E+00 -0.11645935447E+04  0.11645935447E+04  0.00000000000E+00 0.  1.
         23    2    1    2    0    0  0.20697658975E+03  0.29073026711E+03  0.85062323251E+02  0.37507251683E+03  0.77976901243E+02 0.  0.
        254    2    1    2    0    0 -0.20697658975E+03 -0.29073026711E+03 -0.78207314947E+03  0.12571037463E+04  0.91722844535E+03 0.  0.
        -24    2    4    4    0    0  0.31188524350E+03  0.89927803022E+02 -0.23258961008E+03  0.40682891943E+03  0.77797352757E+02 0.  0.
         24    2    4    4    0    0 -0.51886183325E+03 -0.38065807013E+03 -0.54948353939E+03  0.85027482689E+03  0.83168219970E+02 0.  0.
         11    1    3    3    0    0  0.72033268379E+02  0.75438173504E+02 -0.76810658283E+01  0.10458828112E+03  0.00000000000E+00 0.  1.
        -11    1    3    3    0    0  0.13494332137E+03  0.21529209361E+03  0.92743389079E+02  0.27048423572E+03  0.00000000000E+00 0. -1.
          2    1    6    6  502    0 -0.48254786978E+03 -0.32874824967E+03 -0.51257685131E+03  0.77695745495E+03  0.00000000000E+00 0. -1.
          3    1    5    5  503    0  0.25113297690E+03  0.10146121443E+03 -0.17606095694E+03  0.32304738148E+03  0.00000000000E+00 0. -1.
         -4    1    5    5    0  503  0.60752266597E+02 -0.11533411406E+02 -0.56528653141E+02  0.83781537950E+02  0.00000000000E+00 0.  1.
         -1    1    6    6    0  502 -0.36313963470E+02 -0.51909820466E+02 -0.36906688074E+02  0.73317371940E+02  0.00000000000E+00 0.  1.
<mgrwt>
<rscale>  0 0.14758642E+04</rscale>
<asrwt>0</asrwt>
<pdfrwt beam="1">  1        1 0.71935803E-01 0.14758642E+04</pdfrwt>
<pdfrwt beam="2">  1       -1 0.17916824E+00 0.14758642E+04</pdfrwt>
<totfact> 0.99377350E+00</totfact>
</mgrwt>
</event>
<event>
12    1  0.4612066E-007  0.1672434E+04  0.7818608E-02  0.8777244E-01
          2   -1    0    0  501    0  0.00000000000E+00  0.00000000000E+00  0.11316295170E+04  0.11316295170E+04  0.00000000000E+00 0. -1.
         -2   -1    0    0    0  501 -0.00000000000E+00 -0.00000000000E+00 -0.61792219397E+03  0.61792219397E+03  0.00000000000E+00 0.  1.
         23    2    1    2    0    0 -0.98629470032E+02 -0.57258004794E+03  0.65703212943E+02  0.59141653481E+03  0.88774556034E+02 0.  0.
        254    2    1    2    0    0  0.98629470032E+02  0.57258004794E+03  0.44800411007E+03  0.11581351761E+04  0.89609916856E+03 0.  0.
        -24    2    4    4    0    0  0.17402275512E+03 -0.56470168763E+01  0.53037961438E+03  0.56384594286E+03  0.79397127331E+02 0.  0.
         24    2    4    4    0    0 -0.75393285088E+02  0.57822706482E+03 -0.82375504312E+02  0.59428923327E+03  0.79770189603E+02 0.  0.
         13    1    3    3    0    0 -0.21313289357E+02 -0.20814597585E+02 -0.34296598075E+01  0.29987769878E+02  0.00000000000E+00 0. -1.
        -13    1    3    3    0    0 -0.77316180675E+02 -0.55176545036E+03  0.69132872750E+02  0.56142876494E+03  0.00000000000E+00 0.  1.
          2    1    6    6  502    0 -0.89206817569E+02  0.50564743508E+03 -0.59202426609E+02  0.51685792266E+03  0.00000000000E+00 0. -1.
          3    1    5    5  503    0  0.16675355595E+03 -0.21179158876E+02  0.42420066158E+03  0.45629103265E+03  0.00000000000E+00 0. -1.
         -4    1    5    5    0  503  0.72691991658E+01  0.15532141999E+02  0.10617895280E+03  0.10755491021E+03  0.00000000000E+00 0.  1.
         -1    1    6    6    0  502  0.13813532481E+02  0.72579629744E+02 -0.23173077704E+02  0.77431310616E+02  0.00000000000E+00 0.  1.
<mgrwt>
<rscale>  0 0.16724341E+04</rscale>
<asrwt>0</asrwt>
<pdfrwt beam="1">  1        2 0.17409685E+00 0.16724341E+04</pdfrwt>
<pdfrwt beam="2">  1       -2 0.95064953E-01 0.16724341E+04</pdfrwt>
<totfact> 0.18488924E+01</totfact>
</mgrwt>
</event>
<event>
12    1  0.4612066E-007  0.1739194E+04  0.7818608E-02  0.8739321E-01
          1   -1    0    0  501    0  0.00000000000E+00  0.00000000000E+00  0.79588356254E+03  0.79588356254E+03  0.00000000000E+00 0. -1.
         -1   -1    0    0    0  501 -0.00000000000E+00 -0.00000000000E+00 -0.95013724185E+03  0.95013724185E+03  0.00000000000E+00 0.  1.
         23    2    1    2    0    0 -0.53619249933E+03  0.18336422919E+03  0.22631486006E+03  0.61667069423E+03  0.89103829094E+02 0.  0.
        254    2    1    2    0    0  0.53619249933E+03 -0.18336422919E+03 -0.38056853937E+03  0.11293501102E+04  0.89970796443E+03 0.  0.
        -24    2    4    4    0    0  0.53779461556E+03 -0.11659589924E+03  0.16023306141E+03  0.57867525081E+03  0.79829566458E+02 0.  0.
         24    2    4    4    0    0 -0.16021162342E+01 -0.66768329950E+02 -0.54080160078E+03  0.55067485935E+03  0.79472338910E+02 0.  0.
         13    1    3    3    0    0 -0.35811624999E+03  0.13759585323E+03  0.19431010345E+03  0.43004218820E+03  0.00000000000E+00 0. -1.
        -13    1    3    3    0    0 -0.17807624934E+03  0.45768375963E+02  0.32004756608E+02  0.18662850603E+03  0.00000000000E+00 0.  1.
          2    1    6    6  502    0 -0.24499103349E+02 -0.33203225573E+02 -0.10249895974E+03  0.11049297264E+03  0.00000000000E+00 0. -1.
          3    1    5    5  503    0  0.49122960509E+02 -0.14292200483E+02  0.40508276735E+02  0.65255288888E+02  0.00000000000E+00 0. -1.
         -4    1    5    5    0  503  0.48867165505E+03 -0.10230369876E+03  0.11972478467E+03  0.51341996192E+03  0.00000000000E+00 0.  1.
         -1    1    6    6    0  502  0.22896987115E+02 -0.33565104377E+02 -0.43830264103E+03  0.44018188671E+03  0.00000000000E+00 0.  1.
<mgrwt>
<rscale>  0 0.17391936E+04</rscale>
<asrwt>0</asrwt>
<pdfrwt beam="1">  1        1 0.12244363E+00 0.17391936E+04</pdfrwt>
<pdfrwt beam="2">  1       -1 0.14617496E+00 0.17391936E+04</pdfrwt>
<totfact> 0.79080620E+00</totfact>
</mgrwt>
</event>
<event>
12    1  0.4612066E-007  0.1196628E+04  0.7818608E-02  0.9115813E-01
         -2   -1    0    0    0  501 -0.00000000000E+00  0.00000000000E+00  0.13849754720E+03  0.13849754720E+03  0.00000000000E+00 0.  1.
          2   -1    0    0  501    0  0.00000000000E+00 -0.00000000000E+00 -0.25847368256E+04  0.25847368256E+04  0.00000000000E+00 0. -1.
         23    2    1    2    0    0  0.21426595334E+03 -0.11409410897E+03 -0.45394904617E+03  0.52266728525E+03  0.90465408249E+02 0.  0.
        254    2    1    2    0    0 -0.21426595334E+03  0.11409410897E+03 -0.19922902322E+04  0.22005670876E+04  0.90241219680E+03 0.  0.
        -24    2    4    4    0    0  0.30038141704E+03 -0.18474766709E+02 -0.12233372363E+04  0.12624340212E+04  0.81334811346E+02 0.  0.
         24    2    4    4    0    0 -0.51464737038E+03  0.13256887567E+03 -0.76895299595E+03  0.93813306634E+03  0.79802992137E+02 0.  0.
         11    1    3    3    0    0  0.80128261014E+02 -0.10334888940E+02 -0.21481174111E+03  0.22950257572E+03  0.00000000000E+00 0. -1.
        -11    1    3    3    0    0  0.13413769232E+03 -0.10375922003E+03 -0.23913730506E+03  0.29316470953E+03  0.00000000000E+00 0.  1.
          2    1    6    6  502    0 -0.57763210766E+01 -0.30734049732E+01 -0.53178328986E+00  0.65646398817E+01  0.00000000000E+00 0. -1.
          3    1    5    5  503    0  0.66456689753E+02 -0.66875559488E+01 -0.15596193348E+03  0.16966242870E+03  0.00000000000E+00 0. -1.
         -4    1    5    5    0  503  0.23392472729E+03 -0.11787210760E+02 -0.10673753028E+04  0.10927715925E+04  0.00000000000E+00 0.  1.
         -1    1    6    6    0  502 -0.50887104930E+03  0.13564228065E+03 -0.76842121266E+03  0.93156842646E+03  0.00000000000E+00 0.  1.
<mgrwt>
<rscale>  0 0.11966281E+04</rscale>
<asrwt>0</asrwt>
<pdfrwt beam="1">  1        2 0.39765180E+00 0.11966281E+04</pdfrwt>
<pdfrwt beam="2">  1       -2 0.21307316E-01 0.11966281E+04</pdfrwt>
<totfact> 0.59052556E+01</totfact>
</mgrwt>
</event>
<event>
12    1  0.4612066E-007  0.1609125E+04  0.7818608E-02  0.8814961E-01
         -2   -1    0    0    0  501 -0.00000000000E+00  0.00000000000E+00  0.10901164150E+04  0.10901164150E+04  0.00000000000E+00 0.  1.
          2   -1    0    0  501    0  0.00000000000E+00 -0.00000000000E+00 -0.59380915904E+03  0.59380915904E+03  0.00000000000E+00 0. -1.
         23    2    1    2    0    0  0.40629610335E+03  0.75504271294E+02 -0.20200847496E+03  0.47028655018E+03  0.97900953742E+02 0.  0.
        254    2    1    2    0    0 -0.40629610335E+03 -0.75504271294E+02  0.69831573088E+03  0.12136390238E+04  0.90249509780E+03 0.  0.
        -24    2    4    4    0    0 -0.62599255013E+03 -0.21437862158E+03  0.29983617425E+03  0.73142531560E+03  0.85184474535E+02 0.  0.
         24    2    4    4    0    0  0.21969644677E+03  0.13887435029E+03  0.39847955663E+03  0.48221370822E+03  0.78686018121E+02 0.  0.
         11    1    3    3    0    0  0.35022209696E+03  0.89316307953E+02 -0.19868185130E+03  0.41244078133E+03  0.00000000000E+00 0. -1.
        -11    1    3    3    0    0  0.56074006387E+02 -0.13812036659E+02 -0.33266236597E+01  0.57845768851E+02  0.00000000000E+00 0.  1.
          4    1    6    6  502    0  0.54597385405E+02 -0.17109025888E+01  0.85211693112E+02  0.10121676898E+03  0.00000000000E+00 0. -1.
          3    1    5    5  503    0 -0.37871696551E+03 -0.12388457953E+03  0.13471569802E+03  0.42062126469E+03  0.00000000000E+00 0. -1.
         -4    1    5    5    0  503 -0.24727558461E+03 -0.90494042056E+02  0.16512047622E+03  0.31080405091E+03  0.00000000000E+00 0.  1.
         -3    1    6    6    0  502  0.16509906137E+03  0.14058525288E+03  0.31326786352E+03  0.38099693923E+03  0.00000000000E+00 0.  1.
<mgrwt>
<rscale>  0 0.16091254E+04</rscale>
<asrwt>0</asrwt>
<pdfrwt beam="1">  1        2 0.91355255E-01 0.16091254E+04</pdfrwt>
<pdfrwt beam="2">  1       -2 0.16771022E+00 0.16091254E+04</pdfrwt>
<totfact> 0.10642004E+01</totfact>
</mgrwt>
</event>
<event>
12    1  0.4612066E-007  0.1325085E+04  0.7818608E-02  0.9009905E-01
         -2   -1    0    0    0  501 -0.00000000000E+00  0.00000000000E+00  0.11942655573E+04  0.11942655573E+04  0.00000000000E+00 0.  1.
          2   -1    0    0  501    0  0.00000000000E+00 -0.00000000000E+00 -0.36755876344E+03  0.36755876344E+03  0.00000000000E+00 0. -1.
         23    2    1    2    0    0  0.81907714721E+02  0.33627487646E+03  0.22087251374E+03  0.42152941297E+03  0.95460527998E+02 0.  0.
        254    2    1    2    0    0 -0.81907714721E+02 -0.33627487646E+03  0.60583428013E+03  0.11402949078E+04  0.90191331928E+03 0.  0.
        -24    2    4    4    0    0 -0.18157684204E+03 -0.30933775514E+03  0.81502589414E+03  0.89397401267E+03  0.79134890475E+02 0.  0.
         24    2    4    4    0    0  0.99669127314E+02 -0.26937121317E+02 -0.20919161401E+03  0.24632089512E+03  0.79077863895E+02 0.  0.
         11    1    3    3    0    0  0.61811555597E+02  0.14133603689E+03  0.51865620366E+02  0.16274700091E+03  0.00000000000E+00 0. -1.
        -11    1    3    3    0    0  0.20096159124E+02  0.19493883956E+03  0.16900689338E+03  0.25878241206E+03  0.00000000000E+00 0.  1.
          4    1    6    6  502    0  0.10928191941E+03 -0.92168708452E+01 -0.18165785481E+03  0.21219581719E+03  0.00000000000E+00 0. -1.
          3    1    5    5  503    0 -0.80303874813E+02 -0.16205561467E+03  0.50095055936E+03  0.53259947191E+03  0.00000000000E+00 0. -1.
         -4    1    5    5    0  503 -0.10127296722E+03 -0.14728214047E+03  0.31407533478E+03  0.36137454076E+03  0.00000000000E+00 0.  1.
         -3    1    6    6    0  502 -0.96127920917E+01 -0.17720250471E+02 -0.27533759200E+02  0.34125077938E+02  0.00000000000E+00 0.  1.
<mgrwt>
<rscale>  0 0.13250853E+04</rscale>
<asrwt>0</asrwt>
<pdfrwt beam="1">  1        2 0.56547503E-01 0.13250853E+04</pdfrwt>
<pdfrwt beam="2">  1       -2 0.18373316E+00 0.13250853E+04</pdfrwt>
<totfact> 0.14611551E+01</totfact>
</mgrwt>
</event>
<event>
12    1  0.4612066E-007  0.2787700E+04  0.7818608E-02  0.8307097E-01
          2   -1    0    0  501    0  0.00000000000E+00  0.00000000000E+00  0.26282968441E+04  0.26282968441E+04  0.00000000000E+00 0.  1.
         -2   -1    0    0    0  501 -0.00000000000E+00 -0.00000000000E+00 -0.73919271296E+03  0.73919271296E+03  0.00000000000E+00 0. -1.
         23    2    1    2    0    0  0.65824096066E+02 -0.99422947520E+03  0.17507370759E+04  0.20167917771E+04  0.97691872919E+02 0.  0.
        254    2    1    2    0    0 -0.65824096066E+02  0.99422947520E+03  0.13836705523E+03  0.13506977800E+04  0.90134010783E+03 0.  0.
        -24    2    4    4    0    0 -0.31200427220E+03  0.73832490851E+03  0.40380475354E+03  0.90102595627E+03  0.79493134868E+02 0.  0.
         24    2    4    4    0    0  0.24618017614E+03  0.25590456669E+03 -0.26543769831E+03  0.44967182375E+03  0.75204727318E+02 0.  0.
         13    1    3    3    0    0  0.91306275908E+02 -0.81898689741E+03  0.14343861313E+04  0.16542490586E+04  0.00000000000E+00 0.  1.
        -13    1    3    3    0    0 -0.25482179842E+02 -0.17524257779E+03  0.31635094464E+03  0.36254271850E+03  0.00000000000E+00 0. -1.
          2    1    6    6  502    0  0.19063379365E+02  0.54028131322E+01 -0.24078322902E-01  0.19814222224E+02  0.00000000000E+00 0. -1.
          1    1    5    5  503    0 -0.94512659107E+02  0.14100476113E+03  0.81404815262E+02  0.18825973903E+03  0.00000000000E+00 0. -1.
         -2    1    5    5    0  503 -0.21749161309E+03  0.59732014738E+03  0.32239993828E+03  0.71276621723E+03  0.00000000000E+00 0.  1.
         -1    1    6    6    0  502  0.22711679677E+03  0.25050175356E+03 -0.26541361999E+03  0.42985760153E+03  0.00000000000E+00 0.  1.
<mgrwt>
<rscale>  0 0.27877000E+04</rscale>
<asrwt>0</asrwt>
<pdfrwt beam="1">  1        2 0.40435336E+00 0.27877000E+04</pdfrwt>
<pdfrwt beam="2">  1       -2 0.11372196E+00 0.27877000E+04</pdfrwt>
<totfact> 0.15453189E+00</totfact>
</mgrwt>
</event>
<event>
12    1  0.5946720E-007  0.3093888E+04  0.7818608E-02  0.8217417E-01
          1   -1    0    0  501    0  0.00000000000E+00  0.00000000000E+00  0.12082043951E+04  0.12082043951E+04  0.00000000000E+00 0. -1.
         -1   -1    0    0    0  501 -0.00000000000E+00 -0.00000000000E+00 -0.19806552689E+04  0.19806552689E+04  0.00000000000E+00 0.  1.
         23    2    1    2    0    0  0.11910389832E+04 -0.86870117778E+02  0.40782258497E+03  0.12647819653E+04  0.85052231158E+02 0.  0.
        254    2    1    2    0    0 -0.11910389832E+04  0.86870117778E+02 -0.11802734588E+04  0.19240776987E+04  0.93963252192E+03 0.  0.
        -24    2    4    4    0    0 -0.13240522591E+04  0.68774775336E+02 -0.90703531349E+03  0.16084799750E+04  0.81550078865E+02 0.  0.
         24    2    4    4    0    0  0.13301327593E+03  0.18095342442E+02 -0.27323814533E+03  0.31559772374E+03  0.83203762985E+02 0.  0.
         13    1    3    3    0    0  0.10177545733E+04 -0.57209453512E+02  0.37366393720E+03  0.10856896569E+04  0.00000000000E+00 0. -1.
        -13    1    3    3    0    0  0.17328440987E+03 -0.29660664266E+02  0.34158647765E+02  0.17909230839E+03  0.00000000000E+00 0.  1.
          4    1    6    6  502    0  0.12424468735E+03  0.39590656652E+01 -0.16765303290E+03  0.20871022010E+03  0.00000000000E+00 0. -1.
          1    1    5    5  503    0 -0.12577383657E+04  0.80396149574E+02 -0.87219008362E+03  0.15326724632E+04  0.00000000000E+00 0. -1.
         -2    1    5    5    0  503 -0.66313893418E+02 -0.11621374238E+02 -0.34845229877E+02  0.75807511795E+02  0.00000000000E+00 0.  1.
         -3    1    6    6    0  502  0.87685885847E+01  0.14136276777E+02 -0.10558511243E+03  0.10688750364E+03  0.00000000000E+00 0.  1.
<mgrwt>
<rscale>  0 0.30938884E+04</rscale>
<asrwt>0</asrwt>
<pdfrwt beam="1">  1        1 0.18587760E+00 0.30938884E+04</pdfrwt>
<pdfrwt beam="2">  1       -1 0.30471619E+00 0.30938884E+04</pdfrwt>
<totfact> 0.27380554E-01</totfact>
</mgrwt>
</event>
<event>
12    1  0.4612066E-007  0.1339986E+04  0.7818608E-02  0.8998443E-01
         -2   -1    0    0    0  501 -0.00000000000E+00  0.00000000000E+00  0.14052489224E+03  0.14052489224E+03  0.00000000000E+00 0.  1.
          2   -1    0    0  501    0  0.00000000000E+00 -0.00000000000E+00 -0.31943873954E+04  0.31943873954E+04  0.00000000000E+00 0. -1.
         23    2    1    2    0    0 -0.33981299401E+03 -0.13407741937E+02 -0.11072830661E+04  0.11620790682E+04  0.93270219839E+02 0.  0.
        254    2    1    2    0    0  0.33981299401E+03  0.13407741937E+02 -0.19465794370E+04  0.21728332194E+04  0.90353752337E+03 0.  0.
        -24    2    4    4    0    0  0.17194143316E+03  0.10890977137E+03 -0.19511009178E+04  0.19632899079E+04  0.79292345134E+02 0.  0.
         24    2    4    4    0    0  0.16787156085E+03 -0.95502029429E+02  0.45214808279E+01  0.20954331150E+03  0.81156990069E+02 0.  0.
         11    1    3    3    0    0 -0.19559815302E+02 -0.23784790004E+02 -0.71039747225E+02  0.77427051448E+02  0.00000000000E+00 0. -1.
        -11    1    3    3    0    0 -0.32025317871E+03  0.10377048067E+02 -0.10362433189E+04  0.10846520168E+04  0.00000000000E+00 0.  1.
          2    1    6    6  502    0  0.70038085860E+02  0.69200650384E+00  0.16049507002E+02  0.71856795218E+02  0.00000000000E+00 0. -1.
          1    1    5    5  503    0  0.10814849555E+03  0.24956872486E+02 -0.86758974319E+03  0.87466045130E+03  0.00000000000E+00 0. -1.
         -2    1    5    5    0  503  0.63792937612E+02  0.83952898880E+02 -0.10835111747E+04  0.10886294566E+04  0.00000000000E+00 0.  1.
         -1    1    6    6    0  502  0.97833474990E+02 -0.96194035933E+02 -0.11528026175E+02  0.13768651628E+03  0.00000000000E+00 0.  1.
<mgrwt>
<rscale>  0 0.13399865E+04</rscale>
<asrwt>0</asrwt>
<pdfrwt beam="1">  1        2 0.49144418E+00 0.13399865E+04</pdfrwt>
<pdfrwt beam="2">  1       -2 0.21619216E-01 0.13399865E+04</pdfrwt>
<totfact> 0.24133922E+01</totfact>
</mgrwt>
</event>
<event>
12    1  0.4612066E-007  0.2147339E+04  0.7818608E-02  0.8540672E-01
          1   -1    0    0  501    0  0.00000000000E+00  0.00000000000E+00  0.18642472887E+04  0.18642472887E+04  0.00000000000E+00 0. -1.
         -1   -1    0    0    0  501 -0.00000000000E+00 -0.00000000000E+00 -0.61835486257E+03  0.61835486257E+03  0.00000000000E+00 0.  1.
         23    2    1    2    0    0 -0.53011136446E+03 -0.16104788681E+03  0.12992662895E+04  0.14154592591E+04  0.92073570881E+02 0.  0.
        254    2    1    2    0    0  0.53011136446E+03  0.16104788681E+03 -0.53373863378E+02  0.10671428922E+04  0.91048926545E+03 0.  0.
        -24    2    4    4    0    0  0.74002921504E+03  0.19354365437E+03  0.12329327427E+03  0.77858435368E+03  0.76746199004E+02 0.  0.
         24    2    4    4    0    0 -0.20991785058E+03 -0.32495767553E+02 -0.17666713765E+03  0.28855853852E+03  0.83266282040E+02 0.  0.
         13    1    3    3    0    0 -0.41652202844E+03 -0.15606615577E+03  0.10907895490E+04  0.11779936695E+04  0.00000000000E+00 0. -1.
        -13    1    3    3    0    0 -0.11358933602E+03 -0.49817310463E+01  0.20847674054E+03  0.23746558961E+03  0.00000000000E+00 0.  1.
          4    1    6    6  502    0 -0.20530345204E+03 -0.35810357241E+02 -0.18486776842E+03  0.27858209007E+03  0.00000000000E+00 0. -1.
          3    1    5    5  503    0  0.56815442866E+03  0.13946489961E+03  0.62160709168E+02  0.58831442851E+03  0.00000000000E+00 0. -1.
         -4    1    5    5    0  503  0.17187478638E+03  0.54078754755E+02  0.61132565103E+02  0.19026992517E+03  0.00000000000E+00 0.  1.
         -3    1    6    6    0  502 -0.46143985368E+01  0.33145896874E+01  0.82006307689E+01  0.99764484493E+01  0.00000000000E+00 0.  1.
<mgrwt>
<rscale>  0 0.21473392E+04</rscale>
<asrwt>0</asrwt>
<pdfrwt beam="1">  1        1 0.28680727E+00 0.21473392E+04</pdfrwt>
<pdfrwt beam="2">  1       -1 0.95131518E-01 0.21473392E+04</pdfrwt>
<totfact> 0.36016035E+00</totfact>
</mgrwt>
</event>
<event>
12    1  0.4612066E-007  0.1864508E+04  0.7818608E-02  0.8672728E-01
         -2   -1    0    0    0  501 -0.00000000000E+00  0.00000000000E+00  0.57388995875E+03  0.57388995875E+03  0.00000000000E+00 0.  1.
          2   -1    0    0  501    0  0.00000000000E+00 -0.00000000000E+00 -0.15143968770E+04  0.15143968770E+04  0.00000000000E+00 0. -1.
         23    2    1    2    0    0  0.28265370866E+03  0.19279618624E+03 -0.10437963983E+04  0.11023074203E+04  0.92234696780E+02 0.  0.
        254    2    1    2    0    0 -0.28265370866E+03 -0.19279618624E+03  0.10328948004E+03  0.98597941548E+03  0.91892502556E+03 0.  0.
        -24    2    4    4    0    0 -0.16934117818E+03 -0.48741784155E+03 -0.18227841845E+03  0.55307274911E+03  0.80071574763E+02 0.  0.
         24    2    4    4    0    0 -0.11331253049E+03  0.29462165531E+03  0.28556789848E+03  0.43290666637E+03  0.78851175000E+02 0.  0.
         13    1    3    3    0    0  0.21269662798E+03  0.94276746456E+02 -0.64946094557E+03  0.68987497440E+03  0.00000000000E+00 0. -1.
        -13    1    3    3    0    0  0.69957080682E+02  0.98519439781E+02 -0.39433545276E+03  0.41243244593E+03  0.00000000000E+00 0.  1.
          4    1    6    6  502    0  0.35934347408E+01  0.86963815300E+02  0.74386457161E+02  0.11449437957E+03  0.00000000000E+00 0. -1.
          1    1    5    5  503    0 -0.12541661414E+03 -0.25166987500E+03 -0.79834018398E+02  0.29230211012E+03  0.00000000000E+00 0. -1.
         -2    1    5    5    0  503 -0.43924564039E+02 -0.23574796655E+03 -0.10244440005E+03  0.26077063899E+03  0.00000000000E+00 0.  1.
         -3    1    6    6    0  502 -0.11690596523E+03  0.20765784001E+03  0.21118144132E+03  0.31841228680E+03  0.00000000000E+00 0.  1.
<mgrwt>
<rscale>  0 0.18645076E+04</rscale>
<asrwt>0</asrwt>
<pdfrwt beam="1">  1        2 0.23298414E+00 0.18645076E+04</pdfrwt>
<pdfrwt beam="2">  1       -2 0.88290762E-01 0.18645076E+04</pdfrwt>
<totfact> 0.12925015E+01</totfact>
</mgrwt>
</event>
<event>
12    1  0.4612066E-007  0.2191527E+04  0.7818608E-02  0.8521963E-01
          1   -1    0    0  501    0  0.00000000000E+00  0.00000000000E+00  0.12112817084E+04  0.12112817084E+04  0.00000000000E+00 0. -1.
         -1   -1    0    0    0  501 -0.00000000000E+00 -0.00000000000E+00 -0.99126184460E+03  0.99126184460E+03  0.00000000000E+00 0.  1.
         23    2    1    2    0    0  0.68875743124E+03 -0.47046188998E+03 -0.26932663583E+03  0.88119951449E+03  0.90854601206E+02 0.  0.
        254    2    1    2    0    0 -0.68875743124E+03  0.47046188998E+03  0.48934649965E+03  0.13213440385E+04  0.90042705556E+03 0.  0.
        -24    2    4    4    0    0  0.40037595468E+02  0.48461996973E+03  0.16531806172E+03  0.52002098138E+03  0.81438537737E+02 0.  0.
         24    2    4    4    0    0 -0.72879502671E+03 -0.14158079752E+02  0.32402843793E+03  0.80132305714E+03  0.76036643356E+02 0.  0.
         11    1    3    3    0    0  0.55274689780E+03 -0.33669093856E+03 -0.22627373450E+03  0.68563089491E+03  0.00000000000E+00 0.  1.
        -11    1    3    3    0    0  0.13601053344E+03 -0.13377095142E+03 -0.43052901340E+02  0.19556861958E+03  0.00000000000E+00 0. -1.
          2    1    6    6  502    0 -0.35156233184E+03 -0.30885528146E+02  0.12441205048E+03  0.37420361746E+03  0.00000000000E+00 0. -1.
          3    1    5    5  503    0  0.40290223404E+02  0.48766862042E+03  0.16628605777E+03  0.51681238226E+03  0.00000000000E+00 0. -1.
         -4    1    5    5    0  503 -0.25262793523E+00 -0.30486506917E+01 -0.96799605966E+00  0.32085991157E+01  0.00000000000E+00 0.  1.
         -1    1    6    6    0  502 -0.37723269487E+03  0.16727448394E+02  0.19961638746E+03  0.42711943968E+03  0.00000000000E+00 0.  1.
<mgrwt>
<rscale>  0 0.21915267E+04</rscale>
<asrwt>0</asrwt>
<pdfrwt beam="1">  1        1 0.18635103E+00 0.21915267E+04</pdfrwt>
<pdfrwt beam="2">  1       -1 0.15250182E+00 0.21915267E+04</pdfrwt>
<totfact> 0.31915623E+00</totfact>
</mgrwt>
</event>
<event>
12    1  0.4612066E-007  0.2298850E+04  0.7818608E-02  0.8478375E-01
         -1   -1    0    0    0  501 -0.00000000000E+00  0.00000000000E+00  0.52359523340E+03  0.52359523340E+03  0.00000000000E+00 0.  1.
          1   -1    0    0  501    0  0.00000000000E+00 -0.00000000000E+00 -0.25232815076E+04  0.25232815076E+04  0.00000000000E+00 0. -1.
         23    2    1    2    0    0 -0.72982617357E+03  0.63765053913E+03 -0.96511408774E+03  0.13709193129E+04  0.93435039192E+02 0.  0.
        254    2    1    2    0    0  0.72982617357E+03 -0.63765053913E+03 -0.10345721865E+04  0.16759574281E+04  0.89400740380E+03 0.  0.
        -24    2    4    4    0    0  0.30971432798E+03 -0.44512666741E+03 -0.94396633758E+01  0.54858089848E+03  0.82408615639E+02 0.  0.
         24    2    4    4    0    0  0.42011184558E+03 -0.19252387171E+03 -0.10251325231E+04  0.11273765296E+04  0.80757325463E+02 0.  0.
         11    1    3    3    0    0 -0.52128810901E+03  0.44348468975E+03 -0.62104477255E+03  0.92418427392E+03  0.00000000000E+00 0.  1.
        -11    1    3    3    0    0 -0.20853806456E+03  0.19416584937E+03 -0.34406931518E+03  0.44673503902E+03  0.00000000000E+00 0. -1.
          2    1    6    6  502    0  0.29251615987E+03 -0.11068611249E+03 -0.76228631337E+03  0.82395239112E+03  0.00000000000E+00 0. -1.
          3    1    5    5  503    0  0.30487304383E+03 -0.44507444337E+03 -0.16833753331E+02  0.53974272413E+03  0.00000000000E+00 0. -1.
         -4    1    5    5    0  503  0.48412841522E+01 -0.52224040749E-01  0.73940899557E+01  0.88381743514E+01  0.00000000000E+00 0.  1.
         -1    1    6    6    0  502  0.12759568571E+03 -0.81837759222E+02 -0.26284620972E+03  0.30342413848E+03  0.00000000000E+00 0.  1.
<mgrwt>
<rscale>  0 0.22988503E+04</rscale>
<asrwt>0</asrwt>
<pdfrwt beam="1">  1        1 0.38819715E+00 0.22988503E+04</pdfrwt>
<pdfrwt beam="2">  1       -1 0.80553114E-01 0.22988503E+04</pdfrwt>
<totfact> 0.18134240E+00</totfact>
</mgrwt>
</event>
<event>
12    1  0.4612066E-007  0.2631207E+04  0.7818608E-02  0.8357678E-01
         -2   -1    0    0    0  501 -0.00000000000E+00  0.00000000000E+00  0.61316796607E+03  0.61316796607E+03  0.00000000000E+00 0.  1.
          2   -1    0    0  501    0  0.00000000000E+00 -0.00000000000E+00 -0.28227380779E+04  0.28227380779E+04  0.00000000000E+00 0. -1.
         23    2    1    2    0    0  0.72607116658E+03 -0.58938657156E+03 -0.97485457946E+02  0.94465931701E+03  0.91224673406E+02 0.  0.
        254    2    1    2    0    0 -0.72607116658E+03  0.58938657156E+03 -0.21120846539E+04  0.24912467270E+04  0.93319494200E+03 0.  0.
        -24    2    4    4    0    0 -0.69291067231E+03  0.74860691081E+03 -0.20645313487E+04  0.23041741958E+04  0.79947032605E+02 0.  0.
         24    2    4    4    0    0 -0.33160494271E+02 -0.15922033925E+03 -0.47553305188E+02  0.18707253119E+03  0.79272191087E+02 0.  0.
         13    1    3    3    0    0  0.66099947717E+03 -0.52507704112E+03 -0.61707077203E+02  0.84642422656E+03  0.00000000000E+00 0.  1.
        -13    1    3    3    0    0  0.65071689410E+02 -0.64309530444E+02 -0.35778380743E+02  0.98235090457E+02  0.00000000000E+00 0. -1.
          4    1    6    6  502    0 -0.22769564165E+02 -0.26423791871E+01  0.59357965805E+00  0.22930057934E+02  0.00000000000E+00 0. -1.
          3    1    5    5  503    0 -0.15576019475E+03  0.22008259496E+03 -0.54432092394E+03  0.60743958968E+03  0.00000000000E+00 0. -1.
         -4    1    5    5    0  503 -0.53715047755E+03  0.52852431585E+03 -0.15202104248E+04  0.16967346061E+04  0.00000000000E+00 0.  1.
         -3    1    6    6    0  502 -0.10390930107E+02 -0.15657796006E+03 -0.48146884846E+02  0.16414247325E+03  0.00000000000E+00 0.  1.
<mgrwt>
<rscale>  0 0.26312070E+04</rscale>
<asrwt>0</asrwt>
<pdfrwt beam="1">  1        2 0.43426739E+00 0.26312070E+04</pdfrwt>
<pdfrwt beam="2">  1       -2 0.94333534E-01 0.26312070E+04</pdfrwt>
<totfact> 0.18721541E+00</totfact>
</mgrwt>
</event>
<event>
12    1  0.4612066E-007  0.1330596E+04  0.7818608E-02  0.9005648E-01
          1   -1    0    0  501    0  0.00000000000E+00  0.00000000000E+00  0.13683740523E+04  0.13683740523E+04  0.00000000000E+00 0. -1.
         -1   -1    0    0    0  501 -0.00000000000E+00 -0.00000000000E+00 -0.32346516221E+03  0.32346516221E+03  0.00000000000E+00 0.  1.
         23    2    1    2    0    0 -0.74921951375E+02  0.21205365859E+03 -0.42774403171E+02  0.24731487755E+03  0.93567869333E+02 0.  0.
        254    2    1    2    0    0  0.74921951375E+02 -0.21205365859E+03  0.10876832933E+04  0.14445243370E+04  0.92358841522E+03 0.  0.
        -24    2    4    4    0    0  0.41523456474E+03 -0.37413640563E+03  0.63873847119E+03  0.85254117932E+03  0.80261037119E+02 0.  0.
         24    2    4    4    0    0 -0.34031261336E+03  0.16208274704E+03  0.44894482212E+03  0.59198315769E+03  0.82517355638E+02 0.  0.
         13    1    3    3    0    0 -0.17378412575E+02  0.14534618025E+01  0.13272514808E+02  0.21915323958E+02  0.00000000000E+00 0. -1.
        -13    1    3    3    0    0 -0.57543538800E+02  0.21060019679E+03 -0.56046917979E+02  0.22539955359E+03  0.00000000000E+00 0.  1.
          4    1    6    6  502    0 -0.12543176488E+03  0.22110412457E+02  0.17850467962E+03  0.21928501687E+03  0.00000000000E+00 0. -1.
          1    1    5    5  503    0  0.96781355676E+02 -0.11322257302E+03  0.12688190624E+03  0.19566553089E+03  0.00000000000E+00 0. -1.
         -2    1    5    5    0  503  0.31845320906E+03 -0.26091383261E+03  0.51185656495E+03  0.65687564842E+03  0.00000000000E+00 0.  1.
         -3    1    6    6    0  502 -0.21488084848E+03  0.13997233458E+03  0.27044014250E+03  0.37269814082E+03  0.00000000000E+00 0.  1.
<mgrwt>
<rscale>  0 0.13305959E+04</rscale>
<asrwt>0</asrwt>
<pdfrwt beam="1">  1        1 0.21051908E+00 0.13305959E+04</pdfrwt>
<pdfrwt beam="2">  1       -1 0.49763872E-01 0.13305959E+04</pdfrwt>
<totfact> 0.32104969E+01</totfact>
</mgrwt>
</event>
<event>
12    1  0.4612066E-007  0.1555449E+04  0.7818608E-02  0.8848395E-01
          1   -1    0    0  501    0  0.00000000000E+00  0.00000000000E+00  0.91677695380E+03  0.91677695380E+03  0.00000000000E+00 0. -1.
         -1   -1    0    0    0  501 -0.00000000000E+00 -0.00000000000E+00 -0.65976273104E+03  0.65976273104E+03  0.00000000000E+00 0.  1.
         23    2    1    2    0    0  0.36710064864E+03 -0.65878322013E+02  0.43357056635E+03  0.57900789929E+03  0.90354147069E+02 0.  0.
        254    2    1    2    0    0 -0.36710064864E+03  0.65878322013E+02 -0.17655634359E+03  0.99753178556E+03  0.90818207491E+03 0.  0.
        -24    2    4    4    0    0  0.95419972585E+02 -0.19931476706E+03 -0.35845749258E+03  0.42867901528E+03  0.80265662771E+02 0.  0.
         24    2    4    4    0    0 -0.46252062123E+03  0.26519308907E+03  0.18190114899E+03  0.56885277027E+03  0.79074311187E+02 0.  0.
         13    1    3    3    0    0  0.67886458436E+02 -0.44003824588E+02  0.12278584138E+03  0.14704173102E+03  0.00000000000E+00 0. -1.
        -13    1    3    3    0    0  0.29921419021E+03 -0.21874497425E+02  0.31078472497E+03  0.43196616827E+03  0.00000000000E+00 0.  1.
          2    1    6    6  502    0 -0.20545030413E+03  0.12050832199E+03  0.40047112674E+02  0.24152816475E+03  0.00000000000E+00 0. -1.
          1    1    5    5  503    0  0.15557498442E+02 -0.11514165336E+02 -0.41399172600E+01  0.19792692492E+02  0.00000000000E+00 0. -1.
         -2    1    5    5    0  503  0.79862474143E+02 -0.18780060173E+03 -0.35431757532E+03  0.40888632279E+03  0.00000000000E+00 0.  1.
         -1    1    6    6    0  502 -0.25707031710E+03  0.14468476709E+03  0.14185403632E+03  0.32732460552E+03  0.00000000000E+00 0.  1.
<mgrwt>
<rscale>  0 0.15554488E+04</rscale>
<asrwt>0</asrwt>
<pdfrwt beam="1">  1        1 0.14104261E+00 0.15554488E+04</pdfrwt>
<pdfrwt beam="2">  1       -1 0.10150196E+00 0.15554488E+04</pdfrwt>
<totfact> 0.15641748E+01</totfact>
</mgrwt>
</event>
<event>
12    1  0.4612066E-007  0.1225067E+04  0.7818608E-02  0.9091194E-01
          2   -1    0    0  501    0  0.00000000000E+00  0.00000000000E+00  0.10424242150E+04  0.10424242150E+04  0.00000000000E+00 0. -1.
         -2   -1    0    0    0  501 -0.00000000000E+00 -0.00000000000E+00 -0.35992774934E+03  0.35992774934E+03  0.00000000000E+00 0.  1.
         23    2    1    2    0    0 -0.21109261087E+02 -0.23410700672E+03  0.31459201837E+03  0.40176508925E+03  0.84825452635E+02 0.  0.
        254    2    1    2    0    0  0.21109261087E+02  0.23410700672E+03  0.36790444725E+03  0.10005868751E+04  0.90031590053E+03 0.  0.
        -24    2    4    4    0    0  0.20932319503E+03  0.70537867235E+00  0.58177892136E+03  0.62348210732E+03  0.80290268835E+02 0.  0.
         24    2    4    4    0    0 -0.18821393394E+03  0.23340162805E+03 -0.21387447411E+03  0.37710476775E+03  0.81024133912E+02 0.  0.
         11    1    3    3    0    0  0.19151801208E+02 -0.43983782904E+02  0.28157471261E+02  0.55625604139E+02  0.00000000000E+00 0.  1.
        -11    1    3    3    0    0 -0.40261062296E+02 -0.19012322382E+03  0.28643454711E+03  0.34613948511E+03  0.00000000000E+00 0. -1.
          4    1    6    6  502    0 -0.50454667511E+02  0.99387457288E+02 -0.41495742951E+02  0.11893459052E+03  0.00000000000E+00 0. -1.
          1    1    5    5  503    0  0.41898594443E+01 -0.15825391607E+02  0.24966021422E+02  0.29854650682E+02  0.00000000000E+00 0. -1.
         -2    1    5    5    0  503  0.20513333559E+03  0.16530770280E+02  0.55681289994E+03  0.59362745664E+03  0.00000000000E+00 0.  1.
         -3    1    6    6    0  502 -0.13775926643E+03  0.13401417076E+03 -0.17237873116E+03  0.25817017722E+03  0.00000000000E+00 0.  1.
<mgrwt>
<rscale>  0 0.12250672E+04</rscale>
<asrwt>0</asrwt>
<pdfrwt beam="1">  1        2 0.16037295E+00 0.12250672E+04</pdfrwt>
<pdfrwt beam="2">  1       -2 0.55373500E-01 0.12250672E+04</pdfrwt>
<totfact> 0.71470892E+01</totfact>
</mgrwt>
</event>
<event>
12    1  0.4612066E-007  0.2401334E+04  0.7818608E-02  0.8439004E-01
         -2   -1    0    0    0  501 -0.00000000000E+00  0.00000000000E+00  0.10934062838E+04  0.10934062838E+04  0.00000000000E+00 0.  1.
          2   -1    0    0  501    0  0.00000000000E+00 -0.00000000000E+00 -0.13184500606E+04  0.13184500606E+04  0.00000000000E+00 0. -1.
         23    2    1    2    0    0 -0.48784434107E+03  0.13264739738E+03  0.80417826156E+03  0.95429700094E+03  0.91611442990E+02 0.  0.
        254    2    1    2    0    0  0.48784434107E+03 -0.13264739738E+03 -0.10292220383E+04  0.14575593435E+04  0.89977430640E+03 0.  0.
        -24    2    4    4    0    0  0.31992752543E+03  0.36595881275E+03 -0.41100489135E+03  0.64192081661E+03  0.82812075978E+02 0.  0.
         24    2    4    4    0    0  0.16791681563E+03 -0.49860621013E+03 -0.61821714694E+03  0.81563852685E+03  0.79180527626E+02 0.  0.
         13    1    3    3    0    0 -0.47662472200E+03  0.11624150767E+03  0.74638723643E+03  0.89318369915E+03  0.00000000000E+00 0.  1.
        -13    1    3    3    0    0 -0.11219619067E+02  0.16405889711E+02  0.57791025131E+02  0.61113301784E+02  0.00000000000E+00 0. -1.
          2    1    6    6  502    0  0.46217829823E+02 -0.55011233582E+02 -0.75835619170E+02  0.10446705102E+03  0.00000000000E+00 0. -1.
          3    1    5    5  503    0  0.99854446130E+02  0.84170061376E+02 -0.15214128501E+03  0.20050556164E+03  0.00000000000E+00 0. -1.
         -4    1    5    5    0  503  0.22007307930E+03  0.28178875137E+03 -0.25886360633E+03  0.44141525497E+03  0.00000000000E+00 0.  1.
         -1    1    6    6    0  502  0.12169898581E+03 -0.44359497655E+03 -0.54238152777E+03  0.71117147583E+03  0.00000000000E+00 0.  1.
<mgrwt>
<rscale>  0 0.24013343E+04</rscale>
<asrwt>0</asrwt>
<pdfrwt beam="1">  1        2 0.20283847E+00 0.24013343E+04</pdfrwt>
<pdfrwt beam="2">  1       -2 0.16821635E+00 0.24013343E+04</pdfrwt>
<totfact> 0.31828607E+00</totfact>
</mgrwt>
</event>
<event>
12    1  0.4612066E-007  0.1680555E+04  0.7818608E-02  0.8772533E-01
          2   -1    0    0  501    0  0.00000000000E+00  0.00000000000E+00  0.23207660817E+04  0.23207660817E+04  0.00000000000E+00 0.  1.
         -2   -1    0    0    0  501 -0.00000000000E+00 -0.00000000000E+00 -0.30423843090E+03  0.30423843090E+03  0.00000000000E+00 0. -1.
         23    2    1    2    0    0  0.98803579779E+02 -0.10518311008E+03 -0.17649434766E+03  0.24573457711E+03  0.91703836381E+02 0.  0.
        254    2    1    2    0    0 -0.98803579779E+02  0.10518311008E+03  0.21930219985E+04  0.23792699355E+04  0.91145724323E+03 0.  0.
        -24    2    4    4    0    0 -0.36569678628E+03  0.28251752210E+03  0.18287375472E+04  0.18879128888E+04  0.79898493610E+02 0.  0.
         24    2    4    4    0    0  0.26689320650E+03 -0.17733441202E+03  0.36428445131E+03  0.49135704678E+03  0.77776015492E+02 0.  0.
         11    1    3    3    0    0  0.88467609353E+02 -0.95828110321E+02 -0.18720365864E+03  0.22815511048E+03  0.00000000000E+00 0. -1.
        -11    1    3    3    0    0  0.10335970425E+02 -0.93549997564E+01  0.10709310979E+02  0.17579466622E+02  0.00000000000E+00 0.  1.
          4    1    6    6  502    0  0.96050857001E+01 -0.18007703228E+02  0.54915432796E+02  0.58585320739E+02  0.00000000000E+00 0. -1.
          3    1    5    5  503    0 -0.61731614436E+02  0.61162161435E+02  0.23894344315E+03  0.25425493355E+03  0.00000000000E+00 0. -1.
         -4    1    5    5    0  503 -0.30396517184E+03  0.22135536066E+03  0.15897941040E+04  0.16336579552E+04  0.00000000000E+00 0.  1.
         -3    1    6    6    0  502  0.25728812080E+03 -0.15932670879E+03  0.30936901852E+03  0.43277172604E+03  0.00000000000E+00 0.  1.
<mgrwt>
<rscale>  0 0.16805549E+04</rscale>
<asrwt>0</asrwt>
<pdfrwt beam="1">  1        2 0.35704092E+00 0.16805549E+04</pdfrwt>
<pdfrwt beam="2">  1       -2 0.46805914E-01 0.16805549E+04</pdfrwt>
<totfact> 0.18211154E+01</totfact>
</mgrwt>
</event>
<event>
12    1  0.4612066E-007  0.2184539E+04  0.7818608E-02  0.8524891E-01
         -2   -1    0    0    0  501 -0.00000000000E+00  0.00000000000E+00  0.69638356553E+03  0.69638356553E+03  0.00000000000E+00 0.  1.
          2   -1    0    0  501    0  0.00000000000E+00 -0.00000000000E+00 -0.17132123915E+04  0.17132123915E+04  0.00000000000E+00 0. -1.
         23    2    1    2    0    0 -0.33404902969E+03 -0.68575286700E+03 -0.97426346808E+03  0.12406892819E+04  0.90966148302E+02 0.  0.
        254    2    1    2    0    0  0.33404902969E+03  0.68575286700E+03 -0.42565357890E+02  0.11689066751E+04  0.88469500770E+03 0.  0.
        -24    2    4    4    0    0 -0.22862015049E+03  0.16112221522E+03  0.20618637756E+03  0.35665494774E+03  0.80388979384E+02 0.  0.
         24    2    4    4    0    0  0.56266918018E+03  0.52463065177E+03 -0.24875173545E+03  0.81225172740E+03  0.77727187466E+02 0.  0.
         13    1    3    3    0    0 -0.30607482080E+03 -0.57264295003E+03 -0.85899930569E+03  0.10767922508E+04  0.00000000000E+00 0. -1.
        -13    1    3    3    0    0 -0.27974208893E+02 -0.11310991696E+03 -0.11526416240E+03  0.16389703113E+03  0.00000000000E+00 0.  1.
          4    1    6    6  502    0  0.12465551670E+03  0.75938536493E+02 -0.39459436687E+02  0.15120418749E+03  0.00000000000E+00 0. -1.
          3    1    5    5  503    0 -0.17782815357E+02  0.17937595522E+02 -0.49002216197E+01  0.25729322320E+02  0.00000000000E+00 0. -1.
         -4    1    5    5    0  503 -0.21083733513E+03  0.14318461970E+03  0.21108659918E+03  0.33092562542E+03  0.00000000000E+00 0.  1.
         -3    1    6    6    0  502  0.43801366347E+03  0.44869211528E+03 -0.20929229877E+03  0.66104753991E+03  0.00000000000E+00 0.  1.
<mgrwt>
<rscale>  0 0.21845393E+04</rscale>
<asrwt>0</asrwt>
<pdfrwt beam="1">  1        2 0.26357114E+00 0.21845393E+04</pdfrwt>
<pdfrwt beam="2">  1       -2 0.10713593E+00 0.21845393E+04</pdfrwt>
<totfact> 0.61802335E+00</totfact>
</mgrwt>
</event>
<event>
12    1  0.4612066E-007  0.1557843E+04  0.7818608E-02  0.8846874E-01
          2   -1    0    0  501    0  0.00000000000E+00  0.00000000000E+00  0.85073885426E+03  0.85073885426E+03  0.00000000000E+00 0. -1.
         -2   -1    0    0    0  501 -0.00000000000E+00 -0.00000000000E+00 -0.71316686063E+03  0.71316686063E+03  0.00000000000E+00 0.  1.
         23    2    1    2    0    0  0.36576934808E+03 -0.16225096440E+03 -0.27854907401E+03  0.49629371672E+03  0.92764622461E+02 0.  0.
        254    2    1    2    0    0 -0.36576934808E+03  0.16225096440E+03  0.41612106763E+03  0.10676119982E+04  0.89806795081E+03 0.  0.
        -24    2    4    4    0    0 -0.50579738756E+03 -0.13091032133E+03  0.49454412712E+03  0.72391364291E+03  0.80675642136E+02 0.  0.
         24    2    4    4    0    0  0.14002803948E+03  0.29316128573E+03 -0.78423059481E+02  0.34369835526E+03  0.80168521626E+02 0.  0.
         13    1    3    3    0    0  0.22470938941E+03 -0.50755534654E+02 -0.14331943307E+03  0.27131327627E+03  0.00000000000E+00 0. -1.
        -13    1    3    3    0    0  0.14105995867E+03 -0.11149542975E+03 -0.13522964094E+03  0.22498044044E+03  0.00000000000E+00 0.  1.
          2    1    6    6  502    0  0.51431109121E+02  0.54138407509E+02  0.66348305105E+01  0.74967640546E+02  0.00000000000E+00 0. -1.
          3    1    5    5  503    0 -0.32892004775E+02 -0.11954358798E+02  0.98231071677E+01  0.36349471892E+02  0.00000000000E+00 0. -1.
         -4    1    5    5    0  503 -0.47290538278E+03 -0.11895596253E+03  0.48472101995E+03  0.68756417101E+03  0.00000000000E+00 0.  1.
         -1    1    6    6    0  502  0.88596930359E+02  0.23902287822E+03 -0.85057889992E+02  0.26873071472E+03  0.00000000000E+00 0.  1.
<mgrwt>
<rscale>  0 0.15578431E+04</rscale>
<asrwt>0</asrwt>
<pdfrwt beam="1">  1        2 0.13088290E+00 0.15578431E+04</pdfrwt>
<pdfrwt beam="2">  1       -2 0.10971798E+00 0.15578431E+04</pdfrwt>
<totfact> 0.20164002E+01</totfact>
</mgrwt>
</event>
<event>
12    1  0.4612066E-007  0.5978895E+04  0.7818608E-02  0.7693024E-01
          2   -1    0    0  501    0  0.00000000000E+00  0.00000000000E+00  0.38354829498E+04  0.38354829498E+04  0.00000000000E+00 0. -1.
         -2   -1    0    0    0  501 -0.00000000000E+00 -0.00000000000E+00 -0.23300312214E+04  0.23300312214E+04  0.00000000000E+00 0.  1.
         23    2    1    2    0    0  0.21520469978E+03 -0.15334532867E+04 -0.18186923162E+04  0.23902905121E+04  0.89749349765E+02 0.  0.
        254    2    1    2    0    0 -0.21520469978E+03  0.15334532867E+04  0.33241440446E+04  0.37752236591E+04  0.89698829530E+03 0.  0.
        -24    2    4    4    0    0 -0.10706185800E+03 -0.49705234720E+02  0.63707545852E+03  0.65358465281E+03  0.85877277179E+02 0.  0.
         24    2    4    4    0    0 -0.10814284178E+03  0.15831585214E+04  0.26870685861E+04  0.31216390063E+04  0.78782747780E+02 0.  0.
         13    1    3    3    0    0  0.82260632889E+02 -0.35352164370E+03 -0.39548194034E+03  0.53679635750E+03  0.00000000000E+00 0. -1.
        -13    1    3    3    0    0  0.13294406689E+03 -0.11799316430E+04 -0.14232103759E+04  0.18534941546E+04  0.00000000000E+00 0.  1.
          2    1    6    6  502    0  0.55386072149E+01  0.20786383647E+02  0.26232500324E+02  0.33924828492E+02  0.00000000000E+00 0. -1.
          3    1    5    5  503    0  0.93888338105E+01  0.10307321252E+02  0.41789645603E+02  0.44054120707E+02  0.00000000000E+00 0. -1.
         -4    1    5    5    0  503 -0.11645069181E+03 -0.60012555972E+02  0.59528581292E+03  0.60953053210E+03  0.00000000000E+00 0.  1.
         -1    1    6    6    0  502 -0.11368144899E+03  0.15623721378E+04  0.26608360858E+04  0.30877141778E+04  0.00000000000E+00 0.  1.
<mgrwt>
<rscale>  0 0.59788946E+04</rscale>
<asrwt>0</asrwt>
<pdfrwt beam="1">  1        2 0.59007430E+00 0.59788946E+04</pdfrwt>
<pdfrwt beam="2">  1       -2 0.35846634E+00 0.59788946E+04</pdfrwt>
<totfact> 0.42611968E-03</totfact>
</mgrwt>
</event>
<event>
12    1  0.4612066E-007  0.1957455E+04  0.7818608E-02  0.8626774E-01
          1   -1    0    0  501    0  0.00000000000E+00  0.00000000000E+00  0.33256593978E+04  0.33256593978E+04  0.00000000000E+00 0. -1.
         -1   -1    0    0    0  501 -0.00000000000E+00 -0.00000000000E+00 -0.28803545951E+03  0.28803545951E+03  0.00000000000E+00 0.  1.
         23    2    1    2    0    0  0.12643118483E+03 -0.34433723321E+03  0.25076824191E+04  0.25363785813E+04  0.10095651510E+03 0.  0.
        254    2    1    2    0    0 -0.12643118483E+03  0.34433723321E+03  0.52994151924E+03  0.10773162761E+04  0.86326089346E+03 0.  0.
        -24    2    4    4    0    0  0.11541288650E+03  0.24625669637E+03 -0.16675447795E+03  0.32891916838E+03  0.80114096938E+02 0.  0.
         24    2    4    4    0    0 -0.24184407133E+03  0.98080536838E+02  0.69669599720E+03  0.74839710769E+03  0.81268516327E+02 0.  0.
         13    1    3    3    0    0  0.13648198690E+03 -0.31099447764E+03  0.21081894096E+04  0.21353705731E+04  0.00000000000E+00 0. -1.
        -13    1    3    3    0    0 -0.10050802073E+02 -0.33342755570E+02  0.39949300948E+03  0.40100800814E+03  0.00000000000E+00 0.  1.
          2    1    6    6  502    0 -0.21256175351E+03  0.10731638991E+03  0.65243233628E+03  0.69452664457E+03  0.00000000000E+00 0. -1.
          1    1    5    5  503    0  0.65573767800E+02  0.18233782200E+03 -0.78430812269E+02  0.20904160511E+03  0.00000000000E+00 0. -1.
         -2    1    5    5    0  503  0.49839118702E+02  0.63918874376E+02 -0.88323665683E+02  0.11987756326E+03  0.00000000000E+00 0.  1.
         -1    1    6    6    0  502 -0.29282317817E+02 -0.92358530710E+01  0.44263660919E+02  0.53870463119E+02  0.00000000000E+00 0.  1.
<mgrwt>
<rscale>  0 0.19574553E+04</rscale>
<asrwt>0</asrwt>
<pdfrwt beam="1">  1        1 0.51163988E+00 0.19574553E+04</pdfrwt>
<pdfrwt beam="2">  1       -1 0.44313150E-01 0.19574553E+04</pdfrwt>
<totfact> 0.16078938E+00</totfact>
</mgrwt>
</event>
<event>
12    1  0.4612066E-007  0.1423414E+04  0.7818608E-02  0.8937043E-01
          1   -1    0    0  501    0  0.00000000000E+00  0.00000000000E+00  0.12785253824E+04  0.12785253824E+04  0.00000000000E+00 0. -1.
         -1   -1    0    0    0  501 -0.00000000000E+00 -0.00000000000E+00 -0.39618054236E+03  0.39618054236E+03  0.00000000000E+00 0.  1.
         23    2    1    2    0    0  0.34702944525E+03 -0.22908043502E+03  0.24471086588E+03  0.49027887081E+03  0.87078595023E+02 0.  0.
        254    2    1    2    0    0 -0.34702944525E+03  0.22908043502E+03  0.63763397415E+03  0.11844270539E+04  0.90740458426E+03 0.  0.
        -24    2    4    4    0    0 -0.31349890770E+03 -0.21190982728E+03  0.62362581179E+03  0.73377977013E+03  0.79600614903E+02 0.  0.
         24    2    4    4    0    0 -0.33530537545E+02  0.44099026230E+03  0.14008162361E+02  0.45064728381E+03  0.85381715836E+02 0.  0.
         13    1    3    3    0    0  0.21554071171E+02  0.61768728659E+01  0.64873124866E+01  0.23341314568E+02  0.00000000000E+00 0.  1.
        -13    1    3    3    0    0  0.32547537408E+03 -0.23525730789E+03  0.23822355339E+03  0.46693755625E+03  0.00000000000E+00 0. -1.
          4    1    6    6  502    0  0.23389920806E+02  0.17943312862E+03 -0.14082375831E+02  0.18149834531E+03  0.00000000000E+00 0. -1.
          1    1    5    5  503    0 -0.16382290450E+03 -0.63145381621E+02  0.29071502261E+03  0.33961817918E+03  0.00000000000E+00 0. -1.
         -2    1    5    5    0  503 -0.14967600320E+03 -0.14876444566E+03  0.33291078919E+03  0.39416159096E+03  0.00000000000E+00 0.  1.
         -3    1    6    6    0  502 -0.56920458351E+02  0.26155713368E+03  0.28090538193E+02  0.26914893850E+03  0.00000000000E+00 0.  1.
<mgrwt>
<rscale>  0 0.14234140E+04</rscale>
<asrwt>0</asrwt>
<pdfrwt beam="1">  1        1 0.19669621E+00 0.14234140E+04</pdfrwt>
<pdfrwt beam="2">  1       -1 0.60950853E-01 0.14234140E+04</pdfrwt>
<totfact> 0.24900622E+01</totfact>
</mgrwt>
</event>
<event>
12    1  0.4612066E-007  0.2056083E+04  0.7818608E-02  0.8580840E-01
          3   -1    0    0  501    0  0.00000000000E+00  0.00000000000E+00  0.30812532279E+03  0.30812532279E+03  0.00000000000E+00 0. -1.
         -3   -1    0    0    0  501 -0.00000000000E+00 -0.00000000000E+00 -0.34299972795E+04  0.34299972795E+04  0.00000000000E+00 0.  1.
         23    2    1    2    0    0  0.52793596909E+03  0.51467522293E+03 -0.57605767431E+03  0.94005098170E+03  0.90809864565E+02 0.  0.
        254    2    1    2    0    0 -0.52793596909E+03 -0.51467522293E+03 -0.25458142824E+04  0.27980716206E+04  0.89689880194E+03 0.  0.
        -24    2    4    4    0    0 -0.59334294741E+03  0.12785578749E+02 -0.10546701288E+04  0.12128829414E+04  0.80849394231E+02 0.  0.
         24    2    4    4    0    0  0.65406978312E+02 -0.52746080168E+03 -0.14911441536E+04  0.15851886792E+04  0.82579003979E+02 0.  0.
         11    1    3    3    0    0  0.22364747156E+03  0.23560043385E+03 -0.30891540381E+03  0.44827946939E+03  0.00000000000E+00 0.  1.
        -11    1    3    3    0    0  0.30428849753E+03  0.27907478908E+03 -0.26714227050E+03  0.49177151231E+03  0.00000000000E+00 0. -1.
          4    1    6    6  502    0  0.19949229683E+02 -0.41892649915E+03 -0.11991123170E+04  0.12703415809E+04  0.00000000000E+00 0. -1.
          3    1    5    5  503    0 -0.12376234793E+02 -0.22868871842E+01 -0.56219428598E+02  0.57610981527E+02  0.00000000000E+00 0. -1.
         -4    1    5    5    0  503 -0.58096671261E+03  0.15072465933E+02 -0.99845070024E+03  0.11552719598E+04  0.00000000000E+00 0.  1.
         -3    1    6    6    0  502  0.45457748629E+02 -0.10853430253E+03 -0.29203183662E+03  0.31484709834E+03  0.00000000000E+00 0.  1.
<mgrwt>
<rscale>  0 0.20560827E+04</rscale>
<asrwt>0</asrwt>
<pdfrwt beam="1">  1        3 0.47403893E-01 0.20560827E+04</pdfrwt>
<pdfrwt beam="2">  1       -3 0.52769192E+00 0.20560827E+04</pdfrwt>
<totfact> 0.23312676E-02</totfact>
</mgrwt>
</event>
<event>
12    1  0.4612066E-007  0.2451856E+04  0.7818608E-02  0.8420341E-01
         -2   -1    0    0    0  501 -0.00000000000E+00  0.00000000000E+00  0.11098980933E+04  0.11098980933E+04  0.00000000000E+00 0.  1.
          2   -1    0    0  501    0  0.00000000000E+00 -0.00000000000E+00 -0.13540875199E+04  0.13540875199E+04  0.00000000000E+00 0. -1.
         23    2    1    2    0    0 -0.46788844085E+03  0.84004882555E+03 -0.54515768569E+03  0.11090723636E+04  0.90790875730E+02 0.  0.
        254    2    1    2    0    0  0.46788844085E+03 -0.84004882555E+03  0.30096825912E+03  0.13549132496E+04  0.90587327957E+03 0.  0.
        -24    2    4    4    0    0 -0.10645649713E+03 -0.70790492751E+03  0.10145445516E+03  0.72749084744E+03  0.80545356561E+02 0.  0.
         24    2    4    4    0    0  0.57434493798E+03 -0.13214389804E+03  0.19951380396E+03  0.62742240219E+03  0.80740294943E+02 0.  0.
         11    1    3    3    0    0 -0.28243724671E+03  0.45399142349E+03 -0.34498744286E+03  0.63631387433E+03  0.00000000000E+00 0. -1.
        -11    1    3    3    0    0 -0.18545119414E+03  0.38605740207E+03 -0.20017024283E+03  0.47275848931E+03  0.00000000000E+00 0.  1.
          2    1    6    6  502    0  0.61595485386E+02 -0.37062390007E+02  0.39020440463E+02  0.81793761051E+02  0.00000000000E+00 0. -1.
          3    1    5    5  503    0  0.12351098109E+02 -0.85626307416E+02  0.19610972704E+02  0.88707408916E+02  0.00000000000E+00 0. -1.
         -4    1    5    5    0  503 -0.11880759524E+03 -0.62227862009E+03  0.81843482454E+02  0.63878343852E+03  0.00000000000E+00 0.  1.
         -1    1    6    6    0  502  0.51274945259E+03 -0.95081508037E+02  0.16049336350E+03  0.54562864114E+03  0.00000000000E+00 0.  1.
<mgrwt>
<rscale>  0 0.24518558E+04</rscale>
<asrwt>0</asrwt>
<pdfrwt beam="1">  1        2 0.20832116E+00 0.24518558E+04</pdfrwt>
<pdfrwt beam="2">  1       -2 0.17075355E+00 0.24518558E+04</pdfrwt>
<totfact> 0.28991125E+00</totfact>
</mgrwt>
</event>
<event>
12    1  0.4612066E-007  0.1904830E+04  0.7818608E-02  0.8652456E-01
          2   -1    0    0  501    0  0.00000000000E+00  0.00000000000E+00  0.47670507863E+03  0.47670507863E+03  0.00000000000E+00 0. -1.
         -2   -1    0    0    0  501 -0.00000000000E+00 -0.00000000000E+00 -0.19028409545E+04  0.19028409545E+04  0.00000000000E+00 0.  1.
         23    2    1    2    0    0  0.30387394359E+03  0.63308965811E+03 -0.24463598857E+03  0.74889252274E+03  0.88607871641E+02 0.  0.
        254    2    1    2    0    0 -0.30387394359E+03 -0.63308965811E+03 -0.11814998873E+04  0.16306535104E+04  0.87746623778E+03 0.  0.
        -24    2    4    4    0    0 -0.10021837569E+03  0.21307171769E+03 -0.25303027392E+03  0.35532328952E+03  0.82383498639E+02 0.  0.
         24    2    4    4    0    0 -0.20365556790E+03 -0.84616137580E+03 -0.92846961337E+03  0.12753302209E+04  0.83346775812E+02 0.  0.
         11    1    3    3    0    0  0.24906006241E+03  0.52767825091E+03 -0.16687279845E+03  0.60689519856E+03  0.00000000000E+00 0. -1.
        -11    1    3    3    0    0  0.54813881180E+02  0.10541140720E+03 -0.77763190115E+02  0.14199732418E+03  0.00000000000E+00 0.  1.
          4    1    6    6  502    0 -0.77687245272E+02 -0.18226103126E+03 -0.19393589089E+03  0.27724631895E+03  0.00000000000E+00 0. -1.
          3    1    5    5  503    0 -0.81791285178E+02  0.21544889607E+03 -0.23927688910E+03  0.33220696984E+03  0.00000000000E+00 0. -1.
         -4    1    5    5    0  503 -0.18427090511E+02 -0.23771783773E+01 -0.13753384818E+02  0.23116319683E+02  0.00000000000E+00 0.  1.
         -3    1    6    6    0  502 -0.12596832263E+03 -0.66390034454E+03 -0.73453372248E+03  0.99808390191E+03  0.00000000000E+00 0.  1.
<mgrwt>
<rscale>  0 0.19048296E+04</rscale>
<asrwt>0</asrwt>
<pdfrwt beam="1">  1        2 0.73339243E-01 0.19048296E+04</pdfrwt>
<pdfrwt beam="2">  1       -2 0.29274476E+00 0.19048296E+04</pdfrwt>
<totfact> 0.21473307E+00</totfact>
</mgrwt>
</event>
<event>
12    1  0.4612066E-007  0.1495174E+04  0.7818608E-02  0.8887669E-01
          3   -1    0    0  501    0  0.00000000000E+00  0.00000000000E+00  0.19868552145E+04  0.19868552145E+04  0.00000000000E+00 0. -1.
         -3   -1    0    0    0  501 -0.00000000000E+00 -0.00000000000E+00 -0.28129183473E+03  0.28129183473E+03  0.00000000000E+00 0.  1.
         23    2    1    2    0    0  0.99293409915E+02  0.24814984200E+03 -0.37913215342E+02  0.28509166889E+03  0.91664182960E+02 0.  0.
        254    2    1    2    0    0 -0.99293409915E+02 -0.24814984200E+03  0.17434765951E+04  0.19830553804E+04  0.90628940104E+03 0.  0.
        -24    2    4    4    0    0  0.82371563018E+02  0.11355958976E+03  0.14905768941E+04  0.14991956493E+04  0.78020911419E+02 0.  0.
         24    2    4    4    0    0 -0.18166497293E+03 -0.36170943176E+03  0.25289970101E+03  0.48385973110E+03  0.79536816585E+02 0.  0.
         13    1    3    3    0    0  0.10134413516E+03  0.24486367509E+03 -0.52363636694E+02  0.27013108587E+03  0.00000000000E+00 0.  1.
        -13    1    3    3    0    0 -0.20507252418E+01  0.32861669129E+01  0.14450421353E+02  0.14960583019E+02  0.00000000000E+00 0. -1.
          4    1    6    6  502    0 -0.11935210751E+03 -0.30648258836E+03  0.19378471813E+03  0.38174470463E+03  0.00000000000E+00 0. -1.
          1    1    5    5  503    0  0.35477203659E+01  0.70332872299E+02  0.61750813376E+03  0.62151073563E+03  0.00000000000E+00 0. -1.
         -2    1    5    5    0  503  0.78823842652E+02  0.43226717462E+02  0.87306876038E+03  0.87768491363E+03  0.00000000000E+00 0.  1.
         -3    1    6    6    0  502 -0.62312865424E+02 -0.55226843404E+02  0.59114982879E+02  0.10211502647E+03  0.00000000000E+00 0.  1.
<mgrwt>
<rscale>  0 0.14951738E+04</rscale>
<asrwt>0</asrwt>
<pdfrwt beam="1">  1        3 0.30567002E+00 0.14951738E+04</pdfrwt>
<pdfrwt beam="2">  1       -3 0.43275668E-01 0.14951738E+04</pdfrwt>
<totfact> 0.48689009E-01</totfact>
</mgrwt>
</event>
<event>
12    1  0.4612066E-007  0.1989583E+04  0.7818608E-02  0.8611506E-01
          2   -1    0    0  501    0  0.00000000000E+00  0.00000000000E+00  0.71772756796E+03  0.71772756796E+03  0.00000000000E+00 0. -1.
         -2   -1    0    0    0  501 -0.00000000000E+00 -0.00000000000E+00 -0.13788103357E+04  0.13788103357E+04  0.00000000000E+00 0.  1.
         23    2    1    2    0    0  0.37644807537E+03 -0.36527559540E+03  0.35586980584E+03  0.64050386866E+03  0.91991700763E+02 0.  0.
        254    2    1    2    0    0 -0.37644807537E+03  0.36527559540E+03 -0.10169525735E+04  0.14560340350E+04  0.90039055976E+03 0.  0.
        -24    2    4    4    0    0 -0.51401830724E+03  0.54999810461E+03 -0.57294507756E+03  0.94935510559E+03  0.79349350111E+02 0.  0.
         24    2    4    4    0    0  0.13757023187E+03 -0.18472250921E+03 -0.44400749598E+03  0.50667892937E+03  0.80826399650E+02 0.  0.
         11    1    3    3    0    0  0.10757019122E+03 -0.10558370367E+03  0.54295939714E+02  0.16021021687E+03  0.00000000000E+00 0.  1.
        -11    1    3    3    0    0  0.26887788414E+03 -0.25969189173E+03  0.30157386613E+03  0.48029365178E+03  0.00000000000E+00 0. -1.
          2    1    6    6  502    0  0.16352736467E+01 -0.35511076077E+02 -0.11804088877E+03  0.12327758136E+03  0.00000000000E+00 0. -1.
          1    1    5    5  503    0 -0.11094441947E+03  0.17011345264E+03 -0.15292291115E+03  0.25422955716E+03  0.00000000000E+00 0. -1.
         -2    1    5    5    0  503 -0.40307388777E+03  0.37988465197E+03 -0.42002216642E+03  0.69512554843E+03  0.00000000000E+00 0.  1.
         -1    1    6    6    0  502  0.13593495822E+03 -0.14921143313E+03 -0.32596660721E+03  0.38340134802E+03  0.00000000000E+00 0.  1.
<mgrwt>
<rscale>  0 0.19895831E+04</rscale>
<asrwt>0</asrwt>
<pdfrwt beam="1">  1        2 0.11041963E+00 0.19895831E+04</pdfrwt>
<pdfrwt beam="2">  1       -2 0.21212467E+00 0.19895831E+04</pdfrwt>
<totfact> 0.40924857E+00</totfact>
</mgrwt>
</event>
<event>
12    1  0.4612066E-007  0.1567159E+04  0.7818608E-02  0.8840982E-01
         -2   -1    0    0    0  501 -0.00000000000E+00  0.00000000000E+00  0.31361281740E+03  0.31361281740E+03  0.00000000000E+00 0.  1.
          2   -1    0    0  501    0  0.00000000000E+00 -0.00000000000E+00 -0.19578170676E+04  0.19578170676E+04  0.00000000000E+00 0. -1.
         23    2    1    2    0    0 -0.47430760870E+03  0.27300333288E+02 -0.95300429907E+03  0.10687377315E+04  0.90940248059E+02 0.  0.
        254    2    1    2    0    0  0.47430760870E+03 -0.27300333288E+02 -0.69119995117E+03  0.12026921536E+04  0.86197333366E+03 0.  0.
        -24    2    4    4    0    0  0.22424399836E+02 -0.34908494178E+03 -0.49008339767E+03  0.60748014843E+03  0.80543427939E+02 0.  0.
         24    2    4    4    0    0  0.45188320887E+03  0.32178460849E+03 -0.20111655350E+03  0.59521200516E+03  0.78010860029E+02 0.  0.
         13    1    3    3    0    0 -0.83786685825E+02 -0.23852305375E+01 -0.25424262311E+03  0.26770358505E+03  0.00000000000E+00 0. -1.
        -13    1    3    3    0    0 -0.39052092288E+03  0.29685563826E+02 -0.69876167596E+03  0.80103414640E+03  0.00000000000E+00 0.  1.
          2    1    6    6  502    0  0.22424237621E+03  0.19860393269E+03 -0.13179249963E+03  0.32725743434E+03  0.00000000000E+00 0. -1.
          1    1    5    5  503    0  0.44716591416E+02 -0.25124243187E+03 -0.31201880978E+03  0.40308568664E+03  0.00000000000E+00 0. -1.
         -2    1    5    5    0  503 -0.22292191579E+02 -0.97842509911E+02 -0.17806458788E+03  0.20439446179E+03  0.00000000000E+00 0.  1.
         -1    1    6    6    0  502  0.22764083265E+03  0.12318067579E+03 -0.69324053866E+02  0.26795457082E+03  0.00000000000E+00 0.  1.
<mgrwt>
<rscale>  0 0.15671586E+04</rscale>
<asrwt>0</asrwt>
<pdfrwt beam="1">  1        2 0.30120263E+00 0.15671586E+04</pdfrwt>
<pdfrwt beam="2">  1       -2 0.48248126E-01 0.15671586E+04</pdfrwt>
<totfact> 0.27592375E+01</totfact>
</mgrwt>
</event>
<event>
12    1  0.4612066E-007  0.1428293E+04  0.7818608E-02  0.8933590E-01
          1   -1    0    0  501    0  0.00000000000E+00  0.00000000000E+00  0.84931960615E+03  0.84931960615E+03  0.00000000000E+00 0. -1.
         -1   -1    0    0    0  501 -0.00000000000E+00 -0.00000000000E+00 -0.60048646765E+03  0.60048646765E+03  0.00000000000E+00 0.  1.
         23    2    1    2    0    0 -0.12456689011E+01  0.30737278447E+03 -0.21881578510E+03  0.38776319495E+03  0.89444771937E+02 0.  0.
        254    2    1    2    0    0  0.12456689011E+01 -0.30737278447E+03  0.46764892360E+03  0.10620428788E+04  0.90264055993E+03 0.  0.
        -24    2    4    4    0    0  0.29427024127E+03  0.19814071755E+03  0.17147783318E+03  0.40202340210E+03  0.79771233615E+02 0.  0.
         24    2    4    4    0    0 -0.29302457237E+03 -0.50551350202E+03  0.29617109043E+03  0.66001947675E+03  0.80629362775E+02 0.  0.
         11    1    3    3    0    0  0.24520526112E+02  0.22964711929E+03 -0.19559552786E+03  0.30264941123E+03  0.00000000000E+00 0.  1.
        -11    1    3    3    0    0 -0.25766195014E+02  0.77725665184E+02 -0.23220257240E+02  0.85113783726E+02  0.00000000000E+00 0. -1.
          4    1    6    6  502    0 -0.26804868036E+03 -0.48176137443E+03  0.29557681482E+03  0.62554757644E+03  0.00000000000E+00 0. -1.
          3    1    5    5  503    0  0.22256525217E+03  0.13531526670E+03  0.86918078535E+02  0.27459108735E+03  0.00000000000E+00 0. -1.
         -4    1    5    5    0  503  0.71704989101E+02  0.62825450853E+02  0.84559754640E+02  0.12743231475E+03  0.00000000000E+00 0.  1.
         -3    1    6    6    0  502 -0.24975892015E+02 -0.23752127593E+02  0.59427560410E+00  0.34471900305E+02  0.00000000000E+00 0.  1.
<mgrwt>
<rscale>  0 0.14282926E+04</rscale>
<asrwt>0</asrwt>
<pdfrwt beam="1">  1        1 0.13066455E+00 0.14282926E+04</pdfrwt>
<pdfrwt beam="2">  1       -1 0.92382533E-01 0.14282926E+04</pdfrwt>
<totfact> 0.22248408E+01</totfact>
</mgrwt>
</event>
<event>
12    1  0.4612066E-007  0.1505433E+04  0.7818608E-02  0.8880848E-01
         -2   -1    0    0    0  501 -0.00000000000E+00  0.00000000000E+00  0.17728229230E+03  0.17728229230E+03  0.00000000000E+00 0.  1.
          2   -1    0    0  501    0  0.00000000000E+00 -0.00000000000E+00 -0.31959305401E+04  0.31959305401E+04  0.00000000000E+00 0. -1.
         23    2    1    2    0    0 -0.11012187890E+03  0.15111292848E+03  0.14450348883E+02  0.21007750635E+03  0.94666787885E+02 0.  0.
        254    2    1    2    0    0  0.11012187890E+03 -0.15111292848E+03 -0.30330985967E+04  0.31631353261E+04  0.87793852197E+03 0.  0.
        -24    2    4    4    0    0  0.86867324369E+02  0.33659880204E+03 -0.17921100852E+04  0.18273378742E+04  0.81611661724E+02 0.  0.
         24    2    4    4    0    0  0.23254554526E+02 -0.48771173052E+03 -0.12409885115E+04  0.13357974519E+04  0.76803908941E+02 0.  0.
         13    1    3    3    0    0  0.20315345053E+01 -0.80036982377E+01 -0.10995924414E+02  0.13751242549E+02  0.00000000000E+00 0. -1.
        -13    1    3    3    0    0 -0.11215341340E+03  0.15911662671E+03  0.25446273297E+02  0.19632626380E+03  0.00000000000E+00 0.  1.
          2    1    6    6  502    0  0.25647383972E+02 -0.16478863868E+03 -0.34034009482E+03  0.37900456974E+03  0.00000000000E+00 0. -1.
          3    1    5    5  503    0  0.56666821084E+02  0.25874830663E+03 -0.15127415694E+04  0.15357567745E+04  0.00000000000E+00 0. -1.
         -4    1    5    5    0  503  0.30200503286E+02  0.77850495418E+02 -0.27936851582E+03  0.29158109963E+03  0.00000000000E+00 0.  1.
         -1    1    6    6    0  502 -0.23928294454E+01 -0.32292309184E+03 -0.90064841670E+03  0.95679288218E+03  0.00000000000E+00 0.  1.
<mgrwt>
<rscale>  0 0.15054327E+04</rscale>
<asrwt>0</asrwt>
<pdfrwt beam="1">  1        2 0.49168163E+00 0.15054327E+04</pdfrwt>
<pdfrwt beam="2">  1       -2 0.27274198E-01 0.15054327E+04</pdfrwt>
<totfact> 0.15567355E+01</totfact>
</mgrwt>
</event>
<event>
12    1  0.4612066E-007  0.1793601E+04  0.7818608E-02  0.8709710E-01
          2   -1    0    0  501    0  0.00000000000E+00  0.00000000000E+00  0.97947407257E+03  0.97947407257E+03  0.00000000000E+00 0. -1.
         -2   -1    0    0    0  501 -0.00000000000E+00 -0.00000000000E+00 -0.82110506811E+03  0.82110506811E+03  0.00000000000E+00 0.  1.
         23    2    1    2    0    0 -0.43842441201E+03  0.50233379679E+03  0.70506674189E+02  0.67628019566E+03  0.88478830781E+02 0.  0.
        254    2    1    2    0    0  0.43842441201E+03 -0.50233379679E+03  0.87862330271E+02  0.11242989450E+04  0.90098452832E+03 0.  0.
        -24    2    4    4    0    0  0.10527698825E+03  0.25433544588E+03  0.55028804529E+02  0.29311235774E+03  0.84361849458E+02 0.  0.
         24    2    4    4    0    0  0.33314742376E+03 -0.75666924267E+03  0.32833525742E+02  0.83118658729E+03  0.79104700986E+02 0.  0.
         11    1    3    3    0    0 -0.79557803949E+02  0.87726180877E+02  0.47046969738E+02  0.12743133187E+03  0.00000000000E+00 0. -1.
        -11    1    3    3    0    0 -0.35886660806E+03  0.41460761591E+03  0.23459704452E+02  0.54884886379E+03  0.00000000000E+00 0.  1.
          2    1    6    6  502    0  0.75465514976E+02 -0.12323250630E+03  0.28723200163E+02  0.14733063764E+03  0.00000000000E+00 0. -1.
          3    1    5    5  503    0 -0.11873726019E+02  0.41750337813E+02  0.20280496194E+02  0.47910067866E+02  0.00000000000E+00 0. -1.
         -4    1    5    5    0  503  0.11715071426E+03  0.21258510807E+03  0.34748308335E+02  0.24520228987E+03  0.00000000000E+00 0.  1.
         -1    1    6    6    0  502  0.25768190879E+03 -0.63343673637E+03  0.41103255793E+01  0.68385594965E+03  0.00000000000E+00 0.  1.
<mgrwt>
<rscale>  0 0.17936010E+04</rscale>
<asrwt>0</asrwt>
<pdfrwt beam="1">  1        2 0.15068832E+00 0.17936010E+04</pdfrwt>
<pdfrwt beam="2">  1       -2 0.12632386E+00 0.17936010E+04</pdfrwt>
<totfact> 0.11454340E+01</totfact>
</mgrwt>
</event>
<event>
12    1  0.4612066E-007  0.1662582E+04  0.7818608E-02  0.8782998E-01
         -2   -1    0    0    0  501 -0.00000000000E+00  0.00000000000E+00  0.18558684182E+03  0.18558684182E+03  0.00000000000E+00 0.  1.
          2   -1    0    0  501    0  0.00000000000E+00 -0.00000000000E+00 -0.37235658973E+04  0.37235658973E+04  0.00000000000E+00 0. -1.
         23    2    1    2    0    0  0.21537293535E+03 -0.30702455903E+03 -0.23186579145E+04  0.23505976149E+04  0.92114284439E+02 0.  0.
        254    2    1    2    0    0 -0.21537293535E+03  0.30702455903E+03 -0.12193211409E+04  0.15585551242E+04  0.89537726649E+03 0.  0.
        -24    2    4    4    0    0 -0.18116359117E+03 -0.13272402699E+03 -0.10547982638E+04  0.10813048634E+04  0.78644237536E+02 0.  0.
         24    2    4    4    0    0 -0.34209344183E+02  0.43974858602E+03 -0.16452287708E+03  0.47725026081E+03  0.78427904617E+02 0.  0.
         11    1    3    3    0    0  0.46912965108E+01 -0.65087498013E+02 -0.41350860215E+03  0.41862603206E+03  0.00000000000E+00 0.  1.
        -11    1    3    3    0    0  0.21068163884E+03 -0.24193706102E+03 -0.19051493124E+04  0.19319715828E+04  0.00000000000E+00 0. -1.
          4    1    6    6  502    0 -0.49755460491E+01 -0.11187049120E+00  0.28263750221E+01  0.57233704457E+01  0.00000000000E+00 0. -1.
          3    1    5    5  503    0 -0.39060419068E+02 -0.88248416575E+00 -0.27566446973E+03  0.27841945871E+03  0.00000000000E+00 0. -1.
         -2    1    5    5    0  503 -0.14210317210E+03 -0.13184154282E+03 -0.77913379410E+03  0.80288540468E+03  0.00000000000E+00 0.  1.
         -3    1    6    6    0  502 -0.29233798134E+02  0.43986045651E+03 -0.16734925210E+03  0.47152689036E+03  0.00000000000E+00 0.  1.
<mgrwt>
<rscale>  0 0.16625821E+04</rscale>
<asrwt>0</asrwt>
<pdfrwt beam="1">  1        2 0.57285624E+00 0.16625821E+04</pdfrwt>
<pdfrwt beam="2">  1       -2 0.28551825E-01 0.16625821E+04</pdfrwt>
<totfact> 0.60994743E+00</totfact>
</mgrwt>
</event>
<event>
12    1  0.4612066E-007  0.1348595E+04  0.7818608E-02  0.8991892E-01
          2   -1    0    0  501    0  0.00000000000E+00  0.00000000000E+00  0.68284784717E+03  0.68284784717E+03  0.00000000000E+00 0.  1.
         -2   -1    0    0    0  501 -0.00000000000E+00 -0.00000000000E+00 -0.66585440990E+03  0.66585440990E+03  0.00000000000E+00 0. -1.
         23    2    1    2    0    0  0.16765900521E+02 -0.33965723845E+03 -0.12331978574E+03  0.37293804620E+03  0.90702159288E+02 0.  0.
        254    2    1    2    0    0 -0.16765900521E+02  0.33965723845E+03  0.14031322301E+03  0.97576421087E+03  0.90375873972E+03 0.  0.
        -24    2    4    4    0    0  0.71415508981E+02  0.39102319704E+03  0.47094399943E+03  0.62132390450E+03  0.79093793410E+02 0.  0.
         24    2    4    4    0    0 -0.88181409502E+02 -0.51365958594E+02 -0.33063077643E+03  0.35444030637E+03  0.76790609960E+02 0.  0.
         13    1    3    3    0    0  0.38995402475E+01 -0.58049375904E+00  0.81380993841E+01  0.90427898755E+01  0.00000000000E+00 0. -1.
        -13    1    3    3    0    0  0.12866360273E+02 -0.33907674469E+03 -0.13145788512E+03  0.36389525632E+03  0.00000000000E+00 0.  1.
          2    1    6    6  502    0  0.62373164087E+01 -0.20326469241E+02 -0.11575643728E+03  0.11769291500E+03  0.00000000000E+00 0. -1.
          1    1    5    5  503    0 -0.17438047955E+02  0.63628789539E+02  0.72423528681E+02  0.97968749514E+02  0.00000000000E+00 0. -1.
         -2    1    5    5    0  503  0.88853556937E+02  0.32739440750E+03  0.39852047075E+03  0.52335515499E+03  0.00000000000E+00 0.  1.
         -1    1    6    6    0  502 -0.94418725911E+02 -0.31039489352E+02 -0.21487433914E+03  0.23674739138E+03  0.00000000000E+00 0.  1.
<mgrwt>
<rscale>  0 0.13485952E+04</rscale>
<asrwt>0</asrwt>
<pdfrwt beam="1">  1        2 0.10505351E+00 0.13485952E+04</pdfrwt>
<pdfrwt beam="2">  1       -2 0.10243914E+00 0.13485952E+04</pdfrwt>
<totfact> 0.32215962E+01</totfact>
</mgrwt>
</event>
<event>
12    1  0.4612066E-007  0.1950982E+04  0.7818608E-02  0.8629887E-01
         -2   -1    0    0    0  501 -0.00000000000E+00  0.00000000000E+00  0.57011784453E+03  0.57011784453E+03  0.00000000000E+00 0. -1.
          2   -1    0    0  501    0  0.00000000000E+00 -0.00000000000E+00 -0.16690984808E+04  0.16690984808E+04  0.00000000000E+00 0.  1.
         23    2    1    2    0    0 -0.45306279084E+03  0.61122444916E+03 -0.50663415976E+03  0.91863383461E+03  0.91371388082E+02 0.  0.
        254    2    1    2    0    0  0.45306279084E+03 -0.61122444916E+03 -0.59234647647E+03  0.13205824907E+04  0.90233172769E+03 0.  0.
        -24    2    4    4    0    0  0.59083575291E+03 -0.14766754404E+03 -0.55641086065E+03  0.82889258544E+03  0.81100443170E+02 0.  0.
         24    2    4    4    0    0 -0.13777296207E+03 -0.46355690512E+03 -0.35935615821E+02  0.49168990523E+03  0.81247775734E+02 0.  0.
         11    1    3    3    0    0 -0.17691399473E+02  0.57724187174E+02 -0.24314864311E+02  0.65086711598E+02  0.00000000000E+00 0. -1.
        -11    1    3    3    0    0 -0.43537139137E+03  0.55350026199E+03 -0.48231929545E+03  0.85354712301E+03  0.00000000000E+00 0.  1.
          2    1    6    6  502    0 -0.82185443811E+02 -0.16405715154E+03  0.93385107381E+01  0.18372915916E+03  0.00000000000E+00 0. -1.
          1    1    5    5  503    0  0.13936053375E+03  0.13462464656E-01 -0.12818919337E+03  0.18935107036E+03  0.00000000000E+00 0. -1.
         -2    1    5    5    0  503  0.45147521916E+03 -0.14768100650E+03 -0.42822166728E+03  0.63954151509E+03  0.00000000000E+00 0.  1.
         -1    1    6    6    0  502 -0.55587518254E+02 -0.29949975359E+03 -0.45274126559E+02  0.30796074607E+03  0.00000000000E+00 0.  1.
<mgrwt>
<rscale>  0 0.19509821E+04</rscale>
<asrwt>0</asrwt>
<pdfrwt beam="1">  1        2 0.25678438E+00 0.19509821E+04</pdfrwt>
<pdfrwt beam="2">  1       -2 0.87710439E-01 0.19509821E+04</pdfrwt>
<totfact> 0.10672605E+01</totfact>
</mgrwt>
</event>
<event>
12    1  0.4612066E-007  0.1326640E+04  0.7818608E-02  0.9008702E-01
          1   -1    0    0  501    0  0.00000000000E+00  0.00000000000E+00  0.11672477792E+04  0.11672477792E+04  0.00000000000E+00 0. -1.
         -1   -1    0    0    0  501 -0.00000000000E+00 -0.00000000000E+00 -0.37694950838E+03  0.37694950838E+03  0.00000000000E+00 0.  1.
         23    2    1    2    0    0 -0.25323974793E+03 -0.32462772071E+03  0.40612055919E+03  0.58826486013E+03  0.10774093965E+03 0.  0.
        254    2    1    2    0    0  0.25323974793E+03  0.32462772071E+03  0.38417771161E+03  0.95593242743E+03  0.77246408637E+03 0.  0.
        -24    2    4    4    0    0 -0.19010454445E+03  0.37012733717E+03  0.16306103303E+03  0.45265063136E+03  0.71900695625E+02 0.  0.
         24    2    4    4    0    0  0.44334429238E+03 -0.45499616462E+02  0.22111667858E+03  0.50328179607E+03  0.75997394861E+02 0.  0.
         13    1    3    3    0    0 -0.21310970462E+03 -0.20480922921E+03  0.24782307063E+03  0.38571860327E+03  0.00000000000E+00 0.  1.
        -13    1    3    3    0    0 -0.40130043311E+02 -0.11981849150E+03  0.15829748856E+03  0.20254625686E+03  0.00000000000E+00 0. -1.
          4    1    6    6  502    0  0.17637747560E+03 -0.90553452236E+01  0.47994081737E+02  0.18301487660E+03  0.00000000000E+00 0. -1.
          3    1    5    5  503    0 -0.20652689968E+01  0.20506766940E+02  0.24881651775E+02  0.32309277637E+02  0.00000000000E+00 0. -1.
         -4    1    5    5    0  503 -0.18803927546E+03  0.34962057023E+03  0.13817938126E+03  0.42034135372E+03  0.00000000000E+00 0.  1.
         -3    1    6    6    0  502  0.26696681678E+03 -0.36444271238E+02  0.17312259684E+03  0.32026691947E+03  0.00000000000E+00 0.  1.
<mgrwt>
<rscale>  0 0.13266401E+04</rscale>
<asrwt>0</asrwt>
<pdfrwt beam="1">  1        1 0.17957658E+00 0.13266401E+04</pdfrwt>
<pdfrwt beam="2">  1       -1 0.57992233E-01 0.13266401E+04</pdfrwt>
<totfact> 0.33361486E+01</totfact>
</mgrwt>
</event>
<event>
12    1  0.4612066E-007  0.1844482E+04  0.7818608E-02  0.8682996E-01
         -1   -1    0    0    0  501 -0.00000000000E+00  0.00000000000E+00  0.20995345662E+04  0.20995345662E+04  0.00000000000E+00 0.  1.
          1   -1    0    0  501    0  0.00000000000E+00 -0.00000000000E+00 -0.40510322863E+03  0.40510322863E+03  0.00000000000E+00 0. -1.
         23    2    1    2    0    0  0.50470185482E+03  0.48105570893E+03  0.68501983272E+03  0.98156944154E+03  0.89932419021E+02 0.  0.
        254    2    1    2    0    0 -0.50470185482E+03 -0.48105570893E+03  0.10094115048E+04  0.15230683532E+04  0.90260016910E+03 0.  0.
        -24    2    4    4    0    0 -0.24674749040E+03 -0.58517245689E+03  0.21067131954E+03  0.67380605993E+03  0.79505177193E+02 0.  0.
         24    2    4    4    0    0 -0.25795436442E+03  0.10411674796E+03  0.79874018527E+03  0.84926229332E+03  0.76679905882E+02 0.  0.
         11    1    3    3    0    0  0.25914695987E+03  0.21511494972E+03  0.27648809846E+03  0.43574907572E+03  0.00000000000E+00 0. -1.
        -11    1    3    3    0    0  0.24555489495E+03  0.26594075921E+03  0.40853173426E+03  0.54582036582E+03  0.00000000000E+00 0.  1.
          4    1    6    6  502    0 -0.15717660654E+03  0.92962111876E+02  0.58204967586E+03  0.61002316764E+03  0.00000000000E+00 0. -1.
          1    1    5    5  503    0 -0.22662052392E+02 -0.32256962320E+02 -0.43074912025E+01  0.39656458707E+02  0.00000000000E+00 0. -1.
         -2    1    5    5    0  503 -0.22408543801E+03 -0.55291549457E+03  0.21497881075E+03  0.63414960122E+03  0.00000000000E+00 0.  1.
         -3    1    6    6    0  502 -0.10077775788E+03  0.11154636079E+02  0.21669050941E+03  0.23923912568E+03  0.00000000000E+00 0.  1.
<mgrwt>
<rscale>  0 0.18444817E+04</rscale>
<asrwt>0</asrwt>
<pdfrwt beam="1">  1        1 0.62323575E-01 0.18444817E+04</pdfrwt>
<pdfrwt beam="2">  1       -1 0.32300531E+00 0.18444817E+04</pdfrwt>
<totfact> 0.12992545E+00</totfact>
</mgrwt>
</event>
<event>
12    1  0.4612066E-007  0.2579813E+04  0.7818608E-02  0.8375091E-01
          1   -1    0    0  501    0  0.00000000000E+00  0.00000000000E+00  0.15079068163E+04  0.15079068163E+04  0.00000000000E+00 0. -1.
         -1   -1    0    0    0  501 -0.00000000000E+00 -0.00000000000E+00 -0.11034230485E+04  0.11034230485E+04  0.00000000000E+00 0.  1.
         23    2    1    2    0    0 -0.98468867753E+03 -0.23434340832E+03 -0.33875746710E+03  0.10712402566E+04  0.90941965831E+02 0.  0.
        254    2    1    2    0    0  0.98468867753E+03  0.23434340832E+03  0.74324123490E+03  0.15400896082E+04  0.89159399015E+03 0.  0.
        -24    2    4    4    0    0  0.56105615942E+03 -0.49562788971E+02 -0.74254667138E+02  0.57344266534E+03  0.77988786140E+02 0.  0.
         24    2    4    4    0    0  0.42363251811E+03  0.28390619729E+03  0.81749590204E+03  0.96664694284E+03  0.77714367924E+02 0.  0.
         13    1    3    3    0    0 -0.52053843488E+03 -0.13189263745E+03 -0.13248456952E+03  0.55308958692E+03  0.00000000000E+00 0. -1.
        -13    1    3    3    0    0 -0.46415024265E+03 -0.10245077088E+03 -0.20627289758E+03  0.51815066967E+03  0.00000000000E+00 0.  1.
          2    1    6    6  502    0  0.38707739279E+03  0.23290021553E+03  0.73919594827E+03  0.86630368136E+03  0.00000000000E+00 0. -1.
          1    1    5    5  503    0  0.50348919251E+03 -0.59930299305E+02 -0.47945444611E+02  0.50930518690E+03  0.00000000000E+00 0. -1.
         -2    1    5    5    0  503  0.57566966909E+02  0.10367510333E+02 -0.26309222526E+02  0.64137478431E+02  0.00000000000E+00 0.  1.
         -1    1    6    6    0  502  0.36555125320E+02  0.51005981766E+02  0.78299953767E+02  0.10034326147E+03  0.00000000000E+00 0.  1.
<mgrwt>
<rscale>  0 0.25798133E+04</rscale>
<asrwt>0</asrwt>
<pdfrwt beam="1">  1        1 0.23198566E+00 0.25798133E+04</pdfrwt>
<pdfrwt beam="2">  1       -1 0.16975739E+00 0.25798133E+04</pdfrwt>
<totfact> 0.14082122E+00</totfact>
</mgrwt>
</event>
<event>
12    1  0.4612066E-007  0.1271815E+04  0.7818608E-02  0.9052220E-01
         -1   -1    0    0    0  501 -0.00000000000E+00  0.00000000000E+00  0.35730524075E+03  0.35730524075E+03  0.00000000000E+00 0.  1.
          1   -1    0    0  501    0  0.00000000000E+00 -0.00000000000E+00 -0.11317441572E+04  0.11317441572E+04  0.00000000000E+00 0. -1.
         23    2    1    2    0    0 -0.43272969205E+02  0.29580109831E+03 -0.28161356455E+03  0.42129184218E+03  0.93860411874E+02 0.  0.
        254    2    1    2    0    0  0.43272969205E+02 -0.29580109831E+03 -0.49282535188E+03  0.10677575557E+04  0.89880950751E+03 0.  0.
        -24    2    4    4    0    0 -0.97506081884E+02 -0.27287657488E+03  0.19634492696E+03  0.35870935698E+03  0.78434758366E+02 0.  0.
         24    2    4    4    0    0  0.14077905109E+03 -0.22924523433E+02 -0.68917027884E+03  0.70904819877E+03  0.86309906422E+02 0.  0.
         13    1    3    3    0    0  0.20487105498E+02  0.14955536354E+03 -0.10867006326E+03  0.18599922286E+03  0.00000000000E+00 0. -1.
        -13    1    3    3    0    0 -0.63760074703E+02  0.14624573477E+03 -0.17294350130E+03  0.23529261932E+03  0.00000000000E+00 0.  1.
          4    1    6    6  502    0  0.17090270530E+02 -0.38302944313E+02 -0.16161078615E+03  0.16696478398E+03  0.00000000000E+00 0. -1.
          3    1    5    5  503    0 -0.79354328353E+02 -0.23249719983E+03  0.19626247265E+03  0.31443761787E+03  0.00000000000E+00 0. -1.
         -4    1    5    5    0  503 -0.18151753531E+02 -0.40379375049E+02  0.82454308982E-01  0.44271739116E+02  0.00000000000E+00 0.  1.
         -3    1    6    6    0  502  0.12368878056E+03  0.15378420880E+02 -0.52755949269E+03  0.54208341479E+03  0.00000000000E+00 0.  1.
<mgrwt>
<rscale>  0 0.12718146E+04</rscale>
<asrwt>0</asrwt>
<pdfrwt beam="1">  1        1 0.17411448E+00 0.12718146E+04</pdfrwt>
<pdfrwt beam="2">  1       -1 0.54970037E-01 0.12718146E+04</pdfrwt>
<totfact> 0.39518083E+01</totfact>
</mgrwt>
</event>
<event>
12    1  0.4612066E-007  0.1382681E+04  0.7818608E-02  0.8966451E-01
         -2   -1    0    0    0  501 -0.00000000000E+00  0.00000000000E+00  0.46436088284E+03  0.46436088284E+03  0.00000000000E+00 0.  1.
          2   -1    0    0  501    0  0.00000000000E+00 -0.00000000000E+00 -0.10292681325E+04  0.10292681325E+04  0.00000000000E+00 0. -1.
         23    2    1    2    0    0  0.94475535469E+02 -0.30099677333E+03 -0.41442362988E+03  0.52882129212E+03  0.91544140369E+02 0.  0.
        254    2    1    2    0    0 -0.94475535469E+02  0.30099677333E+03 -0.15048361976E+03  0.96480772320E+03  0.89926855754E+03 0.  0.
        -24    2    4    4    0    0  0.10296856629E+03  0.32021820380E+03  0.30501116350E+03  0.46121053700E+03  0.80877227296E+02 0.  0.
         24    2    4    4    0    0 -0.19744410176E+03 -0.19221430465E+02 -0.45549478326E+03  0.50359718620E+03  0.82346776844E+02 0.  0.
         13    1    3    3    0    0  0.98100799427E+01  0.44803570216E+01 -0.20768834102E+02  0.23402045583E+02  0.00000000000E+00 0.  1.
        -13    1    3    3    0    0  0.84665455526E+02 -0.30547713036E+03 -0.39365479578E+03  0.50541924654E+03  0.00000000000E+00 0. -1.
          4    1    6    6  502    0 -0.29014391409E+02 -0.21927442255E+02 -0.15399017889E+03  0.15822649217E+03  0.00000000000E+00 0. -1.
          3    1    5    5  503    0 -0.11710003102E+02  0.31763413797E+02  0.17526953289E+02  0.38121289594E+02  0.00000000000E+00 0. -1.
         -4    1    5    5    0  503  0.11467856939E+03  0.28845479000E+03  0.28748421021E+03  0.42308924741E+03  0.00000000000E+00 0.  1.
         -3    1    6    6    0  502 -0.16842971035E+03  0.27060117899E+01 -0.30150460438E+03  0.34537069402E+03  0.00000000000E+00 0.  1.
<mgrwt>
<rscale>  0 0.13826812E+04</rscale>
<asrwt>0</asrwt>
<pdfrwt beam="1">  1        2 0.15834894E+00 0.13826812E+04</pdfrwt>
<pdfrwt beam="2">  1       -2 0.71440136E-01 0.13826812E+04</pdfrwt>
<totfact> 0.41807133E+01</totfact>
</mgrwt>
</event>
<event>
12    1  0.4612066E-007  0.1178162E+04  0.7818608E-02  0.9132189E-01
          1   -1    0    0  501    0  0.00000000000E+00  0.00000000000E+00  0.27631688125E+03  0.27631688125E+03  0.00000000000E+00 0. -1.
         -1   -1    0    0    0  501 -0.00000000000E+00 -0.00000000000E+00 -0.12558649173E+04  0.12558649173E+04  0.00000000000E+00 0.  1.
         23    2    1    2    0    0 -0.13906786140E+03 -0.10958255686E+02 -0.47602743639E+03  0.50431000876E+03  0.90920356887E+02 0.  0.
        254    2    1    2    0    0  0.13906786140E+03  0.10958255686E+02 -0.50352059968E+03  0.10278717898E+04  0.88517086969E+03 0.  0.
        -24    2    4    4    0    0 -0.30544494536E+03  0.20703181872E+03 -0.98639951078E+02  0.39035885859E+03  0.80569286465E+02 0.  0.
         24    2    4    4    0    0  0.44451280677E+03 -0.19607356303E+03 -0.40488064860E+03  0.63751293122E+03  0.80361186934E+02 0.  0.
         11    1    3    3    0    0 -0.25473281817E+01  0.50435223067E+01  0.26838953095E+01  0.62553410903E+01  0.00000000000E+00 0. -1.
        -11    1    3    3    0    0 -0.13652053322E+03 -0.16001777992E+02 -0.47871133170E+03  0.49805466767E+03  0.00000000000E+00 0.  1.
          2    1    6    6  502    0  0.14232260055E+03 -0.63940024146E+02 -0.18060404652E+03  0.23866686183E+03  0.00000000000E+00 0. -1.
          3    1    5    5  503    0 -0.28574100867E+01 -0.55909305498E+01  0.28044348111E+01  0.68766380904E+01  0.00000000000E+00 0. -1.
         -4    1    5    5    0  503 -0.30258753528E+03  0.21262274927E+03 -0.10144438589E+03  0.38348222050E+03  0.00000000000E+00 0.  1.
         -1    1    6    6    0  502  0.30219020621E+03 -0.13213353889E+03 -0.22427660208E+03  0.39884606940E+03  0.00000000000E+00 0.  1.
<mgrwt>
<rscale>  0 0.11781624E+04</rscale>
<asrwt>0</asrwt>
<pdfrwt beam="1">  1        1 0.42510289E-01 0.11781624E+04</pdfrwt>
<pdfrwt beam="2">  1       -1 0.19320999E+00 0.11781624E+04</pdfrwt>
<totfact> 0.16237554E+01</totfact>
</mgrwt>
</event>
<event>
12    1  0.4612066E-007  0.2071488E+04  0.7818608E-02  0.8573908E-01
         -3   -1    0    0    0  501 -0.00000000000E+00  0.00000000000E+00  0.11341269357E+04  0.11341269357E+04  0.00000000000E+00 0.  1.
          3   -1    0    0  501    0  0.00000000000E+00 -0.00000000000E+00 -0.94589564748E+03  0.94589564748E+03  0.00000000000E+00 0. -1.
         23    2    1    2    0    0  0.72097254662E+03  0.42242036996E+03  0.12876170637E+03  0.85003273848E+03  0.87952814252E+02 0.  0.
        254    2    1    2    0    0 -0.72097254662E+03 -0.42242036996E+03  0.59469581884E+02  0.12299898447E+04  0.90060979621E+03 0.  0.
        -24    2    4    4    0    0 -0.46637513528E+02 -0.21205511816E+03 -0.34253550758E+03  0.41333355299E+03  0.79822435847E+02 0.  0.
         24    2    4    4    0    0 -0.67433503309E+03 -0.21036525179E+03  0.40200508947E+03  0.81665629174E+03  0.79612378863E+02 0.  0.
         13    1    3    3    0    0  0.15034029591E+03  0.10225866923E+03 -0.62815726215E+01  0.18192992651E+03  0.00000000000E+00 0. -1.
        -13    1    3    3    0    0  0.57063225071E+03  0.32016170073E+03  0.13504327899E+03  0.66810281197E+03  0.00000000000E+00 0.  1.
          4    1    6    6  502    0 -0.47864348125E+03 -0.18657658464E+03  0.28930055465E+03  0.58958054157E+03  0.00000000000E+00 0. -1.
          1    1    5    5  503    0 -0.57242171795E+02 -0.19579951768E+03 -0.27091543613E+03  0.33913019754E+03  0.00000000000E+00 0. -1.
         -2    1    5    5    0  503  0.10604658268E+02 -0.16255600489E+02 -0.71620071456E+02  0.74203355447E+02  0.00000000000E+00 0.  1.
         -3    1    6    6    0  502 -0.19569155184E+03 -0.23788667152E+02  0.11270453481E+03  0.22707575017E+03  0.00000000000E+00 0.  1.
<mgrwt>
<rscale>  0 0.20714881E+04</rscale>
<asrwt>0</asrwt>
<pdfrwt beam="1">  1        3 0.14552241E+00 0.20714881E+04</pdfrwt>
<pdfrwt beam="2">  1       -3 0.17448107E+00 0.20714881E+04</pdfrwt>
<totfact> 0.18182633E-01</totfact>
</mgrwt>
</event>
<event>
12    1  0.4612066E-007  0.3709150E+04  0.7818608E-02  0.8065937E-01
         -2   -1    0    0    0  501 -0.00000000000E+00  0.00000000000E+00  0.17432409452E+04  0.17432409452E+04  0.00000000000E+00 0.  1.
          2   -1    0    0  501    0  0.00000000000E+00 -0.00000000000E+00 -0.19730193023E+04  0.19730193023E+04  0.00000000000E+00 0. -1.
         23    2    1    2    0    0 -0.34405907610E+03  0.12726592172E+04  0.10360551793E+04  0.16790035424E+04  0.87203382185E+02 0.  0.
        254    2    1    2    0    0  0.34405907610E+03 -0.12726592172E+04 -0.12658335364E+04  0.20372567051E+04  0.90002344941E+03 0.  0.
        -24    2    4    4    0    0  0.11176630427E+03 -0.33670856719E+03 -0.95339142358E+03  0.10203671070E+04  0.79557906295E+02 0.  0.
         24    2    4    4    0    0  0.23229277184E+03 -0.93595065000E+03 -0.31244211285E+03  0.10168895981E+04  0.80503600969E+02 0.  0.
         13    1    3    3    0    0 -0.24263136220E+03  0.10290185563E+04  0.83650624556E+03  0.13481438595E+04  0.00000000000E+00 0. -1.
        -13    1    3    3    0    0 -0.10142771390E+03  0.24364066094E+03  0.19954893373E+03  0.33085968289E+03  0.00000000000E+00 0.  1.
          4    1    6    6  502    0  0.26344302135E+02 -0.78025677338E+02 -0.50184298625E+02  0.96439060590E+02  0.00000000000E+00 0. -1.
          1    1    5    5  503    0  0.22105675599E+02 -0.10514294253E+02 -0.48949450707E+02  0.54728968580E+02  0.00000000000E+00 0. -1.
         -2    1    5    5    0  503  0.89660628669E+02 -0.32619427294E+03 -0.90444197288E+03  0.96563813840E+03  0.00000000000E+00 0.  1.
         -3    1    6    6    0  502  0.20594846970E+03 -0.85792497266E+03 -0.26225781423E+03  0.92045053751E+03  0.00000000000E+00 0.  1.
<mgrwt>
<rscale>  0 0.37091498E+04</rscale>
<asrwt>0</asrwt>
<pdfrwt beam="1">  1        2 0.30354143E+00 0.37091498E+04</pdfrwt>
<pdfrwt beam="2">  1       -2 0.26819092E+00 0.37091498E+04</pdfrwt>
<totfact> 0.27777408E-01</totfact>
</mgrwt>
</event>
<event>
12    1  0.4612066E-007  0.1573077E+04  0.7818608E-02  0.8837261E-01
         -2   -1    0    0    0  501 -0.00000000000E+00  0.00000000000E+00  0.44196886578E+03  0.44196886578E+03  0.00000000000E+00 0.  1.
          2   -1    0    0  501    0  0.00000000000E+00 -0.00000000000E+00 -0.13997431919E+04  0.13997431919E+04  0.00000000000E+00 0. -1.
         23    2    1    2    0    0  0.46245957632E+03 -0.24529845192E+03 -0.24265760003E+03  0.58440734997E+03  0.92784964345E+02 0.  0.
        254    2    1    2    0    0 -0.46245957632E+03  0.24529845192E+03 -0.71511672608E+03  0.12573047077E+04  0.89184247815E+03 0.  0.
        -24    2    4    4    0    0 -0.34000917766E+03 -0.27411150953E+02 -0.85039534716E+03  0.91951899841E+03  0.77364913788E+02 0.  0.
         24    2    4    4    0    0 -0.12245039867E+03  0.27270960287E+03  0.13527862108E+03  0.33778570928E+03  0.80213792075E+02 0.  0.
         11    1    3    3    0    0  0.50542165220E+02 -0.27327319238E+01 -0.42772931243E+02  0.66268408281E+02  0.00000000000E+00 0. -1.
        -11    1    3    3    0    0  0.41191741110E+03 -0.24256572000E+03 -0.19988466878E+03  0.51813894169E+03  0.00000000000E+00 0.  1.
          4    1    6    6  502    0 -0.12382326104E+03  0.27187675418E+03  0.14207029338E+03  0.33080679814E+03  0.00000000000E+00 0. -1.
          3    1    5    5  503    0 -0.23071262764E+03 -0.45136663723E+02 -0.63917805371E+03  0.68103907326E+03  0.00000000000E+00 0. -1.
         -4    1    5    5    0  503 -0.10929655001E+03  0.17725512770E+02 -0.21121729345E+03  0.23847992515E+03  0.00000000000E+00 0.  1.
         -3    1    6    6    0  502  0.13728623784E+01  0.83284869574E+00 -0.67916722963E+01  0.69789111357E+01  0.00000000000E+00 0.  1.
<mgrwt>
<rscale>  0 0.15730771E+04</rscale>
<asrwt>0</asrwt>
<pdfrwt beam="1">  1        2 0.21534510E+00 0.15730771E+04</pdfrwt>
<pdfrwt beam="2">  1       -2 0.67995212E-01 0.15730771E+04</pdfrwt>
<totfact> 0.27546293E+01</totfact>
</mgrwt>
</event>
<event>
12    1  0.4612066E-007  0.2318303E+04  0.7818608E-02  0.8470739E-01
         -2   -1    0    0    0  501 -0.00000000000E+00  0.00000000000E+00  0.52197254628E+03  0.52197254628E+03  0.00000000000E+00 0.  1.
          2   -1    0    0  501    0  0.00000000000E+00 -0.00000000000E+00 -0.25741435146E+04  0.25741435146E+04  0.00000000000E+00 0. -1.
         23    2    1    2    0    0  0.69433856955E+03  0.58573878524E+03 -0.13565070208E+04  0.16351413206E+04  0.91541614955E+02 0.  0.
        254    2    1    2    0    0 -0.69433856955E+03 -0.58573878524E+03 -0.69566394756E+03  0.14609747403E+04  0.90846182645E+03 0.  0.
        -24    2    4    4    0    0 -0.21381299628E+03 -0.72924790916E+03 -0.51713258889E+03  0.92271179175E+03  0.80326992679E+02 0.  0.
         24    2    4    4    0    0 -0.48052557327E+03  0.14350912393E+03 -0.17853135867E+03  0.53826294853E+03  0.79711106618E+02 0.  0.
         13    1    3    3    0    0  0.48955216756E+02  0.23738707278E+02 -0.54028721179E+02  0.76676216541E+02  0.00000000000E+00 0.  1.
        -13    1    3    3    0    0  0.64538335279E+03  0.56200007796E+03 -0.13024782996E+04  0.15584651041E+04  0.00000000000E+00 0. -1.
          2    1    6    6  502    0 -0.10549667543E+03  0.49327098554E+00 -0.50523143068E+02  0.11697170524E+03  0.00000000000E+00 0. -1.
          1    1    5    5  503    0 -0.10333976841E+03 -0.21965473965E+03 -0.16400308687E+03  0.29295788927E+03  0.00000000000E+00 0. -1.
         -2    1    5    5    0  503 -0.11047322787E+03 -0.50959316951E+03 -0.35312950202E+03  0.62975390248E+03  0.00000000000E+00 0.  1.
         -1    1    6    6    0  502 -0.37502889784E+03  0.14301585294E+03 -0.12800821560E+03  0.42129124329E+03  0.00000000000E+00 0.  1.
<mgrwt>
<rscale>  0 0.23183030E+04</rscale>
<asrwt>0</asrwt>
<pdfrwt beam="1">  1        2 0.39602208E+00 0.23183030E+04</pdfrwt>
<pdfrwt beam="2">  1       -2 0.80303468E-01 0.23183030E+04</pdfrwt>
<totfact> 0.39100688E+00</totfact>
</mgrwt>
</event>
<event>
12    1  0.4612066E-007  0.1723651E+04  0.7818608E-02  0.8747989E-01
         -2   -1    0    0    0  501 -0.00000000000E+00  0.00000000000E+00  0.19980427832E+03  0.19980427832E+03  0.00000000000E+00 0.  1.
          2   -1    0    0  501    0  0.00000000000E+00 -0.00000000000E+00 -0.37173550474E+04  0.37173550474E+04  0.00000000000E+00 0. -1.
         23    2    1    2    0    0 -0.27155132732E+03 -0.54272573685E+03 -0.96542640676E+03  0.11438322421E+04  0.89513699213E+02 0.  0.
        254    2    1    2    0    0  0.27155132732E+03  0.54272573685E+03 -0.25521243623E+04  0.27733270837E+04  0.89984054327E+03 0.  0.
        -24    2    4    4    0    0  0.55183001696E+03  0.41281045867E+03 -0.12177254876E+04  0.14014409933E+04  0.79073714030E+02 0.  0.
         24    2    4    4    0    0 -0.28027868963E+03  0.12991527818E+03 -0.13343988747E+04  0.13718860903E+04  0.77569095363E+02 0.  0.
         11    1    3    3    0    0 -0.27465755197E+03 -0.51882386027E+03 -0.90439653830E+03  0.10782152231E+04  0.00000000000E+00 0.  1.
        -11    1    3    3    0    0  0.31062246443E+01 -0.23901876577E+02 -0.61029868466E+02  0.65617018985E+02  0.00000000000E+00 0. -1.
          4    1    6    6  502    0 -0.27945791286E+03  0.13611268578E+03 -0.12834772814E+04  0.13205821899E+04  0.00000000000E+00 0. -1.
          3    1    5    5  503    0  0.39927828348E+03  0.31017552725E+03 -0.95782393312E+03  0.10830783408E+04  0.00000000000E+00 0. -1.
         -4    1    5    5    0  503  0.15255173348E+03  0.10263493143E+03 -0.25990155447E+03  0.31836265258E+03  0.00000000000E+00 0.  1.
         -3    1    6    6    0  502 -0.82077677598E+00 -0.61974075990E+01 -0.50921593310E+02  0.51303900443E+02  0.00000000000E+00 0.  1.
<mgrwt>
<rscale>  0 0.17236513E+04</rscale>
<asrwt>0</asrwt>
<pdfrwt beam="1">  1        2 0.57190073E+00 0.17236513E+04</pdfrwt>
<pdfrwt beam="2">  1       -2 0.30739122E-01 0.17236513E+04</pdfrwt>
<totfact> 0.53387482E+00</totfact>
</mgrwt>
</event>
<event>
12    1  0.4612066E-007  0.9995174E+03  0.7818608E-02  0.9309074E-01
          1   -1    0    0  501    0  0.00000000000E+00  0.00000000000E+00  0.12941119294E+04  0.12941119294E+04  0.00000000000E+00 0. -1.
         -1   -1    0    0    0  501 -0.00000000000E+00 -0.00000000000E+00 -0.19299627393E+03  0.19299627393E+03  0.00000000000E+00 0.  1.
         23    2    1    2    0    0 -0.49534947583E+02  0.11689061770E+00  0.13753152004E+03  0.17260928303E+03  0.91789546734E+02 0.  0.
        254    2    1    2    0    0  0.49534947583E+02 -0.11689061770E+00  0.96358413543E+03  0.13144989203E+04  0.89272577016E+03 0.  0.
        -24    2    4    4    0    0  0.97692965240E+02  0.27328653725E+03 -0.75380945192E+01  0.30120485149E+03  0.80237726746E+02 0.  0.
         24    2    4    4    0    0 -0.48158017657E+02 -0.27340342787E+03  0.97112222995E+03  0.10132940688E+04  0.81350201808E+02 0.  0.
         13    1    3    3    0    0 -0.55694814675E+02  0.10566914607E+02  0.14678573343E+03  0.15735191008E+03  0.00000000000E+00 0. -1.
        -13    1    3    3    0    0  0.61598670923E+01 -0.10450023989E+02 -0.92542133933E+01  0.15257372955E+02  0.00000000000E+00 0.  1.
          2    1    6    6  502    0  0.10919297769E+02 -0.19808554742E+01  0.49044458262E+02  0.50284328954E+02  0.00000000000E+00 0. -1.
          3    1    5    5  503    0  0.16111050105E+02  0.87866947344E+00 -0.47854440754E+01  0.16829690149E+02  0.00000000000E+00 0. -1.
         -4    1    5    5    0  503  0.81581915135E+02  0.27240786778E+03 -0.27526504438E+01  0.28437516134E+03  0.00000000000E+00 0.  1.
         -1    1    6    6    0  502 -0.59077315426E+02 -0.27142257239E+03  0.92207777169E+03  0.96300973985E+03  0.00000000000E+00 0.  1.
<mgrwt>
<rscale>  0 0.99951744E+03</rscale>
<asrwt>0</asrwt>
<pdfrwt beam="1">  1        1 0.19909414E+00 0.99951744E+03</pdfrwt>
<pdfrwt beam="2">  1       -1 0.29691735E-01 0.99951744E+03</pdfrwt>
<totfact> 0.95073565E+01</totfact>
</mgrwt>
</event>
<event>
12    1  0.4612066E-007  0.1733645E+04  0.7818608E-02  0.8742404E-01
          1   -1    0    0  501    0  0.00000000000E+00  0.00000000000E+00  0.10006428786E+04  0.10006428786E+04  0.00000000000E+00 0. -1.
         -1   -1    0    0    0  501 -0.00000000000E+00 -0.00000000000E+00 -0.75089885214E+03  0.75089885214E+03  0.00000000000E+00 0.  1.
         23    2    1    2    0    0  0.13761568261E+03 -0.17596008617E+02  0.68866135146E+03  0.70603646788E+03  0.70606949815E+02 0.  0.
        254    2    1    2    0    0 -0.13761568261E+03  0.17596008617E+02 -0.43891732500E+03  0.10455052629E+04  0.93871462163E+03 0.  0.
        -24    2    4    4    0    0  0.30669004146E+03  0.23440119366E+03 -0.36850011222E+03  0.54011533568E+03  0.83243870759E+02 0.  0.
         24    2    4    4    0    0 -0.44430572407E+03 -0.21680518504E+03 -0.70417212782E+02  0.50538992717E+03  0.77771009591E+02 0.  0.
         11    1    3    3    0    0  0.33681336205E+02  0.20436437738E+01  0.62718143348E+02  0.71219199613E+02  0.00000000000E+00 0.  1.
        -11    1    3    3    0    0  0.10393434640E+03 -0.19639652391E+02  0.62594320811E+03  0.63481726827E+03  0.00000000000E+00 0. -1.
          2    1    6    6  502    0 -0.30831801680E+03 -0.11058502720E+03 -0.55149353587E+02  0.33216035123E+03  0.00000000000E+00 0. -1.
          3    1    5    5  503    0  0.23735299642E+03  0.20959161303E+03 -0.32869104687E+03  0.45640211816E+03  0.00000000000E+00 0. -1.
         -4    1    5    5    0  503  0.69337045037E+02  0.24809580627E+02 -0.39809065346E+02  0.83713217529E+02  0.00000000000E+00 0.  1.
         -1    1    6    6    0  502 -0.13598770727E+03 -0.10622015784E+03 -0.15267859196E+02  0.17322957595E+03  0.00000000000E+00 0.  1.
<mgrwt>
<rscale>  0 0.17336454E+04</rscale>
<asrwt>0</asrwt>
<pdfrwt beam="1">  1        1 0.15394506E+00 0.17336454E+04</pdfrwt>
<pdfrwt beam="2">  1       -1 0.11552290E+00 0.17336454E+04</pdfrwt>
<totfact> 0.97391884E+00</totfact>
</mgrwt>
</event>
<event>
12    1  0.4612066E-007  0.1536321E+04  0.7818608E-02  0.8860653E-01
          2   -1    0    0  501    0  0.00000000000E+00  0.00000000000E+00  0.19413872747E+03  0.19413872747E+03  0.00000000000E+00 0. -1.
         -2   -1    0    0    0  501 -0.00000000000E+00 -0.00000000000E+00 -0.30394263280E+04  0.30394263280E+04  0.00000000000E+00 0.  1.
         23    2    1    2    0    0 -0.84790463308E+02  0.38600257490E+03 -0.15132585349E+04  0.15663385687E+04  0.85309483086E+02 0.  0.
        254    2    1    2    0    0  0.84790463308E+02 -0.38600257490E+03 -0.13320290656E+04  0.16672264867E+04  0.92149623762E+03 0.  0.
        -24    2    4    4    0    0  0.13042596620E+03 -0.35392112553E+03 -0.14579572594E+04  0.15080121428E+04  0.78677549378E+02 0.  0.
         24    2    4    4    0    0 -0.45635502892E+02 -0.32081449366E+02  0.12592819382E+03  0.15921434392E+03  0.79871639478E+02 0.  0.
         11    1    3    3    0    0 -0.54517805718E+02  0.24443672915E+03 -0.11094171784E+04  0.11373337160E+04  0.00000000000E+00 0.  1.
        -11    1    3    3    0    0 -0.30272657590E+02  0.14156584575E+03 -0.40384135646E+03  0.42900485274E+03  0.00000000000E+00 0. -1.
          2    1    6    6  502    0 -0.11283288361E+02 -0.24305348128E+02 -0.16656868291E+01  0.26848408825E+02  0.00000000000E+00 0. -1.
          3    1    5    5  503    0  0.97437555898E+02 -0.15628030315E+03 -0.74580430778E+03  0.76820679245E+03  0.00000000000E+00 0. -1.
         -4    1    5    5    0  503  0.32988410302E+02 -0.19764082238E+03 -0.71215295166E+03  0.73980535038E+03  0.00000000000E+00 0.  1.
         -3    1    6    6    0  502 -0.34352214531E+02 -0.77761012385E+01  0.12759388065E+03  0.13236593510E+03  0.00000000000E+00 0.  1.
<mgrwt>
<rscale>  0 0.15363207E+04</rscale>
<asrwt>0</asrwt>
<pdfrwt beam="1">  1        2 0.29867493E-01 0.15363207E+04</pdfrwt>
<pdfrwt beam="2">  1       -2 0.46760410E+00 0.15363207E+04</pdfrwt>
<totfact> 0.46142937E-01</totfact>
</mgrwt>
</event>
<event>
12    1  0.4612066E-007  0.1266339E+04  0.7818608E-02  0.9056693E-01
         -2   -1    0    0    0  501 -0.00000000000E+00  0.00000000000E+00  0.19740367565E+03  0.19740367565E+03  0.00000000000E+00 0.  1.
          2   -1    0    0  501    0  0.00000000000E+00 -0.00000000000E+00 -0.20308814173E+04  0.20308814173E+04  0.00000000000E+00 0. -1.
         23    2    1    2    0    0  0.29028888581E+03 -0.77230413768E+02 -0.48906371851E+03  0.58138913381E+03  0.92724484947E+02 0.  0.
        254    2    1    2    0    0 -0.29028888581E+03  0.77230413768E+02 -0.13444140231E+04  0.16468959591E+04  0.90254366132E+03 0.  0.
        -24    2    4    4    0    0 -0.25412881837E+03 -0.92819254774E+02 -0.14152815172E+04  0.14431028527E+04  0.79543698594E+02 0.  0.
         24    2    4    4    0    0 -0.36160067443E+02  0.17004966854E+03  0.70867494146E+02  0.20379310643E+03  0.79277917806E+02 0.  0.
         13    1    3    3    0    0  0.12360336793E+03  0.47600478727E+01 -0.24722128256E+03  0.27643952895E+03  0.00000000000E+00 0. -1.
        -13    1    3    3    0    0  0.16668551789E+03 -0.81990461640E+02 -0.24184243596E+03  0.30494960486E+03  0.00000000000E+00 0.  1.
          4    1    6    6  502    0 -0.43985617427E+02  0.38119684184E+02  0.29846489339E+02  0.65411449981E+02  0.00000000000E+00 0. -1.
          3    1    5    5  503    0 -0.23604831789E+03 -0.98287476158E+02 -0.13755091088E+04  0.13990727446E+04  0.00000000000E+00 0. -1.
         -4    1    5    5    0  503 -0.18080500483E+02  0.54682213839E+01 -0.39772408477E+02  0.44030108095E+02  0.00000000000E+00 0.  1.
         -3    1    6    6    0  502  0.78255499841E+01  0.13192998436E+03  0.41021004807E+02  0.13838165644E+03  0.00000000000E+00 0.  1.
<mgrwt>
<rscale>  0 0.12663387E+04</rscale>
<asrwt>0</asrwt>
<pdfrwt beam="1">  1        2 0.31244329E+00 0.12663387E+04</pdfrwt>
<pdfrwt beam="2">  1       -2 0.30369796E-01 0.12663387E+04</pdfrwt>
<totfact> 0.63303999E+01</totfact>
</mgrwt>
</event>
<event>
12    1  0.4612066E-007  0.1321246E+04  0.7818608E-02  0.9012884E-01
         -2   -1    0    0    0  501 -0.00000000000E+00  0.00000000000E+00  0.54807400413E+03  0.54807400413E+03  0.00000000000E+00 0.  1.
          2   -1    0    0  501    0  0.00000000000E+00 -0.00000000000E+00 -0.79628479022E+03  0.79628479022E+03  0.00000000000E+00 0. -1.
         23    2    1    2    0    0  0.13025538971E+03 -0.27605863766E+03  0.84191076355E+02  0.32890668723E+03  0.88975466232E+02 0.  0.
        254    2    1    2    0    0 -0.13025538971E+03  0.27605863766E+03 -0.33240186244E+03  0.10154521071E+04  0.90965770800E+03 0.  0.
        -24    2    4    4    0    0 -0.18810317562E+03 -0.21648473846E+03 -0.41004800892E+03  0.50687178221E+03  0.80815761599E+02 0.  0.
         24    2    4    4    0    0  0.57847785906E+02  0.49254337611E+03  0.77646146475E+02  0.50858032491E+03  0.81729304040E+02 0.  0.
         13    1    3    3    0    0  0.32893211254E+02 -0.69538193514E+02 -0.17616698362E+02  0.78916866163E+02  0.00000000000E+00 0. -1.
        -13    1    3    3    0    0  0.97362178456E+02 -0.20652044414E+03  0.10180777472E+03  0.24998982106E+03  0.00000000000E+00 0.  1.
          4    1    6    6  502    0  0.25755655339E+02  0.41115389370E+02 -0.41011389050E+01  0.48689304424E+02  0.00000000000E+00 0. -1.
          3    1    5    5  503    0 -0.37552339577E+02 -0.31774232406E+02 -0.13095323720E+03  0.13988756337E+03  0.00000000000E+00 0. -1.
         -4    1    5    5    0  503 -0.15055083604E+03 -0.18471050605E+03 -0.27909477172E+03  0.36698421884E+03  0.00000000000E+00 0.  1.
         -3    1    6    6    0  502  0.32092130567E+02  0.45142798674E+03  0.81747285380E+02  0.45989102049E+03  0.00000000000E+00 0.  1.
<mgrwt>
<rscale>  0 0.13212464E+04</rscale>
<asrwt>0</asrwt>
<pdfrwt beam="1">  1        2 0.12250535E+00 0.13212464E+04</pdfrwt>
<pdfrwt beam="2">  1       -2 0.84319078E-01 0.13212464E+04</pdfrwt>
<totfact> 0.41646712E+01</totfact>
</mgrwt>
</event>
<event>
12    1  0.4612066E-007  0.1410268E+04  0.7818608E-02  0.8946420E-01
         -2   -1    0    0    0  501 -0.00000000000E+00  0.00000000000E+00  0.16865936743E+03  0.16865936743E+03  0.00000000000E+00 0. -1.
          2   -1    0    0  501    0  0.00000000000E+00 -0.00000000000E+00 -0.29480355168E+04  0.29480355168E+04  0.00000000000E+00 0.  1.
         23    2    1    2    0    0  0.31137837841E+02 -0.35730033360E+03 -0.12632169641E+04  0.13179419512E+04  0.11234231178E+03 0.  0.
        254    2    1    2    0    0 -0.31137837841E+02  0.35730033360E+03 -0.15161591853E+04  0.17987529330E+04  0.89896626502E+03 0.  0.
        -24    2    4    4    0    0  0.10625785877E+03  0.56651692300E+03 -0.13907392559E+04  0.15075897381E+04  0.80243279523E+02 0.  0.
         24    2    4    4    0    0 -0.13739569661E+03 -0.20921658940E+03 -0.12541992940E+03  0.29116319496E+03  0.79979301590E+02 0.  0.
         13    1    3    3    0    0  0.16412762424E+02 -0.93290088606E+02 -0.18580078994E+03  0.20855299792E+03  0.00000000000E+00 0. -1.
        -13    1    3    3    0    0  0.14725075418E+02 -0.26401024500E+03 -0.10774161742E+04  0.11093889533E+04  0.00000000000E+00 0.  1.
          4    1    6    6  502    0 -0.20404353286E+02 -0.10196136481E+03 -0.46432367969E+02  0.11387898113E+03  0.00000000000E+00 0. -1.
          3    1    5    5  503    0 -0.18199616028E+01  0.17268872963E+03 -0.37655018295E+03  0.41426410644E+03  0.00000000000E+00 0. -1.
         -4    1    5    5    0  503  0.10807782037E+03  0.39382819337E+03 -0.10141890729E+04  0.10933256316E+04  0.00000000000E+00 0.  1.
         -3    1    6    6    0  502 -0.11699134332E+03 -0.10725522458E+03 -0.78987561428E+02  0.17728421383E+03  0.00000000000E+00 0.  1.
<mgrwt>
<rscale>  0 0.14102678E+04</rscale>
<asrwt>0</asrwt>
<pdfrwt beam="1">  1        2 0.45354392E+00 0.14102678E+04</pdfrwt>
<pdfrwt beam="2">  1       -2 0.25947595E-01 0.14102678E+04</pdfrwt>
<totfact> 0.24667045E+01</totfact>
</mgrwt>
</event>
<event>
12    1  0.4612066E-007  0.1367406E+04  0.7818608E-02  0.8977756E-01
          1   -1    0    0  501    0  0.00000000000E+00  0.00000000000E+00  0.39107194102E+03  0.39107194102E+03  0.00000000000E+00 0. -1.
         -1   -1    0    0    0  501 -0.00000000000E+00 -0.00000000000E+00 -0.11953032431E+04  0.11953032431E+04  0.00000000000E+00 0.  1.
         23    2    1    2    0    0 -0.11304862488E+03 -0.73969761586E+02 -0.64333386685E+03  0.66384940003E+03  0.92552927972E+02 0.  0.
        254    2    1    2    0    0  0.11304862488E+03  0.73969761586E+02 -0.16089743520E+03  0.92252578405E+03  0.89828409781E+03 0.  0.
        -24    2    4    4    0    0  0.80873523770E+02 -0.18253594456E+03 -0.46698322365E+03  0.51413466805E+03  0.80007673476E+02 0.  0.
         24    2    4    4    0    0  0.32175101105E+02  0.25650570615E+03  0.30608578845E+03  0.40839111601E+03  0.79147832088E+02 0.  0.
         11    1    3    3    0    0 -0.24916537294E+02 -0.42107232349E+01 -0.25593062278E+02  0.35966218284E+02  0.00000000000E+00 0. -1.
        -11    1    3    3    0    0 -0.88132087581E+02 -0.69759038351E+02 -0.61774080457E+03  0.62788318175E+03  0.00000000000E+00 0.  1.
          2    1    6    6  502    0  0.50621069815E+02  0.20215181088E+03  0.20606597007E+03  0.29307171712E+03  0.00000000000E+00 0. -1.
          1    1    5    5  503    0  0.92540494668E+02 -0.12143735255E+03 -0.32149336080E+03  0.35590554194E+03  0.00000000000E+00 0. -1.
         -2    1    5    5    0  503 -0.11666970898E+02 -0.61098592018E+02 -0.14548986285E+03  0.15822912610E+03  0.00000000000E+00 0.  1.
         -1    1    6    6    0  502 -0.18445968710E+02  0.54353895272E+02  0.10001981838E+03  0.11531939889E+03  0.00000000000E+00 0.  1.
<mgrwt>
<rscale>  0 0.13674057E+04</rscale>
<asrwt>0</asrwt>
<pdfrwt beam="1">  1        1 0.60164914E-01 0.13674057E+04</pdfrwt>
<pdfrwt beam="2">  1       -1 0.18389281E+00 0.13674057E+04</pdfrwt>
<totfact> 0.11795359E+01</totfact>
</mgrwt>
</event>
<event>
12    1  0.4612066E-007  0.2630158E+04  0.7818608E-02  0.8358029E-01
          2   -1    0    0  501    0  0.00000000000E+00  0.00000000000E+00  0.12397789673E+04  0.12397789673E+04  0.00000000000E+00 0.  1.
         -2   -1    0    0    0  501 -0.00000000000E+00 -0.00000000000E+00 -0.13949529449E+04  0.13949529449E+04  0.00000000000E+00 0. -1.
         23    2    1    2    0    0  0.58375431573E+03 -0.67657881524E+03 -0.80913733992E+03  0.12088531526E+04  0.89970635654E+02 0.  0.
        254    2    1    2    0    0 -0.58375431573E+03  0.67657881524E+03  0.65396336234E+03  0.14258787596E+04  0.89829514274E+03 0.  0.
        -24    2    4    4    0    0 -0.18808374884E+03  0.66493027525E+03  0.73755659542E+03  0.10138874326E+04  0.80437721494E+02 0.  0.
         24    2    4    4    0    0 -0.39567056689E+03  0.11648539990E+02 -0.83593233086E+02  0.41199132700E+03  0.77834047294E+02 0.  0.
         11    1    3    3    0    0  0.14765566873E+03 -0.11717955171E+03 -0.18313316841E+03  0.26281362449E+03  0.00000000000E+00 0.  1.
        -11    1    3    3    0    0  0.43609864701E+03 -0.55939926353E+03 -0.62600417151E+03  0.94603952809E+03  0.00000000000E+00 0. -1.
          4    1    6    6  502    0 -0.22782065554E+03 -0.27277163069E+02 -0.66224786172E+02  0.23881377058E+03  0.00000000000E+00 0. -1.
          3    1    5    5  503    0 -0.13174746200E+03  0.31961182302E+03  0.35793799247E+03  0.49762306781E+03  0.00000000000E+00 0. -1.
         -4    1    5    5    0  503 -0.56336286848E+02  0.34531845223E+03  0.37961860295E+03  0.51626436481E+03  0.00000000000E+00 0.  1.
         -3    1    6    6    0  502 -0.16784991135E+03  0.38925703059E+02 -0.17368446914E+02  0.17317755642E+03  0.00000000000E+00 0.  1.
<mgrwt>
<rscale>  0 0.26301584E+04</rscale>
<asrwt>0</asrwt>
<pdfrwt beam="1">  1        2 0.19073523E+00 0.26301584E+04</pdfrwt>
<pdfrwt beam="2">  1       -2 0.21460814E+00 0.26301584E+04</pdfrwt>
<totfact> 0.16928068E+00</totfact>
</mgrwt>
</event>
<event>
12    1  0.4612066E-007  0.2025213E+04  0.7818608E-02  0.8594923E-01
         -1   -1    0    0    0  501 -0.00000000000E+00  0.00000000000E+00  0.36836432533E+03  0.36836432533E+03  0.00000000000E+00 0.  1.
          1   -1    0    0  501    0  0.00000000000E+00 -0.00000000000E+00 -0.27835817990E+04  0.27835817990E+04  0.00000000000E+00 0. -1.
         23    2    1    2    0    0  0.30262487197E+03  0.41523689230E+02 -0.21684353562E+04  0.21915468359E+04  0.86369036212E+02 0.  0.
        254    2    1    2    0    0 -0.30262487197E+03 -0.41523689230E+02 -0.24678211749E+03  0.96039928837E+03  0.87644700335E+03 0.  0.
        -24    2    4    4    0    0 -0.47860951771E+03 -0.28958725971E+03 -0.30188724022E+03  0.64169727929E+03  0.87815949643E+02 0.  0.
         24    2    4    4    0    0  0.17598464574E+03  0.24806357048E+03  0.55105122732E+02  0.31870200907E+03  0.77641905569E+02 0.  0.
         11    1    3    3    0    0  0.27206892267E+03  0.84293669581E+01 -0.18863121057E+04  0.19058504435E+04  0.00000000000E+00 0. -1.
        -11    1    3    3    0    0  0.30555949303E+02  0.33094322272E+02 -0.28212325045E+03  0.28569639244E+03  0.00000000000E+00 0.  1.
          4    1    6    6  502    0  0.36798996414E+02  0.11725794557E+03  0.21883440216E+02  0.12482979168E+03  0.00000000000E+00 0. -1.
          3    1    5    5  503    0 -0.32758541158E+03 -0.23900438357E+03 -0.19557608613E+03  0.45020584482E+03  0.00000000000E+00 0. -1.
         -4    1    5    5    0  503 -0.15102410613E+03 -0.50582876145E+02 -0.10631115410E+03  0.19149143447E+03  0.00000000000E+00 0.  1.
         -3    1    6    6    0  502  0.13918564932E+03  0.13080562492E+03  0.33221682516E+02  0.19387221739E+03  0.00000000000E+00 0.  1.
<mgrwt>
<rscale>  0 0.20252133E+04</rscale>
<asrwt>0</asrwt>
<pdfrwt beam="1">  1        1 0.42824335E+00 0.20252133E+04</pdfrwt>
<pdfrwt beam="2">  1       -1 0.56671436E-01 0.20252133E+04</pdfrwt>
<totfact> 0.25003291E+00</totfact>
</mgrwt>
</event>
<event>
12    1  0.4612066E-007  0.3708272E+04  0.7818608E-02  0.8066131E-01
         -2   -1    0    0    0  501 -0.00000000000E+00  0.00000000000E+00  0.11856325579E+04  0.11856325579E+04  0.00000000000E+00 0.  1.
          2   -1    0    0  501    0  0.00000000000E+00 -0.00000000000E+00 -0.28995666678E+04  0.28995666678E+04  0.00000000000E+00 0. -1.
         23    2    1    2    0    0  0.15935832778E+03 -0.11147795824E+04 -0.22511233425E+04  0.25188100152E+04  0.93375562182E+02 0.  0.
        254    2    1    2    0    0 -0.15935832778E+03  0.11147795824E+04  0.53718923259E+03  0.15663892105E+04  0.94703447299E+03 0.  0.
        -24    2    4    4    0    0  0.11673727957E+03  0.81372337542E+03  0.73484668654E+03  0.11050150853E+04  0.72700494875E+02 0.  0.
         24    2    4    4    0    0 -0.27609560735E+03  0.30105620702E+03 -0.19765745395E+03  0.46137412514E+03  0.83270583438E+02 0.  0.
         13    1    3    3    0    0  0.12599228806E+03 -0.69879325205E+03 -0.14988598748E+04  0.16585436352E+04  0.00000000000E+00 0. -1.
        -13    1    3    3    0    0  0.33366039720E+02 -0.41598633039E+03 -0.75226346773E+03  0.86026638000E+03  0.00000000000E+00 0.  1.
          4    1    6    6  502    0 -0.27730689482E+03  0.29509832509E+03 -0.18084123024E+03  0.44349259964E+03  0.00000000000E+00 0. -1.
          3    1    5    5  503    0  0.85994296062E+02  0.62460157871E+03  0.52113721587E+03  0.81798908847E+03  0.00000000000E+00 0. -1.
         -4    1    5    5    0  503  0.30742983508E+02  0.18912179671E+03  0.21370947067E+03  0.28702599687E+03  0.00000000000E+00 0.  1.
         -3    1    6    6    0  502  0.12112874644E+01  0.59578819335E+01 -0.16816223710E+02  0.17881525503E+02  0.00000000000E+00 0.  1.
<mgrwt>
<rscale>  0 0.37082722E+04</rscale>
<asrwt>0</asrwt>
<pdfrwt beam="1">  1        2 0.44608717E+00 0.37082722E+04</pdfrwt>
<pdfrwt beam="2">  1       -2 0.18240501E+00 0.37082722E+04</pdfrwt>
<totfact> 0.28331356E-01</totfact>
</mgrwt>
</event>
<event>
12    1  0.4612066E-007  0.1839118E+04  0.7818608E-02  0.8685769E-01
          1   -1    0    0  501    0  0.00000000000E+00  0.00000000000E+00  0.78471230179E+03  0.78471230179E+03  0.00000000000E+00 0. -1.
         -1   -1    0    0    0  501 -0.00000000000E+00 -0.00000000000E+00 -0.10775785667E+04  0.10775785667E+04  0.00000000000E+00 0.  1.
         23    2    1    2    0    0 -0.68357763476E+03 -0.54635157788E+02 -0.17613846221E+03  0.71347691124E+03  0.88097456240E+02 0.  0.
        254    2    1    2    0    0  0.68357763476E+03  0.54635157788E+02 -0.11672780274E+03  0.11488139573E+04  0.91426732705E+03 0.  0.
        -24    2    4    4    0    0  0.32788176864E+03 -0.12989314346E+03 -0.48056438953E+03  0.60163929688E+03  0.81541573094E+02 0.  0.
         24    2    4    4    0    0  0.35569586612E+03  0.18452830125E+03  0.36383658679E+03  0.54717466041E+03  0.80329346879E+02 0.  0.
         11    1    3    3    0    0 -0.55861137439E+03 -0.46875428573E+02 -0.10783942345E+03  0.57085314631E+03  0.00000000000E+00 0. -1.
        -11    1    3    3    0    0 -0.12496626037E+03 -0.77597292154E+01 -0.68299038757E+02  0.14262376493E+03  0.00000000000E+00 0.  1.
          2    1    6    6  502    0  0.78008831138E+02  0.40761182891E+02  0.12877504732E+03  0.15598033394E+03  0.00000000000E+00 0. -1.
          3    1    5    5  503    0  0.17913275366E+03 -0.53471654627E+02 -0.19105539940E+03  0.26730119140E+03  0.00000000000E+00 0. -1.
         -4    1    5    5    0  503  0.14874901498E+03 -0.76421488833E+02 -0.28950899013E+03  0.33433810548E+03  0.00000000000E+00 0.  1.
         -1    1    6    6    0  502  0.27768703498E+03  0.14376711836E+03  0.23506153947E+03  0.39119432646E+03  0.00000000000E+00 0.  1.
<mgrwt>
<rscale>  0 0.18391184E+04</rscale>
<asrwt>0</asrwt>
<pdfrwt beam="1">  1        1 0.12072497E+00 0.18391184E+04</pdfrwt>
<pdfrwt beam="2">  1       -1 0.16578132E+00 0.18391184E+04</pdfrwt>
<totfact> 0.56705783E+00</totfact>
</mgrwt>
</event>
<event>
12    1  0.4612066E-007  0.3526940E+04  0.7818608E-02  0.8107435E-01
         -2   -1    0    0    0  501 -0.00000000000E+00  0.00000000000E+00  0.95584802325E+03  0.95584802325E+03  0.00000000000E+00 0.  1.
          2   -1    0    0  501    0  0.00000000000E+00 -0.00000000000E+00 -0.32534728822E+04  0.32534728822E+04  0.00000000000E+00 0. -1.
         23    2    1    2    0    0  0.12738347179E+04  0.34262683609E+03 -0.22499521215E+04  0.26097136851E+04  0.90955658011E+02 0.  0.
        254    2    1    2    0    0 -0.12738347179E+04 -0.34262683609E+03 -0.47672737474E+02  0.15996072204E+04  0.90356102859E+03 0.  0.
        -24    2    4    4    0    0 -0.43558459123E+03 -0.52322728707E+03  0.17982687033E+03  0.70874435680E+03  0.80499254326E+02 0.  0.
         24    2    4    4    0    0 -0.83825012664E+03  0.18060045098E+03 -0.22749960781E+03  0.89086286360E+03  0.81245138206E+02 0.  0.
         13    1    3    3    0    0  0.68967447288E+03  0.19347851401E+03 -0.13093633662E+04  0.14924869308E+04  0.00000000000E+00 0.  1.
        -13    1    3    3    0    0  0.58416024499E+03  0.14914832208E+03 -0.94058875530E+03  0.11172267542E+04  0.00000000000E+00 0. -1.
          2    1    6    6  502    0 -0.26497745483E+03  0.70063426150E+02 -0.10994702708E+03  0.29531387372E+03  0.00000000000E+00 0. -1.
          1    1    5    5  503    0 -0.22433665464E+02 -0.26323579684E+02 -0.85411089008E+01  0.35625141891E+02  0.00000000000E+00 0. -1.
         -2    1    5    5    0  503 -0.41315092577E+03 -0.49690370739E+03  0.18836797923E+03  0.67311921491E+03  0.00000000000E+00 0.  1.
         -1    1    6    6    0  502 -0.57327267182E+03  0.11053702483E+03 -0.11755258073E+03  0.59554898988E+03  0.00000000000E+00 0.  1.
<mgrwt>
<rscale>  0 0.35269395E+04</rscale>
<asrwt>0</asrwt>
<pdfrwt beam="1">  1        2 0.50053430E+00 0.35269395E+04</pdfrwt>
<pdfrwt beam="2">  1       -2 0.14705354E+00 0.35269395E+04</pdfrwt>
<totfact> 0.30929030E-01</totfact>
</mgrwt>
</event>
<event>
12    1  0.4866689E-007  0.1851318E+04  0.7818608E-02  0.8679475E-01
         -2   -1    0    0    0  501 -0.00000000000E+00  0.00000000000E+00  0.96859953530E+03  0.96859953530E+03  0.00000000000E+00 0. -1.
          2   -1    0    0  501    0  0.00000000000E+00 -0.00000000000E+00 -0.88462179882E+03  0.88462179882E+03  0.00000000000E+00 0.  1.
         23    2    1    2    0    0 -0.26667781586E+03  0.17308378758E+03  0.65765663595E+03  0.73610272123E+03  0.90884049182E+02 0.  0.
        254    2    1    2    0    0  0.26667781586E+03 -0.17308378758E+03 -0.57367889947E+03  0.11171186129E+04  0.90430717158E+03 0.  0.
        -24    2    4    4    0    0  0.12803280318E+03 -0.28688513513E+03 -0.77246594655E+03  0.83773297632E+03  0.79983883351E+02 0.  0.
         24    2    4    4    0    0  0.13864501268E+03  0.11380134756E+03  0.19878704708E+03  0.27938563656E+03  0.79792591061E+02 0.  0.
         13    1    3    3    0    0 -0.17352063542E+03  0.16054832194E+03  0.45713338348E+03  0.51464172478E+03  0.00000000000E+00 0. -1.
        -13    1    3    3    0    0 -0.93157180435E+02  0.12535465641E+02  0.20052325247E+03  0.22146099645E+03  0.00000000000E+00 0.  1.
          4    1    6    6  502    0  0.10733571263E+03  0.11939821128E+03  0.18433380594E+03  0.24445007686E+03  0.00000000000E+00 0. -1.
          3    1    5    5  503    0  0.11627170665E+03 -0.27117429273E+03 -0.75786005540E+03  0.81326900247E+03  0.00000000000E+00 0. -1.
         -4    1    5    5    0  503  0.11761096536E+02 -0.15710842402E+02 -0.14605891150E+02  0.24463973859E+02  0.00000000000E+00 0.  1.
         -1    1    6    6    0  502  0.31309300045E+02 -0.55968637221E+01  0.14453241134E+02  0.34935559708E+02  0.00000000000E+00 0.  1.
<mgrwt>
<rscale>  0 0.18513177E+04</rscale>
<asrwt>0</asrwt>
<pdfrwt beam="1">  1        2 0.13609566E+00 0.18513177E+04</pdfrwt>
<pdfrwt beam="2">  1       -2 0.14901531E+00 0.18513177E+04</pdfrwt>
<totfact> 0.86084253E+00</totfact>
</mgrwt>
</event>
<event>
12    1  0.4612066E-007  0.1561435E+04  0.7818608E-02  0.8844596E-01
         -2   -1    0    0    0  501 -0.00000000000E+00  0.00000000000E+00  0.25996437008E+03  0.25996437008E+03  0.00000000000E+00 0.  1.
          2   -1    0    0  501    0  0.00000000000E+00 -0.00000000000E+00 -0.23446297236E+04  0.23446297236E+04  0.00000000000E+00 0. -1.
         23    2    1    2    0    0 -0.43390547085E+03 -0.22831375451E+03 -0.44880202657E+03  0.67076265550E+03  0.89989737322E+02 0.  0.
        254    2    1    2    0    0  0.43390547085E+03  0.22831375451E+03 -0.16358633269E+04  0.19338314382E+04  0.90733349914E+03 0.  0.
        -24    2    4    4    0    0 -0.99097200231E+02  0.33248510726E+03 -0.11388976543E+04  0.11933610676E+04  0.81585348703E+02 0.  0.
         24    2    4    4    0    0  0.53300267108E+03 -0.10417135275E+03 -0.49696567266E+03  0.74047037055E+03  0.79862204740E+02 0.  0.
         11    1    3    3    0    0 -0.10267036160E+03 -0.97716272556E+02 -0.14419502842E+03  0.20219267864E+03  0.00000000000E+00 0. -1.
        -11    1    3    3    0    0 -0.33123510925E+03 -0.13059748196E+03 -0.30460699815E+03  0.46856997686E+03  0.00000000000E+00 0.  1.
          2    1    6    6  502    0  0.16827501825E+03 -0.71098251773E+02 -0.16207380027E+03  0.24421171124E+03  0.00000000000E+00 0. -1.
          1    1    5    5  503    0  0.12747521193E+02  0.35530503279E+02 -0.15644169384E+03  0.16093141250E+03  0.00000000000E+00 0. -1.
         -2    1    5    5    0  503 -0.11184472142E+03  0.29695460398E+03 -0.98245596044E+03  0.10324296551E+04  0.00000000000E+00 0.  1.
         -1    1    6    6    0  502  0.36472765283E+03 -0.33073100977E+02 -0.33489187239E+03  0.49625865931E+03  0.00000000000E+00 0.  1.
<mgrwt>
<rscale>  0 0.15614355E+04</rscale>
<asrwt>0</asrwt>
<pdfrwt beam="1">  1        2 0.36071227E+00 0.15614355E+04</pdfrwt>
<pdfrwt beam="2">  1       -2 0.39994517E-01 0.15614355E+04</pdfrwt>
<totfact> 0.24366030E+01</totfact>
</mgrwt>
</event>
<event>
12    1  0.4612066E-007  0.1425612E+04  0.7818608E-02  0.8935485E-01
          2   -1    0    0  501    0  0.00000000000E+00  0.00000000000E+00  0.80628340379E+03  0.80628340379E+03  0.00000000000E+00 0. -1.
         -2   -1    0    0    0  501 -0.00000000000E+00 -0.00000000000E+00 -0.63016596500E+03  0.63016596500E+03  0.00000000000E+00 0.  1.
         23    2    1    2    0    0 -0.24595768249E+03 -0.28835764784E+03  0.22886969368E+03  0.45197236462E+03  0.90842539863E+02 0.  0.
        254    2    1    2    0    0  0.24595768249E+03  0.28835764784E+03 -0.52752254899E+02  0.98447700418E+03  0.90706496830E+03 0.  0.
        -24    2    4    4    0    0 -0.70372093606E+02 -0.18561489377E+03 -0.29122023447E+03  0.36163784395E+03  0.81040637102E+02 0.  0.
         24    2    4    4    0    0  0.31632977610E+03  0.47397254161E+03  0.23846797957E+03  0.62283916023E+03  0.79668970059E+02 0.  0.
         11    1    3    3    0    0 -0.15721575149E+03 -0.14727248058E+03  0.17266157207E+03  0.27607606655E+03  0.00000000000E+00 0. -1.
        -11    1    3    3    0    0 -0.88741931001E+02 -0.14108516726E+03  0.56208121608E+02  0.17589629806E+03  0.00000000000E+00 0.  1.
          2    1    6    6  502    0  0.79493875552E+02  0.11816029317E+03  0.98193921524E+02  0.17298317073E+03  0.00000000000E+00 0. -1.
          1    1    5    5  503    0 -0.13290939536E+02  0.22785952607E+01 -0.43397780921E+02  0.45444564680E+02  0.00000000000E+00 0. -1.
         -2    1    5    5    0  503 -0.57081154070E+02 -0.18789348903E+03 -0.24782245355E+03  0.31619327927E+03  0.00000000000E+00 0.  1.
         -1    1    6    6    0  502  0.23683590054E+03  0.35581224844E+03  0.14027405805E+03  0.44985598949E+03  0.00000000000E+00 0.  1.
<mgrwt>
<rscale>  0 0.14256120E+04</rscale>
<asrwt>0</asrwt>
<pdfrwt beam="1">  1        2 0.12404360E+00 0.14256120E+04</pdfrwt>
<pdfrwt beam="2">  1       -2 0.96948609E-01 0.14256120E+04</pdfrwt>
<totfact> 0.29437706E+01</totfact>
</mgrwt>
</event>
<event>
12    1  0.4612066E-007  0.1855850E+04  0.7818608E-02  0.8677150E-01
          2   -1    0    0  501    0  0.00000000000E+00  0.00000000000E+00  0.20987378378E+04  0.20987378378E+04  0.00000000000E+00 0. -1.
         -2   -1    0    0    0  501 -0.00000000000E+00 -0.00000000000E+00 -0.41026781322E+03  0.41026781322E+03  0.00000000000E+00 0.  1.
         23    2    1    2    0    0  0.73080305887E+03  0.45250680865E+02  0.66240866197E+03  0.99275993531E+03  0.10327787143E+03 0.  0.
        254    2    1    2    0    0 -0.73080305887E+03 -0.45250680865E+02  0.10260613626E+04  0.15162457157E+04  0.84266150714E+03 0.  0.
        -24    2    4    4    0    0 -0.65900308619E+03 -0.23809224717E+03  0.10791560686E+04  0.12891447621E+04  0.79645537216E+02 0.  0.
         24    2    4    4    0    0 -0.71799972679E+02  0.19284156631E+03 -0.53094705968E+02  0.22710095359E+03  0.80079270393E+02 0.  0.
         11    1    3    3    0    0  0.16642359398E+03 -0.32921072781E+02  0.15603044681E+03  0.23049101935E+03  0.00000000000E+00 0.  1.
        -11    1    3    3    0    0  0.56437946489E+03  0.78171753645E+02  0.50637821516E+03  0.76226891596E+03  0.00000000000E+00 0. -1.
          2    1    6    6  502    0 -0.95608805422E+01  0.57039255805E+02  0.19469356570E+02  0.61024118058E+02  0.00000000000E+00 0. -1.
          1    1    5    5  503    0 -0.46693065906E+02  0.37760419870E+01  0.69844910603E+02  0.84100014470E+02  0.00000000000E+00 0. -1.
         -2    1    5    5    0  503 -0.61231002029E+03 -0.24186828916E+03  0.10093111580E+04  0.12050447477E+04  0.00000000000E+00 0.  1.
         -1    1    6    6    0  502 -0.62239092136E+02  0.13580231050E+03 -0.72564062539E+02  0.16607683553E+03  0.00000000000E+00 0.  1.
<mgrwt>
<rscale>  0 0.18558498E+04</rscale>
<asrwt>0</asrwt>
<pdfrwt beam="1">  1        2 0.32288274E+00 0.18558498E+04</pdfrwt>
<pdfrwt beam="2">  1       -2 0.63118126E-01 0.18558498E+04</pdfrwt>
<totfact> 0.12862589E+01</totfact>
</mgrwt>
</event>
<event>
12    1  0.4612066E-007  0.3899861E+04  0.7818608E-02  0.8025058E-01
         -2   -1    0    0    0  501 -0.00000000000E+00  0.00000000000E+00  0.22260148558E+04  0.22260148558E+04  0.00000000000E+00 0.  1.
          2   -1    0    0  501    0  0.00000000000E+00 -0.00000000000E+00 -0.17080881419E+04  0.17080881419E+04  0.00000000000E+00 0. -1.
         23    2    1    2    0    0 -0.35348576689E+02  0.16483875079E+04  0.10818435703E+04  0.19740158723E+04  0.89007054830E+02 0.  0.
        254    2    1    2    0    0  0.35348576689E+02 -0.16483875079E+04 -0.56391685643E+03  0.19600871254E+04  0.89750120895E+03 0.  0.
        -24    2    4    4    0    0 -0.14700961841E+03 -0.15048655306E+04 -0.21133522723E+03  0.15288498980E+04  0.80544020828E+02 0.  0.
         24    2    4    4    0    0  0.18235819510E+03 -0.14352197726E+03 -0.35258162920E+03  0.43123722734E+03  0.88310088411E+02 0.  0.
         13    1    3    3    0    0 -0.71569050610E+00  0.60261646256E+03  0.44487766257E+03  0.74904155280E+03  0.00000000000E+00 0. -1.
        -13    1    3    3    0    0 -0.34632886183E+02  0.10457710453E+04  0.63696590769E+03  0.12249743195E+04  0.00000000000E+00 0.  1.
          4    1    6    6  502    0  0.37201644102E+02 -0.53920716050E+02 -0.16585176279E+03  0.17832053489E+03  0.00000000000E+00 0. -1.
          1    1    5    5  503    0 -0.75667505560E+02 -0.80190923935E+03 -0.72073292161E+02  0.80868940824E+03  0.00000000000E+00 0. -1.
         -2    1    5    5    0  503 -0.71342112855E+02 -0.70295629125E+03 -0.13926193507E+03  0.72016048977E+03  0.00000000000E+00 0.  1.
         -3    1    6    6    0  502  0.14515655100E+03 -0.89601261212E+02 -0.18672986641E+03  0.25291669245E+03  0.00000000000E+00 0.  1.
<mgrwt>
<rscale>  0 0.38998613E+04</rscale>
<asrwt>0</asrwt>
<pdfrwt beam="1">  1        2 0.26278279E+00 0.38998613E+04</pdfrwt>
<pdfrwt beam="2">  1       -2 0.34246383E+00 0.38998613E+04</pdfrwt>
<totfact> 0.13390937E-01</totfact>
</mgrwt>
</event>
<event>
12    1  0.4612066E-007  0.1932667E+04  0.7818608E-02  0.8638765E-01
         -1   -1    0    0    0  501 -0.00000000000E+00  0.00000000000E+00  0.14917914825E+04  0.14917914825E+04  0.00000000000E+00 0.  1.
          1   -1    0    0  501    0  0.00000000000E+00 -0.00000000000E+00 -0.62595914007E+03  0.62595914007E+03  0.00000000000E+00 0. -1.
         23    2    1    2    0    0 -0.63409787383E+03 -0.42601078545E+02  0.60484569041E+03  0.88187145357E+03  0.89241167187E+02 0.  0.
        254    2    1    2    0    0  0.63409787383E+03  0.42601078545E+02  0.26098665204E+03  0.12358791690E+04  0.10273209442E+04 0.  0.
        -24    2    4    4    0    0  0.79048575422E+03  0.33926064831E+03  0.19638408123E+03  0.88586677198E+03  0.78915874326E+02 0.  0.
         24    2    4    4    0    0 -0.15638788039E+03 -0.29665956977E+03  0.64602570808E+02  0.35001239704E+03  0.76623210993E+02 0.  0.
         13    1    3    3    0    0 -0.35651799247E+03 -0.41783016242E+02  0.28476999121E+03  0.45819738901E+03  0.00000000000E+00 0. -1.
        -13    1    3    3    0    0 -0.27757988136E+03 -0.81806230274E+00  0.32007569919E+03  0.42367406456E+03  0.00000000000E+00 0.  1.
          4    1    6    6  502    0 -0.55392301581E+02 -0.73941824505E+02 -0.13334756629E+02  0.93346216956E+02  0.00000000000E+00 0. -1.
          1    1    5    5  503    0  0.68009146964E+02  0.38424874574E+02  0.40107691870E+02  0.87808553136E+02  0.00000000000E+00 0. -1.
         -2    1    5    5    0  503  0.72247660726E+03  0.30083577374E+03  0.15627638936E+03  0.79805821884E+03  0.00000000000E+00 0.  1.
         -3    1    6    6    0  502 -0.10099557881E+03 -0.22271774526E+03  0.77937327437E+02  0.25666618009E+03  0.00000000000E+00 0.  1.
<mgrwt>
<rscale>  0 0.19326671E+04</rscale>
<asrwt>0</asrwt>
<pdfrwt beam="1">  1        1 0.96301407E-01 0.19326671E+04</pdfrwt>
<pdfrwt beam="2">  1       -1 0.22950638E+00 0.19326671E+04</pdfrwt>
<totfact> 0.28568054E+00</totfact>
</mgrwt>
</event>
<event>
12    1  0.4612066E-007  0.1339881E+04  0.7818608E-02  0.8998524E-01
         -1   -1    0    0    0  501 -0.00000000000E+00  0.00000000000E+00  0.65163268789E+03  0.65163268789E+03  0.00000000000E+00 0. -1.
          1   -1    0    0  501    0  0.00000000000E+00 -0.00000000000E+00 -0.68876253078E+03  0.68876253078E+03  0.00000000000E+00 0.  1.
         23    2    1    2    0    0 -0.16970516251E+03 -0.29571926444E+03  0.13755324493E+03  0.37905482197E+03  0.92260161055E+02 0.  0.
        254    2    1    2    0    0  0.16970516251E+03  0.29571926444E+03 -0.17468308783E+03  0.96134039670E+03  0.88170939181E+03 0.  0.
        -24    2    4    4    0    0 -0.35543897610E+03  0.14202549503E+03 -0.91182778967E+02  0.40144604690E+03  0.79602276459E+02 0.  0.
         24    2    4    4    0    0  0.52514413861E+03  0.15369376941E+03 -0.83500308862E+02  0.55989434981E+03  0.84328170208E+02 0.  0.
         11    1    3    3    0    0 -0.12235181711E+03 -0.12232580553E+03  0.77132768810E+02  0.18942817602E+03  0.00000000000E+00 0. -1.
        -11    1    3    3    0    0 -0.47353345401E+02 -0.17339345892E+03  0.60420476124E+02  0.18962664594E+03  0.00000000000E+00 0.  1.
          4    1    6    6  502    0  0.46542678799E+03  0.13363611041E+03 -0.10070168319E+03  0.49459229066E+03  0.00000000000E+00 0. -1.
          1    1    5    5  503    0 -0.30421620805E+03  0.11423628204E+03 -0.10510168090E+03  0.34153153984E+03  0.00000000000E+00 0. -1.
         -2    1    5    5    0  503 -0.51222768049E+02  0.27789212989E+02  0.13918901929E+02  0.59914507058E+02  0.00000000000E+00 0.  1.
         -3    1    6    6    0  502  0.59717350619E+02  0.20057659003E+02  0.17201374326E+02  0.65302059143E+02  0.00000000000E+00 0.  1.
<mgrwt>
<rscale>  0 0.13398809E+04</rscale>
<asrwt>0</asrwt>
<pdfrwt beam="1">  1        1 0.10596347E+00 0.13398809E+04</pdfrwt>
<pdfrwt beam="2">  1       -1 0.10025118E+00 0.13398809E+04</pdfrwt>
<totfact> 0.25932782E+01</totfact>
</mgrwt>
</event>
<event>
12    1  0.4612066E-007  0.2769255E+04  0.7818608E-02  0.8312878E-01
          2   -1    0    0  501    0  0.00000000000E+00  0.00000000000E+00  0.19606605354E+04  0.19606605354E+04  0.00000000000E+00 0.  1.
         -2   -1    0    0    0  501 -0.00000000000E+00 -0.00000000000E+00 -0.97783013175E+03  0.97783013175E+03  0.00000000000E+00 0. -1.
         23    2    1    2    0    0  0.25190552601E+03  0.46976419937E+03  0.16203631719E+04  0.17082209623E+04  0.91144118348E+02 0.  0.
        254    2    1    2    0    0 -0.25190552601E+03 -0.46976419937E+03 -0.63753276824E+03  0.12302697048E+04  0.90718284757E+03 0.  0.
        -24    2    4    4    0    0 -0.56134781100E+03 -0.26252532310E+03 -0.56503433555E+03  0.84243535187E+03  0.80016320502E+02 0.  0.
         24    2    4    4    0    0  0.30944228498E+03 -0.20723887627E+03 -0.72498432694E+02  0.38783435294E+03  0.80355354508E+02 0.  0.
         11    1    3    3    0    0  0.41475639816E+02  0.96294807104E+02  0.21983988717E+03  0.24356209591E+03  0.00000000000E+00 0. -1.
        -11    1    3    3    0    0  0.21042988620E+03  0.37346939227E+03  0.14005232847E+04  0.14646588664E+04  0.00000000000E+00 0.  1.
          2    1    6    6  502    0  0.29467378802E+03 -0.17399329444E+03 -0.78154207579E+02  0.35101907073E+03  0.00000000000E+00 0. -1.
          1    1    5    5  503    0 -0.41732064302E+03 -0.16847628755E+03 -0.44325212218E+03  0.63167493410E+03  0.00000000000E+00 0. -1.
         -2    1    5    5    0  503 -0.14402716798E+03 -0.94049035544E+02 -0.12178221337E+03  0.21076041776E+03  0.00000000000E+00 0.  1.
         -1    1    6    6    0  502  0.14768496963E+02 -0.33245581833E+02  0.56557748843E+01  0.36815282201E+02  0.00000000000E+00 0.  1.
<mgrwt>
<rscale>  0 0.27692547E+04</rscale>
<asrwt>0</asrwt>
<pdfrwt beam="1">  1        2 0.30164008E+00 0.27692547E+04</pdfrwt>
<pdfrwt beam="2">  1       -2 0.15043541E+00 0.27692547E+04</pdfrwt>
<totfact> 0.18225990E+00</totfact>
</mgrwt>
</event>
<event>
12    1  0.4612066E-007  0.1882599E+04  0.7818608E-02  0.8663567E-01
         -2   -1    0    0    0  501 -0.00000000000E+00  0.00000000000E+00  0.12666433333E+04  0.12666433333E+04  0.00000000000E+00 0.  1.
          2   -1    0    0  501    0  0.00000000000E+00 -0.00000000000E+00 -0.69952214778E+03  0.69952214778E+03  0.00000000000E+00 0. -1.
         23    2    1    2    0    0 -0.23230422473E+03 -0.56259983046E+03 -0.18042090020E+03  0.64070027814E+03  0.86378950717E+02 0.  0.
        254    2    1    2    0    0  0.23230422473E+03  0.56259983046E+03  0.74754208574E+03  0.13254652030E+04  0.90970050690E+03 0.  0.
        -24    2    4    4    0    0 -0.14994153046E+03  0.27000940760E+03  0.77318803176E+03  0.83673296484E+03  0.83155151704E+02 0.  0.
         24    2    4    4    0    0  0.38224575519E+03  0.29259042285E+03 -0.25645946012E+02  0.48873223812E+03  0.80501634289E+02 0.  0.
         13    1    3    3    0    0 -0.50941732077E+02 -0.18189840661E+03 -0.21761199572E+02  0.19014636520E+03  0.00000000000E+00 0.  1.
        -13    1    3    3    0    0 -0.18136249266E+03 -0.38070142385E+03 -0.15865970063E+03  0.45055391294E+03  0.00000000000E+00 0. -1.
          4    1    6    6  502    0  0.71279310515E+02  0.75640679231E+02  0.23027484123E+02  0.10645429765E+03  0.00000000000E+00 0. -1.
          3    1    5    5  503    0 -0.62871410546E+02  0.64695732069E+02  0.15236176021E+03  0.17706625309E+03  0.00000000000E+00 0. -1.
         -4    1    5    5    0  503 -0.87070119912E+02  0.20531367554E+03  0.62082627155E+03  0.65966671175E+03  0.00000000000E+00 0.  1.
         -3    1    6    6    0  502  0.31096644468E+03  0.21694974362E+03 -0.48673430135E+02  0.38227794047E+03  0.00000000000E+00 0.  1.
<mgrwt>
<rscale>  0 0.18825993E+04</rscale>
<asrwt>0</asrwt>
<pdfrwt beam="1">  1        2 0.10761879E+00 0.18825993E+04</pdfrwt>
<pdfrwt beam="2">  1       -2 0.19486821E+00 0.18825993E+04</pdfrwt>
<totfact> 0.55270658E+00</totfact>
</mgrwt>
</event>
<event>
12    1  0.4612066E-007  0.1594313E+04  0.7818608E-02  0.8824050E-01
         -1   -1    0    0    0  501 -0.00000000000E+00  0.00000000000E+00  0.30077187803E+03  0.30077187803E+03  0.00000000000E+00 0. -1.
          1   -1    0    0  501    0  0.00000000000E+00 -0.00000000000E+00 -0.21127584371E+04  0.21127584371E+04  0.00000000000E+00 0.  1.
         23    2    1    2    0    0 -0.49643701566E+03 -0.22159526139E+03 -0.46412267917E+03  0.72098162152E+03  0.94076919983E+02 0.  0.
        254    2    1    2    0    0  0.49643701566E+03  0.22159526139E+03 -0.13478638799E+04  0.16925486936E+04  0.86742715607E+03 0.  0.
        -24    2    4    4    0    0  0.58290706585E+03 -0.13329893486E+03 -0.10625701670E+04  0.12221915045E+04  0.84542655384E+02 0.  0.
         24    2    4    4    0    0 -0.86470050193E+02  0.35489419625E+03 -0.28529371289E+03  0.47035718903E+03  0.80102575120E+02 0.  0.
         13    1    3    3    0    0 -0.76732885814E+02 -0.87213640024E+01 -0.97771862539E+02  0.12459267659E+03  0.00000000000E+00 0.  1.
        -13    1    3    3    0    0 -0.41970412984E+03 -0.21287389739E+03 -0.36635081663E+03  0.59638894494E+03  0.00000000000E+00 0. -1.
          4    1    6    6  502    0 -0.75260768577E+02  0.25683680488E+03 -0.16362616461E+03  0.31369228453E+03  0.00000000000E+00 0. -1.
          1    1    5    5  503    0  0.55266865683E+03 -0.13346422474E+03 -0.10368094683E+04  0.11824674275E+04  0.00000000000E+00 0. -1.
         -2    1    5    5    0  503  0.30238409018E+02  0.16528987760E+00 -0.25760698650E+02  0.39724077026E+02  0.00000000000E+00 0.  1.
         -3    1    6    6    0  502 -0.11209281616E+02  0.98057391373E+02 -0.12166754828E+03  0.15666490450E+03  0.00000000000E+00 0.  1.
<mgrwt>
<rscale>  0 0.15943128E+04</rscale>
<asrwt>0</asrwt>
<pdfrwt beam="1">  1        1 0.32503976E+00 0.15943128E+04</pdfrwt>
<pdfrwt beam="2">  1       -1 0.46272596E-01 0.15943128E+04</pdfrwt>
<totfact> 0.11153806E+01</totfact>
</mgrwt>
</event>
<event>
12    1  0.4612066E-007  0.1749303E+04  0.7818608E-02  0.8733734E-01
          2   -1    0    0  501    0  0.00000000000E+00  0.00000000000E+00  0.15789395579E+04  0.15789395579E+04  0.00000000000E+00 0. -1.
         -2   -1    0    0    0  501 -0.00000000000E+00 -0.00000000000E+00 -0.48451210323E+03  0.48451210323E+03  0.00000000000E+00 0.  1.
         23    2    1    2    0    0 -0.83342178324E+02  0.33981904827E+03 -0.22631069027E+03  0.42643866058E+03  0.90611800840E+02 0.  0.
        254    2    1    2    0    0  0.83342178324E+02 -0.33981904827E+03  0.13207381450E+04  0.16370130006E+04  0.90168698128E+03 0.  0.
        -24    2    4    4    0    0 -0.34163149552E+03 -0.38018670633E+03  0.56937528027E+03  0.76914312932E+03  0.78351344536E+02 0.  0.
         24    2    4    4    0    0  0.42497367384E+03  0.40367658061E+02  0.75136286469E+03  0.86786987125E+03  0.80123577757E+02 0.  0.
         11    1    3    3    0    0 -0.18124853570E+02  0.98381170122E+02 -0.19512514162E+02  0.10192204453E+03  0.00000000000E+00 0. -1.
        -11    1    3    3    0    0 -0.65217324754E+02  0.24143787815E+03 -0.20679817611E+03  0.32451661605E+03  0.00000000000E+00 0.  1.
          2    1    6    6  502    0  0.18706002521E+03  0.29080259105E+02  0.25778490420E+03  0.31982834668E+03  0.00000000000E+00 0. -1.
          1    1    5    5  503    0 -0.66539434748E+02 -0.91961670163E+02  0.84176024674E+02  0.14131542126E+03  0.00000000000E+00 0. -1.
         -2    1    5    5    0  503 -0.27509206077E+03 -0.28822503617E+03  0.48519925560E+03  0.62782770806E+03  0.00000000000E+00 0.  1.
         -1    1    6    6    0  502  0.23791364863E+03  0.11287398956E+02  0.49357796049E+03  0.54804152458E+03  0.00000000000E+00 0.  1.
<mgrwt>
<rscale>  0 0.17493031E+04</rscale>
<asrwt>0</asrwt>
<pdfrwt beam="1">  1        2 0.24291378E+00 0.17493031E+04</pdfrwt>
<pdfrwt beam="2">  1       -2 0.74540324E-01 0.17493031E+04</pdfrwt>
<totfact> 0.17581181E+01</totfact>
</mgrwt>
</event>
<event>
12    1  0.4612066E-007  0.1770202E+04  0.7818608E-02  0.8722308E-01
          2   -1    0    0  501    0  0.00000000000E+00  0.00000000000E+00  0.19696029330E+04  0.19696029330E+04  0.00000000000E+00 0. -1.
         -2   -1    0    0    0  501 -0.00000000000E+00 -0.00000000000E+00 -0.39774700887E+03  0.39774700887E+03  0.00000000000E+00 0.  1.
         23    2    1    2    0    0  0.37240208389E+03 -0.10839653910E+03 -0.12064177490E+03  0.41549402364E+03  0.87451266765E+02 0.  0.
        254    2    1    2    0    0 -0.37240208389E+03  0.10839653910E+03  0.16924976991E+04  0.19518559183E+04  0.89149309731E+03 0.  0.
        -24    2    4    4    0    0 -0.43268781022E+03 -0.44888859476E+02  0.27104347974E+03  0.51873528541E+03  0.79924824661E+02 0.  0.
         24    2    4    4    0    0  0.60285726331E+02  0.15328539857E+03  0.14214542193E+04  0.14331206328E+04  0.78561240342E+02 0.  0.
         13    1    3    3    0    0  0.18783561167E+03 -0.58514794261E+02 -0.15615568546E+02  0.19735765538E+03  0.00000000000E+00 0. -1.
        -13    1    3    3    0    0  0.18456647222E+03 -0.49881744835E+02 -0.10502620635E+03  0.21813636826E+03  0.00000000000E+00 0.  1.
          4    1    6    6  502    0  0.64001177009E+02  0.14532349661E+03  0.10856446746E+04  0.10971961669E+04  0.00000000000E+00 0. -1.
          1    1    5    5  503    0 -0.28413175049E+03 -0.90027892092E+01  0.13750510234E+03  0.31578403225E+03  0.00000000000E+00 0. -1.
         -2    1    5    5    0  503 -0.14855605973E+03 -0.35886070267E+02  0.13353837740E+03  0.20295125316E+03  0.00000000000E+00 0.  1.
         -3    1    6    6    0  502 -0.37154506778E+01  0.79619019604E+01  0.33580954475E+03  0.33592446591E+03  0.00000000000E+00 0.  1.
<mgrwt>
<rscale>  0 0.17702019E+04</rscale>
<asrwt>0</asrwt>
<pdfrwt beam="1">  1        2 0.30301583E+00 0.17702019E+04</pdfrwt>
<pdfrwt beam="2">  1       -2 0.61191849E-01 0.17702019E+04</pdfrwt>
<totfact> 0.16329177E+01</totfact>
</mgrwt>
</event>
<event>
12    1  0.4612066E-007  0.2420836E+04  0.7818608E-02  0.8431744E-01
          2   -1    0    0  501    0  0.00000000000E+00  0.00000000000E+00  0.21151670722E+04  0.21151670722E+04  0.00000000000E+00 0. -1.
         -2   -1    0    0    0  501 -0.00000000000E+00 -0.00000000000E+00 -0.69266950478E+03  0.69266950478E+03  0.00000000000E+00 0.  1.
         23    2    1    2    0    0  0.41148228771E+03  0.51430721279E+03 -0.32088221804E+03  0.73850967178E+03  0.92744569840E+02 0.  0.
        254    2    1    2    0    0 -0.41148228771E+03 -0.51430721279E+03  0.17433797855E+04  0.20693269052E+04  0.89939489769E+03 0.  0.
        -24    2    4    4    0    0 -0.61455851385E+03 -0.60159558856E+03  0.12100205167E+04  0.14866267951E+04  0.79436502082E+02 0.  0.
         24    2    4    4    0    0  0.20307622614E+03  0.87288375765E+02  0.53335926875E+03  0.58270011011E+03  0.78791462743E+02 0.  0.
         13    1    3    3    0    0  0.54141204234E+02  0.12424255430E+03 -0.52704146559E+02  0.14541392423E+03  0.00000000000E+00 0. -1.
        -13    1    3    3    0    0  0.35734108347E+03  0.39006465849E+03 -0.26817807148E+03  0.59309574755E+03  0.00000000000E+00 0.  1.
          4    1    6    6  502    0  0.16940933624E+03  0.10202061037E+03  0.45731608795E+03  0.49824264415E+03  0.00000000000E+00 0. -1.
          3    1    5    5  503    0 -0.39967858379E+03 -0.44259959562E+03  0.83534154393E+03  0.10263687775E+04  0.00000000000E+00 0. -1.
         -4    1    5    5    0  503 -0.21487993006E+03 -0.15899599294E+03  0.37467897279E+03  0.46025801760E+03  0.00000000000E+00 0.  1.
         -3    1    6    6    0  502  0.33666889903E+02 -0.14732234609E+02  0.76043180793E+02  0.84457465966E+02  0.00000000000E+00 0.  1.
<mgrwt>
<rscale>  0 0.24208360E+04</rscale>
<asrwt>0</asrwt>
<pdfrwt beam="1">  1        2 0.32541032E+00 0.24208360E+04</pdfrwt>
<pdfrwt beam="2">  1       -2 0.10656454E+00 0.24208360E+04</pdfrwt>
<totfact> 0.36690794E+00</totfact>
</mgrwt>
</event>
<event>
12    1  0.4612066E-007  0.4264401E+04  0.7818608E-02  0.7953234E-01
         -2   -1    0    0    0  501 -0.00000000000E+00  0.00000000000E+00  0.18635298446E+04  0.18635298446E+04  0.00000000000E+00 0.  1.
          2   -1    0    0  501    0  0.00000000000E+00 -0.00000000000E+00 -0.24396063641E+04  0.24396063641E+04  0.00000000000E+00 0. -1.
         23    2    1    2    0    0  0.15091482445E+04 -0.13142825391E+04 -0.65546345454E+03  0.21078576968E+04  0.92545735411E+02 0.  0.
        254    2    1    2    0    0 -0.15091482445E+04  0.13142825391E+04  0.79386934969E+02  0.21952785119E+04  0.89893183452E+03 0.  0.
        -24    2    4    4    0    0 -0.56642593812E+02  0.35621560944E+03  0.24835942317E+03  0.44532537212E+03  0.80835265403E+02 0.  0.
         24    2    4    4    0    0 -0.14525056507E+04  0.95806692964E+03 -0.16897248820E+03  0.17499531398E+04  0.78226484202E+02 0.  0.
         13    1    3    3    0    0  0.84169857166E+03 -0.72724171425E+03 -0.31608669676E+03  0.11563943083E+04  0.00000000000E+00 0.  1.
        -13    1    3    3    0    0  0.66744967283E+03 -0.58704082483E+03 -0.33937675778E+03  0.95146338842E+03  0.00000000000E+00 0. -1.
          2    1    6    6  502    0 -0.17140421073E+03  0.88278867075E+02 -0.54983745123E+01  0.19288025806E+03  0.00000000000E+00 0. -1.
          1    1    5    5  503    0 -0.52390738253E+02  0.11559687149E+03  0.63809999134E+02  0.14205330740E+03  0.00000000000E+00 0. -1.
         -2    1    5    5    0  503 -0.42518555588E+01  0.24061873795E+03  0.18454942404E+03  0.30327206472E+03  0.00000000000E+00 0.  1.
         -1    1    6    6    0  502 -0.12811014399E+04  0.86978806257E+03 -0.16347411369E+03  0.15570728817E+04  0.00000000000E+00 0.  1.
<mgrwt>
<rscale>  0 0.42644011E+04</rscale>
<asrwt>0</asrwt>
<pdfrwt beam="1">  1        2 0.37532405E+00 0.42644011E+04</pdfrwt>
<pdfrwt beam="2">  1       -2 0.28669690E+00 0.42644011E+04</pdfrwt>
<totfact> 0.11166951E-01</totfact>
</mgrwt>
</event>
<event>
12    1  0.4612066E-007  0.2584671E+04  0.7818608E-02  0.8373427E-01
          2   -1    0    0  501    0  0.00000000000E+00  0.00000000000E+00  0.65271951229E+03  0.65271951229E+03  0.00000000000E+00 0. -1.
         -2   -1    0    0    0  501 -0.00000000000E+00 -0.00000000000E+00 -0.25587263257E+04  0.25587263257E+04  0.00000000000E+00 0.  1.
         23    2    1    2    0    0 -0.94020504504E+03 -0.10479518427E+03 -0.62775799253E+02  0.95251835160E+03  0.91557914994E+02 0.  0.
        254    2    1    2    0    0  0.94020504504E+03  0.10479518427E+03 -0.18432310141E+04  0.22589274863E+04  0.90015846371E+03 0.  0.
        -24    2    4    4    0    0  0.10513167622E+04  0.10837653247E+03 -0.18371786016E+04  0.21209875444E+04  0.79690288352E+02 0.  0.
         24    2    4    4    0    0 -0.11111171718E+03 -0.35813482004E+01 -0.60524125555E+01  0.13793994196E+03  0.81438050936E+02 0.  0.
         11    1    3    3    0    0 -0.65938680890E+03 -0.72610033921E+02 -0.85930286538E+02  0.66891493848E+03  0.00000000000E+00 0.  1.
        -11    1    3    3    0    0 -0.28081823615E+03 -0.32185150351E+02  0.23154487285E+02  0.28360341313E+03  0.00000000000E+00 0. -1.
          2    1    6    6  502    0 -0.16544937659E+02 -0.20668891065E+02  0.25535703190E+02  0.36783286387E+02  0.00000000000E+00 0. -1.
          1    1    5    5  503    0  0.14026976123E+03  0.41776797198E+02 -0.26096981114E+03  0.29920920612E+03  0.00000000000E+00 0. -1.
         -2    1    5    5    0  503  0.91104700099E+03  0.66599735274E+02 -0.15762087904E+04  0.18217783383E+04  0.00000000000E+00 0.  1.
         -1    1    6    6    0  502 -0.94566779525E+02  0.17087542864E+02 -0.31588115745E+02  0.10115665558E+03  0.00000000000E+00 0.  1.
<mgrwt>
<rscale>  0 0.25846707E+04</rscale>
<asrwt>0</asrwt>
<pdfrwt beam="1">  1        2 0.10041838E+00 0.25846707E+04</pdfrwt>
<pdfrwt beam="2">  1       -2 0.39365021E+00 0.25846707E+04</pdfrwt>
<totfact> 0.32355010E-01</totfact>
</mgrwt>
</event>
<event>
12    1  0.4612066E-007  0.1411976E+04  0.7818608E-02  0.8945195E-01
         -3   -1    0    0    0  501 -0.00000000000E+00  0.00000000000E+00  0.95644106468E+03  0.95644106468E+03  0.00000000000E+00 0.  1.
          3   -1    0    0  501    0  0.00000000000E+00 -0.00000000000E+00 -0.52111829237E+03  0.52111829237E+03  0.00000000000E+00 0. -1.
         23    2    1    2    0    0 -0.20713842640E+03  0.12224283140E+03  0.48047410438E+03  0.54517102596E+03  0.92230391124E+02 0.  0.
        254    2    1    2    0    0  0.20713842640E+03 -0.12224283140E+03 -0.45151332070E+02  0.93238833110E+03  0.89969979419E+03 0.  0.
        -24    2    4    4    0    0  0.22091602573E+03 -0.39694608843E+03 -0.29880568608E+03  0.54990381998E+03  0.82093152293E+02 0.  0.
         24    2    4    4    0    0 -0.13777599336E+02  0.27470325703E+03  0.25365435401E+03  0.38248451111E+03  0.79386196959E+02 0.  0.
         13    1    3    3    0    0 -0.10819317831E+03  0.27569996680E+02  0.28856905114E+03  0.30941552293E+03  0.00000000000E+00 0.  1.
        -13    1    3    3    0    0 -0.98945248084E+02  0.94672834718E+02  0.19190505323E+03  0.23575550303E+03  0.00000000000E+00 0. -1.
          4    1    6    6  502    0 -0.22565700583E+02  0.53772529947E+02  0.22214849524E+02  0.62403488357E+02  0.00000000000E+00 0. -1.
          1    1    5    5  503    0  0.13371482674E+02 -0.64556624195E+02 -0.69880436872E+02  0.96070961970E+02  0.00000000000E+00 0. -1.
         -2    1    5    5    0  503  0.20754454306E+03 -0.33238946424E+03 -0.22892524920E+03  0.45383285801E+03  0.00000000000E+00 0.  1.
         -3    1    6    6    0  502  0.87881012475E+01  0.22093072709E+03  0.23143950448E+03  0.32008102276E+03  0.00000000000E+00 0.  1.
<mgrwt>
<rscale>  0 0.14119758E+04</rscale>
<asrwt>0</asrwt>
<pdfrwt beam="1">  1        3 0.80172045E-01 0.14119758E+04</pdfrwt>
<pdfrwt beam="2">  1       -3 0.14714478E+00 0.14119758E+04</pdfrwt>
<totfact> 0.12505312E+00</totfact>
</mgrwt>
</event>
<event>
12    1  0.4612066E-007  0.2294936E+04  0.7818608E-02  0.8479920E-01
          1   -1    0    0  501    0  0.00000000000E+00  0.00000000000E+00  0.69420559868E+03  0.69420559868E+03  0.00000000000E+00 0. -1.
         -1   -1    0    0    0  501 -0.00000000000E+00 -0.00000000000E+00 -0.18966760361E+04  0.18966760361E+04  0.00000000000E+00 0.  1.
         23    2    1    2    0    0 -0.53686893123E+03  0.77456908419E+03 -0.75230172050E+03  0.12091501250E+04  0.88885491038E+02 0.  0.
        254    2    1    2    0    0  0.53686893123E+03 -0.77456908419E+03 -0.45016871689E+03  0.13817315098E+04  0.90462399703E+03 0.  0.
        -24    2    4    4    0    0  0.46410409352E+03 -0.90696617665E+03 -0.57446249671E+03  0.11722918813E+04  0.79251748125E+02 0.  0.
         24    2    4    4    0    0  0.72764837709E+02  0.13239709246E+03  0.12429377982E+03  0.20943962852E+03  0.74781699603E+02 0.  0.
         13    1    3    3    0    0 -0.40504169469E+03  0.57142352502E+03 -0.50869671462E+03  0.86565349121E+03  0.00000000000E+00 0. -1.
        -13    1    3    3    0    0 -0.13182723654E+03  0.20314555917E+03 -0.24360500589E+03  0.34349663375E+03  0.00000000000E+00 0.  1.
          2    1    6    6  502    0  0.13645685849E+02  0.40900803925E+02  0.81882036155E+02  0.92540522739E+02  0.00000000000E+00 0. -1.
          3    1    5    5  503    0  0.19978018231E+03 -0.41410934725E+03 -0.30286175941E+03  0.55056690605E+03  0.00000000000E+00 0. -1.
         -4    1    5    5    0  503  0.26432391121E+03 -0.49285682940E+03 -0.27160073729E+03  0.62172497523E+03  0.00000000000E+00 0.  1.
         -1    1    6    6    0  502  0.59119151860E+02  0.91496288533E+02  0.42411743661E+02  0.11689910578E+03  0.00000000000E+00 0.  1.
<mgrwt>
<rscale>  0 0.22949363E+04</rscale>
<asrwt>0</asrwt>
<pdfrwt beam="1">  1        1 0.10680086E+00 0.22949363E+04</pdfrwt>
<pdfrwt beam="2">  1       -1 0.29179631E+00 0.22949363E+04</pdfrwt>
<totfact> 0.93146997E-01</totfact>
</mgrwt>
</event>
<event>
12    1  0.4612066E-007  0.3446090E+04  0.7818608E-02  0.8126686E-01
          1   -1    0    0  501    0  0.00000000000E+00  0.00000000000E+00  0.11978287352E+04  0.11978287352E+04  0.00000000000E+00 0. -1.
         -1   -1    0    0    0  501 -0.00000000000E+00 -0.00000000000E+00 -0.24785551154E+04  0.24785551154E+04  0.00000000000E+00 0.  1.
         23    2    1    2    0    0 -0.15311733508E+04  0.11126641020E+03 -0.10980323722E+04  0.18899853811E+04  0.97455662590E+02 0.  0.
        254    2    1    2    0    0  0.15311733508E+04 -0.11126641020E+03 -0.18269400813E+03  0.17863984695E+04  0.89496946713E+03 0.  0.
        -24    2    4    4    0    0  0.15351057848E+04 -0.21121511102E+03 -0.33480255374E+03  0.15875982808E+04  0.84935019918E+02 0.  0.
         24    2    4    4    0    0 -0.39324339816E+01  0.99948700816E+02  0.15210854561E+03  0.19880018873E+03  0.79870511204E+02 0.  0.
         11    1    3    3    0    0 -0.76866048040E+03  0.97072490268E+02 -0.52119704214E+03  0.93376033286E+03  0.00000000000E+00 0. -1.
        -11    1    3    3    0    0 -0.76251287039E+03  0.14193919936E+02 -0.57683533001E+03  0.95622504821E+03  0.00000000000E+00 0.  1.
          2    1    6    6  502    0 -0.41606280923E+02  0.58858334926E+02  0.90911019412E+02  0.11601810054E+03  0.00000000000E+00 0. -1.
          3    1    5    5  503    0  0.13767449891E+04 -0.19346714726E+03 -0.32612224601E+03  0.14280098114E+04  0.00000000000E+00 0. -1.
         -2    1    5    5    0  503  0.15836079564E+03 -0.17747963758E+02 -0.86803077341E+01  0.15958846937E+03  0.00000000000E+00 0.  1.
         -1    1    6    6    0  502  0.37673846942E+02  0.41090365890E+02  0.61197526202E+02  0.82782088193E+02  0.00000000000E+00 0.  1.
<mgrwt>
<rscale>  0 0.34460903E+04</rscale>
<asrwt>0</asrwt>
<pdfrwt beam="1">  1        1 0.18428135E+00 0.34460903E+04</pdfrwt>
<pdfrwt beam="2">  1       -1 0.38131617E+00 0.34460903E+04</pdfrwt>
<totfact> 0.84190268E-02</totfact>
</mgrwt>
</event>
<event>
12    1  0.4612066E-007  0.1953741E+04  0.7818608E-02  0.8628559E-01
          1   -1    0    0  501    0  0.00000000000E+00  0.00000000000E+00  0.29620988840E+04  0.29620988840E+04  0.00000000000E+00 0. -1.
         -1   -1    0    0    0  501 -0.00000000000E+00 -0.00000000000E+00 -0.32216202828E+03  0.32216202828E+03  0.00000000000E+00 0.  1.
         23    2    1    2    0    0 -0.38921645807E+03 -0.39064343638E+03  0.19159401435E+04  0.19957579372E+04  0.90174080002E+02 0.  0.
        254    2    1    2    0    0  0.38921645807E+03  0.39064343638E+03  0.72399671223E+03  0.12885029751E+04  0.91212769496E+03 0.  0.
        -24    2    4    4    0    0  0.66564324329E+03  0.23943839246E+03  0.62878776984E+03  0.94984341849E+03  0.80104862657E+02 0.  0.
         24    2    4    4    0    0 -0.27642678523E+03  0.15120504392E+03  0.95208942394E+02  0.33865955662E+03  0.79692030212E+02 0.  0.
         11    1    3    3    0    0 -0.87672055916E+02 -0.44611178657E+02  0.39549216886E+03  0.40754214786E+03  0.00000000000E+00 0.  1.
        -11    1    3    3    0    0 -0.30154440215E+03 -0.34603225772E+03  0.15204479746E+04  0.15882157893E+04  0.00000000000E+00 0. -1.
          2    1    6    6  502    0 -0.58931931427E+02  0.51590761258E+02  0.55909629107E+02  0.96231314113E+02  0.00000000000E+00 0. -1.
          3    1    5    5  503    0  0.61713785331E+02  0.29208765156E+02  0.94249165688E+02  0.11638147831E+03  0.00000000000E+00 0. -1.
         -4    1    5    5    0  503  0.60392945796E+03  0.21022962730E+03  0.53453860415E+03  0.83346194017E+03  0.00000000000E+00 0.  1.
         -1    1    6    6    0  502 -0.21749485380E+03  0.99614282665E+02  0.39299313287E+02  0.24242824251E+03  0.00000000000E+00 0.  1.
<mgrwt>
<rscale>  0 0.19537408E+04</rscale>
<asrwt>0</asrwt>
<pdfrwt beam="1">  1        1 0.45570750E+00 0.19537408E+04</pdfrwt>
<pdfrwt beam="2">  1       -1 0.49563391E-01 0.19537408E+04</pdfrwt>
<totfact> 0.24262007E+00</totfact>
</mgrwt>
</event>
<event>
12    1  0.4612066E-007  0.2581278E+04  0.7818608E-02  0.8374589E-01
          1   -1    0    0  501    0  0.00000000000E+00  0.00000000000E+00  0.12174434428E+04  0.12174434428E+04  0.00000000000E+00 0. -1.
         -1   -1    0    0    0  501 -0.00000000000E+00 -0.00000000000E+00 -0.13682354057E+04  0.13682354057E+04  0.00000000000E+00 0.  1.
         23    2    1    2    0    0  0.58988642716E+03  0.55084358362E+03 -0.85941691766E+03  0.11823418357E+04  0.89107393724E+02 0.  0.
        254    2    1    2    0    0 -0.58988642716E+03 -0.55084358362E+03  0.70862495481E+03  0.14033370128E+04  0.90322245003E+03 0.  0.
        -24    2    4    4    0    0 -0.18463128884E+03  0.19332403794E+03  0.42116911410E+03  0.50501731492E+03  0.78715749569E+02 0.  0.
         24    2    4    4    0    0 -0.40525513831E+03 -0.74416762156E+03  0.28745584071E+03  0.89831969784E+03  0.79562824610E+02 0.  0.
         11    1    3    3    0    0  0.23224115804E+03  0.20722076502E+03 -0.27019596784E+03  0.41216775951E+03  0.00000000000E+00 0. -1.
        -11    1    3    3    0    0  0.35764526912E+03  0.34362281860E+03 -0.58922094983E+03  0.77017407623E+03  0.00000000000E+00 0.  1.
          4    1    6    6  502    0 -0.55481405181E+02 -0.77206153179E+02  0.56472376377E+02  0.11058076552E+03  0.00000000000E+00 0. -1.
          3    1    5    5  503    0 -0.19774038024E+01  0.92365621641E+01 -0.10644429918E+01  0.95056428132E+01  0.00000000000E+00 0. -1.
         -4    1    5    5    0  503 -0.18265388504E+03  0.18408747578E+03  0.42223355709E+03  0.49551167211E+03  0.00000000000E+00 0.  1.
         -3    1    6    6    0  502 -0.34977373313E+03 -0.66696146838E+03  0.23098346433E+03  0.78773893232E+03  0.00000000000E+00 0.  1.
<mgrwt>
<rscale>  0 0.25812782E+04</rscale>
<asrwt>0</asrwt>
<pdfrwt beam="1">  1        1 0.18729899E+00 0.25812782E+04</pdfrwt>
<pdfrwt beam="2">  1       -1 0.21049775E+00 0.25812782E+04</pdfrwt>
<totfact> 0.11677232E+00</totfact>
</mgrwt>
</event>
<event>
12    1  0.4612066E-007  0.1581638E+04  0.7818608E-02  0.8831908E-01
         -1   -1    0    0    0  501 -0.00000000000E+00  0.00000000000E+00  0.36537820075E+03  0.36537820075E+03  0.00000000000E+00 0.  1.
          1   -1    0    0  501    0  0.00000000000E+00 -0.00000000000E+00 -0.17116370868E+04  0.17116370868E+04  0.00000000000E+00 0. -1.
         23    2    1    2    0    0 -0.10412190924E+03 -0.45502066503E+03 -0.81639151487E+03  0.94607246943E+03  0.10330941034E+03 0.  0.
        254    2    1    2    0    0  0.10412190924E+03  0.45502066503E+03 -0.52986737114E+03  0.11309428181E+04  0.88339518291E+03 0.  0.
        -24    2    4    4    0    0  0.47819589261E+02  0.22510466128E+03  0.22589668370E+03  0.33423388375E+03  0.87887175910E+02 0.  0.
         24    2    4    4    0    0  0.56302319983E+02  0.22991600375E+03 -0.75576405485E+03  0.79670893434E+03  0.86801494452E+02 0.  0.
         11    1    3    3    0    0 -0.83395824542E+02 -0.14480178195E+03 -0.29297062085E+03  0.33727467187E+03  0.00000000000E+00 0. -1.
        -11    1    3    3    0    0 -0.20726084702E+02 -0.31021888307E+03 -0.52342089403E+03  0.60879779755E+03  0.00000000000E+00 0.  1.
          4    1    6    6  502    0  0.79256139897E+02  0.19056307770E+03 -0.60726846882E+03  0.64138195759E+03  0.00000000000E+00 0. -1.
          3    1    5    5  503    0  0.72648238190E+02  0.18842790467E+03  0.18888333837E+03  0.27651357522E+03  0.00000000000E+00 0. -1.
         -4    1    5    5    0  503 -0.24828648929E+02  0.36676756615E+02  0.37013345337E+02  0.57720308527E+02  0.00000000000E+00 0.  1.
         -3    1    6    6    0  502 -0.22953819914E+02  0.39352926046E+02 -0.14849558602E+03  0.15532697675E+03  0.00000000000E+00 0.  1.
<mgrwt>
<rscale>  0 0.15816382E+04</rscale>
<asrwt>0</asrwt>
<pdfrwt beam="1">  1        1 0.26332878E+00 0.15816382E+04</pdfrwt>
<pdfrwt beam="2">  1       -1 0.56212031E-01 0.15816382E+04</pdfrwt>
<totfact> 0.14400665E+01</totfact>
</mgrwt>
</event>
<event>
12    1  0.4612066E-007  0.1270195E+04  0.7818608E-02  0.9053541E-01
          1   -1    0    0  501    0  0.00000000000E+00  0.00000000000E+00  0.15674984985E+04  0.15674984985E+04  0.00000000000E+00 0. -1.
         -1   -1    0    0    0  501 -0.00000000000E+00 -0.00000000000E+00 -0.25732002909E+03  0.25732002909E+03  0.00000000000E+00 0.  1.
         23    2    1    2    0    0  0.11944251434E+03 -0.15802687228E+03  0.61972321803E+03  0.65779803453E+03  0.96965873728E+02 0.  0.
        254    2    1    2    0    0 -0.11944251434E+03  0.15802687228E+03  0.69045525140E+03  0.11670204931E+04  0.91976593245E+03 0.  0.
        -24    2    4    4    0    0 -0.13508943067E+03 -0.27494043850E+03 -0.34668793578E+02  0.31831309472E+03  0.79245832833E+02 0.  0.
         24    2    4    4    0    0  0.15646916326E+02  0.43296731079E+03  0.72512404498E+03  0.84870739836E+03  0.82424809540E+02 0.  0.
         11    1    3    3    0    0  0.67967005609E+02 -0.44306720714E+02  0.36782707469E+03  0.37666876195E+03  0.00000000000E+00 0. -1.
        -11    1    3    3    0    0  0.51475508734E+02 -0.11372015157E+03  0.25189614334E+03  0.28112927258E+03  0.00000000000E+00 0.  1.
          4    1    6    6  502    0 -0.22105726687E+02  0.18306866269E+03  0.25133351783E+03  0.31172317141E+03  0.00000000000E+00 0. -1.
          1    1    5    5  503    0 -0.97978925256E+02 -0.23531736804E+03 -0.19105190703E+01  0.25490740197E+03  0.00000000000E+00 0. -1.
         -2    1    5    5    0  503 -0.37110505413E+02 -0.39623070464E+02 -0.32758274508E+02  0.63405692755E+02  0.00000000000E+00 0.  1.
         -3    1    6    6    0  502  0.37752643013E+02  0.24989864810E+03  0.47379052715E+03  0.53698422695E+03  0.00000000000E+00 0.  1.
<mgrwt>
<rscale>  0 0.12701949E+04</rscale>
<asrwt>0</asrwt>
<pdfrwt beam="1">  1        1 0.24115361E+00 0.12701949E+04</pdfrwt>
<pdfrwt beam="2">  1       -1 0.39587698E-01 0.12701949E+04</pdfrwt>
<totfact> 0.35909252E+01</totfact>
</mgrwt>
</event>
<event>
12    1  0.4612066E-007  0.1461670E+04  0.7818608E-02  0.8910350E-01
         -1   -1    0    0    0  501 -0.00000000000E+00  0.00000000000E+00  0.74999543503E+03  0.74999543503E+03  0.00000000000E+00 0.  1.
          1   -1    0    0  501    0  0.00000000000E+00 -0.00000000000E+00 -0.71216404157E+03  0.71216404157E+03  0.00000000000E+00 0. -1.
         23    2    1    2    0    0  0.89282393028E+02 -0.42396808107E+03 -0.11100244881E+03  0.45603959182E+03  0.89052154349E+02 0.  0.
        254    2    1    2    0    0 -0.89282393028E+02  0.42396808107E+03  0.14883384227E+03  0.10061198848E+04  0.89577085824E+03 0.  0.
        -24    2    4    4    0    0 -0.48235280409E+03  0.19021153499E+03  0.13561948911E+03  0.54186271332E+03  0.79861746820E+02 0.  0.
         24    2    4    4    0    0  0.39307041106E+03  0.23375654608E+03  0.13214353163E+02  0.46425717146E+03  0.78826589630E+02 0.  0.
         11    1    3    3    0    0  0.53361152188E+02 -0.90123792370E+02 -0.44234290457E+02  0.11369425213E+03  0.00000000000E+00 0. -1.
        -11    1    3    3    0    0  0.35921240840E+02 -0.33384428870E+03 -0.66768158355E+02  0.34234533970E+03  0.00000000000E+00 0.  1.
          4    1    6    6  502    0  0.17420882400E+03  0.88205672369E+02  0.42350189471E+02  0.19980613991E+03  0.00000000000E+00 0. -1.
          1    1    5    5  503    0 -0.36089155868E+03  0.13486080223E+03  0.64528683924E+02  0.39063295324E+03  0.00000000000E+00 0. -1.
         -2    1    5    5    0  503 -0.12146124541E+03  0.55350732765E+02  0.71090805184E+02  0.15122976008E+03  0.00000000000E+00 0.  1.
         -3    1    6    6    0  502  0.21886158706E+03  0.14555087371E+03 -0.29135836308E+02  0.26445103155E+03  0.00000000000E+00 0.  1.
<mgrwt>
<rscale>  0 0.14616700E+04</rscale>
<asrwt>0</asrwt>
<pdfrwt beam="1">  1        1 0.10956370E+00 0.14616700E+04</pdfrwt>
<pdfrwt beam="2">  1       -1 0.11538391E+00 0.14616700E+04</pdfrwt>
<totfact> 0.17539336E+01</totfact>
</mgrwt>
</event>
<event>
12    1  0.4612066E-007  0.3316769E+04  0.7818608E-02  0.8158642E-01
         -2   -1    0    0    0  501 -0.00000000000E+00  0.00000000000E+00  0.13253891345E+04  0.13253891345E+04  0.00000000000E+00 0. -1.
          2   -1    0    0  501    0  0.00000000000E+00 -0.00000000000E+00 -0.20750430726E+04  0.20750430726E+04  0.00000000000E+00 0.  1.
         23    2    1    2    0    0  0.92610682344E+03 -0.12092544828E+04 -0.53344459674E+03  0.16164156827E+04  0.90919023288E+02 0.  0.
        254    2    1    2    0    0 -0.92610682344E+03  0.12092544828E+04 -0.21620934137E+03  0.17840165244E+04  0.90332620205E+03 0.  0.
        -24    2    4    4    0    0 -0.34899456125E+03 -0.62995641197E+02  0.23485867427E+02  0.36434769566E+03  0.80199767926E+02 0.  0.
         24    2    4    4    0    0 -0.57711226219E+03  0.12722501240E+04 -0.23969520880E+03  0.14196688287E+04  0.79541491351E+02 0.  0.
         13    1    3    3    0    0  0.49874926761E+03 -0.67984108803E+03 -0.25093967560E+03  0.87971896519E+03  0.00000000000E+00 0. -1.
        -13    1    3    3    0    0  0.42735755582E+03 -0.52941339482E+03 -0.28250492114E+03  0.73669671752E+03  0.00000000000E+00 0.  1.
          4    1    6    6  502    0 -0.12952397959E+03  0.24499343108E+03 -0.20357075789E+02  0.27787164860E+03  0.00000000000E+00 0. -1.
          1    1    5    5  503    0 -0.16228098837E+03 -0.17637622983E+02 -0.27540913086E+02  0.16554367044E+03  0.00000000000E+00 0. -1.
         -2    1    5    5    0  503 -0.18671357288E+03 -0.45358018213E+02  0.51026780514E+02  0.19880402522E+03  0.00000000000E+00 0.  1.
         -3    1    6    6    0  502 -0.44758828260E+03  0.10272566930E+04 -0.21933813301E+03  0.11417971801E+04  0.00000000000E+00 0.  1.
<mgrwt>
<rscale>  0 0.33167692E+04</rscale>
<asrwt>0</asrwt>
<pdfrwt beam="1">  1        2 0.31923740E+00 0.33167692E+04</pdfrwt>
<pdfrwt beam="2">  1       -2 0.20390602E+00 0.33167692E+04</pdfrwt>
<totfact> 0.63465627E-01</totfact>
</mgrwt>
</event>
<event>
12    1  0.4612066E-007  0.1318127E+04  0.7818608E-02  0.9015312E-01
         -1   -1    0    0    0  501 -0.00000000000E+00  0.00000000000E+00  0.45823965160E+03  0.45823965160E+03  0.00000000000E+00 0.  1.
          1   -1    0    0  501    0  0.00000000000E+00 -0.00000000000E+00 -0.94789917082E+03  0.94789917082E+03  0.00000000000E+00 0. -1.
         23    2    1    2    0    0  0.17030232805E+03  0.23144394438E+02  0.17922001304E+03  0.26401059498E+03  0.89684085849E+02 0.  0.
        254    2    1    2    0    0 -0.17030232805E+03 -0.23144394438E+02 -0.66887953227E+03  0.11421282274E+04  0.90968044570E+03 0.  0.
        -24    2    4    4    0    0 -0.47447654225E+03  0.67663425908E+02 -0.11547179947E+03  0.49923859150E+03  0.78734404337E+02 0.  0.
         24    2    4    4    0    0  0.30417421420E+03 -0.90807820347E+02 -0.55340773280E+03  0.64288963594E+03  0.79239841340E+02 0.  0.
         11    1    3    3    0    0  0.70229863505E+01  0.27682983978E+02  0.41387856192E+02  0.50285431085E+02  0.00000000000E+00 0. -1.
        -11    1    3    3    0    0  0.16327934170E+03 -0.45385895397E+01  0.13783215685E+03  0.21372516390E+03  0.00000000000E+00 0.  1.
          2    1    6    6  502    0  0.18049049764E+02 -0.24992530165E+02 -0.81145703881E+02  0.86804493085E+02  0.00000000000E+00 0. -1.
          3    1    5    5  503    0 -0.38461078853E+02  0.16246432456E+02  0.93844557219E+01  0.42793330827E+02  0.00000000000E+00 0. -1.
         -4    1    5    5    0  503 -0.43601546339E+03  0.51416993452E+02 -0.12485625519E+03  0.45644526068E+03  0.00000000000E+00 0.  1.
         -1    1    6    6    0  502  0.28612516443E+03 -0.65815290182E+02 -0.47226202892E+03  0.55608514285E+03  0.00000000000E+00 0.  1.
<mgrwt>
<rscale>  0 0.13181274E+04</rscale>
<asrwt>0</asrwt>
<pdfrwt beam="1">  1        1 0.14583064E+00 0.13181274E+04</pdfrwt>
<pdfrwt beam="2">  1       -1 0.70498409E-01 0.13181274E+04</pdfrwt>
<totfact> 0.33203147E+01</totfact>
</mgrwt>
</event>
<event>
12    1  0.4612066E-007  0.2934865E+04  0.7818608E-02  0.8262579E-01
          2   -1    0    0  501    0  0.00000000000E+00  0.00000000000E+00  0.14449225088E+04  0.14449225088E+04  0.00000000000E+00 0. -1.
         -2   -1    0    0    0  501 -0.00000000000E+00 -0.00000000000E+00 -0.14902928919E+04  0.14902928919E+04  0.00000000000E+00 0.  1.
         23    2    1    2    0    0  0.83293542599E+03 -0.92714608642E+03 -0.49863199313E+03  0.13469653890E+04  0.11090809359E+03 0.  0.
        254    2    1    2    0    0 -0.83293542599E+03  0.92714608642E+03  0.45326161009E+03  0.15882500116E+04  0.87390544276E+03 0.  0.
        -24    2    4    4    0    0  0.66979872155E+02  0.16953732123E+03 -0.16361718514E+03  0.25747290998E+03  0.79325339815E+02 0.  0.
         24    2    4    4    0    0 -0.89991529814E+03  0.75760876519E+03  0.61687879522E+03  0.13307771017E+04  0.81299824132E+02 0.  0.
         13    1    3    3    0    0  0.78138409784E+03 -0.88689899749E+03 -0.49496642875E+03  0.12814611604E+04  0.00000000000E+00 0.  1.
        -13    1    3    3    0    0  0.51551328151E+02 -0.40247088929E+02 -0.36655643836E+01  0.65504228593E+02  0.00000000000E+00 0. -1.
          4    1    6    6  502    0 -0.53399978534E+02  0.72786332660E+02  0.43949477307E+02  0.10040400632E+03  0.00000000000E+00 0. -1.
          1    1    5    5  503    0 -0.64832720652E+01  0.46265907914E+02 -0.11018604508E+02  0.47999757261E+02  0.00000000000E+00 0. -1.
         -2    1    5    5    0  503  0.73463144221E+02  0.12327141332E+03 -0.15259858063E+03  0.20947315272E+03  0.00000000000E+00 0.  1.
         -3    1    6    6    0  502 -0.84651531961E+03  0.68482243253E+03  0.57292931792E+03  0.12303730953E+04  0.00000000000E+00 0.  1.
<mgrwt>
<rscale>  0 0.29348647E+04</rscale>
<asrwt>0</asrwt>
<pdfrwt beam="1">  1        2 0.22229577E+00 0.29348647E+04</pdfrwt>
<pdfrwt beam="2">  1       -2 0.22927583E+00 0.29348647E+04</pdfrwt>
<totfact> 0.10142703E+00</totfact>
</mgrwt>
</event>
<event>
12    1  0.4612066E-007  0.1611488E+04  0.7818608E-02  0.8813521E-01
          2   -1    0    0  501    0  0.00000000000E+00  0.00000000000E+00  0.22816693331E+04  0.22816693331E+04  0.00000000000E+00 0. -1.
         -2   -1    0    0    0  501 -0.00000000000E+00 -0.00000000000E+00 -0.28453873774E+03  0.28453873774E+03  0.00000000000E+00 0.  1.
         23    2    1    2    0    0  0.68683524897E+02 -0.43319733065E+03  0.14592698258E+03  0.47139553086E+03  0.92421363312E+02 0.  0.
        254    2    1    2    0    0 -0.68683524897E+02  0.43319733065E+03  0.18512036128E+04  0.20948125399E+04  0.87687365553E+03 0.  0.
        -24    2    4    4    0    0  0.29921293315E+03  0.42431644009E+03  0.64879185808E+03  0.83484424333E+03  0.80381682121E+02 0.  0.
         24    2    4    4    0    0 -0.36789645804E+03  0.88808905526E+01  0.12024117547E+04  0.12599682966E+04  0.79368801379E+02 0.  0.
         13    1    3    3    0    0  0.52069000709E+02 -0.14526085563E+03  0.16236454217E+02  0.15516288042E+03  0.00000000000E+00 0. -1.
        -13    1    3    3    0    0  0.16614524188E+02 -0.28793647501E+03  0.12969052836E+03  0.31623265044E+03  0.00000000000E+00 0.  1.
          2    1    6    6  502    0 -0.15398735319E+03 -0.23609592157E+02  0.41169619393E+03  0.44018549940E+03  0.00000000000E+00 0. -1.
          3    1    5    5  503    0  0.96470196854E+02  0.19672397963E+03  0.30257578845E+03  0.37357587021E+03  0.00000000000E+00 0. -1.
         -4    1    5    5    0  503  0.20274273629E+03  0.22759246046E+03  0.34621606962E+03  0.46126837312E+03  0.00000000000E+00 0.  1.
         -1    1    6    6    0  502 -0.21390910486E+03  0.32490482709E+02  0.79071556074E+03  0.81978279721E+03  0.00000000000E+00 0.  1.
<mgrwt>
<rscale>  0 0.16114879E+04</rscale>
<asrwt>0</asrwt>
<pdfrwt beam="1">  1        2 0.35102604E+00 0.16114879E+04</pdfrwt>
<pdfrwt beam="2">  1       -2 0.43775192E-01 0.16114879E+04</pdfrwt>
<totfact> 0.22038598E+01</totfact>
</mgrwt>
</event>
<event>
12    1  0.4612066E-007  0.2583624E+04  0.7818608E-02  0.8373785E-01
         -2   -1    0    0    0  501 -0.00000000000E+00  0.00000000000E+00  0.11262179594E+04  0.11262179594E+04  0.00000000000E+00 0.  1.
          2   -1    0    0  501    0  0.00000000000E+00 -0.00000000000E+00 -0.14817542661E+04  0.14817542661E+04  0.00000000000E+00 0. -1.
         23    2    1    2    0    0 -0.84764860217E+03  0.35050611203E+03  0.51963685096E+03  0.10584179228E+04  0.94145393355E+02 0.  0.
        254    2    1    2    0    0  0.84764860217E+03 -0.35050611203E+03 -0.87517315763E+03  0.15495543027E+04  0.89097014193E+03 0.  0.
        -24    2    4    4    0    0  0.95965653650E+03 -0.36069182992E+03 -0.94266236702E+03  0.13949663242E+04  0.79242938709E+02 0.  0.
         24    2    4    4    0    0 -0.11200793432E+03  0.10185717900E+02  0.67489209397E+02  0.15458797845E+03  0.81811512000E+02 0.  0.
         13    1    3    3    0    0 -0.67288620387E+02  0.48644455974E+02  0.26293341332E+02  0.87094094685E+02  0.00000000000E+00 0. -1.
        -13    1    3    3    0    0 -0.78035998179E+03  0.30186165605E+03  0.49334350962E+03  0.97132382811E+03  0.00000000000E+00 0.  1.
          4    1    6    6  502    0 -0.21645436571E+02 -0.17715496885E+02 -0.12583225429E+02  0.30670854510E+02  0.00000000000E+00 0. -1.
          3    1    5    5  503    0  0.44874957202E+02 -0.15704246716E+02 -0.23376664135E+02  0.52979746836E+02  0.00000000000E+00 0. -1.
         -4    1    5    5    0  503  0.91478157930E+03 -0.34498758321E+03 -0.91928570289E+03  0.13419865774E+04  0.00000000000E+00 0.  1.
         -1    1    6    6    0  502 -0.90362497753E+02  0.27901214784E+02  0.80072434825E+02  0.12391712394E+03  0.00000000000E+00 0.  1.
<mgrwt>
<rscale>  0 0.25836240E+04</rscale>
<asrwt>0</asrwt>
<pdfrwt beam="1">  1        2 0.22796219E+00 0.25836240E+04</pdfrwt>
<pdfrwt beam="2">  1       -2 0.17326430E+00 0.25836240E+04</pdfrwt>
<totfact> 0.23272036E+00</totfact>
</mgrwt>
</event>
<event>
12    1  0.4612066E-007  0.3347429E+04  0.7818608E-02  0.8150931E-01
          1   -1    0    0  501    0  0.00000000000E+00  0.00000000000E+00  0.13587230464E+04  0.13587230464E+04  0.00000000000E+00 0. -1.
         -1   -1    0    0    0  501 -0.00000000000E+00 -0.00000000000E+00 -0.20617295521E+04  0.20617295521E+04  0.00000000000E+00 0.  1.
         23    2    1    2    0    0 -0.98831903822E+03 -0.11442911431E+04 -0.67393599954E+03  0.16579608948E+04  0.92020953370E+02 0.  0.
        254    2    1    2    0    0  0.98831903822E+03  0.11442911431E+04 -0.29070506219E+02  0.17624917037E+04  0.90518239582E+03 0.  0.
        -24    2    4    4    0    0  0.49257874489E+03  0.97905970618E+03 -0.33898133542E+03  0.11495908089E+04  0.73884734537E+02 0.  0.
         24    2    4    4    0    0  0.49574029333E+03  0.16523143689E+03  0.30991082920E+03  0.61290089474E+03  0.80888309074E+02 0.  0.
         13    1    3    3    0    0 -0.30682406681E+03 -0.30161973325E+03 -0.16736452732E+03  0.46165610195E+03  0.00000000000E+00 0. -1.
        -13    1    3    3    0    0 -0.68149497141E+03 -0.84267140982E+03 -0.50657147221E+03  0.11963047929E+04  0.00000000000E+00 0.  1.
          4    1    6    6  502    0  0.30676039732E+03  0.72665173061E+02  0.15305263789E+03  0.35043869465E+03  0.00000000000E+00 0. -1.
          1    1    5    5  503    0  0.43613019308E+03  0.88176015998E+03 -0.32611293047E+03  0.10363687416E+04  0.00000000000E+00 0. -1.
         -2    1    5    5    0  503  0.56448551812E+02  0.97299546198E+02 -0.12868404945E+02  0.11322206736E+03  0.00000000000E+00 0.  1.
         -3    1    6    6    0  502  0.18897989601E+03  0.92566263828E+02  0.15685819131E+03  0.26246220009E+03  0.00000000000E+00 0.  1.
<mgrwt>
<rscale>  0 0.33474285E+04</rscale>
<asrwt>0</asrwt>
<pdfrwt beam="1">  1        1 0.20903432E+00 0.33474285E+04</pdfrwt>
<pdfrwt beam="2">  1       -1 0.31718916E+00 0.33474285E+04</pdfrwt>
<totfact> 0.17328433E-01</totfact>
</mgrwt>
</event>
<event>
12    1  0.8435308E-007  0.2654133E+04  0.7818608E-02  0.8350043E-01
         -2   -1    0    0    0  501 -0.00000000000E+00  0.00000000000E+00  0.96932192865E+03  0.96932192865E+03  0.00000000000E+00 0.  1.
          2   -1    0    0  501    0  0.00000000000E+00 -0.00000000000E+00 -0.18168424758E+04  0.18168424758E+04  0.00000000000E+00 0. -1.
         23    2    1    2    0    0 -0.63282296856E+03  0.13150204236E+03 -0.14062266656E+04  0.15495573221E+04  0.76790380198E+02 0.  0.
        254    2    1    2    0    0  0.63282296856E+03 -0.13150204236E+03  0.55870611850E+03  0.12366070824E+04  0.89402844065E+03 0.  0.
        -24    2    4    4    0    0 -0.26862756133E+02  0.27190320849E+03  0.30903210217E+03  0.42016256203E+03  0.79892276899E+02 0.  0.
         24    2    4    4    0    0  0.65968572470E+03 -0.40340525085E+03  0.24967401633E+03  0.81644452036E+03  0.79520366081E+02 0.  0.
         11    1    3    3    0    0 -0.40630999318E+03  0.71601307471E+02 -0.97716186634E+03  0.10606883948E+04  0.00000000000E+00 0. -1.
        -11    1    3    3    0    0 -0.22651297539E+03  0.59900734893E+02 -0.42906479930E+03  0.48886892728E+03  0.00000000000E+00 0.  1.
          4    1    6    6  502    0  0.60747448775E+03 -0.39362183364E+03  0.22623866935E+03  0.75838468912E+03  0.00000000000E+00 0. -1.
          1    1    5    5  503    0 -0.43383961027E+01  0.25680816069E+03  0.28764791798E+03  0.38563010489E+03  0.00000000000E+00 0. -1.
         -2    1    5    5    0  503 -0.22524360031E+02  0.15095047794E+02  0.21384184189E+02  0.34532457140E+02  0.00000000000E+00 0.  1.
         -3    1    6    6    0  502  0.52211236946E+02 -0.97834172093E+01  0.23435346985E+02  0.58059831244E+02  0.00000000000E+00 0.  1.
<mgrwt>
<rscale>  0 0.26541328E+04</rscale>
<asrwt>0</asrwt>
<pdfrwt beam="1">  1        2 0.27951422E+00 0.26541328E+04</pdfrwt>
<pdfrwt beam="2">  1       -2 0.14912645E+00 0.26541328E+04</pdfrwt>
<totfact> 0.22632787E+00</totfact>
</mgrwt>
</event>
<event>
12    1  0.4612066E-007  0.2345401E+04  0.7818608E-02  0.8460232E-01
         -2   -1    0    0    0  501 -0.00000000000E+00  0.00000000000E+00  0.36163124380E+03  0.36163124380E+03  0.00000000000E+00 0.  1.
          2   -1    0    0  501    0  0.00000000000E+00 -0.00000000000E+00 -0.38028429499E+04  0.38028429499E+04  0.00000000000E+00 0. -1.
         23    2    1    2    0    0  0.50387682287E+02 -0.92168941198E+03 -0.77637677454E+03  0.12095767662E+04  0.90910761932E+02 0.  0.
        254    2    1    2    0    0 -0.50387682287E+02  0.92168941198E+03 -0.26648349316E+04  0.29548974275E+04  0.88205629291E+03 0.  0.
        -24    2    4    4    0    0 -0.16184711514E+03  0.17815190087E+03 -0.86215444141E+02  0.26784795632E+03  0.79855096483E+02 0.  0.
         24    2    4    4    0    0  0.11145943285E+03  0.74353751110E+03 -0.25786194874E+04  0.26870494712E+04  0.75400026608E+02 0.  0.
         13    1    3    3    0    0  0.12177175387E+02 -0.25083300028E+03 -0.26570418804E+03  0.36560113946E+03  0.00000000000E+00 0. -1.
        -13    1    3    3    0    0  0.38210506900E+02 -0.67085641170E+03 -0.51067258650E+03  0.84397562675E+03  0.00000000000E+00 0.  1.
          4    1    6    6  502    0 -0.10531242657E+02  0.81318631581E+02 -0.30243876994E+03  0.31335736225E+03  0.00000000000E+00 0. -1.
          1    1    5    5  503    0 -0.43687240175E+01  0.30996851953E+02 -0.33730046846E+02  0.46017460173E+02  0.00000000000E+00 0. -1.
         -2    1    5    5    0  503 -0.15747839112E+03  0.14715504892E+03 -0.52485397295E+02  0.22183049615E+03  0.00000000000E+00 0.  1.
         -3    1    6    6    0  502  0.12199067551E+03  0.66221887952E+03 -0.22761807175E+04  0.23736921089E+04  0.00000000000E+00 0.  1.
<mgrwt>
<rscale>  0 0.23454013E+04</rscale>
<asrwt>0</asrwt>
<pdfrwt beam="1">  1        2 0.58505275E+00 0.23454013E+04</pdfrwt>
<pdfrwt beam="2">  1       -2 0.55635577E-01 0.23454013E+04</pdfrwt>
<totfact> 0.13451650E+00</totfact>
</mgrwt>
</event>
<event>
12    1  0.4612066E-007  0.1972940E+04  0.7818608E-02  0.8619377E-01
          1   -1    0    0  501    0  0.00000000000E+00  0.00000000000E+00  0.10308368016E+04  0.10308368016E+04  0.00000000000E+00 0. -1.
         -1   -1    0    0    0  501 -0.00000000000E+00 -0.00000000000E+00 -0.94401296561E+03  0.94401296561E+03  0.00000000000E+00 0.  1.
         23    2    1    2    0    0 -0.23583152615E+03  0.73254990884E+03  0.17052419651E+03  0.79358410738E+03  0.91931258153E+02 0.  0.
        254    2    1    2    0    0  0.23583152615E+03 -0.73254990884E+03 -0.83700360518E+02  0.11812656598E+04  0.89226505651E+03 0.  0.
        -24    2    4    4    0    0  0.32280567897E+03  0.92090253805E+02 -0.21747494533E+02  0.34600995978E+03  0.81029732392E+02 0.  0.
         24    2    4    4    0    0 -0.86974152818E+02 -0.82464016265E+03 -0.61952865985E+02  0.83525570005E+03  0.78854459293E+02 0.  0.
         13    1    3    3    0    0 -0.94696675526E+02  0.39756685831E+03  0.12419412991E+03  0.42714289071E+03  0.00000000000E+00 0. -1.
        -13    1    3    3    0    0 -0.14113485062E+03  0.33498305053E+03  0.46330066600E+02  0.36644121667E+03  0.00000000000E+00 0.  1.
          4    1    6    6  502    0 -0.17688701717E+02 -0.48956602872E+03 -0.17288944545E+02  0.49019046732E+03  0.00000000000E+00 0. -1.
          1    1    5    5  503    0  0.12213532889E+03  0.60787805267E+02 -0.39796384146E+02  0.14211244851E+03  0.00000000000E+00 0. -1.
         -2    1    5    5    0  503  0.20067035008E+03  0.31302448538E+02  0.18048889613E+02  0.20389751127E+03  0.00000000000E+00 0.  1.
         -3    1    6    6    0  502 -0.69285451102E+02 -0.33507413392E+03 -0.44663921440E+02  0.34506523273E+03  0.00000000000E+00 0.  1.
<mgrwt>
<rscale>  0 0.19729402E+04</rscale>
<asrwt>0</asrwt>
<pdfrwt beam="1">  1        1 0.15859028E+00 0.19729402E+04</pdfrwt>
<pdfrwt beam="2">  1       -1 0.14523276E+00 0.19729402E+04</pdfrwt>
<totfact> 0.50653605E+00</totfact>
</mgrwt>
</event>
<event>
12    1  0.4612066E-007  0.1001031E+04  0.7818608E-02  0.9307415E-01
          2   -1    0    0  501    0  0.00000000000E+00  0.00000000000E+00  0.58824249286E+03  0.58824249286E+03  0.00000000000E+00 0. -1.
         -2   -1    0    0    0  501 -0.00000000000E+00 -0.00000000000E+00 -0.42587149680E+03  0.42587149680E+03  0.00000000000E+00 0.  1.
         23    2    1    2    0    0 -0.11955129505E+02  0.44416569882E+02  0.36714015300E+02  0.10771190714E+03  0.90211857423E+02 0.  0.
        254    2    1    2    0    0  0.11955129505E+02 -0.44416569882E+02  0.12565698076E+03  0.90640208251E+03  0.89647046888E+03 0.  0.
        -24    2    4    4    0    0  0.25901187414E+03  0.62925751944E+02 -0.29205363564E+03  0.40303119263E+03  0.78051360936E+02 0.  0.
         24    2    4    4    0    0 -0.24705674464E+03 -0.10734232183E+03  0.41771061639E+03  0.50337088988E+03  0.79628415819E+02 0.  0.
         11    1    3    3    0    0  0.22700177359E+02  0.83340677487E+01 -0.20505424932E+02  0.31705317993E+02  0.00000000000E+00 0.  1.
        -11    1    3    3    0    0 -0.34655306864E+02  0.36082502133E+02  0.57219440232E+02  0.76006589152E+02  0.00000000000E+00 0. -1.
          4    1    6    6  502    0 -0.41653744705E+02 -0.14674635296E+02  0.25392283185E+02  0.50942589397E+02  0.00000000000E+00 0. -1.
          3    1    5    5  503    0  0.24777630586E+03  0.77235293538E+02 -0.27205022210E+03  0.37599163775E+03  0.00000000000E+00 0. -1.
         -4    1    5    5    0  503  0.11235568282E+02 -0.14309541594E+02 -0.20003413534E+02  0.27039554883E+02  0.00000000000E+00 0.  1.
         -3    1    6    6    0  502 -0.20540299993E+03 -0.92667686529E+02  0.39231833321E+03  0.45242830048E+03  0.00000000000E+00 0.  1.
<mgrwt>
<rscale>  0 0.10010309E+04</rscale>
<asrwt>0</asrwt>
<pdfrwt beam="1">  1        2 0.90498845E-01 0.10010309E+04</pdfrwt>
<pdfrwt beam="2">  1       -2 0.65518692E-01 0.10010309E+04</pdfrwt>
<totfact> 0.10891315E+02</totfact>
</mgrwt>
</event>
<event>
12    1  0.4612066E-007  0.2133163E+04  0.7818608E-02  0.8546774E-01
         -1   -1    0    0    0  501 -0.00000000000E+00  0.00000000000E+00  0.12275903397E+04  0.12275903397E+04  0.00000000000E+00 0.  1.
          1   -1    0    0  501    0  0.00000000000E+00 -0.00000000000E+00 -0.92669022982E+03  0.92669022982E+03  0.00000000000E+00 0. -1.
         23    2    1    2    0    0 -0.74638505654E+03 -0.37191477019E+03  0.39067843865E+03  0.92624887058E+03  0.99479037588E+02 0.  0.
        254    2    1    2    0    0  0.74638505654E+03  0.37191477019E+03 -0.89778328800E+02  0.12280316989E+04  0.89698966343E+03 0.  0.
        -24    2    4    4    0    0  0.85577579717E+03  0.16704620701E+03 -0.27765707140E+03  0.91875309442E+03  0.82201879042E+02 0.  0.
         24    2    4    4    0    0 -0.10939074063E+03  0.20486856319E+03  0.18787874260E+03  0.30927860449E+03  0.80108494924E+02 0.  0.
         13    1    3    3    0    0 -0.17978705440E+02 -0.25131133085E+02  0.28125187732E+02  0.41783177050E+02  0.00000000000E+00 0.  1.
        -13    1    3    3    0    0 -0.72840635110E+03 -0.34678363711E+03  0.36255325092E+03  0.88446569353E+03  0.00000000000E+00 0. -1.
          2    1    6    6  502    0 -0.49511981793E+02  0.23759217290E+02  0.42673840237E+02  0.69548496662E+02  0.00000000000E+00 0. -1.
          1    1    5    5  503    0  0.40633163916E+03  0.11223718451E+03 -0.10728441797E+03  0.43498566978E+03  0.00000000000E+00 0. -1.
         -2    1    5    5    0  503  0.44944415800E+03  0.54809022496E+02 -0.17037265343E+03  0.48376742464E+03  0.00000000000E+00 0.  1.
         -1    1    6    6    0  502 -0.59878758834E+02  0.18110934590E+03  0.14520490236E+03  0.23973010783E+03  0.00000000000E+00 0.  1.
<mgrwt>
<rscale>  0 0.21331629E+04</rscale>
<asrwt>0</asrwt>
<pdfrwt beam="1">  1        1 0.14256773E+00 0.21331629E+04</pdfrwt>
<pdfrwt beam="2">  1       -1 0.18886005E+00 0.21331629E+04</pdfrwt>
<totfact> 0.28565768E+00</totfact>
</mgrwt>
</event>
<event>
12    1  0.4612066E-007  0.1927620E+04  0.7818608E-02  0.8641229E-01
          1   -1    0    0  501    0  0.00000000000E+00  0.00000000000E+00  0.10063972641E+04  0.10063972641E+04  0.00000000000E+00 0. -1.
         -1   -1    0    0    0  501 -0.00000000000E+00 -0.00000000000E+00 -0.92302486266E+03  0.92302486266E+03  0.00000000000E+00 0.  1.
         23    2    1    2    0    0  0.42147862393E+03  0.50501820866E+03 -0.33719803621E+03  0.74477672910E+03  0.91116623462E+02 0.  0.
        254    2    1    2    0    0 -0.42147862393E+03 -0.50501820866E+03  0.42057043764E+03  0.11846453977E+04  0.89096442334E+03 0.  0.
        -24    2    4    4    0    0 -0.54517705420E+03 -0.68185991510E+03  0.34644580167E+03  0.94271833306E+03  0.80883853497E+02 0.  0.
         24    2    4    4    0    0  0.12369843027E+03  0.17684170644E+03  0.74124635973E+02  0.24192706459E+03  0.80373827434E+02 0.  0.
         13    1    3    3    0    0  0.35637749283E+03  0.43191091977E+03 -0.24828660922E+03  0.61253424421E+03  0.00000000000E+00 0. -1.
        -13    1    3    3    0    0  0.65101131105E+02  0.73107288883E+02 -0.88911426988E+02  0.13224248488E+03  0.00000000000E+00 0.  1.
          4    1    6    6  502    0  0.48370884516E+01  0.57382839276E+01  0.27407119396E+02  0.28416113751E+02  0.00000000000E+00 0. -1.
          3    1    5    5  503    0 -0.26758376458E+02 -0.62361438635E+02  0.14583661186E+02  0.69409242273E+02  0.00000000000E+00 0. -1.
         -4    1    5    5    0  503 -0.51841867774E+03 -0.61949847646E+03  0.33186214048E+03  0.87330909079E+03  0.00000000000E+00 0.  1.
         -3    1    6    6    0  502  0.11886134182E+03  0.17110342251E+03  0.46717516578E+02  0.21351095084E+03  0.00000000000E+00 0.  1.
<mgrwt>
<rscale>  0 0.19276200E+04</rscale>
<asrwt>0</asrwt>
<pdfrwt beam="1">  1        1 0.15483035E+00 0.19276200E+04</pdfrwt>
<pdfrwt beam="2">  1       -1 0.14200382E+00 0.19276200E+04</pdfrwt>
<totfact> 0.56383444E+00</totfact>
</mgrwt>
</event>
<event>
12    1  0.4612066E-007  0.2027266E+04  0.7818608E-02  0.8593978E-01
          2   -1    0    0  501    0  0.00000000000E+00  0.00000000000E+00  0.21941695286E+04  0.21941695286E+04  0.00000000000E+00 0. -1.
         -2   -1    0    0    0  501 -0.00000000000E+00 -0.00000000000E+00 -0.46826454157E+03  0.46826454157E+03  0.00000000000E+00 0.  1.
         23    2    1    2    0    0 -0.29326637577E+03  0.68821224461E+03  0.10912144467E+04  0.13261312056E+04  0.90739986408E+02 0.  0.
        254    2    1    2    0    0  0.29326637577E+03 -0.68821224461E+03  0.63469054039E+03  0.13363028646E+04  0.90732133394E+03 0.  0.
        -24    2    4    4    0    0 -0.27711275557E+03 -0.37462183628E+03  0.45472735810E+03  0.65604577450E+03  0.80536255885E+02 0.  0.
         24    2    4    4    0    0  0.57037913133E+03 -0.31359040833E+03  0.17996318229E+03  0.68025709008E+03  0.81802591415E+02 0.  0.
         13    1    3    3    0    0 -0.10507572619E+03  0.14980857104E+03  0.27971401560E+03  0.33425057474E+03  0.00000000000E+00 0.  1.
        -13    1    3    3    0    0 -0.18819064957E+03  0.53840367357E+03  0.81150043105E+03  0.99188063087E+03  0.00000000000E+00 0. -1.
          4    1    6    6  502    0  0.25694681446E+02 -0.60395431496E+01 -0.71675808479E+01  0.27350812625E+02  0.00000000000E+00 0. -1.
          1    1    5    5  503    0 -0.65293968817E+02 -0.88975628178E+02  0.15893014835E+03  0.19349097350E+03  0.00000000000E+00 0. -1.
         -2    1    5    5    0  503 -0.21181878675E+03 -0.28564620810E+03  0.29579720976E+03  0.46255480099E+03  0.00000000000E+00 0.  1.
         -3    1    6    6    0  502  0.54468444989E+03 -0.30755086518E+03  0.18713076314E+03  0.65290627745E+03  0.00000000000E+00 0.  1.
<mgrwt>
<rscale>  0 0.20272659E+04</rscale>
<asrwt>0</asrwt>
<pdfrwt beam="1">  1        2 0.33756454E+00 0.20272659E+04</pdfrwt>
<pdfrwt beam="2">  1       -2 0.72040700E-01 0.20272659E+04</pdfrwt>
<totfact> 0.84183002E+00</totfact>
</mgrwt>
</event>
<event>
12    1  0.4612066E-007  0.1392056E+04  0.7818608E-02  0.8959589E-01
         -2   -1    0    0    0  501 -0.00000000000E+00  0.00000000000E+00  0.81150816305E+03  0.81150816305E+03  0.00000000000E+00 0.  1.
          2   -1    0    0  501    0  0.00000000000E+00 -0.00000000000E+00 -0.59698106858E+03  0.59698106858E+03  0.00000000000E+00 0. -1.
         23    2    1    2    0    0 -0.25484156120E+03  0.32610792935E+03 -0.42759559279E+01  0.42396330830E+03  0.91847700502E+02 0.  0.
        254    2    1    2    0    0  0.25484156120E+03 -0.32610792935E+03  0.21880305040E+03  0.98452592333E+03  0.86609809834E+03 0.  0.
        -24    2    4    4    0    0  0.82581226141E+02 -0.58082896553E+03 -0.11353775455E+02  0.59215778428E+03  0.79624036339E+02 0.  0.
         24    2    4    4    0    0  0.17226033506E+03  0.25472103618E+03  0.23015682585E+03  0.39236813905E+03  0.80150874897E+02 0.  0.
         11    1    3    3    0    0 -0.12732283554E+03  0.21072483774E+03  0.31799551120E+02  0.24824841015E+03  0.00000000000E+00 0.  1.
        -11    1    3    3    0    0 -0.12751872567E+03  0.11538309161E+03 -0.36075507048E+02  0.17571489815E+03  0.00000000000E+00 0. -1.
          4    1    6    6  502    0  0.45148960260E+02  0.32695347070E+02  0.14086715510E+02  0.57496520646E+02  0.00000000000E+00 0. -1.
          3    1    5    5  503    0 -0.11193753632E+02 -0.66600578340E+02 -0.16100289104E+02  0.69427346664E+02  0.00000000000E+00 0. -1.
         -4    1    5    5    0  503  0.93774979773E+02 -0.51422838719E+03  0.47465136496E+01  0.52273043762E+03  0.00000000000E+00 0.  1.
         -3    1    6    6    0  502  0.12711137480E+03  0.22202568911E+03  0.21607011034E+03  0.33487161840E+03  0.00000000000E+00 0.  1.
<mgrwt>
<rscale>  0 0.13920560E+04</rscale>
<asrwt>0</asrwt>
<pdfrwt beam="1">  1        2 0.91843241E-01 0.13920560E+04</pdfrwt>
<pdfrwt beam="2">  1       -2 0.12484741E+00 0.13920560E+04</pdfrwt>
<totfact> 0.23365225E+01</totfact>
</mgrwt>
</event>
<event>
12    1  0.4612066E-007  0.1129465E+04  0.7818608E-02  0.9176940E-01
         -2   -1    0    0    0  501 -0.00000000000E+00  0.00000000000E+00  0.18464201739E+03  0.18464201739E+03  0.00000000000E+00 0.  1.
          2   -1    0    0  501    0  0.00000000000E+00 -0.00000000000E+00 -0.17272488968E+04  0.17272488968E+04  0.00000000000E+00 0. -1.
         23    2    1    2    0    0  0.10751062574E+03 -0.11647508321E+03 -0.47699567194E+03  0.51080811591E+03  0.90967469892E+02 0.  0.
        254    2    1    2    0    0 -0.10751062574E+03  0.11647508321E+03 -0.10656112075E+04  0.14010827983E+04  0.89575710017E+03 0.  0.
        -24    2    4    4    0    0 -0.18172344244E+03 -0.13308886130E+03  0.57513146964E+02  0.24548263308E+03  0.78853703373E+02 0.  0.
         24    2    4    4    0    0  0.74212816704E+02  0.24956394451E+03 -0.11231243544E+04  0.11556001652E+04  0.78827163655E+02 0.  0.
         11    1    3    3    0    0  0.28645729633E+02  0.76903811671E+01 -0.14002244729E+03  0.14312933149E+03  0.00000000000E+00 0. -1.
        -11    1    3    3    0    0  0.78864896106E+02 -0.12416546438E+03 -0.33697322465E+03  0.36767878442E+03  0.00000000000E+00 0.  1.
          2    1    6    6  502    0  0.45233625004E+02  0.11553589184E+03 -0.69695899101E+03  0.70791698544E+03  0.00000000000E+00 0. -1.
          3    1    5    5  503    0 -0.16174786430E+03 -0.82085187576E+02  0.28863217868E+02  0.18366664088E+03  0.00000000000E+00 0. -1.
         -2    1    5    5    0  503 -0.19975578145E+02 -0.51003673719E+02  0.28649929096E+02  0.61815992205E+02  0.00000000000E+00 0.  1.
         -1    1    6    6    0  502  0.28979191700E+02  0.13402805267E+03 -0.42616536344E+03  0.44768317977E+03  0.00000000000E+00 0.  1.
<mgrwt>
<rscale>  0 0.11294649E+04</rscale>
<asrwt>0</asrwt>
<pdfrwt beam="1">  1        2 0.26573059E+00 0.11294649E+04</pdfrwt>
<pdfrwt beam="2">  1       -2 0.28406465E-01 0.11294649E+04</pdfrwt>
<totfact> 0.10654225E+02</totfact>
</mgrwt>
</event>
<event>
12    1  0.4612066E-007  0.2028803E+04  0.7818608E-02  0.8593272E-01
          1   -1    0    0  501    0  0.00000000000E+00  0.00000000000E+00  0.12190871696E+04  0.12190871696E+04  0.00000000000E+00 0. -1.
         -1   -1    0    0    0  501 -0.00000000000E+00 -0.00000000000E+00 -0.84408240067E+03  0.84408240067E+03  0.00000000000E+00 0.  1.
         23    2    1    2    0    0 -0.73352654165E+03  0.30919489830E+03  0.45602111490E+02  0.80559869321E+03  0.11509574051E+03 0.  0.
        254    2    1    2    0    0  0.73352654165E+03 -0.30919489830E+03  0.32940265746E+03  0.12575708771E+04  0.91614176179E+03 0.  0.
        -24    2    4    4    0    0 -0.13273041489E+03 -0.84815613463E+02 -0.15626845817E+03  0.23635933468E+03  0.81454605438E+02 0.  0.
         24    2    4    4    0    0  0.86625695654E+03 -0.22437928484E+03  0.48567111563E+03  0.10212115424E+04  0.79053169142E+02 0.  0.
         13    1    3    3    0    0 -0.31144774043E+03  0.12529388960E+03  0.75976575426E+02  0.34419572020E+03  0.00000000000E+00 0. -1.
        -13    1    3    3    0    0 -0.42207880122E+03  0.18390100870E+03 -0.30374463935E+02  0.46140297301E+03  0.00000000000E+00 0.  1.
          2    1    6    6  502    0  0.59234864387E+03 -0.19015436438E+03  0.34553171008E+03  0.71163738017E+03  0.00000000000E+00 0. -1.
          3    1    5    5  503    0 -0.13558684673E+03 -0.57964318782E+02 -0.14588975029E+03  0.20743064985E+03  0.00000000000E+00 0. -1.
         -4    1    5    5    0  503  0.28564318330E+01 -0.26851294680E+02 -0.10378707879E+02  0.28928684831E+02  0.00000000000E+00 0.  1.
         -1    1    6    6    0  502  0.27390831268E+03 -0.34224920460E+02  0.14013940555E+03  0.30957416223E+03  0.00000000000E+00 0.  1.
<mgrwt>
<rscale>  0 0.20288026E+04</rscale>
<asrwt>0</asrwt>
<pdfrwt beam="1">  1        1 0.18755187E+00 0.20288026E+04</pdfrwt>
<pdfrwt beam="2">  1       -1 0.12985883E+00 0.20288026E+04</pdfrwt>
<totfact> 0.48699885E+00</totfact>
</mgrwt>
</event>
<event>
12    1  0.4612066E-007  0.2705778E+04  0.7818608E-02  0.8333133E-01
         -1   -1    0    0    0  501 -0.00000000000E+00  0.00000000000E+00  0.31604452468E+04  0.31604452468E+04  0.00000000000E+00 0.  1.
          1   -1    0    0  501    0  0.00000000000E+00 -0.00000000000E+00 -0.57912984317E+03  0.57912984317E+03  0.00000000000E+00 0. -1.
         23    2    1    2    0    0  0.57972877556E+03  0.83714445337E+03  0.26765106805E+03  0.10569106870E+04  0.92340765556E+02 0.  0.
        254    2    1    2    0    0 -0.57972877556E+03 -0.83714445337E+03  0.23136643356E+04  0.26826644030E+04  0.89819226913E+03 0.  0.
        -24    2    4    4    0    0  0.92942795301E+02 -0.56029006526E+03  0.66281164387E+03  0.87656987159E+03  0.80573842578E+02 0.  0.
         24    2    4    4    0    0 -0.67267157086E+03 -0.27685438812E+03  0.16508526917E+04  0.18060945314E+04  0.86760890758E+02 0.  0.
         13    1    3    3    0    0  0.61877554423E+02  0.51917724720E+02  0.82978470798E+01  0.81198128966E+02  0.00000000000E+00 0.  1.
        -13    1    3    3    0    0  0.51785122114E+03  0.78522672865E+03  0.25935322097E+03  0.97571255801E+03  0.00000000000E+00 0. -1.
          2    1    6    6  502    0 -0.94642495351E+02 -0.63236215319E+02  0.20691945436E+03  0.23616028762E+03  0.00000000000E+00 0. -1.
          3    1    5    5  503    0 -0.10543749035E+02 -0.97749505029E+02  0.92247361042E+02  0.13481732825E+03  0.00000000000E+00 0. -1.
         -4    1    5    5    0  503  0.10348654434E+03 -0.46254056023E+03  0.57056428283E+03  0.74175254334E+03  0.00000000000E+00 0.  1.
         -1    1    6    6    0  502 -0.57802907551E+03 -0.21361817280E+03  0.14439332374E+04  0.15699342438E+04  0.00000000000E+00 0.  1.
<mgrwt>
<rscale>  0 0.27057776E+04</rscale>
<asrwt>0</asrwt>
<pdfrwt beam="1">  1        1 0.89096901E-01 0.27057776E+04</pdfrwt>
<pdfrwt beam="2">  1       -1 0.48622234E+00 0.27057776E+04</pdfrwt>
<totfact> 0.57569999E-02</totfact>
</mgrwt>
</event>
<event>
12    1  0.4612066E-007  0.1404669E+04  0.7818608E-02  0.8950446E-01
         -1   -1    0    0    0  501 -0.00000000000E+00  0.00000000000E+00  0.60318676082E+03  0.60318676082E+03  0.00000000000E+00 0.  1.
          1   -1    0    0  501    0  0.00000000000E+00 -0.00000000000E+00 -0.81777957294E+03  0.81777957294E+03  0.00000000000E+00 0. -1.
         23    2    1    2    0    0  0.37918246291E+03 -0.23883254470E+01  0.82753942595E+02  0.39847997332E+03  0.90294129619E+02 0.  0.
        254    2    1    2    0    0 -0.37918246291E+03  0.23883254470E+01 -0.29734675472E+03  0.10224863604E+04  0.90181939460E+03 0.  0.
        -24    2    4    4    0    0 -0.44539101538E+03  0.22049928382E+03  0.14010629379E+03  0.52279237987E+03  0.81786356690E+02 0.  0.
         24    2    4    4    0    0  0.66208552466E+02 -0.21811095837E+03 -0.43745304851E+03  0.49969398058E+03  0.79830708346E+02 0.  0.
         13    1    3    3    0    0  0.28356126222E+03  0.27451194704E+02  0.88014699791E+02  0.29817301170E+03  0.00000000000E+00 0.  1.
        -13    1    3    3    0    0  0.95621200688E+02 -0.29839520151E+02 -0.52607571965E+01  0.10030696162E+03  0.00000000000E+00 0. -1.
          4    1    6    6  502    0  0.76699684918E+02 -0.15742986683E+03 -0.36330583846E+03  0.40330898440E+03  0.00000000000E+00 0. -1.
          1    1    5    5  503    0 -0.37749558131E+03  0.16697937512E+03  0.14141477594E+03  0.43632919278E+03  0.00000000000E+00 0. -1.
         -2    1    5    5    0  503 -0.67895434073E+02  0.53519908699E+02 -0.13084821435E+01  0.86463187084E+02  0.00000000000E+00 0.  1.
         -3    1    6    6    0  502 -0.10491132452E+02 -0.60681091541E+02 -0.74147210051E+02  0.96384996182E+02  0.00000000000E+00 0.  1.
<mgrwt>
<rscale>  0 0.14046691E+04</rscale>
<asrwt>0</asrwt>
<pdfrwt beam="1">  1        1 0.12581224E+00 0.14046691E+04</pdfrwt>
<pdfrwt beam="2">  1       -1 0.92797964E-01 0.14046691E+04</pdfrwt>
<totfact> 0.23480374E+01</totfact>
</mgrwt>
</event>
<event>
12    1  0.4612066E-007  0.1247642E+04  0.7818608E-02  0.9072148E-01
         -1   -1    0    0    0  501 -0.00000000000E+00  0.00000000000E+00  0.28743116162E+03  0.28743116162E+03  0.00000000000E+00 0.  1.
          1   -1    0    0  501    0  0.00000000000E+00 -0.00000000000E+00 -0.13538977686E+04  0.13538977686E+04  0.00000000000E+00 0. -1.
         23    2    1    2    0    0  0.19830704251E+03 -0.10949557703E+03 -0.33901907525E+02  0.25085882672E+03  0.10230272291E+03 0.  0.
        254    2    1    2    0    0 -0.19830704251E+03  0.10949557703E+03 -0.10325646995E+04  0.13904701035E+04  0.90327309583E+03 0.  0.
        -24    2    4    4    0    0 -0.16993121528E+03  0.12178080072E+03 -0.11900982589E+04  0.12109875723E+04  0.80310977350E+02 0.  0.
         24    2    4    4    0    0 -0.28375827228E+02 -0.12285223690E+02  0.15753355948E+03  0.17948253115E+03  0.80256104656E+02 0.  0.
         13    1    3    3    0    0  0.10499131939E+03 -0.89408469413E+02  0.22888922919E+02  0.13978896360E+03  0.00000000000E+00 0.  1.
        -13    1    3    3    0    0  0.93315723111E+02 -0.20087107615E+02 -0.56790830444E+02  0.11106986312E+03  0.00000000000E+00 0. -1.
          4    1    6    6  502    0 -0.17066761278E+02 -0.24633785012E+02  0.15979950502E+03  0.16258529917E+03  0.00000000000E+00 0. -1.
          3    1    5    5  503    0 -0.61982126208E+02  0.89005881712E+02 -0.67702068874E+03  0.68565358887E+03  0.00000000000E+00 0. -1.
         -4    1    5    5    0  503 -0.10794908907E+03  0.32774919006E+02 -0.51307757019E+03  0.52533398346E+03  0.00000000000E+00 0.  1.
         -3    1    6    6    0  502 -0.11309065950E+02  0.12348561322E+02 -0.22659455345E+01  0.16897231979E+02  0.00000000000E+00 0.  1.
<mgrwt>
<rscale>  0 0.12476416E+04</rscale>
<asrwt>0</asrwt>
<pdfrwt beam="1">  1        1 0.20829197E+00 0.12476416E+04</pdfrwt>
<pdfrwt beam="2">  1       -1 0.44220178E-01 0.12476416E+04</pdfrwt>
<totfact> 0.41313777E+01</totfact>
</mgrwt>
</event>
<event>
12    1  0.4612066E-007  0.1862666E+04  0.7818608E-02  0.8673666E-01
         -2   -1    0    0    0  501 -0.00000000000E+00  0.00000000000E+00  0.10091851458E+04  0.10091851458E+04  0.00000000000E+00 0. -1.
          2   -1    0    0  501    0  0.00000000000E+00 -0.00000000000E+00 -0.85948709723E+03  0.85948709723E+03  0.00000000000E+00 0.  1.
         23    2    1    2    0    0  0.32043860483E+02 -0.15729567317E+03 -0.63715962130E+03  0.66335220687E+03  0.91077052858E+02 0.  0.
        254    2    1    2    0    0 -0.32043860483E+02  0.15729567317E+03  0.78685766986E+03  0.12053200362E+04  0.89882292980E+03 0.  0.
        -24    2    4    4    0    0 -0.45007766030E+03  0.98036620369E+02  0.52164311583E+03  0.70040108919E+03  0.79177434963E+02 0.  0.
         24    2    4    4    0    0  0.41803379982E+03  0.59259052798E+02  0.26521455404E+03  0.50491894697E+03  0.79627195158E+02 0.  0.
         11    1    3    3    0    0 -0.61588363628E+01 -0.11404897516E+02 -0.57456579820E+01  0.14177994863E+02  0.00000000000E+00 0. -1.
        -11    1    3    3    0    0  0.38202696846E+02 -0.14589077565E+03 -0.63141396332E+03  0.64917421201E+03  0.00000000000E+00 0.  1.
          2    1    6    6  502    0  0.48127006699E+02  0.30429267127E+02  0.20795359611E+02  0.60618446475E+02  0.00000000000E+00 0. -1.
          3    1    5    5  503    0 -0.88857657670E+02  0.52012510548E+02  0.10501751430E+03  0.14707026514E+03  0.00000000000E+00 0. -1.
         -4    1    5    5    0  503 -0.36122000263E+03  0.46024109821E+02  0.41662560153E+03  0.55333082404E+03  0.00000000000E+00 0.  1.
         -1    1    6    6    0  502  0.36990679312E+03  0.28829785671E+02  0.24441919442E+03  0.44430050049E+03  0.00000000000E+00 0.  1.
<mgrwt>
<rscale>  0 0.18626665E+04</rscale>
<asrwt>0</asrwt>
<pdfrwt beam="1">  1        2 0.13222878E+00 0.18626665E+04</pdfrwt>
<pdfrwt beam="2">  1       -2 0.15525925E+00 0.18626665E+04</pdfrwt>
<totfact> 0.80222494E+00</totfact>
</mgrwt>
</event>
<event>
12    1  0.4612066E-007  0.1462012E+04  0.7818608E-02  0.8910115E-01
          1   -1    0    0  501    0  0.00000000000E+00  0.00000000000E+00  0.30120587661E+04  0.30120587661E+04  0.00000000000E+00 0. -1.
         -1   -1    0    0    0  501 -0.00000000000E+00 -0.00000000000E+00 -0.17741020691E+03  0.17741020691E+03  0.00000000000E+00 0.  1.
         23    2    1    2    0    0  0.20843724359E+03 -0.25940149435E+03  0.15356836659E+04  0.15738917306E+04  0.89864554688E+02 0.  0.
        254    2    1    2    0    0 -0.20843724359E+03  0.25940149435E+03  0.12989648932E+04  0.16155772423E+04  0.90113529080E+03 0.  0.
        -24    2    4    4    0    0 -0.91381304290E+01 -0.32392069902E+03  0.36701851636E+03  0.49568168268E+03  0.77392599856E+02 0.  0.
         24    2    4    4    0    0 -0.19929911316E+03  0.58332219337E+03  0.93194637686E+03  0.11198955596E+04  0.75213678265E+02 0.  0.
         11    1    3    3    0    0  0.35668382498E+02 -0.64284584352E+02  0.20149310866E+03  0.21448592992E+03  0.00000000000E+00 0.  1.
        -11    1    3    3    0    0  0.17276886109E+03 -0.19511691000E+03  0.13341905573E+04  0.13594058007E+04  0.00000000000E+00 0. -1.
          2    1    6    6  502    0 -0.16193961853E+03  0.37330583674E+03  0.63755405869E+03  0.75634440935E+03  0.00000000000E+00 0. -1.
          3    1    5    5  503    0  0.14653764888E+02 -0.21381758844E+03  0.28379024833E+03  0.35562564446E+03  0.00000000000E+00 0. -1.
         -4    1    5    5    0  503 -0.23791895317E+02 -0.11010311058E+03  0.83228268031E+02  0.14005603822E+03  0.00000000000E+00 0.  1.
         -1    1    6    6    0  502 -0.37359494624E+02  0.21001635663E+03  0.29439231817E+03  0.36355115030E+03  0.00000000000E+00 0.  1.
<mgrwt>
<rscale>  0 0.14620123E+04</rscale>
<asrwt>0</asrwt>
<pdfrwt beam="1">  1        1 0.46339362E+00 0.14620123E+04</pdfrwt>
<pdfrwt beam="2">  1       -1 0.27293880E-01 0.14620123E+04</pdfrwt>
<totfact> 0.68886511E+00</totfact>
</mgrwt>
</event>
<event>
12    1  0.4612066E-007  0.3574752E+04  0.7818608E-02  0.8096300E-01
         -2   -1    0    0    0  501 -0.00000000000E+00  0.00000000000E+00  0.12881158219E+04  0.12881158219E+04  0.00000000000E+00 0.  1.
          2   -1    0    0  501    0  0.00000000000E+00 -0.00000000000E+00 -0.24801448101E+04  0.24801448101E+04  0.00000000000E+00 0. -1.
         23    2    1    2    0    0  0.13332178617E+04  0.84255096941E+03  0.30322847070E+02  0.15800832410E+04  0.91550917537E+02 0.  0.
        254    2    1    2    0    0 -0.13332178617E+04 -0.84255096941E+03 -0.12223518353E+04  0.21881773909E+04  0.89811707590E+03 0.  0.
        -24    2    4    4    0    0 -0.12878126548E+04 -0.88044748682E+03 -0.13240497125E+04  0.20477177346E+04  0.79944159142E+02 0.  0.
         24    2    4    4    0    0 -0.45405206925E+02  0.37896517407E+02  0.10169787719E+03  0.14045965632E+03  0.76737722014E+02 0.  0.
         13    1    3    3    0    0  0.50297096688E+03  0.26667997512E+03  0.32095837712E+01  0.56930510632E+03  0.00000000000E+00 0. -1.
        -13    1    3    3    0    0  0.83024689486E+03  0.57587099429E+03  0.27113263299E+02  0.10107781347E+04  0.00000000000E+00 0.  1.
          4    1    6    6  502    0 -0.20252652784E+01 -0.10063480530E+01 -0.12261066665E+02  0.12467886413E+02  0.00000000000E+00 0. -1.
          1    1    5    5  503    0 -0.82721877319E+02 -0.61611021786E+02 -0.11453246638E+03  0.15413147909E+03  0.00000000000E+00 0. -1.
         -2    1    5    5    0  503 -0.12050907775E+04 -0.81883646503E+03 -0.12095172461E+04  0.18935862555E+04  0.00000000000E+00 0.  1.
         -3    1    6    6    0  502 -0.43379941646E+02  0.38902865460E+02  0.11395894386E+03  0.12799176991E+03  0.00000000000E+00 0.  1.
<mgrwt>
<rscale>  0 0.35747525E+04</rscale>
<asrwt>0</asrwt>
<pdfrwt beam="1">  1        2 0.38156073E+00 0.35747525E+04</pdfrwt>
<pdfrwt beam="2">  1       -2 0.19817167E+00 0.35747525E+04</pdfrwt>
<totfact> 0.39916382E-01</totfact>
</mgrwt>
</event>
<event>
12    1  0.4612066E-007  0.1825134E+04  0.7818608E-02  0.8693047E-01
         -2   -1    0    0    0  501 -0.00000000000E+00  0.00000000000E+00  0.47135767685E+03  0.47135767685E+03  0.00000000000E+00 0.  1.
          2   -1    0    0  501    0  0.00000000000E+00 -0.00000000000E+00 -0.17667655043E+04  0.17667655043E+04  0.00000000000E+00 0. -1.
         23    2    1    2    0    0  0.87630951645E+02  0.26750028831E+03  0.27426180906E+03  0.40331458156E+03  0.90595385431E+02 0.  0.
        254    2    1    2    0    0 -0.87630951645E+02 -0.26750028831E+03 -0.15696696365E+04  0.18348085996E+04  0.90742726508E+03 0.  0.
        -24    2    4    4    0    0 -0.18287278482E+03 -0.48555223023E+03 -0.46283456597E+03  0.69978062480E+03  0.79206462387E+02 0.  0.
         24    2    4    4    0    0  0.95241833178E+02  0.21805194192E+03 -0.11068350706E+04  0.11350279748E+04  0.81160174979E+02 0.  0.
         11    1    3    3    0    0  0.27585236295E+02  0.11262155725E+03  0.55268190423E+02  0.12844895208E+03  0.00000000000E+00 0. -1.
        -11    1    3    3    0    0  0.60045715350E+02  0.15487873106E+03  0.21899361864E+03  0.27486562948E+03  0.00000000000E+00 0.  1.
          2    1    6    6  502    0 -0.13690730976E+02  0.13742440616E+02 -0.10596267710E+03  0.10772362660E+03  0.00000000000E+00 0. -1.
          3    1    5    5  503    0 -0.54591189085E+02 -0.20630385847E+03 -0.14713637344E+03  0.25921148187E+03  0.00000000000E+00 0. -1.
         -4    1    5    5    0  503 -0.12828159574E+03 -0.27924837176E+03 -0.31569819254E+03  0.44056914293E+03  0.00000000000E+00 0.  1.
         -1    1    6    6    0  502  0.10893256415E+03  0.20430950130E+03 -0.10008723935E+04  0.10273043482E+04  0.00000000000E+00 0.  1.
<mgrwt>
<rscale>  0 0.18251339E+04</rscale>
<asrwt>0</asrwt>
<pdfrwt beam="1">  1        2 0.27181008E+00 0.18251339E+04</pdfrwt>
<pdfrwt beam="2">  1       -2 0.72516566E-01 0.18251339E+04</pdfrwt>
<totfact> 0.14591015E+01</totfact>
</mgrwt>
</event>
<event>
12    1  0.4612066E-007  0.1828904E+04  0.7818608E-02  0.8691078E-01
         -2   -1    0    0    0  501 -0.00000000000E+00  0.00000000000E+00  0.52640411262E+03  0.52640411262E+03  0.00000000000E+00 0. -1.
          2   -1    0    0  501    0  0.00000000000E+00 -0.00000000000E+00 -0.15885555688E+04  0.15885555688E+04  0.00000000000E+00 0.  1.
         23    2    1    2    0    0  0.39326230052E+03  0.52723275262E+03 -0.74731434631E+03  0.99972581927E+03  0.91342044356E+02 0.  0.
        254    2    1    2    0    0 -0.39326230052E+03 -0.52723275262E+03 -0.31483710989E+03  0.11152338622E+04  0.84379769444E+03 0.  0.
        -24    2    4    4    0    0 -0.37060881494E+03 -0.73047000212E+03 -0.34697074940E+03  0.89315621251E+03  0.80012507102E+02 0.  0.
         24    2    4    4    0    0 -0.22653485580E+02  0.20323724950E+03  0.32133639511E+02  0.22207764967E+03  0.80419846428E+02 0.  0.
         13    1    3    3    0    0  0.91066796404E+02  0.18490232566E+03 -0.20385475037E+03  0.28989444750E+03  0.00000000000E+00 0. -1.
        -13    1    3    3    0    0  0.30219550411E+03  0.34233042695E+03 -0.54345959594E+03  0.70983137177E+03  0.00000000000E+00 0.  1.
          4    1    6    6  502    0  0.27157451180E+02  0.35272126836E+02  0.79752253710E+01  0.45224487900E+02  0.00000000000E+00 0. -1.
          1    1    5    5  503    0 -0.30647578837E+02 -0.72585213054E+02 -0.59717084996E+02  0.98863630740E+02  0.00000000000E+00 0. -1.
         -2    1    5    5    0  503 -0.33996123610E+03 -0.65788478906E+03 -0.28725366440E+03  0.79429258176E+03  0.00000000000E+00 0.  1.
         -3    1    6    6    0  502 -0.49810936760E+02  0.16796512267E+03  0.24158414140E+02  0.17685316177E+03  0.00000000000E+00 0.  1.
<mgrwt>
<rscale>  0 0.18289037E+04</rscale>
<asrwt>0</asrwt>
<pdfrwt beam="1">  1        2 0.24439316E+00 0.18289037E+04</pdfrwt>
<pdfrwt beam="2">  1       -2 0.80985249E-01 0.18289037E+04</pdfrwt>
<totfact> 0.14333910E+01</totfact>
</mgrwt>
</event>
<event>
12    1  0.4612066E-007  0.1476154E+04  0.7818608E-02  0.8900467E-01
          1   -1    0    0  501    0  0.00000000000E+00  0.00000000000E+00  0.11565158415E+04  0.11565158415E+04  0.00000000000E+00 0. -1.
         -1   -1    0    0    0  501 -0.00000000000E+00 -0.00000000000E+00 -0.47103324414E+03  0.47103324414E+03  0.00000000000E+00 0.  1.
         23    2    1    2    0    0  0.33552480189E+03 -0.15004423382E+03 -0.83168449388E+02  0.39020814981E+03  0.10126818067E+03 0.  0.
        254    2    1    2    0    0 -0.33552480189E+03  0.15004423382E+03  0.76865104674E+03  0.12373409358E+04  0.89727253107E+03 0.  0.
        -24    2    4    4    0    0 -0.56393783059E+03  0.32547189943E+03  0.42439948333E+03  0.78179176178E+03  0.84413288325E+02 0.  0.
         24    2    4    4    0    0  0.22841302870E+03 -0.17542766560E+03  0.34425156340E+03  0.45554917404E+03  0.77900792808E+02 0.  0.
         11    1    3    3    0    0  0.11262132134E+03 -0.64783435083E+01 -0.16368048679E+01  0.11281936928E+03  0.00000000000E+00 0. -1.
        -11    1    3    3    0    0  0.22290348055E+03 -0.14356589032E+03 -0.81531644520E+02  0.27738878053E+03  0.00000000000E+00 0.  1.
          2    1    6    6  502    0  0.21196288109E+03 -0.17534281969E+03  0.29379385651E+03  0.40247757390E+03  0.00000000000E+00 0. -1.
          1    1    5    5  503    0 -0.44073099188E+03  0.27059971386E+03  0.37214304268E+03  0.63714869267E+03  0.00000000000E+00 0. -1.
         -2    1    5    5    0  503 -0.12320683871E+03  0.54872185564E+02  0.52256440647E+02  0.14464306911E+03  0.00000000000E+00 0.  1.
         -1    1    6    6    0  502  0.16450147613E+02 -0.84845917126E-01  0.50457706897E+02  0.53071600133E+02  0.00000000000E+00 0.  1.
<mgrwt>
<rscale>  0 0.14761537E+04</rscale>
<asrwt>0</asrwt>
<pdfrwt beam="1">  1        1 0.17792551E+00 0.14761537E+04</pdfrwt>
<pdfrwt beam="2">  1       -1 0.72466653E-01 0.14761537E+04</pdfrwt>
<totfact> 0.21416781E+01</totfact>
</mgrwt>
</event>
<event>
12    1  0.4612066E-007  0.1377201E+04  0.7818608E-02  0.8970489E-01
          1   -1    0    0  501    0  0.00000000000E+00  0.00000000000E+00  0.12205174126E+04  0.12205174126E+04  0.00000000000E+00 0. -1.
         -1   -1    0    0    0  501 -0.00000000000E+00 -0.00000000000E+00 -0.38849967000E+03  0.38849967000E+03  0.00000000000E+00 0.  1.
         23    2    1    2    0    0 -0.10294112202E+03  0.16598385861E+03  0.62482473987E+03  0.66103102458E+03  0.91698113252E+02 0.  0.
        254    2    1    2    0    0  0.10294112202E+03 -0.16598385861E+03  0.20719300269E+03  0.94798605799E+03  0.90421297815E+03 0.  0.
        -24    2    4    4    0    0  0.18993495240E+03 -0.82095005142E+02  0.54066147485E+03  0.58439628154E+03  0.79933143767E+02 0.  0.
         24    2    4    4    0    0 -0.86993830377E+02 -0.83888853467E+02 -0.33346847216E+03  0.36358977645E+03  0.79943963844E+02 0.  0.
         13    1    3    3    0    0 -0.62469981494E+02  0.14681726919E+03  0.37989363930E+03  0.41204002997E+03  0.00000000000E+00 0. -1.
        -13    1    3    3    0    0 -0.40471140528E+02  0.19166589419E+02  0.24493110057E+03  0.24899099460E+03  0.00000000000E+00 0.  1.
          2    1    6    6  502    0 -0.43406526449E+00  0.14110675387E+02 -0.34749162849E+02  0.37507384490E+02  0.00000000000E+00 0. -1.
          1    1    5    5  503    0  0.14425534958E+03 -0.95827023093E+02  0.40047629832E+03  0.43631833534E+03  0.00000000000E+00 0. -1.
         -2    1    5    5    0  503  0.45679602819E+02  0.13732017950E+02  0.14018517653E+03  0.14807794619E+03  0.00000000000E+00 0.  1.
         -1    1    6    6    0  502 -0.86559765113E+02 -0.97999528854E+02 -0.29871930931E+03  0.32608239196E+03  0.00000000000E+00 0.  1.
<mgrwt>
<rscale>  0 0.13772009E+04</rscale>
<asrwt>0</asrwt>
<pdfrwt beam="1">  1        1 0.18777191E+00 0.13772009E+04</pdfrwt>
<pdfrwt beam="2">  1       -1 0.59769181E-01 0.13772009E+04</pdfrwt>
<totfact> 0.28617081E+01</totfact>
</mgrwt>
</event>
<event>
12    1  0.4612066E-007  0.1913498E+04  0.7818608E-02  0.8648167E-01
         -1   -1    0    0    0  501 -0.00000000000E+00  0.00000000000E+00  0.50699830085E+03  0.50699830085E+03  0.00000000000E+00 0.  1.
          1   -1    0    0  501    0  0.00000000000E+00 -0.00000000000E+00 -0.18054664625E+04  0.18054664625E+04  0.00000000000E+00 0. -1.
         23    2    1    2    0    0 -0.69484845942E+03  0.25131602191E+03 -0.52695767243E+03  0.91262605061E+03  0.96061414229E+02 0.  0.
        254    2    1    2    0    0  0.69484845942E+03 -0.25131602191E+03 -0.77151048921E+03  0.13998387127E+04  0.90462470794E+03 0.  0.
        -24    2    4    4    0    0  0.18355105490E+03 -0.50312024153E+03 -0.17018603902E+03  0.56748675414E+03  0.79100954807E+02 0.  0.
         24    2    4    4    0    0  0.51129740452E+03  0.25180421962E+03 -0.60132445018E+03  0.83235195857E+03  0.79926764330E+02 0.  0.
         11    1    3    3    0    0 -0.68321911167E+03  0.24413811718E+03 -0.49623216595E+03  0.87899837163E+03  0.00000000000E+00 0.  1.
        -11    1    3    3    0    0 -0.11629347753E+02  0.71779047338E+01 -0.30725506479E+02  0.33627678985E+02  0.00000000000E+00 0. -1.
          4    1    6    6  502    0  0.44357591912E+02  0.48537331929E+02 -0.80199886845E+02  0.10370868045E+03  0.00000000000E+00 0. -1.
          1    1    5    5  503    0  0.42212196710E+02 -0.80285529246E+02 -0.12311554327E+01  0.90714670815E+02  0.00000000000E+00 0. -1.
         -2    1    5    5    0  503  0.14133885819E+03 -0.42283471229E+03 -0.16895488359E+03  0.47677208332E+03  0.00000000000E+00 0.  1.
         -3    1    6    6    0  502  0.46693981261E+03  0.20326688769E+03 -0.52112456334E+03  0.72864327812E+03  0.00000000000E+00 0.  1.
<mgrwt>
<rscale>  0 0.19134978E+04</rscale>
<asrwt>0</asrwt>
<pdfrwt beam="1">  1        1 0.27776407E+00 0.19134978E+04</pdfrwt>
<pdfrwt beam="2">  1       -1 0.77999738E-01 0.19134978E+04</pdfrwt>
<totfact> 0.62134934E+00</totfact>
</mgrwt>
</event>
<event>
12    1  0.4612066E-007  0.3996801E+04  0.7818608E-02  0.8005192E-01
         -2   -1    0    0    0  501 -0.00000000000E+00  0.00000000000E+00  0.14590927466E+04  0.14590927466E+04  0.00000000000E+00 0.  1.
          2   -1    0    0  501    0  0.00000000000E+00 -0.00000000000E+00 -0.27370460444E+04  0.27370460444E+04  0.00000000000E+00 0. -1.
         23    2    1    2    0    0  0.33309390689E+03 -0.12165333262E+04  0.87789778804E+03  0.15390601811E+04  0.84242685624E+02 0.  0.
        254    2    1    2    0    0 -0.33309390689E+03  0.12165333262E+04 -0.21558510858E+04  0.26570786099E+04  0.90634869145E+03 0.  0.
        -24    2    4    4    0    0 -0.62942833478E+03  0.82440635077E+03 -0.16273771172E+04  0.19314629951E+04  0.79794484878E+02 0.  0.
         24    2    4    4    0    0  0.29633442789E+03  0.39212697548E+03 -0.52847396856E+03  0.72561561485E+03  0.75203902908E+02 0.  0.
         13    1    3    3    0    0  0.31048237466E+03 -0.10535826658E+04  0.78578204635E+03  0.13505144069E+04  0.00000000000E+00 0.  1.
        -13    1    3    3    0    0  0.22611532228E+02 -0.16295066040E+03  0.92115741694E+02  0.18854577423E+03  0.00000000000E+00 0. -1.
          2    1    6    6  502    0  0.56021376430E+02  0.10640278387E+03 -0.16837285517E+03  0.20690424208E+03  0.00000000000E+00 0. -1.
          3    1    5    5  503    0 -0.33479060353E+03  0.39401158063E+03 -0.75559755125E+03  0.91556405201E+03  0.00000000000E+00 0. -1.
         -4    1    5    5    0  503 -0.29463773125E+03  0.43039477013E+03 -0.87177956597E+03  0.10158989430E+04  0.00000000000E+00 0.  1.
         -1    1    6    6    0  502  0.24031305146E+03  0.28572419161E+03 -0.36010111339E+03  0.51871137277E+03  0.00000000000E+00 0.  1.
<mgrwt>
<rscale>  0 0.39968007E+04</rscale>
<asrwt>0</asrwt>
<pdfrwt beam="1">  1        2 0.42108400E+00 0.39968007E+04</pdfrwt>
<pdfrwt beam="2">  1       -2 0.22447581E+00 0.39968007E+04</pdfrwt>
<totfact> 0.18436073E-01</totfact>
</mgrwt>
</event>
<event>
12    1  0.4612066E-007  0.1236237E+04  0.7818608E-02  0.9081717E-01
          1   -1    0    0  501    0  0.00000000000E+00  0.00000000000E+00  0.17327215277E+04  0.17327215277E+04  0.00000000000E+00 0. -1.
         -1   -1    0    0    0  501 -0.00000000000E+00 -0.00000000000E+00 -0.22050299166E+03  0.22050299166E+03  0.00000000000E+00 0.  1.
         23    2    1    2    0    0 -0.12874278278E+03 -0.78275872025E+01  0.71335506392E+03  0.73067203883E+03  0.91488829213E+02 0.  0.
        254    2    1    2    0    0  0.12874278278E+03  0.78275872025E+01  0.79886347210E+03  0.12225524805E+04  0.91641461431E+03 0.  0.
        -24    2    4    4    0    0  0.13514558515E+03 -0.43247734412E+03  0.29208050152E+03  0.54627029944E+03  0.88313296412E+02 0.  0.
         24    2    4    4    0    0 -0.64028023715E+01  0.44030493132E+03  0.50678297058E+03  0.67628218107E+03  0.81358347672E+02 0.  0.
         11    1    3    3    0    0 -0.11730830232E+03 -0.17186043068E+01  0.70617138489E+03  0.71585069409E+03  0.00000000000E+00 0. -1.
        -11    1    3    3    0    0 -0.11434480461E+02 -0.61089828958E+01  0.71836790256E+01  0.14821344736E+02  0.00000000000E+00 0.  1.
          2    1    6    6  502    0  0.23608804558E+02  0.23939590838E+03  0.31991215348E+03  0.40026436582E+03  0.00000000000E+00 0. -1.
          3    1    5    5  503    0  0.10616814867E+03 -0.19454427813E+03  0.15030215299E+03  0.26778702197E+03  0.00000000000E+00 0. -1.
         -4    1    5    5    0  503  0.28977436476E+02 -0.23793306600E+03  0.14177834853E+03  0.27848327747E+03  0.00000000000E+00 0.  1.
         -3    1    6    6    0  502 -0.30011606929E+02  0.20090902294E+03  0.18687081709E+03  0.27601781524E+03  0.00000000000E+00 0.  1.
<mgrwt>
<rscale>  0 0.12362367E+04</rscale>
<asrwt>0</asrwt>
<pdfrwt beam="1">  1        1 0.26657253E+00 0.12362367E+04</pdfrwt>
<pdfrwt beam="2">  1       -1 0.33923538E-01 0.12362367E+04</pdfrwt>
<totfact> 0.36688473E+01</totfact>
</mgrwt>
</event>
<event>
12    1  0.4612066E-007  0.1825183E+04  0.7818608E-02  0.8693021E-01
         -2   -1    0    0    0  501 -0.00000000000E+00  0.00000000000E+00  0.45739494149E+03  0.45739494149E+03  0.00000000000E+00 0.  1.
          2   -1    0    0  501    0  0.00000000000E+00 -0.00000000000E+00 -0.18207959408E+04  0.18207959408E+04  0.00000000000E+00 0. -1.
         23    2    1    2    0    0 -0.84328698051E+02 -0.39042411578E+03 -0.12149986011E+04  0.12821401412E+04  0.90107832663E+02 0.  0.
        254    2    1    2    0    0  0.84328698051E+02  0.39042411578E+03 -0.14840239822E+03  0.99605074110E+03  0.90030632984E+03 0.  0.
        -24    2    4    4    0    0  0.17075587592E+03  0.62192920551E+03  0.73456821726E+02  0.65400871726E+03  0.79862330029E+02 0.  0.
         24    2    4    4    0    0 -0.86427177871E+02 -0.23150508973E+03 -0.22185921995E+03  0.34204202384E+03  0.81896086298E+02 0.  0.
         11    1    3    3    0    0 -0.47631163163E+02 -0.27751335581E+03 -0.71991627799E+03  0.77302124012E+03  0.00000000000E+00 0.  1.
        -11    1    3    3    0    0 -0.36697534889E+02 -0.11291075997E+03 -0.49508232314E+03  0.50911890112E+03  0.00000000000E+00 0. -1.
          4    1    6    6  502    0 -0.45494689445E+00 -0.59204631342E+02 -0.93340989156E+02  0.11053477103E+03  0.00000000000E+00 0. -1.
          3    1    5    5  503    0  0.28948446025E+02  0.10064294521E+03  0.42100483520E+02  0.11286924142E+03  0.00000000000E+00 0. -1.
         -4    1    5    5    0  503  0.14180742990E+03  0.52128626031E+03  0.31356338206E+02  0.54113947583E+03  0.00000000000E+00 0.  1.
         -3    1    6    6    0  502 -0.85972230976E+02 -0.17230045839E+03 -0.12851823079E+03  0.23150725282E+03  0.00000000000E+00 0.  1.
<mgrwt>
<rscale>  0 0.18251826E+04</rscale>
<asrwt>0</asrwt>
<pdfrwt beam="1">  1        2 0.28012246E+00 0.18251826E+04</pdfrwt>
<pdfrwt beam="2">  1       -2 0.70368451E-01 0.18251826E+04</pdfrwt>
<totfact> 0.14546605E+01</totfact>
</mgrwt>
</event>
<event>
12    1  0.4612066E-007  0.2447034E+04  0.7818608E-02  0.8422102E-01
         -1   -1    0    0    0  501 -0.00000000000E+00  0.00000000000E+00  0.90265943370E+03  0.90265943370E+03  0.00000000000E+00 0.  1.
          1   -1    0    0  501    0  0.00000000000E+00 -0.00000000000E+00 -0.16584262827E+04  0.16584262827E+04  0.00000000000E+00 0. -1.
         23    2    1    2    0    0 -0.28143697833E+03  0.93114545618E+03 -0.76454180075E+03  0.12405578741E+04  0.90669953883E+02 0.  0.
        254    2    1    2    0    0  0.28143697833E+03 -0.93114545618E+03  0.87749517706E+01  0.13205278423E+04  0.89301632078E+03 0.  0.
        -24    2    4    4    0    0  0.47737218234E+03 -0.14590059429E+03 -0.28906705673E+02  0.50636267745E+03  0.79977369261E+02 0.  0.
         24    2    4    4    0    0 -0.19593520401E+03 -0.78524486189E+03  0.37681657443E+02  0.81416516485E+03  0.80280203392E+02 0.  0.
         11    1    3    3    0    0 -0.21132051004E+03  0.57432274380E+03 -0.51084492025E+03  0.79716090254E+03  0.00000000000E+00 0. -1.
        -11    1    3    3    0    0 -0.70116468290E+02  0.35682271238E+03 -0.25369688051E+03  0.44339697154E+03  0.00000000000E+00 0.  1.
          4    1    6    6  502    0 -0.13640582339E+03 -0.66394191226E+03  0.22378158174E+02  0.67817858524E+03  0.00000000000E+00 0. -1.
          3    1    5    5  503    0  0.41912512505E+03 -0.11711030893E+03  0.17115378849E+00  0.43517895652E+03  0.00000000000E+00 0. -1.
         -4    1    5    5    0  503  0.58247057286E+02 -0.28790285359E+02 -0.29077859461E+02  0.71183720922E+02  0.00000000000E+00 0.  1.
         -3    1    6    6    0  502 -0.59529380619E+02 -0.12130294963E+03  0.15303499269E+02  0.13598657962E+03  0.00000000000E+00 0.  1.
<mgrwt>
<rscale>  0 0.24470342E+04</rscale>
<asrwt>0</asrwt>
<pdfrwt beam="1">  1        1 0.25514250E+00 0.24470342E+04</pdfrwt>
<pdfrwt beam="2">  1       -1 0.13887068E+00 0.24470342E+04</pdfrwt>
<totfact> 0.19442167E+00</totfact>
</mgrwt>
</event>
<event>
12    1  0.4612066E-007  0.2109156E+04  0.7818608E-02  0.8557221E-01
         -1   -1    0    0    0  501 -0.00000000000E+00  0.00000000000E+00  0.51620193138E+03  0.51620193138E+03  0.00000000000E+00 0.  1.
          1   -1    0    0  501    0  0.00000000000E+00 -0.00000000000E+00 -0.21544563446E+04  0.21544563446E+04  0.00000000000E+00 0. -1.
         23    2    1    2    0    0 -0.68820622308E+03  0.38673905376E+03 -0.24931301562E+03  0.83298353252E+03  0.92247951172E+02 0.  0.
        254    2    1    2    0    0  0.68820622308E+03 -0.38673905376E+03 -0.13889413976E+04  0.18376747435E+04  0.90812738952E+03 0.  0.
        -24    2    4    4    0    0  0.55543743315E+03 -0.67330123669E+03 -0.97673519695E+03  0.13122577960E+04  0.78508474866E+02 0.  0.
         24    2    4    4    0    0  0.13276878993E+03  0.28656218293E+03 -0.41220620068E+03  0.52541694752E+03  0.80022375643E+02 0.  0.
         13    1    3    3    0    0 -0.59267159023E+03  0.31208068255E+03 -0.18110465111E+03  0.69386804289E+03  0.00000000000E+00 0.  1.
        -13    1    3    3    0    0 -0.95534632852E+02  0.74658371219E+02 -0.68208364506E+02  0.13911548963E+03  0.00000000000E+00 0. -1.
          4    1    6    6  502    0  0.29911867202E+02  0.24620536581E+02 -0.87760632907E+02  0.95931326006E+02  0.00000000000E+00 0. -1.
          3    1    5    5  503    0  0.33955461538E+03 -0.37622142451E+03 -0.51870769603E+03  0.72518795564E+03  0.00000000000E+00 0. -1.
         -4    1    5    5    0  503  0.21588281777E+03 -0.29707981218E+03 -0.45802750092E+03  0.58706984032E+03  0.00000000000E+00 0.  1.
         -3    1    6    6    0  502  0.10285692273E+03  0.26194164634E+03 -0.32444556777E+03  0.42948562152E+03  0.00000000000E+00 0.  1.
<mgrwt>
<rscale>  0 0.21091558E+04</rscale>
<asrwt>0</asrwt>
<pdfrwt beam="1">  1        1 0.33145482E+00 0.21091558E+04</pdfrwt>
<pdfrwt beam="2">  1       -1 0.79415682E-01 0.21091558E+04</pdfrwt>
<totfact> 0.34068048E+00</totfact>
</mgrwt>
</event>
<event>
12    1  0.4612066E-007  0.1260340E+04  0.7818608E-02  0.9061621E-01
          2   -1    0    0  501    0  0.00000000000E+00  0.00000000000E+00  0.49988851135E+03  0.49988851135E+03  0.00000000000E+00 0. -1.
         -2   -1    0    0    0  501 -0.00000000000E+00 -0.00000000000E+00 -0.79440594644E+03  0.79440594644E+03  0.00000000000E+00 0.  1.
         23    2    1    2    0    0 -0.18421349899E+03  0.33972512485E+02 -0.31552462193E+03  0.37789615553E+03  0.90338101098E+02 0.  0.
        254    2    1    2    0    0  0.18421349899E+03 -0.33972512485E+02  0.21007186838E+02  0.91639830226E+03  0.89680310084E+03 0.  0.
        -24    2    4    4    0    0  0.38237814595E+03  0.28544087899E+03  0.15696257806E+03  0.50877604065E+03  0.80785312535E+02 0.  0.
         24    2    4    4    0    0 -0.19816464697E+03 -0.31941339148E+03 -0.13595539123E+03  0.40762226161E+03  0.79861741770E+02 0.  0.
         11    1    3    3    0    0 -0.14405868558E+03  0.27732556233E+02 -0.30081070874E+03  0.33467757926E+03  0.00000000000E+00 0.  1.
        -11    1    3    3    0    0 -0.40154813408E+02  0.62399562514E+01 -0.14713913189E+02  0.43218576275E+02  0.00000000000E+00 0. -1.
          2    1    6    6  502    0 -0.18144917516E+03 -0.30761044612E+03 -0.10825814970E+03  0.37318603498E+03  0.00000000000E+00 0. -1.
          1    1    5    5  503    0  0.36438601157E+03  0.28877734165E+03  0.14546493461E+03  0.48716482394E+03  0.00000000000E+00 0. -1.
         -2    1    5    5    0  503  0.17992134378E+02 -0.33364626594E+01  0.11497643455E+02  0.21611216708E+02  0.00000000000E+00 0.  1.
         -1    1    6    6    0  502 -0.16715471810E+02 -0.11802945361E+02 -0.27697241524E+02  0.34436226638E+02  0.00000000000E+00 0.  1.
<mgrwt>
<rscale>  0 0.12603403E+04</rscale>
<asrwt>0</asrwt>
<pdfrwt beam="1">  1        2 0.76905925E-01 0.12603403E+04</pdfrwt>
<pdfrwt beam="2">  1       -2 0.12221630E+00 0.12603403E+04</pdfrwt>
<totfact> 0.30700843E+01</totfact>
</mgrwt>
</event>
<event>
12    1  0.4612066E-007  0.2981759E+04  0.7818608E-02  0.8248959E-01
         -2   -1    0    0    0  501 -0.00000000000E+00  0.00000000000E+00  0.56646440132E+03  0.56646440132E+03  0.00000000000E+00 0.  1.
          2   -1    0    0  501    0  0.00000000000E+00 -0.00000000000E+00 -0.39238498697E+04  0.39238498697E+04  0.00000000000E+00 0. -1.
         23    2    1    2    0    0  0.85854904183E+03 -0.75814861528E+03 -0.26078417943E+04  0.28495856727E+04  0.86045926624E+02 0.  0.
        254    2    1    2    0    0 -0.85854904183E+03  0.75814861528E+03 -0.74954367406E+03  0.16407285984E+04  0.90458765974E+03 0.  0.
        -24    2    4    4    0    0 -0.70814267266E+02  0.19565132127E+02 -0.52364730249E+03  0.53467158181E+03  0.79181741241E+02 0.  0.
         24    2    4    4    0    0 -0.78773477456E+03  0.73858348315E+03 -0.22589637157E+03  0.11060570166E+04  0.79380832600E+02 0.  0.
         13    1    3    3    0    0  0.29428857650E+03 -0.24993474428E+03 -0.78207313560E+03  0.87218778487E+03  0.00000000000E+00 0.  1.
        -13    1    3    3    0    0  0.56426046532E+03 -0.50821387100E+03 -0.18257686587E+04  0.19773978878E+04  0.00000000000E+00 0. -1.
          4    1    6    6  502    0 -0.52849977450E+03  0.45402034396E+03 -0.16890558161E+03  0.71692090210E+03  0.00000000000E+00 0. -1.
          1    1    5    5  503    0 -0.13734008414E+02 -0.92232063876E+01 -0.33650092783E+03  0.33690735367E+03  0.00000000000E+00 0. -1.
         -2    1    5    5    0  503 -0.57080258852E+02  0.28788338514E+02 -0.18714637466E+03  0.19776422814E+03  0.00000000000E+00 0.  1.
         -3    1    6    6    0  502 -0.25923500006E+03  0.28456313919E+03 -0.56990789969E+02  0.38913611447E+03  0.00000000000E+00 0.  1.
<mgrwt>
<rscale>  0 0.29817587E+04</rscale>
<asrwt>0</asrwt>
<pdfrwt beam="1">  1        2 0.60366923E+00 0.29817587E+04</pdfrwt>
<pdfrwt beam="2">  1       -2 0.87148367E-01 0.29817587E+04</pdfrwt>
<totfact> 0.38388402E-01</totfact>
</mgrwt>
</event>
<event>
12    1  0.4612066E-007  0.1206409E+04  0.7818608E-02  0.9107266E-01
          2   -1    0    0  501    0  0.00000000000E+00  0.00000000000E+00  0.66009510046E+03  0.66009510046E+03  0.00000000000E+00 0. -1.
         -2   -1    0    0    0  501 -0.00000000000E+00 -0.00000000000E+00 -0.55121666812E+03  0.55121666812E+03  0.00000000000E+00 0.  1.
         23    2    1    2    0    0 -0.24216993462E+03 -0.70989728785E+02  0.55854079133E+02  0.27349065736E+03  0.89395988035E+02 0.  0.
        254    2    1    2    0    0  0.24216993462E+03  0.70989728785E+02  0.53024353205E+02  0.93782111123E+03  0.90167124597E+03 0.  0.
        -24    2    4    4    0    0  0.10503600787E+03  0.47285909331E+03 -0.50838602822E+02  0.49280626157E+03  0.75134298641E+02 0.  0.
         24    2    4    4    0    0  0.13713392675E+03 -0.40186936453E+03  0.10386295603E+03  0.44501484966E+03  0.83342682770E+02 0.  0.
         13    1    3    3    0    0 -0.32813054350E+02 -0.46635644286E+01  0.41917129978E+02  0.53436795886E+02  0.00000000000E+00 0. -1.
        -13    1    3    3    0    0 -0.20935688027E+03 -0.66326164356E+02  0.13936949155E+02  0.22005386147E+03  0.00000000000E+00 0.  1.
          2    1    6    6  502    0  0.19539057653E+02 -0.18272030911E+03  0.51712889348E+02  0.19089973562E+03  0.00000000000E+00 0. -1.
          3    1    5    5  503    0  0.74762244421E+02  0.16923395039E+03 -0.16374684587E+02  0.18573543940E+03  0.00000000000E+00 0. -1.
         -4    1    5    5    0  503  0.30273763451E+02  0.30362514292E+03 -0.34463918235E+02  0.30707082217E+03  0.00000000000E+00 0.  1.
         -1    1    6    6    0  502  0.11759486910E+03 -0.21914905542E+03  0.52150066679E+02  0.25411511404E+03  0.00000000000E+00 0.  1.
<mgrwt>
<rscale>  0 0.12064086E+04</rscale>
<asrwt>0</asrwt>
<pdfrwt beam="1">  1        2 0.10155309E+00 0.12064086E+04</pdfrwt>
<pdfrwt beam="2">  1       -2 0.84802564E-01 0.12064086E+04</pdfrwt>
<totfact> 0.52726062E+01</totfact>
</mgrwt>
</event>
<event>
12    1  0.4612066E-007  0.1673355E+04  0.7818608E-02  0.8776708E-01
         -2   -1    0    0    0  501 -0.00000000000E+00  0.00000000000E+00  0.10240708874E+04  0.10240708874E+04  0.00000000000E+00 0.  1.
          2   -1    0    0  501    0  0.00000000000E+00 -0.00000000000E+00 -0.68357536965E+03  0.68357536965E+03  0.00000000000E+00 0. -1.
         23    2    1    2    0    0 -0.18526244628E+03 -0.51950284125E+03  0.39059896817E+03  0.68195742479E+03  0.91065905880E+02 0.  0.
        254    2    1    2    0    0  0.18526244628E+03  0.51950284125E+03 -0.50103450432E+02  0.10256888322E+04  0.86332024694E+03 0.  0.
        -24    2    4    4    0    0  0.36613286806E+03  0.36735137588E+03  0.29449356455E+03  0.60184681762E+03  0.80578048368E+02 0.  0.
         24    2    4    4    0    0 -0.18087042177E+03  0.15215146538E+03 -0.34459701499E+03  0.42384201463E+03  0.70927940461E+02 0.  0.
         13    1    3    3    0    0 -0.14909329237E+03 -0.36102575939E+03  0.22916411040E+03  0.45286267043E+03  0.00000000000E+00 0. -1.
        -13    1    3    3    0    0 -0.36169153911E+02 -0.15847708186E+03  0.16143485777E+03  0.22909475436E+03  0.00000000000E+00 0.  1.
          2    1    6    6  502    0 -0.18701861343E+03  0.14168226405E+03 -0.32737960445E+03  0.40277441717E+03  0.00000000000E+00 0. -1.
          3    1    5    5  503    0  0.19571319885E+03  0.18514790955E+03  0.19803702735E+03  0.33436816358E+03  0.00000000000E+00 0. -1.
         -4    1    5    5    0  503  0.17041966921E+03  0.18220346633E+03  0.96456537205E+02  0.26747865404E+03  0.00000000000E+00 0.  1.
         -1    1    6    6    0  502  0.61481916598E+01  0.10469201325E+02 -0.17217410536E+02  0.21067597458E+02  0.00000000000E+00 0.  1.
<mgrwt>
<rscale>  0 0.16733555E+04</rscale>
<asrwt>0</asrwt>
<pdfrwt beam="1">  1        2 0.10516544E+00 0.16733555E+04</pdfrwt>
<pdfrwt beam="2">  1       -2 0.15754937E+00 0.16733555E+04</pdfrwt>
<totfact> 0.10568472E+01</totfact>
</mgrwt>
</event>
<event>
12    1  0.4612066E-007  0.1478974E+04  0.7818608E-02  0.8898556E-01
          2   -1    0    0  501    0  0.00000000000E+00  0.00000000000E+00  0.66059300656E+03  0.66059300656E+03  0.00000000000E+00 0. -1.
         -2   -1    0    0    0  501 -0.00000000000E+00 -0.00000000000E+00 -0.82780365283E+03  0.82780365283E+03  0.00000000000E+00 0.  1.
         23    2    1    2    0    0  0.37490084993E+03  0.14686129744E+03 -0.29150149238E+03  0.50608189826E+03  0.95009892799E+02 0.  0.
        254    2    1    2    0    0 -0.37490084993E+03 -0.14686129744E+03  0.12429084610E+03  0.98231476112E+03  0.88734164082E+03 0.  0.
        -24    2    4    4    0    0 -0.15691059104E+02  0.27563155472E+03  0.27934222808E+03  0.40050456849E+03  0.78440204578E+02 0.  0.
         24    2    4    4    0    0 -0.35920979082E+03 -0.42249285216E+03 -0.15505138198E+03  0.58181019264E+03  0.83248334833E+02 0.  0.
         13    1    3    3    0    0  0.10659975852E+03  0.15349181137E+02 -0.37908862222E+02  0.11417612585E+03  0.00000000000E+00 0. -1.
        -13    1    3    3    0    0  0.26830109140E+03  0.13151211630E+03 -0.25359263016E+03  0.39190577241E+03  0.00000000000E+00 0.  1.
          4    1    6    6  502    0 -0.31530897185E+03 -0.37010073974E+03 -0.10585656604E+03  0.49759412964E+03  0.00000000000E+00 0. -1.
          1    1    5    5  503    0  0.11401771447E+02  0.14916012134E+03  0.19628306862E+03  0.24679097475E+03  0.00000000000E+00 0. -1.
         -2    1    5    5    0  503 -0.27092830551E+02  0.12647143338E+03  0.83059159460E+02  0.15371359374E+03  0.00000000000E+00 0.  1.
         -3    1    6    6    0  502 -0.43900818973E+02 -0.52392112423E+02 -0.49194815938E+02  0.84216062992E+02  0.00000000000E+00 0.  1.
<mgrwt>
<rscale>  0 0.14789744E+04</rscale>
<asrwt>0</asrwt>
<pdfrwt beam="1">  1        2 0.10162969E+00 0.14789744E+04</pdfrwt>
<pdfrwt beam="2">  1       -2 0.12735441E+00 0.14789744E+04</pdfrwt>
<totfact> 0.19503593E+01</totfact>
</mgrwt>
</event>
<event>
12    1  0.4612066E-007  0.1804436E+04  0.7818608E-02  0.8703944E-01
         -1   -1    0    0    0  501 -0.00000000000E+00  0.00000000000E+00  0.67722705189E+03  0.67722705189E+03  0.00000000000E+00 0.  1.
          1   -1    0    0  501    0  0.00000000000E+00 -0.00000000000E+00 -0.12019561322E+04  0.12019561322E+04  0.00000000000E+00 0. -1.
         23    2    1    2    0    0  0.54230635478E+03 -0.40145655852E+03 -0.17345494495E+03  0.70265095856E+03  0.91477870723E+02 0.  0.
        254    2    1    2    0    0 -0.54230635478E+03  0.40145655852E+03 -0.35127413539E+03  0.11765322255E+04  0.89753607657E+03 0.  0.
        -24    2    4    4    0    0 -0.21260399623E+03  0.38205779663E+03  0.23211997680E+03  0.50142531504E+03  0.79868916033E+02 0.  0.
         24    2    4    4    0    0 -0.32970235854E+03  0.19398761886E+02 -0.58339411219E+03  0.67510691051E+03  0.79628470327E+02 0.  0.
         13    1    3    3    0    0  0.21743604185E+03 -0.21358027477E+03 -0.95050645982E+02  0.31926414044E+03  0.00000000000E+00 0.  1.
        -13    1    3    3    0    0  0.32487031293E+03 -0.18787628374E+03 -0.78404298964E+02  0.38338681812E+03  0.00000000000E+00 0. -1.
          4    1    6    6  502    0 -0.16502216594E+00 -0.10085896188E+01  0.24365067868E+01  0.26421677949E+01  0.00000000000E+00 0. -1.
          1    1    5    5  503    0 -0.15048170110E+03  0.33167410792E+03  0.19686363745E+03  0.41401418814E+03  0.00000000000E+00 0. -1.
         -2    1    5    5    0  503 -0.62122295138E+02  0.50383688712E+02  0.35256339350E+02  0.87411126899E+02  0.00000000000E+00 0.  1.
         -3    1    6    6    0  502 -0.32953733638E+03  0.20407351505E+02 -0.58583061897E+03  0.67246474271E+03  0.00000000000E+00 0.  1.
<mgrwt>
<rscale>  0 0.18044359E+04</rscale>
<asrwt>0</asrwt>
<pdfrwt beam="1">  1        1 0.18491633E+00 0.18044359E+04</pdfrwt>
<pdfrwt beam="2">  1       -1 0.10418878E+00 0.18044359E+04</pdfrwt>
<totfact> 0.87097373E+00</totfact>
</mgrwt>
</event>
<event>
12    1  0.4612066E-007  0.1221124E+04  0.7818608E-02  0.9094565E-01
          1   -1    0    0  501    0  0.00000000000E+00  0.00000000000E+00  0.32283030265E+03  0.32283030265E+03  0.00000000000E+00 0. -1.
         -1   -1    0    0    0  501 -0.00000000000E+00 -0.00000000000E+00 -0.11547428268E+04  0.11547428268E+04  0.00000000000E+00 0.  1.
         23    2    1    2    0    0  0.20403372461E+03 -0.69705705886E+02 -0.38761609872E+03  0.45298648778E+03  0.91988433568E+02 0.  0.
        254    2    1    2    0    0 -0.20403372461E+03  0.69705705886E+02 -0.44429642543E+03  0.10245866417E+04  0.89771366618E+03 0.  0.
        -24    2    4    4    0    0 -0.16572097183E+03 -0.10603321964E+03 -0.68307156419E+03  0.71531740940E+03  0.79910889223E+02 0.  0.
         24    2    4    4    0    0 -0.38312752775E+02  0.17573892553E+03  0.23877513875E+03  0.30926923228E+03  0.79258148980E+02 0.  0.
         11    1    3    3    0    0  0.16379643606E+03 -0.14477131896E+02 -0.24824798258E+03  0.29776823314E+03  0.00000000000E+00 0. -1.
        -11    1    3    3    0    0  0.40237288545E+02 -0.55228573990E+02 -0.13936811615E+03  0.15521825464E+03  0.00000000000E+00 0.  1.
          4    1    6    6  502    0 -0.52972172570E+02  0.66694030197E+02  0.86395357307E+02  0.12131901127E+03  0.00000000000E+00 0. -1.
          1    1    5    5  503    0 -0.47029489918E+02 -0.40036943085E+01 -0.86323281576E+02  0.98384508090E+02  0.00000000000E+00 0. -1.
         -2    1    5    5    0  503 -0.11869148191E+03 -0.10202952533E+03 -0.59674828261E+03  0.61693290131E+03  0.00000000000E+00 0.  1.
         -3    1    6    6    0  502  0.14659419795E+02  0.10904489533E+03  0.15237978145E+03  0.18795022102E+03  0.00000000000E+00 0.  1.
<mgrwt>
<rscale>  0 0.12211240E+04</rscale>
<asrwt>0</asrwt>
<pdfrwt beam="1">  1        1 0.49666201E-01 0.12211240E+04</pdfrwt>
<pdfrwt beam="2">  1       -1 0.17765274E+00 0.12211240E+04</pdfrwt>
<totfact> 0.17031267E+01</totfact>
</mgrwt>
</event>
<event>
12    1  0.4612066E-007  0.1614693E+04  0.7818608E-02  0.8811572E-01
          2   -1    0    0  501    0  0.00000000000E+00  0.00000000000E+00  0.28835838267E+04  0.28835838267E+04  0.00000000000E+00 0. -1.
         -2   -1    0    0    0  501 -0.00000000000E+00 -0.00000000000E+00 -0.22604100347E+03  0.22604100347E+03  0.00000000000E+00 0.  1.
         23    2    1    2    0    0 -0.25050655543E+03  0.11187646277E+02  0.18639213838E+04  0.18829372241E+04  0.91492990572E+02 0.  0.
        254    2    1    2    0    0  0.25050655543E+03 -0.11187646277E+02  0.79362143951E+03  0.12266876061E+04  0.90113750114E+03 0.  0.
        -24    2    4    4    0    0  0.10798091807E+03 -0.32731908999E+03 -0.29795223154E+01  0.35390177586E+03  0.80249137456E+02 0.  0.
         24    2    4    4    0    0  0.14252563736E+03  0.31613144371E+03  0.79660096182E+03  0.87278583024E+03  0.83242813970E+02 0.  0.
         13    1    3    3    0    0 -0.16086126013E+03 -0.71651555572E+00  0.85727014212E+03  0.87223216804E+03  0.00000000000E+00 0.  1.
        -13    1    3    3    0    0 -0.89645295305E+02  0.11904161833E+02  0.10066512416E+04  0.10107050560E+04  0.00000000000E+00 0. -1.
          2    1    6    6  502    0  0.77466824004E+02  0.20970985127E+03  0.59620940648E+03  0.63674562182E+03  0.00000000000E+00 0. -1.
          3    1    5    5  503    0  0.10867860963E+03 -0.24922912715E+03 -0.24223700789E+02  0.27297066819E+03  0.00000000000E+00 0. -1.
         -4    1    5    5    0  503 -0.69769155382E+00 -0.78089962842E+02  0.21244178474E+02  0.80931107674E+02  0.00000000000E+00 0.  1.
         -1    1    6    6    0  502  0.65058813358E+02  0.10642159245E+03  0.20039155535E+03  0.23604020841E+03  0.00000000000E+00 0.  1.
<mgrwt>
<rscale>  0 0.16146928E+04</rscale>
<asrwt>0</asrwt>
<pdfrwt beam="1">  1        2 0.44362826E+00 0.16146928E+04</pdfrwt>
<pdfrwt beam="2">  1       -2 0.34775541E-01 0.16146928E+04</pdfrwt>
<totfact> 0.15349056E+01</totfact>
</mgrwt>
</event>
<event>
12    1  0.4612066E-007  0.1436851E+04  0.7818608E-02  0.8927568E-01
         -2   -1    0    0    0  501 -0.00000000000E+00  0.00000000000E+00  0.45827747990E+03  0.45827747990E+03  0.00000000000E+00 0.  1.
          2   -1    0    0  501    0  0.00000000000E+00 -0.00000000000E+00 -0.11262499480E+04  0.11262499480E+04  0.00000000000E+00 0. -1.
         23    2    1    2    0    0 -0.11266377626E+03  0.20982010522E+03  0.19053439178E+03  0.31848764396E+03  0.91724706982E+02 0.  0.
        254    2    1    2    0    0  0.11266377626E+03 -0.20982010522E+03 -0.85850685987E+03  0.12660397839E+04  0.89950269760E+03 0.  0.
        -24    2    4    4    0    0  0.39468464670E+03 -0.15574011687E+03 -0.88872184867E+02  0.44075479526E+03  0.79596293618E+02 0.  0.
         24    2    4    4    0    0 -0.28202087045E+03 -0.54079988357E+02 -0.76963467501E+03  0.82528498866E+03  0.79355926271E+02 0.  0.
         11    1    3    3    0    0 -0.35180204536E+02  0.55745960149E+02  0.64418467538E+01  0.66232592080E+02  0.00000000000E+00 0. -1.
        -11    1    3    3    0    0 -0.77483571721E+02  0.15407414507E+03  0.18409254502E+03  0.25225505188E+03  0.00000000000E+00 0.  1.
          2    1    6    6  502    0 -0.72744582248E+02 -0.87810593709E+01 -0.11350958151E+03  0.13510479763E+03  0.00000000000E+00 0. -1.
          1    1    5    5  503    0  0.14710259584E+03 -0.21338653853E+02 -0.47345557429E+02  0.15600036430E+03  0.00000000000E+00 0. -1.
         -2    1    5    5    0  503  0.24758205086E+03 -0.13440146301E+03 -0.41526627438E+02  0.28475443096E+03  0.00000000000E+00 0.  1.
         -1    1    6    6    0  502 -0.20927628820E+03 -0.45298928986E+02 -0.65612509350E+03  0.69018019103E+03  0.00000000000E+00 0.  1.
<mgrwt>
<rscale>  0 0.14368507E+04</rscale>
<asrwt>0</asrwt>
<pdfrwt beam="1">  1        2 0.17326922E+00 0.14368507E+04</pdfrwt>
<pdfrwt beam="2">  1       -2 0.70504229E-01 0.14368507E+04</pdfrwt>
<totfact> 0.37292731E+01</totfact>
</mgrwt>
</event>
<event>
12    1  0.4612066E-007  0.1666446E+04  0.7818608E-02  0.8780736E-01
         -2   -1    0    0    0  501 -0.00000000000E+00  0.00000000000E+00  0.47292121590E+04  0.47292121590E+04  0.00000000000E+00 0.  1.
          2   -1    0    0  501    0  0.00000000000E+00 -0.00000000000E+00 -0.14680255282E+03  0.14680255282E+03  0.00000000000E+00 0. -1.
         23    2    1    2    0    0  0.17813220482E+03  0.32065420217E+03  0.29472855688E+04  0.29712689342E+04  0.86003811460E+02 0.  0.
        254    2    1    2    0    0 -0.17813220482E+03 -0.32065420217E+03  0.16351240374E+04  0.19047457777E+04  0.90546985592E+03 0.  0.
        -24    2    4    4    0    0 -0.43981834646E+03  0.56874328141E+02  0.47945845849E+03  0.65844751410E+03  0.83653142892E+02 0.  0.
         24    2    4    4    0    0  0.26168614164E+03 -0.37752853031E+03  0.11556655789E+04  0.12462982636E+04  0.81786328318E+02 0.  0.
         13    1    3    3    0    0  0.10466177938E+03  0.13424731595E+03  0.16246061888E+04  0.16334998312E+04  0.00000000000E+00 0.  1.
        -13    1    3    3    0    0  0.73470425445E+02  0.18640688621E+03  0.13226793800E+04  0.13377691030E+04  0.00000000000E+00 0. -1.
          4    1    6    6  502    0  0.26312004936E+03 -0.35870714849E+03  0.10741720085E+04  0.11626471875E+04  0.00000000000E+00 0. -1.
          1    1    5    5  503    0 -0.33351435511E+03  0.77728386808E+01  0.33969291932E+03  0.47611292938E+03  0.00000000000E+00 0. -1.
         -2    1    5    5    0  503 -0.10630399135E+03  0.49101489460E+02  0.13976553917E+03  0.18233458471E+03  0.00000000000E+00 0.  1.
         -3    1    6    6    0  502 -0.14339077177E+01 -0.18821381821E+02  0.81493570387E+02  0.83651076021E+02  0.00000000000E+00 0.  1.
<mgrwt>
<rscale>  0 0.16664458E+04</rscale>
<asrwt>0</asrwt>
<pdfrwt beam="1">  1        2 0.22585012E-01 0.16664458E+04</pdfrwt>
<pdfrwt beam="2">  1       -2 0.72757098E+00 0.16664458E+04</pdfrwt>
<totfact> 0.42383209E-02</totfact>
</mgrwt>
</event>
<event>
12    1  0.4612066E-007  0.2304876E+04  0.7818608E-02  0.8476001E-01
          1   -1    0    0  501    0  0.00000000000E+00  0.00000000000E+00  0.12160016750E+04  0.12160016750E+04  0.00000000000E+00 0. -1.
         -1   -1    0    0    0  501 -0.00000000000E+00 -0.00000000000E+00 -0.10921969223E+04  0.10921969223E+04  0.00000000000E+00 0.  1.
         23    2    1    2    0    0  0.32538129580E+03  0.83392889584E+03  0.35649089402E+03  0.96764995146E+03  0.89164343099E+02 0.  0.
        254    2    1    2    0    0 -0.32538129580E+03 -0.83392889584E+03 -0.23268614136E+03  0.13405486459E+04  0.97036974428E+03 0.  0.
        -24    2    4    4    0    0 -0.22726874949E+03  0.17707611101E+03 -0.90450722846E+02  0.31180322455E+03  0.77671642151E+02 0.  0.
         24    2    4    4    0    0 -0.98112546312E+02 -0.10110050069E+04 -0.14223541852E+03  0.10287454213E+04  0.79555213512E+02 0.  0.
         11    1    3    3    0    0  0.11709498220E+03  0.39732818458E+03  0.13549827939E+03  0.43582187283E+03  0.00000000000E+00 0.  1.
        -11    1    3    3    0    0  0.20828631360E+03  0.43660071126E+03  0.22099261463E+03  0.53182807864E+03  0.00000000000E+00 0. -1.
          2    1    6    6  502    0 -0.92256265285E+02 -0.78327543108E+03 -0.80901565571E+02  0.79282828074E+03  0.00000000000E+00 0. -1.
          3    1    5    5  503    0 -0.22634422611E+03  0.17092435432E+03 -0.72422256969E+02  0.29273166364E+03  0.00000000000E+00 0. -1.
         -4    1    5    5    0  503 -0.92452337658E+00  0.61517566988E+01 -0.18028465877E+02  0.19071560918E+02  0.00000000000E+00 0.  1.
         -1    1    6    6    0  502 -0.58562810273E+01 -0.22772957577E+03 -0.61333852948E+02  0.23591714059E+03  0.00000000000E+00 0.  1.
<mgrwt>
<rscale>  0 0.23048760E+04</rscale>
<asrwt>0</asrwt>
<pdfrwt beam="1">  1        1 0.18707718E+00 0.23048760E+04</pdfrwt>
<pdfrwt beam="2">  1       -1 0.16803029E+00 0.23048760E+04</pdfrwt>
<totfact> 0.23913975E+00</totfact>
</mgrwt>
</event>
<event>
12    1  0.4612066E-007  0.2121565E+04  0.7818608E-02  0.8551803E-01
         -1   -1    0    0    0  501 -0.00000000000E+00  0.00000000000E+00  0.33324490115E+03  0.33324490115E+03  0.00000000000E+00 0.  1.
          1   -1    0    0  501    0  0.00000000000E+00 -0.00000000000E+00 -0.33766757030E+04  0.33766757030E+04  0.00000000000E+00 0. -1.
         23    2    1    2    0    0 -0.42246737167E+03 -0.76006588356E+03 -0.14750718356E+04  0.17147323249E+04  0.91056016659E+02 0.  0.
        254    2    1    2    0    0  0.42246737167E+03  0.76006588356E+03 -0.15683589662E+04  0.19951882793E+04  0.87455565601E+03 0.  0.
        -24    2    4    4    0    0  0.67639279796E+03  0.56648341130E+03 -0.97909538832E+03  0.13202804425E+04  0.78115267857E+02 0.  0.
         24    2    4    4    0    0 -0.25392542630E+03  0.19358247226E+03 -0.58926357791E+03  0.67490783678E+03  0.79477847303E+02 0.  0.
         13    1    3    3    0    0 -0.15654484239E+03 -0.30770890429E+03 -0.50310578281E+03  0.61016922747E+03  0.00000000000E+00 0.  1.
        -13    1    3    3    0    0 -0.26592252928E+03 -0.45235697928E+03 -0.97196605282E+03  0.11045630974E+04  0.00000000000E+00 0. -1.
          4    1    6    6  502    0 -0.24714264495E+03  0.19101716356E+03 -0.52995815827E+03  0.61516070522E+03  0.00000000000E+00 0. -1.
          3    1    5    5  503    0  0.53277448604E+03  0.40496734921E+03 -0.75647276750E+03  0.10099991361E+04  0.00000000000E+00 0. -1.
         -4    1    5    5    0  503  0.14361831193E+03  0.16151606209E+03 -0.22262262081E+03  0.31028130645E+03  0.00000000000E+00 0.  1.
         -3    1    6    6    0  502 -0.67827813492E+01  0.25653087021E+01 -0.59305419643E+02  0.59747131568E+02  0.00000000000E+00 0.  1.
<mgrwt>
<rscale>  0 0.21215654E+04</rscale>
<asrwt>0</asrwt>
<pdfrwt beam="1">  1        1 0.51948858E+00 0.21215654E+04</pdfrwt>
<pdfrwt beam="2">  1       -1 0.51268445E-01 0.21215654E+04</pdfrwt>
<totfact> 0.10984494E+00</totfact>
</mgrwt>
</event>
<event>
12    1  0.4612066E-007  0.1358565E+04  0.7818608E-02  0.8984370E-01
         -1   -1    0    0    0  501 -0.00000000000E+00  0.00000000000E+00  0.38243623478E+03  0.38243623478E+03  0.00000000000E+00 0.  1.
          1   -1    0    0  501    0  0.00000000000E+00 -0.00000000000E+00 -0.12065403826E+04  0.12065403826E+04  0.00000000000E+00 0. -1.
         23    2    1    2    0    0  0.25684771485E+03 -0.21340468846E+03 -0.72876412052E+02  0.35623008768E+03  0.10038224076E+03 0.  0.
        254    2    1    2    0    0 -0.25684771485E+03  0.21340468846E+03 -0.75122773581E+03  0.12327465297E+04  0.91859054309E+03 0.  0.
        -24    2    4    4    0    0 -0.39665721968E+02  0.55549044652E+03 -0.39749734403E+03  0.68888923632E+03  0.80132613370E+02 0.  0.
         24    2    4    4    0    0 -0.21718199288E+03 -0.34208575806E+03 -0.35373039178E+03  0.54385729342E+03  0.80404487672E+02 0.  0.
         11    1    3    3    0    0  0.21845251770E+03 -0.18915081436E+03 -0.96996765284E+02  0.30480798142E+03  0.00000000000E+00 0. -1.
        -11    1    3    3    0    0  0.38395197146E+02 -0.24253874104E+02  0.24120353232E+02  0.51422106268E+02  0.00000000000E+00 0.  1.
          4    1    6    6  502    0 -0.15411048745E+03 -0.17610370452E+03 -0.17778724112E+03  0.29388919713E+03  0.00000000000E+00 0. -1.
          1    1    5    5  503    0 -0.13494904133E+02  0.35671709176E+03 -0.29830565271E+03  0.46520474893E+03  0.00000000000E+00 0. -1.
         -2    1    5    5    0  503 -0.26170817835E+02  0.19877335476E+03 -0.99191691323E+02  0.22368448738E+03  0.00000000000E+00 0.  1.
         -3    1    6    6    0  502 -0.63071505423E+02 -0.16598205355E+03 -0.17594315067E+03  0.24996809629E+03  0.00000000000E+00 0.  1.
<mgrwt>
<rscale>  0 0.13585651E+04</rscale>
<asrwt>0</asrwt>
<pdfrwt beam="1">  1        1 0.18562159E+00 0.13585651E+04</pdfrwt>
<pdfrwt beam="2">  1       -1 0.58836345E-01 0.13585651E+04</pdfrwt>
<totfact> 0.30265771E+01</totfact>
</mgrwt>
</event>
<event>
12    1  0.4612066E-007  0.1554780E+04  0.7818608E-02  0.8848820E-01
          2   -1    0    0  501    0  0.00000000000E+00  0.00000000000E+00  0.11769437521E+04  0.11769437521E+04  0.00000000000E+00 0. -1.
         -2   -1    0    0    0  501 -0.00000000000E+00 -0.00000000000E+00 -0.51347851814E+03  0.51347851814E+03  0.00000000000E+00 0.  1.
         23    2    1    2    0    0  0.15847602544E+03 -0.10724955878E+03  0.75055536772E+03  0.77967244143E+03  0.89099031525E+02 0.  0.
        254    2    1    2    0    0 -0.15847602544E+03  0.10724955878E+03 -0.87090133731E+02  0.91074982884E+03  0.88615091313E+03 0.  0.
        -24    2    4    4    0    0  0.34503677546E+03  0.80367183088E+02  0.82784128703E+02  0.37228817439E+03  0.78968425923E+02 0.  0.
         24    2    4    4    0    0 -0.50351280090E+03  0.26882375688E+02 -0.16987426243E+03  0.53846165444E+03  0.82679413878E+02 0.  0.
         11    1    3    3    0    0  0.15145548561E+03 -0.65827013368E+02  0.52932079737E+03  0.55448396401E+03  0.00000000000E+00 0.  1.
        -11    1    3    3    0    0  0.70205398248E+01 -0.41422545408E+02  0.22123457035E+03  0.22518847742E+03  0.00000000000E+00 0. -1.
          4    1    6    6  502    0 -0.34346353132E+03 -0.20408476623E+02 -0.11334172865E+03  0.36225688498E+03  0.00000000000E+00 0. -1.
          1    1    5    5  503    0  0.33981017035E+03  0.69920575831E+02  0.68142762389E+02  0.35355802192E+03  0.00000000000E+00 0. -1.
         -2    1    5    5    0  503  0.52266051063E+01  0.10446607257E+02  0.14641366314E+02  0.18730152473E+02  0.00000000000E+00 0.  1.
         -3    1    6    6    0  502 -0.16004926958E+03  0.47290852311E+02 -0.56532533784E+02  0.17620476946E+03  0.00000000000E+00 0.  1.
<mgrwt>
<rscale>  0 0.15547802E+04</rscale>
<asrwt>0</asrwt>
<pdfrwt beam="1">  1        2 0.18106827E+00 0.15547802E+04</pdfrwt>
<pdfrwt beam="2">  1       -2 0.78996696E-01 0.15547802E+04</pdfrwt>
<totfact> 0.26761356E+01</totfact>
</mgrwt>
</event>
<event>
12    1  0.4612066E-007  0.4289839E+04  0.7818608E-02  0.7948500E-01
          2   -1    0    0  501    0  0.00000000000E+00  0.00000000000E+00  0.22901229087E+04  0.22901229087E+04  0.00000000000E+00 0. -1.
         -2   -1    0    0    0  501 -0.00000000000E+00 -0.00000000000E+00 -0.20089228869E+04  0.20089228869E+04  0.00000000000E+00 0.  1.
         23    2    1    2    0    0  0.88431278603E+03 -0.14257381854E+04  0.13131351022E+04  0.21324939976E+04  0.92023780957E+02 0.  0.
        254    2    1    2    0    0 -0.88431278603E+03  0.14257381854E+04 -0.10319350804E+04  0.21665517980E+04  0.90239581484E+03 0.  0.
        -24    2    4    4    0    0 -0.48334774678E+03  0.14018631398E+04 -0.71045531897E+03  0.16461241207E+04  0.78310620679E+02 0.  0.
         24    2    4    4    0    0 -0.40096503925E+03  0.23875045570E+02 -0.32147976140E+03  0.52042767736E+03  0.78439466254E+02 0.  0.
         13    1    3    3    0    0  0.15676709950E+03 -0.29193956965E+03  0.22163792013E+03  0.39865775228E+03  0.00000000000E+00 0. -1.
        -13    1    3    3    0    0  0.72754568653E+03 -0.11337986157E+04  0.10914971821E+04  0.17338362453E+04  0.00000000000E+00 0.  1.
          2    1    6    6  502    0 -0.41977891263E+01  0.11565056644E+02 -0.94763082336E+01  0.15529725898E+02  0.00000000000E+00 0. -1.
          1    1    5    5  503    0 -0.89010162280E+02  0.36095998706E+03 -0.18366416660E+03  0.41466546437E+03  0.00000000000E+00 0. -1.
         -2    1    5    5    0  503 -0.39433758450E+03  0.10409031528E+04 -0.52679115237E+03  0.12314586563E+04  0.00000000000E+00 0.  1.
         -3    1    6    6    0  502 -0.39676725012E+03  0.12309988925E+02 -0.31200345317E+03  0.50489795146E+03  0.00000000000E+00 0.  1.
<mgrwt>
<rscale>  0 0.42898393E+04</rscale>
<asrwt>0</asrwt>
<pdfrwt beam="1">  1        2 0.35232660E+00 0.42898393E+04</pdfrwt>
<pdfrwt beam="2">  1       -2 0.30906506E+00 0.42898393E+04</pdfrwt>
<totfact> 0.98970351E-02</totfact>
</mgrwt>
</event>
<event>
12    1  0.4612066E-007  0.1689650E+04  0.7818608E-02  0.8767289E-01
         -1   -1    0    0    0  501 -0.00000000000E+00  0.00000000000E+00  0.73188924844E+03  0.73188924844E+03  0.00000000000E+00 0.  1.
          1   -1    0    0  501    0  0.00000000000E+00 -0.00000000000E+00 -0.97518789517E+03  0.97518789517E+03  0.00000000000E+00 0. -1.
         23    2    1    2    0    0  0.23050906598E+03  0.24236658265E+03 -0.57575668919E+03  0.67140110891E+03  0.86067961656E+02 0.  0.
        254    2    1    2    0    0 -0.23050906598E+03 -0.24236658265E+03  0.33245804246E+03  0.10356760347E+04  0.92207402575E+03 0.  0.
        -24    2    4    4    0    0  0.25293399664E+03 -0.77703783549E+02 -0.16186456081E+03  0.32035397645E+03  0.80081518146E+02 0.  0.
         24    2    4    4    0    0 -0.48344306262E+03 -0.16466279910E+03  0.49432260327E+03  0.71532205825E+03  0.80621205092E+02 0.  0.
         11    1    3    3    0    0  0.53073584139E+02  0.11592307328E+03 -0.21315605173E+03  0.24837565630E+03  0.00000000000E+00 0.  1.
        -11    1    3    3    0    0  0.17743548184E+03  0.12644350937E+03 -0.36260063745E+03  0.42302545261E+03  0.00000000000E+00 0. -1.
          2    1    6    6  502    0 -0.32996007328E+03 -0.83575132986E+02  0.36328174837E+03  0.49782736115E+03  0.00000000000E+00 0. -1.
          3    1    5    5  503    0  0.22262180002E+03 -0.88803896056E+02 -0.15967784167E+03  0.28799932451E+03  0.00000000000E+00 0. -1.
         -2    1    5    5    0  503  0.30312196625E+02  0.11100112507E+02 -0.21867191416E+01  0.32354651945E+02  0.00000000000E+00 0.  1.
         -1    1    6    6    0  502 -0.15348298933E+03 -0.81087666113E+02  0.13104085490E+03  0.21749469709E+03  0.00000000000E+00 0.  1.
<mgrwt>
<rscale>  0 0.16896503E+04</rscale>
<asrwt>0</asrwt>
<pdfrwt beam="1">  1        1 0.15002891E+00 0.16896503E+04</pdfrwt>
<pdfrwt beam="2">  1       -1 0.11259835E+00 0.16896503E+04</pdfrwt>
<totfact> 0.10885613E+01</totfact>
</mgrwt>
</event>
<event>
12    1  0.4612066E-007  0.1300522E+04  0.7818608E-02  0.9029151E-01
          1   -1    0    0  501    0  0.00000000000E+00  0.00000000000E+00  0.88276752417E+03  0.88276752417E+03  0.00000000000E+00 0. -1.
         -1   -1    0    0    0  501 -0.00000000000E+00 -0.00000000000E+00 -0.47899325112E+03  0.47899325112E+03  0.00000000000E+00 0.  1.
         23    2    1    2    0    0  0.12612821420E+03 -0.19843683861E+03 -0.13262844259E+03  0.28546710362E+03  0.92820569562E+02 0.  0.
        254    2    1    2    0    0 -0.12612821420E+03  0.19843683861E+03  0.53640271564E+03  0.10762936717E+04  0.90299207582E+03 0.  0.
        -24    2    4    4    0    0  0.21147007609E+03 -0.26117701071E+03  0.11978973174E+03  0.36520124797E+03  0.78034272497E+02 0.  0.
         24    2    4    4    0    0 -0.33759829029E+03  0.45961384931E+03  0.41661298389E+03  0.71109242370E+03  0.82876779647E+02 0.  0.
         11    1    3    3    0    0  0.86260144892E+02 -0.17172204341E+03 -0.13883726859E+03  0.23707606361E+03  0.00000000000E+00 0.  1.
        -11    1    3    3    0    0  0.39868069307E+02 -0.26714795202E+02  0.62088260029E+01  0.48391040010E+02  0.00000000000E+00 0. -1.
          2    1    6    6  502    0 -0.20835517111E+03  0.21513626643E+03  0.22683932118E+03  0.37570143478E+03  0.00000000000E+00 0. -1.
          1    1    5    5  503    0  0.10685852404E+03 -0.90573322396E+02  0.19744290597E+02  0.14146415766E+03  0.00000000000E+00 0. -1.
         -2    1    5    5    0  503  0.10461155204E+03 -0.17060368831E+03  0.10004544115E+03  0.22373709031E+03  0.00000000000E+00 0.  1.
         -3    1    6    6    0  502 -0.12924311918E+03  0.24447758288E+03  0.18977366271E+03  0.33539098892E+03  0.00000000000E+00 0.  1.
<mgrwt>
<rscale>  0 0.13005225E+04</rscale>
<asrwt>0</asrwt>
<pdfrwt beam="1">  1        1 0.13581039E+00 0.13005225E+04</pdfrwt>
<pdfrwt beam="2">  1       -1 0.73691270E-01 0.13005225E+04</pdfrwt>
<totfact> 0.34275876E+01</totfact>
</mgrwt>
</event>
<event>
12    1  0.4612066E-007  0.1249051E+04  0.7818608E-02  0.9070973E-01
          2   -1    0    0  501    0  0.00000000000E+00  0.00000000000E+00  0.14338831790E+04  0.14338831790E+04  0.00000000000E+00 0. -1.
         -2   -1    0    0    0  501 -0.00000000000E+00 -0.00000000000E+00 -0.27201112977E+03  0.27201112977E+03  0.00000000000E+00 0.  1.
         23    2    1    2    0    0  0.21622896286E+03  0.19270013827E+03  0.26715961347E+03  0.40510943633E+03  0.94080224638E+02 0.  0.
        254    2    1    2    0    0 -0.21622896286E+03 -0.19270013827E+03  0.89471243581E+03  0.13007848725E+04  0.89868939796E+03 0.  0.
        -24    2    4    4    0    0 -0.50081042447E+03  0.99450170281E+02  0.59596799377E+03  0.78869537461E+03  0.78492844835E+02 0.  0.
         24    2    4    4    0    0  0.28458146162E+03 -0.29215030855E+03  0.29874444203E+03  0.51208949787E+03  0.81541407291E+02 0.  0.
         11    1    3    3    0    0  0.14913773871E+03  0.18396609131E+03  0.21082701736E+03  0.31707036933E+03  0.00000000000E+00 0. -1.
        -11    1    3    3    0    0  0.67091224151E+02  0.87340469640E+01  0.56332596107E+02  0.88039067002E+02  0.00000000000E+00 0.  1.
          4    1    6    6  502    0  0.28454753849E+03 -0.26843298971E+03  0.27263411920E+03  0.47681540933E+03  0.00000000000E+00 0. -1.
          3    1    5    5  503    0 -0.25429344697E+03  0.65738401201E+02  0.36126785864E+03  0.44665552751E+03  0.00000000000E+00 0. -1.
         -4    1    5    5    0  503 -0.24651697751E+03  0.33711769080E+02  0.23470013513E+03  0.34203984710E+03  0.00000000000E+00 0.  1.
         -3    1    6    6    0  502  0.33923126283E-01 -0.23717318844E+02  0.26110322834E+02  0.35274088541E+02  0.00000000000E+00 0.  1.
<mgrwt>
<rscale>  0 0.12490511E+04</rscale>
<asrwt>0</asrwt>
<pdfrwt beam="1">  1        2 0.22059741E+00 0.12490511E+04</pdfrwt>
<pdfrwt beam="2">  1       -2 0.41847867E-01 0.12490511E+04</pdfrwt>
<totfact> 0.73621274E+01</totfact>
</mgrwt>
</event>
<event>
12    1  0.4612066E-007  0.2230054E+04  0.7818608E-02  0.8506022E-01
          2   -1    0    0  501    0  0.00000000000E+00  0.00000000000E+00  0.15533576498E+04  0.15533576498E+04  0.00000000000E+00 0. -1.
         -2   -1    0    0    0  501 -0.00000000000E+00 -0.00000000000E+00 -0.80038551943E+03  0.80038551943E+03  0.00000000000E+00 0.  1.
         23    2    1    2    0    0  0.65911123805E+03  0.55942156608E+03 -0.65576181405E+02  0.87183244866E+03  0.91714067791E+02 0.  0.
        254    2    1    2    0    0 -0.65911123805E+03 -0.55942156608E+03  0.81854831174E+03  0.14819107205E+04  0.88241596328E+03 0.  0.
        -24    2    4    4    0    0 -0.21504097685E+03 -0.54981902618E+03  0.84041905401E+03  0.10300662730E+04  0.78668654806E+02 0.  0.
         24    2    4    4    0    0 -0.44407026121E+03 -0.96025399029E+01 -0.21870742268E+02  0.45184444749E+03  0.79965428144E+02 0.  0.
         13    1    3    3    0    0  0.38007289195E+03  0.38092105806E+03 -0.42723740102E+02  0.53979771548E+03  0.00000000000E+00 0. -1.
        -13    1    3    3    0    0  0.27903834610E+03  0.17850050802E+03 -0.22852441303E+02  0.33203473317E+03  0.00000000000E+00 0.  1.
          4    1    6    6  502    0 -0.13027123749E+03  0.28203481654E+02  0.12691476832E+02  0.13389214047E+03  0.00000000000E+00 0. -1.
          3    1    5    5  503    0 -0.90221523505E+02 -0.13962456667E+03  0.21457346986E+03  0.27143455361E+03  0.00000000000E+00 0. -1.
         -4    1    5    5    0  503 -0.12481945334E+03 -0.41019445951E+03  0.62584558415E+03  0.75863171944E+03  0.00000000000E+00 0.  1.
         -3    1    6    6    0  502 -0.31379902371E+03 -0.37806021557E+02 -0.34562219100E+02  0.31795230702E+03  0.00000000000E+00 0.  1.
<mgrwt>
<rscale>  0 0.22300538E+04</rscale>
<asrwt>0</asrwt>
<pdfrwt beam="1">  1        2 0.23897810E+00 0.22300538E+04</pdfrwt>
<pdfrwt beam="2">  1       -2 0.12313623E+00 0.22300538E+04</pdfrwt>
<totfact> 0.53779351E+00</totfact>
</mgrwt>
</event>
<event>
12    1  0.4612066E-007  0.2440312E+04  0.7818608E-02  0.8424564E-01
         -2   -1    0    0    0  501 -0.00000000000E+00  0.00000000000E+00  0.58533554586E+03  0.58533554586E+03  0.00000000000E+00 0.  1.
          2   -1    0    0  501    0  0.00000000000E+00 -0.00000000000E+00 -0.25434645002E+04  0.25434645002E+04  0.00000000000E+00 0. -1.
         23    2    1    2    0    0  0.95166573822E+03 -0.24208721076E+03 -0.38404077315E+03  0.10589249636E+04  0.97779692201E+02 0.  0.
        254    2    1    2    0    0 -0.95166573822E+03  0.24208721076E+03 -0.15740881811E+04  0.20698750824E+04  0.91779919363E+03 0.  0.
        -24    2    4    4    0    0  0.14347897552E+02  0.35871019187E+03 -0.44585046486E+03  0.57790349081E+03  0.79441448607E+02 0.  0.
         24    2    4    4    0    0 -0.96601363577E+03 -0.11662298111E+03 -0.11282377163E+04  0.14919715916E+04  0.79218820145E+02 0.  0.
         13    1    3    3    0    0  0.72459631917E+03 -0.20226539326E+03 -0.33355036769E+03  0.82292585502E+03  0.00000000000E+00 0. -1.
        -13    1    3    3    0    0  0.22706941905E+03 -0.39821817497E+02 -0.50490405469E+02  0.23599910860E+03  0.00000000000E+00 0.  1.
          4    1    6    6  502    0 -0.64165027358E+03 -0.11480828284E+03 -0.74710389872E+03  0.99149394899E+03  0.00000000000E+00 0. -1.
          1    1    5    5  503    0 -0.93344313237E+01  0.33010950016E+03 -0.39335713988E+03  0.51360417950E+03  0.00000000000E+00 0. -1.
         -4    1    5    5    0  503  0.23682328876E+02  0.28600691705E+02 -0.52493324984E+02  0.64299311310E+02  0.00000000000E+00 0.  1.
         -3    1    6    6    0  502 -0.32436336219E+03 -0.18146982740E+01 -0.38113381755E+03  0.50047764260E+03  0.00000000000E+00 0.  1.
<mgrwt>
<rscale>  0 0.24403116E+04</rscale>
<asrwt>0</asrwt>
<pdfrwt beam="1">  1        2 0.39130223E+00 0.24403116E+04</pdfrwt>
<pdfrwt beam="2">  1       -2 0.90051622E-01 0.24403116E+04</pdfrwt>
<totfact> 0.31062638E+00</totfact>
</mgrwt>
</event>
<event>
12    1  0.4612066E-007  0.1698414E+04  0.7818608E-02  0.8762269E-01
          1   -1    0    0  501    0  0.00000000000E+00  0.00000000000E+00  0.93090513570E+03  0.93090513570E+03  0.00000000000E+00 0. -1.
         -1   -1    0    0    0  501 -0.00000000000E+00 -0.00000000000E+00 -0.77467930644E+03  0.77467930644E+03  0.00000000000E+00 0.  1.
         23    2    1    2    0    0 -0.13479894406E+03  0.29834629484E+03 -0.46172218870E+03  0.57354321300E+03  0.92645402898E+02 0.  0.
        254    2    1    2    0    0  0.13479894406E+03 -0.29834629484E+03  0.61794801797E+03  0.11320412291E+04  0.89021139320E+03 0.  0.
        -24    2    4    4    0    0 -0.60114371903E+02 -0.15630439810E+02  0.74866765793E+03  0.75603096695E+03  0.84979483424E+02 0.  0.
         24    2    4    4    0    0  0.19491331596E+03 -0.28271585503E+03 -0.13071963996E+03  0.37601026218E+03  0.79853851327E+02 0.  0.
         13    1    3    3    0    0 -0.12542218849E+03  0.18233478852E+03 -0.33482118934E+03  0.40135013305E+03  0.00000000000E+00 0.  1.
        -13    1    3    3    0    0 -0.93767555702E+01  0.11601150632E+03 -0.12690099936E+03  0.17219307995E+03  0.00000000000E+00 0. -1.
          2    1    6    6  502    0  0.15062573739E+02 -0.68727755546E+02 -0.45456038497E+02  0.83765368416E+02  0.00000000000E+00 0. -1.
          1    1    5    5  503    0 -0.78639314579E+02 -0.27876473755E+01  0.65398909769E+03  0.65870604420E+03  0.00000000000E+00 0. -1.
         -2    1    5    5    0  503  0.18524942676E+02 -0.12842792435E+02  0.94678560245E+02  0.97324922752E+02  0.00000000000E+00 0.  1.
         -1    1    6    6    0  502  0.17985074223E+03 -0.21398809948E+03 -0.85263601465E+02  0.29224489377E+03  0.00000000000E+00 0.  1.
<mgrwt>
<rscale>  0 0.16984145E+04</rscale>
<asrwt>0</asrwt>
<pdfrwt beam="1">  1        1 0.14321617E+00 0.16984145E+04</pdfrwt>
<pdfrwt beam="2">  1       -1 0.11918143E+00 0.16984145E+04</pdfrwt>
<totfact> 0.10290892E+01</totfact>
</mgrwt>
</event>
<event>
12    1  0.4612066E-007  0.1711492E+04  0.7818608E-02  0.8754837E-01
          2   -1    0    0  501    0  0.00000000000E+00  0.00000000000E+00  0.16353898494E+04  0.16353898494E+04  0.00000000000E+00 0. -1.
         -2   -1    0    0    0  501 -0.00000000000E+00 -0.00000000000E+00 -0.44778365804E+03  0.44778365804E+03  0.00000000000E+00 0.  1.
         23    2    1    2    0    0 -0.12896282531E+03 -0.47168834126E+02  0.11632531329E+04  0.11749762881E+04  0.92493875288E+02 0.  0.
        254    2    1    2    0    0  0.12896282531E+03  0.47168834126E+02  0.24353058384E+02  0.90819721935E+03  0.89742565629E+03 0.  0.
        -24    2    4    4    0    0  0.37420679851E+03 -0.26382922321E+03  0.14478139425E+03  0.48685871181E+03  0.80207020135E+02 0.  0.
         24    2    4    4    0    0 -0.24524397319E+03  0.31099805734E+03 -0.12042833586E+03  0.42133850754E+03  0.78477740823E+02 0.  0.
         13    1    3    3    0    0  0.32269305872E+01 -0.30097178522E+02  0.15272246076E+03  0.15569329869E+03  0.00000000000E+00 0.  1.
        -13    1    3    3    0    0 -0.13218975590E+03 -0.17071655605E+02  0.10105306722E+04  0.10192829894E+04  0.00000000000E+00 0. -1.
          2    1    6    6  502    0 -0.20635842365E+03  0.27865438643E+03 -0.78211153915E+02  0.35545611640E+03  0.00000000000E+00 0. -1.
          3    1    5    5  503    0  0.36167048966E+03 -0.26741707461E+03  0.14783056477E+03  0.47346732809E+03  0.00000000000E+00 0. -1.
         -4    1    5    5    0  503  0.12536308845E+02  0.35878514030E+01 -0.30491705242E+01  0.13391383723E+02  0.00000000000E+00 0.  1.
         -1    1    6    6    0  502 -0.38885549540E+02  0.32343670901E+02 -0.42217181950E+02  0.65882391139E+02  0.00000000000E+00 0.  1.
<mgrwt>
<rscale>  0 0.17114916E+04</rscale>
<asrwt>0</asrwt>
<pdfrwt beam="1">  1        2 0.25159843E+00 0.17114916E+04</pdfrwt>
<pdfrwt beam="2">  1       -2 0.68889795E-01 0.17114916E+04</pdfrwt>
<totfact> 0.19497188E+01</totfact>
</mgrwt>
</event>
<event>
12    1  0.4612066E-007  0.1677288E+04  0.7818608E-02  0.8774425E-01
         -2   -1    0    0    0  501 -0.00000000000E+00  0.00000000000E+00  0.64101753750E+03  0.64101753750E+03  0.00000000000E+00 0.  1.
          2   -1    0    0  501    0  0.00000000000E+00 -0.00000000000E+00 -0.10971985975E+04  0.10971985975E+04  0.00000000000E+00 0. -1.
         23    2    1    2    0    0  0.32837817577E+03  0.29998138049E+03 -0.56772982121E+03  0.72715340609E+03  0.92810942965E+02 0.  0.
        254    2    1    2    0    0 -0.32837817577E+03 -0.29998138049E+03  0.11154876117E+03  0.10110627290E+04  0.90110135990E+03 0.  0.
        -24    2    4    4    0    0 -0.57914690918E+03 -0.41518343730E+03  0.98083410100E+02  0.72366087577E+03  0.79222968568E+02 0.  0.
         24    2    4    4    0    0  0.25076873342E+03  0.11520205681E+03  0.13465351066E+02  0.28740185319E+03  0.79133039781E+02 0.  0.
         13    1    3    3    0    0  0.31173000149E+02  0.34320524318E+01 -0.20694962863E+02  0.37574145501E+02  0.00000000000E+00 0.  1.
        -13    1    3    3    0    0  0.29720517562E+03  0.29654932806E+03 -0.54703485835E+03  0.68957926059E+03  0.00000000000E+00 0. -1.
          2    1    6    6  502    0  0.18722846549E+03  0.11765832055E+03  0.25799885939E+02  0.22262886784E+03  0.00000000000E+00 0. -1.
          1    1    5    5  503    0 -0.43014169911E+03 -0.34906752880E+03  0.74209666541E+02  0.55890705451E+03  0.00000000000E+00 0. -1.
         -2    1    5    5    0  503 -0.14900521007E+03 -0.66115908507E+02  0.23873743558E+02  0.16475382125E+03  0.00000000000E+00 0.  1.
         -1    1    6    6    0  502  0.63540267930E+02 -0.24562637392E+01 -0.12334534873E+02  0.64772985346E+02  0.00000000000E+00 0.  1.
<mgrwt>
<rscale>  0 0.16772877E+04</rscale>
<asrwt>0</asrwt>
<pdfrwt beam="1">  1        2 0.16879978E+00 0.16772877E+04</pdfrwt>
<pdfrwt beam="2">  1       -2 0.98618084E-01 0.16772877E+04</pdfrwt>
<totfact> 0.17802121E+01</totfact>
</mgrwt>
</event>
<event>
12    1  0.4612066E-007  0.1083551E+04  0.7818608E-02  0.9221374E-01
          2   -1    0    0  501    0  0.00000000000E+00  0.00000000000E+00  0.15470846216E+04  0.15470846216E+04  0.00000000000E+00 0. -1.
         -2   -1    0    0    0  501 -0.00000000000E+00 -0.00000000000E+00 -0.18972494372E+03  0.18972494372E+03  0.00000000000E+00 0.  1.
         23    2    1    2    0    0 -0.46469930773E+02  0.12478503247E+03  0.14661091458E+03  0.21883005021E+03  0.93064879542E+02 0.  0.
        254    2    1    2    0    0  0.46469930773E+02 -0.12478503247E+03  0.12107487633E+04  0.15179795151E+04  0.90587994882E+03 0.  0.
        -24    2    4    4    0    0 -0.37586255781E+01  0.15373243447E+03  0.12111203283E+04  0.12239314517E+04  0.86878997267E+02 0.  0.
         24    2    4    4    0    0  0.50228556352E+02 -0.27851746695E+03 -0.37156503845E+00  0.29404806338E+03  0.79807507488E+02 0.  0.
         11    1    3    3    0    0 -0.60749146291E+02  0.34226849702E+02  0.75776990139E+02  0.10297615379E+03  0.00000000000E+00 0. -1.
        -11    1    3    3    0    0  0.14279215518E+02  0.90558182769E+02  0.70833924445E+02  0.11585389641E+03  0.00000000000E+00 0.  1.
          4    1    6    6  502    0  0.12233870225E+02 -0.21540140885E+03 -0.23025760417E+02  0.21697377758E+03  0.00000000000E+00 0. -1.
          1    1    5    5  503    0 -0.56930130604E+01  0.16332401618E+03  0.11812082730E+04  0.11924596970E+04  0.00000000000E+00 0. -1.
         -2    1    5    5    0  503  0.19343874824E+01 -0.95915817015E+01  0.29912055267E+02  0.31471754714E+02  0.00000000000E+00 0.  1.
         -3    1    6    6    0  502  0.37994686127E+02 -0.63116058094E+02  0.22654195379E+02  0.77074285799E+02  0.00000000000E+00 0.  1.
<mgrwt>
<rscale>  0 0.10835507E+04</rscale>
<asrwt>0</asrwt>
<pdfrwt beam="1">  1        2 0.23801301E+00 0.10835507E+04</pdfrwt>
<pdfrwt beam="2">  1       -2 0.29188454E-01 0.10835507E+04</pdfrwt>
<totfact> 0.12799154E+02</totfact>
</mgrwt>
</event>
<event>
12    1  0.4612066E-007  0.1357702E+04  0.7818608E-02  0.8985018E-01
          2   -1    0    0  501    0  0.00000000000E+00  0.00000000000E+00  0.60385801060E+03  0.60385801060E+03  0.00000000000E+00 0. -1.
         -2   -1    0    0    0  501 -0.00000000000E+00 -0.00000000000E+00 -0.76315767371E+03  0.76315767371E+03  0.00000000000E+00 0.  1.
         23    2    1    2    0    0  0.68250754707E+02 -0.58568288752E+02 -0.40802656264E+03  0.42740894089E+03  0.90023979932E+02 0.  0.
        254    2    1    2    0    0 -0.68250754707E+02  0.58568288752E+02  0.24872689953E+03  0.93960674343E+03  0.90161374866E+03 0.  0.
        -24    2    4    4    0    0 -0.40033247844E+03 -0.82514847336E+02 -0.10366218826E+03  0.42941372513E+03  0.81089485957E+02 0.  0.
         24    2    4    4    0    0  0.33208172374E+03  0.14108313609E+03  0.35238908779E+03  0.51019301829E+03  0.77046247101E+02 0.  0.
         13    1    3    3    0    0  0.69933385191E+02 -0.36457042762E+02 -0.39248407139E+03  0.40032929025E+03  0.00000000000E+00 0.  1.
        -13    1    3    3    0    0 -0.16826304840E+01 -0.22111245990E+02 -0.15542491248E+02  0.27079650640E+02  0.00000000000E+00 0. -1.
          4    1    6    6  502    0  0.15931706426E+03  0.30300826334E+02  0.17882205664E+03  0.24140711461E+03  0.00000000000E+00 0. -1.
          1    1    5    5  503    0 -0.70821729992E+02 -0.47088535943E+02 -0.15129929817E+02  0.86382651224E+02  0.00000000000E+00 0. -1.
         -2    1    5    5    0  503 -0.32951074845E+03 -0.35426311393E+02 -0.88532258442E+02  0.34303107391E+03  0.00000000000E+00 0.  1.
         -3    1    6    6    0  502  0.17276465948E+03  0.11078230975E+03  0.17356703115E+03  0.26878590368E+03  0.00000000000E+00 0.  1.
<mgrwt>
<rscale>  0 0.13577023E+04</rscale>
<asrwt>0</asrwt>
<pdfrwt beam="1">  1        2 0.92901232E-01 0.13577023E+04</pdfrwt>
<pdfrwt beam="2">  1       -2 0.11740887E+00 0.13577023E+04</pdfrwt>
<totfact> 0.26922275E+01</totfact>
</mgrwt>
</event>
<event>
12    1  0.4612066E-007  0.1421174E+04  0.7818608E-02  0.8938633E-01
         -2   -1    0    0    0  501 -0.00000000000E+00  0.00000000000E+00  0.74638819738E+03  0.74638819738E+03  0.00000000000E+00 0. -1.
          2   -1    0    0  501    0  0.00000000000E+00 -0.00000000000E+00 -0.67650318994E+03  0.67650318994E+03  0.00000000000E+00 0.  1.
         23    2    1    2    0    0 -0.38767977193E+02  0.28425640749E+03 -0.27061458439E+03  0.40474580274E+03  0.91006869503E+02 0.  0.
        254    2    1    2    0    0  0.38767977193E+02 -0.28425640749E+03  0.34049959183E+03  0.10181455846E+04  0.91562863548E+03 0.  0.
        -24    2    4    4    0    0  0.27343601047E+03  0.16342386134E+03  0.38300831378E+03  0.50460137022E+03  0.80327853968E+02 0.  0.
         24    2    4    4    0    0 -0.23466803327E+03 -0.44768026884E+03 -0.42508721953E+02  0.51354421436E+03  0.80211967439E+02 0.  0.
         11    1    3    3    0    0 -0.44266392655E+02  0.78083254249E+02 -0.11758154213E+03  0.14792541080E+03  0.00000000000E+00 0.  1.
        -11    1    3    3    0    0  0.54984154611E+01  0.20617315324E+03 -0.15303304227E+03  0.25682039194E+03  0.00000000000E+00 0. -1.
          4    1    6    6  502    0 -0.21124142592E+03 -0.40628337675E+03 -0.62084241425E+02  0.46210775289E+03  0.00000000000E+00 0. -1.
          1    1    5    5  503    0  0.22520619967E+03  0.96514944651E+02  0.30327517628E+03  0.38988305869E+03  0.00000000000E+00 0. -1.
         -2    1    5    5    0  503  0.48229810796E+02  0.66908916692E+02  0.79733137502E+02  0.11471831152E+03  0.00000000000E+00 0.  1.
         -3    1    6    6    0  502 -0.23426607351E+02 -0.41396892086E+02  0.19575519472E+02  0.51436461474E+02  0.00000000000E+00 0.  1.
<mgrwt>
<rscale>  0 0.14211742E+04</rscale>
<asrwt>0</asrwt>
<pdfrwt beam="1">  1        2 0.10407741E+00 0.14211742E+04</pdfrwt>
<pdfrwt beam="2">  1       -2 0.11482895E+00 0.14211742E+04</pdfrwt>
<totfact> 0.24600549E+01</totfact>
</mgrwt>
</event>
<event>
12    1  0.4612066E-007  0.2748827E+04  0.7818608E-02  0.8319334E-01
          2   -1    0    0  501    0  0.00000000000E+00  0.00000000000E+00  0.20255739881E+04  0.20255739881E+04  0.00000000000E+00 0. -1.
         -2   -1    0    0    0  501 -0.00000000000E+00 -0.00000000000E+00 -0.93258134333E+03  0.93258134333E+03  0.00000000000E+00 0.  1.
         23    2    1    2    0    0  0.97193131157E+03  0.24877194149E+03 -0.26285829697E+03  0.10412376951E+04  0.92431055948E+02 0.  0.
        254    2    1    2    0    0 -0.97193131157E+03 -0.24877194149E+03  0.13558509417E+04  0.19169176363E+04  0.91088061510E+03 0.  0.
        -24    2    4    4    0    0  0.41150941827E+01  0.10884163073E+02  0.71373172027E+03  0.71746396580E+03  0.72153826583E+02 0.  0.
         24    2    4    4    0    0 -0.97604640575E+03 -0.25965610456E+03  0.64211922145E+03  0.11994536705E+04  0.79272532066E+02 0.  0.
         11    1    3    3    0    0  0.12556708807E+03  0.29638023651E+01 -0.21280672063E+02  0.12739209055E+03  0.00000000000E+00 0.  1.
        -11    1    3    3    0    0  0.84636422350E+03  0.24580813913E+03 -0.24157762491E+03  0.91384560454E+03  0.00000000000E+00 0. -1.
          4    1    6    6  502    0 -0.23649239431E+03 -0.98533627355E+02  0.16245839527E+03  0.30336489329E+03  0.00000000000E+00 0. -1.
          1    1    5    5  503    0 -0.14496043810E+02  0.36668885350E+02  0.47307078547E+03  0.47471118641E+03  0.00000000000E+00 0. -1.
         -2    1    5    5    0  503  0.18611137992E+02 -0.25784722277E+02  0.24066093480E+03  0.24275277939E+03  0.00000000000E+00 0.  1.
         -3    1    6    6    0  502 -0.73955401144E+03 -0.16112247721E+03  0.47966082617E+03  0.89608877722E+03  0.00000000000E+00 0.  1.
<mgrwt>
<rscale>  0 0.27488270E+04</rscale>
<asrwt>0</asrwt>
<pdfrwt beam="1">  1        2 0.31162677E+00 0.27488270E+04</pdfrwt>
<pdfrwt beam="2">  1       -2 0.14347405E+00 0.27488270E+04</pdfrwt>
<totfact> 0.19034880E+00</totfact>
</mgrwt>
</event>
<event>
12    1  0.4612066E-007  0.1208946E+04  0.7818608E-02  0.9105062E-01
         -2   -1    0    0    0  501 -0.00000000000E+00  0.00000000000E+00  0.22183443023E+03  0.22183443023E+03  0.00000000000E+00 0.  1.
          2   -1    0    0  501    0  0.00000000000E+00 -0.00000000000E+00 -0.16471180654E+04  0.16471180654E+04  0.00000000000E+00 0. -1.
         23    2    1    2    0    0 -0.24578491062E+03 -0.33764012801E+02 -0.19194638644E+03  0.32676872398E+03  0.91565019838E+02 0.  0.
        254    2    1    2    0    0  0.24578491062E+03  0.33764012801E+02 -0.12333372487E+04  0.15421837716E+04  0.89199763763E+03 0.  0.
        -24    2    4    4    0    0 -0.19804882473E+03  0.31192894797E+03 -0.66704579396E+03  0.76679222340E+03  0.80605316662E+02 0.  0.
         24    2    4    4    0    0  0.44383373535E+03 -0.27816493517E+03 -0.56629145476E+03  0.77539154822E+03  0.78625221962E+02 0.  0.
         11    1    3    3    0    0 -0.94847149467E+01 -0.25140654023E+02 -0.29407778405E+02  0.39835031480E+02  0.00000000000E+00 0. -1.
        -11    1    3    3    0    0 -0.23630019568E+03 -0.86233587779E+01 -0.16253860803E+03  0.28693369250E+03  0.00000000000E+00 0.  1.
          4    1    6    6  502    0  0.21176469066E+03 -0.92294303801E+02 -0.22049051582E+03  0.31934086849E+03  0.00000000000E+00 0. -1.
          1    1    5    5  503    0 -0.45250588822E+02  0.12325818757E+03 -0.29003387032E+03  0.31837060562E+03  0.00000000000E+00 0. -1.
         -2    1    5    5    0  503 -0.15279823591E+03  0.18867076040E+03 -0.37701192364E+03  0.44842161778E+03  0.00000000000E+00 0.  1.
         -3    1    6    6    0  502  0.23206904469E+03 -0.18587063137E+03 -0.34580093894E+03  0.45605067973E+03  0.00000000000E+00 0.  1.
<mgrwt>
<rscale>  0 0.12089458E+04</rscale>
<asrwt>0</asrwt>
<pdfrwt beam="1">  1        2 0.25340278E+00 0.12089458E+04</pdfrwt>
<pdfrwt beam="2">  1       -2 0.34128373E-01 0.12089458E+04</pdfrwt>
<totfact> 0.83184299E+01</totfact>
</mgrwt>
</event>
<event>
12    1  0.4612066E-007  0.2262179E+04  0.7818608E-02  0.8492985E-01
         -2   -1    0    0    0  501 -0.00000000000E+00  0.00000000000E+00  0.65252152869E+03  0.65252152869E+03  0.00000000000E+00 0. -1.
          2   -1    0    0  501    0  0.00000000000E+00 -0.00000000000E+00 -0.19606447636E+04  0.19606447636E+04  0.00000000000E+00 0.  1.
         23    2    1    2    0    0  0.60921827923E+03  0.70438661530E+03 -0.43132435457E+03  0.10301288571E+04  0.88415767152E+02 0.  0.
        254    2    1    2    0    0 -0.60921827923E+03 -0.70438661530E+03 -0.87679888036E+03  0.15830374352E+04  0.93269707250E+03 0.  0.
        -24    2    4    4    0    0 -0.46876634891E+03 -0.48875301094E+03 -0.10583316535E+04  0.12587733916E+04  0.76309678784E+02 0.  0.
         24    2    4    4    0    0 -0.14045193031E+03 -0.21563360436E+03  0.18153277310E+03  0.32426404360E+03  0.77255590140E+02 0.  0.
         11    1    3    3    0    0  0.57242394296E+03  0.66966062716E+03 -0.38461941279E+03  0.96127343599E+03  0.00000000000E+00 0. -1.
        -11    1    3    3    0    0  0.36794336269E+02  0.34725988139E+02 -0.46704941773E+02  0.68855421135E+02  0.00000000000E+00 0.  1.
          4    1    6    6  502    0 -0.12048630742E+03 -0.14368253292E+03  0.95786842089E+02  0.21056291140E+03  0.00000000000E+00 0. -1.
          1    1    5    5  503    0 -0.21037634376E+03 -0.22050532916E+03 -0.54704637922E+03  0.62621126404E+03  0.00000000000E+00 0. -1.
         -2    1    5    5    0  503 -0.25839000515E+03 -0.26824768178E+03 -0.51128527424E+03  0.63256212754E+03  0.00000000000E+00 0.  1.
         -3    1    6    6    0  502 -0.19965622894E+02 -0.71951071442E+02  0.85745931008E+02  0.11370113220E+03  0.00000000000E+00 0.  1.
<mgrwt>
<rscale>  0 0.22621785E+04</rscale>
<asrwt>0</asrwt>
<pdfrwt beam="1">  1        2 0.30163766E+00 0.22621785E+04</pdfrwt>
<pdfrwt beam="2">  1       -2 0.10038793E+00 0.22621785E+04</pdfrwt>
<totfact> 0.52296883E+00</totfact>
</mgrwt>
</event>
<event>
12    1  0.4612066E-007  0.2348053E+04  0.7818608E-02  0.8459212E-01
         -2   -1    0    0    0  501 -0.00000000000E+00  0.00000000000E+00  0.14916842624E+04  0.14916842624E+04  0.00000000000E+00 0.  1.
          2   -1    0    0  501    0  0.00000000000E+00 -0.00000000000E+00 -0.92401498534E+03  0.92401498534E+03  0.00000000000E+00 0. -1.
         23    2    1    2    0    0 -0.44175969624E+03  0.86510418376E+03 -0.21336549798E+02  0.97589129599E+03  0.91387609909E+02 0.  0.
        254    2    1    2    0    0  0.44175969624E+03 -0.86510418376E+03  0.58900582683E+03  0.14398079517E+04  0.88462545510E+03 0.  0.
        -24    2    4    4    0    0  0.49130725723E+01  0.13544870510E+03  0.24615015432E+03  0.29271751101E+03  0.81994833923E+02 0.  0.
         24    2    4    4    0    0  0.43684662367E+03 -0.10005528889E+04  0.34285567252E+03  0.11470904407E+04  0.79532452311E+02 0.  0.
         11    1    3    3    0    0 -0.10835241608E+03  0.26764968636E+03  0.26932685852E+02  0.29000339696E+03  0.00000000000E+00 0.  1.
        -11    1    3    3    0    0 -0.33340728016E+03  0.59745449740E+03 -0.48269235650E+02  0.68588789904E+03  0.00000000000E+00 0. -1.
          4    1    6    6  502    0  0.20483387630E+02 -0.76994901745E+02  0.43187227955E+02  0.90625166052E+02  0.00000000000E+00 0. -1.
          3    1    5    5  503    0  0.35635322094E+02  0.81438773473E+02  0.99379926257E+02  0.13333611569E+03  0.00000000000E+00 0. -1.
         -4    1    5    5    0  503 -0.30722249522E+02  0.54009931623E+02  0.14677022806E+03  0.15938139532E+03  0.00000000000E+00 0.  1.
         -3    1    6    6    0  502  0.41636323604E+03 -0.92355798711E+03  0.29966844457E+03  0.10564652747E+04  0.00000000000E+00 0.  1.
<mgrwt>
<rscale>  0 0.23480533E+04</rscale>
<asrwt>0</asrwt>
<pdfrwt beam="1">  1        2 0.14215615E+00 0.23480533E+04</pdfrwt>
<pdfrwt beam="2">  1       -2 0.22948989E+00 0.23480533E+04</pdfrwt>
<totfact> 0.21968083E+00</totfact>
</mgrwt>
</event>
<event>
12    1  0.4612066E-007  0.1269808E+04  0.7818608E-02  0.9053857E-01
         -2   -1    0    0    0  501 -0.00000000000E+00  0.00000000000E+00  0.68030001976E+03  0.68030001976E+03  0.00000000000E+00 0. -1.
          2   -1    0    0  501    0  0.00000000000E+00 -0.00000000000E+00 -0.59253689047E+03  0.59253689047E+03  0.00000000000E+00 0.  1.
         23    2    1    2    0    0  0.15007717642E+02  0.99718262345E+02 -0.26654583559E+03  0.29905146437E+03  0.90642884113E+02 0.  0.
        254    2    1    2    0    0 -0.15007717642E+02 -0.99718262345E+02  0.35430896487E+03  0.97378544586E+03  0.90141793223E+03 0.  0.
        -24    2    4    4    0    0  0.16866761450E+03 -0.44689487039E+03  0.29929543979E+03  0.56928252947E+03  0.79630702076E+02 0.  0.
         24    2    4    4    0    0 -0.18367533215E+03  0.34717660804E+03  0.55013525082E+02  0.40450291639E+03  0.79548077401E+02 0.  0.
         13    1    3    3    0    0  0.10808080891E+02  0.77482639476E-01  0.33531478201E+01  0.11316546134E+02  0.00000000000E+00 0. -1.
        -13    1    3    3    0    0  0.41996367509E+01  0.99640779706E+02 -0.26989898341E+03  0.28773491824E+03  0.00000000000E+00 0.  1.
          2    1    6    6  502    0 -0.83142489863E+02  0.80860438650E+02  0.11713634468E+02  0.11656883542E+03  0.00000000000E+00 0. -1.
          3    1    5    5  503    0 -0.79995706023E+01 -0.32960116698E+02  0.16167190080E+02  0.37573134786E+02  0.00000000000E+00 0. -1.
         -4    1    5    5    0  503  0.17666718511E+03 -0.41393475369E+03  0.28312824971E+03  0.53170939468E+03  0.00000000000E+00 0.  1.
         -1    1    6    6    0  502 -0.10053284228E+03  0.26631616939E+03  0.43299890614E+02  0.28793408097E+03  0.00000000000E+00 0.  1.
<mgrwt>
<rscale>  0 0.12698076E+04</rscale>
<asrwt>0</asrwt>
<pdfrwt beam="1">  1        2 0.91159522E-01 0.12698076E+04</pdfrwt>
<pdfrwt beam="2">  1       -2 0.10466154E+00 0.12698076E+04</pdfrwt>
<totfact> 0.36643135E+01</totfact>
</mgrwt>
</event>
<event>
12    1  0.4612066E-007  0.1411212E+04  0.7818608E-02  0.8945743E-01
          2   -1    0    0  501    0  0.00000000000E+00  0.00000000000E+00  0.26866343686E+04  0.26866343686E+04  0.00000000000E+00 0. -1.
         -2   -1    0    0    0  501 -0.00000000000E+00 -0.00000000000E+00 -0.18531725709E+03  0.18531725709E+03  0.00000000000E+00 0.  1.
         23    2    1    2    0    0  0.12932516876E+03  0.18776186848E+02 -0.46922657821E+02  0.16598061447E+03  0.90941102342E+02 0.  0.
        254    2    1    2    0    0 -0.12932516876E+03 -0.18776186848E+02  0.25482397693E+04  0.27059710112E+04  0.90093043408E+03 0.  0.
        -24    2    4    4    0    0 -0.46543891062E+03 -0.70247970637E+02  0.87581192646E+03  0.99742386405E+03  0.78991627142E+02 0.  0.
         24    2    4    4    0    0  0.33611374186E+03  0.51471783789E+02  0.16724278428E+04  0.17085471471E+04  0.80601938298E+02 0.  0.
         11    1    3    3    0    0  0.12330649401E+03  0.41814011417E+02 -0.54271484271E+02  0.14106132361E+03  0.00000000000E+00 0.  1.
        -11    1    3    3    0    0  0.60186747595E+01 -0.23037824569E+02  0.73488264500E+01  0.24919290859E+02  0.00000000000E+00 0. -1.
          2    1    6    6  502    0  0.33369137745E+03  0.61323572473E+02  0.16274902959E+04  0.16624786252E+04  0.00000000000E+00 0. -1.
          1    1    5    5  503    0 -0.36005423259E+03 -0.56761608724E+02  0.60237302892E+03  0.70406973845E+03  0.00000000000E+00 0. -1.
         -2    1    5    5    0  503 -0.10538467803E+03 -0.13486361913E+02  0.27343889754E+03  0.29335412560E+03  0.00000000000E+00 0.  1.
         -1    1    6    6    0  502  0.24223644091E+01 -0.98517886837E+01  0.44937546933E+02  0.46068521943E+02  0.00000000000E+00 0.  1.
<mgrwt>
<rscale>  0 0.14112118E+04</rscale>
<asrwt>0</asrwt>
<pdfrwt beam="1">  1        2 0.41332834E+00 0.14112118E+04</pdfrwt>
<pdfrwt beam="2">  1       -2 0.28510349E-01 0.14112118E+04</pdfrwt>
<totfact> 0.29810867E+01</totfact>
</mgrwt>
</event>
<event>
12    1  0.5635964E-007  0.1454323E+04  0.7818608E-02  0.8915409E-01
          2   -1    0    0  501    0  0.00000000000E+00  0.00000000000E+00  0.13255889625E+04  0.13255889625E+04  0.00000000000E+00 0. -1.
         -2   -1    0    0    0  501 -0.00000000000E+00 -0.00000000000E+00 -0.39888977072E+03  0.39888977072E+03  0.00000000000E+00 0.  1.
         23    2    1    2    0    0  0.12766738333E+02 -0.22738746316E+03 -0.16077678274E+03  0.29292286195E+03  0.89925420081E+02 0.  0.
        254    2    1    2    0    0 -0.12766738333E+02  0.22738746316E+03  0.10874759745E+04  0.14315558712E+04  0.90270713377E+03 0.  0.
        -24    2    4    4    0    0 -0.79843295303E+02  0.44191877154E+03  0.11017090718E+04  0.11925271312E+04  0.81798088395E+02 0.  0.
         24    2    4    4    0    0  0.67076556970E+02 -0.21453130838E+03 -0.14233097318E+02  0.23902874005E+03  0.80057546449E+02 0.  0.
         13    1    3    3    0    0 -0.16684238027E+02 -0.91014980269E+02 -0.11165037650E+03  0.14500998933E+03  0.00000000000E+00 0.  1.
        -13    1    3    3    0    0  0.29450976359E+02 -0.13637248289E+03 -0.49126406239E+02  0.14791287263E+03  0.00000000000E+00 0. -1.
          2    1    6    6  502    0 -0.15815315067E+02 -0.13014685979E+02 -0.41396759171E+01  0.20896008195E+02  0.00000000000E+00 0. -1.
          1    1    5    5  503    0  0.93399267327E+01  0.32653364940E+02  0.49705415098E+02  0.60200537899E+02  0.00000000000E+00 0. -1.
         -2    1    5    5    0  503 -0.89183222036E+02  0.40926540660E+03  0.10520036567E+04  0.11323265933E+04  0.00000000000E+00 0.  1.
         -3    1    6    6    0  502  0.82891872037E+02 -0.20151662240E+03 -0.10093421401E+02  0.21813273186E+03  0.00000000000E+00 0.  1.
<mgrwt>
<rscale>  0 0.14543230E+04</rscale>
<asrwt>0</asrwt>
<pdfrwt beam="1">  1        2 0.20393676E+00 0.14543230E+04</pdfrwt>
<pdfrwt beam="2">  1       -2 0.61367657E-01 0.14543230E+04</pdfrwt>
<totfact> 0.38232663E+01</totfact>
</mgrwt>
</event>
<event>
12    1  0.4612066E-007  0.1237041E+04  0.7818608E-02  0.9081038E-01
          1   -1    0    0  501    0  0.00000000000E+00  0.00000000000E+00  0.80694010168E+03  0.80694010168E+03  0.00000000000E+00 0.  1.
         -1   -1    0    0    0  501 -0.00000000000E+00 -0.00000000000E+00 -0.47409671192E+03  0.47409671192E+03  0.00000000000E+00 0. -1.
         23    2    1    2    0    0  0.65213388982E+02 -0.26323616429E+03  0.10552929783E+03  0.30482891563E+03  0.90764369728E+02 0.  0.
        254    2    1    2    0    0 -0.65213388982E+02  0.26323616429E+03  0.22731409194E+03  0.97620789797E+03  0.90981542049E+03 0.  0.
        -24    2    4    4    0    0 -0.36963242175E+03  0.29981453070E+01  0.38390856952E+03  0.53882982623E+03  0.79464934339E+02 0.  0.
         24    2    4    4    0    0  0.30441903277E+03  0.26023801898E+03 -0.15659447759E+03  0.43737807174E+03  0.79893511569E+02 0.  0.
         13    1    3    3    0    0  0.58952428005E+02 -0.27023364713E+03  0.10195369424E+03  0.29478156078E+03  0.00000000000E+00 0. -1.
        -13    1    3    3    0    0  0.62609609774E+01  0.69974828386E+01  0.35756035822E+01  0.10047354847E+02  0.00000000000E+00 0.  1.
          2    1    6    6  502    0  0.20555090875E+03  0.12719487654E+03 -0.78533005794E+02  0.25415968544E+03  0.00000000000E+00 0. -1.
          1    1    5    5  503    0 -0.22549023434E+02 -0.19106604809E+02  0.39853846705E+02  0.49617032381E+02  0.00000000000E+00 0. -1.
         -2    1    5    5    0  503 -0.34708339832E+03  0.22104750116E+02  0.34405472282E+03  0.48921279385E+03  0.00000000000E+00 0.  1.
         -1    1    6    6    0  502  0.98868124026E+02  0.13304314245E+03 -0.78061471795E+02  0.18321838630E+03  0.00000000000E+00 0.  1.
<mgrwt>
<rscale>  0 0.12370411E+04</rscale>
<asrwt>0</asrwt>
<pdfrwt beam="1">  1        1 0.12414463E+00 0.12370411E+04</pdfrwt>
<pdfrwt beam="2">  1       -1 0.72937956E-01 0.12370411E+04</pdfrwt>
<totfact> 0.40799365E+01</totfact>
</mgrwt>
</event>
<event>
12    1  0.4612066E-007  0.3471254E+04  0.7818608E-02  0.8120636E-01
          2   -1    0    0  501    0  0.00000000000E+00  0.00000000000E+00  0.15409572131E+04  0.15409572131E+04  0.00000000000E+00 0. -1.
         -2   -1    0    0    0  501 -0.00000000000E+00 -0.00000000000E+00 -0.19548892485E+04  0.19548892485E+04  0.00000000000E+00 0.  1.
         23    2    1    2    0    0  0.10961036123E+04 -0.18815191092E+03  0.98984579611E+03  0.14917135029E+04  0.92575397480E+02 0.  0.
        254    2    1    2    0    0 -0.10961036123E+04  0.18815191092E+03 -0.14037778315E+04  0.20041329587E+04  0.89950677890E+03 0.  0.
        -24    2    4    4    0    0 -0.66388640690E+03 -0.26696167878E+03 -0.41653154892E+03  0.83177756602E+03  0.79634721562E+02 0.  0.
         24    2    4    4    0    0 -0.43221720541E+03  0.45511358970E+03 -0.98724628256E+03  0.11723553926E+04  0.76301061737E+02 0.  0.
         13    1    3    3    0    0  0.56079098945E+03 -0.13637898927E+03  0.48024928666E+03  0.75081631569E+03  0.00000000000E+00 0.  1.
        -13    1    3    3    0    0  0.53531262286E+03 -0.51772921651E+02  0.50959650945E+03  0.74089718723E+03  0.00000000000E+00 0. -1.
          4    1    6    6  502    0 -0.32173109366E+03  0.30233526500E+03 -0.64533207479E+03  0.78190216514E+03  0.00000000000E+00 0. -1.
          1    1    5    5  503    0 -0.46889663437E+03 -0.21659406949E+03 -0.32752236550E+03  0.61159459167E+03  0.00000000000E+00 0. -1.
         -2    1    5    5    0  503 -0.19498977254E+03 -0.50367609292E+02 -0.89009183418E+02  0.22018297435E+03  0.00000000000E+00 0.  1.
         -3    1    6    6    0  502 -0.11048611175E+03  0.15277832470E+03 -0.34191420777E+03  0.39045322750E+03  0.00000000000E+00 0.  1.
<mgrwt>
<rscale>  0 0.34712538E+04</rscale>
<asrwt>0</asrwt>
<pdfrwt beam="1">  1        2 0.23707034E+00 0.34712538E+04</pdfrwt>
<pdfrwt beam="2">  1       -2 0.30075219E+00 0.34712538E+04</pdfrwt>
<totfact> 0.31173310E-01</totfact>
</mgrwt>
</event>
<event>
12    1  0.4612066E-007  0.1726059E+04  0.7818608E-02  0.8746640E-01
         -2   -1    0    0    0  501 -0.00000000000E+00  0.00000000000E+00  0.36606927751E+03  0.36606927751E+03  0.00000000000E+00 0.  1.
          2   -1    0    0  501    0  0.00000000000E+00 -0.00000000000E+00 -0.20346425099E+04  0.20346425099E+04  0.00000000000E+00 0. -1.
         23    2    1    2    0    0  0.49675514682E+03 -0.31849179226E+03 -0.32571689525E+03  0.68033720254E+03  0.92544668550E+02 0.  0.
        254    2    1    2    0    0 -0.49675514682E+03  0.31849179226E+03 -0.13428563372E+04  0.17203745849E+04  0.89901216477E+03 0.  0.
        -24    2    4    4    0    0 -0.23206712337E+03 -0.19612050549E+03 -0.73038174849E+02  0.32251315384E+03  0.79760623064E+02 0.  0.
         24    2    4    4    0    0 -0.26468802345E+03  0.51461229775E+03 -0.12698181623E+04  0.13978614310E+04  0.81809830017E+02 0.  0.
         11    1    3    3    0    0  0.63056496328E+02 -0.14124088795E+02 -0.15843591102E+02  0.66532931639E+02  0.00000000000E+00 0.  1.
        -11    1    3    3    0    0  0.43369865050E+03 -0.30436770347E+03 -0.30987330415E+03  0.61380427090E+03  0.00000000000E+00 0. -1.
          4    1    6    6  502    0 -0.23887745462E+03  0.43482995615E+03 -0.11404994508E+04  0.12437357140E+04  0.00000000000E+00 0. -1.
          1    1    5    5  503    0 -0.15640642328E+03 -0.13787163431E+03 -0.87170969777E+02  0.22598746594E+03  0.00000000000E+00 0. -1.
         -2    1    5    5    0  503 -0.75660700091E+02 -0.58248871182E+02  0.14132794928E+02  0.96525687900E+02  0.00000000000E+00 0.  1.
         -3    1    6    6    0  502 -0.25810568832E+02  0.79782341605E+02 -0.12931871154E+03  0.15412571703E+03  0.00000000000E+00 0.  1.
<mgrwt>
<rscale>  0 0.17260592E+04</rscale>
<asrwt>0</asrwt>
<pdfrwt beam="1">  1        2 0.31302192E+00 0.17260592E+04</pdfrwt>
<pdfrwt beam="2">  1       -2 0.56318350E-01 0.17260592E+04</pdfrwt>
<totfact> 0.17960179E+01</totfact>
</mgrwt>
</event>
<event>
12    1  0.4612066E-007  0.1811788E+04  0.7818608E-02  0.8700056E-01
          1   -1    0    0  501    0  0.00000000000E+00  0.00000000000E+00  0.18213463276E+04  0.18213463276E+04  0.00000000000E+00 0. -1.
         -1   -1    0    0    0  501 -0.00000000000E+00 -0.00000000000E+00 -0.45056988556E+03  0.45056988556E+03  0.00000000000E+00 0.  1.
         23    2    1    2    0    0 -0.44733730140E+03 -0.38825702536E+03  0.94101408747E+03  0.11159793605E+04  0.95122243770E+02 0.  0.
        254    2    1    2    0    0  0.44733730140E+03  0.38825702536E+03  0.42976235453E+03  0.11559368526E+04  0.89478497245E+03 0.  0.
        -24    2    4    4    0    0  0.35195613037E+03  0.23483482301E+03  0.69957509861E+03  0.82140770074E+03  0.79276607115E+02 0.  0.
         24    2    4    4    0    0  0.95381171027E+02  0.15342220235E+03 -0.26981274408E+03  0.33452915189E+03  0.80466742396E+02 0.  0.
         11    1    3    3    0    0 -0.17611865807E+03 -0.97058761244E+02  0.34499568661E+03  0.39932469073E+03  0.00000000000E+00 0.  1.
        -11    1    3    3    0    0 -0.27121864333E+03 -0.29119826411E+03  0.59601840086E+03  0.71665466975E+03  0.00000000000E+00 0. -1.
          2    1    6    6  502    0 -0.90341803740E+01  0.37710800107E+02 -0.32419091188E+02  0.50544221561E+02  0.00000000000E+00 0. -1.
          3    1    5    5  503    0  0.11225270704E+03  0.35398942358E+02  0.21671350139E+03  0.24661406498E+03  0.00000000000E+00 0. -1.
         -4    1    5    5    0  503  0.23970342332E+03  0.19943588065E+03  0.48286159722E+03  0.57479363576E+03  0.00000000000E+00 0.  1.
         -1    1    6    6    0  502  0.10441535140E+03  0.11571140225E+03 -0.23739365289E+03  0.28398493033E+03  0.00000000000E+00 0.  1.
<mgrwt>
<rscale>  0 0.18117879E+04</rscale>
<asrwt>0</asrwt>
<pdfrwt beam="1">  1        1 0.28020712E+00 0.18117879E+04</pdfrwt>
<pdfrwt beam="2">  1       -1 0.69318445E-01 0.18117879E+04</pdfrwt>
<totfact> 0.78186197E+00</totfact>
</mgrwt>
</event>
<event>
12    1  0.4612066E-007  0.4029024E+04  0.7818608E-02  0.7998717E-01
         -1   -1    0    0    0  501 -0.00000000000E+00  0.00000000000E+00  0.17906313304E+04  0.17906313304E+04  0.00000000000E+00 0.  1.
          1   -1    0    0  501    0  0.00000000000E+00 -0.00000000000E+00 -0.22663837813E+04  0.22663837813E+04  0.00000000000E+00 0. -1.
         23    2    1    2    0    0  0.12452571993E+04  0.76690423914E+03 -0.14814663306E+04  0.20837769267E+04  0.92607705272E+02 0.  0.
        254    2    1    2    0    0 -0.12452571993E+04 -0.76690423914E+03  0.10057138797E+04  0.19732381850E+04  0.86220700661E+03 0.  0.
        -24    2    4    4    0    0 -0.26194682789E+03 -0.28526164374E+03  0.74751313937E+03  0.84560483950E+03  0.79254684572E+02 0.  0.
         24    2    4    4    0    0 -0.98331037144E+03 -0.48164259541E+03  0.25820074031E+03  0.11276333454E+04  0.77527176966E+02 0.  0.
         13    1    3    3    0    0  0.23216551836E+03  0.14962419179E+03 -0.33254645106E+03  0.43229083820E+03  0.00000000000E+00 0. -1.
        -13    1    3    3    0    0  0.10130916810E+04  0.61728004735E+03 -0.11489198795E+04  0.16514860885E+04  0.00000000000E+00 0.  1.
          2    1    6    6  502    0 -0.86045748000E+03 -0.39480034179E+03  0.21076174312E+03  0.96988396065E+03  0.00000000000E+00 0. -1.
          1    1    5    5  503    0 -0.13441284692E+03 -0.19726882716E+03  0.49044215674E+03  0.54544964268E+03  0.00000000000E+00 0. -1.
         -2    1    5    5    0  503 -0.12753398097E+03 -0.87992816573E+02  0.25707098263E+03  0.30015519682E+03  0.00000000000E+00 0.  1.
         -1    1    6    6    0  502 -0.12285289145E+03 -0.86842253614E+02  0.47438997188E+02  0.15774938480E+03  0.00000000000E+00 0.  1.
<mgrwt>
<rscale>  0 0.40290236E+04</rscale>
<asrwt>0</asrwt>
<pdfrwt beam="1">  1        1 0.34867443E+00 0.40290236E+04</pdfrwt>
<pdfrwt beam="2">  1       -1 0.27548174E+00 0.40290236E+04</pdfrwt>
<totfact> 0.72955691E-02</totfact>
</mgrwt>
</event>
<event>
12    1  0.4612066E-007  0.1696040E+04  0.7818608E-02  0.8763626E-01
         -2   -1    0    0    0  501 -0.00000000000E+00  0.00000000000E+00  0.18875536597E+03  0.18875536597E+03  0.00000000000E+00 0.  1.
          2   -1    0    0  501    0  0.00000000000E+00 -0.00000000000E+00 -0.38098936814E+04  0.38098936814E+04  0.00000000000E+00 0. -1.
         23    2    1    2    0    0 -0.15926286589E+03  0.58221099172E+03 -0.11911907407E+04  0.13385708250E+04  0.92207231051E+02 0.  0.
        254    2    1    2    0    0  0.15926286589E+03 -0.58221099172E+03 -0.24299475747E+04  0.26600782224E+04  0.89835217701E+03 0.  0.
        -24    2    4    4    0    0 -0.14015539511E+03 -0.59411922515E+03 -0.84734765811E+03  0.10473644984E+04  0.79706651788E+02 0.  0.
         24    2    4    4    0    0  0.29941826100E+03  0.11908233431E+02 -0.15825999166E+04  0.16127137239E+04  0.80187021411E+02 0.  0.
         11    1    3    3    0    0 -0.14354692741E+03  0.36222497674E+03 -0.78440715257E+03  0.87584658197E+03  0.00000000000E+00 0. -1.
        -11    1    3    3    0    0 -0.15715938477E+02  0.21998601498E+03 -0.40678358816E+03  0.46272424305E+03  0.00000000000E+00 0.  1.
          4    1    6    6  502    0  0.18265092595E+03 -0.30603070355E+02 -0.89191939897E+03  0.91094353443E+03  0.00000000000E+00 0. -1.
          3    1    5    5  503    0 -0.12598132207E+03 -0.37262834755E+03 -0.52545581754E+03  0.65637412738E+03  0.00000000000E+00 0. -1.
         -4    1    5    5    0  503 -0.14174073041E+02 -0.22149087759E+03 -0.32189184057E+03  0.39099037102E+03  0.00000000000E+00 0.  1.
         -3    1    6    6    0  502  0.11676733505E+03  0.42511303786E+02 -0.69068051761E+03  0.70177018951E+03  0.00000000000E+00 0.  1.
<mgrwt>
<rscale>  0 0.16960399E+04</rscale>
<asrwt>0</asrwt>
<pdfrwt beam="1">  1        2 0.58613747E+00 0.16960399E+04</pdfrwt>
<pdfrwt beam="2">  1       -2 0.29039288E-01 0.16960399E+04</pdfrwt>
<totfact> 0.50778675E+00</totfact>
</mgrwt>
</event>
<event>
12    1  0.4612066E-007  0.1484397E+04  0.7818608E-02  0.8894896E-01
         -1   -1    0    0    0  501 -0.00000000000E+00  0.00000000000E+00  0.63651750960E+03  0.63651750960E+03  0.00000000000E+00 0.  1.
          1   -1    0    0  501    0  0.00000000000E+00 -0.00000000000E+00 -0.86542534027E+03  0.86542534027E+03  0.00000000000E+00 0. -1.
         23    2    1    2    0    0 -0.93147425874E+02  0.47123789353E+02  0.38029835691E+03  0.40495841389E+03  0.92018379891E+02 0.  0.
        254    2    1    2    0    0  0.93147425874E+02 -0.47123789353E+02 -0.60920618758E+03  0.10969844360E+04  0.90628118116E+03 0.  0.
        -24    2    4    4    0    0  0.48419788720E+03 -0.11279929509E+03 -0.28705558765E+03  0.57974897926E+03  0.80849821353E+02 0.  0.
         24    2    4    4    0    0 -0.39105046133E+03  0.65675505734E+02 -0.32215059993E+03  0.51723545671E+03  0.80732727479E+02 0.  0.
         11    1    3    3    0    0 -0.15283292560E+02 -0.27152815145E+02  0.73347396035E+02  0.79691247367E+02  0.00000000000E+00 0. -1.
        -11    1    3    3    0    0 -0.77864133315E+02  0.74276604498E+02  0.30695096088E+03  0.32526716652E+03  0.00000000000E+00 0.  1.
          2    1    6    6  502    0 -0.11822411938E+03  0.20693320294E+02 -0.52467040353E+02  0.13098834388E+03  0.00000000000E+00 0. -1.
          3    1    5    5  503    0  0.26043292091E+03 -0.66001494709E+02 -0.20079215609E+03  0.33540869629E+03  0.00000000000E+00 0. -1.
         -4    1    5    5    0  503  0.22376496630E+03 -0.46797800377E+02 -0.86263431556E+02  0.24434028298E+03  0.00000000000E+00 0.  1.
         -3    1    6    6    0  502 -0.27282634195E+03  0.44982185439E+02 -0.26968355958E+03  0.38624711284E+03  0.00000000000E+00 0.  1.
<mgrwt>
<rscale>  0 0.14843967E+04</rscale>
<asrwt>0</asrwt>
<pdfrwt beam="1">  1        1 0.13314236E+00 0.14843967E+04</pdfrwt>
<pdfrwt beam="2">  1       -1 0.97925771E-01 0.14843967E+04</pdfrwt>
<totfact> 0.18829898E+01</totfact>
</mgrwt>
</event>
<event>
12    1  0.4612066E-007  0.2427363E+04  0.7818608E-02  0.8429330E-01
         -2   -1    0    0    0  501 -0.00000000000E+00  0.00000000000E+00  0.45405250441E+03  0.45405250441E+03  0.00000000000E+00 0.  1.
          2   -1    0    0  501    0  0.00000000000E+00 -0.00000000000E+00 -0.32441694921E+04  0.32441694921E+04  0.00000000000E+00 0. -1.
         23    2    1    2    0    0 -0.80216326183E+03  0.30298396222E+03 -0.29693822837E+03  0.91189663930E+03  0.90099885197E+02 0.  0.
        254    2    1    2    0    0  0.80216326183E+03 -0.30298396222E+03 -0.24931787593E+04  0.27863253572E+04  0.90133428332E+03 0.  0.
        -24    2    4    4    0    0  0.24844607800E+03  0.31585974161E+03 -0.79943281135E+03  0.89821692189E+03  0.78790791716E+02 0.  0.
         24    2    4    4    0    0  0.55371718383E+03 -0.61884370383E+03 -0.16937459479E+04  0.18881084353E+04  0.81288854207E+02 0.  0.
         11    1    3    3    0    0 -0.49635857576E+03  0.21691827102E+03 -0.22252283429E+03  0.58561231528E+03  0.00000000000E+00 0. -1.
        -11    1    3    3    0    0 -0.30580468607E+03  0.86065691204E+02 -0.74415394080E+02  0.32628432402E+03  0.00000000000E+00 0.  1.
          2    1    6    6  502    0  0.47565834241E+03 -0.50454120200E+03 -0.14635596480E+04  0.16195121261E+04  0.00000000000E+00 0. -1.
          1    1    5    5  503    0  0.75124364418E+02  0.15105428164E+03 -0.37077998761E+03  0.40735594428E+03  0.00000000000E+00 0. -1.
         -2    1    5    5    0  503  0.17332171358E+03  0.16480545997E+03 -0.42865282375E+03  0.49086097761E+03  0.00000000000E+00 0.  1.
         -1    1    6    6    0  502  0.78058841419E+02 -0.11430250183E+03 -0.23018629989E+03  0.26859630918E+03  0.00000000000E+00 0.  1.
<mgrwt>
<rscale>  0 0.24273634E+04</rscale>
<asrwt>0</asrwt>
<pdfrwt beam="1">  1        2 0.49910299E+00 0.24273634E+04</pdfrwt>
<pdfrwt beam="2">  1       -2 0.69854232E-01 0.24273634E+04</pdfrwt>
<totfact> 0.20343111E+00</totfact>
</mgrwt>
</event>
<event>
12    1  0.4612066E-007  0.2348114E+04  0.7818608E-02  0.8459188E-01
         -2   -1    0    0    0  501 -0.00000000000E+00  0.00000000000E+00  0.47085864884E+03  0.47085864884E+03  0.00000000000E+00 0.  1.
          2   -1    0    0  501    0  0.00000000000E+00 -0.00000000000E+00 -0.29274395863E+04  0.29274395863E+04  0.00000000000E+00 0. -1.
         23    2    1    2    0    0 -0.44722601222E+03 -0.65589246651E+03 -0.19177743661E+04  0.20777529185E+04  0.94829517757E+02 0.  0.
        254    2    1    2    0    0  0.44722601222E+03  0.65589246651E+03 -0.53880657135E+03  0.13205453166E+04  0.90737058489E+03 0.  0.
        -24    2    4    4    0    0  0.59957545409E+02  0.34710778781E+03  0.21075914082E+03  0.41850552080E+03  0.81539756517E+02 0.  0.
         24    2    4    4    0    0  0.38726846681E+03  0.30878467870E+03 -0.74956571217E+03  0.90203979583E+03  0.80636178088E+02 0.  0.
         11    1    3    3    0    0 -0.30004345393E+03 -0.50024645031E+03 -0.14648999823E+04  0.15767702888E+04  0.00000000000E+00 0. -1.
        -11    1    3    3    0    0 -0.14718255829E+03 -0.15564601620E+03 -0.45287438372E+03  0.50098262969E+03  0.00000000000E+00 0.  1.
          2    1    6    6  502    0  0.31256162027E+03  0.20466274277E+03 -0.55163598225E+03  0.66624609692E+03  0.00000000000E+00 0. -1.
          1    1    5    5  503    0 -0.10765636716E+02  0.13848415688E+03  0.58483931504E+02  0.15071207942E+03  0.00000000000E+00 0. -1.
         -2    1    5    5    0  503  0.70723182125E+02  0.20862363093E+03  0.15227520931E+03  0.26779344138E+03  0.00000000000E+00 0.  1.
         -1    1    6    6    0  502  0.74706846542E+02  0.10412193593E+03 -0.19792972992E+03  0.23579369891E+03  0.00000000000E+00 0.  1.
<mgrwt>
<rscale>  0 0.23481143E+04</rscale>
<asrwt>0</asrwt>
<pdfrwt beam="1">  1        2 0.45037532E+00 0.23481143E+04</pdfrwt>
<pdfrwt beam="2">  1       -2 0.72439793E-01 0.23481143E+04</pdfrwt>
<totfact> 0.30100903E+00</totfact>
</mgrwt>
</event>
<event>
12    1  0.4612066E-007  0.2366030E+04  0.7818608E-02  0.8452332E-01
          2   -1    0    0  501    0  0.00000000000E+00  0.00000000000E+00  0.62548679071E+03  0.62548679071E+03  0.00000000000E+00 0. -1.
         -2   -1    0    0    0  501 -0.00000000000E+00 -0.00000000000E+00 -0.22374973662E+04  0.22374973662E+04  0.00000000000E+00 0.  1.
         23    2    1    2    0    0 -0.50949508236E+03 -0.81100583764E+03 -0.30757786091E+03  0.10100303900E+04  0.90782930735E+02 0.  0.
        254    2    1    2    0    0  0.50949508236E+03  0.81100583764E+03 -0.13044327146E+04  0.18529537670E+04  0.90253933320E+03 0.  0.
        -24    2    4    4    0    0  0.62980698125E+03  0.91140809158E+03 -0.12420049456E+04  0.16662583479E+04  0.80740657686E+02 0.  0.
         24    2    4    4    0    0 -0.12031189889E+03 -0.10040225395E+03 -0.62427768995E+02  0.18669541913E+03  0.80014920930E+02 0.  0.
         11    1    3    3    0    0 -0.25387199831E+03 -0.46369320953E+03 -0.20309119762E+03  0.56631123831E+03  0.00000000000E+00 0.  1.
        -11    1    3    3    0    0 -0.25562308405E+03 -0.34731262811E+03 -0.10448666329E+03  0.44371915166E+03  0.00000000000E+00 0. -1.
          2    1    6    6  502    0 -0.10310508501E+03 -0.10028018192E+03 -0.25659491554E+02  0.14609990742E+03  0.00000000000E+00 0. -1.
          1    1    5    5  503    0  0.39117434070E+03  0.53312080927E+03 -0.68802492323E+03  0.95426068613E+03  0.00000000000E+00 0. -1.
         -2    1    5    5    0  503  0.23863264055E+03  0.37828728231E+03 -0.55398002239E+03  0.71199766172E+03  0.00000000000E+00 0.  1.
         -1    1    6    6    0  502 -0.17206813879E+02 -0.12207202803E+00 -0.36768277441E+02  0.40595511715E+02  0.00000000000E+00 0.  1.
<mgrwt>
<rscale>  0 0.23660305E+04</rscale>
<asrwt>0</asrwt>
<pdfrwt beam="1">  1        2 0.96228739E-01 0.23660305E+04</pdfrwt>
<pdfrwt beam="2">  1       -2 0.34423036E+00 0.23660305E+04</pdfrwt>
<totfact> 0.71967108E-01</totfact>
</mgrwt>
</event>
<event>
12    1  0.4612066E-007  0.1720102E+04  0.7818608E-02  0.8749982E-01
          2   -1    0    0  501    0  0.00000000000E+00  0.00000000000E+00  0.29931982554E+04  0.29931982554E+04  0.00000000000E+00 0. -1.
         -2   -1    0    0    0  501 -0.00000000000E+00 -0.00000000000E+00 -0.24712278197E+03  0.24712278197E+03  0.00000000000E+00 0.  1.
         23    2    1    2    0    0  0.36030840407E+03  0.50573960493E+03  0.97107120754E+03  0.11562800828E+04  0.91704120501E+02 0.  0.
        254    2    1    2    0    0 -0.36030840407E+03 -0.50573960493E+03  0.17750042659E+04  0.20840409546E+04  0.89832725796E+03 0.  0.
        -24    2    4    4    0    0 -0.88100339465E+02  0.18254512923E+03  0.77366846046E+02  0.23029483934E+03  0.77237880201E+02 0.  0.
         24    2    4    4    0    0 -0.27220806461E+03 -0.68828473416E+03  0.16976374199E+04  0.18537461153E+04  0.81047793199E+02 0.  0.
         13    1    3    3    0    0  0.21815279418E+02  0.83906165628E+02  0.14303850408E+03  0.16726076855E+03  0.00000000000E+00 0. -1.
        -13    1    3    3    0    0  0.33849312465E+03  0.42183343930E+03  0.82803270346E+03  0.98901931424E+03  0.00000000000E+00 0.  1.
          2    1    6    6  502    0 -0.59297719855E+02 -0.86227990113E+02  0.27992258037E+03  0.29884467012E+03  0.00000000000E+00 0. -1.
          1    1    5    5  503    0 -0.72318912301E+02  0.11671625049E+03  0.14774470539E+02  0.13809776677E+03  0.00000000000E+00 0. -1.
         -2    1    5    5    0  503 -0.15781427163E+02  0.65828878739E+02  0.62592375506E+02  0.92197072572E+02  0.00000000000E+00 0.  1.
         -1    1    6    6    0  502 -0.21291034475E+03 -0.60205674405E+03  0.14177148395E+04  0.15549014451E+04  0.00000000000E+00 0.  1.
<mgrwt>
<rscale>  0 0.17201017E+04</rscale>
<asrwt>0</asrwt>
<pdfrwt beam="1">  1        2 0.46049201E+00 0.17201017E+04</pdfrwt>
<pdfrwt beam="2">  1       -2 0.38018892E-01 0.17201017E+04</pdfrwt>
<totfact> 0.10959630E+01</totfact>
</mgrwt>
</event>
<event>
12    1  0.4612066E-007  0.1702698E+04  0.7818608E-02  0.8759827E-01
         -1   -1    0    0    0  501 -0.00000000000E+00  0.00000000000E+00  0.28519135417E+04  0.28519135417E+04  0.00000000000E+00 0.  1.
          1   -1    0    0  501    0  0.00000000000E+00 -0.00000000000E+00 -0.25414356395E+03  0.25414356395E+03  0.00000000000E+00 0. -1.
         23    2    1    2    0    0 -0.47021310272E+03  0.36673792418E+03  0.65447226814E+03  0.89043404728E+03  0.94560963311E+02 0.  0.
        254    2    1    2    0    0  0.47021310272E+03 -0.36673792418E+03  0.19432977096E+04  0.22156230583E+04  0.88146609780E+03 0.  0.
        -24    2    4    4    0    0  0.43317477745E+03 -0.58847249930E+03  0.99044536543E+03  0.12334119240E+04  0.79891689379E+02 0.  0.
         24    2    4    4    0    0  0.37038325271E+02  0.22173457512E+03  0.95285234415E+03  0.98221113437E+03  0.79202672811E+02 0.  0.
         13    1    3    3    0    0 -0.37124196867E+03  0.29775735018E+03  0.57303128978E+03  0.74487911634E+03  0.00000000000E+00 0.  1.
        -13    1    3    3    0    0 -0.98971134050E+02  0.68980574000E+02  0.81440978362E+02  0.14555493094E+03  0.00000000000E+00 0. -1.
          4    1    6    6  502    0  0.56015721341E+02  0.20633227423E+03  0.84573991750E+03  0.87234556025E+03  0.00000000000E+00 0. -1.
          1    1    5    5  503    0  0.39208910862E+03 -0.50289697115E+03  0.89363468626E+03  0.10978261179E+04  0.00000000000E+00 0. -1.
         -2    1    5    5    0  503  0.41085668824E+02 -0.85575528150E+02  0.96810679171E+02  0.13558580605E+03  0.00000000000E+00 0.  1.
         -3    1    6    6    0  502 -0.18977396070E+02  0.15402300887E+02  0.10711242665E+03  0.10986557412E+03  0.00000000000E+00 0.  1.
<mgrwt>
<rscale>  0 0.17026984E+04</rscale>
<asrwt>0</asrwt>
<pdfrwt beam="1">  1        1 0.39099012E-01 0.17026984E+04</pdfrwt>
<pdfrwt beam="2">  1       -1 0.43875591E+00 0.17026984E+04</pdfrwt>
<totfact> 0.40213665E-01</totfact>
</mgrwt>
</event>
<event>
12    1  0.4612066E-007  0.2061279E+04  0.7818608E-02  0.8578495E-01
          1   -1    0    0  501    0  0.00000000000E+00  0.00000000000E+00  0.26151268992E+04  0.26151268992E+04  0.00000000000E+00 0. -1.
         -1   -1    0    0    0  501 -0.00000000000E+00 -0.00000000000E+00 -0.40618206874E+03  0.40618206874E+03  0.00000000000E+00 0.  1.
         23    2    1    2    0    0  0.49683720628E+03 -0.75845676635E+02 -0.67680774546E+02  0.51703496269E+03  0.10072084789E+03 0.  0.
        254    2    1    2    0    0 -0.49683720628E+03  0.75845676635E+02  0.22766256050E+04  0.25042740052E+04  0.91420149410E+03 0.  0.
        -24    2    4    4    0    0 -0.29209283301E+03  0.47613228515E+03  0.15068590076E+04  0.16092045592E+04  0.83036550369E+02 0.  0.
         24    2    4    4    0    0 -0.20474437326E+03 -0.40028660852E+03  0.76976659742E+03  0.89506944601E+03  0.80368347821E+02 0.  0.
         11    1    3    3    0    0  0.41058961940E+03 -0.31636219327E+02 -0.79463256506E+02  0.41940326067E+03  0.00000000000E+00 0.  1.
        -11    1    3    3    0    0  0.86247586879E+02 -0.44209457308E+02  0.11782481961E+02  0.97631702019E+02  0.00000000000E+00 0. -1.
          2    1    6    6  502    0 -0.17163511943E+03 -0.30625319343E+03  0.65418739791E+03  0.74243571054E+03  0.00000000000E+00 0. -1.
          1    1    5    5  503    0 -0.85016663658E+01  0.56128091308E+02  0.18564904223E+03  0.19413450967E+03  0.00000000000E+00 0. -1.
         -2    1    5    5    0  503 -0.28359116665E+03  0.42000419384E+03  0.13212099653E+04  0.14150700496E+04  0.00000000000E+00 0.  1.
         -1    1    6    6    0  502 -0.33109253836E+02 -0.94033415082E+02  0.11557919951E+03  0.15263373546E+03  0.00000000000E+00 0.  1.
<mgrwt>
<rscale>  0 0.20612789E+04</rscale>
<asrwt>0</asrwt>
<pdfrwt beam="1">  1        1 0.40232720E+00 0.20612789E+04</pdfrwt>
<pdfrwt beam="2">  1       -1 0.62489551E-01 0.20612789E+04</pdfrwt>
<totfact> 0.27003704E+00</totfact>
</mgrwt>
</event>
<event>
12    1  0.4612066E-007  0.2830229E+04  0.7818608E-02  0.8293944E-01
          1   -1    0    0  501    0  0.00000000000E+00  0.00000000000E+00  0.21088229196E+04  0.21088229196E+04  0.00000000000E+00 0. -1.
         -1   -1    0    0    0  501 -0.00000000000E+00 -0.00000000000E+00 -0.94960517169E+03  0.94960517169E+03  0.00000000000E+00 0.  1.
         23    2    1    2    0    0 -0.72080065946E+03 -0.75769481311E+03 -0.24584214073E+03  0.10779521654E+04  0.88811554662E+02 0.  0.
        254    2    1    2    0    0  0.72080065946E+03  0.75769481311E+03  0.14050598886E+04  0.19804759259E+04  0.92435738859E+03 0.  0.
        -24    2    4    4    0    0  0.72469736175E+03  0.47783961368E+03  0.44820544559E+03  0.98024753253E+03  0.80499323295E+02 0.  0.
         24    2    4    4    0    0 -0.38967022868E+01  0.27985519943E+03  0.95685444305E+03  0.10002283933E+04  0.80946258374E+02 0.  0.
         11    1    3    3    0    0 -0.39501262886E+03 -0.47848972799E+03 -0.14758802695E+03  0.63778493432E+03  0.00000000000E+00 0. -1.
        -11    1    3    3    0    0 -0.32578803060E+03 -0.27920508512E+03 -0.98254113781E+02  0.44016723108E+03  0.00000000000E+00 0.  1.
          4    1    6    6  502    0  0.17145850071E+02  0.26469066957E+03  0.86142395225E+03  0.90133587316E+03  0.00000000000E+00 0. -1.
          3    1    5    5  503    0  0.68643482854E+03  0.44182845731E+03  0.40054372702E+03  0.90930766892E+03  0.00000000000E+00 0. -1.
         -4    1    5    5    0  503  0.38262533213E+02  0.36011156374E+02  0.47661718574E+02  0.70939863607E+02  0.00000000000E+00 0.  1.
         -3    1    6    6    0  502 -0.21042552357E+02  0.15164529853E+02  0.95430490791E+02  0.98892520182E+02  0.00000000000E+00 0.  1.
<mgrwt>
<rscale>  0 0.28302291E+04</rscale>
<asrwt>0</asrwt>
<pdfrwt beam="1">  1        1 0.32443429E+00 0.28302291E+04</pdfrwt>
<pdfrwt beam="2">  1       -1 0.14609310E+00 0.28302291E+04</pdfrwt>
<totfact> 0.81270374E-01</totfact>
</mgrwt>
</event>
<event>
12    1  0.4612066E-007  0.1825411E+04  0.7818608E-02  0.8692902E-01
         -2   -1    0    0    0  501 -0.00000000000E+00  0.00000000000E+00  0.11973835408E+04  0.11973835408E+04  0.00000000000E+00 0.  1.
          2   -1    0    0  501    0  0.00000000000E+00 -0.00000000000E+00 -0.69571001341E+03  0.69571001341E+03  0.00000000000E+00 0. -1.
         23    2    1    2    0    0  0.41692776173E+03 -0.23990612507E+03 -0.31996437684E+03  0.58484640627E+03  0.91018729585E+02 0.  0.
        254    2    1    2    0    0 -0.41692776173E+03  0.23990612507E+03  0.82163790427E+03  0.13082471480E+04  0.89723912483E+03 0.  0.
        -24    2    4    4    0    0 -0.39022554367E+03  0.46200325952E+03  0.87364281591E+03  0.10652380860E+04  0.75877687310E+02 0.  0.
         24    2    4    4    0    0 -0.26702218060E+02 -0.22209713444E+03 -0.52004911643E+02  0.24300906194E+03  0.79427625996E+02 0.  0.
         13    1    3    3    0    0  0.29986497419E+03 -0.16335267681E+03 -0.27337062178E+03  0.43741810276E+03  0.00000000000E+00 0. -1.
        -13    1    3    3    0    0  0.11706278754E+03 -0.76553448258E+02 -0.46593755063E+02  0.14742830351E+03  0.00000000000E+00 0.  1.
          4    1    6    6  502    0 -0.24285174276E+02 -0.12472912456E+03  0.10137870438E+02  0.12747509804E+03  0.00000000000E+00 0. -1.
          3    1    5    5  503    0 -0.10838338218E+03  0.13794582051E+03  0.19683527245E+03  0.26366670516E+03  0.00000000000E+00 0. -1.
         -4    1    5    5    0  503 -0.28184216148E+03  0.32405743901E+03  0.67680754346E+03  0.80157138089E+03  0.00000000000E+00 0.  1.
         -3    1    6    6    0  502 -0.24170437841E+01 -0.97368009885E+02 -0.62142782081E+02  0.11553396390E+03  0.00000000000E+00 0.  1.
<mgrwt>
<rscale>  0 0.18254114E+04</rscale>
<asrwt>0</asrwt>
<pdfrwt beam="1">  1        2 0.10703231E+00 0.18254114E+04</pdfrwt>
<pdfrwt beam="2">  1       -2 0.18421285E+00 0.18254114E+04</pdfrwt>
<totfact> 0.65948659E+00</totfact>
</mgrwt>
</event>
<event>
12    1  0.4612066E-007  0.2637078E+04  0.7818608E-02  0.8355714E-01
         -2   -1    0    0    0  501 -0.00000000000E+00  0.00000000000E+00  0.72947848403E+03  0.72947848403E+03  0.00000000000E+00 0.  1.
          2   -1    0    0  501    0  0.00000000000E+00 -0.00000000000E+00 -0.23832721382E+04  0.23832721382E+04  0.00000000000E+00 0. -1.
         23    2    1    2    0    0  0.40384365752E+03  0.37334643847E+03  0.47871533885E+03  0.73914650314E+03  0.12121020838E+03 0.  0.
        254    2    1    2    0    0 -0.40384365752E+03 -0.37334643847E+03 -0.21325089930E+04  0.23736041191E+04  0.88539519198E+03 0.  0.
        -24    2    4    4    0    0 -0.88163949885E+02  0.19541283589E+03 -0.12692725678E+04  0.12897420653E+04  0.80141656291E+02 0.  0.
         24    2    4    4    0    0 -0.31567970764E+03 -0.56875927436E+03 -0.86323642515E+03  0.10838620537E+04  0.80243603245E+02 0.  0.
         11    1    3    3    0    0  0.20878696326E+03  0.12220034189E+03  0.16785297195E+03  0.29444785579E+03  0.00000000000E+00 0. -1.
        -11    1    3    3    0    0  0.19505669426E+03  0.25114609657E+03  0.31086236691E+03  0.44469864736E+03  0.00000000000E+00 0.  1.
          4    1    6    6  502    0 -0.71252366368E+02 -0.11885457887E+03 -0.24149355696E+03  0.27842853425E+03  0.00000000000E+00 0. -1.
          1    1    5    5  503    0 -0.32311406405E+02  0.17323129804E+02 -0.12209705734E+03  0.12748258399E+03  0.00000000000E+00 0. -1.
         -2    1    5    5    0  503 -0.55852543479E+02  0.17808970608E+03 -0.11471755105E+04  0.11622594813E+04  0.00000000000E+00 0.  1.
         -3    1    6    6    0  502 -0.24442734127E+03 -0.44990469548E+03 -0.62174286818E+03  0.80543351949E+03  0.00000000000E+00 0.  1.
<mgrwt>
<rscale>  0 0.26370785E+04</rscale>
<asrwt>0</asrwt>
<pdfrwt beam="1">  1        2 0.36665725E+00 0.26370785E+04</pdfrwt>
<pdfrwt beam="2">  1       -2 0.11222746E+00 0.26370785E+04</pdfrwt>
<totfact> 0.22424747E+00</totfact>
</mgrwt>
</event>
<event>
12    1  0.4612066E-007  0.1642187E+04  0.7818608E-02  0.8795042E-01
         -2   -1    0    0    0  501 -0.00000000000E+00  0.00000000000E+00  0.22121424975E+03  0.22121424975E+03  0.00000000000E+00 0.  1.
          2   -1    0    0  501    0  0.00000000000E+00 -0.00000000000E+00 -0.30477005014E+04  0.30477005014E+04  0.00000000000E+00 0. -1.
         23    2    1    2    0    0 -0.41724612608E+02  0.50158763497E+03 -0.44751934239E+03  0.67981906975E+03  0.92462462253E+02 0.  0.
        254    2    1    2    0    0  0.41724612608E+02 -0.50158763497E+03 -0.23789669093E+04  0.25890956814E+04  0.88915791244E+03 0.  0.
        -24    2    4    4    0    0 -0.18095556590E+03 -0.54415605485E+03 -0.22350080924E+04  0.23087351483E+04  0.78396957376E+02 0.  0.
         24    2    4    4    0    0  0.22268017851E+03  0.42568419872E+02 -0.14395881684E+03  0.28036053311E+03  0.80494442717E+02 0.  0.
         13    1    3    3    0    0  0.85286394154E+01  0.17650987255E+03 -0.10808456743E+03  0.20714909248E+03  0.00000000000E+00 0.  1.
        -13    1    3    3    0    0 -0.50253252023E+02  0.32507776242E+03 -0.33943477496E+03  0.47266997727E+03  0.00000000000E+00 0. -1.
          4    1    6    6  502    0  0.16410417724E+03  0.31991708590E+02 -0.60400656435E+02  0.17776920347E+03  0.00000000000E+00 0. -1.
          3    1    5    5  503    0 -0.12264656108E+03 -0.44725793033E+03 -0.18672722668E+04  0.19240030025E+04  0.00000000000E+00 0. -1.
         -2    1    5    5    0  503 -0.58309004822E+02 -0.96898124516E+02 -0.36773582558E+03  0.38473214577E+03  0.00000000000E+00 0.  1.
         -3    1    6    6    0  502  0.58576001274E+02  0.10576711281E+02 -0.83558160407E+02  0.10259132964E+03  0.00000000000E+00 0.  1.
<mgrwt>
<rscale>  0 0.16421873E+04</rscale>
<asrwt>0</asrwt>
<pdfrwt beam="1">  1        2 0.46887699E+00 0.16421873E+04</pdfrwt>
<pdfrwt beam="2">  1       -2 0.34032962E-01 0.16421873E+04</pdfrwt>
<totfact> 0.12625795E+01</totfact>
</mgrwt>
</event>
<event>
12    1  0.4612066E-007  0.1170910E+04  0.7818608E-02  0.9138707E-01
          1   -1    0    0  501    0  0.00000000000E+00  0.00000000000E+00  0.11922567161E+04  0.11922567161E+04  0.00000000000E+00 0. -1.
         -1   -1    0    0    0  501 -0.00000000000E+00 -0.00000000000E+00 -0.28748622163E+03  0.28748622163E+03  0.00000000000E+00 0.  1.
         23    2    1    2    0    0 -0.21475066969E+03 -0.22189174339E+02  0.19203763887E+03  0.29910293037E+03  0.77290999617E+02 0.  0.
        254    2    1    2    0    0  0.21475066969E+03  0.22189174339E+02  0.71273285563E+03  0.11806400074E+04  0.91613999691E+03 0.  0.
        -24    2    4    4    0    0  0.34973020010E+03 -0.34222992757E+03  0.57863014792E+03  0.76194743045E+03  0.79489008636E+02 0.  0.
         24    2    4    4    0    0 -0.13497953041E+03  0.36441910191E+03  0.13410270771E+03  0.41869257694E+03  0.79367388126E+02 0.  0.
         13    1    3    3    0    0 -0.13096556327E+03 -0.50877447243E+02  0.12455583144E+03  0.18776221277E+03  0.00000000000E+00 0.  1.
        -13    1    3    3    0    0 -0.83785106427E+02  0.28688272903E+02  0.67481807430E+02  0.11134071760E+03  0.00000000000E+00 0. -1.
          2    1    6    6  502    0 -0.91370548804E+02  0.13845293610E+03  0.67707707425E+02  0.17917066263E+03  0.00000000000E+00 0. -1.
          1    1    5    5  503    0  0.33877577169E+03 -0.30595226559E+03  0.54802129049E+03  0.71323428629E+03  0.00000000000E+00 0. -1.
         -2    1    5    5    0  503  0.10954428413E+02 -0.36277661985E+02  0.30608857422E+02  0.48713144157E+02  0.00000000000E+00 0.  1.
         -1    1    6    6    0  502 -0.43608981606E+02  0.22596616581E+03  0.66395000289E+02  0.23952191431E+03  0.00000000000E+00 0.  1.
<mgrwt>
<rscale>  0 0.11709097E+04</rscale>
<asrwt>0</asrwt>
<pdfrwt beam="1">  1        1 0.18342411E+00 0.11709097E+04</pdfrwt>
<pdfrwt beam="2">  1       -1 0.44228650E-01 0.11709097E+04</pdfrwt>
<totfact> 0.54283032E+01</totfact>
</mgrwt>
</event>
<event>
12    1  0.4612066E-007  0.1621629E+04  0.7818608E-02  0.8807370E-01
         -1   -1    0    0    0  501 -0.00000000000E+00  0.00000000000E+00  0.97436035142E+03  0.97436035142E+03  0.00000000000E+00 0.  1.
          1   -1    0    0  501    0  0.00000000000E+00 -0.00000000000E+00 -0.67471937374E+03  0.67471937374E+03  0.00000000000E+00 0. -1.
         23    2    1    2    0    0  0.21776935608E+03  0.79949624399E+02 -0.36177184130E+03  0.43929972467E+03  0.91049151832E+02 0.  0.
        254    2    1    2    0    0 -0.21776935608E+03 -0.79949624399E+02  0.66141281898E+03  0.12097800005E+04  0.98604528172E+03 0.  0.
        -24    2    4    4    0    0  0.17289796908E+03 -0.94950927306E+01 -0.18934124340E+03  0.26768369303E+03  0.76292781875E+02 0.  0.
         24    2    4    4    0    0 -0.39066732516E+03 -0.70454531668E+02  0.85075406238E+03  0.94209630746E+03  0.78601386150E+02 0.  0.
         11    1    3    3    0    0  0.10934846008E+03  0.39659854678E+02 -0.10108237791E+03  0.15410268304E+03  0.00000000000E+00 0.  1.
        -11    1    3    3    0    0  0.10842089599E+03  0.40289769721E+02 -0.26068946339E+03  0.28519704163E+03  0.00000000000E+00 0. -1.
          4    1    6    6  502    0 -0.53389679928E+02  0.35533989430E+01  0.17847657684E+03  0.18632491258E+03  0.00000000000E+00 0. -1.
          1    1    5    5  503    0 -0.53018635869E+01 -0.87382116859E+01 -0.16634981316E+02  0.19524054506E+02  0.00000000000E+00 0. -1.
         -2    1    5    5    0  503  0.17819983267E+03 -0.75688104466E+00 -0.17270626208E+03  0.24815963853E+03  0.00000000000E+00 0.  1.
         -3    1    6    6    0  502 -0.33727764523E+03 -0.74007930611E+02  0.67227748554E+03  0.75577139489E+03  0.00000000000E+00 0.  1.
<mgrwt>
<rscale>  0 0.16216286E+04</rscale>
<asrwt>0</asrwt>
<pdfrwt beam="1">  1        1 0.10380298E+00 0.16216286E+04</pdfrwt>
<pdfrwt beam="2">  1       -1 0.14990159E+00 0.16216286E+04</pdfrwt>
<totfact> 0.96437139E+00</totfact>
</mgrwt>
</event>
<event>
12    1  0.4612066E-007  0.1992801E+04  0.7818608E-02  0.8609994E-01
          2   -1    0    0  501    0  0.00000000000E+00  0.00000000000E+00  0.87182477229E+03  0.87182477229E+03  0.00000000000E+00 0. -1.
         -2   -1    0    0    0  501 -0.00000000000E+00 -0.00000000000E+00 -0.11387773888E+04  0.11387773888E+04  0.00000000000E+00 0.  1.
         23    2    1    2    0    0  0.27983394753E+03 -0.68846193607E+03  0.16365052160E+03  0.76640740456E+03  0.91169846692E+02 0.  0.
        254    2    1    2    0    0 -0.27983394753E+03  0.68846193607E+03 -0.43060313810E+03  0.12441947565E+04  0.90017479082E+03 0.  0.
        -24    2    4    4    0    0  0.11773318668E+03 -0.12652897006E+03  0.72462986245E+02  0.20394736214E+03  0.80454699293E+02 0.  0.
         24    2    4    4    0    0 -0.39756713421E+03  0.81499090613E+03 -0.50306612435E+03  0.10402473944E+04  0.82275833495E+02 0.  0.
         11    1    3    3    0    0  0.18669322560E+02 -0.95035945273E+02 -0.32865295472E+01  0.96908078999E+02  0.00000000000E+00 0.  1.
        -11    1    3    3    0    0  0.26116462497E+03 -0.59342599079E+03  0.16693705115E+03  0.66949932556E+03  0.00000000000E+00 0. -1.
          2    1    6    6  502    0 -0.14740558139E+02  0.30567939866E+02 -0.24594939018E+01  0.34025462703E+02  0.00000000000E+00 0. -1.
          1    1    5    5  503    0  0.33372226384E+02 -0.66188309307E+02  0.67267723035E+02  0.10009767402E+03  0.00000000000E+00 0. -1.
         -4    1    5    5    0  503  0.84360960295E+02 -0.60340660758E+02  0.51952632102E+01  0.10384968812E+03  0.00000000000E+00 0.  1.
         -1    1    6    6    0  502 -0.38282657607E+03  0.78442296627E+03 -0.50060663045E+03  0.10062219317E+04  0.00000000000E+00 0.  1.
<mgrwt>
<rscale>  0 0.19928014E+04</rscale>
<asrwt>0</asrwt>
<pdfrwt beam="1">  1        2 0.13412689E+00 0.19928014E+04</pdfrwt>
<pdfrwt beam="2">  1       -2 0.17519652E+00 0.19928014E+04</pdfrwt>
<totfact> 0.55783412E+00</totfact>
</mgrwt>
</event>
<event>
12    1  0.4612066E-007  0.1381256E+04  0.7818608E-02  0.8967500E-01
         -2   -1    0    0    0  501 -0.00000000000E+00  0.00000000000E+00  0.15070134706E+03  0.15070134706E+03  0.00000000000E+00 0.  1.
          2   -1    0    0  501    0  0.00000000000E+00 -0.00000000000E+00 -0.31649800921E+04  0.31649800921E+04  0.00000000000E+00 0. -1.
         23    2    1    2    0    0 -0.19643997108E+03  0.15440127196E+02 -0.14525329469E+04  0.14685982570E+04  0.90010103603E+02 0.  0.
        254    2    1    2    0    0  0.19643997108E+03 -0.15440127196E+02 -0.15617457981E+04  0.18470831822E+04  0.96635360205E+03 0.  0.
        -24    2    4    4    0    0 -0.22872883278E+03 -0.32557324013E+03 -0.96885213671E+03  0.10503971112E+04  0.79654345887E+02 0.  0.
         24    2    4    4    0    0  0.42516880386E+03  0.31013311294E+03 -0.59289366138E+03  0.79668607094E+03  0.78960385062E+02 0.  0.
         13    1    3    3    0    0 -0.11576202232E+03  0.12394486819E+02 -0.11352613778E+04  0.11412155209E+04  0.00000000000E+00 0. -1.
        -13    1    3    3    0    0 -0.80677948752E+02  0.30456403764E+01 -0.31727156910E+03  0.32738273611E+03  0.00000000000E+00 0.  1.
          2    1    6    6  502    0  0.11542997785E+03  0.10474541973E+03 -0.12934446164E+03  0.20254795111E+03  0.00000000000E+00 0. -1.
          3    1    5    5  503    0  0.28870052380E+01 -0.83205515158E+01 -0.55000633018E+02  0.55701310659E+02  0.00000000000E+00 0. -1.
         -4    1    5    5    0  503 -0.23161583802E+03 -0.31725268862E+03 -0.91385150369E+03  0.99469580056E+03  0.00000000000E+00 0.  1.
         -1    1    6    6    0  502  0.30973882601E+03  0.20538769321E+03 -0.46354919974E+03  0.59413811983E+03  0.00000000000E+00 0.  1.
<mgrwt>
<rscale>  0 0.13812556E+04</rscale>
<asrwt>0</asrwt>
<pdfrwt beam="1">  1        2 0.48692005E+00 0.13812556E+04</pdfrwt>
<pdfrwt beam="2">  1       -2 0.23184821E-01 0.13812556E+04</pdfrwt>
<totfact> 0.22158203E+01</totfact>
</mgrwt>
</event>
<event>
12    1  0.4612066E-007  0.1537425E+04  0.7818608E-02  0.8859940E-01
          2   -1    0    0  501    0  0.00000000000E+00  0.00000000000E+00  0.58823866788E+03  0.58823866788E+03  0.00000000000E+00 0.  1.
         -2   -1    0    0    0  501 -0.00000000000E+00 -0.00000000000E+00 -0.10045565174E+04  0.10045565174E+04  0.00000000000E+00 0. -1.
         23    2    1    2    0    0 -0.18811609161E+03 -0.34897599591E+03 -0.46378787146E+03  0.61696054413E+03  0.91483406436E+02 0.  0.
        254    2    1    2    0    0  0.18811609161E+03  0.34897599591E+03  0.47470021919E+02  0.97583464117E+03  0.89040885793E+03 0.  0.
        -24    2    4    4    0    0  0.11127827803E+02  0.31073805844E+03  0.43519722601E+03  0.54050946753E+03  0.77922329627E+02 0.  0.
         24    2    4    4    0    0  0.17698826381E+03  0.38237937472E+02 -0.38772720409E+03  0.43532517364E+03  0.79928947370E+02 0.  0.
         13    1    3    3    0    0 -0.75138179432E+02 -0.58648060453E+02 -0.10642289335E+03  0.14286767735E+03  0.00000000000E+00 0.  1.
        -13    1    3    3    0    0 -0.11297791218E+03 -0.29032793546E+03 -0.35736497812E+03  0.47409286678E+03  0.00000000000E+00 0. -1.
          2    1    6    6  502    0  0.58630338850E+02  0.79499748862E+01 -0.54632275041E+02  0.80532007367E+02  0.00000000000E+00 0. -1.
          1    1    5    5  503    0 -0.19574404596E+02  0.19808387349E+02  0.42803930302E+02  0.51065702521E+02  0.00000000000E+00 0. -1.
         -2    1    5    5    0  503  0.30702232399E+02  0.29092967109E+03  0.39239329570E+03  0.48944376501E+03  0.00000000000E+00 0.  1.
         -1    1    6    6    0  502  0.11835792496E+03  0.30287962586E+02 -0.33309492905E+03  0.35479316627E+03  0.00000000000E+00 0.  1.
<mgrwt>
<rscale>  0 0.15374251E+04</rscale>
<asrwt>0</asrwt>
<pdfrwt beam="1">  1        2 0.90498257E-01 0.15374251E+04</pdfrwt>
<pdfrwt beam="2">  1       -2 0.15454716E+00 0.15374251E+04</pdfrwt>
<totfact> 0.13530964E+01</totfact>
</mgrwt>
</event>
<event>
12    1  0.4612066E-007  0.2672367E+04  0.7818608E-02  0.8344027E-01
         -2   -1    0    0    0  501 -0.00000000000E+00  0.00000000000E+00  0.13668257279E+04  0.13668257279E+04  0.00000000000E+00 0. -1.
          2   -1    0    0  501    0  0.00000000000E+00 -0.00000000000E+00 -0.13062285049E+04  0.13062285049E+04  0.00000000000E+00 0.  1.
         23    2    1    2    0    0 -0.19704282087E+03  0.10925323428E+04 -0.37419643221E+03  0.11751248710E+04  0.91884161884E+02 0.  0.
        254    2    1    2    0    0  0.19704282087E+03 -0.10925323428E+04  0.43479365515E+03  0.14979293618E+04  0.90680431017E+03 0.  0.
        -24    2    4    4    0    0 -0.53935121605E+02 -0.98966780373E+03  0.17793180612E+02  0.99448418714E+03  0.79566589225E+02 0.  0.
         24    2    4    4    0    0  0.25097794248E+03 -0.10286453912E+03  0.41700047454E+03  0.50344517465E+03  0.77437762721E+02 0.  0.
         11    1    3    3    0    0 -0.12943803580E+03  0.74066723193E+03 -0.20784799446E+03  0.78009162434E+03  0.00000000000E+00 0. -1.
        -11    1    3    3    0    0 -0.67604785078E+02  0.35186511091E+03 -0.16634843775E+03  0.39503324669E+03  0.00000000000E+00 0.  1.
          4    1    6    6  502    0  0.64479240002E+02 -0.45366287967E+02  0.70498136078E+02  0.10576227903E+03  0.00000000000E+00 0. -1.
          3    1    5    5  503    0  0.18338569743E+02 -0.13585514540E+03  0.11836902631E+02  0.13759736892E+03  0.00000000000E+00 0. -1.
         -4    1    5    5    0  503 -0.72273691349E+02 -0.85381265833E+03  0.59562779808E+01  0.85688681822E+03  0.00000000000E+00 0.  1.
         -3    1    6    6    0  502  0.18649870248E+03 -0.57498251150E+02  0.34650233846E+03  0.39768289562E+03  0.00000000000E+00 0.  1.
<mgrwt>
<rscale>  0 0.26723673E+04</rscale>
<asrwt>0</asrwt>
<pdfrwt beam="1">  1        2 0.20095823E+00 0.26723673E+04</pdfrwt>
<pdfrwt beam="2">  1       -2 0.21028088E+00 0.26723673E+04</pdfrwt>
<totfact> 0.16438250E+00</totfact>
</mgrwt>
</event>
<event>
12    1  0.4612066E-007  0.1854360E+04  0.7818608E-02  0.8677914E-01
         -2   -1    0    0    0  501 -0.00000000000E+00  0.00000000000E+00  0.52959034209E+03  0.52959034209E+03  0.00000000000E+00 0.  1.
          2   -1    0    0  501    0  0.00000000000E+00 -0.00000000000E+00 -0.16232597922E+04  0.16232597922E+04  0.00000000000E+00 0. -1.
         23    2    1    2    0    0  0.50345023867E+03 -0.49475808077E+03 -0.47286278988E+03  0.85449314648E+03  0.91168075769E+02 0.  0.
        254    2    1    2    0    0 -0.50345023867E+03  0.49475808077E+03 -0.62080666019E+03  0.12983569878E+04  0.89559045161E+03 0.  0.
        -24    2    4    4    0    0  0.24031910093E+03  0.14778763736E+03 -0.53854245603E+02  0.29768862305E+03  0.78254587696E+02 0.  0.
         24    2    4    4    0    0 -0.74376933960E+03  0.34697044341E+03 -0.56695241458E+03  0.10006683647E+04  0.79503563365E+02 0.  0.
         13    1    3    3    0    0  0.26966199327E+03 -0.23251410903E+03 -0.28512159431E+03  0.45615208545E+03  0.00000000000E+00 0. -1.
        -13    1    3    3    0    0  0.23378824540E+03 -0.26224397173E+03 -0.18774119556E+03  0.39834106104E+03  0.00000000000E+00 0.  1.
          2    1    6    6  502    0 -0.34961437465E+03  0.14124089113E+03 -0.30197462296E+03  0.48308164237E+03  0.00000000000E+00 0. -1.
          1    1    5    5  503    0  0.11107353539E+03  0.94168780397E+02  0.54313521591E+01  0.14572092867E+03  0.00000000000E+00 0. -1.
         -2    1    5    5    0  503  0.12924556554E+03  0.53618856961E+02 -0.59285597762E+02  0.15196769438E+03  0.00000000000E+00 0.  1.
         -1    1    6    6    0  502 -0.39415496495E+03  0.20572955228E+03 -0.26497779163E+03  0.51758672233E+03  0.00000000000E+00 0.  1.
<mgrwt>
<rscale>  0 0.18543600E+04</rscale>
<asrwt>0</asrwt>
<pdfrwt beam="1">  1        2 0.24973227E+00 0.18543600E+04</pdfrwt>
<pdfrwt beam="2">  1       -2 0.81475438E-01 0.18543600E+04</pdfrwt>
<totfact> 0.13493825E+01</totfact>
</mgrwt>
</event>
<event>
12    1  0.4612066E-007  0.1745637E+04  0.7818608E-02  0.8735755E-01
         -2   -1    0    0    0  501 -0.00000000000E+00  0.00000000000E+00  0.38071737919E+03  0.38071737919E+03  0.00000000000E+00 0.  1.
          2   -1    0    0  501    0  0.00000000000E+00 -0.00000000000E+00 -0.20009914537E+04  0.20009914537E+04  0.00000000000E+00 0. -1.
         23    2    1    2    0    0  0.69453812979E+02 -0.10572506652E+03  0.25055991233E+03  0.29544444418E+03  0.92225420028E+02 0.  0.
        254    2    1    2    0    0 -0.69453812979E+02  0.10572506652E+03 -0.18708339868E+04  0.20862643887E+04  0.91459153257E+03 0.  0.
        -24    2    4    4    0    0 -0.14835081316E+03  0.52819684036E+02  0.29389681675E+02  0.18193121267E+03  0.86239955743E+02 0.  0.
         24    2    4    4    0    0  0.78897000182E+02  0.52905382486E+02 -0.19002236685E+04  0.19043331760E+04  0.81308910030E+02 0.  0.
         13    1    3    3    0    0  0.64345658114E+02 -0.10022363585E+03  0.25843832791E+03  0.28456196203E+03  0.00000000000E+00 0.  1.
        -13    1    3    3    0    0  0.51081548653E+01 -0.55014306765E+01 -0.78784155811E+01  0.10882482147E+02  0.00000000000E+00 0. -1.
          4    1    6    6  502    0  0.55074054674E+02  0.73966517036E+02 -0.12990235257E+04  0.13022927157E+04  0.00000000000E+00 0. -1.
          1    1    5    5  503    0 -0.15898709063E+03  0.42243929583E+02  0.25881333283E+02  0.16652713889E+03  0.00000000000E+00 0. -1.
         -2    1    5    5    0  503  0.10636277468E+02  0.10575754453E+02  0.35083483923E+01  0.15404073781E+02  0.00000000000E+00 0.  1.
         -3    1    6    6    0  502  0.23822945508E+02 -0.21061134550E+02 -0.60120014282E+03  0.60204046031E+03  0.00000000000E+00 0.  1.
<mgrwt>
<rscale>  0 0.17456371E+04</rscale>
<asrwt>0</asrwt>
<pdfrwt beam="1">  1        2 0.30784483E+00 0.17456371E+04</pdfrwt>
<pdfrwt beam="2">  1       -2 0.58571906E-01 0.17456371E+04</pdfrwt>
<totfact> 0.17242024E+01</totfact>
</mgrwt>
</event>
<event>
12    1  0.4612066E-007  0.1303370E+04  0.7818608E-02  0.9026897E-01
          2   -1    0    0  501    0  0.00000000000E+00  0.00000000000E+00  0.26700243419E+04  0.26700243419E+04  0.00000000000E+00 0. -1.
         -2   -1    0    0    0  501 -0.00000000000E+00 -0.00000000000E+00 -0.15905965534E+03  0.15905965534E+03  0.00000000000E+00 0.  1.
         23    2    1    2    0    0  0.23766035226E+03 -0.16208502158E+03  0.11351807295E+04  0.11745758783E+04  0.90770083125E+02 0.  0.
        254    2    1    2    0    0 -0.23766035226E+03  0.16208502158E+03  0.13757839571E+04  0.16545081190E+04  0.87284684907E+03 0.  0.
        -24    2    4    4    0    0  0.86284495584E+02  0.12876957978E+03 -0.56400433829E+02  0.18363124796E+03  0.80701966738E+02 0.  0.
         24    2    4    4    0    0 -0.32394484784E+03  0.33315441800E+02  0.14321843909E+04  0.14708768710E+04  0.79224093700E+02 0.  0.
         13    1    3    3    0    0  0.19215369657E+03 -0.15737589654E+03  0.10359178122E+04  0.10652773956E+04  0.00000000000E+00 0. -1.
        -13    1    3    3    0    0  0.45506655682E+02 -0.47091250348E+01  0.99262917225E+02  0.10929848263E+03  0.00000000000E+00 0.  1.
          4    1    6    6  502    0 -0.22165320548E+03 -0.14496121209E+02  0.93145635702E+03  0.95757570252E+03  0.00000000000E+00 0. -1.
          1    1    5    5  503    0  0.44585073307E+02  0.92887885583E+02  0.24625418822E+01  0.10306334054E+03  0.00000000000E+00 0. -1.
         -2    1    5    5    0  503  0.41699422277E+02  0.35881694195E+02 -0.58862975711E+02  0.80567907420E+02  0.00000000000E+00 0.  1.
         -3    1    6    6    0  502 -0.10229164236E+03  0.47811563009E+02  0.50072803390E+03  0.51330116850E+03  0.00000000000E+00 0.  1.
<mgrwt>
<rscale>  0 0.13033697E+04</rscale>
<asrwt>0</asrwt>
<pdfrwt beam="1">  1        2 0.41077294E+00 0.13033697E+04</pdfrwt>
<pdfrwt beam="2">  1       -2 0.24470718E-01 0.13033697E+04</pdfrwt>
<totfact> 0.40706550E+01</totfact>
</mgrwt>
</event>
<event>
12    1  0.4612066E-007  0.1249944E+04  0.7818608E-02  0.9070230E-01
         -2   -1    0    0    0  501 -0.00000000000E+00  0.00000000000E+00  0.13188332779E+03  0.13188332779E+03  0.00000000000E+00 0.  1.
          2   -1    0    0  501    0  0.00000000000E+00 -0.00000000000E+00 -0.29616319613E+04  0.29616319613E+04  0.00000000000E+00 0. -1.
         23    2    1    2    0    0  0.11441871891E+03 -0.13879640660E+03 -0.11844194469E+03  0.23427388312E+03  0.92193667504E+02 0.  0.
        254    2    1    2    0    0 -0.11441871891E+03  0.13879640660E+03 -0.27113066889E+04  0.28592414060E+04  0.88978726166E+03 0.  0.
        -24    2    4    4    0    0 -0.40901975577E+03 -0.13997839587E+03 -0.90318417929E+03  0.10044354128E+04  0.79105782010E+02 0.  0.
         24    2    4    4    0    0  0.29460103686E+03  0.27877480247E+03 -0.18081225096E+04  0.18548059932E+04  0.80579783932E+02 0.  0.
         11    1    3    3    0    0  0.45687134309E+02 -0.36454905509E+02  0.64290716276E+01  0.58801422934E+02  0.00000000000E+00 0.  1.
        -11    1    3    3    0    0  0.68731584602E+02 -0.10234150109E+03 -0.12487101632E+03  0.17547246019E+03  0.00000000000E+00 0. -1.
          2    1    6    6  502    0  0.15036977688E+03  0.19026650630E+03 -0.11482863494E+04  0.11736157605E+04  0.00000000000E+00 0. -1.
          1    1    5    5  503    0 -0.56409325884E+02 -0.47511710274E+02 -0.12578663697E+03  0.14581376033E+03  0.00000000000E+00 0. -1.
         -2    1    5    5    0  503 -0.35261042988E+03 -0.92466685600E+02 -0.77739754232E+03  0.85862165243E+03  0.00000000000E+00 0.  1.
         -1    1    6    6    0  502  0.14423125998E+03  0.88508296169E+02 -0.65983616019E+03  0.68119023271E+03  0.00000000000E+00 0.  1.
<mgrwt>
<rscale>  0 0.12499438E+04</rscale>
<asrwt>0</asrwt>
<pdfrwt beam="1">  1        2 0.45563568E+00 0.12499438E+04</pdfrwt>
<pdfrwt beam="2">  1       -2 0.20289743E-01 0.12499438E+04</pdfrwt>
<totfact> 0.38175817E+01</totfact>
</mgrwt>
</event>
<event>
12    1  0.4612066E-007  0.1596508E+04  0.7818608E-02  0.8822696E-01
          1   -1    0    0  501    0  0.00000000000E+00  0.00000000000E+00  0.19288434173E+04  0.19288434173E+04  0.00000000000E+00 0. -1.
         -1   -1    0    0    0  501 -0.00000000000E+00 -0.00000000000E+00 -0.33035828030E+03  0.33035828030E+03  0.00000000000E+00 0.  1.
         23    2    1    2    0    0 -0.53621209458E+03 -0.79595841802E+02  0.63177938835E+03  0.83819181800E+03  0.97782512782E+02 0.  0.
        254    2    1    2    0    0  0.53621209458E+03  0.79595841802E+02  0.96670574869E+03  0.14210098796E+04  0.88932005773E+03 0.  0.
        -24    2    4    4    0    0 -0.49962640089E+01 -0.33974615662E+03  0.36736587448E+03  0.50666964895E+03  0.79397946135E+02 0.  0.
         24    2    4    4    0    0  0.54120835859E+03  0.41934199842E+03  0.59933987422E+03  0.91434023069E+03  0.89752847189E+02 0.  0.
         13    1    3    3    0    0 -0.37182293924E+03 -0.24793715361E+02  0.48121914550E+03  0.60863691349E+03  0.00000000000E+00 0. -1.
        -13    1    3    3    0    0 -0.16438915534E+03 -0.54802126441E+02  0.15056024285E+03  0.22955490451E+03  0.00000000000E+00 0.  1.
          4    1    6    6  502    0  0.34215098801E+03  0.26284002635E+03  0.31900802334E+03  0.53658018693E+03  0.00000000000E+00 0. -1.
          1    1    5    5  503    0  0.20875505273E+02 -0.23650324770E+03  0.21171854522E+03  0.31811053941E+03  0.00000000000E+00 0. -1.
         -2    1    5    5    0  503 -0.25871769282E+02 -0.10324290892E+03  0.15564732925E+03  0.18855910954E+03  0.00000000000E+00 0.  1.
         -3    1    6    6    0  502  0.19905737057E+03  0.15650197207E+03  0.28033185088E+03  0.37776004375E+03  0.00000000000E+00 0.  1.
<mgrwt>
<rscale>  0 0.15965079E+04</rscale>
<asrwt>0</asrwt>
<pdfrwt beam="1">  1        1 0.29674513E+00 0.15965079E+04</pdfrwt>
<pdfrwt beam="2">  1       -1 0.50824352E-01 0.15965079E+04</pdfrwt>
<totfact> 0.12440232E+01</totfact>
</mgrwt>
</event>
<event>
12    1  0.4612066E-007  0.1711979E+04  0.7818608E-02  0.8754562E-01
         -1   -1    0    0    0  501 -0.00000000000E+00  0.00000000000E+00  0.78433847863E+03  0.78433847863E+03  0.00000000000E+00 0.  1.
          1   -1    0    0  501    0  0.00000000000E+00 -0.00000000000E+00 -0.93418609917E+03  0.93418609917E+03  0.00000000000E+00 0. -1.
         23    2    1    2    0    0 -0.26189592535E+03  0.55796301589E+03 -0.74559718124E+02  0.62743894408E+03  0.90599526282E+02 0.  0.
        254    2    1    2    0    0  0.26189592535E+03 -0.55796301589E+03 -0.75287902412E+02  0.10910856337E+04  0.89715516443E+03 0.  0.
        -24    2    4    4    0    0  0.39448080933E+03 -0.64172673978E+03  0.18228140211E+03  0.77907182961E+03  0.79360498110E+02 0.  0.
         24    2    4    4    0    0 -0.13258488398E+03  0.83763723888E+02 -0.25756930452E+03  0.31201380412E+03  0.80097156178E+02 0.  0.
         13    1    3    3    0    0 -0.15543153046E+03  0.22553989120E+03 -0.35663132088E+02  0.27622284875E+03  0.00000000000E+00 0.  1.
        -13    1    3    3    0    0 -0.10646439489E+03  0.33242312469E+03 -0.38896586036E+02  0.35121609532E+03  0.00000000000E+00 0. -1.
          2    1    6    6  502    0 -0.12861623082E+03  0.80935843180E+02 -0.26359664267E+03  0.30426293821E+03  0.00000000000E+00 0. -1.
          3    1    5    5  503    0  0.37931050309E+03 -0.62106903573E+03  0.19031597283E+03  0.75221232003E+03  0.00000000000E+00 0. -1.
         -4    1    5    5    0  503  0.15170306239E+02 -0.20657704049E+02 -0.80345707211E+01  0.26859509575E+02  0.00000000000E+00 0.  1.
         -1    1    6    6    0  502 -0.39686531574E+01  0.28278807077E+01  0.60273381459E+01  0.77508659068E+01  0.00000000000E+00 0.  1.
<mgrwt>
<rscale>  0 0.17119791E+04</rscale>
<asrwt>0</asrwt>
<pdfrwt beam="1">  1        1 0.14372094E+00 0.17119791E+04</pdfrwt>
<pdfrwt beam="2">  1       -1 0.12066746E+00 0.17119791E+04</pdfrwt>
<totfact> 0.99106478E+00</totfact>
</mgrwt>
</event>
<event>
12    1  0.4612066E-007  0.1783161E+04  0.7818608E-02  0.8715306E-01
         -2   -1    0    0    0  501 -0.00000000000E+00  0.00000000000E+00  0.12531199999E+04  0.12531199999E+04  0.00000000000E+00 0.  1.
          2   -1    0    0  501    0  0.00000000000E+00 -0.00000000000E+00 -0.63434962476E+03  0.63434962476E+03  0.00000000000E+00 0. -1.
         23    2    1    2    0    0  0.50472850855E+03  0.25370536425E+03 -0.13360040770E+03  0.58789521849E+03  0.93029241592E+02 0.  0.
        254    2    1    2    0    0 -0.50472850855E+03 -0.25370536425E+03  0.75237078288E+03  0.12995744062E+04  0.89650129011E+03 0.  0.
        -24    2    4    4    0    0  0.14145681256E+03 -0.55376215591E+02 -0.10797051871E+03  0.20252222336E+03  0.79253157480E+02 0.  0.
         24    2    4    4    0    0 -0.64618532111E+03 -0.19832914866E+03  0.86034130159E+03  0.10970521829E+04  0.80289577592E+02 0.  0.
         11    1    3    3    0    0  0.25965529987E+03  0.10557112268E+03 -0.10801980946E+03  0.30039043914E+03  0.00000000000E+00 0. -1.
        -11    1    3    3    0    0  0.24507320868E+03  0.14813424157E+03 -0.25580598242E+02  0.28750477934E+03  0.00000000000E+00 0.  1.
          2    1    6    6  502    0 -0.36971212952E+03 -0.75993574690E+02  0.44929089867E+03  0.58679161014E+03  0.00000000000E+00 0. -1.
          3    1    5    5  503    0  0.67177247858E+02 -0.18784794370E+02 -0.43616313066E+01  0.69890449683E+02  0.00000000000E+00 0. -1.
         -4    1    5    5    0  503  0.74279564703E+02 -0.36591421221E+02 -0.10360888740E+03  0.13263177367E+03  0.00000000000E+00 0.  1.
         -1    1    6    6    0  502 -0.27647319158E+03 -0.12233557397E+03  0.41105040292E+03  0.51026057271E+03  0.00000000000E+00 0.  1.
<mgrwt>
<rscale>  0 0.17831615E+04</rscale>
<asrwt>0</asrwt>
<pdfrwt beam="1">  1        2 0.97592250E-01 0.17831615E+04</pdfrwt>
<pdfrwt beam="2">  1       -2 0.19278769E+00 0.17831615E+04</pdfrwt>
<totfact> 0.64984086E+00</totfact>
</mgrwt>
</event>
<event>
12    1  0.4612066E-007  0.1855965E+04  0.7818608E-02  0.8677091E-01
          2   -1    0    0  501    0  0.00000000000E+00  0.00000000000E+00  0.85302569625E+03  0.85302569625E+03  0.00000000000E+00 0.  1.
         -2   -1    0    0    0  501 -0.00000000000E+00 -0.00000000000E+00 -0.10095259044E+04  0.10095259044E+04  0.00000000000E+00 0. -1.
         23    2    1    2    0    0  0.41153205632E+03  0.11576181320E+03  0.50055572445E+03  0.66483365829E+03  0.93211207147E+02 0.  0.
        254    2    1    2    0    0 -0.41153205632E+03 -0.11576181320E+03 -0.65705593255E+03  0.11977179423E+04  0.90556410047E+03 0.  0.
        -24    2    4    4    0    0  0.20170164114E+03  0.20896540226E+03 -0.18109529025E+03  0.35146197252E+03  0.79874417650E+02 0.  0.
         24    2    4    4    0    0 -0.61323369746E+03 -0.32472721546E+03 -0.47596064230E+03  0.84625596979E+03  0.90040553248E+02 0.  0.
         11    1    3    3    0    0  0.35264513671E+03  0.10589738039E+03  0.37364538996E+03  0.52457956980E+03  0.00000000000E+00 0. -1.
        -11    1    3    3    0    0  0.58886919613E+02  0.98644328118E+01  0.12691033449E+03  0.14025408849E+03  0.00000000000E+00 0.  1.
          2    1    6    6  502    0 -0.40522076154E+03 -0.20199803412E+03 -0.35940621285E+03  0.57808295011E+03  0.00000000000E+00 0. -1.
          3    1    5    5  503    0  0.19692766272E+03  0.18330869397E+03 -0.18286774697E+03  0.32530477174E+03  0.00000000000E+00 0. -1.
         -4    1    5    5    0  503  0.47739784220E+01  0.25656708283E+02  0.17724567226E+01  0.26157200782E+02  0.00000000000E+00 0.  1.
         -1    1    6    6    0  502 -0.20801293592E+03 -0.12272918134E+03 -0.11655442946E+03  0.26817301968E+03  0.00000000000E+00 0.  1.
<mgrwt>
<rscale>  0 0.18559650E+04</rscale>
<asrwt>0</asrwt>
<pdfrwt beam="1">  1        2 0.13123472E+00 0.18559650E+04</pdfrwt>
<pdfrwt beam="2">  1       -2 0.15531168E+00 0.18559650E+04</pdfrwt>
<totfact> 0.81026256E+00</totfact>
</mgrwt>
</event>
<event>
12    1  0.4612066E-007  0.1694444E+04  0.7818608E-02  0.8764540E-01
         -1   -1    0    0    0  501 -0.00000000000E+00  0.00000000000E+00  0.55649371054E+03  0.55649371054E+03  0.00000000000E+00 0.  1.
          1   -1    0    0  501    0  0.00000000000E+00 -0.00000000000E+00 -0.12898344320E+04  0.12898344320E+04  0.00000000000E+00 0. -1.
         23    2    1    2    0    0  0.18988864944E+03 -0.57249447778E+03 -0.20516667114E+03  0.64412134143E+03  0.94822535639E+02 0.  0.
        254    2    1    2    0    0 -0.18988864944E+03  0.57249447778E+03 -0.52817405033E+03  0.12022068011E+04  0.89583800933E+03 0.  0.
        -24    2    4    4    0    0  0.21594939445E+03  0.47530029190E+03 -0.52881035031E+01  0.52836628595E+03  0.81230903247E+02 0.  0.
         24    2    4    4    0    0 -0.40583804389E+03  0.97194185878E+02 -0.52288594683E+03  0.67384051518E+03  0.80623190671E+02 0.  0.
         11    1    3    3    0    0  0.42552582915E+02 -0.41630241777E+02 -0.16376190773E+02  0.61741225833E+02  0.00000000000E+00 0. -1.
        -11    1    3    3    0    0  0.14733606652E+03 -0.53086423600E+03 -0.18879048037E+03  0.58238011560E+03  0.00000000000E+00 0.  1.
          4    1    6    6  502    0 -0.39132967895E+03  0.10831183767E+03 -0.50753697120E+03  0.64997242168E+03  0.00000000000E+00 0. -1.
          3    1    5    5  503    0  0.21587823934E+03  0.47808462333E+03 -0.77894496044E+01  0.52462271854E+03  0.00000000000E+00 0. -1.
         -4    1    5    5    0  503  0.71155102772E-01 -0.27843314307E+01  0.25013461013E+01  0.37435674007E+01  0.00000000000E+00 0.  1.
         -1    1    6    6    0  502 -0.14508364931E+02 -0.11117651797E+02 -0.15348975632E+02  0.23868093501E+02  0.00000000000E+00 0.  1.
<mgrwt>
<rscale>  0 0.16944436E+04</rscale>
<asrwt>0</asrwt>
<pdfrwt beam="1">  1        1 0.19843606E+00 0.16944436E+04</pdfrwt>
<pdfrwt beam="2">  1       -1 0.85614418E-01 0.16944436E+04</pdfrwt>
<totfact> 0.11804231E+01</totfact>
</mgrwt>
</event>
<event>
12    1  0.4612066E-007  0.1230832E+04  0.7818608E-02  0.9086289E-01
         -2   -1    0    0    0  501 -0.00000000000E+00  0.00000000000E+00  0.14350434080E+03  0.14350434080E+03  0.00000000000E+00 0.  1.
          2   -1    0    0  501    0  0.00000000000E+00 -0.00000000000E+00 -0.26392028974E+04  0.26392028974E+04  0.00000000000E+00 0. -1.
         23    2    1    2    0    0 -0.25714478350E+03  0.33029103657E+00 -0.81836741232E+03  0.86273323046E+03  0.91977478905E+02 0.  0.
        254    2    1    2    0    0  0.25714478350E+03 -0.33029103657E+00 -0.16773311442E+04  0.19199740077E+04  0.89818532274E+03 0.  0.
        -24    2    4    4    0    0  0.21321618623E+03 -0.12272639237E+03 -0.17364651356E+04  0.17557329581E+04  0.82244413148E+02 0.  0.
         24    2    4    4    0    0  0.43928597268E+02  0.12239610133E+03  0.59133991337E+02  0.16424104963E+03  0.81041755733E+02 0.  0.
         13    1    3    3    0    0 -0.13518691906E+03 -0.22096197290E+02 -0.30084885821E+03  0.33056584897E+03  0.00000000000E+00 0.  1.
        -13    1    3    3    0    0 -0.12195786444E+03  0.22426488327E+02 -0.51751855410E+03  0.53216738149E+03  0.00000000000E+00 0. -1.
          4    1    6    6  502    0  0.42153581381E+01  0.36371274882E+02  0.59063302642E+02  0.69491816783E+02  0.00000000000E+00 0. -1.
          3    1    5    5  503    0  0.96768388051E+02 -0.30760385232E+02 -0.48594997435E+03  0.49644506221E+03  0.00000000000E+00 0. -1.
         -4    1    5    5    0  503  0.11644779818E+03 -0.91966007134E+02 -0.12505151612E+04  0.12592878958E+04  0.00000000000E+00 0.  1.
         -3    1    6    6    0  502  0.39713239130E+02  0.86024826448E+02  0.70688694652E-01  0.94749232844E+02  0.00000000000E+00 0.  1.
<mgrwt>
<rscale>  0 0.12308324E+04</rscale>
<asrwt>0</asrwt>
<pdfrwt beam="1">  1        2 0.40603122E+00 0.12308324E+04</pdfrwt>
<pdfrwt beam="2">  1       -2 0.22077590E-01 0.12308324E+04</pdfrwt>
<totfact> 0.51377341E+01</totfact>
</mgrwt>
</event>
<event>
12    1  0.4612066E-007  0.1818650E+04  0.7818608E-02  0.8696444E-01
          1   -1    0    0  501    0  0.00000000000E+00  0.00000000000E+00  0.57026857724E+03  0.57026857724E+03  0.00000000000E+00 0. -1.
         -1   -1    0    0    0  501 -0.00000000000E+00 -0.00000000000E+00 -0.14499692723E+04  0.14499692723E+04  0.00000000000E+00 0.  1.
         23    2    1    2    0    0 -0.66296507019E+03 -0.17772203564E+03 -0.37721965109E+03  0.78898305703E+03  0.95350893417E+02 0.  0.
        254    2    1    2    0    0  0.66296507019E+03  0.17772203564E+03 -0.50248104397E+03  0.12312547925E+04  0.89016479278E+03 0.  0.
        -24    2    4    4    0    0  0.78618056996E+03  0.39167152137E+02 -0.12217483276E+03  0.80052082069E+03  0.79328054357E+02 0.  0.
         24    2    4    4    0    0 -0.12321549977E+03  0.13855488350E+03 -0.38030621121E+03  0.43073397183E+03  0.80742956802E+02 0.  0.
         13    1    3    3    0    0 -0.58452635952E+03 -0.12314982761E+03 -0.32187723476E+03  0.67855869258E+03  0.00000000000E+00 0.  1.
        -13    1    3    3    0    0 -0.78438710662E+02 -0.54572208026E+02 -0.55342416332E+02  0.11042436445E+03  0.00000000000E+00 0. -1.
          2    1    6    6  502    0  0.64604132534E+01  0.25330452652E+02 -0.26259744099E+02  0.37053244542E+02  0.00000000000E+00 0. -1.
          3    1    5    5  503    0  0.64744685040E+03  0.10277461384E+02 -0.78707148047E+02  0.65229430893E+03  0.00000000000E+00 0. -1.
         -4    1    5    5    0  503  0.13873371956E+03  0.28889690752E+02 -0.43467684715E+02  0.14822651176E+03  0.00000000000E+00 0.  1.
         -1    1    6    6    0  502 -0.12967591303E+03  0.11322443085E+03 -0.35404646711E+03  0.39368072728E+03  0.00000000000E+00 0.  1.
<mgrwt>
<rscale>  0 0.18186500E+04</rscale>
<asrwt>0</asrwt>
<pdfrwt beam="1">  1        1 0.87733627E-01 0.18186500E+04</pdfrwt>
<pdfrwt beam="2">  1       -1 0.22307220E+00 0.18186500E+04</pdfrwt>
<totfact> 0.36429948E+00</totfact>
</mgrwt>
</event>
<event>
12    1  0.4612066E-007  0.1852616E+04  0.7818608E-02  0.8678808E-01
          1   -1    0    0  501    0  0.00000000000E+00  0.00000000000E+00  0.15146758632E+04  0.15146758632E+04  0.00000000000E+00 0. -1.
         -1   -1    0    0    0  501 -0.00000000000E+00 -0.00000000000E+00 -0.56648881547E+03  0.56648881547E+03  0.00000000000E+00 0.  1.
         23    2    1    2    0    0 -0.60686497349E+02 -0.70295241950E+03  0.40352033278E+03  0.81773034016E+03  0.89606334695E+02 0.  0.
        254    2    1    2    0    0  0.60686497349E+02  0.70295241950E+03  0.54466671491E+03  0.12634343385E+04  0.89542143277E+03 0.  0.
        -24    2    4    4    0    0  0.31696970079E+03  0.25386606477E+03 -0.10725747574E+03  0.42758973313E+03  0.80068993467E+02 0.  0.
         24    2    4    4    0    0 -0.25628320344E+03  0.44908635473E+03  0.65192419065E+03  0.83584460534E+03  0.79192294840E+02 0.  0.
         11    1    3    3    0    0 -0.81894222993E+02 -0.46613920004E+03  0.27758587167E+03  0.54867689374E+03  0.00000000000E+00 0. -1.
        -11    1    3    3    0    0  0.21207725644E+02 -0.23681321946E+03  0.12593446112E+03  0.26905344642E+03  0.00000000000E+00 0.  1.
          4    1    6    6  502    0 -0.38209445981E+02  0.75750288717E+02  0.65086395478E+02  0.10693131851E+03  0.00000000000E+00 0. -1.
          3    1    5    5  503    0  0.13762707046E+01  0.22535489556E+02 -0.44329290136E+01  0.23008547764E+02  0.00000000000E+00 0. -1.
         -4    1    5    5    0  503  0.31559343008E+03  0.23133057521E+03 -0.10282454673E+03  0.40458118536E+03  0.00000000000E+00 0.  1.
         -3    1    6    6    0  502 -0.21807375746E+03  0.37333606601E+03  0.58683779517E+03  0.72891328683E+03  0.00000000000E+00 0.  1.
<mgrwt>
<rscale>  0 0.18526165E+04</rscale>
<asrwt>0</asrwt>
<pdfrwt beam="1">  1        1 0.23302705E+00 0.18526165E+04</pdfrwt>
<pdfrwt beam="2">  1       -1 0.87152126E-01 0.18526165E+04</pdfrwt>
<totfact> 0.77820273E+00</totfact>
</mgrwt>
</event>
<event>
12    1  0.4612066E-007  0.1190824E+04  0.7818608E-02  0.9120926E-01
         -2   -1    0    0    0  501 -0.00000000000E+00  0.00000000000E+00  0.39703110094E+03  0.39703110094E+03  0.00000000000E+00 0.  1.
          2   -1    0    0  501    0  0.00000000000E+00 -0.00000000000E+00 -0.89291654844E+03  0.89291654844E+03  0.00000000000E+00 0. -1.
         23    2    1    2    0    0 -0.23751576196E+02 -0.23608981947E+03 -0.13759568033E+03  0.28852509396E+03  0.89507644205E+02 0.  0.
        254    2    1    2    0    0  0.23751576196E+02  0.23608981947E+03 -0.35828976716E+03  0.10014225554E+04  0.90452917974E+03 0.  0.
        -24    2    4    4    0    0 -0.85583222721E+02 -0.11633071303E+03 -0.55263462409E+03  0.57680693049E+03  0.80273809672E+02 0.  0.
         24    2    4    4    0    0  0.10933479892E+03  0.35242053250E+03  0.19434485692E+03  0.42461562492E+03  0.79838433918E+02 0.  0.
         13    1    3    3    0    0 -0.11060607615E+02 -0.25872763265E+02  0.11597594296E+02  0.30434209588E+02  0.00000000000E+00 0.  1.
        -13    1    3    3    0    0 -0.12690968580E+02 -0.21021705620E+03 -0.14919327463E+03  0.25809088437E+03  0.00000000000E+00 0. -1.
          2    1    6    6  502    0  0.82692481421E+02  0.23159043627E+03  0.87118671327E+02  0.26088664119E+03  0.00000000000E+00 0. -1.
          1    1    5    5  503    0 -0.55443867964E+02 -0.12075694477E+03 -0.41148056219E+03  0.43240318600E+03  0.00000000000E+00 0. -1.
         -2    1    5    5    0  503 -0.30139354758E+02  0.44262317410E+01 -0.14115406190E+03  0.14440374449E+03  0.00000000000E+00 0.  1.
         -1    1    6    6    0  502  0.26642317496E+02  0.12083009623E+03  0.10722618560E+03  0.16372898373E+03  0.00000000000E+00 0.  1.
<mgrwt>
<rscale>  0 0.11908243E+04</rscale>
<asrwt>0</asrwt>
<pdfrwt beam="1">  1        2 0.13737178E+00 0.11908243E+04</pdfrwt>
<pdfrwt beam="2">  1       -2 0.61081708E-01 0.11908243E+04</pdfrwt>
<totfact> 0.73012163E+01</totfact>
</mgrwt>
</event>
<event>
12    1  0.4612066E-007  0.1890177E+04  0.7818608E-02  0.8659761E-01
          2   -1    0    0  501    0  0.00000000000E+00  0.00000000000E+00  0.28236730164E+04  0.28236730164E+04  0.00000000000E+00 0. -1.
         -2   -1    0    0    0  501 -0.00000000000E+00 -0.00000000000E+00 -0.31632286015E+03  0.31632286015E+03  0.00000000000E+00 0.  1.
         23    2    1    2    0    0 -0.36963557015E+03 -0.14329978517E+03 -0.41622055598E+02  0.40894793829E+03  0.91327638601E+02 0.  0.
        254    2    1    2    0    0  0.36963557015E+03  0.14329978517E+03  0.25489722118E+04  0.27310479382E+04  0.89677099705E+03 0.  0.
        -24    2    4    4    0    0  0.21548045797E+03 -0.36318912196E+03  0.89588286066E+03  0.99341830228E+03  0.77043216554E+02 0.  0.
         24    2    4    4    0    0  0.15415511218E+03  0.50648890712E+03  0.16530893512E+04  0.17376296359E+04  0.79734165555E+02 0.  0.
         11    1    3    3    0    0 -0.29720236488E+03 -0.85845939606E+02 -0.46794882513E+01  0.30938757029E+03  0.00000000000E+00 0. -1.
        -11    1    3    3    0    0 -0.72433205271E+02 -0.57453845561E+02 -0.36942567347E+02  0.99560368007E+02  0.00000000000E+00 0.  1.
          2    1    6    6  502    0  0.89292030887E+02  0.16772870166E+03  0.55280419676E+03  0.58454979608E+03  0.00000000000E+00 0. -1.
          1    1    5    5  503    0  0.47128020041E+02 -0.29729799413E+02  0.11524118451E+03  0.12800563212E+03  0.00000000000E+00 0. -1.
         -4    1    5    5    0  503  0.16835243793E+03 -0.33345932254E+03  0.78064167615E+03  0.86541267017E+03  0.00000000000E+00 0.  1.
         -3    1    6    6    0  502  0.64863081297E+02  0.33876020546E+03  0.11002851544E+04  0.11530798399E+04  0.00000000000E+00 0.  1.
<mgrwt>
<rscale>  0 0.18901771E+04</rscale>
<asrwt>0</asrwt>
<pdfrwt beam="1">  1        2 0.43441122E+00 0.18901771E+04</pdfrwt>
<pdfrwt beam="2">  1       -2 0.48665057E-01 0.18901771E+04</pdfrwt>
<totfact> 0.84033361E+00</totfact>
</mgrwt>
</event>
<event>
12    1  0.4612066E-007  0.2326476E+04  0.7818608E-02  0.8467554E-01
         -1   -1    0    0    0  501 -0.00000000000E+00  0.00000000000E+00  0.39664572912E+03  0.39664572912E+03  0.00000000000E+00 0.  1.
          1   -1    0    0  501    0  0.00000000000E+00 -0.00000000000E+00 -0.34114144317E+04  0.34114144317E+04  0.00000000000E+00 0. -1.
         23    2    1    2    0    0  0.18627697550E+02 -0.41492115176E+03 -0.26884869927E+04  0.27211887212E+04  0.66326411038E+02 0.  0.
        254    2    1    2    0    0 -0.18627697550E+02  0.41492115176E+03 -0.32628170981E+03  0.10868714396E+04  0.94990695271E+03 0.  0.
        -24    2    4    4    0    0  0.95912530035E+02  0.65026395700E+03 -0.43479339413E+03  0.79188715280E+03  0.77443786129E+02 0.  0.
         24    2    4    4    0    0 -0.11454022758E+03 -0.23534280523E+03  0.10851168432E+03  0.29498428682E+03  0.82068533099E+02 0.  0.
         13    1    3    3    0    0  0.42833124083E+02 -0.22187640088E+03 -0.14194871406E+04  0.14373613172E+04  0.00000000000E+00 0. -1.
        -13    1    3    3    0    0 -0.24205426533E+02 -0.19304475089E+03 -0.12689998521E+04  0.12838274039E+04  0.00000000000E+00 0.  1.
          4    1    6    6  502    0 -0.11632914970E+03 -0.23609216400E+03  0.11572561710E+03  0.28751417256E+03  0.00000000000E+00 0. -1.
          1    1    5    5  503    0  0.66119087517E+02  0.43439126578E+03 -0.33323828198E+03  0.55146646144E+03  0.00000000000E+00 0. -1.
         -2    1    5    5    0  503  0.29793442517E+02  0.21587269122E+03 -0.10155511215E+03  0.24042069136E+03  0.00000000000E+00 0.  1.
         -3    1    6    6    0  502  0.17889221175E+01  0.74935876320E+00 -0.72139327766E+01  0.74701142564E+01  0.00000000000E+00 0.  1.
<mgrwt>
<rscale>  0 0.23264763E+04</rscale>
<asrwt>0</asrwt>
<pdfrwt beam="1">  1        1 0.52483301E+00 0.23264763E+04</pdfrwt>
<pdfrwt beam="2">  1       -1 0.61022418E-01 0.23264763E+04</pdfrwt>
<totfact> 0.72118094E-01</totfact>
</mgrwt>
</event>
<event>
12    1  0.4612066E-007  0.2423164E+04  0.7818608E-02  0.8430882E-01
         -2   -1    0    0    0  501 -0.00000000000E+00  0.00000000000E+00  0.69466328374E+03  0.69466328374E+03  0.00000000000E+00 0.  1.
          2   -1    0    0  501    0  0.00000000000E+00 -0.00000000000E+00 -0.21131547003E+04  0.21131547003E+04  0.00000000000E+00 0. -1.
         23    2    1    2    0    0 -0.28752825775E+03 -0.24761465392E+03 -0.17365002820E+04  0.17799892575E+04  0.94567498126E+02 0.  0.
        254    2    1    2    0    0  0.28752825775E+03  0.24761465392E+03  0.31800886550E+03  0.10278287264E+04  0.90073122325E+03 0.  0.
        -24    2    4    4    0    0 -0.52042004228E+02 -0.14091207451E+03  0.45676063936E+03  0.48755193174E+03  0.80697097415E+02 0.  0.
         24    2    4    4    0    0  0.33957026198E+03  0.38852672843E+03 -0.13875177386E+03  0.54027679470E+03  0.79912318358E+02 0.  0.
         11    1    3    3    0    0 -0.25846055955E+03 -0.17343974204E+03 -0.13635682174E+04  0.13986427308E+04  0.00000000000E+00 0. -1.
        -11    1    3    3    0    0 -0.29067698199E+02 -0.74174911878E+02 -0.37293206466E+03  0.38134652678E+03  0.00000000000E+00 0.  1.
          2    1    6    6  502    0  0.26955832154E+03  0.34348823239E+03 -0.13468137303E+03  0.45692989259E+03  0.00000000000E+00 0. -1.
          3    1    5    5  503    0 -0.56284947380E+02 -0.11276488400E+03  0.43138381350E+03  0.44941729931E+03  0.00000000000E+00 0. -1.
         -4    1    5    5    0  503  0.42429431514E+01 -0.28147190516E+02  0.25376825859E+02  0.38134632438E+02  0.00000000000E+00 0.  1.
         -1    1    6    6    0  502  0.70011940434E+02  0.45038496036E+02 -0.40704008288E+01  0.83346902111E+02  0.00000000000E+00 0.  1.
<mgrwt>
<rscale>  0 0.24231640E+04</rscale>
<asrwt>0</asrwt>
<pdfrwt beam="1">  1        2 0.32510072E+00 0.24231640E+04</pdfrwt>
<pdfrwt beam="2">  1       -2 0.10687128E+00 0.24231640E+04</pdfrwt>
<totfact> 0.36525185E+00</totfact>
</mgrwt>
</event>
<event>
12    1  0.4612066E-007  0.2235676E+04  0.7818608E-02  0.8503724E-01
         -1   -1    0    0    0  501 -0.00000000000E+00  0.00000000000E+00  0.15543727969E+04  0.15543727969E+04  0.00000000000E+00 0.  1.
          1   -1    0    0  501    0  0.00000000000E+00 -0.00000000000E+00 -0.80390122991E+03  0.80390122991E+03  0.00000000000E+00 0. -1.
         23    2    1    2    0    0 -0.34537237745E+03 -0.17591648982E+03 -0.58242850774E+03  0.70594226427E+03  0.94354773869E+02 0.  0.
        254    2    1    2    0    0  0.34537237745E+03  0.17591648982E+03  0.13329000747E+04  0.16523317626E+04  0.89629735791E+03 0.  0.
        -24    2    4    4    0    0  0.60623034820E+03  0.28904357069E+03  0.85005289160E+03  0.10863282295E+04  0.80359708633E+02 0.  0.
         24    2    4    4    0    0 -0.26085797075E+03 -0.11312708088E+03  0.48284718315E+03  0.56600353309E+03  0.79837208544E+02 0.  0.
         13    1    3    3    0    0 -0.34697485408E+03 -0.17189902543E+03 -0.54663591457E+03  0.66988927996E+03  0.00000000000E+00 0. -1.
        -13    1    3    3    0    0  0.16024766285E+01 -0.40174643860E+01 -0.35792593173E+02  0.36052984308E+02  0.00000000000E+00 0.  1.
          4    1    6    6  502    0 -0.61489552511E+02 -0.57060739821E+02  0.18610765737E+03  0.20413954352E+03  0.00000000000E+00 0. -1.
          3    1    5    5  503    0  0.33223970275E+02  0.36948060161E+02  0.76220438705E+02  0.90986518929E+02  0.00000000000E+00 0. -1.
         -4    1    5    5    0  503  0.57300637792E+03  0.25209551053E+03  0.77383245289E+03  0.99534171053E+03  0.00000000000E+00 0.  1.
         -3    1    6    6    0  502 -0.19936841824E+03 -0.56066341054E+02  0.29673952578E+03  0.36186398957E+03  0.00000000000E+00 0.  1.
<mgrwt>
<rscale>  0 0.22356764E+04</rscale>
<asrwt>0</asrwt>
<pdfrwt beam="1">  1        1 0.12367711E+00 0.22356764E+04</pdfrwt>
<pdfrwt beam="2">  1       -1 0.23913428E+00 0.22356764E+04</pdfrwt>
<totfact> 0.16377107E+00</totfact>
</mgrwt>
</event>
<event>
12    1  0.4612066E-007  0.1280816E+04  0.7818608E-02  0.9044918E-01
         -2   -1    0    0    0  501 -0.00000000000E+00  0.00000000000E+00  0.20673861817E+03  0.20673861817E+03  0.00000000000E+00 0.  1.
          2   -1    0    0  501    0  0.00000000000E+00 -0.00000000000E+00 -0.19837712032E+04  0.19837712032E+04  0.00000000000E+00 0. -1.
         23    2    1    2    0    0  0.30667652715E+03 -0.53511737191E+02 -0.36120877884E+03  0.48485326930E+03  0.87732049553E+02 0.  0.
        254    2    1    2    0    0 -0.30667652715E+03  0.53511737191E+02 -0.14158238061E+04  0.17056565520E+04  0.89877317778E+03 0.  0.
        -24    2    4    4    0    0 -0.48154510795E+03 -0.14315968957E+03 -0.38278602606E+03  0.63682652683E+03  0.81501508104E+02 0.  0.
         24    2    4    4    0    0  0.17486858079E+03  0.19667142676E+03 -0.10330377801E+04  0.10688300252E+04  0.77278050063E+02 0.  0.
         11    1    3    3    0    0  0.23927254419E+03 -0.68381409406E+02 -0.31649234527E+03  0.40260995042E+03  0.00000000000E+00 0. -1.
        -11    1    3    3    0    0  0.67403982960E+02  0.14869672214E+02 -0.44716433564E+02  0.82243318886E+02  0.00000000000E+00 0.  1.
          4    1    6    6  502    0  0.13838133017E+02 -0.14721006308E+01 -0.11865835481E+03  0.11947161241E+03  0.00000000000E+00 0. -1.
          3    1    5    5  503    0 -0.61839561896E+02 -0.58601716471E+00 -0.23191311854E+02  0.66047799184E+02  0.00000000000E+00 0. -1.
         -4    1    5    5    0  503 -0.41970554605E+03 -0.14257367240E+03 -0.35959471420E+03  0.57077872764E+03  0.00000000000E+00 0.  1.
         -3    1    6    6    0  502  0.16103044778E+03  0.19814352739E+03 -0.91437942528E+03  0.94935841279E+03  0.00000000000E+00 0.  1.
<mgrwt>
<rscale>  0 0.12808155E+04</rscale>
<asrwt>0</asrwt>
<pdfrwt beam="1">  1        2 0.30519555E+00 0.12808155E+04</pdfrwt>
<pdfrwt beam="2">  1       -2 0.31805943E-01 0.12808155E+04</pdfrwt>
<totfact> 0.61574402E+01</totfact>
</mgrwt>
</event>
<event>
12    1  0.4612066E-007  0.2826891E+04  0.7818608E-02  0.8294968E-01
          1   -1    0    0  501    0  0.00000000000E+00  0.00000000000E+00  0.23719101576E+04  0.23719101576E+04  0.00000000000E+00 0. -1.
         -1   -1    0    0    0  501 -0.00000000000E+00 -0.00000000000E+00 -0.84228669542E+03  0.84228669542E+03  0.00000000000E+00 0.  1.
         23    2    1    2    0    0  0.10486791137E+04  0.65008673561E+03  0.35853128603E+03  0.12880011907E+04  0.89787174996E+02 0.  0.
        254    2    1    2    0    0 -0.10486791137E+04 -0.65008673561E+03  0.11710921761E+04  0.19261956623E+04  0.90356637684E+03 0.  0.
        -24    2    4    4    0    0 -0.69865816933E+03 -0.13383727402E+03  0.10727629215E+04  0.12897024187E+04  0.80476018924E+02 0.  0.
         24    2    4    4    0    0 -0.35002094435E+03 -0.51624946159E+03  0.98329254651E+02  0.63649324365E+03  0.80167567061E+02 0.  0.
         11    1    3    3    0    0  0.10446902011E+04  0.63738682622E+03  0.35444240464E+03  0.12740757437E+04  0.00000000000E+00 0. -1.
        -11    1    3    3    0    0  0.39889126124E+01  0.12699909391E+02  0.40888813872E+01  0.13925446972E+02  0.00000000000E+00 0.  1.
          4    1    6    6  502    0 -0.29270425654E+03 -0.44640249615E+03  0.11108408951E+03  0.54524365682E+03  0.00000000000E+00 0. -1.
          3    1    5    5  503    0 -0.42635184865E+03 -0.44448048441E+02  0.61612709939E+03  0.75057586590E+03  0.00000000000E+00 0. -1.
         -4    1    5    5    0  503 -0.27230632068E+03 -0.89389225576E+02  0.45663582207E+03  0.53912655279E+03  0.00000000000E+00 0.  1.
         -3    1    6    6    0  502 -0.57316687805E+02 -0.69846965446E+02 -0.12754834856E+02  0.91249586822E+02  0.00000000000E+00 0.  1.
<mgrwt>
<rscale>  0 0.28268911E+04</rscale>
<asrwt>0</asrwt>
<pdfrwt beam="1">  1        1 0.36490925E+00 0.28268911E+04</pdfrwt>
<pdfrwt beam="2">  1       -1 0.12958257E+00 0.28268911E+04</pdfrwt>
<totfact> 0.73330682E-01</totfact>
</mgrwt>
</event>
<event>
12    1  0.4612066E-007  0.3125218E+04  0.7818608E-02  0.8208851E-01
          1   -1    0    0  501    0  0.00000000000E+00  0.00000000000E+00  0.12551055258E+04  0.12551055258E+04  0.00000000000E+00 0. -1.
         -1   -1    0    0    0  501 -0.00000000000E+00 -0.00000000000E+00 -0.19454509309E+04  0.19454509309E+04  0.00000000000E+00 0.  1.
         23    2    1    2    0    0  0.91479640948E+03 -0.63585497292E+03  0.59590155679E+03  0.12667160649E+04  0.91142231394E+02 0.  0.
        254    2    1    2    0    0 -0.91479640948E+03  0.63585497292E+03 -0.12862469619E+04  0.19338403918E+04  0.91877276642E+03 0.  0.
        -24    2    4    4    0    0 -0.10128418164E+03 -0.21764576161E+03 -0.31664581761E+03  0.40523856247E+03  0.79533362178E+02 0.  0.
         24    2    4    4    0    0 -0.81351222784E+03  0.85350073453E+03 -0.96960114432E+03  0.15286018293E+04  0.78940007235E+02 0.  0.
         13    1    3    3    0    0  0.47830459171E+03 -0.36943047663E+03  0.28441675007E+03  0.66794239814E+03  0.00000000000E+00 0.  1.
        -13    1    3    3    0    0  0.43649181776E+03 -0.26642449628E+03  0.31148480672E+03  0.59877366677E+03  0.00000000000E+00 0. -1.
          4    1    6    6  502    0 -0.72024402652E+03  0.74903769331E+03 -0.82025330450E+03  0.13238672166E+04  0.00000000000E+00 0. -1.
          1    1    5    5  503    0 -0.13856668091E+02 -0.10086235917E+03 -0.91054301797E+02  0.13658736627E+03  0.00000000000E+00 0. -1.
         -2    1    5    5    0  503 -0.87427513551E+02 -0.11678340245E+03 -0.22559151582E+03  0.26865119620E+03  0.00000000000E+00 0.  1.
         -1    1    6    6    0  502 -0.93268201315E+02  0.10446304122E+03 -0.14934783982E+03  0.20473461265E+03  0.00000000000E+00 0.  1.
<mgrwt>
<rscale>  0 0.31252176E+04</rscale>
<asrwt>0</asrwt>
<pdfrwt beam="1">  1        1 0.19309316E+00 0.31252176E+04</pdfrwt>
<pdfrwt beam="2">  1       -1 0.29930014E+00 0.31252176E+04</pdfrwt>
<totfact> 0.27375378E-01</totfact>
</mgrwt>
</event>
<event>
12    1  0.4612066E-007  0.1834582E+04  0.7818608E-02  0.8688122E-01
          1   -1    0    0  501    0  0.00000000000E+00  0.00000000000E+00  0.84746424833E+03  0.84746424833E+03  0.00000000000E+00 0. -1.
         -1   -1    0    0    0  501 -0.00000000000E+00 -0.00000000000E+00 -0.99287080342E+03  0.99287080342E+03  0.00000000000E+00 0.  1.
         23    2    1    2    0    0  0.10785266441E+03  0.39596959230E+03 -0.60565528379E+03  0.73908474633E+03  0.10489911449E+03 0.  0.
        254    2    1    2    0    0 -0.10785266441E+03 -0.39596959230E+03  0.46024872871E+03  0.11012503054E+04  0.91241395630E+03 0.  0.
        -24    2    4    4    0    0  0.10229168170E+03 -0.72295569276E+02 -0.24894753692E+03  0.28992825744E+03  0.79957994232E+02 0.  0.
         24    2    4    4    0    0 -0.21014434611E+03 -0.32367402302E+03  0.70919626563E+03  0.81132204798E+03  0.79740848851E+02 0.  0.
         11    1    3    3    0    0  0.42990342749E+02  0.29697272761E+03 -0.37916862524E+03  0.48353884733E+03  0.00000000000E+00 0.  1.
        -11    1    3    3    0    0  0.64862321663E+02  0.98996864685E+02 -0.22648665855E+03  0.25554589899E+03  0.00000000000E+00 0. -1.
          2    1    6    6  502    0 -0.20833424045E+03 -0.32796151947E+03  0.70535641695E+03  0.80528851285E+03  0.00000000000E+00 0. -1.
          1    1    5    5  503    0  0.94110988418E+02 -0.20769976862E+02 -0.15759927586E+03  0.18473170230E+03  0.00000000000E+00 0. -1.
         -2    1    5    5    0  503  0.81806932783E+01 -0.51525592414E+02 -0.91348261056E+02  0.10519655514E+03  0.00000000000E+00 0.  1.
         -1    1    6    6    0  502 -0.18101056579E+01  0.42874964457E+01  0.38398486719E+01  0.60335351236E+01  0.00000000000E+00 0.  1.
<mgrwt>
<rscale>  0 0.18345817E+04</rscale>
<asrwt>0</asrwt>
<pdfrwt beam="1">  1        1 0.13037912E+00 0.18345817E+04</pdfrwt>
<pdfrwt beam="2">  1       -1 0.15274935E+00 0.18345817E+04</pdfrwt>
<totfact> 0.62897586E+00</totfact>
</mgrwt>
</event>
<event>
12    1  0.4612066E-007  0.3162011E+04  0.7818608E-02  0.8198923E-01
         -1   -1    0    0    0  501 -0.00000000000E+00  0.00000000000E+00  0.11504545971E+04  0.11504545971E+04  0.00000000000E+00 0.  1.
          1   -1    0    0  501    0  0.00000000000E+00 -0.00000000000E+00 -0.21726879331E+04  0.21726879331E+04  0.00000000000E+00 0. -1.
         23    2    1    2    0    0  0.28579086475E+03  0.13899421575E+04 -0.79567978490E+03  0.16294266669E+04  0.91155488242E+02 0.  0.
        254    2    1    2    0    0 -0.28579086475E+03 -0.13899421575E+04 -0.22655355112E+03  0.16937158632E+04  0.89651062132E+03 0.  0.
        -24    2    4    4    0    0 -0.22545893016E+03 -0.10142448565E+04 -0.55890606866E+03  0.11824706562E+04  0.79602141950E+02 0.  0.
         24    2    4    4    0    0 -0.60331934597E+02 -0.37569730106E+03  0.33235251754E+03  0.51124520707E+03  0.78262772007E+02 0.  0.
         13    1    3    3    0    0  0.21762774192E+03  0.83761101769E+03 -0.48542446229E+03  0.99226556909E+03  0.00000000000E+00 0.  1.
        -13    1    3    3    0    0  0.68163122837E+02  0.55233113986E+03 -0.31025532261E+03  0.63716109782E+03  0.00000000000E+00 0. -1.
          4    1    6    6  502    0  0.20392286648E+00 -0.20462187202E+03  0.20424339910E+03  0.28911160158E+03  0.00000000000E+00 0. -1.
          1    1    5    5  503    0 -0.11632163192E+03 -0.69192807303E+03 -0.38463408744E+03  0.80014908706E+03  0.00000000000E+00 0. -1.
         -2    1    5    5    0  503 -0.10913729823E+03 -0.32231678346E+03 -0.17427198122E+03  0.38232156911E+03  0.00000000000E+00 0.  1.
         -3    1    6    6    0  502 -0.60535857464E+02 -0.17107542904E+03  0.12810911844E+03  0.22213360549E+03  0.00000000000E+00 0.  1.
<mgrwt>
<rscale>  0 0.31620113E+04</rscale>
<asrwt>0</asrwt>
<pdfrwt beam="1">  1        1 0.33425968E+00 0.31620113E+04</pdfrwt>
<pdfrwt beam="2">  1       -1 0.17699302E+00 0.31620113E+04</pdfrwt>
<totfact> 0.41755289E-01</totfact>
</mgrwt>
</event>
<event>
12    1  0.8707392E-007  0.1824169E+04  0.7818608E-02  0.8693551E-01
          1   -1    0    0  501    0  0.00000000000E+00  0.00000000000E+00  0.94058846536E+03  0.94058846536E+03  0.00000000000E+00 0. -1.
         -1   -1    0    0    0  501 -0.00000000000E+00 -0.00000000000E+00 -0.88444457646E+03  0.88444457646E+03  0.00000000000E+00 0.  1.
         23    2    1    2    0    0 -0.55093615279E+02 -0.62324131256E+03  0.30419407856E+03  0.70281909408E+03  0.99777760307E+02 0.  0.
        254    2    1    2    0    0  0.55093615279E+02  0.62324131256E+03 -0.24805018966E+03  0.11222139477E+04  0.89798118453E+03 0.  0.
        -24    2    4    4    0    0  0.24520407202E+02  0.61594969456E+03  0.21006566892E+03  0.65635342076E+03  0.81712612821E+02 0.  0.
         24    2    4    4    0    0  0.30573208077E+02  0.72916180054E+01 -0.45811585857E+03  0.46586052698E+03  0.78536628220E+02 0.  0.
         13    1    3    3    0    0 -0.20369798719E+02 -0.42828487201E+03  0.25466122818E+03  0.49869349447E+03  0.00000000000E+00 0. -1.
        -13    1    3    3    0    0 -0.34723816560E+02 -0.19495644056E+03  0.49532850372E+02  0.20412559961E+03  0.00000000000E+00 0.  1.
          4    1    6    6  502    0  0.10332829557E+02  0.57904753842E+01 -0.43474758880E+03  0.43490891338E+03  0.00000000000E+00 0. -1.
          3    1    5    5  503    0  0.32335681815E+02  0.61133304524E+03  0.21021757351E+03  0.64727514762E+03  0.00000000000E+00 0. -1.
         -4    1    5    5    0  503 -0.78152746130E+01  0.46166493195E+01 -0.15190458717E+00  0.90782731408E+01  0.00000000000E+00 0.  1.
         -3    1    6    6    0  502  0.20240378520E+02  0.15011426212E+01 -0.23368269771E+02  0.30951613591E+02  0.00000000000E+00 0.  1.
<mgrwt>
<rscale>  0 0.18241693E+04</rscale>
<asrwt>0</asrwt>
<pdfrwt beam="1">  1        1 0.14470592E+00 0.18241693E+04</pdfrwt>
<pdfrwt beam="2">  1       -1 0.13606840E+00 0.18241693E+04</pdfrwt>
<totfact> 0.71699528E+00</totfact>
</mgrwt>
</event>
<event>
12    1  0.4612066E-007  0.1794706E+04  0.7818608E-02  0.8709120E-01
         -2   -1    0    0    0  501 -0.00000000000E+00  0.00000000000E+00  0.47225375987E+03  0.47225375987E+03  0.00000000000E+00 0.  1.
          2   -1    0    0  501    0  0.00000000000E+00 -0.00000000000E+00 -0.17051062718E+04  0.17051062718E+04  0.00000000000E+00 0. -1.
         23    2    1    2    0    0  0.27876255224E+02 -0.34847300243E+03  0.23445445069E+03  0.43087755118E+03  0.92065496468E+02 0.  0.
        254    2    1    2    0    0 -0.27876255224E+02  0.34847300243E+03 -0.14673069626E+04  0.17464824805E+04  0.88034130490E+03 0.  0.
        -24    2    4    4    0    0  0.33217137513E+03  0.44012532249E+03 -0.99461936148E+03  0.11399658379E+04  0.78780171047E+02 0.  0.
         24    2    4    4    0    0 -0.36004763035E+03 -0.91652320060E+02 -0.47268760117E+03  0.60651664265E+03  0.79965152498E+02 0.  0.
         11    1    3    3    0    0 -0.33908053795E+02 -0.12841240022E+03  0.80772245646E+02  0.15544663492E+03  0.00000000000E+00 0. -1.
        -11    1    3    3    0    0  0.61784309019E+02 -0.22006060221E+03  0.15368220504E+03  0.27543091626E+03  0.00000000000E+00 0.  1.
          2    1    6    6  502    0 -0.30432430860E+02  0.10577641166E+02 -0.22612612068E+02  0.39361777973E+02  0.00000000000E+00 0. -1.
          1    1    5    5  503    0  0.11493222770E+03  0.13885613719E+03 -0.25437637413E+03  0.31176559065E+03  0.00000000000E+00 0. -1.
         -2    1    5    5    0  503  0.21723914743E+03  0.30126918530E+03 -0.74024298735E+03  0.82820024723E+03  0.00000000000E+00 0.  1.
         -1    1    6    6    0  502 -0.32961519949E+03 -0.10222996123E+03 -0.45007498910E+03  0.56715486467E+03  0.00000000000E+00 0.  1.
<mgrwt>
<rscale>  0 0.17947065E+04</rscale>
<asrwt>0</asrwt>
<pdfrwt beam="1">  1        2 0.26232404E+00 0.17947065E+04</pdfrwt>
<pdfrwt beam="2">  1       -2 0.72654425E-01 0.17947065E+04</pdfrwt>
<totfact> 0.15761871E+01</totfact>
</mgrwt>
</event>
<event>
12    1  0.4612066E-007  0.1915179E+04  0.7818608E-02  0.8647338E-01
         -1   -1    0    0    0  501 -0.00000000000E+00  0.00000000000E+00  0.58745421913E+03  0.58745421913E+03  0.00000000000E+00 0.  1.
          1   -1    0    0  501    0  0.00000000000E+00 -0.00000000000E+00 -0.15609342724E+04  0.15609342724E+04  0.00000000000E+00 0. -1.
         23    2    1    2    0    0  0.45768669710E+03  0.43551639285E+03  0.67584140410E+02  0.64154557391E+03  0.88664909765E+02 0.  0.
        254    2    1    2    0    0 -0.45768669710E+03 -0.43551639285E+03 -0.10410641937E+04  0.15068429176E+04  0.88747353870E+03 0.  0.
        -24    2    4    4    0    0 -0.21834571259E+03  0.84943159745E+02 -0.86864184678E+03  0.90327655537E+03  0.80496502538E+02 0.  0.
         24    2    4    4    0    0 -0.23934098451E+03 -0.52045955260E+03 -0.17242234692E+03  0.60356636227E+03  0.80003969820E+02 0.  0.
         13    1    3    3    0    0  0.20227302659E+03  0.16225041784E+03  0.65679787816E+02  0.26749469135E+03  0.00000000000E+00 0.  1.
        -13    1    3    3    0    0  0.25541367051E+03  0.27326597501E+03  0.19043525943E+01  0.37405088256E+03  0.00000000000E+00 0. -1.
          4    1    6    6  502    0 -0.20587786630E+03 -0.45797345834E+03 -0.17733070784E+03  0.53251437944E+03  0.00000000000E+00 0. -1.
          1    1    5    5  503    0 -0.15229941128E+03  0.27889468372E+02 -0.64210728079E+03  0.66051093342E+03  0.00000000000E+00 0. -1.
         -2    1    5    5    0  503 -0.66046301310E+02  0.57053691372E+02 -0.22653456599E+03  0.24276562195E+03  0.00000000000E+00 0.  1.
         -3    1    6    6    0  502 -0.33463118215E+02 -0.62486094260E+02  0.49083609130E+01  0.71051982825E+02  0.00000000000E+00 0.  1.
<mgrwt>
<rscale>  0 0.19151788E+04</rscale>
<asrwt>0</asrwt>
<pdfrwt beam="1">  1        1 0.24014373E+00 0.19151788E+04</pdfrwt>
<pdfrwt beam="2">  1       -1 0.90377573E-01 0.19151788E+04</pdfrwt>
<totfact> 0.66385375E+00</totfact>
</mgrwt>
</event>
<event>
12    1  0.4612066E-007  0.1406863E+04  0.7818608E-02  0.8948866E-01
          4   -1    0    0  501    0  0.00000000000E+00  0.00000000000E+00  0.76504912497E+03  0.76504912497E+03  0.00000000000E+00 0. -1.
         -4   -1    0    0    0  501 -0.00000000000E+00 -0.00000000000E+00 -0.64677636651E+03  0.64677636651E+03  0.00000000000E+00 0.  1.
         23    2    1    2    0    0 -0.31177975123E+03 -0.25302455435E+03 -0.32314231034E+02  0.41238836247E+03  0.88271816534E+02 0.  0.
        254    2    1    2    0    0  0.31177975123E+03  0.25302455435E+03  0.15058698950E+03  0.99943712901E+03  0.90275694130E+03 0.  0.
        -24    2    4    4    0    0  0.89672002553E+02  0.54178313049E+03 -0.79957490825E+02  0.56069595914E+03  0.80104492602E+02 0.  0.
         24    2    4    4    0    0  0.22210774868E+03 -0.28875857614E+03  0.23054448032E+03  0.43874116987E+03  0.81422904751E+02 0.  0.
         11    1    3    3    0    0 -0.20247854476E+03 -0.19811836812E+03  0.85940132526E+01  0.28341190155E+03  0.00000000000E+00 0. -1.
        -11    1    3    3    0    0 -0.10930120647E+03 -0.54906186229E+02 -0.40908244287E+02  0.12897646093E+03  0.00000000000E+00 0.  1.
          4    1    6    6  502    0  0.20491287062E+03 -0.25657909468E+03  0.23228083384E+03  0.40221449767E+03  0.00000000000E+00 0. -1.
          3    1    5    5  503    0  0.94137365775E+02  0.52790841097E+03 -0.65595050559E+02  0.54023313918E+03  0.00000000000E+00 0. -1.
         -4    1    5    5    0  503 -0.44653632211E+01  0.13874719513E+02 -0.14362440267E+02  0.20462819959E+02  0.00000000000E+00 0.  1.
         -3    1    6    6    0  502  0.17194878056E+02 -0.32179481457E+02 -0.17363535129E+01  0.36526672196E+02  0.00000000000E+00 0.  1.
<mgrwt>
<rscale>  0 0.14068627E+04</rscale>
<asrwt>0</asrwt>
<pdfrwt beam="1">  1        4 0.11769986E+00 0.14068627E+04</pdfrwt>
<pdfrwt beam="2">  1       -4 0.99504057E-01 0.14068627E+04</pdfrwt>
<totfact> 0.90237877E-01</totfact>
</mgrwt>
</event>
<event>
12    1  0.4612066E-007  0.2627327E+04  0.7818608E-02  0.8358978E-01
          2   -1    0    0  501    0  0.00000000000E+00  0.00000000000E+00  0.13013646751E+04  0.13013646751E+04  0.00000000000E+00 0. -1.
         -2   -1    0    0    0  501 -0.00000000000E+00 -0.00000000000E+00 -0.13260788332E+04  0.13260788332E+04  0.00000000000E+00 0.  1.
         23    2    1    2    0    0  0.53483970564E+03 -0.90128835838E+03  0.48503086136E+03  0.11594770830E+04  0.10372055652E+03 0.  0.
        254    2    1    2    0    0 -0.53483970564E+03  0.90128835838E+03 -0.50974501944E+03  0.14679664253E+04  0.89258681669E+03 0.  0.
        -24    2    4    4    0    0 -0.69002293339E+03  0.77190839672E+03 -0.63467901184E+03  0.12171996561E+04  0.82360993218E+02 0.  0.
         24    2    4    4    0    0  0.15518322775E+03  0.12937996165E+03  0.12493399240E+03  0.25076676921E+03  0.80339662897E+02 0.  0.
         13    1    3    3    0    0  0.28450450910E+03 -0.42061550616E+03  0.28119877640E+03  0.58045927641E+03  0.00000000000E+00 0. -1.
        -13    1    3    3    0    0  0.25033519654E+03 -0.48067285222E+03  0.20383208496E+03  0.57901780659E+03  0.00000000000E+00 0.  1.
          2    1    6    6  502    0  0.63442663433E+02  0.61686283088E+01  0.33696305760E+02  0.72100378227E+02  0.00000000000E+00 0. -1.
          3    1    5    5  503    0 -0.23733041910E+02  0.30008945144E+02 -0.43595286638E+02  0.58002957545E+02  0.00000000000E+00 0. -1.
         -4    1    5    5    0  503 -0.66628989148E+03  0.74189945158E+03 -0.59108372521E+03  0.11591966986E+04  0.00000000000E+00 0.  1.
         -1    1    6    6    0  502  0.91740564312E+02  0.12321133334E+03  0.91237686642E+02  0.17866639099E+03  0.00000000000E+00 0.  1.
<mgrwt>
<rscale>  0 0.26273273E+04</rscale>
<asrwt>0</asrwt>
<pdfrwt beam="1">  1        2 0.20020995E+00 0.26273273E+04</pdfrwt>
<pdfrwt beam="2">  1       -2 0.20401213E+00 0.26273273E+04</pdfrwt>
<totfact> 0.18233865E+00</totfact>
</mgrwt>
</event>
<event>
12    1  0.4612066E-007  0.1204870E+04  0.7818608E-02  0.9108604E-01
          1   -1    0    0  501    0  0.00000000000E+00  0.00000000000E+00  0.10803654196E+04  0.10803654196E+04  0.00000000000E+00 0. -1.
         -1   -1    0    0    0  501 -0.00000000000E+00 -0.00000000000E+00 -0.33593094883E+03  0.33593094883E+03  0.00000000000E+00 0.  1.
         23    2    1    2    0    0 -0.14453017166E+03 -0.20474466935E+03  0.67298487294E+02  0.27646862936E+03  0.95375397674E+02 0.  0.
        254    2    1    2    0    0  0.14453017166E+03  0.20474466935E+03  0.67713598344E+03  0.11398277390E+04  0.88197776868E+03 0.  0.
        -24    2    4    4    0    0  0.40244435815E+03  0.21243253630E+03  0.60040386423E+02  0.46595351868E+03  0.80117349452E+02 0.  0.
         24    2    4    4    0    0 -0.25791418650E+03 -0.76878669491E+01  0.61709559702E+03  0.67387422035E+03  0.81979620018E+02 0.  0.
         13    1    3    3    0    0 -0.13528421963E+03 -0.14004449195E+03  0.19893804997E+02  0.19572951562E+03  0.00000000000E+00 0.  1.
        -13    1    3    3    0    0 -0.92459520284E+01 -0.64700177399E+02  0.47404682297E+02  0.80739113743E+02  0.00000000000E+00 0. -1.
          4    1    6    6  502    0 -0.12955690198E+02 -0.11390338242E+02  0.11855960944E+02  0.20932117038E+02  0.00000000000E+00 0. -1.
          1    1    5    5  503    0  0.12559087455E+02  0.15368822250E+02  0.18487400102E+02  0.27124073027E+02  0.00000000000E+00 0. -1.
         -2    1    5    5    0  503  0.38988527070E+03  0.19706371405E+03  0.41552986322E+02  0.43882944566E+03  0.00000000000E+00 0.  1.
         -3    1    6    6    0  502 -0.24495849630E+03  0.37024712929E+01  0.60523963607E+03  0.65294210331E+03  0.00000000000E+00 0.  1.
<mgrwt>
<rscale>  0 0.12048704E+04</rscale>
<asrwt>0</asrwt>
<pdfrwt beam="1">  1        1 0.16621006E+00 0.12048704E+04</pdfrwt>
<pdfrwt beam="2">  1       -1 0.51681685E-01 0.12048704E+04</pdfrwt>
<totfact> 0.48895820E+01</totfact>
</mgrwt>
</event>
<event>
12    1  0.4612066E-007  0.1400448E+04  0.7818608E-02  0.8953494E-01
          1   -1    0    0  501    0  0.00000000000E+00  0.00000000000E+00  0.20481500443E+04  0.20481500443E+04  0.00000000000E+00 0. -1.
         -1   -1    0    0    0  501 -0.00000000000E+00 -0.00000000000E+00 -0.23939344982E+03  0.23939344982E+03  0.00000000000E+00 0.  1.
         23    2    1    2    0    0  0.21126913151E+03 -0.51813720897E+02 -0.19335297998E+02  0.23650335282E+03  0.90778161165E+02 0.  0.
        254    2    1    2    0    0 -0.21126913151E+03  0.51813720897E+02  0.18280918925E+04  0.20510401413E+04  0.90417165754E+03 0.  0.
        -24    2    4    4    0    0 -0.46796236992E+03  0.28951921945E+03  0.92346264445E+03  0.10778592982E+04  0.78659093742E+02 0.  0.
         24    2    4    4    0    0  0.25669323840E+03 -0.23770549855E+03  0.90462924804E+03  0.97318084307E+03  0.79571063978E+02 0.  0.
         11    1    3    3    0    0 -0.41193665420E+01  0.45346936445E+01  0.10217307365E+02  0.11913269784E+02  0.00000000000E+00 0. -1.
        -11    1    3    3    0    0  0.21538849806E+03 -0.56348414541E+02 -0.29552605363E+02  0.22459008304E+03  0.00000000000E+00 0.  1.
          4    1    6    6  502    0  0.13158265849E+03 -0.17434180680E+03  0.53856562195E+03  0.58117294393E+03  0.00000000000E+00 0. -1.
          3    1    5    5  503    0 -0.40171168602E+03  0.27708801955E+03  0.79643913689E+03  0.93405853566E+03  0.00000000000E+00 0. -1.
         -4    1    5    5    0  503 -0.66250683894E+02  0.12431199896E+02  0.12702350756E+03  0.14380076258E+03  0.00000000000E+00 0.  1.
         -3    1    6    6    0  502  0.12511057992E+03 -0.63363691758E+02  0.36606362609E+03  0.39200789914E+03  0.00000000000E+00 0.  1.
<mgrwt>
<rscale>  0 0.14004481E+04</rscale>
<asrwt>0</asrwt>
<pdfrwt beam="1">  1        1 0.31509999E+00 0.14004481E+04</pdfrwt>
<pdfrwt beam="2">  1       -1 0.36829763E-01 0.14004481E+04</pdfrwt>
<totfact> 0.19097727E+01</totfact>
</mgrwt>
</event>
<event>
12    1  0.4612066E-007  0.1811419E+04  0.7818608E-02  0.8700250E-01
         -2   -1    0    0    0  501 -0.00000000000E+00  0.00000000000E+00  0.36802457978E+03  0.36802457978E+03  0.00000000000E+00 0.  1.
          2   -1    0    0  501    0  0.00000000000E+00 -0.00000000000E+00 -0.22289545564E+04  0.22289545564E+04  0.00000000000E+00 0. -1.
         23    2    1    2    0    0  0.35255359665E+03 -0.56675161662E+03 -0.54993179929E+03  0.87126503067E+03  0.10571819310E+03 0.  0.
        254    2    1    2    0    0 -0.35255359665E+03  0.56675161662E+03 -0.13109981774E+04  0.17257141055E+04  0.90214828027E+03 0.  0.
        -24    2    4    4    0    0  0.29608517766E+03  0.11307404340E+03 -0.39154129904E+03  0.50999118786E+03  0.79588008645E+02 0.  0.
         24    2    4    4    0    0 -0.64863877431E+03  0.45367757321E+03 -0.91945687832E+03  0.12157229177E+04  0.77625134557E+02 0.  0.
         13    1    3    3    0    0  0.21659828770E+03 -0.43357620003E+03 -0.41363257254E+03  0.63717740428E+03  0.00000000000E+00 0. -1.
        -13    1    3    3    0    0  0.13595530894E+03 -0.13317541659E+03 -0.13629922675E+03  0.23408762639E+03  0.00000000000E+00 0.  1.
          4    1    6    6  502    0 -0.56214262385E+03  0.39600700618E+03 -0.75535656860E+03  0.10214643529E+04  0.00000000000E+00 0. -1.
          1    1    5    5  503    0  0.92076266599E+02  0.70778771449E+02 -0.16988004333E+03  0.20578363026E+03  0.00000000000E+00 0. -1.
         -2    1    5    5    0  503  0.20400891106E+03  0.42295271955E+02 -0.22166125571E+03  0.30420755761E+03  0.00000000000E+00 0.  1.
         -3    1    6    6    0  502 -0.86496150459E+02  0.57670567034E+02 -0.16410030972E+03  0.19425856480E+03  0.00000000000E+00 0.  1.
<mgrwt>
<rscale>  0 0.18114194E+04</rscale>
<asrwt>0</asrwt>
<pdfrwt beam="1">  1        2 0.34291608E+00 0.18114194E+04</pdfrwt>
<pdfrwt beam="2">  1       -2 0.56619167E-01 0.18114194E+04</pdfrwt>
<totfact> 0.13731397E+01</totfact>
</mgrwt>
</event>
<event>
12    1  0.4612066E-007  0.1019409E+04  0.7818608E-02  0.9287510E-01
         -2   -1    0    0    0  501 -0.00000000000E+00  0.00000000000E+00  0.96882087801E+02  0.96882087801E+02  0.00000000000E+00 0.  1.
          2   -1    0    0  501    0  0.00000000000E+00 -0.00000000000E+00 -0.26815982019E+04  0.26815982019E+04  0.00000000000E+00 0. -1.
         23    2    1    2    0    0  0.40976720655E+02  0.41602833443E+02 -0.35813695750E+03  0.37499721205E+03  0.94609414586E+02 0.  0.
        254    2    1    2    0    0 -0.40976720655E+02 -0.41602833443E+02 -0.22265791566E+04  0.24034830777E+04  0.90314244535E+03 0.  0.
        -24    2    4    4    0    0  0.14020816324E+02 -0.83669136250E+02 -0.22796477033E+04  0.22829707879E+04  0.89246060879E+02 0.  0.
         24    2    4    4    0    0 -0.54997536979E+02  0.42066302806E+02  0.53068546705E+02  0.12051228980E+03  0.83142278278E+02 0.  0.
         13    1    3    3    0    0  0.22592314672E+02  0.70350024526E+02 -0.28278835489E+03  0.29228204237E+03  0.00000000000E+00 0. -1.
        -13    1    3    3    0    0  0.18384405983E+02 -0.28747191083E+02 -0.75348602614E+02  0.82715169675E+02  0.00000000000E+00 0.  1.
          2    1    6    6  502    0 -0.27059838788E+02  0.90140189447E+01 -0.20523326238E+02  0.35138217551E+02  0.00000000000E+00 0. -1.
          1    1    5    5  503    0  0.45664898073E+01  0.25262381004E+01 -0.73233735089E+01  0.89925807002E+01  0.00000000000E+00 0. -1.
         -2    1    5    5    0  503  0.94543265165E+01 -0.86195374350E+02 -0.22723243298E+04  0.22739782072E+04  0.00000000000E+00 0.  1.
         -1    1    6    6    0  502 -0.27937698191E+02  0.33052283862E+02  0.73591872943E+02  0.85374072246E+02  0.00000000000E+00 0.  1.
<mgrwt>
<rscale>  0 0.10194093E+04</rscale>
<asrwt>0</asrwt>
<pdfrwt beam="1">  1        2 0.41255362E+00 0.10194093E+04</pdfrwt>
<pdfrwt beam="2">  1       -2 0.14904935E-01 0.10194093E+04</pdfrwt>
<totfact> 0.97908117E+01</totfact>
</mgrwt>
</event>
<event>
12    1  0.4612066E-007  0.1568404E+04  0.7818608E-02  0.8840197E-01
          2   -1    0    0  501    0  0.00000000000E+00  0.00000000000E+00  0.19244987084E+04  0.19244987084E+04  0.00000000000E+00 0. -1.
         -2   -1    0    0    0  501 -0.00000000000E+00 -0.00000000000E+00 -0.31954953055E+03  0.31954953055E+03  0.00000000000E+00 0.  1.
         23    2    1    2    0    0  0.21909472791E+03  0.26816087700E+03 -0.77118691574E+02  0.36709916992E+03  0.94349097554E+02 0.  0.
        254    2    1    2    0    0 -0.21909472791E+03 -0.26816087700E+03  0.16820678695E+04  0.18769490691E+04  0.75741186595E+03 0.  0.
        -24    2    4    4    0    0 -0.26945567043E+03 -0.33672964275E+03  0.17041718388E+04  0.17597690201E+04  0.81191977473E+02 0.  0.
         24    2    4    4    0    0  0.50360942516E+02  0.68568765742E+02 -0.22103969355E+02  0.11718004899E+03  0.77489859039E+02 0.  0.
         13    1    3    3    0    0  0.17988400318E+03  0.15577213061E+03 -0.33384657915E+02  0.24028680085E+03  0.00000000000E+00 0.  1.
        -13    1    3    3    0    0  0.39210724728E+02  0.11238874639E+03 -0.43734033659E+02  0.12681236907E+03  0.00000000000E+00 0. -1.
          2    1    6    6  502    0  0.19140910209E+02 -0.12201944952E+02  0.10028702115E+02  0.24816058719E+02  0.00000000000E+00 0. -1.
          3    1    5    5  503    0 -0.15265851163E+03 -0.14114930939E+03  0.70892303825E+03  0.73878252746E+03  0.00000000000E+00 0. -1.
         -4    1    5    5    0  503 -0.11679715879E+03 -0.19558033336E+03  0.99524880056E+03  0.10209864926E+04  0.00000000000E+00 0.  1.
         -1    1    6    6    0  502  0.31220032307E+02  0.80770710694E+02 -0.32132671469E+02  0.92363990272E+02  0.00000000000E+00 0.  1.
<mgrwt>
<rscale>  0 0.15684038E+04</rscale>
<asrwt>0</asrwt>
<pdfrwt beam="1">  1        2 0.29607672E+00 0.15684038E+04</pdfrwt>
<pdfrwt beam="2">  1       -2 0.49161467E-01 0.15684038E+04</pdfrwt>
<totfact> 0.27712675E+01</totfact>
</mgrwt>
</event>
<event>
12    1  0.4612066E-007  0.1498570E+04  0.7818608E-02  0.8885405E-01
         -2   -1    0    0    0  501 -0.00000000000E+00  0.00000000000E+00  0.83733485092E+03  0.83733485092E+03  0.00000000000E+00 0.  1.
          2   -1    0    0  501    0  0.00000000000E+00 -0.00000000000E+00 -0.67049386419E+03  0.67049386419E+03  0.00000000000E+00 0. -1.
         23    2    1    2    0    0 -0.31060034721E+03  0.32963438919E+03  0.19103617573E+03  0.49918958162E+03  0.86971327094E+02 0.  0.
        254    2    1    2    0    0  0.31060034721E+03 -0.32963438919E+03 -0.24195188990E+02  0.10086391335E+04  0.90090847939E+03 0.  0.
        -24    2    4    4    0    0  0.40496554324E+03 -0.82025697843E+02  0.34712994494E+03  0.54554912496E+03  0.79995892128E+02 0.  0.
         24    2    4    4    0    0 -0.94365196028E+02 -0.24760869135E+03 -0.37132513393E+03  0.46309000854E+03  0.79719173748E+02 0.  0.
         11    1    3    3    0    0 -0.21438575126E+03  0.17161699564E+03  0.93835820170E+02  0.29020476337E+03  0.00000000000E+00 0. -1.
        -11    1    3    3    0    0 -0.96214595948E+02  0.15801739354E+03  0.97200355556E+02  0.20898481824E+03  0.00000000000E+00 0.  1.
          2    1    6    6  502    0 -0.10261119977E+03 -0.17822827401E+03 -0.29505483372E+03  0.35965501648E+03  0.00000000000E+00 0. -1.
          3    1    5    5  503    0  0.35177224531E+03 -0.93185381247E+02  0.27990632631E+03  0.45910214480E+03  0.00000000000E+00 0. -1.
         -2    1    5    5    0  503  0.53193297924E+02  0.11159683404E+02  0.67223618629E+02  0.86446980163E+02  0.00000000000E+00 0.  1.
         -1    1    6    6    0  502  0.82460037453E+01 -0.69380417334E+02 -0.76270300212E+02  0.10343499206E+03  0.00000000000E+00 0.  1.
<mgrwt>
<rscale>  0 0.14985698E+04</rscale>
<asrwt>0</asrwt>
<pdfrwt beam="1">  1        2 0.10315290E+00 0.14985698E+04</pdfrwt>
<pdfrwt beam="2">  1       -2 0.12882075E+00 0.14985698E+04</pdfrwt>
<totfact> 0.18571647E+01</totfact>
</mgrwt>
</event>
<event>
12    1  0.4612066E-007  0.2569973E+04  0.7818608E-02  0.8378473E-01
          2   -1    0    0  501    0  0.00000000000E+00  0.00000000000E+00  0.84867224134E+03  0.84867224134E+03  0.00000000000E+00 0. -1.
         -2   -1    0    0    0  501 -0.00000000000E+00 -0.00000000000E+00 -0.19456163318E+04  0.19456163318E+04  0.00000000000E+00 0.  1.
         23    2    1    2    0    0  0.13789830865E+03  0.10915853804E+04 -0.62793793431E+03  0.12702056235E+04  0.92421265774E+02 0.  0.
        254    2    1    2    0    0 -0.13789830865E+03 -0.10915853804E+04 -0.46900615614E+03  0.15240829497E+04  0.94460969549E+03 0.  0.
        -24    2    4    4    0    0  0.28482298301E+03 -0.66831547323E+03  0.44321546376E+02  0.73187425203E+03  0.76849319496E+02 0.  0.
         24    2    4    4    0    0 -0.42272129166E+03 -0.42326990714E+03 -0.51332770252E+03  0.79220869764E+03  0.78984718361E+02 0.  0.
         11    1    3    3    0    0  0.77208581762E+01  0.38853356926E+01 -0.41015981481E+01  0.95671621596E+01  0.00000000000E+00 0. -1.
        -11    1    3    3    0    0  0.13017745047E+03  0.10877000447E+04 -0.62383633616E+03  0.12606384613E+04  0.00000000000E+00 0.  1.
          2    1    6    6  502    0 -0.11597291697E+03 -0.98917705950E+02 -0.17490296048E+03  0.23200318016E+03  0.00000000000E+00 0. -1.
          1    1    5    5  503    0 -0.13282325558E+01 -0.40790635641E+02  0.94317802343E+00  0.40823152041E+02  0.00000000000E+00 0. -1.
         -4    1    5    5    0  503  0.28615121556E+03 -0.62752483759E+03  0.43378368353E+02  0.69105109999E+03  0.00000000000E+00 0.  1.
         -1    1    6    6    0  502 -0.30674837468E+03 -0.32435220119E+03 -0.33842474204E+03  0.56020551747E+03  0.00000000000E+00 0.  1.
<mgrwt>
<rscale>  0 0.25699732E+04</rscale>
<asrwt>0</asrwt>
<pdfrwt beam="1">  1        2 0.13056496E+00 0.25699732E+04</pdfrwt>
<pdfrwt beam="2">  1       -2 0.29932559E+00 0.25699732E+04</pdfrwt>
<totfact> 0.90511402E-01</totfact>
</mgrwt>
</event>
<event>
12    1  0.4612066E-007  0.1432236E+04  0.7818608E-02  0.8930809E-01
          1   -1    0    0  501    0  0.00000000000E+00  0.00000000000E+00  0.38017352003E+03  0.38017352003E+03  0.00000000000E+00 0.  1.
         -1   -1    0    0    0  501 -0.00000000000E+00 -0.00000000000E+00 -0.13489238923E+04  0.13489238923E+04  0.00000000000E+00 0. -1.
         23    2    1    2    0    0  0.41369868524E+03 -0.94249009045E+02 -0.23862427317E+03  0.49517449635E+03  0.90701489614E+02 0.  0.
        254    2    1    2    0    0 -0.41369868524E+03  0.94249009045E+02 -0.73012609916E+03  0.12339229160E+04  0.89969559527E+03 0.  0.
        -24    2    4    4    0    0  0.22306604480E+02  0.42614648079E+03 -0.39091033080E+03  0.58486958518E+03  0.84635319178E+02 0.  0.
         24    2    4    4    0    0 -0.43600528972E+03 -0.33189747174E+03 -0.33921576836E+03  0.64905333085E+03  0.77112543519E+02 0.  0.
         13    1    3    3    0    0  0.94863042620E+02  0.10406512938E+02 -0.77436472764E+02  0.12289711014E+03  0.00000000000E+00 0. -1.
        -13    1    3    3    0    0  0.31883564262E+03 -0.10465552198E+03 -0.16118780040E+03  0.37227738621E+03  0.00000000000E+00 0.  1.
          4    1    6    6  502    0 -0.79997004953E+02 -0.57164879833E+02 -0.97712646835E+02  0.13861856167E+03  0.00000000000E+00 0. -1.
          1    1    5    5  503    0  0.28801741165E+00  0.21335287015E+02  0.50388548709E+00  0.21343179862E+02  0.00000000000E+00 0. -1.
         -2    1    5    5    0  503  0.22018587068E+02  0.40481119377E+03 -0.39141421628E+03  0.56352640532E+03  0.00000000000E+00 0.  1.
         -3    1    6    6    0  502 -0.35600828477E+03 -0.27473259191E+03 -0.24150312152E+03  0.51043476918E+03  0.00000000000E+00 0.  1.
<mgrwt>
<rscale>  0 0.14322362E+04</rscale>
<asrwt>0</asrwt>
<pdfrwt beam="1">  1        1 0.58488235E-01 0.14322362E+04</pdfrwt>
<pdfrwt beam="2">  1       -1 0.20752675E+00 0.14322362E+04</pdfrwt>
<totfact> 0.83436609E+00</totfact>
</mgrwt>
</event>
<event>
12    1  0.4612066E-007  0.1654410E+04  0.7818608E-02  0.8787802E-01
         -2   -1    0    0    0  501 -0.00000000000E+00  0.00000000000E+00  0.26070313664E+03  0.26070313664E+03  0.00000000000E+00 0. -1.
          2   -1    0    0  501    0  0.00000000000E+00 -0.00000000000E+00 -0.26247019863E+04  0.26247019863E+04  0.00000000000E+00 0.  1.
         23    2    1    2    0    0 -0.19181680704E+03  0.93508398410E+02  0.10053415137E+03  0.25258065343E+03  0.90290436145E+02 0.  0.
        254    2    1    2    0    0  0.19181680704E+03 -0.93508398410E+02 -0.24645330011E+04  0.26328244695E+04  0.90127923863E+03 0.  0.
        -24    2    4    4    0    0 -0.10695103810E+03 -0.24221486478E+03 -0.21481266496E+04  0.21658007728E+04  0.78347426604E+02 0.  0.
         24    2    4    4    0    0  0.29876784514E+03  0.14870646637E+03 -0.31640635144E+03  0.46702369676E+03  0.81377611604E+02 0.  0.
         11    1    3    3    0    0 -0.59248843220E+02  0.43724376471E+02 -0.81326277065E+01  0.74083642959E+02  0.00000000000E+00 0.  1.
        -11    1    3    3    0    0 -0.13256796382E+03  0.49784021939E+02  0.10866677908E+03  0.17849701047E+03  0.00000000000E+00 0. -1.
          4    1    6    6  502    0  0.28630082509E+03  0.13683845106E+03 -0.26700733884E+03  0.41471175910E+03  0.00000000000E+00 0. -1.
          1    1    5    5  503    0 -0.97286042089E+02 -0.17513757388E+03 -0.18019355177E+04  0.18130387072E+04  0.00000000000E+00 0. -1.
         -2    1    5    5    0  503 -0.96649960119E+01 -0.67077290901E+02 -0.34619113191E+03  0.35276206558E+03  0.00000000000E+00 0.  1.
         -3    1    6    6    0  502  0.12467020050E+02  0.11868015306E+02 -0.49399012595E+02  0.52311937659E+02  0.00000000000E+00 0.  1.
<mgrwt>
<rscale>  0 0.16544099E+04</rscale>
<asrwt>0</asrwt>
<pdfrwt beam="1">  1        2 0.40380033E+00 0.16544099E+04</pdfrwt>
<pdfrwt beam="2">  1       -2 0.40108173E-01 0.16544099E+04</pdfrwt>
<totfact> 0.16575875E+01</totfact>
</mgrwt>
</event>
<event>
12    1  0.4612066E-007  0.2275161E+04  0.7818608E-02  0.8487780E-01
          1   -1    0    0  501    0  0.00000000000E+00  0.00000000000E+00  0.12766035575E+04  0.12766035575E+04  0.00000000000E+00 0. -1.
         -1   -1    0    0    0  501 -0.00000000000E+00 -0.00000000000E+00 -0.10136967876E+04  0.10136967876E+04  0.00000000000E+00 0.  1.
         23    2    1    2    0    0 -0.87091089721E+03  0.35999126787E+03 -0.59461141117E+02  0.94848458818E+03  0.89486774907E+02 0.  0.
        254    2    1    2    0    0  0.87091089721E+03 -0.35999126787E+03  0.32236791103E+03  0.13418157569E+04  0.89914901521E+03 0.  0.
        -24    2    4    4    0    0  0.53301313535E+03 -0.35340270821E+03  0.61296190024E+03  0.88905190478E+03  0.75462054182E+02 0.  0.
         24    2    4    4    0    0  0.33789776186E+03 -0.65885596639E+01 -0.29059398921E+03  0.45276385211E+03  0.79573441686E+02 0.  0.
         13    1    3    3    0    0 -0.67556872001E+03  0.23883712243E+03 -0.53610136429E+02  0.71854736325E+03  0.00000000000E+00 0.  1.
        -13    1    3    3    0    0 -0.19534217720E+03  0.12115414544E+03 -0.58510046881E+01  0.22993722493E+03  0.00000000000E+00 0. -1.
          2    1    6    6  502    0  0.10815805095E+03 -0.34883761503E+02 -0.11957675951E+03  0.16496557889E+03  0.00000000000E+00 0. -1.
          1    1    5    5  503    0  0.26719934966E+02 -0.41314302581E+02  0.45561737925E+02  0.67057426770E+02  0.00000000000E+00 0. -1.
         -2    1    5    5    0  503  0.50629320038E+03 -0.31208840563E+03  0.56740016231E+03  0.82199447801E+03  0.00000000000E+00 0.  1.
         -1    1    6    6    0  502  0.22973971091E+03  0.28295201839E+02 -0.17101722970E+03  0.28779827323E+03  0.00000000000E+00 0.  1.
<mgrwt>
<rscale>  0 0.22751606E+04</rscale>
<asrwt>0</asrwt>
<pdfrwt beam="1">  1        1 0.19640055E+00 0.22751606E+04</pdfrwt>
<pdfrwt beam="2">  1       -1 0.15595335E+00 0.22751606E+04</pdfrwt>
<totfact> 0.26725715E+00</totfact>
</mgrwt>
</event>
<event>
12    1  0.4612066E-007  0.2066150E+04  0.7818608E-02  0.8576303E-01
         -3   -1    0    0    0  501 -0.00000000000E+00  0.00000000000E+00  0.22792179476E+04  0.22792179476E+04  0.00000000000E+00 0.  1.
          3   -1    0    0  501    0  0.00000000000E+00 -0.00000000000E+00 -0.46825005494E+03  0.46825005494E+03  0.00000000000E+00 0. -1.
         23    2    1    2    0    0  0.61586180208E+03  0.39479871968E+03  0.12777274154E+04  0.14751990659E+04  0.92049701506E+02 0.  0.
        254    2    1    2    0    0 -0.61586180208E+03 -0.39479871968E+03  0.53324047719E+03  0.12722689366E+04  0.89396367501E+03 0.  0.
        -24    2    4    4    0    0 -0.83158284659E+03 -0.37879882485E+03  0.36212549986E+03  0.98609862123E+03  0.78974886530E+02 0.  0.
         24    2    4    4    0    0  0.21572104451E+03 -0.15999894830E+02  0.17111497732E+03  0.28617031538E+03  0.76299071156E+02 0.  0.
         13    1    3    3    0    0  0.14392068659E+03  0.74159169451E+02  0.21682340080E+03  0.27060142937E+03  0.00000000000E+00 0. -1.
        -13    1    3    3    0    0  0.47194111549E+03  0.32063955022E+03  0.10609040146E+04  0.12045976365E+04  0.00000000000E+00 0.  1.
          2    1    6    6  502    0  0.14002409075E+03  0.21332087996E+02  0.13013428604E+03  0.19234535703E+03  0.00000000000E+00 0. -1.
          1    1    5    5  503    0 -0.26673797775E+03 -0.15922019369E+03  0.10689751137E+03  0.32852290146E+03  0.00000000000E+00 0. -1.
         -2    1    5    5    0  503 -0.56484486884E+03 -0.21957863116E+03  0.25522798849E+03  0.65757571977E+03  0.00000000000E+00 0.  1.
         -1    1    6    6    0  502  0.75696953763E+02 -0.37331982827E+02  0.40980691285E+02  0.93824958347E+02  0.00000000000E+00 0.  1.
<mgrwt>
<rscale>  0 0.20661500E+04</rscale>
<asrwt>0</asrwt>
<pdfrwt beam="1">  1        3 0.72038471E-01 0.20661500E+04</pdfrwt>
<pdfrwt beam="2">  1       -3 0.35064891E+00 0.20661500E+04</pdfrwt>
<totfact> 0.88007817E-02</totfact>
</mgrwt>
</event>
<event>
12    1  0.4612066E-007  0.2081691E+04  0.7818608E-02  0.8569352E-01
         -1   -1    0    0    0  501 -0.00000000000E+00  0.00000000000E+00  0.58183845086E+03  0.58183845086E+03  0.00000000000E+00 0.  1.
          1   -1    0    0  501    0  0.00000000000E+00 -0.00000000000E+00 -0.18619593081E+04  0.18619593081E+04  0.00000000000E+00 0. -1.
         23    2    1    2    0    0  0.30527575030E+03  0.78098865729E+03 -0.65531818477E+03  0.10682444078E+04  0.92561465644E+02 0.  0.
        254    2    1    2    0    0 -0.30527575030E+03 -0.78098865729E+03 -0.62480267249E+03  0.13755533512E+04  0.89366217102E+03 0.  0.
        -24    2    4    4    0    0 -0.57727736232E+03 -0.31531331954E+03 -0.22623597934E+03  0.70018865085E+03  0.80061138597E+02 0.  0.
         24    2    4    4    0    0  0.27200161201E+03 -0.46567533775E+03 -0.39856669315E+03  0.67536470035E+03  0.80147816346E+02 0.  0.
         11    1    3    3    0    0  0.16894219972E+03  0.53490013832E+03 -0.46459023698E+03  0.72835685836E+03  0.00000000000E+00 0.  1.
        -11    1    3    3    0    0  0.13633355058E+03  0.24608851897E+03 -0.19072794780E+03  0.33988754942E+03  0.00000000000E+00 0. -1.
          4    1    6    6  502    0  0.16955528103E+01  0.33942651999E+01 -0.20913928395E+01  0.43324195999E+01  0.00000000000E+00 0. -1.
          1    1    5    5  503    0 -0.63135438576E+02 -0.54100530233E+02 -0.50655788452E+02  0.97359950078E+02  0.00000000000E+00 0. -1.
         -2    1    5    5    0  503 -0.51414192374E+03 -0.26121278930E+03 -0.17558019089E+03  0.60282870077E+03  0.00000000000E+00 0.  1.
         -3    1    6    6    0  502  0.27030605920E+03 -0.46906960295E+03 -0.39647530031E+03  0.67103228075E+03  0.00000000000E+00 0.  1.
<mgrwt>
<rscale>  0 0.20816912E+04</rscale>
<asrwt>0</asrwt>
<pdfrwt beam="1">  1        1 0.28645528E+00 0.20816912E+04</pdfrwt>
<pdfrwt beam="2">  1       -1 0.89513608E-01 0.20816912E+04</pdfrwt>
<totfact> 0.41632337E+00</totfact>
</mgrwt>
</event>
<event>
12    1  0.4612066E-007  0.1835962E+04  0.7818608E-02  0.8687406E-01
          1   -1    0    0  501    0  0.00000000000E+00  0.00000000000E+00  0.37096047945E+03  0.37096047945E+03  0.00000000000E+00 0. -1.
         -1   -1    0    0    0  501 -0.00000000000E+00 -0.00000000000E+00 -0.22716419781E+04  0.22716419781E+04  0.00000000000E+00 0.  1.
         23    2    1    2    0    0 -0.34613940112E+03 -0.51731874264E+03 -0.11737331882E+04  0.13315380428E+04  0.88953896383E+02 0.  0.
        254    2    1    2    0    0  0.34613940112E+03  0.51731874264E+03 -0.72694831037E+03  0.13110644147E+04  0.89610539958E+03 0.  0.
        -24    2    4    4    0    0  0.62269300636E+03  0.25086920454E+03 -0.58554001224E+03  0.89446969865E+03  0.80851703221E+02 0.  0.
         24    2    4    4    0    0 -0.27655360524E+03  0.26644953809E+03 -0.14140829814E+03  0.41659471609E+03  0.77958949282E+02 0.  0.
         13    1    3    3    0    0 -0.10217618622E+03 -0.18985818703E+03 -0.48657172657E+03  0.53220123009E+03  0.00000000000E+00 0.  1.
        -13    1    3    3    0    0 -0.24396321490E+03 -0.32746055561E+03 -0.68716146167E+03  0.79933681268E+03  0.00000000000E+00 0. -1.
          2    1    6    6  502    0 -0.64510490277E+01 -0.16095437597E+01 -0.13645647468E+02  0.15179274010E+02  0.00000000000E+00 0. -1.
          3    1    5    5  503    0  0.28601670055E+03  0.15089420528E+03 -0.31140803333E+03  0.44894273288E+03  0.00000000000E+00 0. -1.
         -4    1    5    5    0  503  0.33667630581E+03  0.99974999268E+02 -0.27413197891E+03  0.44552696577E+03  0.00000000000E+00 0.  1.
         -1    1    6    6    0  502 -0.27010255621E+03  0.26805908185E+03 -0.12776265067E+03  0.40141544208E+03  0.00000000000E+00 0.  1.
<mgrwt>
<rscale>  0 0.18359623E+04</rscale>
<asrwt>0</asrwt>
<pdfrwt beam="1">  1        1 0.57070843E-01 0.18359623E+04</pdfrwt>
<pdfrwt beam="2">  1       -1 0.34948338E+00 0.18359623E+04</pdfrwt>
<totfact> 0.97926635E-01</totfact>
</mgrwt>
</event>
<event>
12    1  0.4612066E-007  0.1136298E+04  0.7818608E-02  0.9170519E-01
         -1   -1    0    0    0  501 -0.00000000000E+00  0.00000000000E+00  0.92462621293E+02  0.92462621293E+02  0.00000000000E+00 0.  1.
          1   -1    0    0  501    0  0.00000000000E+00 -0.00000000000E+00 -0.34910649306E+04  0.34910649306E+04  0.00000000000E+00 0. -1.
         23    2    1    2    0    0 -0.86017007974E+02  0.82098823861E+02 -0.11861766152E+04  0.11949812465E+04  0.82620061240E+02 0.  0.
        254    2    1    2    0    0  0.86017007974E+02 -0.82098823861E+02 -0.22124256942E+04  0.23885463055E+04  0.89229303399E+03 0.  0.
        -24    2    4    4    0    0 -0.28546903484E+03  0.22611584820E+03 -0.13101798429E+04  0.13621706790E+04  0.79478243416E+02 0.  0.
         24    2    4    4    0    0  0.37148604281E+03 -0.30821467207E+03 -0.90224585124E+03  0.10263756265E+04  0.80007415005E+02 0.  0.
         11    1    3    3    0    0 -0.60809586756E+02  0.97473732264E+02 -0.90683343795E+03  0.91408195394E+03  0.00000000000E+00 0. -1.
        -11    1    3    3    0    0 -0.25207421218E+02 -0.15374908404E+02 -0.27934317721E+03  0.28089929253E+03  0.00000000000E+00 0.  1.
          2    1    6    6  502    0  0.19691506493E+03 -0.20683717215E+03 -0.48432437373E+03  0.56225195203E+03  0.00000000000E+00 0. -1.
          1    1    5    5  503    0 -0.25001838474E+03  0.21847125794E+03 -0.12325654065E+04  0.12765016117E+04  0.00000000000E+00 0. -1.
         -2    1    5    5    0  503 -0.35450650105E+02  0.76445902659E+01 -0.77614436399E+02  0.85669067293E+02  0.00000000000E+00 0.  1.
         -1    1    6    6    0  502  0.17457097789E+03 -0.10137749992E+03 -0.41792147752E+03  0.46412367444E+03  0.00000000000E+00 0.  1.
<mgrwt>
<rscale>  0 0.11362975E+04</rscale>
<asrwt>0</asrwt>
<pdfrwt beam="1">  1        1 0.53708676E+00 0.11362975E+04</pdfrwt>
<pdfrwt beam="2">  1       -1 0.14225023E-01 0.11362975E+04</pdfrwt>
<totfact> 0.92933743E+00</totfact>
</mgrwt>
</event>
<event>
12    1  0.4612066E-007  0.2405949E+04  0.7818608E-02  0.8437280E-01
          2   -1    0    0  501    0  0.00000000000E+00  0.00000000000E+00  0.18612725124E+04  0.18612725124E+04  0.00000000000E+00 0.  1.
         -2   -1    0    0    0  501 -0.00000000000E+00 -0.00000000000E+00 -0.77750450457E+03  0.77750450457E+03  0.00000000000E+00 0. -1.
         23    2    1    2    0    0  0.52496972759E+03 -0.22007070699E+03  0.14083019734E+04  0.15233076190E+04  0.11457452964E+03 0.  0.
        254    2    1    2    0    0 -0.52496972759E+03  0.22007070699E+03 -0.32453396552E+03  0.11154693980E+04  0.90273215971E+03 0.  0.
        -24    2    4    4    0    0 -0.54263697446E+03  0.51339535891E+03 -0.30181774138E+03  0.80946757180E+03  0.78192839679E+02 0.  0.
         24    2    4    4    0    0  0.17667246871E+02 -0.29332465192E+03 -0.22716224139E+02  0.30600182622E+03  0.82277626239E+02 0.  0.
         13    1    3    3    0    0  0.54086277352E+01 -0.23880416193E+02  0.77354004443E+02  0.81136733573E+02  0.00000000000E+00 0. -1.
        -13    1    3    3    0    0  0.51956109985E+03 -0.19619029080E+03  0.13309479689E+04  0.14421708854E+04  0.00000000000E+00 0.  1.
          4    1    6    6  502    0  0.11014430421E+02 -0.28872497432E+03 -0.35257986229E+02  0.29107826107E+03  0.00000000000E+00 0. -1.
          1    1    5    5  503    0 -0.45496482359E+03  0.41673822830E+03 -0.27842134532E+03  0.67689156234E+03  0.00000000000E+00 0. -1.
         -2    1    5    5    0  503 -0.87672150872E+02  0.96657130608E+02 -0.23396396057E+02  0.13257600946E+03  0.00000000000E+00 0.  1.
         -3    1    6    6    0  502  0.66528164504E+01 -0.45996775999E+01  0.12541762090E+02  0.14923565159E+02  0.00000000000E+00 0.  1.
<mgrwt>
<rscale>  0 0.24059491E+04</rscale>
<asrwt>0</asrwt>
<pdfrwt beam="1">  1        2 0.28634962E+00 0.24059491E+04</pdfrwt>
<pdfrwt beam="2">  1       -2 0.11961608E+00 0.24059491E+04</pdfrwt>
<totfact> 0.38386622E+00</totfact>
</mgrwt>
</event>
<event>
12    1  0.4612066E-007  0.3384634E+04  0.7818608E-02  0.8141688E-01
         -2   -1    0    0    0  501 -0.00000000000E+00  0.00000000000E+00  0.16192537219E+04  0.16192537219E+04  0.00000000000E+00 0.  1.
          2   -1    0    0  501    0  0.00000000000E+00 -0.00000000000E+00 -0.17686769174E+04  0.17686769174E+04  0.00000000000E+00 0. -1.
         23    2    1    2    0    0  0.26128642687E+03  0.15046777772E+04 -0.43675069523E+03  0.15910485113E+04  0.91424206332E+02 0.  0.
        254    2    1    2    0    0 -0.26128642687E+03 -0.15046777772E+04  0.28732749975E+03  0.17968821280E+04  0.90216543917E+03 0.  0.
        -24    2    4    4    0    0 -0.25250705942E+03 -0.91932178924E+03  0.59903601652E+03  0.11288774103E+04  0.81287705977E+02 0.  0.
         24    2    4    4    0    0 -0.87793674495E+01 -0.58535598799E+03 -0.31170851676E+03  0.66800471771E+03  0.79683081583E+02 0.  0.
         13    1    3    3    0    0  0.61917003982E+02  0.40514321369E+03 -0.15879749552E+03  0.43953541788E+03  0.00000000000E+00 0. -1.
        -13    1    3    3    0    0  0.19936942288E+03  0.10995345635E+04 -0.27795319970E+03  0.11515130935E+04  0.00000000000E+00 0.  1.
          4    1    6    6  502    0 -0.43240879511E+02 -0.26021177478E+03 -0.13391908092E+03  0.29582809473E+03  0.00000000000E+00 0. -1.
          3    1    5    5  503    0 -0.48186812662E+02 -0.31868747703E+03  0.19480335190E+03  0.37660592513E+03  0.00000000000E+00 0. -1.
         -4    1    5    5    0  503 -0.20432024675E+03 -0.60063431220E+03  0.40423266462E+03  0.75227148515E+03  0.00000000000E+00 0.  1.
         -3    1    6    6    0  502  0.34461512062E+02 -0.32514421321E+03 -0.17778943584E+03  0.37217662298E+03  0.00000000000E+00 0.  1.
<mgrwt>
<rscale>  0 0.33846339E+04</rscale>
<asrwt>0</asrwt>
<pdfrwt beam="1">  1        2 0.27210414E+00 0.33846339E+04</pdfrwt>
<pdfrwt beam="2">  1       -2 0.24911596E+00 0.33846339E+04</pdfrwt>
<totfact> 0.48480339E-01</totfact>
</mgrwt>
</event>
<event>
12    1  0.4612066E-007  0.1247366E+04  0.7818608E-02  0.9072378E-01
          2   -1    0    0  501    0  0.00000000000E+00  0.00000000000E+00  0.11186543122E+04  0.11186543122E+04  0.00000000000E+00 0. -1.
         -2   -1    0    0    0  501 -0.00000000000E+00 -0.00000000000E+00 -0.34772173375E+03  0.34772173375E+03  0.00000000000E+00 0.  1.
         23    2    1    2    0    0  0.45733144469E+02 -0.28754699815E+03  0.25137565342E+03  0.39615530076E+03  0.94733872208E+02 0.  0.
        254    2    1    2    0    0 -0.45733144469E+02  0.28754699815E+03  0.51955692499E+03  0.10702207451E+04  0.88918965828E+03 0.  0.
        -24    2    4    4    0    0  0.23229239060E+03 -0.21554071263E+03  0.65353741472E+02  0.33320074018E+03  0.79586859474E+02 0.  0.
         24    2    4    4    0    0 -0.27802553507E+03  0.50308771078E+03  0.45420318352E+03  0.73702000497E+03  0.80638160366E+02 0.  0.
         13    1    3    3    0    0  0.61839600987E+02 -0.17303686250E+03  0.11257774515E+03  0.21549858639E+03  0.00000000000E+00 0.  1.
        -13    1    3    3    0    0 -0.16106456518E+02 -0.11451013566E+03  0.13879790827E+03  0.18065671438E+03  0.00000000000E+00 0. -1.
          4    1    6    6  502    0 -0.10358525185E+03  0.20086544801E+03  0.13009938145E+03  0.26077323800E+03  0.00000000000E+00 0. -1.
          1    1    5    5  503    0  0.17530839364E+02  0.47319903987E+01  0.96321051601E+01  0.20554792914E+02  0.00000000000E+00 0. -1.
         -2    1    5    5    0  503  0.21476155124E+03 -0.22027270303E+03  0.55721636311E+02  0.31264594727E+03  0.00000000000E+00 0.  1.
         -3    1    6    6    0  502 -0.17444028322E+03  0.30222226278E+03  0.32410380207E+03  0.47624676697E+03  0.00000000000E+00 0.  1.
<mgrwt>
<rscale>  0 0.12473659E+04</rscale>
<asrwt>0</asrwt>
<pdfrwt beam="1">  1        2 0.17210066E+00 0.12473659E+04</pdfrwt>
<pdfrwt beam="2">  1       -2 0.53495652E-01 0.12473659E+04</pdfrwt>
<totfact> 0.68724199E+01</totfact>
</mgrwt>
</event>
<event>
12    1  0.4612066E-007  0.1461102E+04  0.7818608E-02  0.8910740E-01
          1   -1    0    0  501    0  0.00000000000E+00  0.00000000000E+00  0.13333600395E+04  0.13333600395E+04  0.00000000000E+00 0. -1.
         -1   -1    0    0    0  501 -0.00000000000E+00 -0.00000000000E+00 -0.40027032135E+03  0.40027032135E+03  0.00000000000E+00 0.  1.
         23    2    1    2    0    0 -0.13662529283E+03 -0.33398908888E+03 -0.16862783325E+02  0.37357878394E+03  0.95192290768E+02 0.  0.
        254    2    1    2    0    0  0.13662529283E+03  0.33398908888E+03  0.94995250146E+03  0.13600515769E+04  0.90394433161E+03 0.  0.
        -24    2    4    4    0    0 -0.30506116975E+03  0.21711288173E+03  0.77366451522E+03  0.86322362349E+03  0.79987007214E+02 0.  0.
         24    2    4    4    0    0  0.44168646258E+03  0.11687620715E+03  0.17628798624E+03  0.49682795341E+03  0.83747132317E+02 0.  0.
         11    1    3    3    0    0 -0.39017488671E+02 -0.14094374479E+03  0.36592518206E+02  0.15075316251E+03  0.00000000000E+00 0. -1.
        -11    1    3    3    0    0 -0.97607804157E+02 -0.19304534409E+03 -0.53455301531E+02  0.22282562144E+03  0.00000000000E+00 0.  1.
          2    1    6    6  502    0  0.28662377121E+02 -0.66618987251E+01  0.28848600218E+02  0.41208670100E+02  0.00000000000E+00 0. -1.
          3    1    5    5  503    0 -0.39118560269E+02  0.11528571301E+02  0.44802574124E+02  0.60584159331E+02  0.00000000000E+00 0. -1.
         -4    1    5    5    0  503 -0.26594260948E+03  0.20558431043E+03  0.72886194110E+03  0.80263946415E+03  0.00000000000E+00 0.  1.
         -1    1    6    6    0  502  0.41302408546E+03  0.12353810587E+03  0.14743938602E+03  0.45561928331E+03  0.00000000000E+00 0.  1.
<mgrwt>
<rscale>  0 0.14611016E+04</rscale>
<asrwt>0</asrwt>
<pdfrwt beam="1">  1        1 0.20513231E+00 0.14611016E+04</pdfrwt>
<pdfrwt beam="2">  1       -1 0.61580050E-01 0.14611016E+04</pdfrwt>
<totfact> 0.22224169E+01</totfact>
</mgrwt>
</event>
<event>
12    1  0.4612066E-007  0.1838010E+04  0.7818608E-02  0.8686344E-01
          3   -1    0    0  501    0  0.00000000000E+00  0.00000000000E+00  0.52652014868E+03  0.52652014868E+03  0.00000000000E+00 0. -1.
         -3   -1    0    0    0  501 -0.00000000000E+00 -0.00000000000E+00 -0.16040597353E+04  0.16040597353E+04  0.00000000000E+00 0.  1.
         23    2    1    2    0    0  0.57413419951E+03 -0.79387339920E+02 -0.77803863922E+03  0.97460914765E+03  0.92663033473E+02 0.  0.
        254    2    1    2    0    0 -0.57413419951E+03  0.79387339920E+02 -0.29950094741E+03  0.11559707363E+04  0.95427202462E+03 0.  0.
        -24    2    4    4    0    0 -0.50114333394E+03  0.83415988512E+02 -0.62758222856E+03  0.81155229815E+03  0.81577023303E+02 0.  0.
         24    2    4    4    0    0 -0.72990865569E+02 -0.40286485923E+01  0.32808128115E+03  0.34441843819E+03  0.75118819621E+02 0.  0.
         11    1    3    3    0    0  0.24606738444E+03 -0.69085429888E+02 -0.29112133352E+03  0.38739332098E+03  0.00000000000E+00 0. -1.
        -11    1    3    3    0    0  0.32806681507E+03 -0.10301910032E+02 -0.48691730571E+03  0.58721582667E+03  0.00000000000E+00 0.  1.
          4    1    6    6  502    0 -0.15408164167E+02 -0.10579351547E+02  0.10190412278E+02  0.21287994376E+02  0.00000000000E+00 0. -1.
          1    1    5    5  503    0 -0.97550010100E+02  0.44719255407E+02 -0.16017348638E+03  0.19279876040E+03  0.00000000000E+00 0. -1.
         -2    1    5    5    0  503 -0.40359332384E+03  0.38696733105E+02 -0.46740874218E+03  0.61875353774E+03  0.00000000000E+00 0.  1.
         -3    1    6    6    0  502 -0.57582701402E+02  0.65507029548E+01  0.31789086887E+03  0.32313044381E+03  0.00000000000E+00 0.  1.
<mgrwt>
<rscale>  0 0.18380095E+04</rscale>
<asrwt>0</asrwt>
<pdfrwt beam="1">  1        3 0.81003101E-01 0.18380095E+04</pdfrwt>
<pdfrwt beam="2">  1       -3 0.24677842E+00 0.18380095E+04</pdfrwt>
<totfact> 0.26609011E-01</totfact>
</mgrwt>
</event>
<event>
12    1  0.4612066E-007  0.3032238E+04  0.7818608E-02  0.8234585E-01
          2   -1    0    0  501    0  0.00000000000E+00  0.00000000000E+00  0.35820550825E+04  0.35820550825E+04  0.00000000000E+00 0. -1.
         -2   -1    0    0    0  501 -0.00000000000E+00 -0.00000000000E+00 -0.64170334514E+03  0.64170334514E+03  0.00000000000E+00 0.  1.
         23    2    1    2    0    0 -0.97022692062E+03  0.92729742928E+03  0.80310112444E+03  0.15680125411E+04  0.11167413769E+03 0.  0.
        254    2    1    2    0    0  0.97022692062E+03 -0.92729742928E+03  0.21372506129E+04  0.26557458866E+04  0.82699772180E+03 0.  0.
        -24    2    4    4    0    0  0.66964851439E+03 -0.17555329953E+03  0.61353467975E+03  0.92844919662E+03  0.79655593914E+02 0.  0.
         24    2    4    4    0    0  0.30057840623E+03 -0.75174412975E+03  0.15237159332E+04  0.17272966900E+04  0.79856091092E+02 0.  0.
         11    1    3    3    0    0 -0.14609758048E+03  0.15988377668E+03  0.17597068953E+03  0.27905735726E+03  0.00000000000E+00 0. -1.
        -11    1    3    3    0    0 -0.82412934014E+03  0.76741365260E+03  0.62713043491E+03  0.12889551838E+04  0.00000000000E+00 0.  1.
          4    1    6    6  502    0  0.22617679512E+03 -0.47923549508E+03  0.10365698967E+04  0.11641734205E+04  0.00000000000E+00 0. -1.
          3    1    5    5  503    0  0.49080550093E+03 -0.11216634908E+03  0.40182622511E+03  0.64415498508E+03  0.00000000000E+00 0. -1.
         -4    1    5    5    0  503  0.17884301346E+03 -0.63386950442E+02  0.21170845464E+03  0.28429421154E+03  0.00000000000E+00 0.  1.
         -3    1    6    6    0  502  0.74401611115E+02 -0.27250863467E+03  0.48714603654E+03  0.56312326947E+03  0.00000000000E+00 0.  1.
<mgrwt>
<rscale>  0 0.30322379E+04</rscale>
<asrwt>0</asrwt>
<pdfrwt beam="1">  1        2 0.55108538E+00 0.30322379E+04</pdfrwt>
<pdfrwt beam="2">  1       -2 0.98723594E-01 0.30322379E+04</pdfrwt>
<totfact> 0.51653727E-01</totfact>
</mgrwt>
</event>
<event>
12    1  0.4612066E-007  0.2403910E+04  0.7818608E-02  0.8438041E-01
          1   -1    0    0  501    0  0.00000000000E+00  0.00000000000E+00  0.78130860705E+03  0.78130860705E+03  0.00000000000E+00 0. -1.
         -1   -1    0    0    0  501 -0.00000000000E+00 -0.00000000000E+00 -0.18490714011E+04  0.18490714011E+04  0.00000000000E+00 0.  1.
         23    2    1    2    0    0 -0.51450838234E+03 -0.14221970553E+03 -0.14246329888E+04  0.15246650283E+04  0.10039410191E+03 0.  0.
        254    2    1    2    0    0  0.51450838234E+03  0.14221970553E+03  0.35687019477E+03  0.11057149798E+04  0.90016885110E+03 0.  0.
        -24    2    4    4    0    0 -0.18253870063E+03 -0.12118631725E+03  0.26023696452E+03  0.35015859598E+03  0.82953384002E+02 0.  0.
         24    2    4    4    0    0  0.69704708297E+03  0.26340602278E+03  0.96633230247E+02  0.75555638382E+03  0.79183958176E+02 0.  0.
         11    1    3    3    0    0 -0.26590635344E+03 -0.99890957603E+02 -0.87476951084E+03  0.91973153110E+03  0.00000000000E+00 0.  1.
        -11    1    3    3    0    0 -0.24860202890E+03 -0.42328747928E+02 -0.54986347798E+03  0.60493349724E+03  0.00000000000E+00 0. -1.
          2    1    6    6  502    0  0.64889958679E+03  0.22424251602E+03  0.79303858201E+02  0.69111828340E+03  0.00000000000E+00 0. -1.
          3    1    5    5  503    0 -0.70119796588E+02 -0.94562066393E+02  0.14772639298E+03  0.18889641992E+03  0.00000000000E+00 0. -1.
         -4    1    5    5    0  503 -0.11241890404E+03 -0.26624250854E+02  0.11251057154E+03  0.16126217606E+03  0.00000000000E+00 0.  1.
         -1    1    6    6    0  502  0.48147496181E+02  0.39163506762E+02  0.17329372046E+02  0.64438100421E+02  0.00000000000E+00 0.  1.
<mgrwt>
<rscale>  0 0.24039096E+04</rscale>
<asrwt>0</asrwt>
<pdfrwt beam="1">  1        1 0.12020133E+00 0.24039096E+04</pdfrwt>
<pdfrwt beam="2">  1       -1 0.28447252E+00 0.24039096E+04</pdfrwt>
<totfact> 0.85651953E-01</totfact>
</mgrwt>
</event>
<event>
12    1  0.4612066E-007  0.3541136E+04  0.7818608E-02  0.8104110E-01
          1   -1    0    0  501    0  0.00000000000E+00  0.00000000000E+00  0.17838263420E+04  0.17838263420E+04  0.00000000000E+00 0. -1.
         -1   -1    0    0    0  501 -0.00000000000E+00 -0.00000000000E+00 -0.17574085456E+04  0.17574085456E+04  0.00000000000E+00 0.  1.
         23    2    1    2    0    0  0.11028777777E+04  0.11991734725E+04  0.31675952704E+03  0.16622425120E+04  0.91417509362E+02 0.  0.
        254    2    1    2    0    0 -0.11028777777E+04 -0.11991734725E+04 -0.29034173065E+03  0.18789923757E+04  0.88992000646E+03 0.  0.
        -24    2    4    4    0    0 -0.44183200471E+02 -0.21744932529E+03 -0.36220105769E+03  0.43121702528E+03  0.74311186397E+02 0.  0.
         24    2    4    4    0    0 -0.10586945772E+04 -0.98172414718E+03  0.71859327043E+02  0.14477753504E+04  0.79203494331E+02 0.  0.
         11    1    3    3    0    0  0.31736367124E+03  0.39369187145E+03  0.12533527487E+03  0.52098168931E+03  0.00000000000E+00 0. -1.
        -11    1    3    3    0    0  0.78551410642E+03  0.80548160102E+03  0.19142425217E+03  0.11412608226E+04  0.00000000000E+00 0.  1.
          4    1    6    6  502    0 -0.59180994982E+03 -0.58103035861E+03  0.72504561957E+02  0.83252159482E+03  0.00000000000E+00 0. -1.
          1    1    5    5  503    0 -0.26338508582E+02 -0.21193680059E+03 -0.34540935857E+03  0.40610164918E+03  0.00000000000E+00 0. -1.
         -2    1    5    5    0  503 -0.17844691890E+02 -0.55125247004E+01 -0.16791699124E+02  0.25115376101E+02  0.00000000000E+00 0.  1.
         -3    1    6    6    0  502 -0.46688462737E+03 -0.40069378857E+03 -0.64523491359E+00  0.61525375562E+03  0.00000000000E+00 0.  1.
<mgrwt>
<rscale>  0 0.35411363E+04</rscale>
<asrwt>0</asrwt>
<pdfrwt beam="1">  1        1 0.27443482E+00 0.35411363E+04</pdfrwt>
<pdfrwt beam="2">  1       -1 0.27037055E+00 0.35411363E+04</pdfrwt>
<totfact> 0.17456870E-01</totfact>
</mgrwt>
</event>
<event>
12    1  0.4612066E-007  0.3151464E+04  0.7818608E-02  0.8201754E-01
          2   -1    0    0  501    0  0.00000000000E+00  0.00000000000E+00  0.26452830468E+04  0.26452830468E+04  0.00000000000E+00 0. -1.
         -2   -1    0    0    0  501 -0.00000000000E+00 -0.00000000000E+00 -0.93862577942E+03  0.93862577942E+03  0.00000000000E+00 0.  1.
         23    2    1    2    0    0  0.89828293790E+03  0.80325535561E+03 -0.11938638339E+03  0.12144050661E+04  0.91625068412E+02 0.  0.
        254    2    1    2    0    0 -0.89828293790E+03 -0.80325535561E+03  0.18260436508E+04  0.23695037601E+04  0.90993475146E+03 0.  0.
        -24    2    4    4    0    0 -0.49295593949E+03 -0.86530460781E+03  0.16215114322E+04  0.19046693547E+04  0.81904842654E+02 0.  0.
         24    2    4    4    0    0 -0.40532699842E+03  0.62049252206E+02  0.20453221853E+03  0.46483440543E+03  0.78086559107E+02 0.  0.
         13    1    3    3    0    0  0.13378477654E+03  0.11671714007E+03  0.14822000310E+02  0.17815989704E+03  0.00000000000E+00 0.  1.
        -13    1    3    3    0    0  0.76449816137E+03  0.68653821554E+03 -0.13420838370E+03  0.10362451691E+04  0.00000000000E+00 0. -1.
          4    1    6    6  502    0 -0.68210869379E+02 -0.76773615129E+01  0.61105590288E+02  0.91899715700E+02  0.00000000000E+00 0. -1.
          3    1    5    5  503    0 -0.28785372698E+03 -0.44549229366E+03  0.80819535538E+03  0.96669689371E+03  0.00000000000E+00 0. -1.
         -4    1    5    5    0  503 -0.20510221250E+03 -0.41981231415E+03  0.81331607686E+03  0.93797246098E+03  0.00000000000E+00 0.  1.
         -3    1    6    6    0  502 -0.33711612904E+03  0.69726613719E+02  0.14342662824E+03  0.37293468973E+03  0.00000000000E+00 0.  1.
<mgrwt>
<rscale>  0 0.31514637E+04</rscale>
<asrwt>0</asrwt>
<pdfrwt beam="1">  1        2 0.40696662E+00 0.31514637E+04</pdfrwt>
<pdfrwt beam="2">  1       -2 0.14440397E+00 0.31514637E+04</pdfrwt>
<totfact> 0.80115944E-01</totfact>
</mgrwt>
</event>
<event>
12    1  0.4612066E-007  0.1223680E+04  0.7818608E-02  0.9092378E-01
          1   -1    0    0  501    0  0.00000000000E+00  0.00000000000E+00  0.43197520228E+03  0.43197520228E+03  0.00000000000E+00 0. -1.
         -1   -1    0    0    0  501 -0.00000000000E+00 -0.00000000000E+00 -0.86659702731E+03  0.86659702731E+03  0.00000000000E+00 0.  1.
         23    2    1    2    0    0  0.26970172408E+03 -0.22226616549E+02 -0.10826451445E+03  0.30672601220E+03  0.95533235118E+02 0.  0.
        254    2    1    2    0    0 -0.26970172408E+03  0.22226616549E+02 -0.32635731058E+03  0.99184621740E+03  0.89666982906E+03 0.  0.
        -24    2    4    4    0    0 -0.28282708943E+03 -0.33562334691E+03 -0.42079506180E+03  0.61284580848E+03  0.76663599157E+02 0.  0.
         24    2    4    4    0    0  0.13125365344E+02  0.35784996346E+03  0.94437751212E+02  0.37900040892E+03  0.80585045378E+02 0.  0.
         11    1    3    3    0    0  0.48057362882E+02 -0.35296358378E+01 -0.63702201035E+02  0.79874519548E+02  0.00000000000E+00 0.  1.
        -11    1    3    3    0    0  0.22164436120E+03 -0.18696980711E+02 -0.44562313416E+02  0.22685149265E+03  0.00000000000E+00 0. -1.
          4    1    6    6  502    0 -0.19294580503E+02  0.29060393823E+03  0.87092270798E+02  0.30398683094E+03  0.00000000000E+00 0. -1.
          3    1    5    5  503    0 -0.19086896267E+03 -0.23359697914E+03 -0.23824788068E+03  0.38439636084E+03  0.00000000000E+00 0. -1.
         -4    1    5    5    0  503 -0.91958126753E+02 -0.10202636778E+03 -0.18254718111E+03  0.22844944765E+03  0.00000000000E+00 0.  1.
         -3    1    6    6    0  502  0.32419945847E+02  0.67246025230E+02  0.73454804141E+01  0.75013577974E+02  0.00000000000E+00 0.  1.
<mgrwt>
<rscale>  0 0.12236804E+04</rscale>
<asrwt>0</asrwt>
<pdfrwt beam="1">  1        1 0.66457724E-01 0.12236804E+04</pdfrwt>
<pdfrwt beam="2">  1       -1 0.13332262E+00 0.12236804E+04</pdfrwt>
<totfact> 0.25437362E+01</totfact>
</mgrwt>
</event>
<event>
12    1  0.4612066E-007  0.1851023E+04  0.7818608E-02  0.8679627E-01
          2   -1    0    0  501    0  0.00000000000E+00  0.00000000000E+00  0.33973545509E+04  0.33973545509E+04  0.00000000000E+00 0. -1.
         -2   -1    0    0    0  501 -0.00000000000E+00 -0.00000000000E+00 -0.25212908998E+03  0.25212908998E+03  0.00000000000E+00 0.  1.
         23    2    1    2    0    0  0.59794058893E+03 -0.27346164330E+03  0.16787638413E+04  0.18053532133E+04  0.93477118289E+02 0.  0.
        254    2    1    2    0    0 -0.59794058893E+03  0.27346164330E+03  0.14664616197E+04  0.18441304276E+04  0.90442972858E+03 0.  0.
        -24    2    4    4    0    0 -0.79482785352E+03  0.18602976836E+03  0.82650931478E+03  0.11644279664E+04  0.80102747231E+02 0.  0.
         24    2    4    4    0    0  0.19688726459E+03  0.87431874949E+02  0.63995230488E+03  0.67970246122E+03  0.77766030788E+02 0.  0.
         11    1    3    3    0    0  0.47852900668E+03 -0.23861604441E+03  0.14410558200E+04  0.15370652241E+04  0.00000000000E+00 0. -1.
        -11    1    3    3    0    0  0.11941158225E+03 -0.34845598890E+02  0.23770802131E+03  0.26828798917E+03  0.00000000000E+00 0.  1.
          2    1    6    6  502    0 -0.36728308005E+01 -0.59223246240E+01  0.32043413336E+02  0.32792437441E+02  0.00000000000E+00 0. -1.
          3    1    5    5  503    0 -0.84374005889E+02  0.22333437399E+02  0.12665537265E+03  0.15381592479E+03  0.00000000000E+00 0. -1.
         -4    1    5    5    0  503 -0.71045384763E+03  0.16369633096E+03  0.69985394213E+03  0.10106120416E+04  0.00000000000E+00 0.  1.
         -1    1    6    6    0  502  0.20056009539E+03  0.93354199573E+02  0.60790889154E+03  0.64691002377E+03  0.00000000000E+00 0.  1.
<mgrwt>
<rscale>  0 0.18510234E+04</rscale>
<asrwt>0</asrwt>
<pdfrwt beam="1">  1        2 0.52266990E+00 0.18510234E+04</pdfrwt>
<pdfrwt beam="2">  1       -2 0.38789093E-01 0.18510234E+04</pdfrwt>
<totfact> 0.56903761E+00</totfact>
</mgrwt>
</event>
<event>
12    1  0.4612066E-007  0.1880070E+04  0.7818608E-02  0.8664841E-01
          1   -1    0    0  501    0  0.00000000000E+00  0.00000000000E+00  0.41936130650E+04  0.41936130650E+04  0.00000000000E+00 0. -1.
         -1   -1    0    0    0  501 -0.00000000000E+00 -0.00000000000E+00 -0.21071709073E+03  0.21071709073E+03  0.00000000000E+00 0.  1.
         23    2    1    2    0    0  0.12484643706E+03 -0.71175320570E+03  0.15052320849E+04  0.16725590982E+04  0.97729466964E+02 0.  0.
        254    2    1    2    0    0 -0.12484643706E+03  0.71175320570E+03  0.24776638894E+04  0.27317710576E+04  0.89530749118E+03 0.  0.
        -24    2    4    4    0    0 -0.43025996602E+03  0.14273041854E+03  0.13929889404E+04  0.14670575376E+04  0.79649353950E+02 0.  0.
         24    2    4    4    0    0  0.30541352897E+03  0.56902278716E+03  0.10846749489E+04  0.12647135201E+04  0.76916753354E+02 0.  0.
         11    1    3    3    0    0  0.48576302408E+02 -0.42601882830E+03  0.98206101368E+03  0.10715855233E+04  0.00000000000E+00 0. -1.
        -11    1    3    3    0    0  0.76270134647E+02 -0.28573437740E+03  0.52317107124E+03  0.60097357484E+03  0.00000000000E+00 0.  1.
          4    1    6    6  502    0  0.23128037571E+02  0.61420373784E+02  0.15765893774E+03  0.17077385364E+03  0.00000000000E+00 0. -1.
          1    1    5    5  503    0  0.21642084673E+01 -0.74126808469E+00  0.26902079539E+02  0.26999169621E+02  0.00000000000E+00 0. -1.
         -2    1    5    5    0  503 -0.43242417449E+03  0.14347168663E+03  0.13660868609E+04  0.14400583679E+04  0.00000000000E+00 0.  1.
         -1    1    6    6    0  502  0.28228549140E+03  0.50760241337E+03  0.92701601121E+03  0.10939396664E+04  0.00000000000E+00 0.  1.
<mgrwt>
<rscale>  0 0.18800702E+04</rscale>
<asrwt>0</asrwt>
<pdfrwt beam="1">  1        1 0.64517118E+00 0.18800702E+04</pdfrwt>
<pdfrwt beam="2">  1       -1 0.32418017E-01 0.18800702E+04</pdfrwt>
<totfact> 0.54133231E-01</totfact>
</mgrwt>
</event>
<event>
12    1  0.4612066E-007  0.1525119E+04  0.7818608E-02  0.8867919E-01
          2   -1    0    0  501    0  0.00000000000E+00  0.00000000000E+00  0.38157110706E+04  0.38157110706E+04  0.00000000000E+00 0. -1.
         -2   -1    0    0    0  501 -0.00000000000E+00 -0.00000000000E+00 -0.15239550357E+03  0.15239550357E+03  0.00000000000E+00 0.  1.
         23    2    1    2    0    0  0.34527739301E+03 -0.13475100343E+03  0.20485197751E+04  0.20837934383E+04  0.91583368827E+02 0.  0.
        254    2    1    2    0    0 -0.34527739301E+03  0.13475100343E+03  0.16147957920E+04  0.18843131359E+04  0.89760583407E+03 0.  0.
        -24    2    4    4    0    0 -0.20211597711E+03 -0.36031229820E+03  0.95152210768E+03  0.10405344846E+04  0.81497679281E+02 0.  0.
         24    2    4    4    0    0 -0.14316141590E+03  0.49506330163E+03  0.66327368429E+03  0.84377865135E+03  0.80296753138E+02 0.  0.
         11    1    3    3    0    0  0.25119548882E+03 -0.86631802395E+02  0.16612028732E+04  0.16823195976E+04  0.00000000000E+00 0. -1.
        -11    1    3    3    0    0  0.94081904188E+02 -0.48119201034E+02  0.38731690193E+03  0.40147384064E+03  0.00000000000E+00 0.  1.
          4    1    6    6  502    0 -0.91911601041E+01  0.54354202243E+02  0.37158002804E+02  0.66479875887E+02  0.00000000000E+00 0. -1.
          1    1    5    5  503    0 -0.31732554431E+02 -0.54475587437E+02  0.83940686841E+02  0.10497896715E+03  0.00000000000E+00 0. -1.
         -2    1    5    5    0  503 -0.17038342268E+03 -0.30583671077E+03  0.86758142084E+03  0.93555551741E+03  0.00000000000E+00 0.  1.
         -3    1    6    6    0  502 -0.13397025580E+03  0.44070909939E+03  0.62611568149E+03  0.77729877546E+03  0.00000000000E+00 0.  1.
<mgrwt>
<rscale>  0 0.15251193E+04</rscale>
<asrwt>0</asrwt>
<pdfrwt beam="1">  1        2 0.58703240E+00 0.15251193E+04</pdfrwt>
<pdfrwt beam="2">  1       -2 0.23445465E-01 0.15251193E+04</pdfrwt>
<totfact> 0.75655357E+00</totfact>
</mgrwt>
</event>
<event>
12    1  0.4612066E-007  0.1531747E+04  0.7818608E-02  0.8863612E-01
         -1   -1    0    0    0  501 -0.00000000000E+00  0.00000000000E+00  0.32953900952E+03  0.32953900952E+03  0.00000000000E+00 0.  1.
          1   -1    0    0  501    0  0.00000000000E+00 -0.00000000000E+00 -0.17799470975E+04  0.17799470975E+04  0.00000000000E+00 0. -1.
         23    2    1    2    0    0  0.12723064106E+03  0.81617885431E+02 -0.11224429413E+04  0.11366839531E+04  0.96556396175E+02 0.  0.
        254    2    1    2    0    0 -0.12723064106E+03 -0.81617885431E+02 -0.32796514676E+03  0.97280215395E+03  0.90329052801E+03 0.  0.
        -24    2    4    4    0    0 -0.13742737513E+03 -0.25539051652E+03 -0.58234197363E+03  0.65544658875E+03  0.79858982529E+02 0.  0.
         24    2    4    4    0    0  0.10196734071E+02  0.17377263109E+03  0.25437682686E+03  0.31735556520E+03  0.75538626016E+02 0.  0.
         11    1    3    3    0    0  0.74700913965E+02  0.39898838782E+02 -0.30639912549E+03  0.31788766567E+03  0.00000000000E+00 0.  1.
        -11    1    3    3    0    0  0.52529727092E+02  0.41719046649E+02 -0.81604381577E+03  0.81879628745E+03  0.00000000000E+00 0. -1.
          4    1    6    6  502    0  0.15596327518E+02  0.12695826020E+03  0.23258057410E+03  0.26543430207E+03  0.00000000000E+00 0. -1.
          1    1    5    5  503    0 -0.73135046776E+02 -0.14651483932E+03 -0.41164644840E+03  0.44302159280E+03  0.00000000000E+00 0. -1.
         -2    1    5    5    0  503 -0.64292328352E+02 -0.10887567720E+03 -0.17069552523E+03  0.21242499595E+03  0.00000000000E+00 0.  1.
         -3    1    6    6    0  502 -0.53995934466E+01  0.46814370889E+02  0.21796252758E+02  0.51921263134E+02  0.00000000000E+00 0.  1.
<mgrwt>
<rscale>  0 0.15317467E+04</rscale>
<asrwt>0</asrwt>
<pdfrwt beam="1">  1        1 0.27383802E+00 0.15317467E+04</pdfrwt>
<pdfrwt beam="2">  1       -1 0.50698309E-01 0.15317467E+04</pdfrwt>
<totfact> 0.15858236E+01</totfact>
</mgrwt>
</event>
<event>
12    1  0.4612066E-007  0.1106699E+04  0.7818608E-02  0.9198687E-01
         -2   -1    0    0    0  501 -0.00000000000E+00  0.00000000000E+00  0.81208122760E+03  0.81208122760E+03  0.00000000000E+00 0.  1.
          2   -1    0    0  501    0  0.00000000000E+00 -0.00000000000E+00 -0.37705050087E+03  0.37705050087E+03  0.00000000000E+00 0. -1.
         23    2    1    2    0    0  0.16208789692E+03 -0.25737660166E+02  0.27057613829E+02  0.18907926546E+03  0.89910737315E+02 0.  0.
        254    2    1    2    0    0 -0.16208789692E+03  0.25737660166E+02  0.40797311290E+03  0.10000524630E+04  0.89818035742E+03 0.  0.
        -24    2    4    4    0    0 -0.36043438139E+03  0.46372563620E+02  0.60361764582E+03  0.70903068657E+03  0.79415956955E+02 0.  0.
         24    2    4    4    0    0  0.19834648447E+03 -0.20634903455E+02 -0.19564453291E+03  0.29102177644E+03  0.81546084885E+02 0.  0.
         13    1    3    3    0    0  0.27922982898E+02 -0.13479663898E+02 -0.29655634579E+02  0.42905139261E+02  0.00000000000E+00 0. -1.
        -13    1    3    3    0    0  0.13416491402E+03 -0.12257996268E+02  0.56713248408E+02  0.14617412620E+03  0.00000000000E+00 0.  1.
          4    1    6    6  502    0  0.10438997283E+03 -0.92538489992E+00 -0.15475702896E+03  0.18667581734E+03  0.00000000000E+00 0. -1.
          1    1    5    5  503    0 -0.23184672636E+03  0.31586959689E+02  0.31212777774E+03  0.39009536037E+03  0.00000000000E+00 0. -1.
         -2    1    5    5    0  503 -0.12858765503E+03  0.14785603931E+02  0.29148986807E+03  0.31893532620E+03  0.00000000000E+00 0.  1.
         -3    1    6    6    0  502  0.93956511644E+02 -0.19709518555E+02 -0.40887503950E+02  0.10434595910E+03  0.00000000000E+00 0.  1.
<mgrwt>
<rscale>  0 0.11066989E+04</rscale>
<asrwt>0</asrwt>
<pdfrwt beam="1">  1        2 0.58007770E-01 0.11066989E+04</pdfrwt>
<pdfrwt beam="2">  1       -2 0.12493557E+00 0.11066989E+04</pdfrwt>
<totfact> 0.40477932E+01</totfact>
</mgrwt>
</event>
<event>
12    1  0.4612066E-007  0.2477143E+04  0.7818608E-02  0.8411174E-01
          2   -1    0    0  501    0  0.00000000000E+00  0.00000000000E+00  0.11834040219E+04  0.11834040219E+04  0.00000000000E+00 0. -1.
         -2   -1    0    0    0  501 -0.00000000000E+00 -0.00000000000E+00 -0.12963104365E+04  0.12963104365E+04  0.00000000000E+00 0.  1.
         23    2    1    2    0    0 -0.33186898235E+01 -0.57100594624E+03 -0.96167581316E+03  0.11222198240E+04  0.92185462663E+02 0.  0.
        254    2    1    2    0    0  0.33186898235E+01  0.57100594624E+03  0.84876939857E+03  0.13574946343E+04  0.89236953436E+03 0.  0.
        -24    2    4    4    0    0  0.41401565366E+02  0.68150043156E+03  0.95779069543E+03  0.11786671441E+04  0.75738315526E+02 0.  0.
         24    2    4    4    0    0 -0.38082875542E+02 -0.11049448532E+03 -0.10902129686E+03  0.17882749022E+03  0.80214034889E+02 0.  0.
         13    1    3    3    0    0  0.32857784589E+02 -0.40968420615E+03 -0.64128105732E+03  0.76168377773E+03  0.00000000000E+00 0. -1.
        -13    1    3    3    0    0 -0.36176474413E+02 -0.16132174009E+03 -0.32039475584E+03  0.36053604632E+03  0.00000000000E+00 0.  1.
          2    1    6    6  502    0 -0.52780074326E+02 -0.90599239617E+02 -0.11257183146E+03  0.15383879778E+03  0.00000000000E+00 0. -1.
          3    1    5    5  503    0  0.37408436624E+02  0.40452938310E+03  0.62842999265E+03  0.74830987471E+03  0.00000000000E+00 0. -1.
         -4    1    5    5    0  503  0.39931287415E+01  0.27697104846E+03  0.32936070278E+03  0.43035726937E+03  0.00000000000E+00 0.  1.
         -1    1    6    6    0  502  0.14697198784E+02 -0.19895245703E+02  0.35505346005E+01  0.24988692435E+02  0.00000000000E+00 0.  1.
<mgrwt>
<rscale>  0 0.24771427E+04</rscale>
<asrwt>0</asrwt>
<pdfrwt beam="1">  1        2 0.18206216E+00 0.24771427E+04</pdfrwt>
<pdfrwt beam="2">  1       -2 0.19943237E+00 0.24771427E+04</pdfrwt>
<totfact> 0.23229749E+00</totfact>
</mgrwt>
</event>
<event>
12    1  0.4612066E-007  0.1450618E+04  0.7818608E-02  0.8917972E-01
          1   -1    0    0  501    0  0.00000000000E+00  0.00000000000E+00  0.13625426748E+04  0.13625426748E+04  0.00000000000E+00 0. -1.
         -1   -1    0    0    0  501 -0.00000000000E+00 -0.00000000000E+00 -0.38609679812E+03  0.38609679812E+03  0.00000000000E+00 0.  1.
         23    2    1    2    0    0 -0.37535088189E+03 -0.52254949734E+02  0.56561168583E+03  0.68720225892E+03  0.93335423130E+02 0.  0.
        254    2    1    2    0    0  0.37535088189E+03  0.52254949734E+02  0.41083419087E+03  0.10614372140E+04  0.90235545248E+03 0.  0.
        -24    2    4    4    0    0 -0.13194643445E+02 -0.20337618964E+03 -0.19479080311E+03  0.29326468856E+03  0.80775908870E+02 0.  0.
         24    2    4    4    0    0  0.38854552533E+03  0.25563113938E+03  0.60562499398E+03  0.76817252547E+03  0.83621114993E+02 0.  0.
         11    1    3    3    0    0 -0.23484436581E+02 -0.26229568272E+01  0.92690908712E+02  0.95655649190E+02  0.00000000000E+00 0.  1.
        -11    1    3    3    0    0 -0.35186644531E+03 -0.49631992907E+02  0.47292077711E+03  0.59154660973E+03  0.00000000000E+00 0. -1.
          4    1    6    6  502    0  0.34272349074E+03  0.25050264364E+03  0.52351248915E+03  0.67400021653E+03  0.00000000000E+00 0. -1.
          3    1    5    5  503    0  0.14498821006E+02 -0.15015631094E+03 -0.99678501435E+02  0.18081188339E+03  0.00000000000E+00 0. -1.
         -4    1    5    5    0  503 -0.27693464452E+02 -0.53219878700E+02 -0.95112301670E+02  0.11245280517E+03  0.00000000000E+00 0.  1.
         -3    1    6    6    0  502  0.45822034587E+02  0.51284957408E+01  0.82112504825E+02  0.94172308939E+02  0.00000000000E+00 0.  1.
<mgrwt>
<rscale>  0 0.14506183E+04</rscale>
<asrwt>0</asrwt>
<pdfrwt beam="1">  1        1 0.20962195E+00 0.14506183E+04</pdfrwt>
<pdfrwt beam="2">  1       -1 0.59399508E-01 0.14506183E+04</pdfrwt>
<totfact> 0.22781386E+01</totfact>
</mgrwt>
</event>
<event>
12    1  0.4612066E-007  0.1484493E+04  0.7818608E-02  0.8894831E-01
         -2   -1    0    0    0  501 -0.00000000000E+00  0.00000000000E+00  0.21731893428E+03  0.21731893428E+03  0.00000000000E+00 0.  1.
          2   -1    0    0  501    0  0.00000000000E+00 -0.00000000000E+00 -0.25351229094E+04  0.25351229094E+04  0.00000000000E+00 0. -1.
         23    2    1    2    0    0  0.37296805856E+03  0.16998808657E+03 -0.11560040455E+04  0.12299153847E+04  0.91353041019E+02 0.  0.
        254    2    1    2    0    0 -0.37296805856E+03 -0.16998808657E+03 -0.11617999296E+04  0.15225264590E+04  0.89459858006E+03 0.  0.
        -24    2    4    4    0    0 -0.84493765936E+02 -0.26643596501E+03  0.27926208337E+02  0.29182622161E+03  0.79090774302E+02 0.  0.
         24    2    4    4    0    0 -0.28847429262E+03  0.96447878432E+02 -0.11897261380E+04  0.12307002373E+04  0.81579286971E+02 0.  0.
         13    1    3    3    0    0  0.33401730188E+03  0.17934188110E+03 -0.10220333657E+04  0.10900840651E+04  0.00000000000E+00 0.  1.
        -13    1    3    3    0    0  0.38950756679E+02 -0.93537945269E+01 -0.13397067976E+03  0.13983131964E+03  0.00000000000E+00 0. -1.
          4    1    6    6  502    0 -0.26966503725E+03  0.63813095193E+02 -0.10588988952E+04  0.10945584560E+04  0.00000000000E+00 0. -1.
          1    1    5    5  503    0 -0.95017795224E+02 -0.19740007586E+03  0.80778931082E+01  0.21922687727E+03  0.00000000000E+00 0. -1.
         -4    1    5    5    0  503  0.10524029288E+02 -0.69035889142E+02  0.19848315228E+02  0.72599344346E+02  0.00000000000E+00 0.  1.
         -3    1    6    6    0  502 -0.18809255370E+02  0.32634783239E+02 -0.13082724277E+03  0.13614178130E+03  0.00000000000E+00 0.  1.
<mgrwt>
<rscale>  0 0.14844935E+04</rscale>
<asrwt>0</asrwt>
<pdfrwt beam="1">  1        2 0.39001888E+00 0.14844935E+04</pdfrwt>
<pdfrwt beam="2">  1       -2 0.33433685E-01 0.14844935E+04</pdfrwt>
<totfact> 0.26944234E+01</totfact>
</mgrwt>
</event>
<event>
12    1  0.4612066E-007  0.1812041E+04  0.7818608E-02  0.8699922E-01
          1   -1    0    0  501    0  0.00000000000E+00  0.00000000000E+00  0.34273911701E+03  0.34273911701E+03  0.00000000000E+00 0. -1.
         -1   -1    0    0    0  501 -0.00000000000E+00 -0.00000000000E+00 -0.23950381719E+04  0.23950381719E+04  0.00000000000E+00 0.  1.
         23    2    1    2    0    0  0.25766983170E+03  0.48962211254E+03 -0.13452438995E+04  0.14574788281E+04  0.91868547930E+02 0.  0.
        254    2    1    2    0    0 -0.25766983170E+03 -0.48962211254E+03 -0.70705515541E+03  0.12802984608E+04  0.91275056867E+03 0.  0.
        -24    2    4    4    0    0 -0.59437036730E+03 -0.33693146641E+03 -0.42115588184E+03  0.80635994127E+03  0.77750443648E+02 0.  0.
         24    2    4    4    0    0  0.33670053560E+03 -0.15269064612E+03 -0.28589927358E+03  0.47393851951E+03  0.78725101154E+02 0.  0.
         11    1    3    3    0    0  0.15991722552E+03  0.25094624020E+03 -0.61935019840E+03  0.68712604575E+03  0.00000000000E+00 0. -1.
        -11    1    3    3    0    0  0.97752606180E+02  0.23867587233E+03 -0.72589370108E+03  0.77035278238E+03  0.00000000000E+00 0.  1.
          4    1    6    6  502    0  0.26223954119E+03 -0.15258647245E+03 -0.23447671395E+03  0.38344691669E+03  0.00000000000E+00 0. -1.
          3    1    5    5  503    0 -0.54558136475E+03 -0.28197057114E+03 -0.37511188408E+03  0.71963557036E+03  0.00000000000E+00 0. -1.
         -4    1    5    5    0  503 -0.48789002550E+02 -0.54960895276E+02 -0.46043997760E+02  0.86724370906E+02  0.00000000000E+00 0.  1.
         -3    1    6    6    0  502  0.74460994411E+02 -0.10417367596E+00 -0.51422559632E+02  0.90491602815E+02  0.00000000000E+00 0.  1.
<mgrwt>
<rscale>  0 0.18120411E+04</rscale>
<asrwt>0</asrwt>
<pdfrwt beam="1">  1        1 0.52729094E-01 0.18120411E+04</pdfrwt>
<pdfrwt beam="2">  1       -1 0.36846742E+00 0.18120411E+04</pdfrwt>
<totfact> 0.81426535E-01</totfact>
</mgrwt>
</event>
<event>
12    1  0.4612066E-007  0.1388704E+04  0.7818608E-02  0.8962036E-01
         -4   -1    0    0    0  501 -0.00000000000E+00  0.00000000000E+00  0.62545504215E+03  0.62545504215E+03  0.00000000000E+00 0.  1.
          4   -1    0    0  501    0  0.00000000000E+00 -0.00000000000E+00 -0.77083795509E+03  0.77083795509E+03  0.00000000000E+00 0. -1.
         23    2    1    2    0    0  0.17828849010E+03 -0.32089672186E+03  0.90813290346E+02  0.38879829810E+03  0.90308200635E+02 0.  0.
        254    2    1    2    0    0 -0.17828849010E+03  0.32089672186E+03 -0.23619620329E+03  0.10074946991E+04  0.90801730740E+03 0.  0.
        -24    2    4    4    0    0 -0.23556897641E+03 -0.27264601843E+03 -0.24605907340E+02  0.36988167422E+03  0.79864937437E+02 0.  0.
         24    2    4    4    0    0  0.57280486312E+02  0.59354274029E+03 -0.21159029595E+03  0.63761302492E+03  0.78777392310E+02 0.  0.
         13    1    3    3    0    0  0.88180658451E+01 -0.95007502522E+02  0.17015802278E+02  0.96921212063E+02  0.00000000000E+00 0. -1.
        -13    1    3    3    0    0  0.16947042425E+03 -0.22588921934E+03  0.73797488068E+02  0.29187708604E+03  0.00000000000E+00 0.  1.
          2    1    6    6  502    0  0.76289112394E+02  0.51741185234E+03 -0.18506140942E+03  0.55478173985E+03  0.00000000000E+00 0. -1.
          1    1    5    5  503    0 -0.15171611237E+03 -0.17389578097E+03 -0.54067647843E+02  0.23702496058E+03  0.00000000000E+00 0. -1.
         -2    1    5    5    0  503 -0.83852864037E+02 -0.98750237462E+02  0.29461740503E+02  0.13285671364E+03  0.00000000000E+00 0.  1.
         -1    1    6    6    0  502 -0.19008626082E+02  0.76130887956E+02 -0.26528886524E+02  0.82831285072E+02  0.00000000000E+00 0.  1.
<mgrwt>
<rscale>  0 0.13887037E+04</rscale>
<asrwt>0</asrwt>
<pdfrwt beam="1">  1        4 0.11859046E+00 0.13887037E+04</pdfrwt>
<pdfrwt beam="2">  1       -4 0.96223852E-01 0.13887037E+04</pdfrwt>
<totfact> 0.96010367E-01</totfact>
</mgrwt>
</event>
<event>
12    1  0.4612066E-007  0.1480115E+04  0.7818608E-02  0.8897785E-01
         -1   -1    0    0    0  501 -0.00000000000E+00  0.00000000000E+00  0.20314820839E+03  0.20314820839E+03  0.00000000000E+00 0.  1.
          1   -1    0    0  501    0  0.00000000000E+00 -0.00000000000E+00 -0.26959886432E+04  0.26959886432E+04  0.00000000000E+00 0. -1.
         23    2    1    2    0    0 -0.20755995295E+03  0.41439050129E+03 -0.80617413363E+03  0.93426311341E+03  0.90167675617E+02 0.  0.
        254    2    1    2    0    0  0.20755995295E+03 -0.41439050129E+03 -0.16866663012E+04  0.19648737381E+04  0.89503350428E+03 0.  0.
        -24    2    4    4    0    0 -0.42370840863E+02  0.42901823587E+02  0.75439956788E+02  0.12542538436E+03  0.80028028461E+02 0.  0.
         24    2    4    4    0    0  0.24993079381E+03 -0.45729232487E+03 -0.17621062579E+04  0.18394483538E+04  0.83487183881E+02 0.  0.
         11    1    3    3    0    0 -0.12083657478E+03  0.15224940691E+03 -0.37218141111E+03  0.41988136715E+03  0.00000000000E+00 0. -1.
        -11    1    3    3    0    0 -0.86723378161E+02  0.26214109438E+03 -0.43399272252E+03  0.51438174626E+03  0.00000000000E+00 0.  1.
          4    1    6    6  502    0  0.15802775073E+03 -0.34710754808E+03 -0.13621262918E+04  0.14145120907E+04  0.00000000000E+00 0. -1.
          1    1    5    5  503    0 -0.44641004676E+02  0.64436247234E+02  0.56135972842E+02  0.96416267833E+02  0.00000000000E+00 0. -1.
         -2    1    5    5    0  503  0.22701638122E+01 -0.21534423647E+02  0.19303983947E+02  0.29009116528E+02  0.00000000000E+00 0.  1.
         -3    1    6    6    0  502  0.91903043083E+02 -0.11018477679E+03 -0.39997996616E+03  0.42493626310E+03  0.00000000000E+00 0.  1.
<mgrwt>
<rscale>  0 0.14801152E+04</rscale>
<asrwt>0</asrwt>
<pdfrwt beam="1">  1        1 0.41476746E+00 0.14801152E+04</pdfrwt>
<pdfrwt beam="2">  1       -1 0.31253572E-01 0.14801152E+04</pdfrwt>
<totfact> 0.91230814E+00</totfact>
</mgrwt>
</event>
<event>
12    1  0.4612066E-007  0.1306777E+04  0.7818608E-02  0.9024208E-01
         -2   -1    0    0    0  501 -0.00000000000E+00  0.00000000000E+00  0.23078446940E+03  0.23078446940E+03  0.00000000000E+00 0.  1.
          2   -1    0    0  501    0  0.00000000000E+00 -0.00000000000E+00 -0.18498499018E+04  0.18498499018E+04  0.00000000000E+00 0. -1.
         23    2    1    2    0    0  0.29049991984E+03  0.11832356689E+03 -0.20961855988E+03  0.38789774581E+03  0.90188971866E+02 0.  0.
        254    2    1    2    0    0 -0.29049991984E+03 -0.11832356689E+03 -0.14094468725E+04  0.16927366254E+04  0.88341730038E+03 0.  0.
        -24    2    4    4    0    0 -0.48982175284E+03  0.24248050093E+02 -0.36411655492E+03  0.61612830018E+03  0.80745892949E+02 0.  0.
         24    2    4    4    0    0  0.19932183301E+03 -0.14257161699E+03 -0.10453303176E+04  0.10766083252E+04  0.79461650832E+02 0.  0.
         13    1    3    3    0    0  0.91871688666E+02  0.48626441120E+02 -0.22725603882E+02  0.10640202548E+03  0.00000000000E+00 0.  1.
        -13    1    3    3    0    0  0.19862823117E+03  0.69697125772E+02 -0.18689295600E+03  0.28149572033E+03  0.00000000000E+00 0. -1.
          2    1    6    6  502    0  0.18803716230E+03 -0.13320582574E+03 -0.84857621116E+03  0.87930845132E+03  0.00000000000E+00 0. -1.
          3    1    5    5  503    0 -0.20621991588E+03  0.44704494682E+02 -0.13028848362E+03  0.24799240818E+03  0.00000000000E+00 0. -1.
         -4    1    5    5    0  503 -0.28360183696E+03 -0.20456444589E+02 -0.23382807130E+03  0.36813589200E+03  0.00000000000E+00 0.  1.
         -1    1    6    6    0  502  0.11284670703E+02 -0.93657912400E+01 -0.19675410645E+03  0.19729987390E+03  0.00000000000E+00 0.  1.
<mgrwt>
<rscale>  0 0.13067771E+04</rscale>
<asrwt>0</asrwt>
<pdfrwt beam="1">  1        2 0.28459229E+00 0.13067771E+04</pdfrwt>
<pdfrwt beam="2">  1       -2 0.35505303E-01 0.13067771E+04</pdfrwt>
<totfact> 0.59131683E+01</totfact>
</mgrwt>
</event>
<event>
12    1  0.4612066E-007  0.2266594E+04  0.7818608E-02  0.8491210E-01
          2   -1    0    0  501    0  0.00000000000E+00  0.00000000000E+00  0.18336671790E+04  0.18336671790E+04  0.00000000000E+00 0.  1.
         -2   -1    0    0    0  501 -0.00000000000E+00 -0.00000000000E+00 -0.70043362530E+03  0.70043362530E+03  0.00000000000E+00 0. -1.
         23    2    1    2    0    0  0.37654137444E+03  0.82725136788E+03  0.12750629270E+03  0.92229178545E+03  0.90752688749E+02 0.  0.
        254    2    1    2    0    0 -0.37654137444E+03 -0.82725136788E+03  0.10057272610E+04  0.16118090189E+04  0.87195914895E+03 0.  0.
        -24    2    4    4    0    0 -0.51266324721E+03 -0.78603677746E+03  0.10796011344E+04  0.14327183866E+04  0.80411101891E+02 0.  0.
         24    2    4    4    0    0  0.13612187277E+03 -0.41214590424E+02 -0.73873873424E+02  0.17909063225E+03  0.79926833267E+02 0.  0.
         13    1    3    3    0    0  0.11037248206E+03  0.16449333369E+03  0.46740772282E+02  0.20353093479E+03  0.00000000000E+00 0.  1.
        -13    1    3    3    0    0  0.26616889238E+03  0.66275803419E+03  0.80765520421E+02  0.71876085066E+03  0.00000000000E+00 0. -1.
          4    1    6    6  502    0  0.12962366595E+02  0.12649706537E+01  0.16139621056E+02  0.20739104762E+02  0.00000000000E+00 0. -1.
          3    1    5    5  503    0 -0.10012083561E+03 -0.21747723691E+03  0.27239373602E+03  0.36265531531E+03  0.00000000000E+00 0. -1.
         -4    1    5    5    0  503 -0.41254241160E+03 -0.56855954055E+03  0.80720739842E+03  0.10700630713E+04  0.00000000000E+00 0.  1.
         -3    1    6    6    0  502  0.12315950617E+03 -0.42479561078E+02 -0.90013494480E+02  0.15835152749E+03  0.00000000000E+00 0.  1.
<mgrwt>
<rscale>  0 0.22665941E+04</rscale>
<asrwt>0</asrwt>
<pdfrwt beam="1">  1        2 0.28210264E+00 0.22665941E+04</pdfrwt>
<pdfrwt beam="2">  1       -2 0.10775902E+00 0.22665941E+04</pdfrwt>
<totfact> 0.51889285E+00</totfact>
</mgrwt>
</event>
<event>
12    1  0.4612066E-007  0.1478506E+04  0.7818608E-02  0.8898873E-01
          2   -1    0    0  501    0  0.00000000000E+00  0.00000000000E+00  0.23934573259E+03  0.23934573259E+03  0.00000000000E+00 0.  1.
         -2   -1    0    0    0  501 -0.00000000000E+00 -0.00000000000E+00 -0.22832882510E+04  0.22832882510E+04  0.00000000000E+00 0. -1.
         23    2    1    2    0    0  0.14578318822E+02 -0.21538114724E+03  0.43667227394E+02  0.23870671776E+03  0.92046207905E+02 0.  0.
        254    2    1    2    0    0 -0.14578318822E+02  0.21538114724E+03 -0.20876097458E+04  0.22839272659E+04  0.90089274550E+03 0.  0.
        -24    2    4    4    0    0 -0.25669519923E+03 -0.13093684657E+02 -0.13408556625E+03  0.30094308329E+03  0.80770851289E+02 0.  0.
         24    2    4    4    0    0  0.24211688041E+03  0.22847483190E+03 -0.19535241796E+04  0.19829841826E+04  0.71751066463E+02 0.  0.
         13    1    3    3    0    0  0.58938934172E+01 -0.45111941088E+02 -0.28376373793E+02  0.53619434890E+02  0.00000000000E+00 0. -1.
        -13    1    3    3    0    0  0.86844254050E+01 -0.17026920615E+03  0.72043601187E+02  0.18508728287E+03  0.00000000000E+00 0.  1.
          2    1    6    6  502    0  0.16634704932E+03  0.11416591288E+03 -0.12568208865E+04  0.12729115984E+04  0.00000000000E+00 0. -1.
          1    1    5    5  503    0 -0.44606121350E+02  0.21552540261E+02 -0.39180508025E+01  0.49694760043E+02  0.00000000000E+00 0. -1.
         -2    1    5    5    0  503 -0.21208907788E+03 -0.34646224918E+02 -0.13016751544E+03  0.25124832324E+03  0.00000000000E+00 0.  1.
         -1    1    6    6    0  502  0.75769831081E+02  0.11430891901E+03 -0.69670329307E+03  0.71007258421E+03  0.00000000000E+00 0.  1.
<mgrwt>
<rscale>  0 0.14785064E+04</rscale>
<asrwt>0</asrwt>
<pdfrwt beam="1">  1        2 0.36822419E-01 0.14785064E+04</pdfrwt>
<pdfrwt beam="2">  1       -2 0.35127513E+00 0.14785064E+04</pdfrwt>
<totfact> 0.21047779E+00</totfact>
</mgrwt>
</event>
<event>
12    1  0.4612066E-007  0.3237556E+04  0.7818608E-02  0.8178968E-01
         -1   -1    0    0    0  501 -0.00000000000E+00  0.00000000000E+00  0.76320423553E+03  0.76320423553E+03  0.00000000000E+00 0.  1.
          1   -1    0    0  501    0  0.00000000000E+00 -0.00000000000E+00 -0.34334751046E+04  0.34334751046E+04  0.00000000000E+00 0. -1.
         23    2    1    2    0    0  0.28781691994E+03  0.14166667229E+04 -0.17208064108E+04  0.22493592470E+04  0.93054475452E+02 0.  0.
        254    2    1    2    0    0 -0.28781691994E+03 -0.14166667229E+04 -0.94946445833E+03  0.19473200932E+04  0.89486848462E+03 0.  0.
        -24    2    4    4    0    0  0.88013404251E+02 -0.11704529012E+04 -0.91397736668E+03  0.14895895085E+04  0.76262205481E+02 0.  0.
         24    2    4    4    0    0 -0.37583032419E+03 -0.24621382171E+03 -0.35487091648E+02  0.45773058469E+03  0.79926690805E+02 0.  0.
         13    1    3    3    0    0  0.92492009920E+02  0.36124417980E+03 -0.38889098527E+03  0.53878411982E+03  0.00000000000E+00 0.  1.
        -13    1    3    3    0    0  0.19532491002E+03  0.10554225431E+04 -0.13319154255E+04  0.17105751271E+04  0.00000000000E+00 0. -1.
          4    1    6    6  502    0 -0.33749784644E+03 -0.22456474702E+03 -0.55877335487E+02  0.40921436751E+03  0.00000000000E+00 0. -1.
          1    1    5    5  503    0  0.10206194301E+03 -0.10428461261E+04 -0.81728851528E+03  0.13288736585E+04  0.00000000000E+00 0. -1.
         -2    1    5    5    0  503 -0.14048538761E+02 -0.12760677502E+03 -0.96688851395E+02  0.16071585005E+03  0.00000000000E+00 0.  1.
         -3    1    6    6    0  502 -0.38332477745E+02 -0.21649074694E+02  0.20390243839E+02  0.48516217175E+02  0.00000000000E+00 0.  1.
<mgrwt>
<rscale>  0 0.32375563E+04</rscale>
<asrwt>0</asrwt>
<pdfrwt beam="1">  1        1 0.52822693E+00 0.32375563E+04</pdfrwt>
<pdfrwt beam="2">  1       -1 0.11741604E+00 0.32375563E+04</pdfrwt>
<totfact> 0.15322891E-01</totfact>
</mgrwt>
</event>
<event>
12    1  0.4612066E-007  0.1709235E+04  0.7818608E-02  0.8756115E-01
          2   -1    0    0  501    0  0.00000000000E+00  0.00000000000E+00  0.29358565405E+04  0.29358565405E+04  0.00000000000E+00 0. -1.
         -2   -1    0    0    0  501 -0.00000000000E+00 -0.00000000000E+00 -0.24877613702E+03  0.24877613702E+03  0.00000000000E+00 0.  1.
         23    2    1    2    0    0  0.44202289744E+03  0.40885933652E+03  0.73090606184E+03  0.95161046266E+03  0.93747546567E+02 0.  0.
        254    2    1    2    0    0 -0.44202289744E+03 -0.40885933652E+03  0.19561743417E+04  0.22330222149E+04  0.89287174794E+03 0.  0.
        -24    2    4    4    0    0 -0.45176082939E+03 -0.33051847546E+03  0.20227755742E+04  0.21003420771E+04  0.80532650768E+02 0.  0.
         24    2    4    4    0    0  0.97379319541E+01 -0.78340861057E+02 -0.66601232511E+02  0.13268013777E+03  0.83283713631E+02 0.  0.
         11    1    3    3    0    0  0.35493336420E+03  0.30871937948E+03  0.50930216745E+03  0.69330660321E+03  0.00000000000E+00 0.  1.
        -11    1    3    3    0    0  0.87089533239E+02  0.10013995703E+03  0.22160389439E+03  0.25830385945E+03  0.00000000000E+00 0. -1.
          4    1    6    6  502    0  0.14624717342E+02  0.14214760342E+02 -0.38604082517E+01  0.20756794569E+02  0.00000000000E+00 0. -1.
          3    1    5    5  503    0 -0.14444564503E+03 -0.61148608568E+02  0.56582650560E+03  0.58716550575E+03  0.00000000000E+00 0. -1.
         -4    1    5    5    0  503 -0.30731518436E+03 -0.26936986689E+03  0.14569490686E+04  0.15131765714E+04  0.00000000000E+00 0.  1.
         -3    1    6    6    0  502 -0.48867853877E+01 -0.92555621399E+02 -0.62740824259E+02  0.11192334320E+03  0.00000000000E+00 0.  1.
<mgrwt>
<rscale>  0 0.17092350E+04</rscale>
<asrwt>0</asrwt>
<pdfrwt beam="1">  1        2 0.45167021E+00 0.17092350E+04</pdfrwt>
<pdfrwt beam="2">  1       -2 0.38273254E-01 0.17092350E+04</pdfrwt>
<totfact> 0.11752336E+01</totfact>
</mgrwt>
</event>
<event>
12    1  0.4612066E-007  0.1948589E+04  0.7818608E-02  0.8631041E-01
          2   -1    0    0  501    0  0.00000000000E+00  0.00000000000E+00  0.13935943619E+04  0.13935943619E+04  0.00000000000E+00 0. -1.
         -2   -1    0    0    0  501 -0.00000000000E+00 -0.00000000000E+00 -0.68115243997E+03  0.68115243997E+03  0.00000000000E+00 0.  1.
         23    2    1    2    0    0 -0.63969592436E+03 -0.39998045897E+03  0.25985747717E+03  0.80325171562E+03  0.92152954343E+02 0.  0.
        254    2    1    2    0    0  0.63969592436E+03  0.39998045897E+03  0.45258444476E+03  0.12714950863E+04  0.91797158536E+03 0.  0.
        -24    2    4    4    0    0  0.53627594000E+03 -0.85297635883E+02 -0.62477043655E+02  0.55209144317E+03  0.77678891159E+02 0.  0.
         24    2    4    4    0    0  0.10341998436E+03  0.48527809485E+03  0.51506148842E+03  0.71940364308E+03  0.77863613572E+02 0.  0.
         13    1    3    3    0    0  0.40872065692E+00 -0.64723046401E+01 -0.30902053244E+01  0.71838115841E+01  0.00000000000E+00 0.  1.
        -13    1    3    3    0    0 -0.64010464502E+03 -0.39350815433E+03  0.26294768250E+03  0.79606790403E+03  0.00000000000E+00 0. -1.
          2    1    6    6  502    0  0.63147098511E+02  0.22814911321E+03  0.19373486046E+03  0.30589666567E+03  0.00000000000E+00 0. -1.
          3    1    5    5  503    0  0.36023481536E+03 -0.92885867135E+02 -0.51231111200E+02  0.37552833883E+03  0.00000000000E+00 0. -1.
         -4    1    5    5    0  503  0.17604112465E+03  0.75882312525E+01 -0.11245932456E+02  0.17656310435E+03  0.00000000000E+00 0.  1.
         -1    1    6    6    0  502  0.40272885849E+02  0.25712898164E+03  0.32132662796E+03  0.41350697741E+03  0.00000000000E+00 0.  1.
<mgrwt>
<rscale>  0 0.19485894E+04</rscale>
<asrwt>0</asrwt>
<pdfrwt beam="1">  1        2 0.21439913E+00 0.19485894E+04</pdfrwt>
<pdfrwt beam="2">  1       -2 0.10479268E+00 0.19485894E+04</pdfrwt>
<totfact> 0.10057034E+01</totfact>
</mgrwt>
</event>
<event>
12    1  0.4612066E-007  0.1444245E+04  0.7818608E-02  0.8922400E-01
          2   -1    0    0  501    0  0.00000000000E+00  0.00000000000E+00  0.25937044495E+04  0.25937044495E+04  0.00000000000E+00 0. -1.
         -2   -1    0    0    0  501 -0.00000000000E+00 -0.00000000000E+00 -0.20104879487E+03  0.20104879487E+03  0.00000000000E+00 0.  1.
         23    2    1    2    0    0 -0.17620062647E+03 -0.24719621267E+03  0.12552048125E+04  0.12945010717E+04  0.89673156974E+02 0.  0.
        254    2    1    2    0    0  0.17620062647E+03  0.24719621267E+03  0.11374508422E+04  0.15002521727E+04  0.92995136160E+03 0.  0.
        -24    2    4    4    0    0 -0.98738043400E+02  0.43065737264E+03  0.10610535949E+04  0.11520281551E+04  0.78225093647E+02 0.  0.
         24    2    4    4    0    0  0.27493866987E+03 -0.18346115998E+03  0.76397247333E+02  0.34822401754E+03  0.78575807874E+02 0.  0.
         13    1    3    3    0    0 -0.14114086008E+03 -0.13452358307E+03  0.87231475473E+03  0.89384023634E+03  0.00000000000E+00 0. -1.
        -13    1    3    3    0    0 -0.35059766384E+02 -0.11267262960E+03  0.38289005777E+03  0.40066083539E+03  0.00000000000E+00 0.  1.
          2    1    6    6  502    0  0.27908786692E+03 -0.17406147036E+03  0.70541846005E+02  0.33639795625E+03  0.00000000000E+00 0. -1.
          3    1    5    5  503    0 -0.32274710917E+02  0.29219616695E+03  0.65706946643E+03  0.71983368958E+03  0.00000000000E+00 0. -1.
         -4    1    5    5    0  503 -0.66463332484E+02  0.13846120570E+03  0.40398412842E+03  0.43219446556E+03  0.00000000000E+00 0.  1.
         -1    1    6    6    0  502 -0.41491970553E+01 -0.93996896111E+01  0.58554013283E+01  0.11826061293E+02  0.00000000000E+00 0.  1.
<mgrwt>
<rscale>  0 0.14442453E+04</rscale>
<asrwt>0</asrwt>
<pdfrwt beam="1">  1        2 0.39903143E+00 0.14442453E+04</pdfrwt>
<pdfrwt beam="2">  1       -2 0.30930586E-01 0.14442453E+04</pdfrwt>
<totfact> 0.28954011E+01</totfact>
</mgrwt>
</event>
<event>
12    1  0.4612066E-007  0.2257117E+04  0.7818608E-02  0.8495024E-01
          2   -1    0    0  501    0  0.00000000000E+00  0.00000000000E+00  0.20168559538E+04  0.20168559538E+04  0.00000000000E+00 0. -1.
         -2   -1    0    0    0  501 -0.00000000000E+00 -0.00000000000E+00 -0.63149984149E+03  0.63149984149E+03  0.00000000000E+00 0.  1.
         23    2    1    2    0    0  0.34053881835E+03 -0.57969325640E+03  0.13689417346E+04  0.15279457111E+04  0.92766723517E+02 0.  0.
        254    2    1    2    0    0 -0.34053881835E+03  0.57969325640E+03  0.16414377650E+02  0.11204100841E+04  0.89612407988E+03 0.  0.
        -24    2    4    4    0    0 -0.16873914455E+03  0.77283118848E+03 -0.14183204363E+03  0.80702357577E+03  0.73687030499E+02 0.  0.
         24    2    4    4    0    0 -0.17179967381E+03 -0.19313793208E+03  0.15824642128E+03  0.31338650837E+03  0.79698086891E+02 0.  0.
         11    1    3    3    0    0  0.14645247707E+03 -0.24977283219E+03  0.69475848265E+03  0.75267798224E+03  0.00000000000E+00 0. -1.
        -11    1    3    3    0    0  0.19408634129E+03 -0.32992042421E+03  0.67418325197E+03  0.77526772887E+03  0.00000000000E+00 0.  1.
          2    1    6    6  502    0 -0.47537847787E+02 -0.11161826990E+02  0.17273327518E+02  0.51795764282E+02  0.00000000000E+00 0. -1.
          1    1    5    5  503    0 -0.12209409445E+03  0.40173973432E+03 -0.90237194612E+02  0.42947006103E+03  0.00000000000E+00 0. -1.
         -2    1    5    5    0  503 -0.46645050101E+02  0.37109145416E+03 -0.51594849020E+02  0.37755351474E+03  0.00000000000E+00 0.  1.
         -1    1    6    6    0  502 -0.12426182602E+03 -0.18197610509E+03  0.14097309376E+03  0.26159074409E+03  0.00000000000E+00 0.  1.
<mgrwt>
<rscale>  0 0.22571169E+04</rscale>
<asrwt>0</asrwt>
<pdfrwt beam="1">  1        2 0.31028553E+00 0.22571169E+04</pdfrwt>
<pdfrwt beam="2">  1       -2 0.97153822E-01 0.22571169E+04</pdfrwt>
<totfact> 0.52596765E+00</totfact>
</mgrwt>
</event>
<event>
12    1  0.4612066E-007  0.1819794E+04  0.7818608E-02  0.8695844E-01
          2   -1    0    0  501    0  0.00000000000E+00  0.00000000000E+00  0.15984683303E+04  0.15984683303E+04  0.00000000000E+00 0. -1.
         -2   -1    0    0    0  501 -0.00000000000E+00 -0.00000000000E+00 -0.51794093532E+03  0.51794093532E+03  0.00000000000E+00 0.  1.
         23    2    1    2    0    0  0.23653461460E+03 -0.52762553412E+03 -0.17747934580E+02  0.58557031310E+03  0.90775956264E+02 0.  0.
        254    2    1    2    0    0 -0.23653461460E+03  0.52762553412E+03  0.10982753296E+04  0.15308389525E+04  0.89605907780E+03 0.  0.
        -24    2    4    4    0    0 -0.45217833373E+03  0.28055229160E+03  0.10609884708E+04  0.11896221997E+04  0.79558839282E+02 0.  0.
         24    2    4    4    0    0  0.21564371912E+03  0.24707324253E+03  0.37286858729E+02  0.34121675285E+03  0.86551498114E+02 0.  0.
         13    1    3    3    0    0  0.56004660420E+01 -0.98005309965E+01 -0.14753336892E+02  0.18576236894E+02  0.00000000000E+00 0. -1.
        -13    1    3    3    0    0  0.23093414856E+03 -0.51782500313E+03 -0.29945976876E+01  0.56699407620E+03  0.00000000000E+00 0.  1.
          2    1    6    6  502    0  0.19611893850E+03  0.24249123095E+03  0.16464851691E+02  0.31230710281E+03  0.00000000000E+00 0. -1.
          1    1    5    5  503    0 -0.43572734582E+03  0.28485183469E+03  0.10353696622E+04  0.11588741196E+04  0.00000000000E+00 0. -1.
         -2    1    5    5    0  503 -0.16450987904E+02 -0.42995430952E+01  0.25618808628E+02  0.30748080092E+02  0.00000000000E+00 0.  1.
         -1    1    6    6    0  502  0.19524780624E+02  0.45820115753E+01  0.20822007038E+02  0.28909650043E+02  0.00000000000E+00 0.  1.
<mgrwt>
<rscale>  0 0.18197936E+04</rscale>
<asrwt>0</asrwt>
<pdfrwt beam="1">  1        2 0.24591820E+00 0.18197936E+04</pdfrwt>
<pdfrwt beam="2">  1       -2 0.79683222E-01 0.18197936E+04</pdfrwt>
<totfact> 0.14688697E+01</totfact>
</mgrwt>
</event>
<event>
12    1  0.4612066E-007  0.3524303E+04  0.7818608E-02  0.8108054E-01
         -2   -1    0    0    0  501 -0.00000000000E+00  0.00000000000E+00  0.99246158221E+03  0.99246158221E+03  0.00000000000E+00 0.  1.
          2   -1    0    0  501    0  0.00000000000E+00 -0.00000000000E+00 -0.31287646265E+04  0.31287646265E+04  0.00000000000E+00 0. -1.
         23    2    1    2    0    0 -0.12548926672E+04  0.10174022795E+04 -0.13700564768E+04  0.21201390583E+04  0.89843599062E+02 0.  0.
        254    2    1    2    0    0  0.12548926672E+04 -0.10174022795E+04 -0.76624656752E+03  0.20010871505E+04  0.89852822840E+03 0.  0.
        -24    2    4    4    0    0  0.99798691050E+03 -0.62985616595E+03 -0.92693253425E+03  0.15027213604E+04  0.79189017476E+02 0.  0.
         24    2    4    4    0    0  0.25690575666E+03 -0.38754611354E+03  0.16068596673E+03  0.49836579014E+03  0.79724042525E+02 0.  0.
         11    1    3    3    0    0 -0.10276670341E+03  0.59119716970E+02 -0.11931849227E+03  0.16820534731E+03  0.00000000000E+00 0. -1.
        -11    1    3    3    0    0 -0.11521259638E+04  0.95828256252E+03 -0.12507379845E+04  0.19519337109E+04  0.00000000000E+00 0.  1.
          4    1    6    6  502    0  0.66337894965E+01 -0.55771867321E+02  0.19503638386E+02  0.59455027187E+02  0.00000000000E+00 0. -1.
          1    1    5    5  503    0  0.31437320495E+03 -0.22567192984E+03 -0.26709386772E+03  0.47021002337E+03  0.00000000000E+00 0. -1.
         -2    1    5    5    0  503  0.68361370556E+03 -0.40418423611E+03 -0.65983866653E+03  0.10325113370E+04  0.00000000000E+00 0.  1.
         -3    1    6    6    0  502  0.25027196717E+03 -0.33177424622E+03  0.14118232834E+03  0.43891076296E+03  0.00000000000E+00 0.  1.
<mgrwt>
<rscale>  0 0.35243034E+04</rscale>
<asrwt>0</asrwt>
<pdfrwt beam="1">  1        2 0.48134839E+00 0.35243034E+04</pdfrwt>
<pdfrwt beam="2">  1       -2 0.15268640E+00 0.35243034E+04</pdfrwt>
<totfact> 0.33771579E-01</totfact>
</mgrwt>
</event>
<event>
12    1  0.4612066E-007  0.1751726E+04  0.7818608E-02  0.8732401E-01
          2   -1    0    0  501    0  0.00000000000E+00  0.00000000000E+00  0.13218862409E+04  0.13218862409E+04  0.00000000000E+00 0. -1.
         -2   -1    0    0    0  501 -0.00000000000E+00 -0.00000000000E+00 -0.58033468081E+03  0.58033468081E+03  0.00000000000E+00 0.  1.
         23    2    1    2    0    0 -0.49017241659E+03  0.21690027502E+03 -0.90581143372E+02  0.55099020477E+03  0.89836156048E+02 0.  0.
        254    2    1    2    0    0  0.49017241659E+03 -0.21690027502E+03  0.83213270350E+03  0.13512307170E+04  0.91981785533E+03 0.  0.
        -24    2    4    4    0    0 -0.49063091814E+00 -0.43830567456E+03  0.13111971475E+03  0.46387312409E+03  0.76640658870E+02 0.  0.
         24    2    4    4    0    0  0.49066304751E+03  0.22140539954E+03  0.70101298875E+03  0.88735759289E+03  0.78827090024E+02 0.  0.
         13    1    3    3    0    0 -0.21265113837E+03  0.90122533034E+02  0.57649003908E+01  0.23103205770E+03  0.00000000000E+00 0. -1.
        -13    1    3    3    0    0 -0.27752127822E+03  0.12677774198E+03 -0.96346043763E+02  0.31995814707E+03  0.00000000000E+00 0.  1.
          2    1    6    6  502    0  0.27053059557E+03  0.13641020240E+03  0.45339908507E+03  0.54531209119E+03  0.00000000000E+00 0. -1.
          3    1    5    5  503    0 -0.31748421585E+02 -0.21028001798E+03  0.85669163128E+02  0.22927026354E+03  0.00000000000E+00 0. -1.
         -4    1    5    5    0  503  0.31257790667E+02 -0.22802565658E+03  0.45450551623E+02  0.23460286055E+03  0.00000000000E+00 0.  1.
         -1    1    6    6    0  502  0.22013245194E+03  0.84995197141E+02  0.24761390368E+03  0.34204550169E+03  0.00000000000E+00 0.  1.
<mgrwt>
<rscale>  0 0.17517265E+04</rscale>
<asrwt>0</asrwt>
<pdfrwt beam="1">  1        2 0.20336711E+00 0.17517265E+04</pdfrwt>
<pdfrwt beam="2">  1       -2 0.89282259E-01 0.17517265E+04</pdfrwt>
<totfact> 0.16379303E+01</totfact>
</mgrwt>
</event>
<event>
12    1  0.5197803E-007  0.1283349E+04  0.7818608E-02  0.9042875E-01
         -1   -1    0    0    0  501 -0.00000000000E+00  0.00000000000E+00  0.27600340208E+03  0.27600340208E+03  0.00000000000E+00 0. -1.
          1   -1    0    0  501    0  0.00000000000E+00 -0.00000000000E+00 -0.14918155000E+04  0.14918155000E+04  0.00000000000E+00 0.  1.
         23    2    1    2    0    0  0.14722125810E+03  0.15590293032E+03  0.28735901774E+01  0.23381692720E+03  0.93178728274E+02 0.  0.
        254    2    1    2    0    0 -0.14722125810E+03 -0.15590293032E+03 -0.12186856881E+04  0.15340019749E+04  0.90663522437E+03 0.  0.
        -24    2    4    4    0    0 -0.79747119701E+02 -0.22078982752E+03  0.55004597051E+02  0.25397724627E+03  0.79819702363E+02 0.  0.
         24    2    4    4    0    0 -0.67474138402E+02  0.64886897201E+02 -0.12736902851E+04  0.12800247286E+04  0.86100491476E+02 0.  0.
         11    1    3    3    0    0  0.64732379268E+02  0.13544173240E+02  0.18146671617E+02  0.68578620905E+02  0.00000000000E+00 0.  1.
        -11    1    3    3    0    0  0.82488878835E+02  0.14235875708E+03 -0.15273081440E+02  0.16523830629E+03  0.00000000000E+00 0. -1.
          2    1    6    6  502    0 -0.25053294115E+02  0.40243717485E+02 -0.21347985324E+03  0.21867983923E+03  0.00000000000E+00 0. -1.
          3    1    5    5  503    0 -0.19207273023E+02 -0.22204993956E+01 -0.37413505340E+01  0.19693848237E+02  0.00000000000E+00 0. -1.
         -4    1    5    5    0  503 -0.60539846677E+02 -0.21856932813E+03  0.58745947585E+02  0.23428339803E+03  0.00000000000E+00 0.  1.
         -1    1    6    6    0  502 -0.42420844287E+02  0.24643179716E+02 -0.10602104319E+04  0.10613448894E+04  0.00000000000E+00 0.  1.
<mgrwt>
<rscale>  0 0.12833490E+04</rscale>
<asrwt>0</asrwt>
<pdfrwt beam="1">  1        1 0.22951008E+00 0.12833490E+04</pdfrwt>
<pdfrwt beam="2">  1       -1 0.42462062E-01 0.12833490E+04</pdfrwt>
<totfact> 0.35568155E+01</totfact>
</mgrwt>
</event>
<event>
12    1  0.4612066E-007  0.1684090E+04  0.7818608E-02  0.8770491E-01
          1   -1    0    0  501    0  0.00000000000E+00  0.00000000000E+00  0.76703434532E+03  0.76703434532E+03  0.00000000000E+00 0. -1.
         -1   -1    0    0    0  501 -0.00000000000E+00 -0.00000000000E+00 -0.92439079672E+03  0.92439079672E+03  0.00000000000E+00 0.  1.
         23    2    1    2    0    0 -0.29106117927E+03 -0.18589295763E+03 -0.49387300660E+03  0.60984975359E+03  0.93452520181E+02 0.  0.
        254    2    1    2    0    0  0.29106117927E+03  0.18589295763E+03  0.33651655521E+03  0.10815753885E+04  0.96813693618E+03 0.  0.
        -24    2    4    4    0    0 -0.25279626043E+03  0.33942761246E+03  0.23632517537E+02  0.43059525303E+03  0.75741155661E+02 0.  0.
         24    2    4    4    0    0  0.54385743970E+03 -0.15353465482E+03  0.31288403767E+03  0.65098013542E+03  0.80776919602E+02 0.  0.
         11    1    3    3    0    0 -0.15941442655E+03 -0.11314543696E+03 -0.19969954711E+03  0.27945439415E+03  0.00000000000E+00 0. -1.
        -11    1    3    3    0    0 -0.13164675272E+03 -0.72747520671E+02 -0.29417345949E+03  0.33039535943E+03  0.00000000000E+00 0.  1.
          4    1    6    6  502    0  0.32034452399E+03 -0.83171596150E+02  0.22735388580E+03  0.40153196366E+03  0.00000000000E+00 0. -1.
          3    1    5    5  503    0 -0.16188276795E+03  0.21346002626E+03 -0.21669123100E+02  0.26877642060E+03  0.00000000000E+00 0. -1.
         -4    1    5    5    0  503 -0.90913492480E+02  0.12596758619E+03  0.45301640637E+02  0.16181883243E+03  0.00000000000E+00 0.  1.
         -3    1    6    6    0  502  0.22351291571E+03 -0.70363058674E+02  0.85530151869E+02  0.24944817176E+03  0.00000000000E+00 0.  1.
<mgrwt>
<rscale>  0 0.16840897E+04</rscale>
<asrwt>0</asrwt>
<pdfrwt beam="1">  1        1 0.11800528E+00 0.16840897E+04</pdfrwt>
<pdfrwt beam="2">  1       -1 0.14221397E+00 0.16840897E+04</pdfrwt>
<totfact> 0.90630837E+00</totfact>
</mgrwt>
</event>
<event>
12    1  0.4612066E-007  0.1913942E+04  0.7818608E-02  0.8647948E-01
          2   -1    0    0  501    0  0.00000000000E+00  0.00000000000E+00  0.20693925283E+04  0.20693925283E+04  0.00000000000E+00 0. -1.
         -2   -1    0    0    0  501 -0.00000000000E+00 -0.00000000000E+00 -0.44254199011E+03  0.44254199011E+03  0.00000000000E+00 0.  1.
         23    2    1    2    0    0 -0.58167382018E+03  0.45496683039E+03  0.54989895174E+03  0.92506479178E+03  0.89536372665E+02 0.  0.
        254    2    1    2    0    0  0.58167382018E+03 -0.45496683039E+03  0.10769515864E+04  0.15868697266E+04  0.90166044600E+03 0.  0.
        -24    2    4    4    0    0  0.79487459435E+03 -0.47964280654E+03  0.80851613070E+03  0.12335993322E+04  0.78651994245E+02 0.  0.
         24    2    4    4    0    0 -0.21320077417E+03  0.24675976149E+02  0.26843545571E+03  0.35327039439E+03  0.81724560374E+02 0.  0.
         13    1    3    3    0    0 -0.50735772273E+03  0.42603076705E+03  0.50885110283E+03  0.83537028804E+03  0.00000000000E+00 0.  1.
        -13    1    3    3    0    0 -0.74316097448E+02  0.28936063346E+02  0.41047848916E+02  0.89694503748E+02  0.00000000000E+00 0. -1.
          4    1    6    6  502    0 -0.25384790585E+02  0.13357272797E+02  0.43521379815E+01  0.29012849475E+02  0.00000000000E+00 0. -1.
          3    1    5    5  503    0  0.87970106043E+02 -0.81217686404E+02  0.90491553150E+02  0.15007922352E+03  0.00000000000E+00 0. -1.
         -4    1    5    5    0  503  0.70690448831E+03 -0.39842512014E+03  0.71802457755E+03  0.10835201087E+04  0.00000000000E+00 0.  1.
         -3    1    6    6    0  502 -0.18781598358E+03  0.11318703352E+02  0.26408331773E+03  0.32425754492E+03  0.00000000000E+00 0.  1.
<mgrwt>
<rscale>  0 0.19139416E+04</rscale>
<asrwt>0</asrwt>
<pdfrwt beam="1">  1        2 0.31836808E+00 0.19139416E+04</pdfrwt>
<pdfrwt beam="2">  1       -2 0.68083384E-01 0.19139416E+04</pdfrwt>
<totfact> 0.11291805E+01</totfact>
</mgrwt>
</event>
<event>
12    1  0.4612066E-007  0.1167995E+04  0.7818608E-02  0.9141341E-01
         -1   -1    0    0    0  501 -0.00000000000E+00  0.00000000000E+00  0.47368830051E+03  0.47368830051E+03  0.00000000000E+00 0.  1.
          1   -1    0    0  501    0  0.00000000000E+00 -0.00000000000E+00 -0.71999515783E+03  0.71999515783E+03  0.00000000000E+00 0. -1.
         23    2    1    2    0    0 -0.20956806227E+03  0.12669798545E+03  0.79426610757E+02  0.27343659612E+03  0.92129438072E+02 0.  0.
        254    2    1    2    0    0  0.20956806227E+03 -0.12669798545E+03 -0.32573346807E+03  0.92024686222E+03  0.82509444487E+03 0.  0.
        -24    2    4    4    0    0 -0.51440249711E+01  0.24722074503E+03  0.12697906788E+03  0.28941255930E+03  0.80569150641E+02 0.  0.
         24    2    4    4    0    0  0.21471208725E+03 -0.37391873048E+03 -0.45271253595E+03  0.63083430292E+03  0.84183015631E+02 0.  0.
         13    1    3    3    0    0 -0.19214171455E+02 -0.19915228823E+01 -0.15559721848E+02  0.24804344218E+02  0.00000000000E+00 0. -1.
        -13    1    3    3    0    0 -0.19035389082E+03  0.12868950833E+03  0.94986332605E+02  0.24863225190E+03  0.00000000000E+00 0.  1.
          4    1    6    6  502    0  0.40906096451E+02 -0.37371582204E+02 -0.94244762438E+02  0.10932529044E+03  0.00000000000E+00 0. -1.
          1    1    5    5  503    0  0.31979457066E+01  0.21509125943E+03  0.13663693057E+03  0.25484137720E+03  0.00000000000E+00 0. -1.
         -2    1    5    5    0  503 -0.83419706777E+01  0.32129485602E+02 -0.96578626904E+01  0.34571182097E+02  0.00000000000E+00 0.  1.
         -3    1    6    6    0  502  0.17380599079E+03 -0.33654714827E+03 -0.35846777352E+03  0.52150901248E+03  0.00000000000E+00 0.  1.
<mgrwt>
<rscale>  0 0.11679953E+04</rscale>
<asrwt>0</asrwt>
<pdfrwt beam="1">  1        1 0.11076849E+00 0.11679953E+04</pdfrwt>
<pdfrwt beam="2">  1       -1 0.72875124E-01 0.11679953E+04</pdfrwt>
<totfact> 0.49158414E+01</totfact>
</mgrwt>
</event>
<event>
12    1  0.4612066E-007  0.1462036E+04  0.7818608E-02  0.8910099E-01
         -4   -1    0    0    0  501 -0.00000000000E+00  0.00000000000E+00  0.14777321549E+04  0.14777321549E+04  0.00000000000E+00 0.  1.
          4   -1    0    0  501    0  0.00000000000E+00 -0.00000000000E+00 -0.36162651090E+03  0.36162651090E+03  0.00000000000E+00 0. -1.
         23    2    1    2    0    0  0.16254919010E+03 -0.25486290116E+03 -0.68292958860E+02  0.32241785629E+03  0.88949470142E+02 0.  0.
        254    2    1    2    0    0 -0.16254919010E+03  0.25486290116E+03  0.11843986028E+04  0.15169408095E+04  0.89829395605E+03 0.  0.
        -24    2    4    4    0    0 -0.51974815073E+03  0.52561911719E+02  0.69347257403E+03  0.87190696514E+03  0.80103996004E+02 0.  0.
         24    2    4    4    0    0  0.35719896063E+03  0.20230098944E+03  0.49092602878E+03  0.64503384432E+03  0.80891945140E+02 0.  0.
         11    1    3    3    0    0  0.10885126944E+03 -0.15725992372E+03  0.93659895347E+00  0.19125940417E+03  0.00000000000E+00 0.  1.
        -11    1    3    3    0    0  0.53697920666E+02 -0.97602977442E+02 -0.69229557814E+02  0.13115845213E+03  0.00000000000E+00 0. -1.
          4    1    6    6  502    0  0.46425600518E+02 -0.18480686601E+01  0.59292155995E+02  0.75328026018E+02  0.00000000000E+00 0. -1.
          1    1    5    5  503    0 -0.26179631752E+02 -0.88553416668E+01  0.63524810901E+02  0.69276199338E+02  0.00000000000E+00 0. -1.
         -2    1    5    5    0  503 -0.49356851898E+03  0.61417253386E+02  0.62994776313E+03  0.80263076580E+03  0.00000000000E+00 0.  1.
         -3    1    6    6    0  502  0.31077336011E+03  0.20414905810E+03  0.43163387278E+03  0.56970581830E+03  0.00000000000E+00 0.  1.
<mgrwt>
<rscale>  0 0.14620357E+04</rscale>
<asrwt>0</asrwt>
<pdfrwt beam="1">  1        4 0.55634849E-01 0.14620357E+04</pdfrwt>
<pdfrwt beam="2">  1       -4 0.22734341E+00 0.14620357E+04</pdfrwt>
<totfact> 0.52375297E-01</totfact>
</mgrwt>
</event>
<event>
12    1  0.4612066E-007  0.1485752E+04  0.7818608E-02  0.8893984E-01
          1   -1    0    0  501    0  0.00000000000E+00  0.00000000000E+00  0.56375941323E+03  0.56375941323E+03  0.00000000000E+00 0. -1.
         -1   -1    0    0    0  501 -0.00000000000E+00 -0.00000000000E+00 -0.97890068788E+03  0.97890068788E+03  0.00000000000E+00 0.  1.
         23    2    1    2    0    0 -0.32759450397E+03  0.13166308064E+03  0.18048801430E+03  0.40701810652E+03  0.91839478962E+02 0.  0.
        254    2    1    2    0    0  0.32759450397E+03 -0.13166308064E+03 -0.59562928896E+03  0.11356419946E+04  0.90014174672E+03 0.  0.
        -24    2    4    4    0    0  0.57731108587E+03  0.12570635422E+03 -0.32121354482E+03  0.67674144065E+03  0.75568900719E+02 0.  0.
         24    2    4    4    0    0 -0.24971658190E+03 -0.25736943485E+03 -0.27441574413E+03  0.45890055395E+03  0.81782152767E+02 0.  0.
         13    1    3    3    0    0 -0.23443178454E+03  0.13443549802E+03  0.14925439316E+03  0.30872000034E+03  0.00000000000E+00 0. -1.
        -13    1    3    3    0    0 -0.93162719423E+02 -0.27724173850E+01  0.31233621136E+02  0.98298106175E+02  0.00000000000E+00 0.  1.
          2    1    6    6  502    0 -0.25449104339E+02 -0.62216852395E+02 -0.76092793867E+02  0.10153180247E+03  0.00000000000E+00 0. -1.
          3    1    5    5  503    0  0.17648593446E+03  0.28454458294E+02 -0.60167993730E+02  0.18861900416E+03  0.00000000000E+00 0. -1.
         -4    1    5    5    0  503  0.40082515141E+03  0.97251895921E+02 -0.26104555109E+03  0.48812243649E+03  0.00000000000E+00 0.  1.
         -1    1    6    6    0  502 -0.22426747756E+03 -0.19515258246E+03 -0.19832295026E+03  0.35736875148E+03  0.00000000000E+00 0.  1.
<mgrwt>
<rscale>  0 0.14857516E+04</rscale>
<asrwt>0</asrwt>
<pdfrwt beam="1">  1        1 0.86732219E-01 0.14857516E+04</pdfrwt>
<pdfrwt beam="2">  1       -1 0.15060010E+00 0.14857516E+04</pdfrwt>
<totfact> 0.12520543E+01</totfact>
</mgrwt>
</event>
<event>
12    1  0.4612066E-007  0.1394893E+04  0.7818608E-02  0.8957524E-01
          1   -1    0    0  501    0  0.00000000000E+00  0.00000000000E+00  0.16234852050E+04  0.16234852050E+04  0.00000000000E+00 0. -1.
         -1   -1    0    0    0  501 -0.00000000000E+00 -0.00000000000E+00 -0.29962172802E+03  0.29962172802E+03  0.00000000000E+00 0.  1.
         23    2    1    2    0    0  0.21277051903E+03 -0.37365071355E+03  0.42561359224E+03  0.61229584009E+03  0.94197220748E+02 0.  0.
        254    2    1    2    0    0 -0.21277051903E+03  0.37365071355E+03  0.89824988478E+03  0.13108110930E+04  0.85234190113E+03 0.  0.
        -24    2    4    4    0    0 -0.39949958684E+03  0.32047830779E+03  0.15887207600E+03  0.54222868732E+03  0.80407382534E+02 0.  0.
         24    2    4    4    0    0  0.18672906782E+03  0.53172405760E+02  0.73937780878E+03  0.76858240565E+03  0.79651243848E+02 0.  0.
         11    1    3    3    0    0  0.43638416437E+02 -0.25890702746E+02  0.73397129828E+02  0.89228798853E+02  0.00000000000E+00 0.  1.
        -11    1    3    3    0    0  0.16913210259E+03 -0.34776001080E+03  0.35221646241E+03  0.52306704124E+03  0.00000000000E+00 0. -1.
          4    1    6    6  502    0  0.18275309879E+02  0.12746149683E+02  0.24948548974E+02  0.33449684286E+02  0.00000000000E+00 0. -1.
          1    1    5    5  503    0 -0.16499555411E+03  0.91096985950E+02  0.80593947497E+02  0.20498189700E+03  0.00000000000E+00 0. -1.
         -2    1    5    5    0  503 -0.23450403274E+03  0.22938132184E+03  0.78278128504E+02  0.33724679032E+03  0.00000000000E+00 0.  1.
         -3    1    6    6    0  502  0.16845375794E+03  0.40426256077E+02  0.71442925981E+03  0.73513272136E+03  0.00000000000E+00 0.  1.
<mgrwt>
<rscale>  0 0.13948927E+04</rscale>
<asrwt>0</asrwt>
<pdfrwt beam="1">  1        1 0.24976695E+00 0.13948927E+04</pdfrwt>
<pdfrwt beam="2">  1       -1 0.46095651E-01 0.13948927E+04</pdfrwt>
<totfact> 0.24553772E+01</totfact>
</mgrwt>
</event>
<event>
12    1  0.4612066E-007  0.1788187E+04  0.7818608E-02  0.8712607E-01
          2   -1    0    0  501    0  0.00000000000E+00  0.00000000000E+00  0.13256774082E+04  0.13256774082E+04  0.00000000000E+00 0. -1.
         -2   -1    0    0    0  501 -0.00000000000E+00 -0.00000000000E+00 -0.60301483937E+03  0.60301483937E+03  0.00000000000E+00 0.  1.
         23    2    1    2    0    0  0.35935233551E+03 -0.53621989645E+03  0.12972702245E+03  0.66465527509E+03  0.90948644676E+02 0.  0.
        254    2    1    2    0    0 -0.35935233551E+03  0.53621989645E+03  0.59293554641E+03  0.12640369725E+04  0.91079691880E+03 0.  0.
        -24    2    4    4    0    0 -0.56858462534E+03  0.10504701420E+03  0.50194071587E+03  0.76969666163E+03  0.78518261012E+02 0.  0.
         24    2    4    4    0    0  0.20923228983E+03  0.43117288225E+03  0.90994830538E+02  0.49434031088E+03  0.80025485176E+02 0.  0.
         13    1    3    3    0    0  0.15367456338E+03 -0.24148497255E+03  0.12100771166E+02  0.28649134727E+03  0.00000000000E+00 0.  1.
        -13    1    3    3    0    0  0.20567777213E+03 -0.29473492390E+03  0.11762625128E+03  0.37816392782E+03  0.00000000000E+00 0. -1.
          4    1    6    6  502    0  0.10741092061E+03  0.13743662011E+03  0.44317348248E+02  0.17997210275E+03  0.00000000000E+00 0. -1.
          3    1    5    5  503    0 -0.42568600529E+03  0.90313478557E+02  0.33312390817E+03  0.54802977812E+03  0.00000000000E+00 0. -1.
         -4    1    5    5    0  503 -0.14289862005E+03  0.14733535638E+02  0.16881680770E+03  0.22166688351E+03  0.00000000000E+00 0.  1.
         -3    1    6    6    0  502  0.10182136922E+03  0.29373626215E+03  0.46677482290E+02  0.31436820813E+03  0.00000000000E+00 0.  1.
<mgrwt>
<rscale>  0 0.17881870E+04</rscale>
<asrwt>0</asrwt>
<pdfrwt beam="1">  1        2 0.20395037E+00 0.17881870E+04</pdfrwt>
<pdfrwt beam="2">  1       -2 0.92771514E-01 0.17881870E+04</pdfrwt>
<totfact> 0.14869261E+01</totfact>
</mgrwt>
</event>
<event>
12    1  0.4612066E-007  0.1394170E+04  0.7818608E-02  0.8958049E-01
          2   -1    0    0  501    0  0.00000000000E+00  0.00000000000E+00  0.38092926575E+03  0.38092926575E+03  0.00000000000E+00 0. -1.
         -2   -1    0    0    0  501 -0.00000000000E+00 -0.00000000000E+00 -0.12756373823E+04  0.12756373823E+04  0.00000000000E+00 0.  1.
         23    2    1    2    0    0 -0.30503242867E+03  0.85987876399E+02 -0.42889054121E+02  0.33246337640E+03  0.90850031675E+02 0.  0.
        254    2    1    2    0    0  0.30503242867E+03 -0.85987876399E+02 -0.85181906241E+03  0.13241032716E+04  0.96292007011E+03 0.  0.
        -24    2    4    4    0    0  0.51572683288E+03  0.15294394372E+03 -0.83314764096E+03  0.99507095255E+03  0.81640632688E+02 0.  0.
         24    2    4    4    0    0 -0.21069440421E+03 -0.23893182012E+03 -0.18671421447E+02  0.32903231907E+03  0.80206598155E+02 0.  0.
         11    1    3    3    0    0 -0.12662320340E+03  0.24743302553E+01  0.14015974229E+02  0.12742058501E+03  0.00000000000E+00 0. -1.
        -11    1    3    3    0    0 -0.17840922527E+03  0.83513546144E+02 -0.56905028350E+02  0.20504279139E+03  0.00000000000E+00 0.  1.
          2    1    6    6  502    0 -0.19011853756E+03 -0.21978676844E+03  0.73964404924E+01  0.29069913869E+03  0.00000000000E+00 0. -1.
          1    1    5    5  503    0  0.51819323871E+03  0.15488917739E+03 -0.82964124073E+03  0.99036330619E+03  0.00000000000E+00 0. -1.
         -2    1    5    5    0  503 -0.24664058260E+01 -0.19452336787E+01 -0.35064002245E+01  0.47076463650E+01  0.00000000000E+00 0.  1.
         -1    1    6    6    0  502 -0.20575866650E+02 -0.19145051678E+02 -0.26067861940E+02  0.38333180383E+02  0.00000000000E+00 0.  1.
<mgrwt>
<rscale>  0 0.13941702E+04</rscale>
<asrwt>0</asrwt>
<pdfrwt beam="1">  1        2 0.58604502E-01 0.13941702E+04</pdfrwt>
<pdfrwt beam="2">  1       -2 0.19625191E+00 0.13941702E+04</pdfrwt>
<totfact> 0.11507427E+01</totfact>
</mgrwt>
</event>
<event>
12    1  0.4612066E-007  0.1871635E+04  0.7818608E-02  0.8669106E-01
         -1   -1    0    0    0  501 -0.00000000000E+00  0.00000000000E+00  0.39582616249E+03  0.39582616249E+03  0.00000000000E+00 0.  1.
          1   -1    0    0  501    0  0.00000000000E+00 -0.00000000000E+00 -0.22124723245E+04  0.22124723245E+04  0.00000000000E+00 0. -1.
         23    2    1    2    0    0  0.42151467886E+02  0.41239104781E+02  0.29414195909E+03  0.31198490583E+03  0.85660255433E+02 0.  0.
        254    2    1    2    0    0 -0.42151467886E+02 -0.41239104781E+02 -0.21107881211E+04  0.22963135812E+04  0.90230380742E+03 0.  0.
        -24    2    4    4    0    0 -0.79102928710E+02  0.12849927671E+03  0.55216393395E+01  0.17140640352E+03  0.81119228415E+02 0.  0.
         24    2    4    4    0    0  0.36951460825E+02 -0.16973838149E+03 -0.21163097604E+04  0.21249071776E+04  0.79290497073E+02 0.  0.
         13    1    3    3    0    0  0.15275658079E+02  0.41489370900E+02  0.51566764873E+02  0.67925288861E+02  0.00000000000E+00 0. -1.
        -13    1    3    3    0    0  0.26875809807E+02 -0.25026611902E+00  0.24257519421E+03  0.24405961697E+03  0.00000000000E+00 0.  1.
          2    1    6    6  502    0  0.36229815838E+02 -0.14741126007E+03 -0.20328446648E+04  0.20385043808E+04  0.00000000000E+00 0. -1.
          1    1    5    5  503    0 -0.64650175084E+02  0.10979623738E+03  0.36406033886E+02  0.13251512436E+03  0.00000000000E+00 0. -1.
         -2    1    5    5    0  503 -0.14452753627E+02  0.18703039331E+02 -0.30884394547E+02  0.38891279153E+02  0.00000000000E+00 0.  1.
         -1    1    6    6    0  502  0.72164498657E+00 -0.22327121420E+02 -0.83465095580E+02  0.86402796845E+02  0.00000000000E+00 0.  1.
<mgrwt>
<rscale>  0 0.18716350E+04</rscale>
<asrwt>0</asrwt>
<pdfrwt beam="1">  1        1 0.34038036E+00 0.18716350E+04</pdfrwt>
<pdfrwt beam="2">  1       -1 0.60896333E-01 0.18716350E+04</pdfrwt>
<totfact> 0.54807377E+00</totfact>
</mgrwt>
</event>
<event>
12    1  0.4612066E-007  0.3038007E+04  0.7818608E-02  0.8232960E-01
         -1   -1    0    0    0  501 -0.00000000000E+00  0.00000000000E+00  0.12975882287E+04  0.12975882287E+04  0.00000000000E+00 0.  1.
          1   -1    0    0  501    0  0.00000000000E+00 -0.00000000000E+00 -0.17782001944E+04  0.17782001944E+04  0.00000000000E+00 0. -1.
         23    2    1    2    0    0 -0.84563827589E+03  0.10714697697E+04 -0.39547827586E+03  0.14237957635E+04  0.87405654955E+02 0.  0.
        254    2    1    2    0    0  0.84563827589E+03 -0.10714697697E+04 -0.85133689775E+02  0.16519926596E+04  0.92665011794E+03 0.  0.
        -24    2    4    4    0    0 -0.17829771690E+02 -0.70303369001E+03 -0.62933020233E+02  0.70966777476E+03  0.71368868837E+02 0.  0.
         24    2    4    4    0    0  0.86346804758E+03 -0.36843607972E+03 -0.22200669542E+02  0.94232488482E+03  0.78492705412E+02 0.  0.
         11    1    3    3    0    0 -0.37316730304E+03  0.45347929010E+03 -0.21351895132E+03  0.62489010648E+03  0.00000000000E+00 0. -1.
        -11    1    3    3    0    0 -0.47247097284E+03  0.61799047964E+03 -0.18195932454E+03  0.79890565707E+03  0.00000000000E+00 0.  1.
          2    1    6    6  502    0  0.95411491150E+02 -0.26716847733E+02  0.18073288769E+02  0.10071636592E+03  0.00000000000E+00 0. -1.
          1    1    5    5  503    0  0.12409510214E+02 -0.50189532148E+03 -0.65140412451E+02  0.50625703255E+03  0.00000000000E+00 0. -1.
         -2    1    5    5    0  503 -0.30239281903E+02 -0.20113836853E+03  0.22073922179E+01  0.20341074221E+03  0.00000000000E+00 0.  1.
         -1    1    6    6    0  502  0.76805655643E+03 -0.34171923199E+03 -0.40273958310E+02  0.84160851891E+03  0.00000000000E+00 0.  1.
<mgrwt>
<rscale>  0 0.30380070E+04</rscale>
<asrwt>0</asrwt>
<pdfrwt beam="1">  1        1 0.27356926E+00 0.30380070E+04</pdfrwt>
<pdfrwt beam="2">  1       -1 0.19962896E+00 0.30380070E+04</pdfrwt>
<totfact> 0.54142605E-01</totfact>
</mgrwt>
</event>
<event>
12    1  0.4612066E-007  0.1859181E+04  0.7818608E-02  0.8675446E-01
          2   -1    0    0  501    0  0.00000000000E+00  0.00000000000E+00  0.10538380632E+04  0.10538380632E+04  0.00000000000E+00 0. -1.
         -2   -1    0    0    0  501 -0.00000000000E+00 -0.00000000000E+00 -0.81999129197E+03  0.81999129197E+03  0.00000000000E+00 0.  1.
         23    2    1    2    0    0  0.65258699246E+03  0.23072010080E+03 -0.30154405938E+02  0.69892996480E+03  0.92153458227E+02 0.  0.
        254    2    1    2    0    0 -0.65258699246E+03 -0.23072010080E+03  0.26400117718E+03  0.11748993904E+04  0.91191579014E+03 0.  0.
        -24    2    4    4    0    0 -0.31644413328E+03 -0.48689365965E+03  0.41603446080E+03  0.71878540402E+03  0.79783827677E+02 0.  0.
         24    2    4    4    0    0 -0.33614285918E+03  0.25617355885E+03 -0.15203328362E+03  0.45611398635E+03  0.79428805801E+02 0.  0.
         13    1    3    3    0    0  0.20815572847E+03  0.60470607199E+02  0.31464632000E+02  0.21903315890E+03  0.00000000000E+00 0. -1.
        -13    1    3    3    0    0  0.44443126399E+03  0.17024949361E+03 -0.61619037937E+02  0.47989680590E+03  0.00000000000E+00 0.  1.
          4    1    6    6  502    0 -0.32429818706E+03  0.25098966222E+03 -0.12933484570E+03  0.42999142664E+03  0.00000000000E+00 0. -1.
          1    1    5    5  503    0 -0.31870609848E+03 -0.46276593450E+03  0.39769613480E+03  0.68839531010E+03  0.00000000000E+00 0. -1.
         -2    1    5    5    0  503  0.22619651945E+01 -0.24127725155E+02  0.18338326004E+02  0.30390093917E+02  0.00000000000E+00 0.  1.
         -3    1    6    6    0  502 -0.11844672116E+02  0.51838966262E+01 -0.22698437925E+02  0.26122559714E+02  0.00000000000E+00 0.  1.
<mgrwt>
<rscale>  0 0.18591805E+04</rscale>
<asrwt>0</asrwt>
<pdfrwt beam="1">  1        2 0.16212893E+00 0.18591805E+04</pdfrwt>
<pdfrwt beam="2">  1       -2 0.12615251E+00 0.18591805E+04</pdfrwt>
<totfact> 0.10249122E+01</totfact>
</mgrwt>
</event>
<event>
12    1  0.4612066E-007  0.2777252E+04  0.7818608E-02  0.8310366E-01
         -1   -1    0    0    0  501 -0.00000000000E+00  0.00000000000E+00  0.76918959321E+03  0.76918959321E+03  0.00000000000E+00 0.  1.
          1   -1    0    0  501    0  0.00000000000E+00 -0.00000000000E+00 -0.25069014659E+04  0.25069014659E+04  0.00000000000E+00 0. -1.
         23    2    1    2    0    0 -0.39883179639E+03 -0.26813238466E+03 -0.21226104982E+04  0.21782545993E+04  0.91411130840E+02 0.  0.
        254    2    1    2    0    0  0.39883179639E+03  0.26813238466E+03  0.38489862552E+03  0.10978364598E+04  0.90892032819E+03 0.  0.
        -24    2    4    4    0    0  0.31285430284E+03  0.54416277701E+03  0.30235988221E+02  0.63351236351E+03  0.80204470206E+02 0.  0.
         24    2    4    4    0    0  0.85977493543E+02 -0.27603039235E+03  0.35466263730E+03  0.46432409628E+03  0.78907370926E+02 0.  0.
         11    1    3    3    0    0 -0.27501173254E+03 -0.17115918831E+03 -0.12324748143E+04  0.12743316242E+04  0.00000000000E+00 0.  1.
        -11    1    3    3    0    0 -0.12382006384E+03 -0.96973196352E+02 -0.89013568393E+03  0.90392297505E+03  0.00000000000E+00 0. -1.
          4    1    6    6  502    0  0.49554727503E+02 -0.50979610104E+02  0.72068384332E+02  0.10123459727E+03  0.00000000000E+00 0. -1.
          1    1    5    5  503    0  0.71652655872E+02  0.11412406798E+03  0.39295455977E+02  0.14036573245E+03  0.00000000000E+00 0. -1.
         -2    1    5    5    0  503  0.24120164697E+03  0.43003870903E+03 -0.90594677566E+01  0.49314663106E+03  0.00000000000E+00 0.  1.
         -3    1    6    6    0  502  0.36422766040E+02 -0.22505078225E+03  0.28259425297E+03  0.36308949901E+03  0.00000000000E+00 0.  1.
<mgrwt>
<rscale>  0 0.27772523E+04</rscale>
<asrwt>0</asrwt>
<pdfrwt beam="1">  1        1 0.38567715E+00 0.27772523E+04</pdfrwt>
<pdfrwt beam="2">  1       -1 0.11833686E+00 0.27772523E+04</pdfrwt>
<totfact> 0.74418713E-01</totfact>
</mgrwt>
</event>
<event>
12    1  0.4612066E-007  0.3054304E+04  0.7818608E-02  0.8228392E-01
          2   -1    0    0  501    0  0.00000000000E+00  0.00000000000E+00  0.14781047162E+04  0.14781047162E+04  0.00000000000E+00 0.  1.
         -2   -1    0    0    0  501 -0.00000000000E+00 -0.00000000000E+00 -0.15778264603E+04  0.15778264603E+04  0.00000000000E+00 0. -1.
         23    2    1    2    0    0 -0.79040197884E+03  0.96197077837E+03 -0.67178799520E+03  0.14175732521E+04  0.89954143002E+02 0.  0.
        254    2    1    2    0    0  0.79040197884E+03 -0.96197077837E+03  0.57206625117E+03  0.16383579245E+04  0.89823929238E+03 0.  0.
        -24    2    4    4    0    0  0.11396652893E+03 -0.81882972359E+03  0.22449017973E+03  0.86022529024E+03  0.78238246607E+02 0.  0.
         24    2    4    4    0    0  0.67643544991E+03 -0.14314105479E+03  0.34757607144E+03  0.77813263424E+03  0.81406336140E+02 0.  0.
         11    1    3    3    0    0 -0.41244316336E+03  0.50782791366E+03 -0.30206617757E+03  0.72058485172E+03  0.00000000000E+00 0.  1.
        -11    1    3    3    0    0 -0.37795881548E+03  0.45414286471E+03 -0.36972181763E+03  0.69698840034E+03  0.00000000000E+00 0. -1.
          4    1    6    6  502    0  0.60878738524E+03 -0.12726867797E+03  0.33838490578E+03  0.70804218891E+03  0.00000000000E+00 0. -1.
          1    1    5    5  503    0  0.11697564543E+03 -0.81175584137E+03  0.22873979335E+03  0.85144156622E+03  0.00000000000E+00 0. -1.
         -2    1    5    5    0  503 -0.30091165083E+01 -0.70738822155E+01 -0.42496136214E+01  0.87837240218E+01  0.00000000000E+00 0.  1.
         -3    1    6    6    0  502  0.67648064675E+02 -0.15872376816E+02  0.91911656608E+01  0.70090445328E+02  0.00000000000E+00 0.  1.
<mgrwt>
<rscale>  0 0.30543037E+04</rscale>
<asrwt>0</asrwt>
<pdfrwt beam="1">  1        2 0.22740073E+00 0.30543037E+04</pdfrwt>
<pdfrwt beam="2">  1       -2 0.24274253E+00 0.30543037E+04</pdfrwt>
<totfact> 0.79295863E-01</totfact>
</mgrwt>
</event>
<event>
12    1  0.4612066E-007  0.2426604E+04  0.7818608E-02  0.8429610E-01
          2   -1    0    0  501    0  0.00000000000E+00  0.00000000000E+00  0.11399763747E+04  0.11399763747E+04  0.00000000000E+00 0. -1.
         -2   -1    0    0    0  501 -0.00000000000E+00 -0.00000000000E+00 -0.12913438386E+04  0.12913438386E+04  0.00000000000E+00 0.  1.
         23    2    1    2    0    0  0.15969452555E+02  0.29736687152E+03  0.93504948900E+03  0.98565257043E+03  0.92257048703E+02 0.  0.
        254    2    1    2    0    0 -0.15969452555E+02 -0.29736687152E+03 -0.10864169530E+04  0.14456676429E+04  0.90607453242E+03 0.  0.
        -24    2    4    4    0    0  0.24131648903E+03 -0.25212429929E+03 -0.35238109285E+02  0.35968494902E+03  0.79569014308E+02 0.  0.
         24    2    4    4    0    0 -0.25728594159E+03 -0.45242572233E+02 -0.10511788437E+04  0.10859826939E+04  0.78348604843E+02 0.  0.
         11    1    3    3    0    0  0.46125433383E+02  0.20521380690E+03  0.55770350062E+03  0.59604820002E+03  0.00000000000E+00 0.  1.
        -11    1    3    3    0    0 -0.30155980828E+02  0.92153064623E+02  0.37734598838E+03  0.38960437041E+03  0.00000000000E+00 0. -1.
          4    1    6    6  502    0 -0.12173790910E+03 -0.53735734885E+02 -0.61123585886E+03  0.62555329339E+03  0.00000000000E+00 0. -1.
          1    1    5    5  503    0  0.88827332287E+02 -0.93434234092E+02  0.25411984917E+02  0.13140022846E+03  0.00000000000E+00 0. -1.
         -2    1    5    5    0  503  0.15248915675E+03 -0.15869006519E+03 -0.60650094201E+02  0.22828472056E+03  0.00000000000E+00 0.  1.
         -3    1    6    6    0  502 -0.13554803249E+03  0.84931626518E+01 -0.43994298482E+03  0.46042940047E+03  0.00000000000E+00 0.  1.
<mgrwt>
<rscale>  0 0.24266038E+04</rscale>
<asrwt>0</asrwt>
<pdfrwt beam="1">  1        2 0.17538098E+00 0.24266038E+04</pdfrwt>
<pdfrwt beam="2">  1       -2 0.19866828E+00 0.24266038E+04</pdfrwt>
<totfact> 0.25069996E+00</totfact>
</mgrwt>
</event>
<event>
12    1  0.4612066E-007  0.1099705E+04  0.7818608E-02  0.9205480E-01
          1   -1    0    0  501    0  0.00000000000E+00  0.00000000000E+00  0.18957119959E+03  0.18957119959E+03  0.00000000000E+00 0. -1.
         -1   -1    0    0    0  501 -0.00000000000E+00 -0.00000000000E+00 -0.15948505434E+04  0.15948505434E+04  0.00000000000E+00 0.  1.
         23    2    1    2    0    0  0.14297058346E+03 -0.42065211609E+02 -0.85892591659E+02  0.19427721157E+03  0.90310729544E+02 0.  0.
        254    2    1    2    0    0 -0.14297058346E+03  0.42065211609E+02 -0.13193867521E+04  0.15901445314E+04  0.87496751899E+03 0.  0.
        -24    2    4    4    0    0  0.11177471916E+03 -0.35541255588E+03 -0.78545909925E+03  0.87289844050E+03  0.78702084562E+02 0.  0.
         24    2    4    4    0    0 -0.25474530261E+03  0.39747776748E+03 -0.53392765289E+03  0.71724609091E+03  0.80495164814E+02 0.  0.
         11    1    3    3    0    0  0.80605055628E+02 -0.41414899476E+02 -0.31701197101E+01  0.90677552626E+02  0.00000000000E+00 0. -1.
        -11    1    3    3    0    0  0.62365527828E+02 -0.65031213263E+00 -0.82722471949E+02  0.10359965894E+03  0.00000000000E+00 0.  1.
          4    1    6    6  502    0 -0.21987348998E+03  0.31201271001E+03 -0.46744523764E+03  0.60349095520E+03  0.00000000000E+00 0. -1.
          1    1    5    5  503    0  0.69599562639E+02 -0.21163020236E+03 -0.37805819068E+03  0.43881594913E+03  0.00000000000E+00 0. -1.
         -2    1    5    5    0  503  0.42175156517E+02 -0.14378235352E+03 -0.40740090857E+03  0.43408249137E+03  0.00000000000E+00 0.  1.
         -3    1    6    6    0  502 -0.34871812627E+02  0.85465057470E+02 -0.66482415247E+02  0.11375513571E+03  0.00000000000E+00 0.  1.
<mgrwt>
<rscale>  0 0.10997049E+04</rscale>
<asrwt>0</asrwt>
<pdfrwt beam="1">  1        1 0.29164799E-01 0.10997049E+04</pdfrwt>
<pdfrwt beam="2">  1       -1 0.24536163E+00 0.10997049E+04</pdfrwt>
<totfact> 0.11930926E+01</totfact>
</mgrwt>
</event>
<event>
12    1  0.4612066E-007  0.1262109E+04  0.7818608E-02  0.9060165E-01
          1   -1    0    0  501    0  0.00000000000E+00  0.00000000000E+00  0.70084797346E+03  0.70084797346E+03  0.00000000000E+00 0. -1.
         -1   -1    0    0    0  501 -0.00000000000E+00 -0.00000000000E+00 -0.56821103020E+03  0.56821103020E+03  0.00000000000E+00 0.  1.
         23    2    1    2    0    0 -0.11589800451E+03 -0.18728359930E+03 -0.17995118584E+03  0.29885453195E+03  0.91782939422E+02 0.  0.
        254    2    1    2    0    0  0.11589800451E+03  0.18728359930E+03  0.31258812910E+03  0.97020447170E+03  0.89167139936E+03 0.  0.
        -24    2    4    4    0    0 -0.22014606378E+03  0.37112805050E+02  0.49752002861E+03  0.55067881429E+03  0.76676775783E+02 0.  0.
         24    2    4    4    0    0  0.33604406829E+03  0.15017079425E+03 -0.18493189952E+03  0.41952565740E+03  0.79530412325E+02 0.  0.
         11    1    3    3    0    0 -0.71651294968E+02 -0.17772006381E+03 -0.13064386069E+03  0.23191840696E+03  0.00000000000E+00 0.  1.
        -11    1    3    3    0    0 -0.44246709537E+02 -0.95635354931E+01 -0.49307325144E+02  0.66936124991E+02  0.00000000000E+00 0. -1.
          4    1    6    6  502    0  0.25826250033E+02  0.38712291323E+02 -0.16679977832E+02  0.49435395728E+02  0.00000000000E+00 0. -1.
          1    1    5    5  503    0 -0.70277246140E+02 -0.86808051828E+01  0.93180176668E+02  0.11703329880E+03  0.00000000000E+00 0. -1.
         -2    1    5    5    0  503 -0.14986881764E+03  0.45793610232E+02  0.40433985194E+03  0.43364551550E+03  0.00000000000E+00 0.  1.
         -3    1    6    6    0  502  0.31021781825E+03  0.11145850293E+03 -0.16825192168E+03  0.37009026168E+03  0.00000000000E+00 0.  1.
<mgrwt>
<rscale>  0 0.12621086E+04</rscale>
<asrwt>0</asrwt>
<pdfrwt beam="1">  1        1 0.10782276E+00 0.12621086E+04</pdfrwt>
<pdfrwt beam="2">  1       -1 0.87417082E-01 0.12621086E+04</pdfrwt>
<totfact> 0.34524324E+01</totfact>
</mgrwt>
</event>
<event>
12    1  0.4612066E-007  0.1274571E+04  0.7818608E-02  0.9049977E-01
          2   -1    0    0  501    0  0.00000000000E+00  0.00000000000E+00  0.89296969083E+03  0.89296969083E+03  0.00000000000E+00 0. -1.
         -2   -1    0    0    0  501 -0.00000000000E+00 -0.00000000000E+00 -0.45481148292E+03  0.45481148292E+03  0.00000000000E+00 0.  1.
         23    2    1    2    0    0  0.30341273444E+02 -0.13026482816E+03 -0.19257590461E+03  0.25030582782E+03  0.87624255068E+02 0.  0.
        254    2    1    2    0    0 -0.30341273444E+02  0.13026482816E+03  0.63073411252E+03  0.10974753459E+04  0.88810871852E+03 0.  0.
        -24    2    4    4    0    0 -0.42780062147E+03  0.21186748842E+03  0.32459235820E+03  0.58272983452E+03  0.79452228777E+02 0.  0.
         24    2    4    4    0    0  0.39745934803E+03 -0.81602660265E+02  0.30614175432E+03  0.51474551141E+03  0.81284932669E+02 0.  0.
         13    1    3    3    0    0  0.34903813957E+01 -0.33972435208E+02 -0.12515051264E+03  0.12972648123E+03  0.00000000000E+00 0.  1.
        -13    1    3    3    0    0  0.26850892048E+02 -0.96292392947E+02 -0.67425391963E+02  0.12057934659E+03  0.00000000000E+00 0. -1.
          2    1    6    6  502    0  0.16054012743E+03 -0.46610181039E+01  0.85340092341E+02  0.18187300230E+03  0.00000000000E+00 0. -1.
          1    1    5    5  503    0 -0.10937052179E+03  0.41755520856E+02  0.12053841974E+03  0.16803257182E+03  0.00000000000E+00 0. -1.
         -4    1    5    5    0  503 -0.31843009968E+03  0.17011196756E+03  0.20405393846E+03  0.41469726270E+03  0.00000000000E+00 0.  1.
         -3    1    6    6    0  502  0.23691922060E+03 -0.76941642161E+02  0.22080166198E+03  0.33287250911E+03  0.00000000000E+00 0.  1.
<mgrwt>
<rscale>  0 0.12745711E+04</rscale>
<asrwt>0</asrwt>
<pdfrwt beam="1">  1        2 0.13737995E+00 0.12745711E+04</pdfrwt>
<pdfrwt beam="2">  1       -2 0.69970997E-01 0.12745711E+04</pdfrwt>
<totfact> 0.54177617E+01</totfact>
</mgrwt>
</event>
<event>
12    1  0.4612066E-007  0.1943978E+04  0.7818608E-02  0.8633270E-01
         -2   -1    0    0    0  501 -0.00000000000E+00  0.00000000000E+00  0.34724694404E+03  0.34724694404E+03  0.00000000000E+00 0.  1.
          2   -1    0    0  501    0  0.00000000000E+00 -0.00000000000E+00 -0.27207227805E+04  0.27207227805E+04  0.00000000000E+00 0. -1.
         23    2    1    2    0    0  0.62183885458E+02 -0.65289296043E+03 -0.15163337236E+04  0.16546217523E+04  0.91482940300E+02 0.  0.
        254    2    1    2    0    0 -0.62183885458E+02  0.65289296043E+03 -0.85714211289E+03  0.14133479723E+04  0.91253703254E+03 0.  0.
        -24    2    4    4    0    0  0.20645289282E+03 -0.60916009395E+02  0.40138457271E+02  0.23304568924E+03  0.79784963270E+02 0.  0.
         24    2    4    4    0    0 -0.26863677828E+03  0.71380896982E+03 -0.89728057016E+03  0.11803022831E+04  0.79448686488E+02 0.  0.
         11    1    3    3    0    0  0.46280648208E+02 -0.13214434798E+03 -0.36333533415E+03  0.38937975312E+03  0.00000000000E+00 0.  1.
        -11    1    3    3    0    0  0.15903237249E+02 -0.52074861245E+03 -0.11529983894E+04  0.12652419991E+04  0.00000000000E+00 0. -1.
          2    1    6    6  502    0 -0.14942654848E+03  0.49548494358E+03 -0.58512128585E+03  0.78115334081E+03  0.00000000000E+00 0. -1.
          1    1    5    5  503    0  0.14312870697E+03 -0.17181373803E+02  0.55675491848E+02  0.15453409578E+03  0.00000000000E+00 0. -1.
         -2    1    5    5    0  503  0.63324185855E+02 -0.43734635592E+02 -0.15537034578E+02  0.78511593462E+02  0.00000000000E+00 0.  1.
         -1    1    6    6    0  502 -0.11921022980E+03  0.21832402624E+03 -0.31215928432E+03  0.39914894226E+03  0.00000000000E+00 0.  1.
<mgrwt>
<rscale>  0 0.19439781E+04</rscale>
<asrwt>0</asrwt>
<pdfrwt beam="1">  1        2 0.41857273E+00 0.19439781E+04</pdfrwt>
<pdfrwt beam="2">  1       -2 0.53422608E-01 0.19439781E+04</pdfrwt>
<totfact> 0.79663110E+00</totfact>
</mgrwt>
</event>
<event>
12    1  0.4612066E-007  0.1870632E+04  0.7818608E-02  0.8669615E-01
          1   -1    0    0  501    0  0.00000000000E+00  0.00000000000E+00  0.16813957219E+04  0.16813957219E+04  0.00000000000E+00 0. -1.
         -1   -1    0    0    0  501 -0.00000000000E+00 -0.00000000000E+00 -0.52029130828E+03  0.52029130828E+03  0.00000000000E+00 0.  1.
         23    2    1    2    0    0  0.75972304678E+02 -0.62771117707E+03  0.60259842303E+02  0.64202826423E+03  0.93679936941E+02 0.  0.
        254    2    1    2    0    0 -0.75972304678E+02  0.62771117707E+03  0.11008445714E+04  0.15596587660E+04  0.90602625962E+03 0.  0.
        -24    2    4    4    0    0 -0.43211878090E+03  0.10743280975E+03  0.32514402738E+03  0.55707858583E+03  0.79683516651E+02 0.  0.
         24    2    4    4    0    0  0.35614647622E+03  0.52027836732E+03  0.77570054397E+03  0.10025801802E+04  0.76979163999E+02 0.  0.
         11    1    3    3    0    0  0.26311579321E+02 -0.38125742221E+03  0.77825223231E+02  0.39000805961E+03  0.00000000000E+00 0. -1.
        -11    1    3    3    0    0  0.49660725357E+02 -0.24645375486E+03 -0.17565380929E+02  0.25202020462E+03  0.00000000000E+00 0.  1.
          4    1    6    6  502    0  0.61721444131E+02  0.90740013354E+02  0.18504382683E+03  0.21513833814E+03  0.00000000000E+00 0. -1.
          3    1    5    5  503    0 -0.39765226997E+03  0.93818730766E+02  0.26682091114E+03  0.48797815594E+03  0.00000000000E+00 0. -1.
         -4    1    5    5    0  503 -0.34466510934E+02  0.13614078984E+02  0.58323116238E+02  0.69100429885E+02  0.00000000000E+00 0.  1.
         -3    1    6    6    0  502  0.29442503209E+03  0.42953835397E+03  0.59065671714E+03  0.78744184201E+03  0.00000000000E+00 0.  1.
<mgrwt>
<rscale>  0 0.18706315E+04</rscale>
<asrwt>0</asrwt>
<pdfrwt beam="1">  1        1 0.25867626E+00 0.18706315E+04</pdfrwt>
<pdfrwt beam="2">  1       -1 0.80044818E-01 0.18706315E+04</pdfrwt>
<totfact> 0.71710676E+00</totfact>
</mgrwt>
</event>
<event>
12    1  0.4612066E-007  0.3514217E+04  0.7818608E-02  0.8110429E-01
          1   -1    0    0  501    0  0.00000000000E+00  0.00000000000E+00  0.33003554653E+04  0.33003554653E+04  0.00000000000E+00 0. -1.
         -1   -1    0    0    0  501 -0.00000000000E+00 -0.00000000000E+00 -0.93548390058E+03  0.93548390058E+03  0.00000000000E+00 0.  1.
         23    2    1    2    0    0  0.10257954374E+04 -0.71661975370E+03  0.23132354348E+04  0.26315653784E+04  0.90983588469E+02 0.  0.
        254    2    1    2    0    0 -0.10257954374E+04  0.71661975370E+03  0.51636129974E+02  0.16042739875E+04  0.10026108848E+04 0.  0.
        -24    2    4    4    0    0 -0.70228780571E+03  0.32142336482E+03  0.49658372518E+03  0.92220797728E+03  0.85738064688E+02 0.  0.
         24    2    4    4    0    0 -0.32350763166E+03  0.39519638888E+03 -0.44494759521E+03  0.68206601024E+03  0.79989413761E+02 0.  0.
         11    1    3    3    0    0  0.45180579376E+03 -0.36040607958E+03  0.10108535650E+04  0.11644079815E+04  0.00000000000E+00 0.  1.
        -11    1    3    3    0    0  0.57398964361E+03 -0.35621367413E+03  0.13023818698E+04  0.14671573969E+04  0.00000000000E+00 0. -1.
          4    1    6    6  502    0 -0.22650399969E+02  0.36290021249E+01 -0.23902497690E+02  0.33129136286E+02  0.00000000000E+00 0. -1.
          1    1    5    5  503    0 -0.35031264465E+03  0.20671220127E+03  0.26877277941E+03  0.48753224519E+03  0.00000000000E+00 0. -1.
         -2    1    5    5    0  503 -0.35197516106E+03  0.11471116356E+03  0.22781094577E+03  0.43467573208E+03  0.00000000000E+00 0.  1.
         -3    1    6    6    0  502 -0.30085723169E+03  0.39156738675E+03 -0.42104509752E+03  0.64893687395E+03  0.00000000000E+00 0.  1.
<mgrwt>
<rscale>  0 0.35142165E+04</rscale>
<asrwt>0</asrwt>
<pdfrwt beam="1">  1        1 0.50774699E+00 0.35142165E+04</pdfrwt>
<pdfrwt beam="2">  1       -1 0.14392060E+00 0.35142165E+04</pdfrwt>
<totfact> 0.11321088E-01</totfact>
</mgrwt>
</event>
<event>
12    1  0.4612066E-007  0.1784737E+04  0.7818608E-02  0.8714459E-01
         -1   -1    0    0    0  501 -0.00000000000E+00  0.00000000000E+00  0.48480767971E+03  0.48480767971E+03  0.00000000000E+00 0.  1.
          1   -1    0    0  501    0  0.00000000000E+00 -0.00000000000E+00 -0.16425512997E+04  0.16425512997E+04  0.00000000000E+00 0. -1.
         23    2    1    2    0    0  0.21865614168E+03 -0.20228121622E+03 -0.11175061174E+04  0.11600111307E+04  0.89876037161E+02 0.  0.
        254    2    1    2    0    0 -0.21865614168E+03  0.20228121622E+03 -0.40237502561E+02  0.96734784873E+03  0.91946430333E+03 0.  0.
        -24    2    4    4    0    0 -0.30429441001E+03 -0.29434417497E+03  0.91286186128E+02  0.43988209566E+03  0.77003305125E+02 0.  0.
         24    2    4    4    0    0  0.85638268326E+02  0.49662539119E+03 -0.13152368869E+03  0.52746575307E+03  0.83372344326E+02 0.  0.
         11    1    3    3    0    0  0.21810373207E+03 -0.16473721817E+03 -0.96630635840E+03  0.10042188842E+04  0.00000000000E+00 0. -1.
        -11    1    3    3    0    0  0.55240960839E+00 -0.37543998051E+02 -0.15119975901E+03  0.15579224650E+03  0.00000000000E+00 0.  1.
          4    1    6    6  502    0  0.35989143440E+02  0.56977005657E+02 -0.28601166445E+02  0.73209455272E+02  0.00000000000E+00 0. -1.
          3    1    5    5  503    0 -0.72403447876E+02 -0.32120720671E+02  0.50645280272E+01  0.79370330760E+02  0.00000000000E+00 0. -1.
         -4    1    5    5    0  503 -0.23189096213E+03 -0.26222345430E+03  0.86221658101E+02  0.36051176490E+03  0.00000000000E+00 0.  1.
         -3    1    6    6    0  502  0.49649124886E+02  0.43964838554E+03 -0.10292252224E+03  0.45425629780E+03  0.00000000000E+00 0.  1.
<mgrwt>
<rscale>  0 0.17847369E+04</rscale>
<asrwt>0</asrwt>
<pdfrwt beam="1">  1        1 0.25270020E+00 0.17847369E+04</pdfrwt>
<pdfrwt beam="2">  1       -1 0.74585797E-01 0.17847369E+04</pdfrwt>
<totfact> 0.89156050E+00</totfact>
</mgrwt>
</event>
<event>
12    1  0.4612066E-007  0.1377655E+04  0.7818608E-02  0.8970154E-01
         -1   -1    0    0    0  501 -0.00000000000E+00  0.00000000000E+00  0.48094951280E+03  0.48094951280E+03  0.00000000000E+00 0.  1.
          1   -1    0    0  501    0  0.00000000000E+00 -0.00000000000E+00 -0.98655556015E+03  0.98655556015E+03  0.00000000000E+00 0. -1.
         23    2    1    2    0    0 -0.31644572727E+03  0.12673430491E+03 -0.13980050852E+03  0.38003142889E+03  0.93167711235E+02 0.  0.
        254    2    1    2    0    0  0.31644572727E+03 -0.12673430491E+03 -0.36580553884E+03  0.10874736441E+04  0.96570479543E+03 0.  0.
        -24    2    4    4    0    0  0.54315109903E+03  0.17240184362E+01 -0.53437716132E+03  0.76635603147E+03  0.82015412038E+02 0.  0.
         24    2    4    4    0    0 -0.22670537176E+03 -0.12845832335E+03  0.16857162248E+03  0.32111761259E+03  0.82481893677E+02 0.  0.
         11    1    3    3    0    0 -0.25438968279E+03  0.13428416523E+03 -0.94324508136E+02  0.30272670939E+03  0.00000000000E+00 0.  1.
        -11    1    3    3    0    0 -0.62056044479E+02 -0.75498603177E+01 -0.45476000384E+02  0.77304719507E+02  0.00000000000E+00 0. -1.
          4    1    6    6  502    0 -0.19636531835E+03 -0.89268569869E+02  0.16472214481E+03  0.27140670738E+03  0.00000000000E+00 0. -1.
          3    1    5    5  503    0  0.47970792246E+03 -0.20161300060E+02 -0.44542879410E+03  0.65492975158E+03  0.00000000000E+00 0. -1.
         -4    1    5    5    0  503  0.63443176575E+02  0.21885318497E+02 -0.88948367222E+02  0.11142627989E+03  0.00000000000E+00 0.  1.
         -3    1    6    6    0  502 -0.30340053406E+02 -0.39189753477E+02  0.38494776729E+01  0.49710905208E+02  0.00000000000E+00 0.  1.
<mgrwt>
<rscale>  0 0.13776551E+04</rscale>
<asrwt>0</asrwt>
<pdfrwt beam="1">  1        1 0.15177778E+00 0.13776551E+04</pdfrwt>
<pdfrwt beam="2">  1       -1 0.73992233E-01 0.13776551E+04</pdfrwt>
<totfact> 0.27856775E+01</totfact>
</mgrwt>
</event>
<event>
12    1  0.4612066E-007  0.1580202E+04  0.7818608E-02  0.8832804E-01
          2   -1    0    0  501    0  0.00000000000E+00  0.00000000000E+00  0.10104450256E+04  0.10104450256E+04  0.00000000000E+00 0. -1.
         -2   -1    0    0    0  501 -0.00000000000E+00 -0.00000000000E+00 -0.61780632339E+03  0.61780632339E+03  0.00000000000E+00 0.  1.
         23    2    1    2    0    0 -0.22981057317E+03  0.46000771168E+03  0.76339551434E+01  0.52267417165E+03  0.93327477710E+02 0.  0.
        254    2    1    2    0    0  0.22981057317E+03 -0.46000771168E+03  0.38500474706E+03  0.11055771773E+04  0.89980678229E+03 0.  0.
        -24    2    4    4    0    0 -0.87793995253E+01 -0.19204959393E+03  0.63024160665E+03  0.66369558358E+03  0.79543827708E+02 0.  0.
         24    2    4    4    0    0  0.23858997270E+03 -0.26795811774E+03 -0.24523685959E+03  0.44188159376E+03  0.79946842777E+02 0.  0.
         13    1    3    3    0    0 -0.86057624404E+02  0.22757594294E+03  0.43090371818E+02  0.24709007400E+03  0.00000000000E+00 0. -1.
        -13    1    3    3    0    0 -0.14375294877E+03  0.23243176874E+03 -0.35456416674E+02  0.27558409765E+03  0.00000000000E+00 0.  1.
          2    1    6    6  502    0  0.35460249023E+02 -0.89012556252E+02 -0.49699753444E+02  0.10793854698E+03  0.00000000000E+00 0. -1.
          3    1    5    5  503    0  0.23989726711E+02 -0.78158929596E+02  0.17301225472E+03  0.19135716749E+03  0.00000000000E+00 0. -1.
         -4    1    5    5    0  503 -0.32769126236E+02 -0.11389066434E+03  0.45722935193E+03  0.47233841610E+03  0.00000000000E+00 0.  1.
         -1    1    6    6    0  502  0.20312972367E+03 -0.17894556149E+03 -0.19553710614E+03  0.33394304678E+03  0.00000000000E+00 0.  1.
<mgrwt>
<rscale>  0 0.15802017E+04</rscale>
<asrwt>0</asrwt>
<pdfrwt beam="1">  1        2 0.15545308E+00 0.15802017E+04</pdfrwt>
<pdfrwt beam="2">  1       -2 0.95047127E-01 0.15802017E+04</pdfrwt>
<totfact> 0.22179170E+01</totfact>
</mgrwt>
</event>
<event>
12    1  0.4612066E-007  0.1793942E+04  0.7818608E-02  0.8709528E-01
          1   -1    0    0  501    0  0.00000000000E+00  0.00000000000E+00  0.25657627763E+04  0.25657627763E+04  0.00000000000E+00 0. -1.
         -1   -1    0    0    0  501 -0.00000000000E+00 -0.00000000000E+00 -0.31357402075E+03  0.31357402075E+03  0.00000000000E+00 0.  1.
         23    2    1    2    0    0 -0.20077982034E+03 -0.35800531042E+03  0.43423690742E+01  0.42080175242E+03  0.92600864623E+02 0.  0.
        254    2    1    2    0    0  0.20077982034E+03  0.35800531042E+03  0.22478463865E+04  0.24585350447E+04  0.90724905620E+03 0.  0.
        -24    2    4    4    0    0  0.22983414779E+03  0.51787045041E+03  0.71772279242E+03  0.91783925783E+03  0.79305469865E+02 0.  0.
         24    2    4    4    0    0 -0.29054327450E+02 -0.15986513999E+03  0.15301235941E+04  0.15406957868E+04  0.77873470993E+02 0.  0.
         13    1    3    3    0    0  0.63672803991E+01 -0.33811818131E+02 -0.99435566955E+01  0.35814181895E+02  0.00000000000E+00 0. -1.
        -13    1    3    3    0    0 -0.20714710074E+03 -0.32419349229E+03  0.14285925770E+02  0.38498757053E+03  0.00000000000E+00 0.  1.
          4    1    6    6  502    0  0.14654879796E+02 -0.22776477598E+01  0.20156402110E+03  0.20210890080E+03  0.00000000000E+00 0. -1.
          3    1    5    5  503    0  0.43997383140E+02  0.74761813375E+02  0.70682679645E+02  0.11189789839E+03  0.00000000000E+00 0. -1.
         -4    1    5    5    0  503  0.18583676465E+03  0.44310863703E+03  0.64704011278E+03  0.80594135944E+03  0.00000000000E+00 0.  1.
         -3    1    6    6    0  502 -0.43709207246E+02 -0.15758749223E+03  0.13285595730E+04  0.13385868860E+04  0.00000000000E+00 0.  1.
<mgrwt>
<rscale>  0 0.17939415E+04</rscale>
<asrwt>0</asrwt>
<pdfrwt beam="1">  1        1 0.39473272E+00 0.17939415E+04</pdfrwt>
<pdfrwt beam="2">  1       -1 0.48242159E-01 0.17939415E+04</pdfrwt>
<totfact> 0.49519267E+00</totfact>
</mgrwt>
</event>
<event>
12    1  0.4612066E-007  0.2946397E+04  0.7818608E-02  0.8259205E-01
          2   -1    0    0  501    0  0.00000000000E+00  0.00000000000E+00  0.10873491243E+04  0.10873491243E+04  0.00000000000E+00 0. -1.
         -2   -1    0    0    0  501 -0.00000000000E+00 -0.00000000000E+00 -0.19959682290E+04  0.19959682290E+04  0.00000000000E+00 0.  1.
         23    2    1    2    0    0  0.11859361054E+04  0.22117228404E+03  0.18441584058E+03  0.12248450367E+04  0.10428104569E+03 0.  0.
        254    2    1    2    0    0 -0.11859361054E+04 -0.22117228404E+03 -0.10930349453E+04  0.18584723165E+04  0.89656697147E+03 0.  0.
        -24    2    4    4    0    0 -0.30518389190E+03 -0.12089199421E+03 -0.88088432450E+03  0.94348365264E+03  0.80325136186E+02 0.  0.
         24    2    4    4    0    0 -0.88075221349E+03 -0.10028028983E+03 -0.21215062076E+03  0.91498866386E+03  0.80098508196E+02 0.  0.
         13    1    3    3    0    0  0.71369182626E+03  0.18448225668E+03  0.11847604764E+03  0.74660987120E+03  0.00000000000E+00 0.  1.
        -13    1    3    3    0    0  0.47224427913E+03  0.36690027366E+02  0.65939792940E+02  0.47823516555E+03  0.00000000000E+00 0. -1.
          4    1    6    6  502    0 -0.79953326226E+03 -0.93225415284E+02 -0.16806708229E+03  0.82230831180E+03  0.00000000000E+00 0. -1.
          3    1    5    5  503    0 -0.29403720262E+03 -0.12863387198E+03 -0.86482976741E+03  0.92246142257E+03  0.00000000000E+00 0. -1.
         -4    1    5    5    0  503 -0.11146689289E+02  0.77418777674E+01 -0.16054557094E+02  0.21022230066E+02  0.00000000000E+00 0.  1.
         -3    1    6    6    0  502 -0.81218951231E+02 -0.70548745501E+01 -0.44083538470E+02  0.92680352060E+02  0.00000000000E+00 0.  1.
<mgrwt>
<rscale>  0 0.29463973E+04</rscale>
<asrwt>0</asrwt>
<pdfrwt beam="1">  1        2 0.16728448E+00 0.29463973E+04</pdfrwt>
<pdfrwt beam="2">  1       -2 0.30707203E+00 0.29463973E+04</pdfrwt>
<totfact> 0.54853818E-01</totfact>
</mgrwt>
</event>
<event>
12    1  0.4612066E-007  0.1360345E+04  0.7818608E-02  0.8983034E-01
         -2   -1    0    0    0  501 -0.00000000000E+00  0.00000000000E+00  0.12592902586E+03  0.12592902586E+03  0.00000000000E+00 0. -1.
          2   -1    0    0  501    0  0.00000000000E+00 -0.00000000000E+00 -0.36737702680E+04  0.36737702680E+04  0.00000000000E+00 0.  1.
         23    2    1    2    0    0 -0.52732881575E+02  0.16668014254E+03 -0.19127292622E+04  0.19228885122E+04  0.91673187525E+02 0.  0.
        254    2    1    2    0    0  0.52732881575E+02 -0.16668014254E+03 -0.16351119799E+04  0.18768107816E+04  0.90457973465E+03 0.  0.
        -24    2    4    4    0    0 -0.36915399694E+03 -0.22554660370E+03 -0.52522053029E+03  0.68521574399E+03  0.80734543235E+02 0.  0.
         24    2    4    4    0    0  0.42188687851E+03  0.58866461167E+02 -0.11098914496E+04  0.11915950376E+04  0.81153590158E+02 0.  0.
         11    1    3    3    0    0  0.99265753518E+01  0.69014080624E+02 -0.42904749651E+03  0.43467601094E+03  0.00000000000E+00 0. -1.
        -11    1    3    3    0    0 -0.62659456927E+02  0.97666061913E+02 -0.14836817657E+04  0.14882125013E+04  0.00000000000E+00 0.  1.
          2    1    6    6  502    0  0.13950293385E+03  0.52859476070E+02 -0.33071710771E+03  0.36280710866E+03  0.00000000000E+00 0. -1.
          1    1    5    5  503    0 -0.21441613689E+02 -0.17196128926E+02 -0.72525983055E+02  0.77559447301E+02  0.00000000000E+00 0. -1.
         -2    1    5    5    0  503 -0.34771238325E+03 -0.20835047478E+03 -0.45269454724E+03  0.60765629668E+03  0.00000000000E+00 0.  1.
         -3    1    6    6    0  502  0.28238394466E+03  0.60069850970E+01 -0.77917434190E+03  0.82878792894E+03  0.00000000000E+00 0.  1.
<mgrwt>
<rscale>  0 0.13603445E+04</rscale>
<asrwt>0</asrwt>
<pdfrwt beam="1">  1        2 0.56519540E+00 0.13603445E+04</pdfrwt>
<pdfrwt beam="2">  1       -2 0.19373697E-01 0.13603445E+04</pdfrwt>
<totfact> 0.13766439E+01</totfact>
</mgrwt>
</event>
<event>
12    1  0.4612066E-007  0.1445790E+04  0.7818608E-02  0.8921324E-01
         -2   -1    0    0    0  501 -0.00000000000E+00  0.00000000000E+00  0.97370192959E+03  0.97370192959E+03  0.00000000000E+00 0.  1.
          2   -1    0    0  501    0  0.00000000000E+00 -0.00000000000E+00 -0.53669140540E+03  0.53669140540E+03  0.00000000000E+00 0. -1.
         23    2    1    2    0    0  0.25388297521E+03  0.36463849799E+03  0.17158875051E+03  0.48526925927E+03  0.92874944779E+02 0.  0.
        254    2    1    2    0    0 -0.25388297521E+03 -0.36463849799E+03  0.26542177369E+03  0.10251240757E+04  0.88488013503E+03 0.  0.
        -24    2    4    4    0    0 -0.22891210748E+03 -0.10006997598E+03 -0.29789795241E+03  0.39726323609E+03  0.81609654167E+02 0.  0.
         24    2    4    4    0    0 -0.24970867728E+02 -0.26456852201E+03  0.56331972610E+03  0.62786083964E+03  0.79120623486E+02 0.  0.
         13    1    3    3    0    0  0.11094371806E+03  0.10305376424E+03  0.90262354561E+02  0.17628352036E+03  0.00000000000E+00 0.  1.
        -13    1    3    3    0    0  0.14293925715E+03  0.26158473375E+03  0.81326395946E+02  0.30898573890E+03  0.00000000000E+00 0. -1.
          2    1    6    6  502    0 -0.15609827395E+02 -0.25381480359E+03  0.55692618856E+03  0.61223557617E+03  0.00000000000E+00 0. -1.
          3    1    5    5  503    0 -0.11796634024E+03 -0.43470046428E+02 -0.21022982186E+03  0.24495362901E+03  0.00000000000E+00 0. -1.
         -4    1    5    5    0  503 -0.11094576724E+03 -0.56599929552E+02 -0.87668130550E+02  0.15230960708E+03  0.00000000000E+00 0.  1.
         -1    1    6    6    0  502 -0.93610403330E+01 -0.10753718417E+02  0.63935375448E+01  0.15625263462E+02  0.00000000000E+00 0.  1.
<mgrwt>
<rscale>  0 0.14457904E+04</rscale>
<asrwt>0</asrwt>
<pdfrwt beam="1">  1        2 0.82567908E-01 0.14457904E+04</pdfrwt>
<pdfrwt beam="2">  1       -2 0.14980030E+00 0.14457904E+04</pdfrwt>
<totfact> 0.16516423E+01</totfact>
</mgrwt>
</event>
<event>
12    1  0.4612066E-007  0.2331757E+04  0.7818608E-02  0.8465504E-01
          2   -1    0    0  501    0  0.00000000000E+00  0.00000000000E+00  0.23167379070E+04  0.23167379070E+04  0.00000000000E+00 0. -1.
         -2   -1    0    0    0  501 -0.00000000000E+00 -0.00000000000E+00 -0.58671854280E+03  0.58671854280E+03  0.00000000000E+00 0.  1.
         23    2    1    2    0    0  0.49313042548E+03 -0.82336694773E+03  0.44223028622E+03  0.10606185034E+04  0.90737184088E+02 0.  0.
        254    2    1    2    0    0 -0.49313042548E+03  0.82336694773E+03  0.12877890780E+04  0.18428379464E+04  0.90362616172E+03 0.  0.
        -24    2    4    4    0    0 -0.77040296055E+02  0.81056935570E+03  0.11214518314E+04  0.13880648606E+04  0.78179022384E+02 0.  0.
         24    2    4    4    0    0 -0.41609012943E+03  0.12797592028E+02  0.16633724660E+03  0.45477308578E+03  0.76522583408E+02 0.  0.
         11    1    3    3    0    0  0.48710022739E+03 -0.79686327812E+03  0.41452606350E+03  0.10218070135E+04  0.00000000000E+00 0.  1.
        -11    1    3    3    0    0  0.60301980990E+01 -0.26503669606E+02  0.27704222720E+02  0.38811489900E+02  0.00000000000E+00 0. -1.
          2    1    6    6  502    0 -0.35735561422E+03 -0.12947173101E+01  0.11471898632E+03  0.37532007291E+03  0.00000000000E+00 0. -1.
          1    1    5    5  503    0 -0.71043977967E+02  0.79726112677E+03  0.11138208985E+04  0.13715937973E+04  0.00000000000E+00 0. -1.
         -2    1    5    5    0  503 -0.59963180882E+01  0.13308228933E+02  0.76309329161E+01  0.16471063267E+02  0.00000000000E+00 0.  1.
         -1    1    6    6    0  502 -0.58734515210E+02  0.14092309338E+02  0.51618260281E+02  0.79453012869E+02  0.00000000000E+00 0.  1.
<mgrwt>
<rscale>  0 0.23317574E+04</rscale>
<asrwt>0</asrwt>
<pdfrwt beam="1">  1        2 0.35642121E+00 0.23317574E+04</pdfrwt>
<pdfrwt beam="2">  1       -2 0.90264392E-01 0.23317574E+04</pdfrwt>
<totfact> 0.42094500E+00</totfact>
</mgrwt>
</event>
<event>
12    1  0.4612066E-007  0.1442619E+04  0.7818608E-02  0.8923533E-01
         -2   -1    0    0    0  501 -0.00000000000E+00  0.00000000000E+00  0.40092385876E+03  0.40092385876E+03  0.00000000000E+00 0.  1.
          2   -1    0    0  501    0  0.00000000000E+00 -0.00000000000E+00 -0.12977219837E+04  0.12977219837E+04  0.00000000000E+00 0. -1.
         23    2    1    2    0    0  0.20222061720E+03  0.13007649652E+03  0.14967389287E+03  0.29719074170E+03  0.90038823720E+02 0.  0.
        254    2    1    2    0    0 -0.20222061720E+03 -0.13007649652E+03 -0.10464720178E+04  0.14014551008E+04  0.90064401539E+03 0.  0.
        -24    2    4    4    0    0 -0.47965205043E+03  0.14893730411E+03 -0.43081624562E+03  0.66655182367E+03  0.80251393194E+02 0.  0.
         24    2    4    4    0    0  0.27743143323E+03 -0.27901380064E+03 -0.61565577222E+03  0.73490327712E+03  0.78955023736E+02 0.  0.
         13    1    3    3    0    0  0.18850831822E+03  0.10345333197E+03  0.95484485741E+02  0.23527699622E+03  0.00000000000E+00 0. -1.
        -13    1    3    3    0    0  0.13712298982E+02  0.26623164549E+02  0.54189407132E+02  0.61913745479E+02  0.00000000000E+00 0.  1.
          4    1    6    6  502    0  0.11147800964E+03 -0.61403324761E+02 -0.18091105008E+03  0.22119340624E+03  0.00000000000E+00 0. -1.
          3    1    5    5  503    0 -0.17913675857E+03  0.29118562863E+02 -0.19371682520E+03  0.26545070604E+03  0.00000000000E+00 0. -1.
         -2    1    5    5    0  503 -0.30051529186E+03  0.11981874125E+03 -0.23709942042E+03  0.40110111763E+03  0.00000000000E+00 0.  1.
         -3    1    6    6    0  502  0.16595342359E+03 -0.21761047587E+03 -0.43474472214E+03  0.51370987088E+03  0.00000000000E+00 0.  1.
<mgrwt>
<rscale>  0 0.14426194E+04</rscale>
<asrwt>0</asrwt>
<pdfrwt beam="1">  1        2 0.19964954E+00 0.14426194E+04</pdfrwt>
<pdfrwt beam="2">  1       -2 0.61680593E-01 0.14426194E+04</pdfrwt>
<totfact> 0.39295821E+01</totfact>
</mgrwt>
</event>
<event>
12    1  0.4612066E-007  0.1849911E+04  0.7818608E-02  0.8680199E-01
          1   -1    0    0  501    0  0.00000000000E+00  0.00000000000E+00  0.97115829686E+03  0.97115829686E+03  0.00000000000E+00 0. -1.
         -1   -1    0    0    0  501 -0.00000000000E+00 -0.00000000000E+00 -0.88095069971E+03  0.88095069971E+03  0.00000000000E+00 0.  1.
         23    2    1    2    0    0  0.46439684151E+03  0.35855161913E+03 -0.35010667389E+03  0.68914938745E+03  0.90158222800E+02 0.  0.
        254    2    1    2    0    0 -0.46439684151E+03 -0.35855161913E+03  0.44031427104E+03  0.11629596091E+04  0.90242711905E+03 0.  0.
        -24    2    4    4    0    0  0.23045517825E+03 -0.20494109953E+03 -0.49774536606E+01  0.31964517629E+03  0.83891717251E+02 0.  0.
         24    2    4    4    0    0 -0.69485201976E+03 -0.15361051960E+03  0.44529172470E+03  0.84331443283E+03  0.80492182517E+02 0.  0.
         11    1    3    3    0    0  0.39458970077E+03  0.26329699400E+03 -0.29690343080E+03  0.55962307514E+03  0.00000000000E+00 0.  1.
        -11    1    3    3    0    0  0.69807140734E+02  0.95254625128E+02 -0.53203243089E+02  0.12952631231E+03  0.00000000000E+00 0. -1.
          2    1    6    6  502    0 -0.42204287344E+03 -0.52826367044E+02  0.26424084978E+03  0.50073350075E+03  0.00000000000E+00 0. -1.
          3    1    5    5  503    0  0.23126690372E+03 -0.20637800711E+03 -0.14189638373E+02  0.31028633294E+03  0.00000000000E+00 0. -1.
         -4    1    5    5    0  503 -0.81172547207E+00  0.14369075779E+01  0.92121847128E+01  0.93588433480E+01  0.00000000000E+00 0.  1.
         -1    1    6    6    0  502 -0.27280914632E+03 -0.10078415256E+03  0.18105087492E+03  0.34258093209E+03  0.00000000000E+00 0.  1.
<mgrwt>
<rscale>  0 0.18499109E+04</rscale>
<asrwt>0</asrwt>
<pdfrwt beam="1">  1        1 0.14940897E+00 0.18499109E+04</pdfrwt>
<pdfrwt beam="2">  1       -1 0.13553088E+00 0.18499109E+04</pdfrwt>
<totfact> 0.68324137E+00</totfact>
</mgrwt>
</event>
<event>
12    1  0.4612066E-007  0.1729416E+04  0.7818608E-02  0.8744763E-01
          2   -1    0    0  501    0  0.00000000000E+00  0.00000000000E+00  0.14761438042E+04  0.14761438042E+04  0.00000000000E+00 0. -1.
         -2   -1    0    0    0  501 -0.00000000000E+00 -0.00000000000E+00 -0.50653573032E+03  0.50653573032E+03  0.00000000000E+00 0.  1.
         23    2    1    2    0    0  0.41866655337E+03 -0.12084550715E+03  0.86809679297E+03  0.97557035722E+03  0.90885424661E+02 0.  0.
        254    2    1    2    0    0 -0.41866655337E+03  0.12084550715E+03  0.10151128087E+03  0.10071091773E+04  0.90226328489E+03 0.  0.
        -24    2    4    4    0    0 -0.18562345772E+03 -0.37921563852E+03 -0.42114070080E+02  0.43161300485E+03  0.79092493322E+02 0.  0.
         24    2    4    4    0    0 -0.23304309564E+03  0.50006114567E+03  0.14362535095E+03  0.57549617240E+03  0.78723371202E+02 0.  0.
         11    1    3    3    0    0  0.36855147440E+03 -0.13242730686E+03  0.73384852879E+03  0.83180577306E+03  0.00000000000E+00 0. -1.
        -11    1    3    3    0    0  0.50115078967E+02  0.11581799706E+02  0.13424826418E+03  0.14376458416E+03  0.00000000000E+00 0.  1.
          2    1    6    6  502    0 -0.62283197269E+02  0.83315946617E+02  0.44829891218E+01  0.10411935850E+03  0.00000000000E+00 0. -1.
          1    1    5    5  503    0 -0.86216741933E+02 -0.19106700166E+03 -0.60087323008E+02  0.21806056979E+03  0.00000000000E+00 0. -1.
         -2    1    5    5    0  503 -0.99406715790E+02 -0.18814863686E+03  0.17973252928E+02  0.21355243506E+03  0.00000000000E+00 0.  1.
         -1    1    6    6    0  502 -0.17075989837E+03  0.41674519906E+03  0.13914236183E+03  0.47137681390E+03  0.00000000000E+00 0.  1.
<mgrwt>
<rscale>  0 0.17294156E+04</rscale>
<asrwt>0</asrwt>
<pdfrwt beam="1">  1        2 0.22709904E+00 0.17294156E+04</pdfrwt>
<pdfrwt beam="2">  1       -2 0.77928575E-01 0.17294156E+04</pdfrwt>
<totfact> 0.18226208E+01</totfact>
</mgrwt>
</event>
<event>
12    1  0.4612066E-007  0.1807554E+04  0.7818608E-02  0.8702293E-01
         -1   -1    0    0    0  501 -0.00000000000E+00  0.00000000000E+00  0.53027981924E+03  0.53027981924E+03  0.00000000000E+00 0.  1.
          1   -1    0    0  501    0  0.00000000000E+00 -0.00000000000E+00 -0.15403426981E+04  0.15403426981E+04  0.00000000000E+00 0. -1.
         23    2    1    2    0    0  0.67579767763E+02  0.50972547946E+03  0.12922081110E+03  0.53703984993E+03  0.85596103730E+02 0.  0.
        254    2    1    2    0    0 -0.67579767763E+02 -0.50972547946E+03 -0.11392836900E+04  0.15335826674E+04  0.88855015736E+03 0.  0.
        -24    2    4    4    0    0 -0.13888852120E+03 -0.70875007422E+03 -0.57771047850E+03  0.92845016193E+03  0.81569707587E+02 0.  0.
         24    2    4    4    0    0  0.71308753436E+02  0.19902459476E+03 -0.56157321146E+03  0.60513250548E+03  0.78263335745E+02 0.  0.
         11    1    3    3    0    0  0.22746344909E+02  0.36175496910E+03  0.12128621912E+03  0.38222297266E+03  0.00000000000E+00 0.  1.
        -11    1    3    3    0    0  0.44833422855E+02  0.14797051036E+03  0.79345919789E+01  0.15481687728E+03  0.00000000000E+00 0. -1.
          2    1    6    6  502    0  0.48997172969E+02  0.18611280249E+03 -0.53283815794E+03  0.56652908201E+03  0.00000000000E+00 0. -1.
          1    1    5    5  503    0 -0.52249037059E+02 -0.38957950297E+03 -0.27131609334E+03  0.47761341429E+03  0.00000000000E+00 0. -1.
         -2    1    5    5    0  503 -0.86639484140E+02 -0.31917057125E+03 -0.30639438516E+03  0.45083674764E+03  0.00000000000E+00 0.  1.
         -1    1    6    6    0  502  0.22311580468E+02  0.12911792268E+02 -0.28735053525E+02  0.38603423470E+02  0.00000000000E+00 0.  1.
<mgrwt>
<rscale>  0 0.18075538E+04</rscale>
<asrwt>0</asrwt>
<pdfrwt beam="1">  1        1 0.23697580E+00 0.18075538E+04</pdfrwt>
<pdfrwt beam="2">  1       -1 0.81581512E-01 0.18075538E+04</pdfrwt>
<totfact> 0.86526948E+00</totfact>
</mgrwt>
</event>
<event>
12    1  0.4612066E-007  0.3757736E+04  0.7818608E-02  0.8055286E-01
          2   -1    0    0  501    0  0.00000000000E+00  0.00000000000E+00  0.33927932424E+04  0.33927932424E+04  0.00000000000E+00 0.  1.
         -2   -1    0    0    0  501 -0.00000000000E+00 -0.00000000000E+00 -0.10404835731E+04  0.10404835731E+04  0.00000000000E+00 0. -1.
         23    2    1    2    0    0  0.12462023456E+03  0.11801272298E+04 -0.44283268830E+03  0.12698595511E+04  0.90620132439E+02 0.  0.
        254    2    1    2    0    0 -0.12462023456E+03 -0.11801272298E+04  0.27951423577E+04  0.31634172644E+04  0.88665523613E+03 0.  0.
        -24    2    4    4    0    0  0.13954421675E+03 -0.29971033151E+03  0.16888544268E+04  0.17228156793E+04  0.81029123817E+02 0.  0.
         24    2    4    4    0    0 -0.26416445131E+03 -0.88041689825E+03  0.11062879309E+04  0.14406015850E+04  0.80889855697E+02 0.  0.
         13    1    3    3    0    0  0.25078011222E+02  0.28581508886E+03 -0.66627997588E+02  0.29454789378E+03  0.00000000000E+00 0.  1.
        -13    1    3    3    0    0  0.99542223333E+02  0.89431214090E+03 -0.37620469071E+03  0.97531165731E+03  0.00000000000E+00 0. -1.
          2    1    6    6  502    0 -0.12845487428E+03 -0.41001146365E+03  0.57984010225E+03  0.72168178530E+03  0.00000000000E+00 0. -1.
          3    1    5    5  503    0  0.11021882193E+03 -0.15041307558E+03  0.84195913427E+03  0.86236156327E+03  0.00000000000E+00 0. -1.
         -4    1    5    5    0  503  0.29325394820E+02 -0.14929725592E+03  0.84689529251E+03  0.86045411608E+03  0.00000000000E+00 0.  1.
         -1    1    6    6    0  502 -0.13570957702E+03 -0.47040543460E+03  0.52644782864E+03  0.71891979975E+03  0.00000000000E+00 0.  1.
<mgrwt>
<rscale>  0 0.37577364E+04</rscale>
<asrwt>0</asrwt>
<pdfrwt beam="1">  1        2 0.52196819E+00 0.37577364E+04</pdfrwt>
<pdfrwt beam="2">  1       -2 0.16007440E+00 0.37577364E+04</pdfrwt>
<totfact> 0.19489089E-01</totfact>
</mgrwt>
</event>
<event>
12    1  0.4612066E-007  0.2420948E+04  0.7818608E-02  0.8431702E-01
          1   -1    0    0  501    0  0.00000000000E+00  0.00000000000E+00  0.12337629942E+04  0.12337629942E+04  0.00000000000E+00 0. -1.
         -1   -1    0    0    0  501 -0.00000000000E+00 -0.00000000000E+00 -0.11876245650E+04  0.11876245650E+04  0.00000000000E+00 0.  1.
         23    2    1    2    0    0  0.60599382591E+03  0.28361625820E+03  0.74835723622E+03  0.10100366027E+04  0.11166327433E+03 0.  0.
        254    2    1    2    0    0 -0.60599382591E+03 -0.28361625820E+03 -0.70221880700E+03  0.14113509565E+04  0.10252480532E+04 0.  0.
        -24    2    4    4    0    0 -0.53171373307E+02 -0.47087032194E+03  0.17860756827E+02  0.48094012105E+03  0.80239257076E+02 0.  0.
         24    2    4    4    0    0 -0.55282245261E+03  0.18725406374E+03 -0.72007956383E+03  0.93041083549E+03  0.80454931892E+02 0.  0.
         13    1    3    3    0    0  0.14911210932E+03  0.12153707967E+03  0.24008939688E+03  0.30765012819E+03  0.00000000000E+00 0. -1.
        -13    1    3    3    0    0  0.45688171659E+03  0.16207917853E+03  0.50826783933E+03  0.70238647451E+03  0.00000000000E+00 0.  1.
          2    1    6    6  502    0 -0.27476638555E+03  0.12274629703E+03 -0.41487786201E+03  0.51252986299E+03  0.00000000000E+00 0. -1.
          1    1    5    5  503    0 -0.84839948343E+01 -0.26287838348E+02  0.20015337890E+02  0.34112202571E+02  0.00000000000E+00 0. -1.
         -2    1    5    5    0  503 -0.44687378473E+02 -0.44458248359E+03 -0.21545810628E+01  0.44682791847E+03  0.00000000000E+00 0.  1.
         -1    1    6    6    0  502 -0.27805606706E+03  0.64507766711E+02 -0.30520170181E+03  0.41788097251E+03  0.00000000000E+00 0.  1.
<mgrwt>
<rscale>  0 0.24209479E+04</rscale>
<asrwt>0</asrwt>
<pdfrwt beam="1">  1        1 0.18980969E+00 0.24209479E+04</pdfrwt>
<pdfrwt beam="2">  1       -1 0.18271147E+00 0.24209479E+04</pdfrwt>
<totfact> 0.17974041E+00</totfact>
</mgrwt>
</event>
<event>
12    1  0.4612066E-007  0.3995835E+04  0.7818608E-02  0.8005387E-01
          1   -1    0    0  501    0  0.00000000000E+00  0.00000000000E+00  0.27862030326E+04  0.27862030326E+04  0.00000000000E+00 0. -1.
         -1   -1    0    0    0  501 -0.00000000000E+00 -0.00000000000E+00 -0.14326570661E+04  0.14326570661E+04  0.00000000000E+00 0.  1.
         23    2    1    2    0    0  0.12238031555E+04 -0.66000731075E+03 -0.71805249364E+03  0.15675083418E+04  0.90438954395E+02 0.  0.
        254    2    1    2    0    0 -0.12238031555E+04  0.66000731075E+03  0.20715984602E+04  0.26513517568E+04  0.89712994854E+03 0.  0.
        -24    2    4    4    0    0 -0.11757717425E+04  0.51245159195E+03  0.11856062244E+04  0.17484626101E+04  0.80084673866E+02 0.  0.
         24    2    4    4    0    0 -0.48031412960E+02  0.14755571880E+03  0.88599223574E+03  0.90288914669E+03  0.78401930056E+02 0.  0.
         13    1    3    3    0    0  0.36080301342E+03 -0.17778167387E+03 -0.16517546942E+03  0.43481958759E+03  0.00000000000E+00 0. -1.
        -13    1    3    3    0    0  0.86300014207E+03 -0.48222563688E+03 -0.55287702422E+03  0.11326887542E+04  0.00000000000E+00 0.  1.
          2    1    6    6  502    0 -0.99455055537E+01  0.13254976422E+03  0.67710769675E+03  0.69003129355E+03  0.00000000000E+00 0. -1.
          3    1    5    5  503    0 -0.55426007987E+03  0.22489346062E+03  0.60311172322E+03  0.84942630961E+03  0.00000000000E+00 0. -1.
         -4    1    5    5    0  503 -0.62151166265E+03  0.28755813133E+03  0.58249450119E+03  0.89903630050E+03  0.00000000000E+00 0.  1.
         -1    1    6    6    0  502 -0.38085907407E+02  0.15005954587E+02  0.20888453899E+03  0.21285785314E+03  0.00000000000E+00 0.  1.
<mgrwt>
<rscale>  0 0.39958346E+04</rscale>
<asrwt>0</asrwt>
<pdfrwt beam="1">  1        1 0.42864662E+00 0.39958346E+04</pdfrwt>
<pdfrwt beam="2">  1       -1 0.22040878E+00 0.39958346E+04</pdfrwt>
<totfact> 0.72971800E-02</totfact>
</mgrwt>
</event>
<event>
12    1  0.4612066E-007  0.1819565E+04  0.7818608E-02  0.8695964E-01
          3   -1    0    0  501    0  0.00000000000E+00  0.00000000000E+00  0.16012604165E+04  0.16012604165E+04  0.00000000000E+00 0. -1.
         -3   -1    0    0    0  501 -0.00000000000E+00 -0.00000000000E+00 -0.51690775003E+03  0.51690775003E+03  0.00000000000E+00 0.  1.
         23    2    1    2    0    0  0.47057316880E+03 -0.44340088289E+03  0.15378311409E+03  0.67059908527E+03  0.89501043826E+02 0.  0.
        254    2    1    2    0    0 -0.47057316880E+03  0.44340088289E+03  0.93056955241E+03  0.14475690813E+04  0.90080691776E+03 0.  0.
        -24    2    4    4    0    0 -0.38062089753E+03 -0.21108347252E+03  0.40185730036E+03  0.59784393527E+03  0.80619979431E+02 0.  0.
         24    2    4    4    0    0 -0.89952271269E+02  0.65448435541E+03  0.52871225205E+03  0.84972514602E+03  0.77813852983E+02 0.  0.
         13    1    3    3    0    0  0.33573180988E+03 -0.34398280616E+03  0.78914038276E+02  0.48710106194E+03  0.00000000000E+00 0.  1.
        -13    1    3    3    0    0  0.13484135891E+03 -0.99418076729E+02  0.74869075815E+02  0.18349802333E+03  0.00000000000E+00 0. -1.
          2    1    6    6  502    0  0.68968526812E+01  0.98622300696E+02  0.10412897269E+03  0.14358540220E+03  0.00000000000E+00 0. -1.
          1    1    5    5  503    0 -0.60785739294E+01 -0.81644235873E+01  0.32420434499E+02  0.33980751119E+02  0.00000000000E+00 0. -1.
         -2    1    5    5    0  503 -0.37454232360E+03 -0.20291904893E+03  0.36943686586E+03  0.56386318415E+03  0.00000000000E+00 0.  1.
         -1    1    6    6    0  502 -0.96849123950E+02  0.55586205471E+03  0.42458327937E+03  0.70613974382E+03  0.00000000000E+00 0.  1.
<mgrwt>
<rscale>  0 0.18195647E+04</rscale>
<asrwt>0</asrwt>
<pdfrwt beam="1">  1        3 0.24634775E+00 0.18195647E+04</pdfrwt>
<pdfrwt beam="2">  1       -3 0.79524270E-01 0.18195647E+04</pdfrwt>
<totfact> 0.28196424E-01</totfact>
</mgrwt>
</event>
<event>
12    1  0.4612066E-007  0.1722818E+04  0.7818608E-02  0.8748456E-01
         -2   -1    0    0    0  501 -0.00000000000E+00  0.00000000000E+00  0.51818846351E+03  0.51818846351E+03  0.00000000000E+00 0.  1.
          2   -1    0    0  501    0  0.00000000000E+00 -0.00000000000E+00 -0.14319610298E+04  0.14319610298E+04  0.00000000000E+00 0. -1.
         23    2    1    2    0    0  0.26491757364E+02 -0.35350186282E+03 -0.90911384008E+03  0.98056892478E+03  0.96757747954E+02 0.  0.
        254    2    1    2    0    0 -0.26491757364E+02  0.35350186282E+03 -0.46587262534E+01  0.96958056858E+03  0.90244079861E+03 0.  0.
        -24    2    4    4    0    0 -0.45959202618E+02  0.46930946577E+03 -0.35219165697E+03  0.59397862567E+03  0.80050118982E+02 0.  0.
         24    2    4    4    0    0  0.19467445255E+02 -0.11580760295E+03  0.34753293072E+03  0.37560194290E+03  0.80667832799E+02 0.  0.
         13    1    3    3    0    0  0.56233392036E+02 -0.24148842607E+03 -0.55226765372E+03  0.60537460770E+03  0.00000000000E+00 0.  1.
        -13    1    3    3    0    0 -0.29741634673E+02 -0.11201343675E+03 -0.35684618636E+03  0.37519431708E+03  0.00000000000E+00 0. -1.
          4    1    6    6  502    0  0.36035932382E+02 -0.19922002022E+02  0.14777261406E+03  0.15340215140E+03  0.00000000000E+00 0. -1.
          1    1    5    5  503    0 -0.16702208897E+02  0.73328541792E+02 -0.24308403014E+02  0.79037568792E+02  0.00000000000E+00 0. -1.
         -2    1    5    5    0  503 -0.29256993722E+02  0.39598092398E+03 -0.32788325396E+03  0.51494105688E+03  0.00000000000E+00 0.  1.
         -3    1    6    6    0  502 -0.16568487127E+02 -0.95885600930E+02  0.19976031666E+03  0.22219979150E+03  0.00000000000E+00 0.  1.
<mgrwt>
<rscale>  0 0.17228183E+04</rscale>
<asrwt>0</asrwt>
<pdfrwt beam="1">  1        2 0.22030169E+00 0.17228183E+04</pdfrwt>
<pdfrwt beam="2">  1       -2 0.79721303E-01 0.17228183E+04</pdfrwt>
<totfact> 0.18360771E+01</totfact>
</mgrwt>
</event>
<event>
12    1  0.4612066E-007  0.1615847E+04  0.7818608E-02  0.8810871E-01
          2   -1    0    0  501    0  0.00000000000E+00  0.00000000000E+00  0.45234797415E+03  0.45234797415E+03  0.00000000000E+00 0. -1.
         -2   -1    0    0    0  501 -0.00000000000E+00 -0.00000000000E+00 -0.14430050516E+04  0.14430050516E+04  0.00000000000E+00 0.  1.
         23    2    1    2    0    0  0.52597326630E+03 -0.17836299185E+03 -0.39188367096E+03  0.68590762436E+03  0.91843474835E+02 0.  0.
        254    2    1    2    0    0 -0.52597326630E+03  0.17836299185E+03 -0.59877340649E+03  0.12094454014E+04  0.89205793136E+03 0.  0.
        -24    2    4    4    0    0  0.11477741299E+03  0.30568488134E+03 -0.39817049388E+03  0.52170650392E+03  0.83790410083E+02 0.  0.
         24    2    4    4    0    0 -0.64075067929E+03 -0.12732188949E+03 -0.20060291261E+03  0.68773889747E+03  0.77272025913E+02 0.  0.
         11    1    3    3    0    0  0.49795336628E+03 -0.14543886828E+03 -0.37180729313E+03  0.63824030163E+03  0.00000000000E+00 0. -1.
        -11    1    3    3    0    0  0.28019900019E+02 -0.32924123571E+02 -0.20076377833E+02  0.47667322737E+02  0.00000000000E+00 0.  1.
          4    1    6    6  502    0 -0.60330347979E+03 -0.12276647530E+03 -0.16877410631E+03  0.63838185684E+03  0.00000000000E+00 0. -1.
          1    1    5    5  503    0  0.98851834679E+02  0.24963019758E+03 -0.36954355279E+03  0.45678152127E+03  0.00000000000E+00 0. -1.
         -2    1    5    5    0  503  0.15925578313E+02  0.56054683764E+02 -0.28626941092E+02  0.64924982655E+02  0.00000000000E+00 0.  1.
         -3    1    6    6    0  502 -0.37447199500E+02 -0.45554141920E+01 -0.31828806301E+02  0.49357040627E+02  0.00000000000E+00 0.  1.
<mgrwt>
<rscale>  0 0.16158470E+04</rscale>
<asrwt>0</asrwt>
<pdfrwt beam="1">  1        2 0.69591996E-01 0.16158470E+04</pdfrwt>
<pdfrwt beam="2">  1       -2 0.22200078E+00 0.16158470E+04</pdfrwt>
<totfact> 0.63522021E+00</totfact>
</mgrwt>
</event>
<event>
12    1  0.4612066E-007  0.1885261E+04  0.7818608E-02  0.8662228E-01
         -2   -1    0    0    0  501 -0.00000000000E+00  0.00000000000E+00  0.46998828850E+03  0.46998828850E+03  0.00000000000E+00 0.  1.
          2   -1    0    0  501    0  0.00000000000E+00 -0.00000000000E+00 -0.18905833851E+04  0.18905833851E+04  0.00000000000E+00 0. -1.
         23    2    1    2    0    0  0.22585981515E+02 -0.53552359906E+03 -0.11742088134E+04  0.12933763115E+04  0.82221005639E+02 0.  0.
        254    2    1    2    0    0 -0.22585981515E+02  0.53552359906E+03 -0.24638628320E+03  0.10671953622E+04  0.88932788599E+03 0.  0.
        -24    2    4    4    0    0  0.19513287962E+03  0.29095322925E+03  0.27107620263E+03  0.44965181197E+03  0.77290504297E+02 0.  0.
         24    2    4    4    0    0 -0.21771886113E+03  0.24457036981E+03 -0.51746248584E+03  0.61754355022E+03  0.79852638538E+02 0.  0.
         13    1    3    3    0    0  0.34425117783E+01 -0.15778746235E+03 -0.26196417072E+03  0.30583322401E+03  0.00000000000E+00 0.  1.
        -13    1    3    3    0    0  0.19143469736E+02 -0.37773613671E+03 -0.91224464272E+03  0.98754308746E+03  0.00000000000E+00 0. -1.
          2    1    6    6  502    0 -0.19326622322E+03  0.21527174363E+03 -0.49477823365E+03  0.57314854719E+03  0.00000000000E+00 0. -1.
          3    1    5    5  503    0  0.14169918472E+03  0.14242627989E+03  0.15160782619E+03  0.25169194886E+03  0.00000000000E+00 0. -1.
         -4    1    5    5    0  503  0.53433694894E+02  0.14852694935E+03  0.11946837644E+03  0.19795986311E+03  0.00000000000E+00 0.  1.
         -1    1    6    6    0  502 -0.24452637912E+02  0.29298626179E+02 -0.22684252183E+02  0.44395003029E+02  0.00000000000E+00 0.  1.
<mgrwt>
<rscale>  0 0.18852608E+04</rscale>
<asrwt>0</asrwt>
<pdfrwt beam="1">  1        2 0.29085898E+00 0.18852608E+04</pdfrwt>
<pdfrwt beam="2">  1       -2 0.72305890E-01 0.18852608E+04</pdfrwt>
<totfact> 0.12475266E+01</totfact>
</mgrwt>
</event>
<event>
12    1  0.6724157E-007  0.1470424E+04  0.7818608E-02  0.8904363E-01
         -2   -1    0    0    0  501 -0.00000000000E+00  0.00000000000E+00  0.36398902757E+03  0.36398902757E+03  0.00000000000E+00 0.  1.
          2   -1    0    0  501    0  0.00000000000E+00 -0.00000000000E+00 -0.14850351232E+04  0.14850351232E+04  0.00000000000E+00 0. -1.
         23    2    1    2    0    0  0.28849143942E+03  0.12720951200E+02  0.80068422588E+02  0.31304688364E+03  0.90544275574E+02 0.  0.
        254    2    1    2    0    0 -0.28849143942E+03 -0.12720951200E+02 -0.12011145182E+04  0.15359772672E+04  0.91277650390E+03 0.  0.
        -24    2    4    4    0    0 -0.17377538257E+03 -0.10477974883E+02 -0.13297826512E+04  0.13435217377E+04  0.80131696577E+02 0.  0.
         24    2    4    4    0    0 -0.11471605685E+03 -0.22429763173E+01  0.12866813293E+03  0.19245552945E+03  0.85550205961E+02 0.  0.
         11    1    3    3    0    0  0.21407230038E+03  0.29989152783E+01  0.16563465573E+02  0.21473307075E+03  0.00000000000E+00 0. -1.
        -11    1    3    3    0    0  0.74419139040E+02  0.97220359220E+01  0.63504957015E+02  0.98313812882E+02  0.00000000000E+00 0.  1.
          4    1    6    6  502    0 -0.93353025750E+02  0.15435524120E+02  0.13417703290E+03  0.16418440541E+03  0.00000000000E+00 0. -1.
          1    1    5    5  503    0 -0.16614835252E+03 -0.34875235016E+01 -0.13151092648E+04  0.13255677335E+04  0.00000000000E+00 0. -1.
         -2    1    5    5    0  503 -0.76270300480E+01 -0.69904513814E+01 -0.14673386390E+02  0.17954004178E+02  0.00000000000E+00 0.  1.
         -3    1    6    6    0  502 -0.21363031105E+02 -0.17678500438E+02 -0.55088999670E+01  0.28271124041E+02  0.00000000000E+00 0.  1.
<mgrwt>
<rscale>  0 0.14704237E+04</rscale>
<asrwt>0</asrwt>
<pdfrwt beam="1">  1        2 0.22846694E+00 0.14704237E+04</pdfrwt>
<pdfrwt beam="2">  1       -2 0.55998312E-01 0.14704237E+04</pdfrwt>
<totfact> 0.37526090E+01</totfact>
</mgrwt>
</event>
<event>
12    1  0.6410103E-007  0.1770670E+04  0.7818608E-02  0.8722054E-01
         -3   -1    0    0    0  501 -0.00000000000E+00  0.00000000000E+00  0.93884840488E+03  0.93884840488E+03  0.00000000000E+00 0.  1.
          3   -1    0    0  501    0  0.00000000000E+00 -0.00000000000E+00 -0.83487139975E+03  0.83487139975E+03  0.00000000000E+00 0. -1.
         23    2    1    2    0    0  0.45012477105E+03 -0.44523977185E+03  0.18991918033E+03  0.66733126332E+03  0.91711264252E+02 0.  0.
        254    2    1    2    0    0 -0.45012477105E+03  0.44523977185E+03 -0.85942175202E+02  0.11063885413E+04  0.90324901489E+03 0.  0.
        -24    2    4    4    0    0 -0.14796557966E+02  0.47929808818E+03  0.25306136348E+03  0.54794520104E+03  0.79109381190E+02 0.  0.
         24    2    4    4    0    0 -0.43532821309E+03 -0.34058316322E+02 -0.33900353869E+03  0.55844334027E+03  0.79151393116E+02 0.  0.
         13    1    3    3    0    0  0.32374191171E+03 -0.27131241062E+03  0.98645778350E+02  0.43376288355E+03  0.00000000000E+00 0. -1.
        -13    1    3    3    0    0  0.12638285934E+03 -0.17392736124E+03  0.91273401979E+02  0.23356837977E+03  0.00000000000E+00 0.  1.
          4    1    6    6  502    0 -0.54327051482E+01 -0.95199147834E+00  0.45421436804E+01  0.71450431920E+01  0.00000000000E+00 0. -1.
          3    1    5    5  503    0  0.46520916353E+01  0.34260236453E+01 -0.37123305744E+01  0.68673861763E+01  0.00000000000E+00 0. -1.
         -4    1    5    5    0  503 -0.19448649601E+02  0.47587206453E+03  0.25677369406E+03  0.54107781486E+03  0.00000000000E+00 0.  1.
         -3    1    6    6    0  502 -0.42989550794E+03 -0.33106324844E+02 -0.34354568237E+03  0.55129829708E+03  0.00000000000E+00 0.  1.
<mgrwt>
<rscale>  0 0.17706696E+04</rscale>
<asrwt>0</asrwt>
<pdfrwt beam="1">  1        3 0.12844175E+00 0.17706696E+04</pdfrwt>
<pdfrwt beam="2">  1       -3 0.14443822E+00 0.17706696E+04</pdfrwt>
<totfact> 0.42187383E-01</totfact>
</mgrwt>
</event>
<event>
12    1  0.4612066E-007  0.2973359E+04  0.7818608E-02  0.8251380E-01
         -2   -1    0    0    0  501 -0.00000000000E+00  0.00000000000E+00  0.13637124142E+04  0.13637124142E+04  0.00000000000E+00 0.  1.
          2   -1    0    0  501    0  0.00000000000E+00 -0.00000000000E+00 -0.16207346006E+04  0.16207346006E+04  0.00000000000E+00 0. -1.
         23    2    1    2    0    0  0.61287728268E+03  0.31225649853E+03  0.10490588739E+04  0.12577711057E+04  0.91328795461E+02 0.  0.
        254    2    1    2    0    0 -0.61287728268E+03 -0.31225649853E+03 -0.13060810603E+04  0.17266759090E+04  0.89578974894E+03 0.  0.
        -24    2    4    4    0    0  0.18348819269E+03  0.87974989881E+02 -0.38190905761E+03  0.44028740895E+03  0.81184718363E+02 0.  0.
         24    2    4    4    0    0 -0.79636547537E+03 -0.40023148841E+03 -0.92417200268E+03  0.12863885001E+04  0.79487533258E+02 0.  0.
         13    1    3    3    0    0  0.68788277899E+02  0.49909036155E+02  0.85625647225E+02  0.12064199322E+03  0.00000000000E+00 0. -1.
        -13    1    3    3    0    0  0.54408900478E+03  0.26234746237E+03  0.96343322670E+03  0.11371291125E+04  0.00000000000E+00 0.  1.
          4    1    6    6  502    0 -0.45389752552E+03 -0.26791480646E+03 -0.52124714106E+03  0.74128259743E+03  0.00000000000E+00 0. -1.
          1    1    5    5  503    0  0.12019089428E+03  0.15772755020E+02 -0.18441647277E+03  0.22068997779E+03  0.00000000000E+00 0. -1.
         -2    1    5    5    0  503  0.63297298407E+02  0.72202234861E+02 -0.19749258485E+03  0.21959743116E+03  0.00000000000E+00 0.  1.
         -3    1    6    6    0  502 -0.34246794985E+03 -0.13231668195E+03 -0.40292486162E+03  0.54510590266E+03  0.00000000000E+00 0.  1.
<mgrwt>
<rscale>  0 0.29733590E+04</rscale>
<asrwt>0</asrwt>
<pdfrwt beam="1">  1        2 0.24934379E+00 0.29733590E+04</pdfrwt>
<pdfrwt beam="2">  1       -2 0.20980191E+00 0.29733590E+04</pdfrwt>
<totfact> 0.10698890E+00</totfact>
</mgrwt>
</event>
<event>
12    1  0.4612066E-007  0.1610307E+04  0.7818608E-02  0.8814241E-01
          1   -1    0    0  501    0  0.00000000000E+00  0.00000000000E+00  0.12137687176E+04  0.12137687176E+04  0.00000000000E+00 0. -1.
         -1   -1    0    0    0  501 -0.00000000000E+00 -0.00000000000E+00 -0.53409883996E+03  0.53409883996E+03  0.00000000000E+00 0.  1.
         23    2    1    2    0    0 -0.15902496230E+03  0.52089280702E+03  0.18018654629E+03  0.58044435490E+03  0.88488432169E+02 0.  0.
        254    2    1    2    0    0  0.15902496230E+03 -0.52089280702E+03  0.49948333133E+03  0.11674232026E+04  0.90375609584E+03 0.  0.
        -24    2    4    4    0    0  0.51917823846E+03 -0.41958505839E+03  0.33244493936E+03  0.75014162533E+03  0.81210564800E+02 0.  0.
         24    2    4    4    0    0 -0.36015327616E+03 -0.10130774863E+03  0.16703839197E+03  0.41728157731E+03  0.79047125894E+02 0.  0.
         11    1    3    3    0    0 -0.60438325726E+02  0.10044410987E+03  0.62487778591E+02  0.13284025330E+03  0.00000000000E+00 0. -1.
        -11    1    3    3    0    0 -0.98586636576E+02  0.42044869715E+03  0.11769876770E+03  0.44760410160E+03  0.00000000000E+00 0.  1.
          2    1    6    6  502    0 -0.16290904923E+03 -0.75357758671E+02  0.10919468374E+03  0.21009909346E+03  0.00000000000E+00 0. -1.
          3    1    5    5  503    0  0.33905211602E+03 -0.24383072441E+03  0.17183285711E+03  0.45159305833E+03  0.00000000000E+00 0. -1.
         -4    1    5    5    0  503  0.18012612244E+03 -0.17575433397E+03  0.16061208225E+03  0.29854856700E+03  0.00000000000E+00 0.  1.
         -1    1    6    6    0  502 -0.19724422693E+03 -0.25949989959E+02  0.57843708223E+02  0.20718248386E+03  0.00000000000E+00 0.  1.
<mgrwt>
<rscale>  0 0.16103074E+04</rscale>
<asrwt>0</asrwt>
<pdfrwt beam="1">  1        1 0.18673365E+00 0.16103074E+04</pdfrwt>
<pdfrwt beam="2">  1       -1 0.82169053E-01 0.16103074E+04</pdfrwt>
<totfact> 0.14746353E+01</totfact>
</mgrwt>
</event>
<event>
12    1  0.4612066E-007  0.2032194E+04  0.7818608E-02  0.8591715E-01
          2   -1    0    0  501    0  0.00000000000E+00  0.00000000000E+00  0.26619609954E+04  0.26619609954E+04  0.00000000000E+00 0. -1.
         -2   -1    0    0    0  501 -0.00000000000E+00 -0.00000000000E+00 -0.38785438715E+03  0.38785438715E+03  0.00000000000E+00 0.  1.
         23    2    1    2    0    0 -0.80774134559E+03  0.91373123258E+02  0.10497773370E+04  0.13309167640E+04  0.92259668456E+02 0.  0.
        254    2    1    2    0    0  0.80774134559E+03 -0.91373123258E+02  0.12243292713E+04  0.17188986186E+04  0.89153528666E+03 0.  0.
        -24    2    4    4    0    0  0.75363533846E+03 -0.26756136710E+03  0.12791692507E+04  0.15106455034E+04  0.78870504434E+02 0.  0.
         24    2    4    4    0    0  0.54106007133E+02  0.17618824384E+03 -0.54839979423E+02  0.20825311516E+03  0.79951106018E+02 0.  0.
         13    1    3    3    0    0 -0.62003102666E+03  0.65450010420E+02  0.73841557054E+03  0.96642626863E+03  0.00000000000E+00 0.  1.
        -13    1    3    3    0    0 -0.18771031893E+03  0.25923112838E+02  0.31136176643E+03  0.36449049536E+03  0.00000000000E+00 0. -1.
          4    1    6    6  502    0  0.55309237021E+01  0.83601044591E+01  0.16683816450E+02  0.19463612072E+02  0.00000000000E+00 0. -1.
          3    1    5    5  503    0  0.48903070762E+02 -0.12171092270E+02  0.50285900670E+02  0.71192117704E+02  0.00000000000E+00 0. -1.
         -4    1    5    5    0  503  0.70473226769E+03 -0.25539027483E+03  0.12288833501E+04  0.14394533857E+04  0.00000000000E+00 0.  1.
         -3    1    6    6    0  502  0.48575083431E+02  0.16782813938E+03 -0.71523795872E+02  0.18878950309E+03  0.00000000000E+00 0.  1.
<mgrwt>
<rscale>  0 0.20321941E+04</rscale>
<asrwt>0</asrwt>
<pdfrwt beam="1">  1        2 0.40953245E+00 0.20321941E+04</pdfrwt>
<pdfrwt beam="2">  1       -2 0.59669908E-01 0.20321941E+04</pdfrwt>
<totfact> 0.67986560E+00</totfact>
</mgrwt>
</event>
<event>
12    1  0.4612066E-007  0.1245104E+04  0.7818608E-02  0.9074268E-01
          2   -1    0    0  501    0  0.00000000000E+00  0.00000000000E+00  0.75974872861E+03  0.75974872861E+03  0.00000000000E+00 0. -1.
         -2   -1    0    0    0  501 -0.00000000000E+00 -0.00000000000E+00 -0.51013050793E+03  0.51013050793E+03  0.00000000000E+00 0.  1.
         23    2    1    2    0    0  0.17888193499E+03  0.11116856646E+03 -0.15260380876E+03  0.27559037831E+03  0.91131428920E+02 0.  0.
        254    2    1    2    0    0 -0.17888193499E+03 -0.11116856646E+03  0.40222202944E+03  0.99428885822E+03  0.88457366894E+03 0.  0.
        -24    2    4    4    0    0 -0.19763133347E+03  0.26779625669E+03  0.48886701533E+03  0.59706534845E+03  0.81994466764E+02 0.  0.
         24    2    4    4    0    0  0.18749398474E+02 -0.37896482315E+03 -0.86644985883E+02  0.39722350977E+03  0.79456189230E+02 0.  0.
         11    1    3    3    0    0  0.95533677609E+02  0.27600468997E+02 -0.26589776144E+02  0.10293437541E+03  0.00000000000E+00 0. -1.
        -11    1    3    3    0    0  0.83348257382E+02  0.83568097464E+02 -0.12601403261E+03  0.17265600290E+03  0.00000000000E+00 0.  1.
          4    1    6    6  502    0 -0.16691364657E+02 -0.17409340190E+03 -0.84652305132E+01  0.17509647160E+03  0.00000000000E+00 0. -1.
          3    1    5    5  503    0 -0.45952374467E+02  0.94221689514E+02  0.99213259218E+02  0.14433509032E+03  0.00000000000E+00 0. -1.
         -4    1    5    5    0  503 -0.15167895900E+03  0.17357456718E+03  0.38965375611E+03  0.45273025813E+03  0.00000000000E+00 0.  1.
         -3    1    6    6    0  502  0.35440763131E+02 -0.20487142125E+03 -0.78179755370E+02  0.22212703817E+03  0.00000000000E+00 0.  1.
<mgrwt>
<rscale>  0 0.12451040E+04</rscale>
<asrwt>0</asrwt>
<pdfrwt beam="1">  1        2 0.11688442E+00 0.12451040E+04</pdfrwt>
<pdfrwt beam="2">  1       -2 0.78481616E-01 0.12451040E+04</pdfrwt>
<totfact> 0.52376906E+01</totfact>
</mgrwt>
</event>
<event>
12    1  0.4612066E-007  0.1576235E+04  0.7818608E-02  0.8835282E-01
         -2   -1    0    0    0  501 -0.00000000000E+00  0.00000000000E+00  0.30071928170E+03  0.30071928170E+03  0.00000000000E+00 0.  1.
          2   -1    0    0  501    0  0.00000000000E+00 -0.00000000000E+00 -0.20654784095E+04  0.20654784095E+04  0.00000000000E+00 0. -1.
         23    2    1    2    0    0 -0.20602628445E+03  0.48685992695E+03 -0.60469661338E+03  0.80828674858E+03  0.90498924560E+02 0.  0.
        254    2    1    2    0    0  0.20602628445E+03 -0.48685992695E+03 -0.11600625145E+04  0.15579109427E+04  0.89546750329E+03 0.  0.
        -24    2    4    4    0    0  0.80807868734E+02 -0.60861238083E+03 -0.32310894061E+03  0.69918058044E+03  0.86689992561E+02 0.  0.
         24    2    4    4    0    0  0.12521841571E+03  0.12175245389E+03 -0.83695357386E+03  0.85873036222E+03  0.80145109298E+02 0.  0.
         13    1    3    3    0    0 -0.11394270948E+03  0.16459432480E+03 -0.25026702297E+03  0.32048060095E+03  0.00000000000E+00 0. -1.
        -13    1    3    3    0    0 -0.92083574973E+02  0.32226560215E+03 -0.35442959041E+03  0.48780614763E+03  0.00000000000E+00 0.  1.
          4    1    6    6  502    0 -0.33582244098E+01  0.26655159694E+02 -0.64070402281E+02  0.69475115387E+02  0.00000000000E+00 0. -1.
          3    1    5    5  503    0  0.88690414248E+02 -0.34715685978E+03 -0.17885036745E+03  0.40046389202E+03  0.00000000000E+00 0. -1.
         -4    1    5    5    0  503 -0.78825455137E+01 -0.26145552105E+03 -0.14425857316E+03  0.29871668842E+03  0.00000000000E+00 0.  1.
         -3    1    6    6    0  502  0.12857664012E+03  0.95097294191E+02 -0.77288317158E+03  0.78925524684E+03  0.00000000000E+00 0.  1.
<mgrwt>
<rscale>  0 0.15762350E+04</rscale>
<asrwt>0</asrwt>
<pdfrwt beam="1">  1        2 0.31776591E+00 0.15762350E+04</pdfrwt>
<pdfrwt beam="2">  1       -2 0.46264505E-01 0.15762350E+04</pdfrwt>
<totfact> 0.26150827E+01</totfact>
</mgrwt>
</event>
<event>
12    1  0.4612066E-007  0.1541067E+04  0.7818608E-02  0.8857594E-01
         -2   -1    0    0    0  501 -0.00000000000E+00  0.00000000000E+00  0.26302114466E+03  0.26302114466E+03  0.00000000000E+00 0.  1.
          2   -1    0    0  501    0  0.00000000000E+00 -0.00000000000E+00 -0.22573162987E+04  0.22573162987E+04  0.00000000000E+00 0. -1.
         23    2    1    2    0    0 -0.21551077046E+03 -0.43728026737E+03 -0.93098609808E+03  0.10542796665E+04  0.84330160946E+02 0.  0.
        254    2    1    2    0    0  0.21551077046E+03  0.43728026737E+03 -0.10633090560E+04  0.14660577768E+04  0.88376486246E+03 0.  0.
        -24    2    4    4    0    0 -0.17377852563E+03  0.39196597881E+02  0.64741448539E+02  0.20557811856E+03  0.79596221120E+02 0.  0.
         24    2    4    4    0    0  0.38928929609E+03  0.39808366948E+03 -0.11280505045E+04  0.12604796583E+04  0.79336399309E+02 0.  0.
         13    1    3    3    0    0 -0.10520701538E+03 -0.25401192795E+03 -0.60280253320E+03  0.66254167390E+03  0.00000000000E+00 0. -1.
        -13    1    3    3    0    0 -0.11030375507E+03 -0.18326833941E+03 -0.32818356488E+03  0.39173799263E+03  0.00000000000E+00 0.  1.
          4    1    6    6  502    0  0.15440033058E+02  0.88800341454E+01 -0.14204583104E+02  0.22782006243E+02  0.00000000000E+00 0. -1.
          1    1    5    5  503    0  0.53024252918E+01 -0.18815331085E+01  0.13818365710E+02  0.14919889802E+02  0.00000000000E+00 0. -1.
         -2    1    5    5    0  503 -0.17908095092E+03  0.41078130990E+02  0.50923082829E+02  0.19065822876E+03  0.00000000000E+00 0.  1.
         -3    1    6    6    0  502  0.37384926303E+03  0.38920363534E+03 -0.11138459214E+04  0.12376976520E+04  0.00000000000E+00 0.  1.
<mgrwt>
<rscale>  0 0.15410671E+04</rscale>
<asrwt>0</asrwt>
<pdfrwt beam="1">  1        2 0.34727944E+00 0.15410671E+04</pdfrwt>
<pdfrwt beam="2">  1       -2 0.40464791E-01 0.15410671E+04</pdfrwt>
<totfact> 0.26725265E+01</totfact>
</mgrwt>
</event>
<event>
12    1  0.4612066E-007  0.2612890E+04  0.7818608E-02  0.8363836E-01
          1   -1    0    0  501    0  0.00000000000E+00  0.00000000000E+00  0.94543281039E+03  0.94543281039E+03  0.00000000000E+00 0. -1.
         -1   -1    0    0    0  501 -0.00000000000E+00 -0.00000000000E+00 -0.18053086571E+04  0.18053086571E+04  0.00000000000E+00 0.  1.
         23    2    1    2    0    0  0.10940870464E+04  0.11421508674E+02 -0.74975226987E+03  0.13291889041E+04  0.86358326852E+02 0.  0.
        254    2    1    2    0    0 -0.10940870464E+04 -0.11421508674E+02 -0.11012357684E+03  0.14215525634E+04  0.90084825148E+03 0.  0.
        -24    2    4    4    0    0  0.90045617826E+02  0.95443655363E+02  0.13497817781E+03  0.20500709218E+03  0.81185557340E+02 0.  0.
         24    2    4    4    0    0 -0.11841326643E+04 -0.10686516404E+03 -0.24510175466E+03  0.12165454712E+04  0.79483856654E+02 0.  0.
         11    1    3    3    0    0  0.82612594788E+03 -0.14960811288E+02 -0.59959688071E+03  0.10208938863E+04  0.00000000000E+00 0.  1.
        -11    1    3    3    0    0  0.26796109856E+03  0.26382319962E+02 -0.15015538916E+03  0.30829501787E+03  0.00000000000E+00 0. -1.
          2    1    6    6  502    0 -0.62740218136E+03 -0.16775881513E+02 -0.12930743867E+03  0.64080834972E+03  0.00000000000E+00 0. -1.
          1    1    5    5  503    0  0.83658530551E+02  0.78489543320E+02  0.14453341481E+03  0.18452443237E+03  0.00000000000E+00 0. -1.
         -2    1    5    5    0  503  0.63870872753E+01  0.16954112043E+02 -0.95552369953E+01  0.20482659814E+02  0.00000000000E+00 0.  1.
         -1    1    6    6    0  502 -0.55673048290E+03 -0.90089282524E+02 -0.11579431598E+03  0.57573712147E+03  0.00000000000E+00 0.  1.
<mgrwt>
<rscale>  0 0.26128896E+04</rscale>
<asrwt>0</asrwt>
<pdfrwt beam="1">  1        1 0.14545120E+00 0.26128896E+04</pdfrwt>
<pdfrwt beam="2">  1       -1 0.27773979E+00 0.26128896E+04</pdfrwt>
<totfact> 0.67689392E-01</totfact>
</mgrwt>
</event>
<event>
12    1  0.4612066E-007  0.1926708E+04  0.7818608E-02  0.8641675E-01
         -2   -1    0    0    0  501 -0.00000000000E+00  0.00000000000E+00  0.68567645451E+03  0.68567645451E+03  0.00000000000E+00 0.  1.
          2   -1    0    0  501    0  0.00000000000E+00 -0.00000000000E+00 -0.13534825826E+04  0.13534825826E+04  0.00000000000E+00 0. -1.
         23    2    1    2    0    0  0.33985215297E+03  0.61605599567E+03  0.15251251289E+02  0.70946541144E+03  0.89911588151E+02 0.  0.
        254    2    1    2    0    0 -0.33985215297E+03 -0.61605599567E+03 -0.68305737935E+03  0.13296936256E+04  0.89804970849E+03 0.  0.
        -24    2    4    4    0    0  0.32643442425E+02 -0.58618880856E+03 -0.55832926915E+02  0.59506211105E+03  0.79364265642E+02 0.  0.
         24    2    4    4    0    0 -0.37249559539E+03 -0.29867187108E+02 -0.62722445244E+03  0.73463151460E+03  0.81412106288E+02 0.  0.
         13    1    3    3    0    0  0.22380194138E+03  0.47367910110E+03  0.33010732995E+02  0.52492752669E+03  0.00000000000E+00 0.  1.
        -13    1    3    3    0    0  0.11605021159E+03  0.14237689457E+03 -0.17759481706E+02  0.18453788475E+03  0.00000000000E+00 0. -1.
          4    1    6    6  502    0 -0.30224813271E+03  0.76827928294E+01 -0.48140552005E+03  0.56847535898E+03  0.00000000000E+00 0. -1.
          1    1    5    5  503    0  0.15858551377E+02 -0.56558264191E+03 -0.55000789831E+02  0.56847190376E+03  0.00000000000E+00 0. -1.
         -2    1    5    5    0  503  0.16784891049E+02 -0.20606166657E+02 -0.83213708395E+00  0.26590207294E+02  0.00000000000E+00 0.  1.
         -3    1    6    6    0  502 -0.70247462678E+02 -0.37549979938E+02 -0.14581893238E+03  0.16615615561E+03  0.00000000000E+00 0.  1.
<mgrwt>
<rscale>  0 0.19267082E+04</rscale>
<asrwt>0</asrwt>
<pdfrwt beam="1">  1        2 0.20822809E+00 0.19267082E+04</pdfrwt>
<pdfrwt beam="2">  1       -2 0.10548869E+00 0.19267082E+04</pdfrwt>
<totfact> 0.10457271E+01</totfact>
</mgrwt>
</event>
<event>
12    1  0.4612066E-007  0.2388960E+04  0.7818608E-02  0.8443648E-01
          1   -1    0    0  501    0  0.00000000000E+00  0.00000000000E+00  0.10965057107E+04  0.10965057107E+04  0.00000000000E+00 0. -1.
         -1   -1    0    0    0  501 -0.00000000000E+00 -0.00000000000E+00 -0.13012088071E+04  0.13012088071E+04  0.00000000000E+00 0.  1.
         23    2    1    2    0    0 -0.58111589162E+03 -0.71171497543E+03 -0.53788627003E+03  0.10686466734E+04  0.91924900123E+02 0.  0.
        254    2    1    2    0    0  0.58111589162E+03  0.71171497543E+03  0.33318317368E+03  0.13290678444E+04  0.90065333073E+03 0.  0.
        -24    2    4    4    0    0  0.50654182336E+03  0.47292566821E+03 -0.20700199193E+03  0.72835117549E+03  0.86036641659E+02 0.  0.
         24    2    4    4    0    0  0.74574068264E+02  0.23878930722E+03  0.54018516561E+03  0.60071666895E+03  0.80491479799E+02 0.  0.
         11    1    3    3    0    0 -0.19709132172E+03 -0.17825147709E+03 -0.14150552251E+03  0.30106874810E+03  0.00000000000E+00 0. -1.
        -11    1    3    3    0    0 -0.38402456990E+03 -0.53346349834E+03 -0.39638074751E+03  0.76757792526E+03  0.00000000000E+00 0.  1.
          4    1    6    6  502    0  0.79895225795E+02  0.14524829801E+03  0.29740283812E+03  0.34048313218E+03  0.00000000000E+00 0. -1.
          1    1    5    5  503    0  0.37864858542E+03  0.39249479251E+03 -0.18373989987E+03  0.57548871769E+03  0.00000000000E+00 0. -1.
         -4    1    5    5    0  503  0.12789323794E+03  0.80430875705E+02 -0.23262092061E+02  0.15286245780E+03  0.00000000000E+00 0.  1.
         -3    1    6    6    0  502 -0.53211575304E+01  0.93541009210E+02  0.24278232749E+03  0.26023353677E+03  0.00000000000E+00 0.  1.
<mgrwt>
<rscale>  0 0.23889603E+04</rscale>
<asrwt>0</asrwt>
<pdfrwt beam="1">  1        1 0.16869319E+00 0.23889603E+04</pdfrwt>
<pdfrwt beam="2">  1       -1 0.20018597E+00 0.23889603E+04</pdfrwt>
<totfact> 0.17169518E+00</totfact>
</mgrwt>
</event>
<event>
12    1  0.4612066E-007  0.1893782E+04  0.7818608E-02  0.8657958E-01
         -2   -1    0    0    0  501 -0.00000000000E+00  0.00000000000E+00  0.72209801358E+03  0.72209801358E+03  0.00000000000E+00 0. -1.
          2   -1    0    0  501    0  0.00000000000E+00 -0.00000000000E+00 -0.12416627800E+04  0.12416627800E+04  0.00000000000E+00 0.  1.
         23    2    1    2    0    0  0.23614958097E+03 -0.18957967633E+02 -0.91328693596E+03  0.94796242225E+03  0.91726209386E+02 0.  0.
        254    2    1    2    0    0 -0.23614958097E+03  0.18957967633E+02  0.39372216950E+03  0.10157983714E+04  0.90592668322E+03 0.  0.
        -24    2    4    4    0    0  0.27007223418E+03  0.23060605808E+03  0.25505760129E+03  0.44419362372E+03  0.78328983646E+02 0.  0.
         24    2    4    4    0    0 -0.50622181515E+03 -0.21164809044E+03  0.13866456821E+03  0.57160474764E+03  0.80303703061E+02 0.  0.
         11    1    3    3    0    0  0.52065873383E+01  0.11217492970E+02 -0.13521744771E+03  0.13578180609E+03  0.00000000000E+00 0.  1.
        -11    1    3    3    0    0  0.23094299363E+03 -0.30175460603E+02 -0.77806948824E+03  0.81218061616E+03  0.00000000000E+00 0. -1.
          2    1    6    6  502    0 -0.95633032736E+02 -0.73844882742E+02  0.41392916370E+02  0.12771889908E+03  0.00000000000E+00 0. -1.
          1    1    5    5  503    0  0.98461777155E+02  0.12963929308E+03  0.13660857023E+03  0.21251580960E+03  0.00000000000E+00 0. -1.
         -2    1    5    5    0  503  0.17161045703E+03  0.10096676500E+03  0.11844903106E+03  0.23167781412E+03  0.00000000000E+00 0.  1.
         -1    1    6    6    0  502 -0.41058878242E+03 -0.13780320770E+03  0.97271651841E+02  0.44388584856E+03  0.00000000000E+00 0.  1.
<mgrwt>
<rscale>  0 0.18937816E+04</rscale>
<asrwt>0</asrwt>
<pdfrwt beam="1">  1        2 0.19102504E+00 0.18937816E+04</pdfrwt>
<pdfrwt beam="2">  1       -2 0.11109200E+00 0.18937816E+04</pdfrwt>
<totfact> 0.10754781E+01</totfact>
</mgrwt>
</event>
<event>
12    1  0.4612066E-007  0.1601491E+04  0.7818608E-02  0.8819633E-01
          1   -1    0    0  501    0  0.00000000000E+00  0.00000000000E+00  0.68739378500E+03  0.68739378500E+03  0.00000000000E+00 0. -1.
         -1   -1    0    0    0  501 -0.00000000000E+00 -0.00000000000E+00 -0.93278907887E+03  0.93278907887E+03  0.00000000000E+00 0.  1.
         23    2    1    2    0    0 -0.22464395123E+03 -0.42541656372E+03  0.17613235818E+03  0.52065846214E+03  0.92835710190E+02 0.  0.
        254    2    1    2    0    0  0.22464395123E+03  0.42541656372E+03 -0.42152765206E+03  0.10995244017E+04  0.89432890541E+03 0.  0.
        -24    2    4    4    0    0  0.14406780324E+03  0.25196341358E+03 -0.69457746369E+03  0.75701433074E+03  0.79948421952E+02 0.  0.
         24    2    4    4    0    0  0.80576147993E+02  0.17345315014E+03  0.27304981163E+03  0.34251007099E+03  0.78603041794E+02 0.  0.
         13    1    3    3    0    0 -0.29818443669E+02 -0.16653033591E+02  0.28191187790E+02  0.44285507557E+02  0.00000000000E+00 0.  1.
        -13    1    3    3    0    0 -0.19482550756E+03 -0.40876353012E+03  0.14794117040E+03  0.47637295458E+03  0.00000000000E+00 0. -1.
          2    1    6    6  502    0  0.31785558714E+02  0.34179673509E+02  0.22699382352E+02  0.51902155862E+02  0.00000000000E+00 0. -1.
          3    1    5    5  503    0 -0.35632446380E+01  0.52866165109E+02 -0.13332835243E+03  0.14347117372E+03  0.00000000000E+00 0. -1.
         -4    1    5    5    0  503  0.14763104788E+03  0.19909724847E+03 -0.56124911126E+03  0.61354315703E+03  0.00000000000E+00 0.  1.
         -1    1    6    6    0  502  0.48790589280E+02  0.13927347663E+03  0.25035042928E+03  0.29060791513E+03  0.00000000000E+00 0.  1.
<mgrwt>
<rscale>  0 0.16014911E+04</rscale>
<asrwt>0</asrwt>
<pdfrwt beam="1">  1        1 0.10575289E+00 0.16014911E+04</pdfrwt>
<pdfrwt beam="2">  1       -1 0.14350601E+00 0.16014911E+04</pdfrwt>
<totfact> 0.10553816E+01</totfact>
</mgrwt>
</event>
<event>
12    1  0.4612066E-007  0.3772980E+04  0.7818608E-02  0.8051978E-01
         -1   -1    0    0    0  501 -0.00000000000E+00  0.00000000000E+00  0.18732566108E+04  0.18732566108E+04  0.00000000000E+00 0.  1.
          1   -1    0    0  501    0  0.00000000000E+00 -0.00000000000E+00 -0.18998170085E+04  0.18998170085E+04  0.00000000000E+00 0. -1.
         23    2    1    2    0    0 -0.61371179895E+03  0.32628161268E+03 -0.16452194585E+04  0.17881272406E+04  0.86891307496E+02 0.  0.
        254    2    1    2    0    0  0.61371179895E+03 -0.32628161268E+03  0.16186590607E+04  0.19849463786E+04  0.91479675795E+03 0.  0.
        -24    2    4    4    0    0  0.11688636936E+03 -0.43590080111E+03  0.13029164000E+04  0.13810904770E+04  0.78408090393E+02 0.  0.
         24    2    4    4    0    0  0.49682542958E+03  0.10961918843E+03  0.31574266073E+03  0.60385590163E+03  0.78081035934E+02 0.  0.
         11    1    3    3    0    0 -0.19195960170E+03  0.14203876166E+03 -0.50890831325E+03  0.56214870790E+03  0.00000000000E+00 0.  1.
        -11    1    3    3    0    0 -0.42175219725E+03  0.18424285102E+03 -0.11363111452E+04  0.12259785327E+04  0.00000000000E+00 0. -1.
          4    1    6    6  502    0  0.43608239809E+03  0.11609787072E+03  0.29587420014E+03  0.53961849098E+03  0.00000000000E+00 0. -1.
          3    1    5    5  503    0  0.34596764381E+02 -0.26823583694E+03  0.72933999644E+03  0.77787160299E+03  0.00000000000E+00 0. -1.
         -4    1    5    5    0  503  0.82289604981E+02 -0.16766496416E+03  0.57357640352E+03  0.60321887402E+03  0.00000000000E+00 0.  1.
         -3    1    6    6    0  502  0.60743031497E+02 -0.64786822938E+01  0.19868460598E+02  0.64237410644E+02  0.00000000000E+00 0.  1.
<mgrwt>
<rscale>  0 0.37729801E+04</rscale>
<asrwt>0</asrwt>
<pdfrwt beam="1">  1        1 0.29227954E+00 0.37729801E+04</pdfrwt>
<pdfrwt beam="2">  1       -1 0.28819332E+00 0.37729801E+04</pdfrwt>
<totfact> 0.10946723E-01</totfact>
</mgrwt>
</event>
<event>
12    1  0.4612066E-007  0.1586342E+04  0.7818608E-02  0.8828983E-01
         -1   -1    0    0    0  501 -0.00000000000E+00  0.00000000000E+00  0.48307442373E+03  0.48307442373E+03  0.00000000000E+00 0.  1.
          1   -1    0    0  501    0  0.00000000000E+00 -0.00000000000E+00 -0.13023251987E+04  0.13023251987E+04  0.00000000000E+00 0. -1.
         23    2    1    2    0    0  0.42178706740E+03 -0.17886405352E+03  0.29638172227E+02  0.46707342352E+03  0.85921370127E+02 0.  0.
        254    2    1    2    0    0 -0.42178706740E+03  0.17886405352E+03 -0.84888894721E+03  0.13183261989E+04  0.89859603949E+03 0.  0.
        -24    2    4    4    0    0 -0.68907781381E+03  0.10511150275E+03 -0.48173212263E+03  0.85103516797E+03  0.79488097543E+02 0.  0.
         24    2    4    4    0    0  0.26729074642E+03  0.73752550764E+02 -0.36715682459E+03  0.46729103094E+03  0.81688382887E+02 0.  0.
         11    1    3    3    0    0 -0.13971866875E+01  0.42938769694E+01 -0.18493751768E+01  0.48795182767E+01  0.00000000000E+00 0. -1.
        -11    1    3    3    0    0  0.42318425408E+03 -0.18315793049E+03  0.31487547404E+02  0.46219390525E+03  0.00000000000E+00 0.  1.
          4    1    6    6  502    0  0.22608905084E+02 -0.12388620415E+02 -0.59665928942E+02  0.64997412113E+02  0.00000000000E+00 0. -1.
          1    1    5    5  503    0 -0.16587042442E+02 -0.56776564015E+01 -0.21608935792E+01  0.17664518682E+02  0.00000000000E+00 0. -1.
         -2    1    5    5    0  503 -0.67249077137E+03  0.11078915916E+03 -0.47957122905E+03  0.83337064929E+03  0.00000000000E+00 0.  1.
         -3    1    6    6    0  502  0.24468184133E+03  0.86141171179E+02 -0.30749089564E+03  0.40229361883E+03  0.00000000000E+00 0.  1.
<mgrwt>
<rscale>  0 0.15863417E+04</rscale>
<asrwt>0</asrwt>
<pdfrwt beam="1">  1        1 0.20035772E+00 0.15863417E+04</pdfrwt>
<pdfrwt beam="2">  1       -1 0.74319143E-01 0.15863417E+04</pdfrwt>
<totfact> 0.15774676E+01</totfact>
</mgrwt>
</event>
<event>
12    1  0.8026356E-007  0.2022412E+04  0.7818608E-02  0.8596214E-01
         -1   -1    0    0    0  501 -0.00000000000E+00  0.00000000000E+00  0.79446327438E+03  0.79446327438E+03  0.00000000000E+00 0.  1.
          1   -1    0    0  501    0  0.00000000000E+00 -0.00000000000E+00 -0.12870791949E+04  0.12870791949E+04  0.00000000000E+00 0. -1.
         23    2    1    2    0    0 -0.10299874963E+03  0.54854567685E+03 -0.80264704015E+03  0.98185603986E+03  0.91037958703E+02 0.  0.
        254    2    1    2    0    0  0.10299874963E+03 -0.54854567685E+03  0.31003111967E+03  0.10996864294E+04  0.89536576090E+03 0.  0.
        -24    2    4    4    0    0 -0.32172727455E+03 -0.15320091883E+03 -0.10681717216E+03  0.38056671800E+03  0.80263054117E+02 0.  0.
         24    2    4    4    0    0  0.42472602418E+03 -0.39534475802E+03  0.41684829183E+03  0.71911971139E+03  0.81737308456E+02 0.  0.
         11    1    3    3    0    0 -0.46798728862E+02  0.41048591931E+03 -0.63448923782E+03  0.75714292170E+03  0.00000000000E+00 0. -1.
        -11    1    3    3    0    0 -0.56200020764E+02  0.13805975754E+03 -0.16815780233E+03  0.22471311815E+03  0.00000000000E+00 0.  1.
          4    1    6    6  502    0  0.40920486137E+03 -0.35223411889E+03  0.37862331375E+03  0.65944909341E+03  0.00000000000E+00 0. -1.
          3    1    5    5  503    0 -0.30119963956E+03 -0.14139856590E+03 -0.75311228942E+02  0.34115474277E+03  0.00000000000E+00 0. -1.
         -4    1    5    5    0  503 -0.20527634994E+02 -0.11802352935E+02 -0.31505943221E+02  0.39411975230E+02  0.00000000000E+00 0.  1.
         -3    1    6    6    0  502  0.15521162813E+02 -0.43110639127E+02  0.38224978080E+02  0.59670617981E+02  0.00000000000E+00 0.  1.
<mgrwt>
<rscale>  0 0.20224116E+04</rscale>
<asrwt>0</asrwt>
<pdfrwt beam="1">  1        1 0.19801218E+00 0.20224116E+04</pdfrwt>
<pdfrwt beam="2">  1       -1 0.12222512E+00 0.20224116E+04</pdfrwt>
<totfact> 0.50625763E+00</totfact>
</mgrwt>
</event>
<event>
12    1  0.4612066E-007  0.1988648E+04  0.7818608E-02  0.8611947E-01
         -2   -1    0    0    0  501 -0.00000000000E+00  0.00000000000E+00  0.35447679383E+03  0.35447679383E+03  0.00000000000E+00 0.  1.
          2   -1    0    0  501    0  0.00000000000E+00 -0.00000000000E+00 -0.27891254895E+04  0.27891254895E+04  0.00000000000E+00 0. -1.
         23    2    1    2    0    0 -0.35909570380E+02  0.77266397200E+03 -0.12288235639E+04  0.14548891400E+04  0.91629404147E+02 0.  0.
        254    2    1    2    0    0  0.35909570380E+02 -0.77266397200E+03 -0.12058251318E+04  0.16887131433E+04  0.89411337150E+03 0.  0.
        -24    2    4    4    0    0 -0.50164856531E+02 -0.81985526485E+03 -0.12942346668E+04  0.15348987234E+04  0.78686405049E+02 0.  0.
         24    2    4    4    0    0  0.86074426911E+02  0.47191292853E+02  0.88409535022E+02  0.15381441987E+03  0.78783277343E+02 0.  0.
         11    1    3    3    0    0 -0.42458643966E+02  0.18940332074E+03 -0.34715530294E+03  0.39773503582E+03  0.00000000000E+00 0. -1.
        -11    1    3    3    0    0  0.65490735856E+01  0.58326065126E+03 -0.88166826098E+03  0.10571541042E+04  0.00000000000E+00 0.  1.
          2    1    6    6  502    0  0.65258652187E+02  0.69444510033E+02  0.64316643349E+02  0.11496896221E+03  0.00000000000E+00 0. -1.
          1    1    5    5  503    0 -0.14670512744E+02 -0.61546572555E+03 -0.10135363546E+04  0.11858622286E+04  0.00000000000E+00 0. -1.
         -2    1    5    5    0  503 -0.35494343787E+02 -0.20438953930E+03 -0.28069831222E+03  0.34903649480E+03  0.00000000000E+00 0.  1.
         -1    1    6    6    0  502  0.20815774724E+02 -0.22253217180E+02  0.24092891673E+02  0.38845457667E+02  0.00000000000E+00 0.  1.
<mgrwt>
<rscale>  0 0.19886480E+04</rscale>
<asrwt>0</asrwt>
<pdfrwt beam="1">  1        2 0.42909624E+00 0.19886480E+04</pdfrwt>
<pdfrwt beam="2">  1       -2 0.54534890E-01 0.19886480E+04</pdfrwt>
<totfact> 0.69188606E+00</totfact>
</mgrwt>
</event>
<event>
12    1  0.4612066E-007  0.2938915E+04  0.7818608E-02  0.8261393E-01
          1   -1    0    0  501    0  0.00000000000E+00  0.00000000000E+00  0.96595330190E+03  0.96595330190E+03  0.00000000000E+00 0. -1.
         -1   -1    0    0    0  501 -0.00000000000E+00 -0.00000000000E+00 -0.22354132021E+04  0.22354132021E+04  0.00000000000E+00 0.  1.
         23    2    1    2    0    0  0.15726934557E+03  0.10555337325E+04  0.28651385479E+03  0.11086663596E+04  0.90364818130E+02 0.  0.
        254    2    1    2    0    0 -0.15726934557E+03 -0.10555337325E+04 -0.15559737549E+04  0.20927001443E+04  0.90523723986E+03 0.  0.
        -24    2    4    4    0    0 -0.41546381546E+03 -0.98695838701E+03 -0.14258064381E+04  0.17850922443E+04  0.83266332295E+02 0.  0.
         24    2    4    4    0    0  0.25819446989E+03 -0.68575345540E+02 -0.13016731687E+03  0.30760790005E+03  0.79448898632E+02 0.  0.
         13    1    3    3    0    0  0.82217848977E+02  0.40393787265E+03  0.15031224155E+03  0.43877026974E+03  0.00000000000E+00 0. -1.
        -13    1    3    3    0    0  0.75051496592E+02  0.65159585990E+03  0.13620161324E+03  0.66989608987E+03  0.00000000000E+00 0.  1.
          4    1    6    6  502    0  0.27640601062E+02 -0.27703678357E+02 -0.42009100017E+02  0.57413074345E+02  0.00000000000E+00 0. -1.
          1    1    5    5  503    0 -0.77940759017E+02 -0.12396787336E+03 -0.16917386410E+03  0.22374671358E+03  0.00000000000E+00 0. -1.
         -2    1    5    5    0  503 -0.33752305645E+03 -0.86299051364E+03 -0.12566325740E+04  0.15613455307E+04  0.00000000000E+00 0.  1.
         -3    1    6    6    0  502  0.23055386883E+03 -0.40871667184E+02 -0.88158216849E+02  0.25019482571E+03  0.00000000000E+00 0.  1.
<mgrwt>
<rscale>  0 0.29389146E+04</rscale>
<asrwt>0</asrwt>
<pdfrwt beam="1">  1        1 0.14860820E+00 0.29389146E+04</pdfrwt>
<pdfrwt beam="2">  1       -1 0.34390972E+00 0.29389146E+04</pdfrwt>
<totfact> 0.23472823E-01</totfact>
</mgrwt>
</event>
<event>
12    1  0.4612066E-007  0.1868286E+04  0.7818608E-02  0.8670806E-01
          2   -1    0    0  501    0  0.00000000000E+00  0.00000000000E+00  0.20041910159E+04  0.20041910159E+04  0.00000000000E+00 0. -1.
         -2   -1    0    0    0  501 -0.00000000000E+00 -0.00000000000E+00 -0.43539902963E+03  0.43539902963E+03  0.00000000000E+00 0.  1.
         23    2    1    2    0    0  0.30765118584E+03  0.35505106870E+03  0.13104978523E+04  0.13950732148E+04  0.90078523038E+02 0.  0.
        254    2    1    2    0    0 -0.30765118584E+03 -0.35505106870E+03  0.25829413398E+03  0.10445168307E+04  0.89643127816E+03 0.  0.
        -24    2    4    4    0    0  0.14039935509E+03 -0.65698308222E+01 -0.23657466370E+03  0.28725480826E+03  0.82417302645E+02 0.  0.
         24    2    4    4    0    0 -0.44805054093E+03 -0.34848123787E+03  0.49486879768E+03  0.75726202246E+03  0.79763295813E+02 0.  0.
         11    1    3    3    0    0  0.27460056310E+03  0.33826854515E+03  0.12536919475E+04  0.13272432245E+04  0.00000000000E+00 0. -1.
        -11    1    3    3    0    0  0.33050622740E+02  0.16782523544E+02  0.56805904769E+02  0.67829990245E+02  0.00000000000E+00 0.  1.
          4    1    6    6  502    0 -0.11623365529E+03 -0.55749162597E+02  0.13755820334E+03  0.18852185830E+03  0.00000000000E+00 0. -1.
          3    1    5    5  503    0  0.16775709831E+02 -0.23932420422E+01  0.33940842099E+01  0.17282125316E+02  0.00000000000E+00 0. -1.
         -4    1    5    5    0  503  0.12362364526E+03 -0.41765887800E+01 -0.23996874791E+03  0.26997268294E+03  0.00000000000E+00 0.  1.
         -3    1    6    6    0  502 -0.33181688564E+03 -0.29273207528E+03  0.35731059434E+03  0.56874016415E+03  0.00000000000E+00 0.  1.
<mgrwt>
<rscale>  0 0.18682857E+04</rscale>
<asrwt>0</asrwt>
<pdfrwt beam="1">  1        2 0.30833708E+00 0.18682857E+04</pdfrwt>
<pdfrwt beam="2">  1       -2 0.66984467E-01 0.18682857E+04</pdfrwt>
<totfact> 0.12764983E+01</totfact>
</mgrwt>
</event>
<event>
12    1  0.4612066E-007  0.2238797E+04  0.7818608E-02  0.8502451E-01
          1   -1    0    0  501    0  0.00000000000E+00  0.00000000000E+00  0.11823769288E+04  0.11823769288E+04  0.00000000000E+00 0. -1.
         -1   -1    0    0    0  501 -0.00000000000E+00 -0.00000000000E+00 -0.10597745788E+04  0.10597745788E+04  0.00000000000E+00 0.  1.
         23    2    1    2    0    0  0.64990534316E+03 -0.22520749526E+03 -0.58373337465E+03  0.90771427549E+03  0.10052453554E+03 0.  0.
        254    2    1    2    0    0 -0.64990534316E+03  0.22520749526E+03  0.70633572463E+03  0.13344372321E+04  0.89928705069E+03 0.  0.
        -24    2    4    4    0    0 -0.50493158120E+03 -0.24230936103E+03  0.14268894410E+03  0.58358267408E+03  0.80863308004E+02 0.  0.
         24    2    4    4    0    0 -0.14497376196E+03  0.46751685628E+03  0.56364678053E+03  0.75085455802E+03  0.80594488249E+02 0.  0.
         11    1    3    3    0    0  0.31792771990E+03 -0.66264643062E+02 -0.23691677515E+03  0.40199327898E+03  0.00000000000E+00 0. -1.
        -11    1    3    3    0    0  0.33197762326E+03 -0.15894285219E+03 -0.34681659951E+03  0.50572099650E+03  0.00000000000E+00 0.  1.
          4    1    6    6  502    0 -0.14979497253E+03  0.39176382908E+03  0.49145902940E+03  0.64610324960E+03  0.00000000000E+00 0. -1.
          1    1    5    5  503    0 -0.20723684117E+02 -0.22918902444E+02 -0.62416475281E+01  0.31523092115E+02  0.00000000000E+00 0. -1.
         -2    1    5    5    0  503 -0.48420789709E+03 -0.21939045858E+03  0.14893059163E+03  0.55205958196E+03  0.00000000000E+00 0.  1.
         -3    1    6    6    0  502  0.48212105752E+01  0.75753027207E+02  0.72187751133E+02  0.10475130842E+03  0.00000000000E+00 0.  1.
<mgrwt>
<rscale>  0 0.22387970E+04</rscale>
<asrwt>0</asrwt>
<pdfrwt beam="1">  1        1 0.18190414E+00 0.22387970E+04</pdfrwt>
<pdfrwt beam="2">  1       -1 0.16304224E+00 0.22387970E+04</pdfrwt>
<totfact> 0.27729804E+00</totfact>
</mgrwt>
</event>
<event>
12    1  0.4612066E-007  0.2473970E+04  0.7818608E-02  0.8412318E-01
          1   -1    0    0  501    0  0.00000000000E+00  0.00000000000E+00  0.27332969884E+04  0.27332969884E+04  0.00000000000E+00 0. -1.
         -1   -1    0    0    0  501 -0.00000000000E+00 -0.00000000000E+00 -0.55981184897E+03  0.55981184897E+03  0.00000000000E+00 0.  1.
         23    2    1    2    0    0  0.81671638769E+03  0.66267848283E+03  0.12172826409E+04  0.16117500637E+04  0.98958630161E+02 0.  0.
        254    2    1    2    0    0 -0.81671638769E+03 -0.66267848283E+03  0.95620249852E+03  0.16813587737E+04  0.89803990893E+03 0.  0.
        -24    2    4    4    0    0 -0.66314196064E+03 -0.71238299170E+03  0.10849971009E+04  0.14596933873E+04  0.78989170820E+02 0.  0.
         24    2    4    4    0    0 -0.15357442705E+03  0.49704508873E+02 -0.12879460240E+03  0.22166538635E+03  0.80572023999E+02 0.  0.
         13    1    3    3    0    0  0.78579187830E+03  0.65821827721E+03  0.11774129014E+04  0.15610961907E+04  0.00000000000E+00 0. -1.
        -13    1    3    3    0    0  0.30924509387E+02  0.44602056178E+01  0.39869739507E+02  0.50653872936E+02  0.00000000000E+00 0.  1.
          4    1    6    6  502    0 -0.41912429365E+02  0.10641462252E+02  0.44662569250E+01  0.43472288933E+02  0.00000000000E+00 0. -1.
          3    1    5    5  503    0 -0.35721845656E+03 -0.44031848675E+03  0.62146249338E+03  0.84124968122E+03  0.00000000000E+00 0. -1.
         -4    1    5    5    0  503 -0.30592350408E+03 -0.27206450495E+03  0.46353460755E+03  0.61844370608E+03  0.00000000000E+00 0.  1.
         -3    1    6    6    0  502 -0.11166199768E+03  0.39063046622E+02 -0.13326085932E+03  0.17819309741E+03  0.00000000000E+00 0.  1.
<mgrwt>
<rscale>  0 0.24739701E+04</rscale>
<asrwt>0</asrwt>
<pdfrwt beam="1">  1        1 0.42050722E+00 0.24739701E+04</pdfrwt>
<pdfrwt beam="2">  1       -1 0.86124901E-01 0.24739701E+04</pdfrwt>
<totfact> 0.11009989E+00</totfact>
</mgrwt>
</event>
<event>
12    1  0.4612066E-007  0.4094692E+04  0.7818608E-02  0.7985712E-01
          2   -1    0    0  501    0  0.00000000000E+00  0.00000000000E+00  0.24627031505E+04  0.24627031505E+04  0.00000000000E+00 0. -1.
         -2   -1    0    0    0  501 -0.00000000000E+00 -0.00000000000E+00 -0.17020428500E+04  0.17020428500E+04  0.00000000000E+00 0.  1.
         23    2    1    2    0    0 -0.35697977398E+03 -0.18894567764E+04  0.40230752608E+02  0.19255399948E+04  0.92759308342E+02 0.  0.
        254    2    1    2    0    0  0.35697977398E+03  0.18894567764E+04  0.72042954795E+03  0.22392060057E+04  0.89305281691E+03 0.  0.
        -24    2    4    4    0    0  0.58485500592E+03  0.75098044419E+03  0.28756657231E+03  0.99757251984E+03  0.80183497801E+02 0.  0.
         24    2    4    4    0    0 -0.22787523194E+03  0.11384763322E+04  0.43286297563E+03  0.12416334859E+04  0.78916901661E+02 0.  0.
         11    1    3    3    0    0 -0.26652604857E+03 -0.11783299546E+04  0.37490349860E+02  0.12086782628E+04  0.00000000000E+00 0.  1.
        -11    1    3    3    0    0 -0.90453725410E+02 -0.71112682173E+03  0.27404027480E+01  0.71686173202E+03  0.00000000000E+00 0. -1.
          4    1    6    6  502    0 -0.18838834511E+03  0.85558475475E+03  0.35758263682E+03  0.94624562524E+03  0.00000000000E+00 0. -1.
          3    1    5    5  503    0  0.54534390636E+03  0.67525856156E+03  0.24358407392E+03  0.90150280212E+03  0.00000000000E+00 0. -1.
         -4    1    5    5    0  503  0.39511099560E+02  0.75721882633E+02  0.43982498393E+02  0.96069717720E+02  0.00000000000E+00 0.  1.
         -3    1    6    6    0  502 -0.39486886835E+02  0.28289157743E+03  0.75280338812E+02  0.29538786066E+03  0.00000000000E+00 0.  1.
<mgrwt>
<rscale>  0 0.40946923E+04</rscale>
<asrwt>0</asrwt>
<pdfrwt beam="1">  1        2 0.37887741E+00 0.40946923E+04</pdfrwt>
<pdfrwt beam="2">  1       -2 0.26185275E+00 0.40946923E+04</pdfrwt>
<totfact> 0.15568893E-01</totfact>
</mgrwt>
</event>
<event>
12    1  0.4612066E-007  0.3062866E+04  0.7818608E-02  0.8226003E-01
         -2   -1    0    0    0  501 -0.00000000000E+00  0.00000000000E+00  0.10809423353E+04  0.10809423353E+04  0.00000000000E+00 0.  1.
          2   -1    0    0  501    0  0.00000000000E+00 -0.00000000000E+00 -0.21696693106E+04  0.21696693106E+04  0.00000000000E+00 0. -1.
         23    2    1    2    0    0 -0.76854433666E+03 -0.10852329812E+04 -0.39697728869E+02  0.13335321739E+04  0.91329777255E+02 0.  0.
        254    2    1    2    0    0  0.76854433666E+03  0.10852329812E+04 -0.10490292464E+04  0.19170794721E+04  0.89796454364E+03 0.  0.
        -24    2    4    4    0    0 -0.11670319473E+03  0.26783389689E+03 -0.51294791130E+03  0.59596545706E+03  0.81881831446E+02 0.  0.
         24    2    4    4    0    0  0.88524753139E+03  0.81739908427E+03 -0.53608133508E+03  0.13211140150E+04  0.78451182314E+02 0.  0.
         11    1    3    3    0    0 -0.47002704595E+03 -0.59960830254E+03  0.31846023925E+01  0.76188298451E+03  0.00000000000E+00 0.  1.
        -11    1    3    3    0    0 -0.29851729072E+03 -0.48562467862E+03 -0.42882331262E+02  0.57164918935E+03  0.00000000000E+00 0. -1.
          4    1    6    6  502    0  0.12467801464E+03  0.15396150183E+03 -0.82285748716E+02  0.21452201710E+03  0.00000000000E+00 0. -1.
          3    1    5    5  503    0 -0.19169513720E+02  0.10451001184E+03 -0.12626475725E+03  0.16502303401E+03  0.00000000000E+00 0. -1.
         -4    1    5    5    0  503 -0.97533681010E+02  0.16332388505E+03 -0.38668315405E+03  0.43094242305E+03  0.00000000000E+00 0.  1.
         -3    1    6    6    0  502  0.76056951675E+03  0.66343758244E+03 -0.45379558636E+03  0.11065919979E+04  0.00000000000E+00 0.  1.
<mgrwt>
<rscale>  0 0.30628662E+04</rscale>
<asrwt>0</asrwt>
<pdfrwt beam="1">  1        2 0.33379527E+00 0.30628662E+04</pdfrwt>
<pdfrwt beam="2">  1       -2 0.16629882E+00 0.30628662E+04</pdfrwt>
<totfact> 0.10362311E+00</totfact>
</mgrwt>
</event>
<event>
12    1  0.4612066E-007  0.2140367E+04  0.7818608E-02  0.8543667E-01
         -2   -1    0    0    0  501 -0.00000000000E+00  0.00000000000E+00  0.75560136829E+03  0.75560136829E+03  0.00000000000E+00 0.  1.
          2   -1    0    0  501    0  0.00000000000E+00 -0.00000000000E+00 -0.15157366315E+04  0.15157366315E+04  0.00000000000E+00 0. -1.
         23    2    1    2    0    0  0.43021951832E+03 -0.45423248805E+02  0.44518338632E+03  0.62726046983E+03  0.90085204573E+02 0.  0.
        254    2    1    2    0    0 -0.43021951832E+03  0.45423248805E+02 -0.12053186495E+04  0.16440775299E+04  0.10310411108E+04 0.  0.
        -24    2    4    4    0    0  0.19000041497E+03 -0.28825903737E+03 -0.66225996968E+03  0.75116373677E+03  0.80406850954E+02 0.  0.
         24    2    4    4    0    0 -0.62021993329E+03  0.33368228618E+03 -0.54305867980E+03  0.89291379315E+03  0.79785202474E+02 0.  0.
         11    1    3    3    0    0  0.41118068576E+03 -0.61327380073E+02  0.40746640497E+03  0.58211637588E+03  0.00000000000E+00 0. -1.
        -11    1    3    3    0    0  0.19038832564E+02  0.15904131268E+02  0.37716981352E+02  0.45144093956E+02  0.00000000000E+00 0.  1.
          4    1    6    6  502    0 -0.36892035348E+03  0.16990613697E+03 -0.27380616088E+03  0.48983684665E+03  0.00000000000E+00 0. -1.
          3    1    5    5  503    0  0.17880483494E+03 -0.26738521483E+03 -0.64819007554E+03  0.72361343004E+03  0.00000000000E+00 0. -1.
         -4    1    5    5    0  503  0.11195580031E+02 -0.20873822538E+02 -0.14069894139E+02  0.27550306725E+02  0.00000000000E+00 0.  1.
         -3    1    6    6    0  502 -0.25129957980E+03  0.16377614920E+03 -0.26925251892E+03  0.40307694650E+03  0.00000000000E+00 0.  1.
<mgrwt>
<rscale>  0 0.21403670E+04</rscale>
<asrwt>0</asrwt>
<pdfrwt beam="1">  1        2 0.23319025E+00 0.21403670E+04</pdfrwt>
<pdfrwt beam="2">  1       -2 0.11624636E+00 0.21403670E+04</pdfrwt>
<totfact> 0.65614548E+00</totfact>
</mgrwt>
</event>
<event>
12    1  0.4612066E-007  0.5729820E+04  0.7818608E-02  0.7724834E-01
         -2   -1    0    0    0  501 -0.00000000000E+00  0.00000000000E+00  0.30093084905E+04  0.30093084905E+04  0.00000000000E+00 0.  1.
          2   -1    0    0  501    0  0.00000000000E+00 -0.00000000000E+00 -0.27274400610E+04  0.27274400610E+04  0.00000000000E+00 0. -1.
         23    2    1    2    0    0 -0.77637460582E+03 -0.11548264311E+04 -0.22901073328E+04  0.26811479854E+04  0.87070714953E+02 0.  0.
        254    2    1    2    0    0  0.77637460582E+03  0.11548264311E+04  0.25719757623E+04  0.30556005661E+04  0.88614552020E+03 0.  0.
        -24    2    4    4    0    0  0.58452076563E+03  0.81723383091E+03  0.94715985220E+03  0.13832029903E+04  0.81259257291E+02 0.  0.
         24    2    4    4    0    0  0.19185384020E+03  0.33759260019E+03  0.16248159101E+04  0.16723975758E+04  0.78168088432E+02 0.  0.
         13    1    3    3    0    0 -0.16350169556E+03 -0.28480302130E+03 -0.48613764781E+03  0.58666462141E+03  0.00000000000E+00 0.  1.
        -13    1    3    3    0    0 -0.61287291026E+03 -0.87002340981E+03 -0.18039696850E+04  0.20944833640E+04  0.00000000000E+00 0. -1.
          2    1    6    6  502    0  0.85999530222E+01  0.20035201891E+02  0.19922584592E+03  0.20041533422E+03  0.00000000000E+00 0. -1.
          1    1    5    5  503    0  0.58987542132E+02  0.85302562854E+02  0.13423035626E+03  0.16962855272E+03  0.00000000000E+00 0. -1.
         -2    1    5    5    0  503  0.52553322349E+03  0.73193126806E+03  0.81292949595E+03  0.12135744376E+04  0.00000000000E+00 0.  1.
         -1    1    6    6    0  502  0.18325388717E+03  0.31755739830E+03  0.14255900642E+04  0.14719822416E+04  0.00000000000E+00 0.  1.
<mgrwt>
<rscale>  0 0.57298197E+04</rscale>
<asrwt>0</asrwt>
<pdfrwt beam="1">  1        2 0.41960616E+00 0.57298197E+04</pdfrwt>
<pdfrwt beam="2">  1       -2 0.46297054E+00 0.57298197E+04</pdfrwt>
<totfact> 0.50378834E-03</totfact>
</mgrwt>
</event>
<event>
12    1  0.5456374E-007  0.3168072E+04  0.7818608E-02  0.8197301E-01
          2   -1    0    0  501    0  0.00000000000E+00  0.00000000000E+00  0.23403806668E+04  0.23403806668E+04  0.00000000000E+00 0. -1.
         -2   -1    0    0    0  501 -0.00000000000E+00 -0.00000000000E+00 -0.10721204199E+04  0.10721204199E+04  0.00000000000E+00 0.  1.
         23    2    1    2    0    0  0.35369611644E+03  0.14079306040E+04  0.43221901624E+03  0.15166712794E+04  0.78159856727E+02 0.  0.
        254    2    1    2    0    0 -0.35369611644E+03 -0.14079306040E+04  0.83604123060E+03  0.18958298074E+04  0.88760136935E+03 0.  0.
        -24    2    4    4    0    0 -0.59724843835E+03 -0.89291072070E+03  0.75385049167E+03  0.13147858138E+04  0.79849358550E+02 0.  0.
         24    2    4    4    0    0  0.24355232190E+03 -0.51501988328E+03  0.82190738936E+02  0.58104399360E+03  0.79332157797E+02 0.  0.
         11    1    3    3    0    0  0.17532839856E+03  0.71805812436E+03  0.26049824109E+03  0.78371350053E+03  0.00000000000E+00 0. -1.
        -11    1    3    3    0    0  0.17836771788E+03  0.68987247962E+03  0.17172077515E+03  0.73295777882E+03  0.00000000000E+00 0.  1.
          4    1    6    6  502    0  0.21464993379E+03 -0.37895912106E+03  0.73400806404E+02  0.44166988565E+03  0.00000000000E+00 0. -1.
          3    1    5    5  503    0 -0.51825860747E+03 -0.81107989407E+03  0.65665356271E+03  0.11651765876E+04  0.00000000000E+00 0. -1.
         -4    1    5    5    0  503 -0.78989830880E+02 -0.81830826633E+02  0.97196928950E+02  0.14960922621E+03  0.00000000000E+00 0.  1.
         -3    1    6    6    0  502  0.28902388119E+02 -0.13606076222E+03  0.87899325322E+01  0.13937410796E+03  0.00000000000E+00 0.  1.
<mgrwt>
<rscale>  0 0.31680719E+04</rscale>
<asrwt>0</asrwt>
<pdfrwt beam="1">  1        2 0.36005856E+00 0.31680719E+04</pdfrwt>
<pdfrwt beam="2">  1       -2 0.16494160E+00 0.31680719E+04</pdfrwt>
<totfact> 0.84126340E-01</totfact>
</mgrwt>
</event>
<event>
12    1  0.1027006E-006  0.1789484E+04  0.7818608E-02  0.8711912E-01
          2   -1    0    0  501    0  0.00000000000E+00  0.00000000000E+00  0.14457855007E+04  0.14457855007E+04  0.00000000000E+00 0. -1.
         -2   -1    0    0    0  501 -0.00000000000E+00 -0.00000000000E+00 -0.55372183594E+03  0.55372183594E+03  0.00000000000E+00 0.  1.
         23    2    1    2    0    0  0.46711291077E+03  0.36342319940E+03 -0.51324503381E+00  0.59590598152E+03  0.69518214265E+02 0.  0.
        254    2    1    2    0    0 -0.46711291077E+03 -0.36342319940E+03  0.89257690983E+03  0.14036013552E+04  0.90726640574E+03 0.  0.
        -24    2    4    4    0    0  0.24570933172E+03 -0.24538231855E+03  0.28122495686E+03  0.45381663136E+03  0.79224368624E+02 0.  0.
         24    2    4    4    0    0 -0.71282224249E+03 -0.11804088085E+03  0.61135195297E+03  0.94978472381E+03  0.79313379951E+02 0.  0.
         11    1    3    3    0    0  0.27601927781E+03  0.20102155739E+03 -0.32896068162E+02  0.34304294128E+03  0.00000000000E+00 0.  1.
        -11    1    3    3    0    0  0.19109363296E+03  0.16240164201E+03  0.32382823128E+02  0.25286304024E+03  0.00000000000E+00 0. -1.
          2    1    6    6  502    0 -0.11947382754E+02 -0.13703926617E+02  0.17711935580E+02  0.25382084654E+02  0.00000000000E+00 0. -1.
          1    1    5    5  503    0  0.11751790850E+02 -0.44187679568E+02  0.53120291526E+02  0.70088665172E+02  0.00000000000E+00 0. -1.
         -2    1    5    5    0  503  0.23395754087E+03 -0.20119463898E+03  0.22810466533E+03  0.38372796618E+03  0.00000000000E+00 0.  1.
         -1    1    6    6    0  502 -0.70087485973E+03 -0.10433695424E+03  0.59364001739E+03  0.92440263916E+03  0.00000000000E+00 0.  1.
<mgrwt>
<rscale>  0 0.17894837E+04</rscale>
<asrwt>0</asrwt>
<pdfrwt beam="1">  1        2 0.22242854E+00 0.17894837E+04</pdfrwt>
<pdfrwt beam="2">  1       -2 0.85187975E-01 0.17894837E+04</pdfrwt>
<totfact> 0.15434495E+01</totfact>
</mgrwt>
</event>
<event>
12    1  0.4612066E-007  0.3465851E+04  0.7818608E-02  0.8121931E-01
          2   -1    0    0  501    0  0.00000000000E+00  0.00000000000E+00  0.13497972557E+04  0.13497972557E+04  0.00000000000E+00 0. -1.
         -2   -1    0    0    0  501 -0.00000000000E+00 -0.00000000000E+00 -0.22248015716E+04  0.22248015716E+04  0.00000000000E+00 0.  1.
         23    2    1    2    0    0  0.15217986249E+04 -0.51065357829E+03 -0.58278854707E+03  0.17101922198E+04  0.92069573788E+02 0.  0.
        254    2    1    2    0    0 -0.15217986249E+04  0.51065357829E+03 -0.29221576881E+03  0.18644066074E+04  0.90221051347E+03 0.  0.
        -24    2    4    4    0    0 -0.13196952185E+03  0.41868315553E+03 -0.68357079898E+02  0.45151796617E+03  0.80524803511E+02 0.  0.
         24    2    4    4    0    0 -0.13898291030E+04  0.91970422764E+02 -0.22385868891E+03  0.14128886413E+04  0.77833834059E+02 0.  0.
         11    1    3    3    0    0  0.44586457031E+03 -0.19243523001E+03 -0.16357343825E+03  0.51242833890E+03  0.00000000000E+00 0.  1.
        -11    1    3    3    0    0  0.10759340546E+04 -0.31821834828E+03 -0.41921510882E+03  0.11977638809E+04  0.00000000000E+00 0. -1.
          2    1    6    6  502    0 -0.19974801900E+03  0.39516853447E+02 -0.24554199344E+02  0.20509451847E+03  0.00000000000E+00 0. -1.
          1    1    5    5  503    0  0.71517117053E+01  0.26562630497E+01 -0.16087707950E+01  0.77968491826E+01  0.00000000000E+00 0. -1.
         -2    1    5    5    0  503 -0.13912123355E+03  0.41602689248E+03 -0.66748309103E+02  0.44372111699E+03  0.00000000000E+00 0.  1.
         -1    1    6    6    0  502 -0.11900810840E+04  0.52453569318E+02 -0.19930448957E+03  0.12077941228E+04  0.00000000000E+00 0.  1.
<mgrwt>
<rscale>  0 0.34658512E+04</rscale>
<asrwt>0</asrwt>
<pdfrwt beam="1">  1        2 0.20766112E+00 0.34658512E+04</pdfrwt>
<pdfrwt beam="2">  1       -2 0.34227716E+00 0.34658512E+04</pdfrwt>
<totfact> 0.22165940E-01</totfact>
</mgrwt>
</event>
<event>
12    1  0.4612066E-007  0.1934010E+04  0.7818608E-02  0.8638110E-01
         -1   -1    0    0    0  501 -0.00000000000E+00  0.00000000000E+00  0.36022416667E+03  0.36022416667E+03  0.00000000000E+00 0.  1.
          1   -1    0    0  501    0  0.00000000000E+00 -0.00000000000E+00 -0.25958785751E+04  0.25958785751E+04  0.00000000000E+00 0. -1.
         23    2    1    2    0    0 -0.53115641511E+03 -0.12455918975E+03 -0.83048530807E+02  0.55936509514E+03  0.91379002673E+02 0.  0.
        254    2    1    2    0    0  0.53115641511E+03  0.12455918975E+03 -0.21526058776E+04  0.23967376466E+04  0.90166354774E+03 0.  0.
        -24    2    4    4    0    0  0.23850277860E+03  0.50424327165E+03 -0.12748856604E+04  0.13934818936E+04  0.72893678560E+02 0.  0.
         24    2    4    4    0    0  0.29265363651E+03 -0.37968408190E+03 -0.87772021726E+03  0.10032557530E+04  0.79518382769E+02 0.  0.
         13    1    3    3    0    0 -0.26197624451E+02 -0.23111784942E+02  0.91868695384E+01  0.36122966406E+02  0.00000000000E+00 0.  1.
        -13    1    3    3    0    0 -0.50495879066E+03 -0.10144740480E+03 -0.92235400346E+02  0.52324212873E+03  0.00000000000E+00 0. -1.
          2    1    6    6  502    0  0.24642081602E+03 -0.34105378732E+03 -0.80890314698E+03  0.91179230398E+03  0.00000000000E+00 0. -1.
          3    1    5    5  503    0  0.13475504532E+03  0.24704947384E+03 -0.56114455851E+03  0.62775439490E+03  0.00000000000E+00 0. -1.
         -4    1    5    5    0  503  0.10374773328E+03  0.25719379781E+03 -0.71374110184E+03  0.76572749869E+03  0.00000000000E+00 0.  1.
         -1    1    6    6    0  502  0.46232820490E+02 -0.38630294586E+02 -0.68817070278E+02  0.91463449049E+02  0.00000000000E+00 0.  1.
<mgrwt>
<rscale>  0 0.19340095E+04</rscale>
<asrwt>0</asrwt>
<pdfrwt beam="1">  1        1 0.39936592E+00 0.19340095E+04</pdfrwt>
<pdfrwt beam="2">  1       -1 0.55419104E-01 0.19340095E+04</pdfrwt>
<totfact> 0.35705202E+00</totfact>
</mgrwt>
</event>
<event>
12    1  0.4612066E-007  0.1443539E+04  0.7818608E-02  0.8922892E-01
          1   -1    0    0  501    0  0.00000000000E+00  0.00000000000E+00  0.17562669294E+04  0.17562669294E+04  0.00000000000E+00 0. -1.
         -1   -1    0    0    0  501 -0.00000000000E+00 -0.00000000000E+00 -0.29662409982E+03  0.29662409982E+03  0.00000000000E+00 0.  1.
         23    2    1    2    0    0 -0.97634191762E+02 -0.30535648930E+03  0.86387401493E+03  0.92552901451E+03  0.86894315523E+02 0.  0.
        254    2    1    2    0    0  0.97634191762E+02  0.30535648930E+03  0.59576881469E+03  0.11273620148E+04  0.90179244330E+03 0.  0.
        -24    2    4    4    0    0 -0.32166599732E+03 -0.39441963306E+02  0.22740036505E+02  0.33408564512E+03  0.77919360320E+02 0.  0.
         24    2    4    4    0    0  0.41930018908E+03  0.34479845260E+03  0.57302877818E+03  0.79327636964E+03  0.78910053299E+02 0.  0.
         11    1    3    3    0    0 -0.13369203359E+02 -0.23806453945E+02  0.16703087783E+03  0.16924773853E+03  0.00000000000E+00 0. -1.
        -11    1    3    3    0    0 -0.84264988403E+02 -0.28155003535E+03  0.69684313710E+03  0.75628127598E+03  0.00000000000E+00 0.  1.
          2    1    6    6  502    0  0.11059419312E+03  0.76425340665E+02  0.19104355304E+03  0.23360125728E+03  0.00000000000E+00 0. -1.
          3    1    5    5  503    0 -0.11321278593E+03 -0.17599074217E+02  0.45463181751E+02  0.12326298393E+03  0.00000000000E+00 0. -1.
         -4    1    5    5    0  503 -0.20845321139E+03 -0.21842889089E+02 -0.22723145246E+02  0.21082266119E+03  0.00000000000E+00 0.  1.
         -1    1    6    6    0  502  0.30870599596E+03  0.26837311194E+03  0.38198522515E+03  0.55967511235E+03  0.00000000000E+00 0.  1.
<mgrwt>
<rscale>  0 0.14435388E+04</rscale>
<asrwt>0</asrwt>
<pdfrwt beam="1">  1        1 0.27019490E+00 0.14435388E+04</pdfrwt>
<pdfrwt beam="2">  1       -1 0.45634478E-01 0.14435388E+04</pdfrwt>
<totfact> 0.20230072E+01</totfact>
</mgrwt>
</event>
<event>
12    1  0.4612066E-007  0.2296545E+04  0.7818608E-02  0.8479285E-01
          2   -1    0    0  501    0  0.00000000000E+00  0.00000000000E+00  0.82619915005E+03  0.82619915005E+03  0.00000000000E+00 0. -1.
         -2   -1    0    0    0  501 -0.00000000000E+00 -0.00000000000E+00 -0.15958984040E+04  0.15958984040E+04  0.00000000000E+00 0.  1.
         23    2    1    2    0    0 -0.75418489951E+00 -0.18356561594E+03 -0.13308802684E+04  0.13464825039E+04  0.89866234757E+02 0.  0.
        254    2    1    2    0    0  0.75418489951E+00  0.18356561594E+03  0.56118101450E+03  0.10756150502E+04  0.89906990885E+03 0.  0.
        -24    2    4    4    0    0  0.12459168321E+03  0.21716642401E+02  0.76380111070E+03  0.77752253991E+03  0.71794590873E+02 0.  0.
         24    2    4    4    0    0 -0.12383749831E+03  0.16184897354E+03 -0.20262009620E+03  0.29809251027E+03  0.79204956095E+02 0.  0.
         13    1    3    3    0    0  0.24759111507E+02 -0.11876828240E+02 -0.28239185855E+03  0.28372387003E+03  0.00000000000E+00 0. -1.
        -13    1    3    3    0    0 -0.25513296406E+02 -0.17168878770E+03 -0.10484884099E+04  0.10627586338E+04  0.00000000000E+00 0.  1.
          4    1    6    6  502    0  0.73014907018E+01  0.22456581003E+02 -0.42245911039E+02  0.48397590812E+02  0.00000000000E+00 0. -1.
          1    1    5    5  503    0  0.66300173175E+02  0.34955168310E+02  0.27324750439E+03  0.28334038789E+03  0.00000000000E+00 0. -1.
         -2    1    5    5    0  503  0.58291510037E+02 -0.13238525909E+02  0.49055360631E+03  0.49418215202E+03  0.00000000000E+00 0.  1.
         -3    1    6    6    0  502 -0.13113898901E+03  0.13939239254E+03 -0.16037418516E+03  0.24969491946E+03  0.00000000000E+00 0.  1.
<mgrwt>
<rscale>  0 0.22965451E+04</rscale>
<asrwt>0</asrwt>
<pdfrwt beam="1">  1        2 0.12710756E+00 0.22965451E+04</pdfrwt>
<pdfrwt beam="2">  1       -2 0.24552283E+00 0.22965451E+04</pdfrwt>
<totfact> 0.20481072E+00</totfact>
</mgrwt>
</event>
<event>
12    1  0.4612066E-007  0.2225752E+04  0.7818608E-02  0.8507785E-01
         -1   -1    0    0    0  501 -0.00000000000E+00  0.00000000000E+00  0.66710775884E+03  0.66710775884E+03  0.00000000000E+00 0.  1.
          1   -1    0    0  501    0  0.00000000000E+00 -0.00000000000E+00 -0.18565118019E+04  0.18565118019E+04  0.00000000000E+00 0. -1.
         23    2    1    2    0    0  0.18042659275E+03 -0.52941644783E+03  0.34003237682E+03  0.66082786770E+03  0.90751985336E+02 0.  0.
        254    2    1    2    0    0 -0.18042659275E+03  0.52941644783E+03 -0.15294364199E+04  0.18627916930E+04  0.90442335141E+03 0.  0.
        -24    2    4    4    0    0  0.32024753093E+00 -0.17585217981E+03 -0.35606034269E+02  0.19905202576E+03  0.86196447617E+02 0.  0.
         24    2    4    4    0    0 -0.18074684029E+03  0.70526862764E+03 -0.14938303856E+04  0.16637396673E+04  0.80169832704E+02 0.  0.
         11    1    3    3    0    0  0.18994943719E+03 -0.48443095335E+03  0.30630176571E+03  0.60380038832E+03  0.00000000000E+00 0.  1.
        -11    1    3    3    0    0 -0.95228444322E+01 -0.44985494474E+02  0.33730611112E+02  0.57027479386E+02  0.00000000000E+00 0. -1.
          2    1    6    6  502    0 -0.18080437817E+03  0.64547766691E+03 -0.14042733964E+04  0.15560576510E+04  0.00000000000E+00 0. -1.
          3    1    5    5  503    0 -0.19751029772E+02 -0.72441735925E+02  0.22970150974E+02  0.78520927890E+02  0.00000000000E+00 0. -1.
         -4    1    5    5    0  503  0.20071277303E+02 -0.10341044388E+03 -0.58576185243E+02  0.12053109787E+03  0.00000000000E+00 0.  1.
         -1    1    6    6    0  502  0.57537885449E-01  0.59790960721E+02 -0.89556989236E+02  0.10768201621E+03  0.00000000000E+00 0.  1.
<mgrwt>
<rscale>  0 0.22257524E+04</rscale>
<asrwt>0</asrwt>
<pdfrwt beam="1">  1        1 0.28561719E+00 0.22257524E+04</pdfrwt>
<pdfrwt beam="2">  1       -1 0.10263197E+00 0.22257524E+04</pdfrwt>
<totfact> 0.30449541E+00</totfact>
</mgrwt>
</event>
<event>
12    1  0.4612066E-007  0.1284061E+04  0.7818608E-02  0.9042301E-01
          1   -1    0    0  501    0  0.00000000000E+00  0.00000000000E+00  0.29585720554E+03  0.29585720554E+03  0.00000000000E+00 0. -1.
         -1   -1    0    0    0  501 -0.00000000000E+00 -0.00000000000E+00 -0.13932507571E+04  0.13932507571E+04  0.00000000000E+00 0.  1.
         23    2    1    2    0    0  0.15346509551E+03  0.28339606753E+03 -0.38284135444E+03  0.50869002133E+03  0.91286190058E+02 0.  0.
        254    2    1    2    0    0 -0.15346509551E+03 -0.28339606753E+03 -0.71455219712E+03  0.11804179413E+04  0.88257396693E+03 0.  0.
        -24    2    4    4    0    0  0.22253951280E+03 -0.34785269870E+03 -0.66593892273E+03  0.78774417511E+03  0.80875842267E+02 0.  0.
         24    2    4    4    0    0 -0.37600460831E+03  0.64456631173E+02 -0.48613274386E+02  0.39267376619E+03  0.79343011232E+02 0.  0.
         13    1    3    3    0    0  0.43396983011E+02  0.72717730485E+02 -0.45838288557E+02  0.96292861413E+02  0.00000000000E+00 0. -1.
        -13    1    3    3    0    0  0.11006811250E+03  0.21067833704E+03 -0.33700306588E+03  0.41239715991E+03  0.00000000000E+00 0.  1.
          2    1    6    6  502    0 -0.24422755686E+03  0.12829153320E+02 -0.51410952179E+01  0.24461830996E+03  0.00000000000E+00 0. -1.
          1    1    5    5  503    0  0.16397777348E+03 -0.25128227500E+03 -0.41067213056E+03  0.50860897627E+03  0.00000000000E+00 0. -1.
         -2    1    5    5    0  503  0.58561739321E+02 -0.96570423701E+02 -0.25526679218E+03  0.27913519884E+03  0.00000000000E+00 0.  1.
         -1    1    6    6    0  502 -0.13177705145E+03  0.51627477853E+02 -0.43472179168E+02  0.14805545623E+03  0.00000000000E+00 0.  1.
<mgrwt>
<rscale>  0 0.12840612E+04</rscale>
<asrwt>0</asrwt>
<pdfrwt beam="1">  1        1 0.45516494E-01 0.12840612E+04</pdfrwt>
<pdfrwt beam="2">  1       -1 0.21434627E+00 0.12840612E+04</pdfrwt>
<totfact> 0.10554211E+01</totfact>
</mgrwt>
</event>
<event>
12    1  0.4612066E-007  0.1838859E+04  0.7818608E-02  0.8685903E-01
          2   -1    0    0  501    0  0.00000000000E+00  0.00000000000E+00  0.48619606394E+03  0.48619606394E+03  0.00000000000E+00 0. -1.
         -2   -1    0    0    0  501 -0.00000000000E+00 -0.00000000000E+00 -0.17387039738E+04  0.17387039738E+04  0.00000000000E+00 0.  1.
         23    2    1    2    0    0  0.52570419491E+03 -0.43237261427E+03 -0.27422726902E+03  0.73900548456E+03  0.87278479744E+02 0.  0.
        254    2    1    2    0    0 -0.52570419491E+03  0.43237261427E+03 -0.97828064089E+03  0.14858945532E+04  0.88743373433E+03 0.  0.
        -24    2    4    4    0    0 -0.61957213946E+02 -0.85398254816E+02 -0.73248407053E+03  0.74413959368E+03  0.77969628875E+02 0.  0.
         24    2    4    4    0    0 -0.46374698096E+03  0.51777086908E+03 -0.24579657037E+03  0.74175495954E+03  0.81464905140E+02 0.  0.
         13    1    3    3    0    0  0.52036027210E+03 -0.40820107639E+03 -0.26167929791E+03  0.71125170404E+03  0.00000000000E+00 0.  1.
        -13    1    3    3    0    0  0.53439228088E+01 -0.24171537876E+02 -0.12547971104E+02  0.27753780519E+02  0.00000000000E+00 0. -1.
          4    1    6    6  502    0 -0.44244496958E+03  0.46098449842E+03 -0.22988859663E+03  0.67905303604E+03  0.00000000000E+00 0. -1.
          3    1    5    5  503    0 -0.48693715556E+02 -0.19171015305E+02 -0.47759063129E+03  0.48044918239E+03  0.00000000000E+00 0. -1.
         -4    1    5    5    0  503 -0.13263498390E+02 -0.66227239511E+02 -0.25489343923E+03  0.26369041129E+03  0.00000000000E+00 0.  1.
         -3    1    6    6    0  502 -0.21302011378E+02  0.56786370660E+02 -0.15907973736E+02  0.62701923494E+02  0.00000000000E+00 0.  1.
<mgrwt>
<rscale>  0 0.18388595E+04</rscale>
<asrwt>0</asrwt>
<pdfrwt beam="1">  1        2 0.74799393E-01 0.18388595E+04</pdfrwt>
<pdfrwt beam="2">  1       -2 0.26749292E+00 0.18388595E+04</pdfrwt>
<totfact> 0.30071514E+00</totfact>
</mgrwt>
</event>
<event>
12    1  0.4612066E-007  0.1881959E+04  0.7818608E-02  0.8663889E-01
         -2   -1    0    0    0  501 -0.00000000000E+00  0.00000000000E+00  0.77240302206E+03  0.77240302206E+03  0.00000000000E+00 0.  1.
          2   -1    0    0  501    0  0.00000000000E+00 -0.00000000000E+00 -0.11463481245E+04  0.11463481245E+04  0.00000000000E+00 0. -1.
         23    2    1    2    0    0 -0.45985148305E+03 -0.56091450965E+03 -0.20256625742E+03  0.75855967841E+03  0.91056155597E+02 0.  0.
        254    2    1    2    0    0  0.45985148305E+03  0.56091450965E+03 -0.17137884507E+03  0.11601914682E+04  0.88914850318E+03 0.  0.
        -24    2    4    4    0    0 -0.73134669692E+02  0.15012873845E+02  0.25909428540E+03  0.28084104261E+03  0.78535190812E+02 0.  0.
         24    2    4    4    0    0  0.53298615274E+03  0.54590163580E+03 -0.43047313047E+03  0.87935042557E+03  0.76597780043E+02 0.  0.
         11    1    3    3    0    0 -0.62884829072E+02 -0.13295888058E+03 -0.48147556779E+02  0.15476030782E+03  0.00000000000E+00 0.  1.
        -11    1    3    3    0    0 -0.39696665398E+03 -0.42795562907E+03 -0.15441870064E+03  0.60379937059E+03  0.00000000000E+00 0. -1.
          4    1    6    6  502    0  0.92487354951E+02  0.13587924372E+03 -0.78088210938E+02  0.18197485647E+03  0.00000000000E+00 0. -1.
          3    1    5    5  503    0  0.12895954715E+02 -0.51292984160E+01  0.11735441045E+02  0.18175145853E+02  0.00000000000E+00 0. -1.
         -4    1    5    5    0  503 -0.86030624407E+02  0.20142172261E+02  0.24735884436E+03  0.26266589676E+03  0.00000000000E+00 0.  1.
         -3    1    6    6    0  502  0.44049879779E+03  0.41002239208E+03 -0.35238491953E+03  0.69737556910E+03  0.00000000000E+00 0.  1.
<mgrwt>
<rscale>  0 0.18819594E+04</rscale>
<asrwt>0</asrwt>
<pdfrwt beam="1">  1        2 0.17636125E+00 0.18819594E+04</pdfrwt>
<pdfrwt beam="2">  1       -2 0.11883123E+00 0.18819594E+04</pdfrwt>
<totfact> 0.10414842E+01</totfact>
</mgrwt>
</event>
<event>
12    1  0.4612066E-007  0.1547432E+04  0.7818608E-02  0.8853509E-01
          2   -1    0    0  501    0  0.00000000000E+00  0.00000000000E+00  0.45564557051E+04  0.45564557051E+04  0.00000000000E+00 0. -1.
         -2   -1    0    0    0  501 -0.00000000000E+00 -0.00000000000E+00 -0.13138209852E+03  0.13138209852E+03  0.00000000000E+00 0.  1.
         23    2    1    2    0    0  0.82108820785E+02 -0.49837879270E+03  0.15451427445E+04  0.16281881375E+04  0.91690951975E+02 0.  0.
        254    2    1    2    0    0 -0.82108820785E+02  0.49837879270E+03  0.28799308621E+04  0.30596496661E+04  0.90129408615E+03 0.  0.
        -24    2    4    4    0    0 -0.75056478596E+02  0.70578216213E+03  0.26254463561E+04  0.27209223190E+04  0.81778736837E+02 0.  0.
         24    2    4    4    0    0 -0.70523421891E+01 -0.20740336943E+03  0.25448450597E+03  0.33872734715E+03  0.83114130888E+02 0.  0.
         11    1    3    3    0    0  0.85278278490E+02 -0.31353460594E+03  0.10739092899E+04  0.11219881893E+04  0.00000000000E+00 0. -1.
        -11    1    3    3    0    0 -0.31694577055E+01 -0.18484418676E+03  0.47123345461E+03  0.50619994822E+03  0.00000000000E+00 0.  1.
          2    1    6    6  502    0  0.23120071131E+02 -0.17815637464E+03  0.22218091080E+03  0.28572467279E+03  0.00000000000E+00 0. -1.
          3    1    5    5  503    0 -0.81823161344E+02  0.70037854682E+03  0.25782499288E+04  0.26729380528E+04  0.00000000000E+00 0. -1.
         -2    1    5    5    0  503  0.67666827484E+01  0.54036153041E+01  0.47196427296E+02  0.47984266205E+02  0.00000000000E+00 0.  1.
         -1    1    6    6    0  502 -0.30172413320E+02 -0.29246994787E+02  0.32303595164E+02  0.53002674368E+02  0.00000000000E+00 0.  1.
<mgrwt>
<rscale>  0 0.15474323E+04</rscale>
<asrwt>0</asrwt>
<pdfrwt beam="1">  1        2 0.70099306E+00 0.15474323E+04</pdfrwt>
<pdfrwt beam="2">  1       -2 0.20212634E-01 0.15474323E+04</pdfrwt>
<totfact> 0.22623732E+00</totfact>
</mgrwt>
</event>
<event>
12    1  0.4612066E-007  0.3724303E+04  0.7818608E-02  0.8062597E-01
         -1   -1    0    0    0  501 -0.00000000000E+00  0.00000000000E+00  0.13800684212E+04  0.13800684212E+04  0.00000000000E+00 0.  1.
          1   -1    0    0  501    0  0.00000000000E+00 -0.00000000000E+00 -0.25126348850E+04  0.25126348850E+04  0.00000000000E+00 0. -1.
         23    2    1    2    0    0 -0.96926978396E+03  0.12020960168E+04  0.32757383091E+03  0.15811810322E+04  0.91159718316E+02 0.  0.
        254    2    1    2    0    0  0.96926978396E+03 -0.12020960168E+04 -0.14601402947E+04  0.23115222739E+04  0.90917918734E+03 0.  0.
        -24    2    4    4    0    0  0.11339180094E+04 -0.10567588861E+04 -0.13310620576E+04  0.20446507751E+04  0.79757102733E+02 0.  0.
         24    2    4    4    0    0 -0.16464822541E+03 -0.14533713075E+03 -0.12907823708E+03  0.26687149882E+03  0.79544238577E+02 0.  0.
         13    1    3    3    0    0 -0.88056874452E+03  0.10513271762E+04  0.27683918938E+03  0.13990461329E+04  0.00000000000E+00 0. -1.
        -13    1    3    3    0    0 -0.88701039444E+02  0.15076884060E+03  0.50734641531E+02  0.18213489931E+03  0.00000000000E+00 0.  1.
          2    1    6    6  502    0 -0.14051497084E+03 -0.80281877037E+02 -0.72449894513E+02  0.17730940197E+03  0.00000000000E+00 0. -1.
          1    1    5    5  503    0  0.69360856500E+03 -0.66794077555E+03 -0.77981973679E+03  0.12390950500E+04  0.00000000000E+00 0. -1.
         -2    1    5    5    0  503  0.44030944438E+03 -0.38881811051E+03 -0.55124232085E+03  0.80555572506E+03  0.00000000000E+00 0.  1.
         -1    1    6    6    0  502 -0.24133254575E+02 -0.65055253710E+02 -0.56628342568E+02  0.89562096858E+02  0.00000000000E+00 0.  1.
<mgrwt>
<rscale>  0 0.37243029E+04</rscale>
<asrwt>0</asrwt>
<pdfrwt beam="1">  1        1 0.38655921E+00 0.37243029E+04</pdfrwt>
<pdfrwt beam="2">  1       -1 0.21231822E+00 0.37243029E+04</pdfrwt>
<totfact> 0.13179236E-01</totfact>
</mgrwt>
</event>
<event>
12    1  0.4612066E-007  0.3735249E+04  0.7818608E-02  0.8060195E-01
          2   -1    0    0  501    0  0.00000000000E+00  0.00000000000E+00  0.29746902126E+04  0.29746902126E+04  0.00000000000E+00 0. -1.
         -2   -1    0    0    0  501 -0.00000000000E+00 -0.00000000000E+00 -0.11725664032E+04  0.11725664032E+04  0.00000000000E+00 0.  1.
         23    2    1    2    0    0 -0.59349491881E+03  0.83068205918E+03  0.24377752682E+04  0.26444948537E+04  0.91300990413E+02 0.  0.
        254    2    1    2    0    0  0.59349491881E+03 -0.83068205918E+03 -0.63565145877E+03  0.15027617622E+04  0.90109446490E+03 0.  0.
        -24    2    4    4    0    0  0.57907457061E+03 -0.34795244309E+03  0.23856485089E+02  0.68049868060E+03  0.78173278288E+02 0.  0.
         24    2    4    4    0    0  0.14420348201E+02 -0.48272961609E+03 -0.65950794386E+03  0.82226308156E+03  0.89050651793E+02 0.  0.
         11    1    3    3    0    0 -0.42394277496E+03  0.65982908877E+03  0.18635201489E+04  0.20218331406E+04  0.00000000000E+00 0.  1.
        -11    1    3    3    0    0 -0.16955214385E+03  0.17085297041E+03  0.57425511926E+03  0.62266171311E+03  0.00000000000E+00 0. -1.
          4    1    6    6  502    0 -0.97382164547E+01 -0.42950677298E+03 -0.60726232774E+03  0.74386721636E+03  0.00000000000E+00 0. -1.
          3    1    5    5  503    0  0.52440755552E+03 -0.28716688237E+03  0.28963174678E+02  0.59858747740E+03  0.00000000000E+00 0. -1.
         -4    1    5    5    0  503  0.54667015092E+02 -0.60785560714E+02 -0.51066895897E+01  0.81911203196E+02  0.00000000000E+00 0.  1.
         -3    1    6    6    0  502  0.24158564656E+02 -0.53222843115E+02 -0.52245616123E+02  0.78395865194E+02  0.00000000000E+00 0.  1.
<mgrwt>
<rscale>  0 0.37352493E+04</rscale>
<asrwt>0</asrwt>
<pdfrwt beam="1">  1        2 0.45764465E+00 0.37352493E+04</pdfrwt>
<pdfrwt beam="2">  1       -2 0.18039483E+00 0.37352493E+04</pdfrwt>
<totfact> 0.26213037E-01</totfact>
</mgrwt>
</event>
<event>
12    1  0.4612066E-007  0.1495788E+04  0.7818608E-02  0.8887259E-01
          1   -1    0    0  501    0  0.00000000000E+00  0.00000000000E+00  0.98400325866E+03  0.98400325866E+03  0.00000000000E+00 0. -1.
         -1   -1    0    0    0  501 -0.00000000000E+00 -0.00000000000E+00 -0.56843824042E+03  0.56843824042E+03  0.00000000000E+00 0.  1.
         23    2    1    2    0    0  0.23509671057E+03 -0.14003772369E+03 -0.26721220528E+03  0.39378130935E+03  0.93703412748E+02 0.  0.
        254    2    1    2    0    0 -0.23509671057E+03  0.14003772369E+03  0.68277722352E+03  0.11586601897E+04  0.89522492757E+03 0.  0.
        -24    2    4    4    0    0 -0.10686428132E+03 -0.32293267139E+03  0.40113942464E+02  0.35181680781E+03  0.80376943245E+02 0.  0.
         24    2    4    4    0    0 -0.12823242925E+03  0.46297039508E+03  0.64266328106E+03  0.80684338192E+03  0.84823390038E+02 0.  0.
         11    1    3    3    0    0  0.13278920463E+03 -0.11890418321E+03 -0.20714191165E+03  0.27327449426E+03  0.00000000000E+00 0.  1.
        -11    1    3    3    0    0  0.10230750594E+03 -0.21133540481E+02 -0.60070293632E+02  0.12050681508E+03  0.00000000000E+00 0. -1.
          4    1    6    6  502    0 -0.59689822097E+02  0.32559097454E+03  0.39391376161E+03  0.51452930835E+03  0.00000000000E+00 0. -1.
          3    1    5    5  503    0 -0.83931661080E+02 -0.18219945705E+03  0.56192591328E+02  0.20832372213E+03  0.00000000000E+00 0. -1.
         -4    1    5    5    0  503 -0.22932620237E+02 -0.14073321434E+03 -0.16078648864E+02  0.14349308569E+03  0.00000000000E+00 0.  1.
         -3    1    6    6    0  502 -0.68542607154E+02  0.13737942054E+03  0.24874951945E+03  0.29231407358E+03  0.00000000000E+00 0.  1.
<mgrwt>
<rscale>  0 0.14957875E+04</rscale>
<asrwt>0</asrwt>
<pdfrwt beam="1">  1        1 0.15138512E+00 0.14957875E+04</pdfrwt>
<pdfrwt beam="2">  1       -1 0.87452037E-01 0.14957875E+04</pdfrwt>
<totfact> 0.19398611E+01</totfact>
</mgrwt>
</event>
<event>
12    1  0.4612066E-007  0.3815187E+04  0.7818608E-02  0.8042904E-01
          2   -1    0    0  501    0  0.00000000000E+00  0.00000000000E+00  0.29261513592E+04  0.29261513592E+04  0.00000000000E+00 0. -1.
         -2   -1    0    0    0  501 -0.00000000000E+00 -0.00000000000E+00 -0.12435834912E+04  0.12435834912E+04  0.00000000000E+00 0.  1.
         23    2    1    2    0    0  0.17571495004E+04 -0.12741718187E+03  0.36235036598E+03  0.18010243792E+04  0.92636503152E+02 0.  0.
        254    2    1    2    0    0 -0.17571495004E+04  0.12741718187E+03  0.13202175020E+04  0.23687104711E+04  0.87407410338E+03 0.  0.
        -24    2    4    4    0    0 -0.35453415811E+02 -0.89681814297E+01  0.40147942231E+03  0.41077481903E+03  0.78821649611E+02 0.  0.
         24    2    4    4    0    0 -0.17216960846E+04  0.13638536330E+03  0.91873807971E+03  0.19579356521E+04  0.81203346200E+02 0.  0.
         13    1    3    3    0    0  0.15007975382E+04 -0.12606147349E+03  0.28101351083E+03  0.15320748477E+04  0.00000000000E+00 0.  1.
        -13    1    3    3    0    0  0.25635196226E+03 -0.13557083823E+01  0.81336855158E+02  0.26894953152E+03  0.00000000000E+00 0. -1.
          4    1    6    6  502    0 -0.68350700036E+03  0.23083429064E+02  0.39179324147E+03  0.78817295583E+03  0.00000000000E+00 0. -1.
          3    1    5    5  503    0  0.13681286546E+02 -0.79127577543E+01  0.17173595470E+02  0.23339274157E+02  0.00000000000E+00 0. -1.
         -4    1    5    5    0  503 -0.49134702356E+02 -0.10554236754E+01  0.38430582684E+03  0.38743554488E+03  0.00000000000E+00 0.  1.
         -1    1    6    6    0  502 -0.10381890843E+04  0.11330193424E+03  0.52694483824E+03  0.11697626962E+04  0.00000000000E+00 0.  1.
<mgrwt>
<rscale>  0 0.38151873E+04</rscale>
<asrwt>0</asrwt>
<pdfrwt beam="1">  1        2 0.45017713E+00 0.38151873E+04</pdfrwt>
<pdfrwt beam="2">  1       -2 0.19132054E+00 0.38151873E+04</pdfrwt>
<totfact> 0.23530828E-01</totfact>
</mgrwt>
</event>
<event>
12    1  0.4612066E-007  0.2386018E+04  0.7818608E-02  0.8444757E-01
         -2   -1    0    0    0  501 -0.00000000000E+00  0.00000000000E+00  0.97300275960E+03  0.97300275960E+03  0.00000000000E+00 0.  1.
          2   -1    0    0  501    0  0.00000000000E+00 -0.00000000000E+00 -0.14627611602E+04  0.14627611602E+04  0.00000000000E+00 0. -1.
         23    2    1    2    0    0  0.40772037657E+03  0.44332327427E+03  0.64162100136E+03  0.88531177441E+03  0.96581558993E+02 0.  0.
        254    2    1    2    0    0 -0.40772037657E+03 -0.44332327427E+03 -0.11313794019E+04  0.15504521454E+04  0.87241680002E+03 0.  0.
        -24    2    4    4    0    0 -0.13858151028E+03 -0.20854226776E+03 -0.11539755119E+04  0.11836806015E+04  0.82131430714E+02 0.  0.
         24    2    4    4    0    0 -0.26913886629E+03 -0.23478100651E+03  0.22596109974E+02  0.36677154384E+03  0.80330136451E+02 0.  0.
         11    1    3    3    0    0  0.16736736633E+03  0.23659757139E+03  0.35155007589E+03  0.45560695995E+03  0.00000000000E+00 0.  1.
        -11    1    3    3    0    0  0.24035301023E+03  0.20672570288E+03  0.29007092547E+03  0.42970481445E+03  0.00000000000E+00 0. -1.
          4    1    6    6  502    0 -0.20226336504E+03 -0.19034178797E+03 -0.14926257613E+02  0.27814251428E+03  0.00000000000E+00 0. -1.
          3    1    5    5  503    0 -0.50067380386E+02 -0.63969458454E+02 -0.56450162529E+03  0.57031650787E+03  0.00000000000E+00 0. -1.
         -2    1    5    5    0  503 -0.88514129896E+02 -0.14457280931E+03 -0.58947388660E+03  0.61336409364E+03  0.00000000000E+00 0.  1.
         -3    1    6    6    0  502 -0.66875501245E+02 -0.44439218543E+02  0.37522367587E+02  0.88629029560E+02  0.00000000000E+00 0.  1.
<mgrwt>
<rscale>  0 0.23860181E+04</rscale>
<asrwt>0</asrwt>
<pdfrwt beam="1">  1        2 0.22504018E+00 0.23860181E+04</pdfrwt>
<pdfrwt beam="2">  1       -2 0.14969273E+00 0.23860181E+04</pdfrwt>
<totfact> 0.36146114E+00</totfact>
</mgrwt>
</event>
<event>
12    1  0.4612066E-007  0.3314999E+04  0.7818608E-02  0.8159089E-01
          2   -1    0    0  501    0  0.00000000000E+00  0.00000000000E+00  0.22381418270E+04  0.22381418270E+04  0.00000000000E+00 0. -1.
         -2   -1    0    0    0  501 -0.00000000000E+00 -0.00000000000E+00 -0.12274937700E+04  0.12274937700E+04  0.00000000000E+00 0.  1.
         23    2    1    2    0    0 -0.12047737432E+04 -0.61948034790E+03 -0.28267037909E+03  0.13869540941E+04  0.92214110137E+02 0.  0.
        254    2    1    2    0    0  0.12047737432E+04  0.61948034790E+03  0.12933184361E+04  0.20786815030E+04  0.90166986194E+03 0.  0.
        -24    2    4    4    0    0  0.11309986870E+04  0.61854850195E+03  0.14141085744E+04  0.19153245263E+04  0.83694093933E+02 0.  0.
         24    2    4    4    0    0  0.73775056164E+02  0.93184594843E+00 -0.12079013828E+03  0.16335697673E+03  0.81557446578E+02 0.  0.
         13    1    3    3    0    0 -0.35614733395E+03 -0.17165972766E+03 -0.12428941518E+03  0.41443436670E+03  0.00000000000E+00 0. -1.
        -13    1    3    3    0    0 -0.84862640925E+03 -0.44782062024E+03 -0.15838096391E+03  0.97251972737E+03  0.00000000000E+00 0.  1.
          4    1    6    6  502    0  0.13248504388E+02 -0.13532648007E+02  0.78143897566E+01  0.20487071969E+02  0.00000000000E+00 0. -1.
          3    1    5    5  503    0  0.13673055700E+03  0.45326947448E+02  0.16475048285E+03  0.21884354910E+03  0.00000000000E+00 0. -1.
         -4    1    5    5    0  503  0.99426813004E+03  0.57322155450E+03  0.12493580915E+04  0.16964809772E+04  0.00000000000E+00 0.  1.
         -3    1    6    6    0  502  0.60526551775E+02  0.14464493955E+02 -0.12860452804E+03  0.14286990476E+03  0.00000000000E+00 0.  1.
<mgrwt>
<rscale>  0 0.33149993E+04</rscale>
<asrwt>0</asrwt>
<pdfrwt beam="1">  1        2 0.34432951E+00 0.33149993E+04</pdfrwt>
<pdfrwt beam="2">  1       -2 0.18884520E+00 0.33149993E+04</pdfrwt>
<totfact> 0.64689254E-01</totfact>
</mgrwt>
</event>
<event>
12    1  0.4612066E-007  0.2102537E+04  0.7818608E-02  0.8560126E-01
          2   -1    0    0  501    0  0.00000000000E+00  0.00000000000E+00  0.21066815071E+04  0.21066815071E+04  0.00000000000E+00 0.  1.
         -2   -1    0    0    0  501 -0.00000000000E+00 -0.00000000000E+00 -0.52460039984E+03  0.52460039984E+03  0.00000000000E+00 0. -1.
         23    2    1    2    0    0  0.38627070603E+03  0.21790670463E+02 -0.30761463596E+03  0.50325433040E+03  0.94648112208E+02 0.  0.
        254    2    1    2    0    0 -0.38627070603E+03 -0.21790670463E+02  0.18896957432E+04  0.21280275766E+04  0.89881670707E+03 0.  0.
        -24    2    4    4    0    0  0.82122751171E+02 -0.34075234121E+03  0.10716917149E+04  0.11298459707E+04  0.71919966399E+02 0.  0.
         24    2    4    4    0    0 -0.46839345720E+03  0.31896167075E+03  0.81800402839E+03  0.99818160584E+03  0.78146974424E+02 0.  0.
         11    1    3    3    0    0  0.11613908678E+03 -0.28797364657E+02 -0.12643768481E+03  0.17408062451E+03  0.00000000000E+00 0. -1.
        -11    1    3    3    0    0  0.27013161926E+03  0.50588035120E+02 -0.18117695115E+03  0.32917370589E+03  0.00000000000E+00 0.  1.
          4    1    6    6  502    0 -0.45942818032E+03  0.32169733840E+03  0.81260243208E+03  0.98736322750E+03  0.00000000000E+00 0. -1.
          3    1    5    5  503    0  0.40825576817E+02 -0.20722750055E+03  0.74847513072E+03  0.77770494791E+03  0.00000000000E+00 0. -1.
         -4    1    5    5    0  503  0.41297174353E+02 -0.13352484066E+03  0.32321658414E+03  0.35214102281E+03  0.00000000000E+00 0.  1.
         -3    1    6    6    0  502 -0.89652768828E+01 -0.27356676506E+01  0.54015963141E+01  0.10818378336E+02  0.00000000000E+00 0.  1.
<mgrwt>
<rscale>  0 0.21025375E+04</rscale>
<asrwt>0</asrwt>
<pdfrwt beam="1">  1        2 0.32410484E+00 0.21025375E+04</pdfrwt>
<pdfrwt beam="2">  1       -2 0.80707755E-01 0.21025375E+04</pdfrwt>
<totfact> 0.72728749E+00</totfact>
</mgrwt>
</event>
<event>
12    1  0.4612066E-007  0.1446818E+04  0.7818608E-02  0.8920610E-01
          4   -1    0    0  501    0  0.00000000000E+00  0.00000000000E+00  0.74215915535E+03  0.74215915535E+03  0.00000000000E+00 0. -1.
         -4   -1    0    0    0  501 -0.00000000000E+00 -0.00000000000E+00 -0.70513214184E+03  0.70513214184E+03  0.00000000000E+00 0.  1.
         23    2    1    2    0    0 -0.41471500706E+03 -0.39124066300E+02 -0.44990138670E+02  0.42837826173E+03  0.89244567878E+02 0.  0.
        254    2    1    2    0    0  0.41471500706E+03  0.39124066300E+02  0.82017152172E+02  0.10189130355E+04  0.92624928121E+03 0.  0.
        -24    2    4    4    0    0 -0.88227279796E+02 -0.22964198164E+03  0.30711055523E+03  0.40047245314E+03  0.74443266683E+02 0.  0.
         24    2    4    4    0    0  0.50294228686E+03  0.26876604794E+03 -0.22509340306E+03  0.61844058233E+03  0.81336223969E+02 0.  0.
         13    1    3    3    0    0 -0.55169616779E+02  0.24714481401E+02 -0.32511477822E-01  0.60452404943E+02  0.00000000000E+00 0.  1.
        -13    1    3    3    0    0 -0.35954539028E+03 -0.63838547701E+02 -0.44957627192E+02  0.36792585678E+03  0.00000000000E+00 0. -1.
          2    1    6    6  502    0  0.48523014345E+03  0.23903041797E+03 -0.21753380597E+03  0.58301354149E+03  0.00000000000E+00 0. -1.
          1    1    5    5  503    0 -0.38689290860E+02 -0.18645998926E+03  0.24224971486E+03  0.30813813976E+03  0.00000000000E+00 0. -1.
         -2    1    5    5    0  503 -0.49537988937E+02 -0.43181992377E+02  0.64860840376E+02  0.92334313382E+02  0.00000000000E+00 0.  1.
         -3    1    6    6    0  502  0.17712143410E+02  0.29735629970E+02 -0.75595970938E+01  0.35427040832E+02  0.00000000000E+00 0.  1.
<mgrwt>
<rscale>  0 0.14468176E+04</rscale>
<asrwt>0</asrwt>
<pdfrwt beam="1">  1        4 0.11417833E+00 0.14468176E+04</pdfrwt>
<pdfrwt beam="2">  1       -4 0.10848187E+00 0.14468176E+04</pdfrwt>
<totfact> 0.78740827E-01</totfact>
</mgrwt>
</event>
<event>
12    1  0.4612066E-007  0.1643469E+04  0.7818608E-02  0.8794279E-01
          2   -1    0    0  501    0  0.00000000000E+00  0.00000000000E+00  0.10662951032E+04  0.10662951032E+04  0.00000000000E+00 0. -1.
         -2   -1    0    0    0  501 -0.00000000000E+00 -0.00000000000E+00 -0.63326553731E+03  0.63326553731E+03  0.00000000000E+00 0.  1.
         23    2    1    2    0    0  0.34221804277E+03  0.33428508675E+03  0.46829002108E+03  0.67585341657E+03  0.92857895825E+02 0.  0.
        254    2    1    2    0    0 -0.34221804277E+03 -0.33428508675E+03 -0.35260455210E+02  0.10237072239E+04  0.90436357323E+03 0.  0.
        -24    2    4    4    0    0  0.28824844272E+03 -0.16901120858E+03  0.92026067014E+02  0.35571920414E+03  0.80096203622E+02 0.  0.
         24    2    4    4    0    0 -0.63046648549E+03 -0.16527387818E+03 -0.12728652222E+03  0.66798801978E+03  0.72129686654E+02 0.  0.
         11    1    3    3    0    0  0.10254131001E+03  0.13622419742E+03  0.11731666756E+03  0.20696606656E+03  0.00000000000E+00 0.  1.
        -11    1    3    3    0    0  0.23967673277E+03  0.19806088933E+03  0.35097335352E+03  0.46888735000E+03  0.00000000000E+00 0. -1.
          4    1    6    6  502    0 -0.41551465005E+02 -0.15217555316E+02 -0.27552388041E+02  0.52127078574E+02  0.00000000000E+00 0. -1.
          3    1    5    5  503    0  0.85651512647E+02 -0.43353379960E+02 -0.97688492955E+01  0.96494184225E+02  0.00000000000E+00 0. -1.
         -4    1    5    5    0  503  0.20259693007E+03 -0.12565782862E+03  0.10179491631E+03  0.25922501992E+03  0.00000000000E+00 0.  1.
         -3    1    6    6    0  502 -0.58891502048E+03 -0.15005632286E+03 -0.99734134183E+02  0.61586094121E+03  0.00000000000E+00 0.  1.
<mgrwt>
<rscale>  0 0.16434694E+04</rscale>
<asrwt>0</asrwt>
<pdfrwt beam="1">  1        2 0.16404540E+00 0.16434694E+04</pdfrwt>
<pdfrwt beam="2">  1       -2 0.97425467E-01 0.16434694E+04</pdfrwt>
<totfact> 0.19199653E+01</totfact>
</mgrwt>
</event>
<event>
12    1  0.4612066E-007  0.3240653E+04  0.7818608E-02  0.8178163E-01
         -2   -1    0    0    0  501 -0.00000000000E+00  0.00000000000E+00  0.17376342822E+04  0.17376342822E+04  0.00000000000E+00 0.  1.
          2   -1    0    0  501    0  0.00000000000E+00 -0.00000000000E+00 -0.15109381446E+04  0.15109381446E+04  0.00000000000E+00 0. -1.
         23    2    1    2    0    0 -0.24352429831E+03  0.82384926592E+03  0.13306192815E+04  0.15864396990E+04  0.90617599306E+02 0.  0.
        254    2    1    2    0    0  0.24352429831E+03 -0.82384926592E+03 -0.11039231440E+04  0.16621327278E+04  0.89777903755E+03 0.  0.
        -24    2    4    4    0    0  0.30491062625E+03 -0.72793342382E+03 -0.12366384857E+04  0.14693741831E+04  0.83235726065E+02 0.  0.
         24    2    4    4    0    0 -0.61386327939E+02 -0.95915842102E+02  0.13271534168E+03  0.19275854477E+03  0.81082455815E+02 0.  0.
         13    1    3    3    0    0 -0.13038735037E+03  0.43213964363E+03  0.78172141262E+03  0.90268150512E+03  0.00000000000E+00 0.  1.
        -13    1    3    3    0    0 -0.11313694794E+03  0.39170962228E+03  0.54889786891E+03  0.68375819386E+03  0.00000000000E+00 0. -1.
          4    1    6    6  502    0 -0.49663419018E+02 -0.91022761053E+02  0.61790045236E+02  0.12070463085E+03  0.00000000000E+00 0. -1.
          1    1    5    5  503    0  0.93813641788E+02 -0.13825286434E+03 -0.27356711179E+03  0.32055236473E+03  0.00000000000E+00 0. -1.
         -2    1    5    5    0  503  0.21109698446E+03 -0.58968055948E+03 -0.96307137388E+03  0.11488218183E+04  0.00000000000E+00 0.  1.
         -3    1    6    6    0  502 -0.11722908921E+02 -0.48930810491E+01  0.70925296443E+02  0.72053913920E+02  0.00000000000E+00 0.  1.
<mgrwt>
<rscale>  0 0.32406530E+04</rscale>
<asrwt>0</asrwt>
<pdfrwt beam="1">  1        2 0.23245202E+00 0.32406530E+04</pdfrwt>
<pdfrwt beam="2">  1       -2 0.26732835E+00 0.32406530E+04</pdfrwt>
<totfact> 0.52853214E-01</totfact>
</mgrwt>
</event>
<event>
12    1  0.4612066E-007  0.1097332E+04  0.7818608E-02  0.9207796E-01
          2   -1    0    0  501    0  0.00000000000E+00  0.00000000000E+00  0.12506691486E+04  0.12506691486E+04  0.00000000000E+00 0.  1.
         -2   -1    0    0    0  501 -0.00000000000E+00 -0.00000000000E+00 -0.24069877373E+03  0.24069877373E+03  0.00000000000E+00 0. -1.
         23    2    1    2    0    0 -0.14877131257E+03 -0.20922479670E+03  0.33386988119E+03  0.43130219158E+03  0.92976146927E+02 0.  0.
        254    2    1    2    0    0  0.14877131257E+03  0.20922479670E+03  0.67610049371E+03  0.10600657308E+04  0.77506100210E+03 0.  0.
        -24    2    4    4    0    0  0.23649621368E+03  0.34747533073E+03  0.78211244587E+02  0.43506698603E+03  0.80602226979E+02 0.  0.
         24    2    4    4    0    0 -0.87724901117E+02 -0.13825053403E+03  0.59788924912E+03  0.62499874475E+03  0.79643005295E+02 0.  0.
         11    1    3    3    0    0 -0.12205686580E+03 -0.11914459116E+03  0.26360826229E+03  0.31397870634E+03  0.00000000000E+00 0.  1.
        -11    1    3    3    0    0 -0.26714446765E+02 -0.90080205547E+02  0.70261618909E+02  0.11732348524E+03  0.00000000000E+00 0. -1.
          4    1    6    6  502    0 -0.45867566870E+02 -0.57549216314E+02  0.13991404355E+03  0.15808758829E+03  0.00000000000E+00 0. -1.
          1    1    5    5  503    0  0.25530174631E+02  0.20610401200E+02 -0.13317700315E+02  0.35411009531E+02  0.00000000000E+00 0. -1.
         -2    1    5    5    0  503  0.21096603905E+03  0.32686492953E+03  0.91528944902E+02  0.39965597649E+03  0.00000000000E+00 0.  1.
         -3    1    6    6    0  502 -0.41857334247E+02 -0.80701317717E+02  0.45797520557E+03  0.46691115646E+03  0.00000000000E+00 0.  1.
<mgrwt>
<rscale>  0 0.10973323E+04</rscale>
<asrwt>0</asrwt>
<pdfrwt beam="1">  1        2 0.19241063E+00 0.10973323E+04</pdfrwt>
<pdfrwt beam="2">  1       -2 0.37030581E-01 0.10973323E+04</pdfrwt>
<totfact> 0.12049283E+02</totfact>
</mgrwt>
</event>
<event>
12    1  0.4612066E-007  0.1376228E+04  0.7818608E-02  0.8971208E-01
         -2   -1    0    0    0  501 -0.00000000000E+00  0.00000000000E+00  0.29134023235E+03  0.29134023235E+03  0.00000000000E+00 0.  1.
          2   -1    0    0  501    0  0.00000000000E+00 -0.00000000000E+00 -0.16252510743E+04  0.16252510743E+04  0.00000000000E+00 0. -1.
         23    2    1    2    0    0  0.11315974144E+03 -0.47117655913E+02 -0.89365481438E+03  0.90645131024E+03  0.89497765285E+02 0.  0.
        254    2    1    2    0    0 -0.11315974144E+03  0.47117655913E+02 -0.44025602758E+03  0.10101399964E+04  0.90085084336E+03 0.  0.
        -24    2    4    4    0    0 -0.23006339397E+03 -0.22672859153E+03  0.13438795492E+03  0.35799608228E+03  0.75934531239E+02 0.  0.
         24    2    4    4    0    0  0.11690365253E+03  0.27384624745E+03 -0.57464398250E+03  0.65214391415E+03  0.80110841454E+02 0.  0.
         13    1    3    3    0    0  0.32707042916E+02 -0.46800428937E+02 -0.19522907573E+03  0.20340703728E+03  0.00000000000E+00 0. -1.
        -13    1    3    3    0    0  0.80452698523E+02 -0.31722697559E+00 -0.69842573864E+03  0.70304427295E+03  0.00000000000E+00 0.  1.
          2    1    6    6  502    0  0.83038098208E+02  0.25784903114E+03 -0.50474962089E+03  0.57284695024E+03  0.00000000000E+00 0. -1.
          1    1    5    5  503    0 -0.32334029136E+02 -0.75563972775E+02  0.43776157311E+02  0.93122260339E+02  0.00000000000E+00 0. -1.
         -2    1    5    5    0  503 -0.19772936484E+03 -0.15116461876E+03  0.90611797610E+02  0.26487382194E+03  0.00000000000E+00 0.  1.
         -1    1    6    6    0  502  0.33865554324E+02  0.15997216302E+02 -0.69894361619E+02  0.79296963909E+02  0.00000000000E+00 0.  1.
<mgrwt>
<rscale>  0 0.13762282E+04</rscale>
<asrwt>0</asrwt>
<pdfrwt beam="1">  1        2 0.25003863E+00 0.13762282E+04</pdfrwt>
<pdfrwt beam="2">  1       -2 0.44821574E-01 0.13762282E+04</pdfrwt>
<totfact> 0.49672370E+01</totfact>
</mgrwt>
</event>
<event>
12    1  0.4612066E-007  0.2089583E+04  0.7818608E-02  0.8565846E-01
         -3   -1    0    0    0  501 -0.00000000000E+00  0.00000000000E+00  0.66209990972E+03  0.66209990972E+03  0.00000000000E+00 0.  1.
          3   -1    0    0  501    0  0.00000000000E+00 -0.00000000000E+00 -0.16486776311E+04  0.16486776311E+04  0.00000000000E+00 0. -1.
         23    2    1    2    0    0 -0.18070999844E+03 -0.80658707997E+03 -0.61196973403E+03  0.10324309447E+04  0.90376318974E+02 0.  0.
        254    2    1    2    0    0  0.18070999844E+03  0.80658707997E+03 -0.37460798732E+03  0.12783465961E+04  0.90033330191E+03 0.  0.
        -24    2    4    4    0    0 -0.10669636342E+03 -0.11988922238E+03  0.91201815184E+02  0.19929038093E+03  0.75108889142E+02 0.  0.
         24    2    4    4    0    0  0.28740636185E+03  0.92647630236E+03 -0.46580980251E+03  0.10790562152E+04  0.80142296993E+02 0.  0.
         11    1    3    3    0    0 -0.15664751901E+03 -0.70565013532E+03 -0.56986204730E+03  0.92044734322E+03  0.00000000000E+00 0. -1.
        -11    1    3    3    0    0 -0.24062479423E+02 -0.10093694466E+03 -0.42107686731E+02  0.11198360145E+03  0.00000000000E+00 0.  1.
          2    1    6    6  502    0  0.27664111863E+03  0.88807011391E+03 -0.46312843841E+03  0.10390797786E+04  0.00000000000E+00 0. -1.
          3    1    5    5  503    0 -0.97769736352E+02 -0.76006578954E+02  0.92370979506E+02  0.15449375148E+03  0.00000000000E+00 0. -1.
         -4    1    5    5    0  503 -0.89266270646E+01 -0.43882643428E+02 -0.11691643217E+01  0.44796629452E+02  0.00000000000E+00 0.  1.
         -1    1    6    6    0  502  0.10765243222E+02  0.38406188443E+02 -0.26813640952E+01  0.39976436631E+02  0.00000000000E+00 0.  1.
<mgrwt>
<rscale>  0 0.20895830E+04</rscale>
<asrwt>0</asrwt>
<pdfrwt beam="1">  1        3 0.25364271E+00 0.20895830E+04</pdfrwt>
<pdfrwt beam="2">  1       -3 0.10186152E+00 0.20895830E+04</pdfrwt>
<totfact> 0.14195310E-01</totfact>
</mgrwt>
</event>
<event>
12    1  0.4612066E-007  0.2277516E+04  0.7818608E-02  0.8486839E-01
          2   -1    0    0  501    0  0.00000000000E+00  0.00000000000E+00  0.21161290848E+04  0.21161290848E+04  0.00000000000E+00 0.  1.
         -2   -1    0    0    0  501 -0.00000000000E+00 -0.00000000000E+00 -0.61280299740E+03  0.61280299740E+03  0.00000000000E+00 0. -1.
         23    2    1    2    0    0 -0.91441769600E+03 -0.24876885442E+03  0.45407835817E+03  0.10546933758E+04  0.90251293224E+02 0.  0.
        254    2    1    2    0    0  0.91441769600E+03  0.24876885442E+03  0.10492477292E+04  0.16742387064E+04  0.89672112890E+03 0.  0.
        -24    2    4    4    0    0  0.61724585528E+03  0.57741653021E+03  0.60393138146E+03  0.10419288192E+04  0.80500034954E+02 0.  0.
         24    2    4    4    0    0  0.29717184072E+03 -0.32864767578E+03  0.44531634778E+03  0.63230988716E+03  0.72032951420E+02 0.  0.
         11    1    3    3    0    0 -0.75838399790E+03 -0.23968798023E+03  0.38894878204E+03  0.88536872047E+03  0.00000000000E+00 0. -1.
        -11    1    3    3    0    0 -0.15603369810E+03 -0.90808741963E+01  0.65129576127E+02  0.16932465534E+03  0.00000000000E+00 0.  1.
          4    1    6    6  502    0 -0.11997142226E+01 -0.14879241425E+02  0.23376497967E+02  0.27736109979E+02  0.00000000000E+00 0. -1.
          3    1    5    5  503    0  0.16770396943E+03  0.20789224180E+03  0.19339846131E+03  0.32976775222E+03  0.00000000000E+00 0. -1.
         -4    1    5    5    0  503  0.44954188585E+03  0.36952428840E+03  0.41053292014E+03  0.71216106702E+03  0.00000000000E+00 0.  1.
         -3    1    6    6    0  502  0.29837155494E+03 -0.31376843436E+03  0.42193984981E+03  0.60457377718E+03  0.00000000000E+00 0.  1.
<mgrwt>
<rscale>  0 0.22775164E+04</rscale>
<asrwt>0</asrwt>
<pdfrwt beam="1">  1        2 0.32555832E+00 0.22775164E+04</pdfrwt>
<pdfrwt beam="2">  1       -2 0.94277385E-01 0.22775164E+04</pdfrwt>
<totfact> 0.49589093E+00</totfact>
</mgrwt>
</event>
<event>
12    1  0.4612066E-007  0.1218252E+04  0.7818608E-02  0.9097029E-01
         -3   -1    0    0    0  501 -0.00000000000E+00  0.00000000000E+00  0.35408472093E+03  0.35408472093E+03  0.00000000000E+00 0.  1.
          3   -1    0    0  501    0  0.00000000000E+00 -0.00000000000E+00 -0.10478693576E+04  0.10478693576E+04  0.00000000000E+00 0. -1.
         23    2    1    2    0    0  0.85526020455E+02 -0.25116693364E+03 -0.18536588328E+03  0.33666690779E+03  0.92652940505E+02 0.  0.
        254    2    1    2    0    0 -0.85526020455E+02  0.25116693364E+03 -0.50841875343E+03  0.10652871708E+04  0.89774584302E+03 0.  0.
        -24    2    4    4    0    0  0.51923091288E+02 -0.32188199999E+03 -0.12791031926E+03  0.35905936490E+03  0.79110987985E+02 0.  0.
         24    2    4    4    0    0 -0.13744911174E+03  0.57304893364E+03 -0.38050843417E+03  0.70622780588E+03  0.81815076039E+02 0.  0.
         11    1    3    3    0    0  0.33340755092E+02 -0.61402942442E+02 -0.10035540398E+03  0.12228300945E+03  0.00000000000E+00 0. -1.
        -11    1    3    3    0    0  0.52185265363E+02 -0.18976399120E+03 -0.85010479299E+02  0.21438389834E+03  0.00000000000E+00 0.  1.
          2    1    6    6  502    0 -0.45413872047E+02  0.94851120259E+02 -0.42409925110E+02  0.11339204794E+03  0.00000000000E+00 0. -1.
          3    1    5    5  503    0  0.29067443281E+02 -0.27873325933E+02 -0.20694596903E+02  0.45278084086E+02  0.00000000000E+00 0. -1.
         -4    1    5    5    0  503  0.22855648007E+02 -0.29400867406E+03 -0.10721572236E+03  0.31378128081E+03  0.00000000000E+00 0.  1.
         -1    1    6    6    0  502 -0.92035239696E+02  0.47819781338E+03 -0.33809850906E+03  0.59283575794E+03  0.00000000000E+00 0.  1.
<mgrwt>
<rscale>  0 0.12182521E+04</rscale>
<asrwt>0</asrwt>
<pdfrwt beam="1">  1        3 0.16121067E+00 0.12182521E+04</pdfrwt>
<pdfrwt beam="2">  1       -3 0.54474572E-01 0.12182521E+04</pdfrwt>
<totfact> 0.23005714E+00</totfact>
</mgrwt>
</event>
<event>
12    1  0.4612066E-007  0.1923954E+04  0.7818608E-02  0.8643024E-01
          1   -1    0    0  501    0  0.00000000000E+00  0.00000000000E+00  0.61130609451E+03  0.61130609451E+03  0.00000000000E+00 0. -1.
         -1   -1    0    0    0  501 -0.00000000000E+00 -0.00000000000E+00 -0.15138074283E+04  0.15138074283E+04  0.00000000000E+00 0.  1.
         23    2    1    2    0    0  0.32487979244E+03 -0.15005906744E+03  0.37393948990E+03  0.52511876332E+03  0.88624884943E+02 0.  0.
        254    2    1    2    0    0 -0.32487979244E+03  0.15005906744E+03 -0.12764408237E+04  0.15999947595E+04  0.89588919557E+03 0.  0.
        -24    2    4    4    0    0 -0.49101493309E+03  0.40399545323E+03 -0.74502145698E+03  0.98288235899E+03  0.81809348471E+02 0.  0.
         24    2    4    4    0    0  0.16613514066E+03 -0.25393638580E+03 -0.53141936672E+03  0.61711240050E+03  0.79602754586E+02 0.  0.
         11    1    3    3    0    0  0.20058930894E+03 -0.45028519759E+02  0.22028888674E+03  0.30131517066E+03  0.00000000000E+00 0. -1.
        -11    1    3    3    0    0  0.12429048350E+03 -0.10503054768E+03  0.15365060317E+03  0.22380359266E+03  0.00000000000E+00 0.  1.
          2    1    6    6  502    0  0.89919580062E+02 -0.20281851509E+03 -0.38269425131E+03  0.44235254145E+03  0.00000000000E+00 0. -1.
          1    1    5    5  503    0 -0.33968755397E+03  0.23569117666E+03 -0.51109840430E+03  0.65738842700E+03  0.00000000000E+00 0. -1.
         -2    1    5    5    0  503 -0.15132737913E+03  0.16830427658E+03 -0.23392305268E+03  0.32549393199E+03  0.00000000000E+00 0.  1.
         -1    1    6    6    0  502  0.76215560596E+02 -0.51117870703E+02 -0.14872511541E+03  0.17475985905E+03  0.00000000000E+00 0.  1.
<mgrwt>
<rscale>  0 0.19239540E+04</rscale>
<asrwt>0</asrwt>
<pdfrwt beam="1">  1        1 0.94047091E-01 0.19239540E+04</pdfrwt>
<pdfrwt beam="2">  1       -1 0.23289345E+00 0.19239540E+04</pdfrwt>
<totfact> 0.28105502E+00</totfact>
</mgrwt>
</event>
<event>
12    1  0.4612066E-007  0.1495685E+04  0.7818608E-02  0.8887328E-01
         -2   -1    0    0    0  501 -0.00000000000E+00  0.00000000000E+00  0.26031125551E+03  0.26031125551E+03  0.00000000000E+00 0.  1.
          2   -1    0    0  501    0  0.00000000000E+00 -0.00000000000E+00 -0.21484595041E+04  0.21484595041E+04  0.00000000000E+00 0. -1.
         23    2    1    2    0    0  0.90773496134E+02  0.12288829676E+03  0.11163237067E+03  0.21121193487E+03  0.93847398318E+02 0.  0.
        254    2    1    2    0    0 -0.90773496134E+02 -0.12288829676E+03 -0.19997806193E+04  0.21975588247E+04  0.89822096498E+03 0.  0.
        -24    2    4    4    0    0 -0.14410949667E+03  0.37216510427E+03 -0.93710548383E+03  0.10212257772E+04  0.73898499736E+02 0.  0.
         24    2    4    4    0    0  0.53336000537E+02 -0.49505340103E+03 -0.10626751354E+04  0.11763330476E+04  0.80983927508E+02 0.  0.
         11    1    3    3    0    0  0.43847943758E+01  0.38108718231E+02 -0.99732155525E+01  0.39635411633E+02  0.00000000000E+00 0. -1.
        -11    1    3    3    0    0  0.86388701758E+02  0.84779578526E+02  0.12160558622E+03  0.17157652324E+03  0.00000000000E+00 0.  1.
          2    1    6    6  502    0  0.16658565694E+02 -0.35892357536E+03 -0.82740542263E+03  0.90205508377E+03  0.00000000000E+00 0. -1.
          1    1    5    5  503    0 -0.42676032178E+02  0.15165806491E+03 -0.28887155978E+03  0.32904132024E+03  0.00000000000E+00 0. -1.
         -2    1    5    5    0  503 -0.10143346449E+03  0.22050703936E+03 -0.64823392405E+03  0.69218445693E+03  0.00000000000E+00 0.  1.
         -1    1    6    6    0  502  0.36677434843E+02 -0.13612982566E+03 -0.23526971280E+03  0.27427796379E+03  0.00000000000E+00 0.  1.
<mgrwt>
<rscale>  0 0.14956847E+04</rscale>
<asrwt>0</asrwt>
<pdfrwt beam="1">  1        2 0.33053222E+00 0.14956847E+04</pdfrwt>
<pdfrwt beam="2">  1       -2 0.40047887E-01 0.14956847E+04</pdfrwt>
<totfact> 0.31506815E+01</totfact>
</mgrwt>
</event>
<event>
12    1  0.4612066E-007  0.1493100E+04  0.7818608E-02  0.8889054E-01
         -2   -1    0    0    0  501 -0.00000000000E+00  0.00000000000E+00  0.76126112465E+03  0.76126112465E+03  0.00000000000E+00 0.  1.
          2   -1    0    0  501    0  0.00000000000E+00 -0.00000000000E+00 -0.73212303160E+03  0.73212303160E+03  0.00000000000E+00 0. -1.
         23    2    1    2    0    0  0.40345585099E+03 -0.21425676123E+03 -0.10528393008E+03  0.47731501908E+03  0.89790523314E+02 0.  0.
        254    2    1    2    0    0 -0.40345585099E+03  0.21425676123E+03  0.13442202313E+03  0.10160691372E+04  0.89757708737E+03 0.  0.
        -24    2    4    4    0    0 -0.21774396318E+03  0.52498336019E+03 -0.92155804635E+02  0.58158621129E+03  0.82035765721E+02 0.  0.
         24    2    4    4    0    0 -0.18571188781E+03 -0.31072659896E+03  0.22657782777E+03  0.43448292588E+03  0.79987350663E+02 0.  0.
         13    1    3    3    0    0  0.27991583421E+02  0.79574339055E+01 -0.35458445407E+01  0.29315908825E+02  0.00000000000E+00 0.  1.
        -13    1    3    3    0    0  0.37546426757E+03 -0.22221419514E+03 -0.10173808554E+03  0.44799911026E+03  0.00000000000E+00 0. -1.
          4    1    6    6  502    0 -0.43389969833E+02 -0.57217064884E+02  0.11220593272E+02  0.72680009008E+02  0.00000000000E+00 0. -1.
          3    1    5    5  503    0 -0.78202758082E+02  0.14038837846E+03 -0.58730118811E+02  0.17109586504E+03  0.00000000000E+00 0. -1.
         -4    1    5    5    0  503 -0.13954120510E+03  0.38459498173E+03 -0.33425685825E+02  0.41049034625E+03  0.00000000000E+00 0.  1.
         -3    1    6    6    0  502 -0.14232191798E+03 -0.25350953408E+03  0.21535723450E+03  0.36180291687E+03  0.00000000000E+00 0.  1.
<mgrwt>
<rscale>  0 0.14930999E+04</rscale>
<asrwt>0</asrwt>
<pdfrwt beam="1">  1        2 0.11263431E+00 0.14930999E+04</pdfrwt>
<pdfrwt beam="2">  1       -2 0.11711710E+00 0.14930999E+04</pdfrwt>
<totfact> 0.21088595E+01</totfact>
</mgrwt>
</event>
<event>
12    1  0.4612066E-007  0.2864413E+04  0.7818608E-02  0.8283545E-01
          1   -1    0    0  501    0  0.00000000000E+00  0.00000000000E+00  0.46980695230E+04  0.46980695230E+04  0.00000000000E+00 0. -1.
         -1   -1    0    0    0  501 -0.00000000000E+00 -0.00000000000E+00 -0.43660816166E+03  0.43660816166E+03  0.00000000000E+00 0.  1.
         23    2    1    2    0    0  0.46185542493E+03 -0.88134815546E+03  0.31781275716E+04  0.33314411802E+04  0.88997030637E+02 0.  0.
        254    2    1    2    0    0 -0.46185542493E+03  0.88134815546E+03  0.10833337897E+04  0.18032365044E+04  0.10430555048E+04 0.  0.
        -24    2    4    4    0    0 -0.29517673745E+03  0.16291168063E+02 -0.10482146981E+03  0.32194558355E+03  0.72572100319E+02 0.  0.
         24    2    4    4    0    0 -0.16667868748E+03  0.86505698739E+03  0.11881552595E+04  0.14812909208E+04  0.80028089450E+02 0.  0.
         13    1    3    3    0    0  0.46165521777E+03 -0.85665566336E+03  0.31213173299E+04  0.32694963435E+04  0.00000000000E+00 0. -1.
        -13    1    3    3    0    0  0.20020715586E+00 -0.24692492093E+02  0.56810241640E+02  0.61944836782E+02  0.00000000000E+00 0.  1.
          2    1    6    6  502    0 -0.13403878408E+03  0.69859428383E+03  0.10093484582E+04  0.12348217196E+04  0.00000000000E+00 0. -1.
          1    1    5    5  503    0 -0.21305502264E+03  0.44100143382E+02 -0.70692286769E+02  0.22876770910E+03  0.00000000000E+00 0. -1.
         -2    1    5    5    0  503 -0.82121714808E+02 -0.27808975318E+02 -0.34129183044E+02  0.93177874447E+02  0.00000000000E+00 0.  1.
         -1    1    6    6    0  502 -0.32639903401E+02  0.16646270356E+03  0.17880680130E+03  0.24646920124E+03  0.00000000000E+00 0.  1.
<mgrwt>
<rscale>  0 0.28644130E+04</rscale>
<asrwt>0</asrwt>
<pdfrwt beam="1">  1        1 0.72277989E+00 0.28644130E+04</pdfrwt>
<pdfrwt beam="2">  1       -1 0.67170490E-01 0.28644130E+04</pdfrwt>
<totfact> 0.38306300E-02</totfact>
</mgrwt>
</event>
<event>
12    1  0.4612066E-007  0.1509242E+04  0.7818608E-02  0.8878330E-01
         -2   -1    0    0    0  501 -0.00000000000E+00  0.00000000000E+00  0.36435928700E+03  0.36435928700E+03  0.00000000000E+00 0.  1.
          2   -1    0    0  501    0  0.00000000000E+00 -0.00000000000E+00 -0.15628891182E+04  0.15628891182E+04  0.00000000000E+00 0. -1.
         23    2    1    2    0    0  0.26166845606E+03  0.26165043051E+03 -0.77783394343E+03  0.86583851060E+03  0.87859855469E+02 0.  0.
        254    2    1    2    0    0 -0.26166845606E+03 -0.26165043051E+03 -0.42069588778E+03  0.10614098946E+04  0.90148466748E+03 0.  0.
        -24    2    4    4    0    0  0.37548097679E+01 -0.53958200827E+03 -0.10288491590E+03  0.55632271208E+03  0.88015974747E+02 0.  0.
         24    2    4    4    0    0 -0.26542326583E+03  0.27793157776E+03 -0.31781097188E+03  0.50508718253E+03  0.80086054671E+02 0.  0.
         13    1    3    3    0    0  0.24040351565E+03  0.26297995114E+03 -0.70455969431E+03  0.78952939647E+03  0.00000000000E+00 0. -1.
        -13    1    3    3    0    0  0.21264940406E+02 -0.13295206299E+01 -0.73274249116E+02  0.76309114128E+02  0.00000000000E+00 0.  1.
          2    1    6    6  502    0 -0.22171477185E+03  0.18598041141E+03 -0.21606962117E+03  0.36115403179E+03  0.00000000000E+00 0. -1.
          1    1    5    5  503    0  0.44164796050E+02 -0.34387596681E+03 -0.72344936254E+02  0.35416803860E+03  0.00000000000E+00 0. -1.
         -2    1    5    5    0  503 -0.40409986283E+02 -0.19570604146E+03 -0.30539979642E+02  0.20215467348E+03  0.00000000000E+00 0.  1.
         -1    1    6    6    0  502 -0.43708493978E+02  0.91951166346E+02 -0.10174135071E+03  0.14393315074E+03  0.00000000000E+00 0.  1.
<mgrwt>
<rscale>  0 0.15092424E+04</rscale>
<asrwt>0</asrwt>
<pdfrwt beam="1">  1        2 0.24044449E+00 0.15092424E+04</pdfrwt>
<pdfrwt beam="2">  1       -2 0.56055274E-01 0.15092424E+04</pdfrwt>
<totfact> 0.33748795E+01</totfact>
</mgrwt>
</event>
<event>
12    1  0.4612066E-007  0.1332878E+04  0.7818608E-02  0.9003892E-01
         -2   -1    0    0    0  501 -0.00000000000E+00  0.00000000000E+00  0.32663544308E+03  0.32663544308E+03  0.00000000000E+00 0.  1.
          2   -1    0    0  501    0  0.00000000000E+00 -0.00000000000E+00 -0.13597443410E+04  0.13597443410E+04  0.00000000000E+00 0. -1.
         23    2    1    2    0    0  0.30464691772E+03  0.20490450777E+02 -0.16768656475E+03  0.35995321508E+03  0.90652799192E+02 0.  0.
        254    2    1    2    0    0 -0.30464691772E+03 -0.20490450777E+02 -0.86542233313E+03  0.13264265690E+04  0.95771709033E+03 0.  0.
        -24    2    4    4    0    0 -0.44370565613E+03 -0.37611814006E+03 -0.36286652263E+03  0.69026865897E+03  0.80368798316E+02 0.  0.
         24    2    4    4    0    0  0.13905873841E+03  0.35562768929E+03 -0.50255581050E+03  0.63615790999E+03  0.79537146465E+02 0.  0.
         11    1    3    3    0    0  0.28877077682E+03  0.12370825959E+02 -0.17790673199E+03  0.33940006506E+03  0.00000000000E+00 0.  1.
        -11    1    3    3    0    0  0.15876140902E+02  0.81196248184E+01  0.10220167242E+02  0.20553150016E+02  0.00000000000E+00 0. -1.
          4    1    6    6  502    0  0.72534802989E+02  0.14117430618E+03 -0.15136372985E+03  0.21932273271E+03  0.00000000000E+00 0. -1.
          1    1    5    5  503    0 -0.26295577410E+03 -0.18318836823E+03 -0.22940225052E+03  0.39411814210E+03  0.00000000000E+00 0. -1.
         -2    1    5    5    0  503 -0.18074988203E+03 -0.19292977183E+03 -0.13346427211E+03  0.29615051687E+03  0.00000000000E+00 0.  1.
         -3    1    6    6    0  502  0.66523935418E+02  0.21445338310E+03 -0.35119208065E+03  0.41683517728E+03  0.00000000000E+00 0.  1.
<mgrwt>
<rscale>  0 0.13328776E+04</rscale>
<asrwt>0</asrwt>
<pdfrwt beam="1">  1        2 0.20919144E+00 0.13328776E+04</pdfrwt>
<pdfrwt beam="2">  1       -2 0.50251607E-01 0.13328776E+04</pdfrwt>
<totfact> 0.55893644E+01</totfact>
</mgrwt>
</event>
<event>
12    1  0.4612066E-007  0.2721271E+04  0.7818608E-02  0.8328136E-01
         -2   -1    0    0    0  501 -0.00000000000E+00  0.00000000000E+00  0.87991668915E+03  0.87991668915E+03  0.00000000000E+00 0.  1.
          2   -1    0    0  501    0  0.00000000000E+00 -0.00000000000E+00 -0.21039818307E+04  0.21039818307E+04  0.00000000000E+00 0. -1.
         23    2    1    2    0    0 -0.10425827470E+04  0.56260684770E+03 -0.27367486403E+03  0.12193906435E+04  0.92251617727E+02 0.  0.
        254    2    1    2    0    0  0.10425827470E+04 -0.56260684770E+03 -0.95039027750E+03  0.17645078763E+04  0.89818768451E+03 0.  0.
        -24    2    4    4    0    0  0.97719353196E+03 -0.25417053263E+03 -0.10145150130E+04  0.14334006102E+04  0.76725088365E+02 0.  0.
         24    2    4    4    0    0  0.65389215010E+02 -0.30843631506E+03  0.64124735465E+02  0.33110726611E+03  0.78174996555E+02 0.  0.
         11    1    3    3    0    0 -0.52761968290E+03  0.30994735666E+03 -0.99778711616E+02  0.62000458464E+03  0.00000000000E+00 0.  1.
        -11    1    3    3    0    0 -0.51496306407E+03  0.25265949104E+03 -0.17389615241E+03  0.59938605889E+03  0.00000000000E+00 0. -1.
          4    1    6    6  502    0 -0.66884976169E+01 -0.14553903588E+03  0.41880152284E+02  0.15159252659E+03  0.00000000000E+00 0. -1.
          1    1    5    5  503    0  0.31130313079E+03 -0.51532395891E+02 -0.28677097821E+03  0.42638342019E+03  0.00000000000E+00 0. -1.
         -2    1    5    5    0  503  0.66589040117E+03 -0.20263813674E+03 -0.72774403476E+03  0.10070171900E+04  0.00000000000E+00 0.  1.
         -3    1    6    6    0  502  0.72077712627E+02 -0.16289727919E+03  0.22244583180E+02  0.17951473952E+03  0.00000000000E+00 0.  1.
<mgrwt>
<rscale>  0 0.27212708E+04</rscale>
<asrwt>0</asrwt>
<pdfrwt beam="1">  1        2 0.32368951E+00 0.27212708E+04</pdfrwt>
<pdfrwt beam="2">  1       -2 0.13537180E+00 0.27212708E+04</pdfrwt>
<totfact> 0.20055894E+00</totfact>
</mgrwt>
</event>
<event>
12    1  0.4612066E-007  0.2302931E+04  0.7818608E-02  0.8476766E-01
         -2   -1    0    0    0  501 -0.00000000000E+00  0.00000000000E+00  0.73128334762E+03  0.73128334762E+03  0.00000000000E+00 0.  1.
          2   -1    0    0  501    0  0.00000000000E+00 -0.00000000000E+00 -0.18130766140E+04  0.18130766140E+04  0.00000000000E+00 0. -1.
         23    2    1    2    0    0  0.79511536926E+02 -0.95529097822E+03 -0.29715212643E+03  0.10077458017E+04  0.91374378667E+02 0.  0.
        254    2    1    2    0    0 -0.79511536926E+02  0.95529097822E+03 -0.78464113992E+03  0.15366141599E+04  0.90918558076E+03 0.  0.
        -24    2    4    4    0    0 -0.79542334131E+02  0.39053004699E+03 -0.87025767703E+03  0.95997713337E+03  0.73259618137E+02 0.  0.
         24    2    4    4    0    0  0.30797205372E-01  0.56476093122E+03  0.85616537109E+02  0.57663702649E+03  0.78899673690E+02 0.  0.
         11    1    3    3    0    0  0.38918876726E+02 -0.41339205019E+03 -0.81731067433E+02  0.42318746852E+03  0.00000000000E+00 0.  1.
        -11    1    3    3    0    0  0.40592660200E+02 -0.54189892802E+03 -0.21542105899E+03  0.58455833320E+03  0.00000000000E+00 0. -1.
          2    1    6    6  502    0  0.18717084078E+02  0.51686222756E+03  0.90241970170E+02  0.52501476617E+03  0.00000000000E+00 0. -1.
          3    1    5    5  503    0 -0.80079068140E+02  0.36515616298E+03 -0.76169662285E+03  0.84848890728E+03  0.00000000000E+00 0. -1.
         -4    1    5    5    0  503  0.53673400822E+00  0.25373884017E+02 -0.10856105418E+03  0.11148822609E+03  0.00000000000E+00 0.  1.
         -1    1    6    6    0  502 -0.18686286873E+02  0.47898703658E+02 -0.46254330612E+01  0.51622260316E+02  0.00000000000E+00 0.  1.
<mgrwt>
<rscale>  0 0.23029309E+04</rscale>
<asrwt>0</asrwt>
<pdfrwt beam="1">  1        2 0.27893486E+00 0.23029309E+04</pdfrwt>
<pdfrwt beam="2">  1       -2 0.11250513E+00 0.23029309E+04</pdfrwt>
<totfact> 0.47846879E+00</totfact>
</mgrwt>
</event>
<event>
12    1  0.4612066E-007  0.2941302E+04  0.7818608E-02  0.8260694E-01
         -2   -1    0    0    0  501 -0.00000000000E+00  0.00000000000E+00  0.15790538595E+04  0.15790538595E+04  0.00000000000E+00 0.  1.
          2   -1    0    0  501    0  0.00000000000E+00 -0.00000000000E+00 -0.13696897942E+04  0.13696897942E+04  0.00000000000E+00 0. -1.
         23    2    1    2    0    0 -0.10232395686E+04 -0.85057500223E+03  0.21906119240E+02  0.13338242032E+04  0.90055970360E+02 0.  0.
        254    2    1    2    0    0  0.10232395686E+04  0.85057500223E+03  0.18745794602E+03  0.16149194505E+04  0.89572724688E+03 0.  0.
        -24    2    4    4    0    0 -0.15369398981E+03  0.11945015081E+03 -0.18275800094E+02  0.21193272123E+03  0.81800320447E+02 0.  0.
         24    2    4    4    0    0  0.11769335584E+04  0.73112485142E+03  0.20573374611E+03  0.14029867292E+04  0.79556513608E+02 0.  0.
         11    1    3    3    0    0 -0.48955302944E+03 -0.44752186347E+03 -0.21558371082E+02  0.66362847308E+03  0.00000000000E+00 0. -1.
        -11    1    3    3    0    0 -0.53368653915E+03 -0.40305313876E+03  0.43464490322E+02  0.67019573010E+03  0.00000000000E+00 0.  1.
          2    1    6    6  502    0  0.66256699808E+03  0.45781298144E+03  0.11951544679E+03  0.81416932818E+03  0.00000000000E+00 0. -1.
          3    1    5    5  503    0 -0.15615806973E+03  0.91641069803E+02 -0.52820270862E+01  0.18113897489E+03  0.00000000000E+00 0. -1.
         -4    1    5    5    0  503  0.24640799140E+01  0.27809081011E+02 -0.12993773007E+02  0.30793746337E+02  0.00000000000E+00 0.  1.
         -1    1    6    6    0  502  0.51436656033E+03  0.27331186997E+03  0.86218299319E+02  0.58881740106E+03  0.00000000000E+00 0.  1.
<mgrwt>
<rscale>  0 0.29413017E+04</rscale>
<asrwt>0</asrwt>
<pdfrwt beam="1">  1        2 0.21072151E+00 0.29413017E+04</pdfrwt>
<pdfrwt beam="2">  1       -2 0.24293136E+00 0.29413017E+04</pdfrwt>
<totfact> 0.92049175E-01</totfact>
</mgrwt>
</event>
<event>
12    1  0.4612066E-007  0.1382068E+04  0.7818608E-02  0.8966902E-01
         -1   -1    0    0    0  501 -0.00000000000E+00  0.00000000000E+00  0.47975165861E+03  0.47975165861E+03  0.00000000000E+00 0.  1.
          1   -1    0    0  501    0  0.00000000000E+00 -0.00000000000E+00 -0.99536497192E+03  0.99536497192E+03  0.00000000000E+00 0. -1.
         23    2    1    2    0    0  0.20937609298E+03  0.29794407859E+03  0.91990432177E+01  0.37554535542E+03  0.91327264824E+02 0.  0.
        254    2    1    2    0    0 -0.20937609298E+03 -0.29794407859E+03 -0.52481235652E+03  0.10995712751E+04  0.89499718278E+03 0.  0.
        -24    2    4    4    0    0 -0.37575371477E+03 -0.29884607964E+03  0.56198934001E+02  0.48986160763E+03  0.79411844008E+02 0.  0.
         24    2    4    4    0    0  0.16637762179E+03  0.90200104736E+00 -0.58101129053E+03  0.60970966747E+03  0.80557012432E+02 0.  0.
         13    1    3    3    0    0  0.25665654554E+02  0.41637133014E+02 -0.30604747843E+02  0.57697723177E+02  0.00000000000E+00 0. -1.
        -13    1    3    3    0    0  0.18371043843E+03  0.25630694558E+03  0.39803791060E+02  0.31784763224E+03  0.00000000000E+00 0.  1.
          4    1    6    6  502    0  0.16138078125E+03 -0.18903387239E+02 -0.48317397811E+03  0.50976287402E+03  0.00000000000E+00 0. -1.
          3    1    5    5  503    0 -0.21064682357E+03 -0.12179875507E+03  0.10870245987E+02  0.24356761539E+03  0.00000000000E+00 0. -1.
         -4    1    5    5    0  503 -0.16510689120E+03 -0.17704732457E+03  0.45328688014E+02  0.24629399224E+03  0.00000000000E+00 0.  1.
         -3    1    6    6    0  502  0.49968405365E+01  0.19805388286E+02 -0.97837312412E+02  0.99946793448E+02  0.00000000000E+00 0.  1.
<mgrwt>
<rscale>  0 0.13820680E+04</rscale>
<asrwt>0</asrwt>
<pdfrwt beam="1">  1        1 0.15313307E+00 0.13820680E+04</pdfrwt>
<pdfrwt beam="2">  1       -1 0.73807948E-01 0.13820680E+04</pdfrwt>
<totfact> 0.27549634E+01</totfact>
</mgrwt>
</event>
<event>
12    1  0.4612066E-007  0.3034290E+04  0.7818608E-02  0.8234006E-01
         -1   -1    0    0    0  501 -0.00000000000E+00  0.00000000000E+00  0.96867820119E+03  0.96867820119E+03  0.00000000000E+00 0. -1.
          1   -1    0    0  501    0  0.00000000000E+00 -0.00000000000E+00 -0.23761543015E+04  0.23761543015E+04  0.00000000000E+00 0.  1.
         23    2    1    2    0    0  0.80609416952E+03 -0.95103186922E+03 -0.12923280563E+04  0.17982869545E+04  0.97338270928E+02 0.  0.
        254    2    1    2    0    0 -0.80609416952E+03  0.95103186922E+03 -0.11514804402E+03  0.15465455483E+04  0.90790673225E+03 0.  0.
        -24    2    4    4    0    0 -0.19431055882E+03 -0.16161774073E+03  0.24621725504E+02  0.26657897978E+03  0.81124815592E+02 0.  0.
         24    2    4    4    0    0 -0.61178361070E+03  0.11126496099E+04 -0.13976976952E+03  0.12799665685E+04  0.80687590026E+02 0.  0.
         13    1    3    3    0    0  0.56242031747E+03 -0.60001149691E+03 -0.88047394964E+03  0.12048090247E+04  0.00000000000E+00 0.  1.
        -13    1    3    3    0    0  0.24367385205E+03 -0.35102037231E+03 -0.41185410670E+03  0.59347792980E+03  0.00000000000E+00 0. -1.
          2    1    6    6  502    0 -0.76310158413E+02  0.19162780790E+03 -0.72964475988E+01  0.20639209090E+03  0.00000000000E+00 0. -1.
          1    1    5    5  503    0 -0.86747851963E+01 -0.40628418941E+01 -0.17048698130E+02  0.19555477248E+02  0.00000000000E+00 0. -1.
         -2    1    5    5    0  503 -0.18563577362E+03 -0.15755489883E+03  0.41670423635E+02  0.24702350253E+03  0.00000000000E+00 0.  1.
         -1    1    6    6    0  502 -0.53547345228E+03  0.92102180204E+03 -0.13247332192E+03  0.10735744776E+04  0.00000000000E+00 0.  1.
<mgrwt>
<rscale>  0 0.30342899E+04</rscale>
<asrwt>0</asrwt>
<pdfrwt beam="1">  1        1 0.36556220E+00 0.30342899E+04</pdfrwt>
<pdfrwt beam="2">  1       -1 0.14902742E+00 0.30342899E+04</pdfrwt>
<totfact> 0.49699789E-01</totfact>
</mgrwt>
</event>
<event>
12    1  0.4612066E-007  0.1884461E+04  0.7818608E-02  0.8662630E-01
          2   -1    0    0  501    0  0.00000000000E+00  0.00000000000E+00  0.31373523623E+04  0.31373523623E+04  0.00000000000E+00 0.  1.
         -2   -1    0    0    0  501 -0.00000000000E+00 -0.00000000000E+00 -0.28297700181E+03  0.28297700181E+03  0.00000000000E+00 0. -1.
         23    2    1    2    0    0 -0.18432824222E+02 -0.30962768307E+03 -0.83567326315E+02  0.33403629196E+03  0.91584251846E+02 0.  0.
        254    2    1    2    0    0  0.18432824222E+02  0.30962768307E+03  0.29379426868E+04  0.30862930721E+04  0.89302218626E+03 0.  0.
        -24    2    4    4    0    0 -0.20379773926E+02  0.61457771356E+03  0.21218603292E+04  0.22105530861E+04  0.78310847209E+02 0.  0.
         24    2    4    4    0    0  0.38812598148E+02 -0.30495003049E+03  0.81608235760E+03  0.87573998602E+03  0.80182104303E+02 0.  0.
         13    1    3    3    0    0 -0.31293857875E+02 -0.23417902384E+03 -0.24836874246E+02  0.23756260453E+03  0.00000000000E+00 0.  1.
        -13    1    3    3    0    0  0.12861033653E+02 -0.75448659223E+02 -0.58730452069E+02  0.96473687425E+02  0.00000000000E+00 0. -1.
          4    1    6    6  502    0  0.13309647391E+02 -0.13299920112E+03  0.24892817759E+03  0.28254410595E+03  0.00000000000E+00 0. -1.
          3    1    5    5  503    0 -0.14288040217E+02  0.45894449350E+03  0.16977836550E+04  0.17587789899E+04  0.00000000000E+00 0. -1.
         -4    1    5    5    0  503 -0.60917337087E+01  0.15563322007E+03  0.42407667418E+03  0.45177409620E+03  0.00000000000E+00 0.  1.
         -3    1    6    6    0  502  0.25502950757E+02 -0.17195082938E+03  0.56715418001E+03  0.59319588007E+03  0.00000000000E+00 0.  1.
<mgrwt>
<rscale>  0 0.18844613E+04</rscale>
<asrwt>0</asrwt>
<pdfrwt beam="1">  1        2 0.48266957E+00 0.18844613E+04</pdfrwt>
<pdfrwt beam="2">  1       -2 0.43534926E-01 0.18844613E+04</pdfrwt>
<totfact> 0.67080597E+00</totfact>
</mgrwt>
</event>
<event>
12    1  0.4612066E-007  0.3052133E+04  0.7818608E-02  0.8228999E-01
         -2   -1    0    0    0  501 -0.00000000000E+00  0.00000000000E+00  0.89118473501E+03  0.89118473501E+03  0.00000000000E+00 0.  1.
          2   -1    0    0  501    0  0.00000000000E+00 -0.00000000000E+00 -0.26132396977E+04  0.26132396977E+04  0.00000000000E+00 0. -1.
         23    2    1    2    0    0 -0.12023581780E+04 -0.60455518884E+03 -0.38673525964E+03  0.14034007206E+04  0.93900249714E+02 0.  0.
        254    2    1    2    0    0  0.12023581780E+04  0.60455518884E+03 -0.13353197031E+04  0.21010237122E+04  0.90557703429E+03 0.  0.
        -24    2    4    4    0    0  0.10914980796E+04  0.57577302243E+03 -0.14604303214E+04  0.19136571628E+04  0.79651628534E+02 0.  0.
         24    2    4    4    0    0  0.11086009839E+03  0.28782166414E+02  0.12511061835E+03  0.18736654933E+03  0.79593859478E+02 0.  0.
         11    1    3    3    0    0 -0.92896882343E+03 -0.50472103529E+03 -0.32287589389E+03  0.11054298898E+04  0.00000000000E+00 0. -1.
        -11    1    3    3    0    0 -0.27338935457E+03 -0.99834153548E+02 -0.63859365749E+02  0.29797083079E+03  0.00000000000E+00 0.  1.
          2    1    6    6  502    0  0.11282106902E+03  0.16886686860E+02  0.13120020528E+03  0.17385985067E+03  0.00000000000E+00 0. -1.
          1    1    5    5  503    0  0.91129875563E+03  0.51305571030E+03 -0.12390526849E+04  0.16214015973E+04  0.00000000000E+00 0. -1.
         -2    1    5    5    0  503  0.18019932398E+03  0.62717312126E+02 -0.22137763655E+03  0.29225556551E+03  0.00000000000E+00 0.  1.
         -1    1    6    6    0  502 -0.19609706374E+01  0.11895479554E+02 -0.60895869341E+01  0.13506698660E+02  0.00000000000E+00 0.  1.
<mgrwt>
<rscale>  0 0.30521332E+04</rscale>
<asrwt>0</asrwt>
<pdfrwt beam="1">  1        2 0.40203688E+00 0.30521332E+04</pdfrwt>
<pdfrwt beam="2">  1       -2 0.13710534E+00 0.30521332E+04</pdfrwt>
<totfact> 0.96574119E-01</totfact>
</mgrwt>
</event>
<event>
12    1  0.4612066E-007  0.2021875E+04  0.7818608E-02  0.8596461E-01
          1   -1    0    0  501    0  0.00000000000E+00  0.00000000000E+00  0.10940089231E+04  0.10940089231E+04  0.00000000000E+00 0. -1.
         -1   -1    0    0    0  501 -0.00000000000E+00 -0.00000000000E+00 -0.93417382453E+03  0.93417382453E+03  0.00000000000E+00 0.  1.
         23    2    1    2    0    0 -0.31152724967E+03  0.64971619290E+03 -0.29275512899E+03  0.78317226200E+03  0.92048181997E+02 0.  0.
        254    2    1    2    0    0  0.31152724967E+03 -0.64971619290E+03  0.45259022760E+03  0.12450104857E+04  0.90886348628E+03 0.  0.
        -24    2    4    4    0    0  0.43931341714E+02  0.22102593194E+03  0.13688724929E+03  0.27761604142E+03  0.86891438378E+02 0.  0.
         24    2    4    4    0    0  0.26759590796E+03 -0.87074212485E+03  0.31570297832E+03  0.96739444424E+03  0.79901328479E+02 0.  0.
         11    1    3    3    0    0 -0.29706664570E+03  0.57033587265E+03 -0.28042801390E+03  0.70154933583E+03  0.00000000000E+00 0. -1.
        -11    1    3    3    0    0 -0.14460603972E+02  0.79380320250E+02 -0.12327115087E+02  0.81622926171E+02  0.00000000000E+00 0.  1.
          4    1    6    6  502    0  0.48746382237E+02 -0.16156907596E+03  0.92155792444E+02  0.19228485684E+03  0.00000000000E+00 0. -1.
          3    1    5    5  503    0  0.63126820191E+02  0.20176680639E+03  0.10610591840E+03  0.23654451063E+03  0.00000000000E+00 0. -1.
         -4    1    5    5    0  503 -0.19195478477E+02  0.19259125554E+02  0.30781330887E+02  0.41071530799E+02  0.00000000000E+00 0.  1.
         -3    1    6    6    0  502  0.21884952572E+03 -0.70917304888E+03  0.22354718587E+03  0.77510958740E+03  0.00000000000E+00 0.  1.
<mgrwt>
<rscale>  0 0.20218749E+04</rscale>
<asrwt>0</asrwt>
<pdfrwt beam="1">  1        1 0.16830906E+00 0.20218749E+04</pdfrwt>
<pdfrwt beam="2">  1       -1 0.14371905E+00 0.20218749E+04</pdfrwt>
<totfact> 0.46407727E+00</totfact>
</mgrwt>
</event>
<event>
12    1  0.4612066E-007  0.2471989E+04  0.7818608E-02  0.8413033E-01
          1   -1    0    0  501    0  0.00000000000E+00  0.00000000000E+00  0.15156168461E+04  0.15156168461E+04  0.00000000000E+00 0. -1.
         -1   -1    0    0    0  501 -0.00000000000E+00 -0.00000000000E+00 -0.10079604890E+04  0.10079604890E+04  0.00000000000E+00 0.  1.
         23    2    1    2    0    0 -0.10463479427E+04 -0.17492762584E+03  0.37050004287E+03  0.11270611425E+04  0.86907109267E+02 0.  0.
        254    2    1    2    0    0  0.10463479427E+04  0.17492762584E+03  0.13715631418E+03  0.13965161926E+04  0.89777610249E+03 0.  0.
        -24    2    4    4    0    0  0.10224441649E+04  0.10042843361E+03 -0.19339706956E+03  0.10484728990E+04  0.80094024601E+02 0.  0.
         24    2    4    4    0    0  0.23903777809E+02  0.74499192232E+02  0.33055338373E+03  0.34804329363E+03  0.75809461843E+02 0.  0.
         13    1    3    3    0    0 -0.84177802286E+03 -0.12880095382E+03  0.26211273979E+03  0.89100113010E+03  0.00000000000E+00 0.  1.
        -13    1    3    3    0    0 -0.20456991982E+03 -0.46126672020E+02  0.10838730308E+03  0.23606001237E+03  0.00000000000E+00 0. -1.
          4    1    6    6  502    0  0.35702734979E+02  0.29175789709E+01  0.12664704189E+03  0.13161561751E+03  0.00000000000E+00 0. -1.
          1    1    5    5  503    0  0.77947950291E+03  0.10874972229E+03 -0.15925464424E+03  0.80297997439E+03  0.00000000000E+00 0. -1.
         -4    1    5    5    0  503  0.24296466196E+03 -0.83212886767E+01 -0.34142425313E+02  0.24549292457E+03  0.00000000000E+00 0.  1.
         -3    1    6    6    0  502 -0.11798957170E+02  0.71581613262E+02  0.20390634184E+03  0.21642767612E+03  0.00000000000E+00 0.  1.
<mgrwt>
<rscale>  0 0.24719886E+04</rscale>
<asrwt>0</asrwt>
<pdfrwt beam="1">  1        1 0.23317182E+00 0.24719886E+04</pdfrwt>
<pdfrwt beam="2">  1       -1 0.15507085E+00 0.24719886E+04</pdfrwt>
<totfact> 0.18111753E+00</totfact>
</mgrwt>
</event>
<event>
12    1  0.4612066E-007  0.2637071E+04  0.7818608E-02  0.8355717E-01
         -2   -1    0    0    0  501 -0.00000000000E+00  0.00000000000E+00  0.13275478303E+04  0.13275478303E+04  0.00000000000E+00 0.  1.
          2   -1    0    0  501    0  0.00000000000E+00 -0.00000000000E+00 -0.13095840289E+04  0.13095840289E+04  0.00000000000E+00 0. -1.
         23    2    1    2    0    0  0.31369515033E+03 -0.10126122903E+04  0.48400599313E+03  0.11688359215E+04  0.90151606643E+02 0.  0.
        254    2    1    2    0    0 -0.31369515033E+03  0.10126122903E+04 -0.46604219171E+03  0.14682959377E+04  0.90272329011E+03 0.  0.
        -24    2    4    4    0    0 -0.39454551590E+03  0.62485416202E+02 -0.27751593398E+03  0.49309825714E+03  0.80995100029E+02 0.  0.
         24    2    4    4    0    0  0.80850365566E+02  0.95012687410E+03 -0.18852625773E+03  0.97519768060E+03  0.78679780638E+02 0.  0.
         11    1    3    3    0    0  0.14752204214E+03 -0.33675256594E+03  0.15461082967E+03  0.39883524447E+03  0.00000000000E+00 0. -1.
        -11    1    3    3    0    0  0.16617310819E+03 -0.67585972437E+03  0.32939516346E+03  0.77000067703E+03  0.00000000000E+00 0.  1.
          4    1    6    6  502    0  0.13210675050E+02  0.33132797904E+03 -0.10072052924E+03  0.34655068408E+03  0.00000000000E+00 0. -1.
          1    1    5    5  503    0 -0.16588688024E+03 -0.88352942016E+01 -0.90218020032E+02  0.18903917742E+03  0.00000000000E+00 0. -1.
         -2    1    5    5    0  503 -0.22865863565E+03  0.71320710403E+02 -0.18729791395E+03  0.30405907972E+03  0.00000000000E+00 0.  1.
         -1    1    6    6    0  502  0.67639690516E+02  0.61879889507E+03 -0.87805728482E+02  0.62864699651E+03  0.00000000000E+00 0.  1.
<mgrwt>
<rscale>  0 0.26370707E+04</rscale>
<asrwt>0</asrwt>
<pdfrwt beam="1">  1        2 0.20147447E+00 0.26370707E+04</pdfrwt>
<pdfrwt beam="2">  1       -2 0.20423813E+00 0.26370707E+04</pdfrwt>
<totfact> 0.17958313E+00</totfact>
</mgrwt>
</event>
<event>
12    1  0.4612066E-007  0.2467424E+04  0.7818608E-02  0.8414684E-01
          1   -1    0    0  501    0  0.00000000000E+00  0.00000000000E+00  0.18987624438E+04  0.18987624438E+04  0.00000000000E+00 0. -1.
         -1   -1    0    0    0  501 -0.00000000000E+00 -0.00000000000E+00 -0.80159862688E+03  0.80159862688E+03  0.00000000000E+00 0.  1.
         23    2    1    2    0    0  0.16347168249E+03 -0.10419343378E+04  0.30720091575E+03  0.11023387138E+04  0.91804586199E+02 0.  0.
        254    2    1    2    0    0 -0.16347168249E+03  0.10419343378E+04  0.78996290120E+03  0.15980223569E+04  0.90403756151E+03 0.  0.
        -24    2    4    4    0    0 -0.24377176823E+03 -0.49377269915E+02  0.29298641216E+03  0.39348306036E+03  0.84410255949E+02 0.  0.
         24    2    4    4    0    0  0.80300085735E+02  0.10913116077E+04  0.49697648904E+03  0.12045392965E+04  0.80747491312E+02 0.  0.
         11    1    3    3    0    0  0.80508871011E+02 -0.76960879185E+03  0.23350469346E+03  0.80827211548E+03  0.00000000000E+00 0.  1.
        -11    1    3    3    0    0  0.82962811482E+02 -0.27232554595E+03  0.73696222292E+02  0.29406659832E+03  0.00000000000E+00 0. -1.
          4    1    6    6  502    0  0.56674654571E+02  0.91858415664E+03  0.44724996547E+03  0.10232504097E+04  0.00000000000E+00 0. -1.
          3    1    5    5  503    0 -0.21305320326E+03 -0.18419284260E+02  0.20991059838E+03  0.29965546343E+03  0.00000000000E+00 0. -1.
         -4    1    5    5    0  503 -0.30718564964E+02 -0.30957985655E+02  0.83075813784E+02  0.93827596928E+02  0.00000000000E+00 0.  1.
         -3    1    6    6    0  502  0.23625431165E+02  0.17272745108E+03  0.49726523567E+02  0.18128888686E+03  0.00000000000E+00 0.  1.
<mgrwt>
<rscale>  0 0.24674241E+04</rscale>
<asrwt>0</asrwt>
<pdfrwt beam="1">  1        1 0.29211730E+00 0.24674241E+04</pdfrwt>
<pdfrwt beam="2">  1       -1 0.12332287E+00 0.24674241E+04</pdfrwt>
<totfact> 0.17996732E+00</totfact>
</mgrwt>
</event>
<event>
12    1  0.4612066E-007  0.1249230E+04  0.7818608E-02  0.9070825E-01
         -2   -1    0    0    0  501 -0.00000000000E+00  0.00000000000E+00  0.29375865911E+03  0.29375865911E+03  0.00000000000E+00 0.  1.
          2   -1    0    0  501    0  0.00000000000E+00 -0.00000000000E+00 -0.13281097255E+04  0.13281097255E+04  0.00000000000E+00 0. -1.
         23    2    1    2    0    0  0.10026518753E+03  0.26890410366E+03 -0.33111582198E+03  0.44742266945E+03  0.90481118315E+02 0.  0.
        254    2    1    2    0    0 -0.10026518753E+03 -0.26890410366E+03 -0.70323524445E+03  0.11744457152E+04  0.89577921618E+03 0.  0.
        -24    2    4    4    0    0  0.83014804533E+02 -0.45801005804E+03 -0.60228796140E+02  0.47511343091E+03  0.73760377624E+02 0.  0.
         24    2    4    4    0    0 -0.18327999206E+03  0.18910595438E+03 -0.64300644831E+03  0.69933228430E+03  0.79093197096E+02 0.  0.
         11    1    3    3    0    0 -0.13369645235E+02  0.56689969070E+02 -0.86006782701E+02  0.10387332034E+03  0.00000000000E+00 0. -1.
        -11    1    3    3    0    0  0.11363483276E+03  0.21221413459E+03 -0.24510903928E+03  0.34354934911E+03  0.00000000000E+00 0.  1.
          2    1    6    6  502    0  0.23023847723E+01  0.29428788913E+02 -0.55632855807E+02  0.62979117473E+02  0.00000000000E+00 0. -1.
          3    1    5    5  503    0  0.72726768642E+02 -0.22655871267E+03 -0.10623205542E+02  0.23818246296E+03  0.00000000000E+00 0. -1.
         -4    1    5    5    0  503  0.10288035891E+02 -0.23145134537E+03 -0.49605590598E+02  0.23693096795E+03  0.00000000000E+00 0.  1.
         -1    1    6    6    0  502 -0.18558237683E+03  0.15967716547E+03 -0.58737359250E+03  0.63635316683E+03  0.00000000000E+00 0.  1.
<mgrwt>
<rscale>  0 0.12492297E+04</rscale>
<asrwt>0</asrwt>
<pdfrwt beam="1">  1        2 0.20432457E+00 0.12492297E+04</pdfrwt>
<pdfrwt beam="2">  1       -2 0.45193640E-01 0.12492297E+04</pdfrwt>
<totfact> 0.72670531E+01</totfact>
</mgrwt>
</event>
<event>
12    1  0.4612066E-007  0.1396786E+04  0.7818608E-02  0.8956148E-01
          1   -1    0    0  501    0  0.00000000000E+00  0.00000000000E+00  0.41170091176E+03  0.41170091176E+03  0.00000000000E+00 0. -1.
         -1   -1    0    0    0  501 -0.00000000000E+00 -0.00000000000E+00 -0.11847267083E+04  0.11847267083E+04  0.00000000000E+00 0.  1.
         23    2    1    2    0    0  0.29449682770E+03 -0.12989487693E+03  0.30628485054E+02  0.33554824625E+03  0.89741076937E+02 0.  0.
        254    2    1    2    0    0 -0.29449682770E+03  0.12989487693E+03 -0.80365428163E+03  0.12608793738E+04  0.91670907621E+03 0.  0.
        -24    2    4    4    0    0 -0.37689350039E+03  0.40255273692E+03 -0.78755639688E+03  0.96478068124E+03  0.80369571295E+02 0.  0.
         24    2    4    4    0    0  0.82396672691E+02 -0.27265785999E+03 -0.16097884744E+02  0.29609869259E+03  0.79270256559E+02 0.  0.
         13    1    3    3    0    0  0.12316454748E+03 -0.38050184320E+02 -0.29159147431E+02  0.13216496572E+03  0.00000000000E+00 0.  1.
        -13    1    3    3    0    0  0.17133228021E+03 -0.91844692610E+02  0.59787632485E+02  0.20338328054E+03  0.00000000000E+00 0. -1.
          2    1    6    6  502    0  0.97428494470E+02 -0.21462545996E+03 -0.11898390159E+02  0.23600417642E+03  0.00000000000E+00 0. -1.
          3    1    5    5  503    0 -0.31803557181E+03  0.31794808684E+03 -0.58881919395E+03  0.74090866780E+03  0.00000000000E+00 0. -1.
         -4    1    5    5    0  503 -0.58857928578E+02  0.84604650086E+02 -0.19873720294E+03  0.22387201344E+03  0.00000000000E+00 0.  1.
         -1    1    6    6    0  502 -0.15031821779E+02 -0.58032400030E+02 -0.41994945852E+01  0.60094516172E+02  0.00000000000E+00 0.  1.
<mgrwt>
<rscale>  0 0.13967864E+04</rscale>
<asrwt>0</asrwt>
<pdfrwt beam="1">  1        1 0.63338602E-01 0.13967864E+04</pdfrwt>
<pdfrwt beam="2">  1       -1 0.18226565E+00 0.13967864E+04</pdfrwt>
<totfact> 0.11285352E+01</totfact>
</mgrwt>
</event>
<event>
12    1  0.4654082E-007  0.2243420E+04  0.7818608E-02  0.8500570E-01
          2   -1    0    0  501    0  0.00000000000E+00  0.00000000000E+00  0.17359227771E+04  0.17359227771E+04  0.00000000000E+00 0. -1.
         -2   -1    0    0    0  501 -0.00000000000E+00 -0.00000000000E+00 -0.72482084270E+03  0.72482084270E+03  0.00000000000E+00 0.  1.
         23    2    1    2    0    0 -0.64165362339E+01 -0.87817038720E+03  0.73073849326E+02  0.88664850008E+03  0.97884494903E+02 0.  0.
        254    2    1    2    0    0  0.64165362339E+01  0.87817038720E+03  0.93802808504E+03  0.15740951197E+04  0.90920534347E+03 0.  0.
        -24    2    4    4    0    0  0.38649973733E+03  0.18227253447E+03  0.16912730458E+03  0.46653270520E+03  0.80270767318E+02 0.  0.
         24    2    4    4    0    0 -0.38008320110E+03  0.69589785273E+03  0.76890078045E+03  0.11075624145E+04  0.82152483818E+02 0.  0.
         13    1    3    3    0    0  0.34960397751E+02 -0.44705164038E+03  0.67824661495E+02  0.45351690518E+03  0.00000000000E+00 0. -1.
        -13    1    3    3    0    0 -0.41376933984E+02 -0.43111874682E+03  0.52491878309E+01  0.43313159490E+03  0.00000000000E+00 0.  1.
          4    1    6    6  502    0 -0.38203578833E+03  0.68468392911E+03  0.76525845612E+03  0.10956112134E+04  0.00000000000E+00 0. -1.
          3    1    5    5  503    0  0.38498498498E+03  0.17061707002E+03  0.17125207612E+03  0.45458871171E+03  0.00000000000E+00 0. -1.
         -4    1    5    5    0  503  0.15147523527E+01  0.11655464453E+02 -0.21247715411E+01  0.11943993486E+02  0.00000000000E+00 0.  1.
         -3    1    6    6    0  502  0.19525872312E+01  0.11213923619E+02  0.36423243337E+01  0.11951201043E+02  0.00000000000E+00 0.  1.
<mgrwt>
<rscale>  0 0.22434197E+04</rscale>
<asrwt>0</asrwt>
<pdfrwt beam="1">  1        2 0.26706504E+00 0.22434197E+04</pdfrwt>
<pdfrwt beam="2">  1       -2 0.11151090E+00 0.22434197E+04</pdfrwt>
<totfact> 0.54225263E+00</totfact>
</mgrwt>
</event>
<event>
12    1  0.4612066E-007  0.1170280E+04  0.7818608E-02  0.9139276E-01
          2   -1    0    0  501    0  0.00000000000E+00  0.00000000000E+00  0.44285360769E+03  0.44285360769E+03  0.00000000000E+00 0. -1.
         -2   -1    0    0    0  501 -0.00000000000E+00 -0.00000000000E+00 -0.77314156222E+03  0.77314156222E+03  0.00000000000E+00 0.  1.
         23    2    1    2    0    0 -0.14794707054E+03 -0.15350832911E+03  0.44170885848E+02  0.23492774657E+03  0.88243051650E+02 0.  0.
        254    2    1    2    0    0  0.14794707054E+03  0.15350832911E+03 -0.37445884038E+03  0.98106742334E+03  0.88137433773E+03 0.  0.
        -24    2    4    4    0    0  0.36017565290E+03  0.18073693769E+03 -0.55449586418E+03  0.69008131861E+03  0.79713369764E+02 0.  0.
         24    2    4    4    0    0 -0.21222858236E+03 -0.27228608579E+02  0.18003702380E+03  0.29098610473E+03  0.80481146305E+02 0.  0.
         13    1    3    3    0    0 -0.10300699965E+03 -0.13686800731E+03  0.64273723652E+02  0.18296011848E+03  0.00000000000E+00 0. -1.
        -13    1    3    3    0    0 -0.44940070895E+02 -0.16640321795E+02 -0.20102837805E+02  0.51967628090E+02  0.00000000000E+00 0.  1.
          2    1    6    6  502    0 -0.19043812082E+03 -0.16954208468E+02  0.11858662913E+03  0.22498202518E+03  0.00000000000E+00 0. -1.
          3    1    5    5  503    0  0.27279190153E+03  0.13943005766E+03 -0.47354808826E+03  0.56400705174E+03  0.00000000000E+00 0. -1.
         -4    1    5    5    0  503  0.87383751365E+02  0.41306880021E+02 -0.80947775919E+02  0.12607426687E+03  0.00000000000E+00 0.  1.
         -1    1    6    6    0  502 -0.21790461542E+02 -0.10274400111E+02  0.61450394672E+02  0.66004079550E+02  0.00000000000E+00 0.  1.
<mgrwt>
<rscale>  0 0.11702795E+04</rscale>
<asrwt>0</asrwt>
<pdfrwt beam="1">  1        2 0.68131325E-01 0.11702795E+04</pdfrwt>
<pdfrwt beam="2">  1       -2 0.11894486E+00 0.11702795E+04</pdfrwt>
<totfact> 0.37997561E+01</totfact>
</mgrwt>
</event>
<event>
12    1  0.4612066E-007  0.1377872E+04  0.7818608E-02  0.8969993E-01
          2   -1    0    0  501    0  0.00000000000E+00  0.00000000000E+00  0.15563913607E+04  0.15563913607E+04  0.00000000000E+00 0. -1.
         -2   -1    0    0    0  501 -0.00000000000E+00 -0.00000000000E+00 -0.30495738686E+03  0.30495738686E+03  0.00000000000E+00 0.  1.
         23    2    1    2    0    0  0.21304557935E+03 -0.14450696343E+02  0.79652723682E+03  0.83112531164E+03  0.10352006154E+03 0.  0.
        254    2    1    2    0    0 -0.21304557935E+03  0.14450696343E+02  0.45490673705E+03  0.10302234360E+04  0.89934584398E+03 0.  0.
        -24    2    4    4    0    0 -0.38488781770E+03  0.35628241852E+03  0.30697336444E+03  0.61258742838E+03  0.77168108485E+02 0.  0.
         24    2    4    4    0    0  0.17184223835E+03 -0.34183172218E+03  0.14793337261E+03  0.41763600758E+03  0.78465730905E+02 0.  0.
         11    1    3    3    0    0  0.78298717973E+02  0.27018710901E+02  0.17230038196E+03  0.19117563024E+03  0.00000000000E+00 0.  1.
        -11    1    3    3    0    0  0.13474686137E+03 -0.41469407243E+02  0.62422685486E+03  0.63994968140E+03  0.00000000000E+00 0. -1.
          2    1    6    6  502    0  0.45894601106E+02 -0.77025647115E+02  0.71300340803E+02  0.11455567783E+03  0.00000000000E+00 0. -1.
          3    1    5    5  503    0 -0.28266279121E+02  0.43868213503E+01  0.10746823553E+02  0.30556847897E+02  0.00000000000E+00 0. -1.
         -4    1    5    5    0  503 -0.35662153858E+03  0.35189559717E+03  0.29622654088E+03  0.58203058048E+03  0.00000000000E+00 0.  1.
         -1    1    6    6    0  502  0.12594763725E+03 -0.26480607507E+03  0.76633031809E+02  0.30308032975E+03  0.00000000000E+00 0.  1.
<mgrwt>
<rscale>  0 0.13778723E+04</rscale>
<asrwt>0</asrwt>
<pdfrwt beam="1">  1        2 0.23944482E+00 0.13778723E+04</pdfrwt>
<pdfrwt beam="2">  1       -2 0.46916522E-01 0.13778723E+04</pdfrwt>
<totfact> 0.49517933E+01</totfact>
</mgrwt>
</event>
<event>
12    1  0.4612066E-007  0.1132988E+04  0.7818608E-02  0.9173623E-01
          2   -1    0    0  501    0  0.00000000000E+00  0.00000000000E+00  0.27793651326E+04  0.27793651326E+04  0.00000000000E+00 0. -1.
         -2   -1    0    0    0  501 -0.00000000000E+00 -0.00000000000E+00 -0.11546354805E+03  0.11546354805E+03  0.00000000000E+00 0.  1.
         23    2    1    2    0    0  0.87392634095E+02 -0.14632065143E+03  0.24898009697E+03  0.31101897209E+03  0.75461955881E+02 0.  0.
        254    2    1    2    0    0 -0.87392634095E+02  0.14632065143E+03  0.24149214875E+04  0.25838097085E+04  0.90287297741E+03 0.  0.
        -24    2    4    4    0    0 -0.39481512618E+03 -0.16504718481E+03  0.82706515213E+03  0.93489047176E+03  0.82848483640E+02 0.  0.
         24    2    4    4    0    0  0.30742249209E+03  0.31136783624E+03  0.15878563354E+04  0.16489192368E+04  0.78666316654E+02 0.  0.
         11    1    3    3    0    0  0.42852001462E+02 -0.13262076633E+03  0.19535494694E+03  0.23997524244E+03  0.00000000000E+00 0.  1.
        -11    1    3    3    0    0  0.44540632633E+02 -0.13699885105E+02  0.53625150028E+02  0.71043729651E+02  0.00000000000E+00 0. -1.
          2    1    6    6  502    0  0.96745602065E+02  0.11753749205E+03  0.42841531637E+03  0.45465861573E+03  0.00000000000E+00 0. -1.
          1    1    5    5  503    0 -0.73599387434E+02  0.20510761280E+01  0.13036413453E+03  0.14971935184E+03  0.00000000000E+00 0. -1.
         -2    1    5    5    0  503 -0.32121573875E+03 -0.16709826094E+03  0.69670101760E+03  0.78517111992E+03  0.00000000000E+00 0.  1.
         -1    1    6    6    0  502  0.21067689002E+03  0.19383034420E+03  0.11594410190E+04  0.11942606210E+04  0.00000000000E+00 0.  1.
<mgrwt>
<rscale>  0 0.11329878E+04</rscale>
<asrwt>0</asrwt>
<pdfrwt beam="1">  1        2 0.42759459E+00 0.11329878E+04</pdfrwt>
<pdfrwt beam="2">  1       -2 0.17763625E-01 0.11329878E+04</pdfrwt>
<totfact> 0.62785468E+01</totfact>
</mgrwt>
</event>
<event>
12    1  0.4612066E-007  0.1067606E+04  0.7818608E-02  0.9237354E-01
         -1   -1    0    0    0  501 -0.00000000000E+00  0.00000000000E+00  0.19210278852E+03  0.19210278852E+03  0.00000000000E+00 0.  1.
          1   -1    0    0  501    0  0.00000000000E+00 -0.00000000000E+00 -0.14832969490E+04  0.14832969490E+04  0.00000000000E+00 0. -1.
         23    2    1    2    0    0  0.45190340147E+02  0.26528917257E+02 -0.18486735649E+02  0.10589651787E+03  0.90146341070E+02 0.  0.
        254    2    1    2    0    0 -0.45190340147E+02 -0.26528917257E+02 -0.12727074249E+04  0.15695032197E+04  0.91695704207E+03 0.  0.
        -24    2    4    4    0    0 -0.37830706239E+03  0.22059283545E+03 -0.90846625442E+03  0.10116313615E+04  0.79433265105E+02 0.  0.
         24    2    4    4    0    0  0.33311672225E+03 -0.24712175271E+03 -0.36424117045E+03  0.55787185821E+03  0.80706063138E+02 0.  0.
         11    1    3    3    0    0  0.42797212945E+02  0.31329268383E+02  0.27399361713E+02  0.59697985858E+02  0.00000000000E+00 0.  1.
        -11    1    3    3    0    0  0.23931272023E+01 -0.48003511266E+01 -0.45886097362E+02  0.46198532010E+02  0.00000000000E+00 0. -1.
          4    1    6    6  502    0  0.26210717745E+03 -0.20370531355E+03 -0.24554459224E+03  0.41290213613E+03  0.00000000000E+00 0. -1.
          3    1    5    5  503    0 -0.21672515201E+03  0.10798357732E+03 -0.41750326545E+03  0.48263777427E+03  0.00000000000E+00 0. -1.
         -4    1    5    5    0  503 -0.16158191038E+03  0.11260925813E+03 -0.49096298896E+03  0.52899358721E+03  0.00000000000E+00 0.  1.
         -3    1    6    6    0  502  0.71009544793E+02 -0.43416439160E+02 -0.11869657821E+03  0.14496972208E+03  0.00000000000E+00 0.  1.
<mgrwt>
<rscale>  0 0.10676057E+04</rscale>
<asrwt>0</asrwt>
<pdfrwt beam="1">  1        1 0.22819952E+00 0.10676057E+04</pdfrwt>
<pdfrwt beam="2">  1       -1 0.29554276E-01 0.10676057E+04</pdfrwt>
<totfact> 0.70261119E+01</totfact>
</mgrwt>
</event>
<event>
12    1  0.4612066E-007  0.2248616E+04  0.7818608E-02  0.8498461E-01
          2   -1    0    0  501    0  0.00000000000E+00  0.00000000000E+00  0.13461241549E+04  0.13461241549E+04  0.00000000000E+00 0. -1.
         -2   -1    0    0    0  501 -0.00000000000E+00 -0.00000000000E+00 -0.93904294449E+03  0.93904294449E+03  0.00000000000E+00 0.  1.
         23    2    1    2    0    0 -0.53892902754E+03 -0.76769940250E+03  0.31080801712E+03  0.99248386416E+03  0.92820944814E+02 0.  0.
        254    2    1    2    0    0  0.53892902754E+03  0.76769940250E+03  0.96273193339E+02  0.12926832353E+04  0.88428194015E+03 0.  0.
        -24    2    4    4    0    0  0.39386890377E+03 -0.84928687111E+02  0.10150666691E+03  0.42346665545E+03  0.81699507972E+02 0.  0.
         24    2    4    4    0    0  0.14506012377E+03  0.85262808961E+03 -0.52334735690E+01  0.86921657982E+03  0.86561970222E+02 0.  0.
         11    1    3    3    0    0 -0.19175235973E+03 -0.21006927989E+03  0.70495682861E+02  0.29303192850E+03  0.00000000000E+00 0.  1.
        -11    1    3    3    0    0 -0.34717666780E+03 -0.55763012260E+03  0.24031233426E+03  0.69945193566E+03  0.00000000000E+00 0. -1.
          4    1    6    6  502    0  0.88386316802E+02  0.33006396823E+03 -0.29979491171E+02  0.34300602620E+03  0.00000000000E+00 0. -1.
          1    1    5    5  503    0  0.29211915747E+03 -0.83033800194E+02  0.10584324110E+03  0.32160691197E+03  0.00000000000E+00 0. -1.
         -2    1    5    5    0  503  0.10174974629E+03 -0.18948869173E+01 -0.43365741904E+01  0.10185974349E+03  0.00000000000E+00 0.  1.
         -3    1    6    6    0  502  0.56673806969E+02  0.52256412138E+03  0.24746017602E+02  0.52621055361E+03  0.00000000000E+00 0.  1.
<mgrwt>
<rscale>  0 0.22486159E+04</rscale>
<asrwt>0</asrwt>
<pdfrwt beam="1">  1        2 0.20709602E+00 0.22486159E+04</pdfrwt>
<pdfrwt beam="2">  1       -2 0.14446815E+00 0.22486159E+04</pdfrwt>
<totfact> 0.46822186E+00</totfact>
</mgrwt>
</event>
<event>
12    1  0.4612066E-007  0.1366124E+04  0.7818608E-02  0.8978712E-01
         -2   -1    0    0    0  501 -0.00000000000E+00  0.00000000000E+00  0.19792016661E+03  0.19792016661E+03  0.00000000000E+00 0.  1.
          2   -1    0    0  501    0  0.00000000000E+00 -0.00000000000E+00 -0.23573821880E+04  0.23573821880E+04  0.00000000000E+00 0. -1.
         23    2    1    2    0    0  0.17817089997E+03 -0.12387121671E+03 -0.21258455767E+01  0.23433548693E+03  0.88428803501E+02 0.  0.
        254    2    1    2    0    0 -0.17817089997E+03  0.12387121671E+03 -0.21573361758E+04  0.23209668676E+04  0.82806936755E+03 0.  0.
        -24    2    4    4    0    0 -0.18215500569E+03  0.45647563734E+03 -0.10405107473E+04  0.11534825807E+04  0.79429183000E+02 0.  0.
         24    2    4    4    0    0  0.39841057189E+01 -0.33260442063E+03 -0.11168254285E+04  0.11674842869E+04  0.71266744660E+02 0.  0.
         13    1    3    3    0    0  0.18831722579E+03 -0.12075293241E+03 -0.17260221062E+01  0.22371327043E+03  0.00000000000E+00 0.  1.
        -13    1    3    3    0    0 -0.10146325816E+02 -0.31182843033E+01 -0.39982347050E+00  0.10622216500E+02  0.00000000000E+00 0. -1.
          4    1    6    6  502    0 -0.10192367077E+02 -0.13929535191E+02 -0.10967304687E+03  0.11102294135E+03  0.00000000000E+00 0. -1.
          3    1    5    5  503    0 -0.54777004179E+02  0.60035576730E+02 -0.18176544470E+03  0.19910667379E+03  0.00000000000E+00 0. -1.
         -4    1    5    5    0  503 -0.12737800151E+03  0.39644006061E+03 -0.85874530262E+03  0.95437590691E+03  0.00000000000E+00 0.  1.
         -3    1    6    6    0  502  0.14176472796E+02 -0.31867488544E+03 -0.10071523816E+04  0.10564613456E+04  0.00000000000E+00 0.  1.
<mgrwt>
<rscale>  0 0.13661237E+04</rscale>
<asrwt>0</asrwt>
<pdfrwt beam="1">  1        2 0.36267418E+00 0.13661237E+04</pdfrwt>
<pdfrwt beam="2">  1       -2 0.30449257E-01 0.13661237E+04</pdfrwt>
<totfact> 0.41033363E+01</totfact>
</mgrwt>
</event>
<event>
12    1  0.4612066E-007  0.1709792E+04  0.7818608E-02  0.8755799E-01
         -2   -1    0    0    0  501 -0.00000000000E+00  0.00000000000E+00  0.80881154828E+03  0.80881154828E+03  0.00000000000E+00 0.  1.
          2   -1    0    0  501    0  0.00000000000E+00 -0.00000000000E+00 -0.90360662959E+03  0.90360662959E+03  0.00000000000E+00 0. -1.
         23    2    1    2    0    0 -0.25163308432E+03  0.38718856567E+02  0.51738417487E+03  0.58335765247E+03  0.88325575628E+02 0.  0.
        254    2    1    2    0    0  0.25163308432E+03 -0.38718856567E+02 -0.61217925618E+03  0.11290605254E+04  0.91389051278E+03 0.  0.
        -24    2    4    4    0    0 -0.29695317385E+03 -0.10088300648E+03 -0.43625921521E+03  0.54397874654E+03  0.85042374014E+02 0.  0.
         24    2    4    4    0    0  0.54858625817E+03  0.62164149910E+02 -0.17592004096E+03  0.58508177885E+03  0.81003474913E+02 0.  0.
         11    1    3    3    0    0 -0.45603268775E+02  0.42635981334E+02  0.10024142662E+03  0.11809245800E+03  0.00000000000E+00 0. -1.
        -11    1    3    3    0    0 -0.20602981554E+03 -0.39171247676E+01  0.41714274826E+03  0.46526519447E+03  0.00000000000E+00 0.  1.
          4    1    6    6  502    0  0.57416584591E+02  0.55162277183E+01 -0.46254356473E+02  0.73936178202E+02  0.00000000000E+00 0. -1.
          3    1    5    5  503    0 -0.21332343551E+02 -0.50696300362E+01 -0.82694492152E+02  0.85552025472E+02  0.00000000000E+00 0. -1.
         -4    1    5    5    0  503 -0.27562083030E+03 -0.95813376440E+02 -0.35356472306E+03  0.45842672107E+03  0.00000000000E+00 0.  1.
         -3    1    6    6    0  502  0.49116967358E+03  0.56647922191E+02 -0.12966568449E+03  0.51114560065E+03  0.00000000000E+00 0.  1.
<mgrwt>
<rscale>  0 0.17097924E+04</rscale>
<asrwt>0</asrwt>
<pdfrwt beam="1">  1        2 0.13901640E+00 0.17097924E+04</pdfrwt>
<pdfrwt beam="2">  1       -2 0.12443255E+00 0.17097924E+04</pdfrwt>
<totfact> 0.13445043E+01</totfact>
</mgrwt>
</event>
<event>
12    1  0.4612066E-007  0.2154490E+04  0.7818608E-02  0.8537613E-01
          2   -1    0    0  501    0  0.00000000000E+00  0.00000000000E+00  0.33204674651E+04  0.33204674651E+04  0.00000000000E+00 0. -1.
         -2   -1    0    0    0  501 -0.00000000000E+00 -0.00000000000E+00 -0.34948611305E+03  0.34948611305E+03  0.00000000000E+00 0.  1.
         23    2    1    2    0    0 -0.24824380026E+01  0.13247816119E+03  0.27210863650E+04  0.27254563215E+04  0.79022331554E+02 0.  0.
        254    2    1    2    0    0  0.24824380026E+01 -0.13247816119E+03  0.24989498708E+03  0.94449725669E+03  0.90114978645E+03 0.  0.
        -24    2    4    4    0    0  0.33455769898E+03 -0.10361680597E+03 -0.17405596123E+03  0.39929130463E+03  0.80453538671E+02 0.  0.
         24    2    4    4    0    0 -0.33207526097E+03 -0.28861355214E+02  0.42395094831E+03  0.54520595206E+03  0.80051026285E+02 0.  0.
         13    1    3    3    0    0 -0.32186134171E+02  0.23900494045E+02  0.55424729540E+03  0.55569528098E+03  0.00000000000E+00 0. -1.
        -13    1    3    3    0    0  0.29703696168E+02  0.10857766714E+03  0.21668390696E+04  0.21697610405E+04  0.00000000000E+00 0.  1.
          2    1    6    6  502    0 -0.13524523630E+03  0.27436985187E+02  0.17655451584E+03  0.22408828430E+03  0.00000000000E+00 0. -1.
          3    1    5    5  503    0  0.88796193294E+02 -0.65597051005E+02 -0.60768666958E+02  0.12601812539E+03  0.00000000000E+00 0. -1.
         -4    1    5    5    0  503  0.24576150568E+03 -0.38019754968E+02 -0.11328729427E+03  0.27327317923E+03  0.00000000000E+00 0.  1.
         -1    1    6    6    0  502 -0.19683002468E+03 -0.56298340401E+02  0.24739643247E+03  0.32111766776E+03  0.00000000000E+00 0.  1.
<mgrwt>
<rscale>  0 0.21544904E+04</rscale>
<asrwt>0</asrwt>
<pdfrwt beam="1">  1        2 0.51084113E+00 0.21544904E+04</pdfrwt>
<pdfrwt beam="2">  1       -2 0.53767097E-01 0.21544904E+04</pdfrwt>
<totfact> 0.32363372E+00</totfact>
</mgrwt>
</event>
<event>
12    1  0.4612066E-007  0.1588047E+04  0.7818608E-02  0.8827925E-01
         -2   -1    0    0    0  501 -0.00000000000E+00  0.00000000000E+00  0.51940161233E+03  0.51940161233E+03  0.00000000000E+00 0.  1.
          2   -1    0    0  501    0  0.00000000000E+00 -0.00000000000E+00 -0.12138457447E+04  0.12138457447E+04  0.00000000000E+00 0. -1.
         23    2    1    2    0    0 -0.41215385126E+03  0.27978613330E+02  0.13526953393E+03  0.44622872195E+03  0.10083960320E+03 0.  0.
        254    2    1    2    0    0  0.41215385126E+03 -0.27978613330E+02 -0.82971366625E+03  0.12870186350E+04  0.89293818322E+03 0.  0.
        -24    2    4    4    0    0  0.22853226114E+03 -0.45275033408E+03 -0.39710774451E+03  0.64898092424E+03  0.79194822408E+02 0.  0.
         24    2    4    4    0    0  0.18362159012E+03  0.42477172074E+03 -0.43260592174E+03  0.63803771079E+03  0.76133657238E+02 0.  0.
         11    1    3    3    0    0 -0.38336611477E+03  0.53011638494E+02  0.12540336063E+03  0.40682405857E+03  0.00000000000E+00 0.  1.
        -11    1    3    3    0    0 -0.28787736486E+02 -0.25033025164E+02  0.98661733002E+01  0.39404663384E+02  0.00000000000E+00 0. -1.
          2    1    6    6  502    0  0.49717634098E+01  0.48715163213E+02 -0.72988742888E+02  0.87893356669E+02  0.00000000000E+00 0. -1.
          1    1    5    5  503    0  0.27063359723E+02 -0.11485871959E+03 -0.68855891643E+02  0.13662388049E+03  0.00000000000E+00 0. -1.
         -2    1    5    5    0  503  0.20146890141E+03 -0.33789161449E+03 -0.32825185287E+03  0.51235704376E+03  0.00000000000E+00 0.  1.
         -1    1    6    6    0  502  0.17864982671E+03  0.37605655753E+03 -0.35961717885E+03  0.55014435412E+03  0.00000000000E+00 0.  1.
<mgrwt>
<rscale>  0 0.15880471E+04</rscale>
<asrwt>0</asrwt>
<pdfrwt beam="1">  1        2 0.18674550E+00 0.15880471E+04</pdfrwt>
<pdfrwt beam="2">  1       -2 0.79907940E-01 0.15880471E+04</pdfrwt>
<totfact> 0.24722470E+01</totfact>
</mgrwt>
</event>
<event>
12    1  0.4612066E-007  0.2844845E+04  0.7818608E-02  0.8289480E-01
          3   -1    0    0  501    0  0.00000000000E+00  0.00000000000E+00  0.24835463181E+04  0.24835463181E+04  0.00000000000E+00 0. -1.
         -3   -1    0    0    0  501 -0.00000000000E+00 -0.00000000000E+00 -0.81467583986E+03  0.81467583986E+03  0.00000000000E+00 0.  1.
         23    2    1    2    0    0  0.59258461983E+02  0.12596981542E+04  0.51934658225E+03  0.13672410537E+04  0.96313142623E+02 0.  0.
        254    2    1    2    0    0 -0.59258461983E+02 -0.12596981542E+04  0.11495238960E+04  0.19309811043E+04  0.90384281422E+03 0.  0.
        -24    2    4    4    0    0 -0.39115110377E+03 -0.60665949824E+03  0.24935668846E+03  0.76763523477E+03  0.77782792444E+02 0.  0.
         24    2    4    4    0    0  0.33189264179E+03 -0.65303865592E+03  0.90016720756E+03  0.11633458695E+04  0.80376606275E+02 0.  0.
         13    1    3    3    0    0  0.66855169992E+02  0.10279944389E+04  0.45829297384E+03  0.11275081507E+04  0.00000000000E+00 0. -1.
        -13    1    3    3    0    0 -0.75967080088E+01  0.23170371527E+03  0.61053608413E+02  0.23973290292E+03  0.00000000000E+00 0.  1.
          4    1    6    6  502    0  0.33646866213E+03 -0.64721153669E+03  0.89271343313E+03  0.11528361581E+04  0.00000000000E+00 0. -1.
          3    1    5    5  503    0 -0.38503253659E+03 -0.60134597409E+03  0.23604957639E+03  0.75205481004E+03  0.00000000000E+00 0. -1.
         -4    1    5    5    0  503 -0.61185671764E+01 -0.53135241453E+01  0.13307112069E+02  0.15580424729E+02  0.00000000000E+00 0.  1.
         -3    1    6    6    0  502 -0.45760203444E+01 -0.58271192286E+01  0.74537744313E+01  0.10509711412E+02  0.00000000000E+00 0.  1.
<mgrwt>
<rscale>  0 0.28448446E+04</rscale>
<asrwt>0</asrwt>
<pdfrwt beam="1">  1        3 0.38208405E+00 0.28448446E+04</pdfrwt>
<pdfrwt beam="2">  1       -3 0.12533475E+00 0.28448446E+04</pdfrwt>
<totfact> 0.15866215E-02</totfact>
</mgrwt>
</event>
<event>
12    1  0.4612066E-007  0.1654346E+04  0.7818608E-02  0.8787839E-01
          1   -1    0    0  501    0  0.00000000000E+00  0.00000000000E+00  0.10643651027E+04  0.10643651027E+04  0.00000000000E+00 0. -1.
         -1   -1    0    0    0  501 -0.00000000000E+00 -0.00000000000E+00 -0.64283904443E+03  0.64283904443E+03  0.00000000000E+00 0.  1.
         23    2    1    2    0    0  0.37220317773E+03  0.41223237517E+03  0.28079491274E+03  0.62909504567E+03  0.91891549238E+02 0.  0.
        254    2    1    2    0    0 -0.37220317773E+03 -0.41223237517E+03  0.14073114558E+03  0.10781091015E+04  0.91325967980E+03 0.  0.
        -24    2    4    4    0    0 -0.20302204621E+03 -0.68955694246E+03  0.25119361945E+02  0.72368583165E+03  0.79896635990E+02 0.  0.
         24    2    4    4    0    0 -0.16918113152E+03  0.27732456730E+03  0.11561178363E+03  0.35442326985E+03  0.81967059261E+02 0.  0.
         13    1    3    3    0    0  0.12762021129E+03  0.13299858924E+03  0.46379189197E+02  0.19006991414E+03  0.00000000000E+00 0.  1.
        -13    1    3    3    0    0  0.24458296645E+03  0.27923378592E+03  0.23441572355E+03  0.43902513154E+03  0.00000000000E+00 0. -1.
          2    1    6    6  502    0 -0.17700274286E+03  0.25202353935E+03  0.11196009869E+03  0.32769024865E+03  0.00000000000E+00 0. -1.
          1    1    5    5  503    0 -0.85818937683E+02 -0.35521055063E+03 -0.22927509884E+02  0.36614900800E+03  0.00000000000E+00 0. -1.
         -2    1    5    5    0  503 -0.11720310853E+03 -0.33434639183E+03  0.48046871829E+02  0.35753682366E+03  0.00000000000E+00 0.  1.
         -1    1    6    6    0  502  0.78216113343E+01  0.25301027949E+02  0.36516849441E+01  0.26733021192E+02  0.00000000000E+00 0.  1.
<mgrwt>
<rscale>  0 0.16543463E+04</rscale>
<asrwt>0</asrwt>
<pdfrwt beam="1">  1        1 0.16374848E+00 0.16543463E+04</pdfrwt>
<pdfrwt beam="2">  1       -1 0.98898315E-01 0.16543463E+04</pdfrwt>
<totfact> 0.12602356E+01</totfact>
</mgrwt>
</event>
<event>
12    1  0.4612066E-007  0.2993274E+04  0.7818608E-02  0.8245654E-01
          2   -1    0    0  501    0  0.00000000000E+00  0.00000000000E+00  0.17839538449E+04  0.17839538449E+04  0.00000000000E+00 0.  1.
         -2   -1    0    0    0  501 -0.00000000000E+00 -0.00000000000E+00 -0.12555939225E+04  0.12555939225E+04  0.00000000000E+00 0. -1.
         23    2    1    2    0    0 -0.47290021323E+03  0.38833520790E+03 -0.99733944019E+03  0.11735948070E+04  0.90553668112E+02 0.  0.
        254    2    1    2    0    0  0.47290021323E+03 -0.38833520790E+03  0.15256993626E+04  0.18659529603E+04  0.88294000906E+03 0.  0.
        -24    2    4    4    0    0 -0.20268833650E+03 -0.85403340716E+02  0.76787151356E+03  0.80280544574E+03  0.80583062775E+02 0.  0.
         24    2    4    4    0    0  0.67558854973E+03 -0.30293186718E+03  0.75782784902E+03  0.10631475145E+04  0.88272216644E+02 0.  0.
         11    1    3    3    0    0 -0.27379851563E+03  0.21650889816E+03 -0.48313470559E+03  0.59603764469E+03  0.00000000000E+00 0.  1.
        -11    1    3    3    0    0 -0.19910169760E+03  0.17182630973E+03 -0.51420473461E+03  0.57755716236E+03  0.00000000000E+00 0. -1.
          2    1    6    6  502    0  0.55785906627E+02 -0.48257651527E+02  0.54490747151E+02  0.91706650981E+02  0.00000000000E+00 0. -1.
          3    1    5    5  503    0 -0.33030817024E+02  0.15138778403E+02  0.98545820095E+02  0.10503092946E+03  0.00000000000E+00 0. -1.
         -4    1    5    5    0  503 -0.16965751947E+03 -0.10054211912E+03  0.66932569347E+03  0.69777451628E+03  0.00000000000E+00 0.  1.
         -1    1    6    6    0  502  0.61980264310E+03 -0.25467421565E+03  0.70333710187E+03  0.97144086355E+03  0.00000000000E+00 0.  1.
<mgrwt>
<rscale>  0 0.29932735E+04</rscale>
<asrwt>0</asrwt>
<pdfrwt beam="1">  1        2 0.27445444E+00 0.29932735E+04</pdfrwt>
<pdfrwt beam="2">  1       -2 0.19316830E+00 0.29932735E+04</pdfrwt>
<totfact> 0.11136567E+00</totfact>
</mgrwt>
</event>
<event>
12    1  0.4612066E-007  0.2053070E+04  0.7818608E-02  0.8582203E-01
          2   -1    0    0  501    0  0.00000000000E+00  0.00000000000E+00  0.99749796370E+03  0.99749796370E+03  0.00000000000E+00 0. -1.
         -2   -1    0    0    0  501 -0.00000000000E+00 -0.00000000000E+00 -0.10564172815E+04  0.10564172815E+04  0.00000000000E+00 0.  1.
         23    2    1    2    0    0 -0.75686604901E+03 -0.21416629382E+03 -0.29772321951E+03  0.84477338327E+03  0.79306595597E+02 0.  0.
        254    2    1    2    0    0  0.75686604901E+03  0.21416629382E+03  0.23880390168E+03  0.12091418620E+04  0.88672618171E+03 0.  0.
        -24    2    4    4    0    0  0.58773992393E+03  0.20011582248E+03 -0.25863092339E+03  0.67752637332E+03  0.81654586012E+02 0.  0.
         24    2    4    4    0    0  0.16912612508E+03  0.14050471345E+02  0.49743482507E+03  0.53161548864E+03  0.79828319773E+02 0.  0.
         11    1    3    3    0    0 -0.44975641397E+02 -0.72743975772E+01 -0.37746665604E+02  0.59165327206E+02  0.00000000000E+00 0. -1.
        -11    1    3    3    0    0 -0.71189040761E+03 -0.20689189625E+03 -0.25997655390E+03  0.78560805607E+03  0.00000000000E+00 0.  1.
          2    1    6    6  502    0  0.48333400539E+02  0.34834325265E+02  0.22723755229E+03  0.23491797078E+03  0.00000000000E+00 0. -1.
          3    1    5    5  503    0  0.47214813333E+03  0.13444687011E+03 -0.22706774264E+03  0.54088777064E+03  0.00000000000E+00 0. -1.
         -4    1    5    5    0  503  0.11559179060E+03  0.65668952374E+02 -0.31563180748E+02  0.13663860267E+03  0.00000000000E+00 0.  1.
         -1    1    6    6    0  502  0.12079272454E+03 -0.20783853920E+02  0.27019727278E+03  0.29669751786E+03  0.00000000000E+00 0.  1.
<mgrwt>
<rscale>  0 0.20530700E+04</rscale>
<asrwt>0</asrwt>
<pdfrwt beam="1">  1        2 0.15346122E+00 0.20530700E+04</pdfrwt>
<pdfrwt beam="2">  1       -2 0.16252574E+00 0.20530700E+04</pdfrwt>
<totfact> 0.56433779E+00</totfact>
</mgrwt>
</event>
<event>
12    1  0.4612066E-007  0.1715660E+04  0.7818608E-02  0.8752483E-01
          2   -1    0    0  501    0  0.00000000000E+00  0.00000000000E+00  0.19406674521E+04  0.19406674521E+04  0.00000000000E+00 0. -1.
         -2   -1    0    0    0  501 -0.00000000000E+00 -0.00000000000E+00 -0.37918525906E+03  0.37918525906E+03  0.00000000000E+00 0.  1.
         23    2    1    2    0    0 -0.56460771887E+03  0.21995721884E+03  0.40960183433E+03  0.73712835227E+03  0.91768680413E+02 0.  0.
        254    2    1    2    0    0  0.56460771887E+03 -0.21995721884E+03  0.11518803587E+04  0.15827243589E+04  0.90056925391E+03 0.  0.
        -24    2    4    4    0    0  0.59271525197E+03 -0.38257037405E+03  0.11985735157E+04  0.13935806745E+04  0.88414719889E+02 0.  0.
         24    2    4    4    0    0 -0.28107533101E+02  0.16261315521E+03 -0.46693157043E+02  0.18914368437E+03  0.79762213844E+02 0.  0.
         11    1    3    3    0    0 -0.18797618988E+03  0.32717103405E+02  0.10477332063E+03  0.21767614829E+03  0.00000000000E+00 0.  1.
        -11    1    3    3    0    0 -0.37663152899E+03  0.18724011543E+03  0.30482851370E+03  0.51945220398E+03  0.00000000000E+00 0. -1.
          4    1    6    6  502    0  0.21171319554E+02  0.81515489714E+02 -0.42050691037E+02  0.94134268211E+02  0.00000000000E+00 0. -1.
          1    1    5    5  503    0  0.57509811597E+03 -0.38335736579E+03  0.11477833823E+04  0.13398161835E+04  0.00000000000E+00 0. -1.
         -2    1    5    5    0  503  0.17617135999E+02  0.78699174485E+00  0.50790133471E+02  0.53764491022E+02  0.00000000000E+00 0.  1.
         -3    1    6    6    0  502 -0.49278852655E+02  0.81097665500E+02 -0.46424660058E+01  0.95009416160E+02  0.00000000000E+00 0.  1.
<mgrwt>
<rscale>  0 0.17156602E+04</rscale>
<asrwt>0</asrwt>
<pdfrwt beam="1">  1        2 0.29856422E+00 0.17156602E+04</pdfrwt>
<pdfrwt beam="2">  1       -2 0.58336195E-01 0.17156602E+04</pdfrwt>
<totfact> 0.18829087E+01</totfact>
</mgrwt>
</event>
<event>
12    1  0.4612066E-007  0.1614820E+04  0.7818608E-02  0.8811495E-01
         -1   -1    0    0    0  501 -0.00000000000E+00  0.00000000000E+00  0.34702338645E+03  0.34702338645E+03  0.00000000000E+00 0.  1.
          1   -1    0    0  501    0  0.00000000000E+00 -0.00000000000E+00 -0.18785791466E+04  0.18785791466E+04  0.00000000000E+00 0. -1.
         23    2    1    2    0    0 -0.41022129719E+03  0.31424501001E+03 -0.25951639733E+03  0.58547725446E+03  0.91670147929E+02 0.  0.
        254    2    1    2    0    0  0.41022129719E+03 -0.31424501001E+03 -0.12720393628E+04  0.16401252786E+04  0.89715960112E+03 0.  0.
        -24    2    4    4    0    0  0.32357957594E+03  0.15488929455E+03 -0.10419730135E+04  0.11046368625E+04  0.76291556999E+02 0.  0.
         24    2    4    4    0    0  0.86641721250E+02 -0.46913430455E+03 -0.23006634930E+03  0.53548841603E+03  0.78889384921E+02 0.  0.
         13    1    3    3    0    0 -0.52718168001E+02  0.28896155680E+02 -0.64641627285E+02  0.88276457951E+02  0.00000000000E+00 0. -1.
        -13    1    3    3    0    0 -0.35750312919E+03  0.28534885433E+03 -0.19487477004E+03  0.49720079651E+03  0.00000000000E+00 0.  1.
          2    1    6    6  502    0  0.25937296650E+02 -0.33823658563E+03 -0.15875725605E+03  0.37454051525E+03  0.00000000000E+00 0. -1.
          3    1    5    5  503    0  0.31384120519E+03  0.14401444635E+03 -0.93600693934E+03  0.99767001224E+03  0.00000000000E+00 0. -1.
         -4    1    5    5    0  503  0.97383707528E+01  0.10874848196E+02 -0.10596607416E+03  0.10696685029E+03  0.00000000000E+00 0.  1.
         -1    1    6    6    0  502  0.60704424600E+02 -0.13089771892E+03 -0.71309093250E+02  0.16094790078E+03  0.00000000000E+00 0.  1.
<mgrwt>
<rscale>  0 0.16148200E+04</rscale>
<asrwt>0</asrwt>
<pdfrwt beam="1">  1        1 0.28901217E+00 0.16148200E+04</pdfrwt>
<pdfrwt beam="2">  1       -1 0.53388214E-01 0.16148200E+04</pdfrwt>
<totfact> 0.12222698E+01</totfact>
</mgrwt>
</event>
<event>
12    1  0.4612066E-007  0.2255499E+04  0.7818608E-02  0.8495677E-01
         -1   -1    0    0    0  501 -0.00000000000E+00  0.00000000000E+00  0.72635755390E+03  0.72635755390E+03  0.00000000000E+00 0.  1.
          1   -1    0    0  501    0  0.00000000000E+00 -0.00000000000E+00 -0.17509545869E+04  0.17509545869E+04  0.00000000000E+00 0. -1.
         23    2    1    2    0    0  0.86532754291E+03 -0.45313664788E+01 -0.41757406147E+02  0.87144101783E+03  0.94092915728E+02 0.  0.
        254    2    1    2    0    0 -0.86532754291E+03  0.45313664788E+01 -0.98283962683E+03  0.16058711229E+04  0.92953539020E+03 0.  0.
        -24    2    4    4    0    0 -0.52905761569E+03 -0.12599121839E+03 -0.10904245899E+04  0.12209492008E+04  0.76911747080E+02 0.  0.
         24    2    4    4    0    0 -0.33626992721E+03  0.13052258487E+03  0.10758496309E+03  0.38492192212E+03  0.80478274950E+02 0.  0.
         13    1    3    3    0    0  0.64212881595E+03 -0.61302354434E+01 -0.72061802863E+02  0.64618874913E+03  0.00000000000E+00 0. -1.
        -13    1    3    3    0    0  0.22319872695E+03  0.15988689646E+01  0.30304396715E+02  0.22525226870E+03  0.00000000000E+00 0.  1.
          2    1    6    6  502    0 -0.28281285356E+03  0.10047240859E+03  0.11842135480E+03  0.32264753571E+03  0.00000000000E+00 0. -1.
          3    1    5    5  503    0 -0.35909632641E+03 -0.11124447683E+03 -0.80441515037E+03  0.88792411805E+03  0.00000000000E+00 0. -1.
         -4    1    5    5    0  503 -0.16996128928E+03 -0.14746741562E+02 -0.28600943955E+03  0.33302508277E+03  0.00000000000E+00 0.  1.
         -1    1    6    6    0  502 -0.53457073656E+02  0.30050176284E+02 -0.10836391708E+02  0.62274386418E+02  0.00000000000E+00 0.  1.
<mgrwt>
<rscale>  0 0.22554991E+04</rscale>
<asrwt>0</asrwt>
<pdfrwt beam="1">  1        1 0.26937763E+00 0.22554991E+04</pdfrwt>
<pdfrwt beam="2">  1       -1 0.11174732E+00 0.22554991E+04</pdfrwt>
<totfact> 0.29343571E+00</totfact>
</mgrwt>
</event>
<event>
12    1  0.4612066E-007  0.2726662E+04  0.7818608E-02  0.8326406E-01
          2   -1    0    0  501    0  0.00000000000E+00  0.00000000000E+00  0.22793319760E+04  0.22793319760E+04  0.00000000000E+00 0. -1.
         -2   -1    0    0    0  501 -0.00000000000E+00 -0.00000000000E+00 -0.81544570469E+03  0.81544570469E+03  0.00000000000E+00 0.  1.
         23    2    1    2    0    0 -0.30792484653E+03  0.41321717527E+03 -0.59075747969E+03  0.78970182323E+03  0.95228277095E+02 0.  0.
        254    2    1    2    0    0  0.30792484653E+03 -0.41321717527E+03  0.20546437510E+04  0.23050758574E+04  0.90898163901E+03 0.  0.
        -24    2    4    4    0    0 -0.12839666482E+03  0.16912703721E+03  0.17068175208E+03  0.28396831959E+03  0.80100485538E+02 0.  0.
         24    2    4    4    0    0  0.43632151135E+03 -0.58234421248E+03  0.18839619989E+04  0.20211075379E+04  0.77856426812E+02 0.  0.
         13    1    3    3    0    0 -0.78668840041E+02  0.52698353491E+02 -0.81218738008E+02  0.12474929362E+03  0.00000000000E+00 0. -1.
        -13    1    3    3    0    0 -0.22925600649E+03  0.36051882178E+03 -0.50953874168E+03  0.66495252962E+03  0.00000000000E+00 0.  1.
          2    1    6    6  502    0  0.36949453441E+03 -0.44580265167E+03  0.14530932288E+04  0.15642078336E+04  0.00000000000E+00 0. -1.
          3    1    5    5  503    0 -0.29545265268E+01  0.35729071961E+01  0.36260654682E+02  0.36555847286E+02  0.00000000000E+00 0. -1.
         -4    1    5    5    0  503 -0.12544213829E+03  0.16555413001E+03  0.13442109740E+03  0.24741247230E+03  0.00000000000E+00 0.  1.
         -1    1    6    6    0  502  0.66826976934E+02 -0.13654156081E+03  0.43086877009E+03  0.45689970421E+03  0.00000000000E+00 0.  1.
<mgrwt>
<rscale>  0 0.27266620E+04</rscale>
<asrwt>0</asrwt>
<pdfrwt beam="1">  1        2 0.35066646E+00 0.27266620E+04</pdfrwt>
<pdfrwt beam="2">  1       -2 0.12545319E+00 0.27266620E+04</pdfrwt>
<totfact> 0.19370404E+00</totfact>
</mgrwt>
</event>
<event>
12    1  0.4612066E-007  0.1740894E+04  0.7818608E-02  0.8738379E-01
          1   -1    0    0  501    0  0.00000000000E+00  0.00000000000E+00  0.55281880823E+03  0.55281880823E+03  0.00000000000E+00 0. -1.
         -1   -1    0    0    0  501 -0.00000000000E+00 -0.00000000000E+00 -0.13705723085E+04  0.13705723085E+04  0.00000000000E+00 0.  1.
         23    2    1    2    0    0  0.62057876131E+02  0.29991151007E+03  0.31063509778E+03  0.44577910310E+03  0.91797336179E+02 0.  0.
        254    2    1    2    0    0 -0.62057876131E+02 -0.29991151007E+03 -0.11283885981E+04  0.14776120136E+04  0.90348123432E+03 0.  0.
        -24    2    4    4    0    0  0.39884351104E+03 -0.35347564650E+02 -0.39498936240E+03  0.56839224111E+03  0.82021623479E+02 0.  0.
         24    2    4    4    0    0 -0.46090138717E+03 -0.26456394542E+03 -0.73339923566E+03  0.90921977254E+03  0.79887333166E+02 0.  0.
         11    1    3    3    0    0 -0.58855076420E+01  0.38949422517E+02  0.75710231461E+01  0.40112555467E+02  0.00000000000E+00 0.  1.
        -11    1    3    3    0    0  0.67943383773E+02  0.26096208755E+03  0.30306407463E+03  0.40566654764E+03  0.00000000000E+00 0. -1.
          4    1    6    6  502    0 -0.13775906725E+03 -0.79305514714E+02 -0.28463493279E+03  0.32601222406E+03  0.00000000000E+00 0. -1.
          1    1    5    5  503    0  0.18587761318E+03 -0.42060473531E+02 -0.14219136881E+03  0.23777711386E+03  0.00000000000E+00 0. -1.
         -2    1    5    5    0  503  0.21296589786E+03  0.67129088815E+01 -0.25279799360E+03  0.33061512725E+03  0.00000000000E+00 0.  1.
         -3    1    6    6    0  502 -0.32314231992E+03 -0.18525843070E+03 -0.44876430286E+03  0.58320754847E+03  0.00000000000E+00 0.  1.
<mgrwt>
<rscale>  0 0.17408942E+04</rscale>
<asrwt>0</asrwt>
<pdfrwt beam="1">  1        1 0.85049049E-01 0.17408942E+04</pdfrwt>
<pdfrwt beam="2">  1       -1 0.21085727E+00 0.17408942E+04</pdfrwt>
<totfact> 0.46319027E+00</totfact>
</mgrwt>
</event>
<event>
12    1  0.4612066E-007  0.1948391E+04  0.7818608E-02  0.8631137E-01
         -2   -1    0    0    0  501 -0.00000000000E+00  0.00000000000E+00  0.32345655694E+03  0.32345655694E+03  0.00000000000E+00 0.  1.
          2   -1    0    0  501    0  0.00000000000E+00 -0.00000000000E+00 -0.29341086070E+04  0.29341086070E+04  0.00000000000E+00 0. -1.
         23    2    1    2    0    0  0.61778668509E+03  0.31670339702E+03 -0.73422117817E+03  0.10146483635E+04  0.92027892919E+02 0.  0.
        254    2    1    2    0    0 -0.61778668509E+03 -0.31670339702E+03 -0.18764308718E+04  0.22429168004E+04  0.10137660119E+04 0.  0.
        -24    2    4    4    0    0 -0.36801992164E+03 -0.61118333100E+03 -0.16198480708E+04  0.17719522308E+04  0.83205824291E+02 0.  0.
         24    2    4    4    0    0 -0.24976676345E+03  0.29447993399E+03 -0.25658280110E+03  0.47096456959E+03  0.82891642194E+02 0.  0.
         11    1    3    3    0    0  0.42342676665E+03  0.23457342044E+03 -0.56625703577E+03  0.74495768125E+03  0.00000000000E+00 0. -1.
        -11    1    3    3    0    0  0.19435991844E+03  0.82129976579E+02 -0.16796414240E+03  0.26969068223E+03  0.00000000000E+00 0.  1.
          4    1    6    6  502    0 -0.83315171551E+02  0.15968216959E+03 -0.10393764831E+03  0.20794914723E+03  0.00000000000E+00 0. -1.
          1    1    5    5  503    0 -0.10889886889E+03 -0.13023268652E+03 -0.44550484096E+03  0.47675368861E+03  0.00000000000E+00 0. -1.
         -2    1    5    5    0  503 -0.25912105275E+03 -0.48095064448E+03 -0.11743432298E+04  0.12951985422E+04  0.00000000000E+00 0.  1.
         -3    1    6    6    0  502 -0.16645159190E+03  0.13479776439E+03 -0.15264515279E+03  0.26301542236E+03  0.00000000000E+00 0.  1.
<mgrwt>
<rscale>  0 0.19483908E+04</rscale>
<asrwt>0</asrwt>
<pdfrwt beam="1">  1        2 0.45140131E+00 0.19483908E+04</pdfrwt>
<pdfrwt beam="2">  1       -2 0.49762549E-01 0.19483908E+04</pdfrwt>
<totfact> 0.68392686E+00</totfact>
</mgrwt>
</event>
<event>
12    1  0.4612066E-007  0.1475533E+04  0.7818608E-02  0.8900888E-01
          1   -1    0    0  501    0  0.00000000000E+00  0.00000000000E+00  0.56259782124E+03  0.56259782124E+03  0.00000000000E+00 0. -1.
         -1   -1    0    0    0  501 -0.00000000000E+00 -0.00000000000E+00 -0.96747479327E+03  0.96747479327E+03  0.00000000000E+00 0.  1.
         23    2    1    2    0    0  0.28890010351E+03 -0.20456450383E+03 -0.43584155840E+03  0.56954326291E+03  0.95455530311E+02 0.  0.
        254    2    1    2    0    0 -0.28890010351E+03  0.20456450383E+03  0.30964586365E+02  0.96052935160E+03  0.89238328292E+03 0.  0.
        -24    2    4    4    0    0 -0.26868070905E+03  0.45360985463E+03  0.27708526287E+03  0.60076115148E+03  0.78654272531E+02 0.  0.
         24    2    4    4    0    0 -0.20219394457E+02 -0.24904535080E+03 -0.24612067650E+03  0.35976820012E+03  0.80158341716E+02 0.  0.
         13    1    3    3    0    0  0.10295018759E+03 -0.81358546171E+02 -0.94201615799E+02  0.16152986900E+03  0.00000000000E+00 0. -1.
        -13    1    3    3    0    0  0.18594991592E+03 -0.12320595766E+03 -0.34163994260E+03  0.40801339391E+03  0.00000000000E+00 0.  1.
          2    1    6    6  502    0 -0.32636763947E+02 -0.23992027842E+03 -0.21004739164E+03  0.32054142493E+03  0.00000000000E+00 0. -1.
          3    1    5    5  503    0 -0.23918449046E+03  0.39050325057E+03  0.26778955509E+03  0.53048398185E+03  0.00000000000E+00 0. -1.
         -4    1    5    5    0  503 -0.29496218589E+02  0.63106604065E+02  0.92957077751E+01  0.70277169626E+02  0.00000000000E+00 0.  1.
         -1    1    6    6    0  502  0.12417369490E+02 -0.91250723760E+01 -0.36073284868E+02  0.39226775194E+02  0.00000000000E+00 0.  1.
<mgrwt>
<rscale>  0 0.14755327E+04</rscale>
<asrwt>0</asrwt>
<pdfrwt beam="1">  1        1 0.86553511E-01 0.14755327E+04</pdfrwt>
<pdfrwt beam="2">  1       -1 0.14884228E+00 0.14755327E+04</pdfrwt>
<totfact> 0.12972307E+01</totfact>
</mgrwt>
</event>
<event>
12    1  0.4612066E-007  0.1204664E+04  0.7818608E-02  0.9108784E-01
          1   -1    0    0  501    0  0.00000000000E+00  0.00000000000E+00  0.31245456042E+03  0.31245456042E+03  0.00000000000E+00 0. -1.
         -1   -1    0    0    0  501 -0.00000000000E+00 -0.00000000000E+00 -0.11611403815E+04  0.11611403815E+04  0.00000000000E+00 0.  1.
         23    2    1    2    0    0 -0.86394124930E+02 -0.16945142774E+03  0.40242649241E+02  0.21443858472E+03  0.90480410109E+02 0.  0.
        254    2    1    2    0    0  0.86394124930E+02  0.16945142774E+03 -0.88892847030E+03  0.12591563572E+04  0.87126527265E+03 0.  0.
        -24    2    4    4    0    0 -0.16953539150E+03  0.21608366777E+03 -0.94033681500E+03  0.98230024654E+03  0.72429608999E+02 0.  0.
         24    2    4    4    0    0  0.25592951643E+03 -0.46632240032E+02  0.51408344700E+02  0.27685611064E+03  0.79573895880E+02 0.  0.
         13    1    3    3    0    0 -0.84913452350E+02 -0.13532725061E+03  0.64766210008E+02  0.17239031616E+03  0.00000000000E+00 0. -1.
        -13    1    3    3    0    0 -0.14806725796E+01 -0.34124177129E+02 -0.24523560766E+02  0.42048268558E+02  0.00000000000E+00 0.  1.
          2    1    6    6  502    0  0.65137569786E+02  0.14286427208E+02 -0.98646256493E+01  0.67411540846E+02  0.00000000000E+00 0. -1.
          1    1    5    5  503    0 -0.43147505674E+02  0.16143021935E+02 -0.19308505561E+03  0.19850476846E+03  0.00000000000E+00 0. -1.
         -2    1    5    5    0  503 -0.12638788582E+03  0.19994064583E+03 -0.74725175940E+03  0.78379547808E+03  0.00000000000E+00 0.  1.
         -1    1    6    6    0  502  0.19079194664E+03 -0.60918667240E+02  0.61272970349E+02  0.20944456979E+03  0.00000000000E+00 0.  1.
<mgrwt>
<rscale>  0 0.12046636E+04</rscale>
<asrwt>0</asrwt>
<pdfrwt beam="1">  1        1 0.48069931E-01 0.12046636E+04</pdfrwt>
<pdfrwt beam="2">  1       -1 0.17863699E+00 0.12046636E+04</pdfrwt>
<totfact> 0.17508671E+01</totfact>
</mgrwt>
</event>
<event>
12    1  0.4612066E-007  0.1502415E+04  0.7818608E-02  0.8882849E-01
          2   -1    0    0  501    0  0.00000000000E+00  0.00000000000E+00  0.25523352077E+04  0.25523352077E+04  0.00000000000E+00 0.  1.
         -2   -1    0    0    0  501 -0.00000000000E+00 -0.00000000000E+00 -0.22109663709E+03  0.22109663709E+03  0.00000000000E+00 0. -1.
         23    2    1    2    0    0 -0.40967500962E+03 -0.24736559525E+03  0.56246049811E+03  0.74401720293E+03  0.90423642416E+02 0.  0.
        254    2    1    2    0    0  0.40967500962E+03  0.24736559525E+03  0.17687780725E+04  0.20294146418E+04  0.87230990342E+03 0.  0.
        -24    2    4    4    0    0 -0.13222977767E+03 -0.17395908939E+03  0.84004343666E+03  0.87178941558E+03  0.81223954327E+02 0.  0.
         24    2    4    4    0    0  0.54190478730E+03  0.42132468464E+03  0.92873463582E+03  0.11576252263E+04  0.79830146674E+02 0.  0.
         11    1    3    3    0    0 -0.37023910514E+03 -0.24770714863E+03  0.49545080434E+03  0.66626370604E+03  0.00000000000E+00 0. -1.
        -11    1    3    3    0    0 -0.39435904487E+02  0.34155338684E+00  0.67009693763E+02  0.77753496896E+02  0.00000000000E+00 0.  1.
          2    1    6    6  502    0  0.29395003758E+03  0.24742196113E+03  0.58025062503E+03  0.69592746697E+03  0.00000000000E+00 0. -1.
          3    1    5    5  503    0 -0.55838174061E+02 -0.13639302015E+03  0.56222577177E+03  0.58122179593E+03  0.00000000000E+00 0. -1.
         -4    1    5    5    0  503 -0.76391603614E+02 -0.37566069239E+02  0.27781766489E+03  0.29056761965E+03  0.00000000000E+00 0.  1.
         -1    1    6    6    0  502  0.24795474972E+03  0.17390272351E+03  0.34848401079E+03  0.46169775929E+03  0.00000000000E+00 0.  1.
<mgrwt>
<rscale>  0 0.15024150E+04</rscale>
<asrwt>0</asrwt>
<pdfrwt beam="1">  1        2 0.39266693E+00 0.15024150E+04</pdfrwt>
<pdfrwt beam="2">  1       -2 0.34014869E-01 0.15024150E+04</pdfrwt>
<totfact> 0.25443837E+01</totfact>
</mgrwt>
</event>
<event>
12    1  0.4612066E-007  0.1214446E+04  0.7818608E-02  0.9100305E-01
          2   -1    0    0  501    0  0.00000000000E+00  0.00000000000E+00  0.25680359838E+04  0.25680359838E+04  0.00000000000E+00 0.  1.
         -2   -1    0    0    0  501 -0.00000000000E+00 -0.00000000000E+00 -0.14358048000E+03  0.14358048000E+03  0.00000000000E+00 0. -1.
         23    2    1    2    0    0 -0.19445943075E+03  0.23337856970E+02  0.17235127177E+03  0.27692516519E+03  0.92862589128E+02 0.  0.
        254    2    1    2    0    0  0.19445943075E+03 -0.23337856970E+02  0.22521042321E+04  0.24346912986E+04  0.90409574816E+03 0.  0.
        -24    2    4    4    0    0 -0.23979438115E+03  0.22148089148E+03  0.44344991119E+03  0.55678019773E+03  0.82469596384E+02 0.  0.
         24    2    4    4    0    0  0.43425381190E+03 -0.24481874845E+03  0.18086543209E+04  0.18779111009E+04  0.82504895485E+02 0.  0.
         13    1    3    3    0    0 -0.12198643431E+03  0.24733923635E+02  0.16108216676E+03  0.20356797779E+03  0.00000000000E+00 0.  1.
        -13    1    3    3    0    0 -0.72472996442E+02 -0.13960666650E+01  0.11269105008E+02  0.73357187399E+02  0.00000000000E+00 0. -1.
          4    1    6    6  502    0  0.15065231750E+02 -0.31219616782E+02  0.11281135602E+03  0.11801706540E+03  0.00000000000E+00 0. -1.
          1    1    5    5  503    0 -0.31014389878E+02  0.29993357946E+01  0.68158994872E+02  0.74943558607E+02  0.00000000000E+00 0. -1.
         -2    1    5    5    0  503 -0.20877999127E+03  0.21848155569E+03  0.37529091632E+03  0.48183663912E+03  0.00000000000E+00 0.  1.
         -3    1    6    6    0  502  0.41918858015E+03 -0.21359913167E+03  0.16958429649E+04  0.17598940355E+04  0.00000000000E+00 0.  1.
<mgrwt>
<rscale>  0 0.12144461E+04</rscale>
<asrwt>0</asrwt>
<pdfrwt beam="1">  1        2 0.39508243E+00 0.12144461E+04</pdfrwt>
<pdfrwt beam="2">  1       -2 0.22089306E-01 0.12144461E+04</pdfrwt>
<totfact> 0.56545910E+01</totfact>
</mgrwt>
</event>
<event>
12    1  0.4612066E-007  0.1980192E+04  0.7818608E-02  0.8615938E-01
         -2   -1    0    0    0  501 -0.00000000000E+00  0.00000000000E+00  0.41979530828E+03  0.41979530828E+03  0.00000000000E+00 0.  1.
          2   -1    0    0  501    0  0.00000000000E+00 -0.00000000000E+00 -0.23351617778E+04  0.23351617778E+04  0.00000000000E+00 0. -1.
         23    2    1    2    0    0  0.27265499302E+02  0.56712609064E+03 -0.13779589165E+02  0.57520548900E+03  0.91082750124E+02 0.  0.
        254    2    1    2    0    0 -0.27265499302E+02 -0.56712609064E+03 -0.19015868803E+04  0.21797515970E+04  0.90161463569E+03 0.  0.
        -24    2    4    4    0    0 -0.29070342849E+03 -0.66665776908E+03 -0.10574641169E+04  0.12863125745E+04  0.86189420854E+02 0.  0.
         24    2    4    4    0    0  0.26343792919E+03  0.99531678442E+02 -0.84412276339E+03  0.89343902256E+03  0.79899623399E+02 0.  0.
         11    1    3    3    0    0 -0.23580455876E+02  0.37736961271E+03 -0.20260210794E+02  0.37864804058E+03  0.00000000000E+00 0. -1.
        -11    1    3    3    0    0  0.50845955178E+02  0.18975647793E+03  0.64806216288E+01  0.19655744843E+03  0.00000000000E+00 0.  1.
          2    1    6    6  502    0  0.19759998660E+03  0.51286655228E+02 -0.68245701653E+03  0.71233675682E+03  0.00000000000E+00 0. -1.
          3    1    5    5  503    0 -0.16272689272E+03 -0.38109652798E+03 -0.52671918729E+03  0.67018483086E+03  0.00000000000E+00 0. -1.
         -4    1    5    5    0  503 -0.12797653577E+03 -0.28556124110E+03 -0.53074492963E+03  0.61612774362E+03  0.00000000000E+00 0.  1.
         -1    1    6    6    0  502  0.65837942590E+02  0.48245023214E+02 -0.16166574686E+03  0.18110226574E+03  0.00000000000E+00 0.  1.
<mgrwt>
<rscale>  0 0.19801919E+04</rscale>
<asrwt>0</asrwt>
<pdfrwt beam="1">  1        2 0.35925566E+00 0.19801919E+04</pdfrwt>
<pdfrwt beam="2">  1       -2 0.64583893E-01 0.19801919E+04</pdfrwt>
<totfact> 0.89202041E+00</totfact>
</mgrwt>
</event>
<event>
12    1  0.4612066E-007  0.2018384E+04  0.7818608E-02  0.8598073E-01
         -1   -1    0    0    0  501 -0.00000000000E+00  0.00000000000E+00  0.57613905153E+03  0.57613905153E+03  0.00000000000E+00 0.  1.
          1   -1    0    0  501    0  0.00000000000E+00 -0.00000000000E+00 -0.17677478879E+04  0.17677478879E+04  0.00000000000E+00 0. -1.
         23    2    1    2    0    0 -0.67064111291E+03  0.52552399208E+02 -0.22995890850E+01  0.67762423277E+03  0.81535610218E+02 0.  0.
        254    2    1    2    0    0  0.67064111291E+03 -0.52552399208E+02 -0.11893092473E+04  0.16662627066E+04  0.95365280103E+03 0.  0.
        -24    2    4    4    0    0  0.33187942861E+02  0.15790632262E+03  0.10379597503E+03  0.20710106843E+03  0.77983343324E+02 0.  0.
         24    2    4    4    0    0  0.63745317005E+03 -0.21045872183E+03 -0.12931052223E+04  0.14591616382E+04  0.79950940727E+02 0.  0.
         13    1    3    3    0    0 -0.20510233350E+03 -0.21508743693E+02 -0.43889177859E+00  0.20622751002E+03  0.00000000000E+00 0. -1.
        -13    1    3    3    0    0 -0.46553877941E+03  0.74061142901E+02 -0.18606973064E+01  0.47139672275E+03  0.00000000000E+00 0.  1.
          2    1    6    6  502    0  0.36820926093E+03 -0.81292737990E+02 -0.74455950105E+03  0.83459895739E+03  0.00000000000E+00 0. -1.
          1    1    5    5  503    0  0.17466980938E+02  0.12319645361E+03  0.36339344314E+02  0.12962642304E+03  0.00000000000E+00 0. -1.
         -2    1    5    5    0  503  0.15720961923E+02  0.34709869013E+02  0.67456630711E+02  0.77474645385E+02  0.00000000000E+00 0.  1.
         -1    1    6    6    0  502  0.26924390912E+03 -0.12916598384E+03 -0.54854572123E+03  0.62456268081E+03  0.00000000000E+00 0.  1.
<mgrwt>
<rscale>  0 0.20183841E+04</rscale>
<asrwt>0</asrwt>
<pdfrwt beam="1">  1        1 0.27196122E+00 0.20183841E+04</pdfrwt>
<pdfrwt beam="2">  1       -1 0.88636776E-01 0.20183841E+04</pdfrwt>
<totfact> 0.49576911E+00</totfact>
</mgrwt>
</event>
<event>
12    1  0.4612066E-007  0.1635542E+04  0.7818608E-02  0.8799006E-01
         -1   -1    0    0    0  501 -0.00000000000E+00  0.00000000000E+00  0.59563277056E+03  0.59563277056E+03  0.00000000000E+00 0.  1.
          1   -1    0    0  501    0  0.00000000000E+00 -0.00000000000E+00 -0.11227543334E+04  0.11227543334E+04  0.00000000000E+00 0. -1.
         23    2    1    2    0    0  0.59713137058E+02  0.34777193595E+03  0.27232519729E+03  0.45524476629E+03  0.92605647717E+02 0.  0.
        254    2    1    2    0    0 -0.59713137058E+02 -0.34777193595E+03 -0.79944676010E+03  0.12631423376E+04  0.91208687347E+03 0.  0.
        -24    2    4    4    0    0 -0.26457629634E+03 -0.11866544890E+01  0.84660310175E+02  0.28833415191E+03  0.77247590922E+02 0.  0.
         24    2    4    4    0    0  0.20486315928E+03 -0.34658528146E+03 -0.88410707028E+03  0.97480818574E+03  0.80718126312E+02 0.  0.
         13    1    3    3    0    0  0.24320826299E+02  0.31694071618E+03  0.23718456669E+03  0.39660993286E+03  0.00000000000E+00 0.  1.
        -13    1    3    3    0    0  0.35392310759E+02  0.30831219765E+02  0.35140630595E+02  0.58634833432E+02  0.00000000000E+00 0. -1.
          4    1    6    6  502    0  0.49098529261E+02 -0.30048975019E+02 -0.11223328673E+03  0.12613451996E+03  0.00000000000E+00 0. -1.
          1    1    5    5  503    0 -0.20498514256E+02  0.18986387443E+02  0.21927383358E+02  0.35517349786E+02  0.00000000000E+00 0. -1.
         -2    1    5    5    0  503 -0.24407778209E+03 -0.20173041932E+02  0.62732926816E+02  0.25281680212E+03  0.00000000000E+00 0.  1.
         -3    1    6    6    0  502  0.15576463002E+03 -0.31653630644E+03 -0.77187378355E+03  0.84867366578E+03  0.00000000000E+00 0.  1.
<mgrwt>
<rscale>  0 0.16355418E+04</rscale>
<asrwt>0</asrwt>
<pdfrwt beam="1">  1        1 0.17273144E+00 0.16355418E+04</pdfrwt>
<pdfrwt beam="2">  1       -1 0.91635810E-01 0.16355418E+04</pdfrwt>
<totfact> 0.13537595E+01</totfact>
</mgrwt>
</event>
<event>
12    1  0.4612066E-007  0.3289862E+04  0.7818608E-02  0.8165480E-01
          1   -1    0    0  501    0  0.00000000000E+00  0.00000000000E+00  0.24421869354E+04  0.24421869354E+04  0.00000000000E+00 0. -1.
         -1   -1    0    0    0  501 -0.00000000000E+00 -0.00000000000E+00 -0.11079402639E+04  0.11079402639E+04  0.00000000000E+00 0.  1.
         23    2    1    2    0    0 -0.10737870178E+04  0.99682470056E+03  0.10511934512E+04  0.18055241774E+04  0.90729488727E+02 0.  0.
        254    2    1    2    0    0  0.10737870178E+04 -0.99682470056E+03  0.28305322033E+03  0.17446030219E+04  0.90379341407E+03 0.  0.
        -24    2    4    4    0    0  0.75543600181E+03 -0.98442995993E+03  0.51140006310E+03  0.13445210094E+04  0.80130027261E+02 0.  0.
         24    2    4    4    0    0  0.31835101597E+03 -0.12394740631E+02 -0.22834684277E+03  0.40008201253E+03  0.80139485804E+02 0.  0.
         13    1    3    3    0    0 -0.59384808872E+03  0.58554780296E+03  0.64363076882E+03  0.10534620774E+04  0.00000000000E+00 0. -1.
        -13    1    3    3    0    0 -0.47993892906E+03  0.41127689760E+03  0.40756268235E+03  0.75206209995E+03  0.00000000000E+00 0.  1.
          4    1    6    6  502    0  0.31275971480E+03  0.11549526268E+01 -0.21056708899E+03  0.37703908562E+03  0.00000000000E+00 0. -1.
          3    1    5    5  503    0  0.57100803651E+03 -0.68881016698E+03  0.38174263863E+03  0.97274717478E+03  0.00000000000E+00 0. -1.
         -4    1    5    5    0  503  0.18442796530E+03 -0.29561979294E+03  0.12965742447E+03  0.37177383459E+03  0.00000000000E+00 0.  1.
         -3    1    6    6    0  502  0.55913011630E+01 -0.13549693258E+02 -0.17779753782E+02  0.23042926911E+02  0.00000000000E+00 0.  1.
<mgrwt>
<rscale>  0 0.32898615E+04</rscale>
<asrwt>0</asrwt>
<pdfrwt beam="1">  1        1 0.37572107E+00 0.32898615E+04</pdfrwt>
<pdfrwt beam="2">  1       -1 0.17045235E+00 0.32898615E+04</pdfrwt>
<totfact> 0.30115101E-01</totfact>
</mgrwt>
</event>
<event>
12    1  0.4612066E-007  0.1538703E+04  0.7818608E-02  0.8859116E-01
          2   -1    0    0  501    0  0.00000000000E+00  0.00000000000E+00  0.95000775684E+03  0.95000775684E+03  0.00000000000E+00 0. -1.
         -2   -1    0    0    0  501 -0.00000000000E+00 -0.00000000000E+00 -0.62304939836E+03  0.62304939836E+03  0.00000000000E+00 0.  1.
         23    2    1    2    0    0 -0.36707245341E+03 -0.27156152276E+03 -0.10230983108E+03  0.47594409896E+03  0.86992166890E+02 0.  0.
        254    2    1    2    0    0  0.36707245341E+03  0.27156152276E+03  0.42926818956E+03  0.10971130562E+04  0.90049876895E+03 0.  0.
        -24    2    4    4    0    0  0.14414806844E+03 -0.13460613617E+03 -0.21143266652E+03  0.30235350615E+03  0.88410365248E+02 0.  0.
         24    2    4    4    0    0  0.22292438498E+03  0.40616765893E+03  0.64070085608E+03  0.79475955008E+03  0.80484202768E+02 0.  0.
         11    1    3    3    0    0 -0.31855555900E+03 -0.25665108204E+03 -0.68038063995E+02  0.41470061518E+03  0.00000000000E+00 0. -1.
        -11    1    3    3    0    0 -0.48516894414E+02 -0.14910440726E+02 -0.34271767087E+02  0.61243483780E+02  0.00000000000E+00 0.  1.
          2    1    6    6  502    0  0.21611287736E+03  0.37577806108E+03  0.55943032393E+03  0.70772608704E+03  0.00000000000E+00 0. -1.
          3    1    5    5  503    0  0.40985429838E+02 -0.95294727390E+02 -0.81976535594E+02  0.13221589509E+03  0.00000000000E+00 0. -1.
         -4    1    5    5    0  503  0.10316263860E+03 -0.39311408775E+02 -0.12945613092E+03  0.17013761106E+03  0.00000000000E+00 0.  1.
         -1    1    6    6    0  502  0.68115076156E+01  0.30389597851E+02  0.81270532145E+02  0.87033463040E+02  0.00000000000E+00 0.  1.
<mgrwt>
<rscale>  0 0.15387030E+04</rscale>
<asrwt>0</asrwt>
<pdfrwt beam="1">  1        2 0.14615504E+00 0.15387030E+04</pdfrwt>
<pdfrwt beam="2">  1       -2 0.95853754E-01 0.15387030E+04</pdfrwt>
<totfact> 0.23877364E+01</totfact>
</mgrwt>
</event>
<event>
12    1  0.4612066E-007  0.1717550E+04  0.7818608E-02  0.8751418E-01
         -2   -1    0    0    0  501 -0.00000000000E+00  0.00000000000E+00  0.27470232083E+03  0.27470232083E+03  0.00000000000E+00 0.  1.
          2   -1    0    0  501    0  0.00000000000E+00 -0.00000000000E+00 -0.26847053795E+04  0.26847053795E+04  0.00000000000E+00 0. -1.
         23    2    1    2    0    0 -0.14106268348E+03 -0.33165047507E+03 -0.16921042248E+04  0.17322927660E+04  0.87924975864E+02 0.  0.
        254    2    1    2    0    0  0.14106268348E+03  0.33165047507E+03 -0.71789883387E+03  0.12271149343E+04  0.92765381906E+03 0.  0.
        -24    2    4    4    0    0  0.34222367639E+03 -0.28817053985E+02 -0.72461128976E+03  0.80644172098E+03  0.85669485844E+02 0.  0.
         24    2    4    4    0    0 -0.20116099290E+03  0.36046752905E+03  0.67124558925E+01  0.42067321331E+03  0.80736056177E+02 0.  0.
         13    1    3    3    0    0 -0.81422369845E+02 -0.17658738195E+03 -0.70594602172E+03  0.73223800185E+03  0.00000000000E+00 0.  1.
        -13    1    3    3    0    0 -0.59640313636E+02 -0.15506309312E+03 -0.98615820305E+03  0.10000547641E+04  0.00000000000E+00 0. -1.
          2    1    6    6  502    0 -0.14189398985E+03  0.31539349319E+03 -0.72342110248E+00  0.34584314832E+03  0.00000000000E+00 0. -1.
          3    1    5    5  503    0  0.33834841587E+03 -0.34924975152E+02 -0.72301993339E+03  0.79903518602E+03  0.00000000000E+00 0. -1.
         -4    1    5    5    0  503  0.38752605126E+01  0.61079211678E+01 -0.15913563715E+01  0.74065349614E+01  0.00000000000E+00 0.  1.
         -1    1    6    6    0  502 -0.59267003056E+02  0.45074035864E+02  0.74358769949E+01  0.74830064994E+02  0.00000000000E+00 0.  1.
<mgrwt>
<rscale>  0 0.17175503E+04</rscale>
<asrwt>0</asrwt>
<pdfrwt beam="1">  1        2 0.41303159E+00 0.17175503E+04</pdfrwt>
<pdfrwt beam="2">  1       -2 0.42261896E-01 0.17175503E+04</pdfrwt>
<totfact> 0.13709159E+01</totfact>
</mgrwt>
</event>
<event>
12    1  0.5218890E-007  0.1754703E+04  0.7818608E-02  0.8730766E-01
         -2   -1    0    0    0  501 -0.00000000000E+00  0.00000000000E+00  0.58293856806E+03  0.58293856806E+03  0.00000000000E+00 0. -1.
          2   -1    0    0  501    0  0.00000000000E+00 -0.00000000000E+00 -0.13204578307E+04  0.13204578307E+04  0.00000000000E+00 0.  1.
         23    2    1    2    0    0 -0.44426515995E+03 -0.38235466728E+03 -0.23839388847E+03  0.63920603862E+03  0.90477012599E+02 0.  0.
        254    2    1    2    0    0  0.44426515995E+03  0.38235466728E+03 -0.49912537412E+03  0.12641903601E+04  0.10027385021E+04 0.  0.
        -24    2    4    4    0    0  0.11018996913E+03  0.44390705717E+03 -0.71602334460E+03  0.85344175879E+03  0.80486650635E+02 0.  0.
         24    2    4    4    0    0  0.33407519082E+03 -0.61552389887E+02  0.21689797048E+03  0.41074860131E+03  0.79213345175E+02 0.  0.
         11    1    3    3    0    0 -0.14511193626E+03 -0.18318573235E+03 -0.93585371472E+02  0.25173936588E+03  0.00000000000E+00 0. -1.
        -11    1    3    3    0    0 -0.29915322369E+03 -0.19916893493E+03 -0.14480851700E+03  0.38746667274E+03  0.00000000000E+00 0.  1.
          4    1    6    6  502    0  0.31577285674E+03 -0.76633608412E+02  0.19894658232E+03  0.38100518318E+03  0.00000000000E+00 0. -1.
          1    1    5    5  503    0  0.11068788403E+03  0.42715364315E+03 -0.70935731491E+03  0.83540399971E+03  0.00000000000E+00 0. -1.
         -2    1    5    5    0  503 -0.49791489942E+00  0.16753414019E+02 -0.66660296928E+01  0.18037759073E+02  0.00000000000E+00 0.  1.
         -1    1    6    6    0  502  0.18302334077E+02  0.15081218525E+02  0.17951388162E+02  0.29743418126E+02  0.00000000000E+00 0.  1.
<mgrwt>
<rscale>  0 0.17547032E+04</rscale>
<asrwt>0</asrwt>
<pdfrwt beam="1">  1        2 0.20314736E+00 0.17547032E+04</pdfrwt>
<pdfrwt beam="2">  1       -2 0.89682857E-01 0.17547032E+04</pdfrwt>
<totfact> 0.16238286E+01</totfact>
</mgrwt>
</event>
<event>
12    1  0.4612066E-007  0.1499316E+04  0.7818608E-02  0.8884908E-01
          2   -1    0    0  501    0  0.00000000000E+00  0.00000000000E+00  0.10803430590E+04  0.10803430590E+04  0.00000000000E+00 0.  1.
         -2   -1    0    0    0  501 -0.00000000000E+00 -0.00000000000E+00 -0.52019337954E+03  0.52019337954E+03  0.00000000000E+00 0. -1.
         23    2    1    2    0    0 -0.49495449465E+02 -0.43749644546E+02  0.69597135870E+03  0.70554283685E+03  0.95135333046E+02 0.  0.
        254    2    1    2    0    0  0.49495449465E+02  0.43749644546E+02 -0.13582167923E+03  0.89499360170E+03  0.88215768864E+03 0.  0.
        -24    2    4    4    0    0  0.27944994225E+03 -0.29770450450E+03  0.78018262273E+02  0.42375102936E+03  0.82206103249E+02 0.  0.
         24    2    4    4    0    0 -0.22995449278E+03  0.34145414905E+03 -0.21383994150E+03  0.47124257234E+03  0.82897748776E+02 0.  0.
         11    1    3    3    0    0 -0.55774735884E+01  0.29691665671E+02  0.17365446680E+03  0.17626280680E+03  0.00000000000E+00 0. -1.
        -11    1    3    3    0    0 -0.43917975877E+02 -0.73441310216E+02  0.52231689190E+03  0.52928003005E+03  0.00000000000E+00 0.  1.
          4    1    6    6  502    0 -0.36801383076E+02  0.10796606093E+03 -0.34706776015E+02  0.11922907536E+03  0.00000000000E+00 0. -1.
          3    1    5    5  503    0  0.14972888264E+03 -0.12409677903E+03  0.70651481183E+02  0.20690669553E+03  0.00000000000E+00 0. -1.
         -4    1    5    5    0  503  0.12972105961E+03 -0.17360772547E+03  0.73667810901E+01  0.21684433383E+03  0.00000000000E+00 0.  1.
         -3    1    6    6    0  502 -0.19315310971E+03  0.23348808812E+03 -0.17913316549E+03  0.35201349699E+03  0.00000000000E+00 0.  1.
<mgrwt>
<rscale>  0 0.14993163E+04</rscale>
<asrwt>0</asrwt>
<pdfrwt beam="1">  1        2 0.16620662E+00 0.14993163E+04</pdfrwt>
<pdfrwt beam="2">  1       -2 0.80029750E-01 0.14993163E+04</pdfrwt>
<totfact> 0.29907806E+01</totfact>
</mgrwt>
</event>
<event>
12    1  0.4612066E-007  0.1783126E+04  0.7818608E-02  0.8715325E-01
          2   -1    0    0  501    0  0.00000000000E+00  0.00000000000E+00  0.89551863275E+03  0.89551863275E+03  0.00000000000E+00 0. -1.
         -2   -1    0    0    0  501 -0.00000000000E+00 -0.00000000000E+00 -0.88762481512E+03  0.88762481512E+03  0.00000000000E+00 0.  1.
         23    2    1    2    0    0  0.18551262846E+03  0.12877148760E+03 -0.61654764449E+03  0.66296372110E+03  0.91612587738E+02 0.  0.
        254    2    1    2    0    0 -0.18551262846E+03 -0.12877148760E+03  0.62444146211E+03  0.11201797268E+04  0.90215212096E+03 0.  0.
        -24    2    4    4    0    0 -0.19153131807E+03 -0.10726765796E+03 -0.19025867593E+03  0.30138867421E+03  0.80288062205E+02 0.  0.
         24    2    4    4    0    0  0.60186896097E+01 -0.21503829638E+02  0.81470013804E+03  0.81879105257E+03  0.78637354496E+02 0.  0.
         13    1    3    3    0    0  0.74967937356E+02  0.67795215606E+01 -0.14276336532E+03  0.16139247820E+03  0.00000000000E+00 0. -1.
        -13    1    3    3    0    0  0.11054469110E+03  0.12199196604E+03 -0.47378427917E+03  0.50157124289E+03  0.00000000000E+00 0.  1.
          4    1    6    6  502    0  0.29319568040E+02 -0.12775793642E+02  0.72496580620E+03  0.72567091587E+03  0.00000000000E+00 0. -1.
          1    1    5    5  503    0 -0.73122404775E+02 -0.85755654609E+02 -0.80381679940E+02  0.13842735585E+03  0.00000000000E+00 0. -1.
         -2    1    5    5    0  503 -0.11840891329E+03 -0.21512003351E+02 -0.10987699599E+03  0.16296131836E+03  0.00000000000E+00 0.  1.
         -3    1    6    6    0  502 -0.23300878431E+02 -0.87280359952E+01  0.89734331840E+02  0.93120136698E+02  0.00000000000E+00 0.  1.
<mgrwt>
<rscale>  0 0.17831260E+04</rscale>
<asrwt>0</asrwt>
<pdfrwt beam="1">  1        2 0.13777210E+00 0.17831260E+04</pdfrwt>
<pdfrwt beam="2">  1       -2 0.13655766E+00 0.17831260E+04</pdfrwt>
<totfact> 0.10691765E+01</totfact>
</mgrwt>
</event>
<event>
12    1  0.4612066E-007  0.2713278E+04  0.7818608E-02  0.8330709E-01
          2   -1    0    0  501    0  0.00000000000E+00  0.00000000000E+00  0.23638608364E+04  0.23638608364E+04  0.00000000000E+00 0. -1.
         -2   -1    0    0    0  501 -0.00000000000E+00 -0.00000000000E+00 -0.77858635607E+03  0.77858635607E+03  0.00000000000E+00 0.  1.
         23    2    1    2    0    0  0.95664881793E+02 -0.99893121992E+03 -0.11110967486E+03  0.10138949827E+04  0.92856472288E+02 0.  0.
        254    2    1    2    0    0 -0.95664881793E+02  0.99893121992E+03  0.16963841552E+04  0.21285522098E+04  0.80374122445E+03 0.  0.
        -24    2    4    4    0    0 -0.32072521455E+03  0.94414415357E+03  0.11164620441E+04  0.14990608735E+04  0.80144622095E+02 0.  0.
         24    2    4    4    0    0  0.22506033275E+03  0.54787066355E+02  0.57992211108E+03  0.62949133628E+03  0.79346780112E+02 0.  0.
         11    1    3    3    0    0 -0.11761703012E+02 -0.25524138938E+02  0.13859106457E+01  0.28137876156E+02  0.00000000000E+00 0. -1.
        -11    1    3    3    0    0  0.10742658481E+03 -0.97340708098E+03 -0.11249558550E+03  0.98575710659E+03  0.00000000000E+00 0.  1.
          2    1    6    6  502    0  0.21684130496E+03  0.68815899286E+02  0.52402433466E+03  0.57127688808E+03  0.00000000000E+00 0. -1.
          3    1    5    5  503    0 -0.32535128761E+03  0.93454419037E+03  0.11069377643E+04  0.14847685066E+04  0.00000000000E+00 0. -1.
         -4    1    5    5    0  503  0.46260730632E+01  0.95999631919E+01  0.95242798888E+01  0.14292366937E+02  0.00000000000E+00 0.  1.
         -1    1    6    6    0  502  0.82190277907E+01 -0.14028832931E+02  0.55897776417E+02  0.58214448203E+02  0.00000000000E+00 0.  1.
<mgrwt>
<rscale>  0 0.27132783E+04</rscale>
<asrwt>0</asrwt>
<pdfrwt beam="1">  1        2 0.36367089E+00 0.27132783E+04</pdfrwt>
<pdfrwt beam="2">  1       -2 0.11978252E+00 0.27132783E+04</pdfrwt>
<totfact> 0.19486603E+00</totfact>
</mgrwt>
</event>
<event>
12    1  0.4612066E-007  0.1392687E+04  0.7818608E-02  0.8959129E-01
         -2   -1    0    0    0  501 -0.00000000000E+00  0.00000000000E+00  0.54915340569E+03  0.54915340569E+03  0.00000000000E+00 0.  1.
          2   -1    0    0  501    0  0.00000000000E+00 -0.00000000000E+00 -0.88298468452E+03  0.88298468452E+03  0.00000000000E+00 0. -1.
         23    2    1    2    0    0  0.20844742473E+03 -0.34260883695E+03 -0.85299172670E+02  0.41977091900E+03  0.90002952992E+02 0.  0.
        254    2    1    2    0    0 -0.20844742473E+03  0.34260883695E+03 -0.24853210616E+03  0.10123671712E+04  0.89570527381E+03 0.  0.
        -24    2    4    4    0    0 -0.20567059413E+03 -0.38902063182E+02  0.27796954424E+03  0.35731244869E+03  0.81187158163E+02 0.  0.
         24    2    4    4    0    0 -0.27768305959E+01  0.38151090013E+03 -0.52650165040E+03  0.65505472253E+03  0.79589094287E+02 0.  0.
         13    1    3    3    0    0  0.15507898539E+03 -0.28427848699E+03 -0.10090678330E+03  0.33918421071E+03  0.00000000000E+00 0. -1.
        -13    1    3    3    0    0  0.53368439341E+02 -0.58330349960E+02  0.15607610635E+02  0.80586708296E+02  0.00000000000E+00 0.  1.
          4    1    6    6  502    0 -0.29213867484E+02  0.56253534426E+02 -0.87918525540E+02  0.10838624139E+03  0.00000000000E+00 0. -1.
          1    1    5    5  503    0 -0.79404192649E+01  0.14197460095E+02  0.70401570447E+01  0.17725178207E+02  0.00000000000E+00 0. -1.
         -2    1    5    5    0  503 -0.19773017487E+03 -0.53099523278E+02  0.27092938719E+03  0.33958727048E+03  0.00000000000E+00 0.  1.
         -3    1    6    6    0  502  0.26437036888E+02  0.32525736571E+03 -0.43858312486E+03  0.54666848114E+03  0.00000000000E+00 0.  1.
<mgrwt>
<rscale>  0 0.13926867E+04</rscale>
<asrwt>0</asrwt>
<pdfrwt beam="1">  1        2 0.13584380E+00 0.13926867E+04</pdfrwt>
<pdfrwt beam="2">  1       -2 0.84485140E-01 0.13926867E+04</pdfrwt>
<totfact> 0.35839463E+01</totfact>
</mgrwt>
</event>
<event>
12    1  0.4612066E-007  0.1905164E+04  0.7818608E-02  0.8652290E-01
          2   -1    0    0  501    0  0.00000000000E+00  0.00000000000E+00  0.10265641850E+04  0.10265641850E+04  0.00000000000E+00 0. -1.
         -2   -1    0    0    0  501 -0.00000000000E+00 -0.00000000000E+00 -0.88393128752E+03  0.88393128752E+03  0.00000000000E+00 0.  1.
         23    2    1    2    0    0  0.39816741489E+03 -0.57208304381E+03 -0.15149245820E+03  0.71967721068E+03  0.95755017553E+02 0.  0.
        254    2    1    2    0    0 -0.39816741489E+03  0.57208304381E+03  0.29412535572E+03  0.11908182619E+04  0.91963150699E+03 0.  0.
        -24    2    4    4    0    0 -0.43298918760E+03  0.15273208788E+03  0.52688555247E+03  0.70336860117E+03  0.79449836180E+02 0.  0.
         24    2    4    4    0    0  0.34821772704E+02  0.41935095593E+03 -0.23276019675E+03  0.48744966070E+03  0.79762663174E+02 0.  0.
         11    1    3    3    0    0  0.10933112580E+03 -0.22083744639E+03 -0.25145150964E+02  0.24769891283E+03  0.00000000000E+00 0. -1.
        -11    1    3    3    0    0  0.28883628909E+03 -0.35124559742E+03 -0.12634730724E+03  0.47197829786E+03  0.00000000000E+00 0.  1.
          2    1    6    6  502    0 -0.12585728283E+02  0.18668112834E+03 -0.13469992891E+03  0.23054785855E+03  0.00000000000E+00 0. -1.
          1    1    5    5  503    0 -0.23730744377E+02  0.30586322810E+02  0.38994296899E+02  0.54947489136E+02  0.00000000000E+00 0. -1.
         -2    1    5    5    0  503 -0.40925844322E+03  0.12214576507E+03  0.48789125557E+03  0.64842111203E+03  0.00000000000E+00 0.  1.
         -3    1    6    6    0  502  0.47407500987E+02  0.23266982759E+03 -0.98060267844E+02  0.25690180216E+03  0.00000000000E+00 0.  1.
<mgrwt>
<rscale>  0 0.19051637E+04</rscale>
<asrwt>0</asrwt>
<pdfrwt beam="1">  1        2 0.15793295E+00 0.19051637E+04</pdfrwt>
<pdfrwt beam="2">  1       -2 0.13598943E+00 0.19051637E+04</pdfrwt>
<totfact> 0.87801826E+00</totfact>
</mgrwt>
</event>
<event>
12    1  0.4612066E-007  0.1483154E+04  0.7818608E-02  0.8895733E-01
         -1   -1    0    0    0  501 -0.00000000000E+00  0.00000000000E+00  0.53000112256E+03  0.53000112256E+03  0.00000000000E+00 0.  1.
          1   -1    0    0  501    0  0.00000000000E+00 -0.00000000000E+00 -0.10376136290E+04  0.10376136290E+04  0.00000000000E+00 0. -1.
         23    2    1    2    0    0  0.33977150737E+03  0.25569956150E+03  0.26972451640E+02  0.43560175830E+03  0.90523122511E+02 0.  0.
        254    2    1    2    0    0 -0.33977150737E+03 -0.25569956150E+03 -0.53458495809E+03  0.11320129933E+04  0.90268787328E+03 0.  0.
        -24    2    4    4    0    0  0.28850948884E+03 -0.16964846707E+03 -0.27978468984E+03  0.44405480199E+03  0.82987149451E+02 0.  0.
         24    2    4    4    0    0 -0.62828099621E+03 -0.86051094437E+02 -0.25480026825E+03  0.68795819129E+03  0.78876455336E+02 0.  0.
         13    1    3    3    0    0  0.32797374038E+03  0.24229420125E+03  0.44981945760E+02  0.41023972234E+03  0.00000000000E+00 0.  1.
        -13    1    3    3    0    0  0.11797766987E+02  0.13405360256E+02 -0.18009494120E+02  0.25362035958E+02  0.00000000000E+00 0. -1.
          2    1    6    6  502    0 -0.62454503273E+03 -0.77460901387E+02 -0.25363508895E+03  0.67851856828E+03  0.00000000000E+00 0. -1.
          3    1    5    5  503    0  0.23979163011E+03 -0.10664520381E+03 -0.18974218273E+03  0.32384459433E+03  0.00000000000E+00 0. -1.
         -4    1    5    5    0  503  0.48717858726E+02 -0.63003263252E+02 -0.90042507115E+02  0.12021020766E+03  0.00000000000E+00 0.  1.
         -1    1    6    6    0  502 -0.37359634819E+01 -0.85901930501E+01 -0.11651792982E+01  0.94396230101E+01  0.00000000000E+00 0.  1.
<mgrwt>
<rscale>  0 0.14831539E+04</rscale>
<asrwt>0</asrwt>
<pdfrwt beam="1">  1        1 0.15963286E+00 0.14831539E+04</pdfrwt>
<pdfrwt beam="2">  1       -1 0.81538636E-01 0.14831539E+04</pdfrwt>
<totfact> 0.20526058E+01</totfact>
</mgrwt>
</event>
<event>
12    1  0.4612066E-007  0.1687428E+04  0.7818608E-02  0.8768567E-01
         -3   -1    0    0    0  501 -0.00000000000E+00  0.00000000000E+00  0.57209625218E+03  0.57209625218E+03  0.00000000000E+00 0.  1.
          3   -1    0    0  501    0  0.00000000000E+00 -0.00000000000E+00 -0.12442892008E+04  0.12442892008E+04  0.00000000000E+00 0. -1.
         23    2    1    2    0    0  0.43493154952E+03 -0.35089075860E+03 -0.33359622225E+01  0.56635540130E+03  0.91964855801E+02 0.  0.
        254    2    1    2    0    0 -0.43493154952E+03  0.35089075860E+03 -0.66885698642E+03  0.12500300517E+04  0.89605562587E+03 0.  0.
        -24    2    4    4    0    0  0.19565894379E+03  0.33843835534E+03 -0.38242939526E+03  0.55266866449E+03  0.79796414059E+02 0.  0.
         24    2    4    4    0    0 -0.63059049331E+03  0.12452403253E+02 -0.28642759116E+03  0.69736138722E+03  0.80453134244E+02 0.  0.
         13    1    3    3    0    0  0.33495826619E+02 -0.32303468238E+01 -0.10505503360E+02  0.35252959342E+02  0.00000000000E+00 0. -1.
        -13    1    3    3    0    0  0.40143572290E+03 -0.34766041177E+03  0.71695411378E+01  0.53110244196E+03  0.00000000000E+00 0.  1.
          4    1    6    6  502    0 -0.27797393279E+03  0.40656700448E+02 -0.14766545556E+03  0.31737605670E+03  0.00000000000E+00 0. -1.
          3    1    5    5  503    0  0.80619066031E+02  0.98217568848E+02 -0.16852855178E+03  0.21106396519E+03  0.00000000000E+00 0. -1.
         -4    1    5    5    0  503  0.11503987775E+03  0.24022078649E+03 -0.21390084348E+03  0.34160469929E+03  0.00000000000E+00 0.  1.
         -3    1    6    6    0  502 -0.35261656052E+03 -0.28204297195E+02 -0.13876213560E+03  0.37998533052E+03  0.00000000000E+00 0.  1.
<mgrwt>
<rscale>  0 0.16874279E+04</rscale>
<asrwt>0</asrwt>
<pdfrwt beam="1">  1        3 0.19142911E+00 0.16874279E+04</pdfrwt>
<pdfrwt beam="2">  1       -3 0.88014808E-01 0.16874279E+04</pdfrwt>
<totfact> 0.48853671E-01</totfact>
</mgrwt>
</event>
<event>
12    1  0.4612066E-007  0.1526583E+04  0.7818608E-02  0.8866965E-01
         -2   -1    0    0    0  501 -0.00000000000E+00  0.00000000000E+00  0.54772920139E+03  0.54772920139E+03  0.00000000000E+00 0.  1.
          2   -1    0    0  501    0  0.00000000000E+00 -0.00000000000E+00 -0.10636903141E+04  0.10636903141E+04  0.00000000000E+00 0. -1.
         23    2    1    2    0    0  0.34921818082E+03  0.10811101152E+02 -0.52843951350E+03  0.64029570787E+03  0.93059423835E+02 0.  0.
        254    2    1    2    0    0 -0.34921818082E+03 -0.10811101152E+02  0.12478400743E+02  0.97112380767E+03  0.90601077345E+03 0.  0.
        -24    2    4    4    0    0 -0.36766143109E+03  0.13734470608E+03  0.38881709475E+03  0.55828379986E+03  0.80396342116E+02 0.  0.
         24    2    4    4    0    0  0.18443250268E+02 -0.14815580723E+03 -0.37633869401E+03  0.41284000780E+03  0.80720274639E+02 0.  0.
         11    1    3    3    0    0  0.13629076120E+03  0.41755270734E+02 -0.25741435269E+03  0.29424619487E+03  0.00000000000E+00 0. -1.
        -11    1    3    3    0    0  0.21292741962E+03 -0.30944169583E+02 -0.27102516081E+03  0.34604951300E+03  0.00000000000E+00 0.  1.
          4    1    6    6  502    0 -0.30474956227E+01 -0.25171478510E+02 -0.12683665333E+02  0.28350765885E+02  0.00000000000E+00 0. -1.
          1    1    5    5  503    0 -0.23819825195E+02  0.23393154683E+02  0.61961590425E+02  0.70383680255E+02  0.00000000000E+00 0. -1.
         -2    1    5    5    0  503 -0.34384160589E+03  0.11395155140E+03  0.32685550432E+03  0.48790011961E+03  0.00000000000E+00 0.  1.
         -3    1    6    6    0  502  0.21490745890E+02 -0.12298432872E+03 -0.36365502867E+03  0.38448924192E+03  0.00000000000E+00 0.  1.
<mgrwt>
<rscale>  0 0.15265834E+04</rscale>
<asrwt>0</asrwt>
<pdfrwt beam="1">  1        2 0.16364466E+00 0.15265834E+04</pdfrwt>
<pdfrwt beam="2">  1       -2 0.84266031E-01 0.15265834E+04</pdfrwt>
<totfact> 0.27201538E+01</totfact>
</mgrwt>
</event>
<event>
12    1  0.8441161E-007  0.3164241E+04  0.7818608E-02  0.8198325E-01
          2   -1    0    0  501    0  0.00000000000E+00  0.00000000000E+00  0.20179728074E+04  0.20179728074E+04  0.00000000000E+00 0. -1.
         -2   -1    0    0    0  501 -0.00000000000E+00 -0.00000000000E+00 -0.12404058596E+04  0.12404058596E+04  0.00000000000E+00 0.  1.
         23    2    1    2    0    0  0.13602063548E+04 -0.71604766125E+02 -0.15439302380E+03  0.13736378213E+04  0.88062978689E+02 0.  0.
        254    2    1    2    0    0 -0.13602063548E+04  0.71604766125E+02  0.93195997163E+03  0.18847408456E+04  0.91017036657E+03 0.  0.
        -24    2    4    4    0    0 -0.77294552346E+02  0.37152409748E+02  0.52353705535E+03  0.53588859107E+03  0.75701944133E+02 0.  0.
         24    2    4    4    0    0 -0.12829118025E+04  0.34452356377E+02  0.40842291628E+03  0.13488522545E+04  0.74454470990E+02 0.  0.
         11    1    3    3    0    0  0.62513969339E+03 -0.37567758791E+02 -0.27091012396E+02  0.62685316917E+03  0.00000000000E+00 0. -1.
        -11    1    3    3    0    0  0.73506666143E+03 -0.34037007334E+02 -0.12730201140E+03  0.74678465218E+03  0.00000000000E+00 0.  1.
          4    1    6    6  502    0 -0.20469136702E+02 -0.59813395878E+00 -0.27813796453E+01  0.20665899310E+02  0.00000000000E+00 0. -1.
          3    1    5    5  503    0 -0.79475893032E+01  0.28401416760E+02  0.57332423245E+02  0.64473338713E+02  0.00000000000E+00 0. -1.
         -4    1    5    5    0  503 -0.69346963043E+02  0.87509929884E+01  0.46620463210E+03  0.47141525236E+03  0.00000000000E+00 0.  1.
         -3    1    6    6    0  502 -0.12624426658E+04  0.35050490336E+02  0.41120429592E+03  0.13281863552E+04  0.00000000000E+00 0.  1.
<mgrwt>
<rscale>  0 0.31642410E+04</rscale>
<asrwt>0</asrwt>
<pdfrwt beam="1">  1        2 0.31045736E+00 0.31642410E+04</pdfrwt>
<pdfrwt beam="2">  1       -2 0.19083167E+00 0.31642410E+04</pdfrwt>
<totfact> 0.84383372E-01</totfact>
</mgrwt>
</event>
<event>
12    1  0.4612066E-007  0.3327202E+04  0.7818608E-02  0.8156008E-01
         -1   -1    0    0    0  501 -0.00000000000E+00  0.00000000000E+00  0.14047334642E+04  0.14047334642E+04  0.00000000000E+00 0.  1.
          1   -1    0    0  501    0  0.00000000000E+00 -0.00000000000E+00 -0.19701730033E+04  0.19701730033E+04  0.00000000000E+00 0. -1.
         23    2    1    2    0    0 -0.68497811128E+02  0.22529942179E+02 -0.18448781288E+04  0.18478708227E+04  0.76496528131E+02 0.  0.
        254    2    1    2    0    0  0.68497811128E+02 -0.22529942179E+02  0.12794385897E+04  0.15270356448E+04  0.83046686098E+03 0.  0.
        -24    2    4    4    0    0  0.23595830760E+02  0.22758813461E+03  0.23018325805E+02  0.24295536079E+03  0.78385851832E+02 0.  0.
         24    2    4    4    0    0  0.44901980367E+02 -0.25011807679E+03  0.12564202639E+04  0.12840802840E+04  0.75465594997E+02 0.  0.
         11    1    3    3    0    0 -0.21514137634E+02  0.41431882153E+02 -0.12392209341E+04  0.12400999889E+04  0.00000000000E+00 0.  1.
        -11    1    3    3    0    0 -0.46983673494E+02 -0.18901939974E+02 -0.60565719467E+03  0.60777083376E+03  0.00000000000E+00 0. -1.
          2    1    6    6  502    0 -0.19146774288E+02 -0.35772179905E+02  0.15946042016E+03  0.16454140336E+03  0.00000000000E+00 0. -1.
          3    1    5    5  503    0  0.77544139784E+01  0.22937524888E+00 -0.10010376185E+02  0.12664563969E+02  0.00000000000E+00 0. -1.
         -4    1    5    5    0  503  0.15841416782E+02  0.22735875936E+03  0.33028701990E+02  0.23029079682E+03  0.00000000000E+00 0.  1.
         -1    1    6    6    0  502  0.64048754655E+02 -0.21434589688E+03  0.10969598438E+04  0.11195388807E+04  0.00000000000E+00 0.  1.
<mgrwt>
<rscale>  0 0.33272018E+04</rscale>
<asrwt>0</asrwt>
<pdfrwt beam="1">  1        1 0.30310354E+00 0.33272018E+04</pdfrwt>
<pdfrwt beam="2">  1       -1 0.21611284E+00 0.33272018E+04</pdfrwt>
<totfact> 0.30206769E-01</totfact>
</mgrwt>
</event>
<event>
12    1  0.4612066E-007  0.1428259E+04  0.7818608E-02  0.8933614E-01
          2   -1    0    0  501    0  0.00000000000E+00  0.00000000000E+00  0.16527763500E+04  0.16527763500E+04  0.00000000000E+00 0. -1.
         -2   -1    0    0    0  501 -0.00000000000E+00 -0.00000000000E+00 -0.30856010773E+03  0.30856010773E+03  0.00000000000E+00 0.  1.
         23    2    1    2    0    0  0.49061855839E+02 -0.43176703503E+03  0.40201717245E+03  0.59918921692E+03  0.92628680655E+02 0.  0.
        254    2    1    2    0    0 -0.49061855839E+02  0.43176703503E+03  0.94219906985E+03  0.13621472409E+04  0.88253961968E+03 0.  0.
        -24    2    4    4    0    0  0.25616986530E+03  0.54986817347E+03  0.42852977849E+03  0.74774800635E+03  0.86667767138E+02 0.  0.
         24    2    4    4    0    0 -0.30523172114E+03 -0.11810113844E+03  0.51366929136E+03  0.61439923451E+03  0.80721719419E+02 0.  0.
         11    1    3    3    0    0  0.19340861490E+02 -0.34156730131E+03  0.35571300311E+03  0.49353219837E+03  0.00000000000E+00 0. -1.
        -11    1    3    3    0    0  0.29720994349E+02 -0.90199733724E+02  0.46304169342E+02  0.10565701854E+03  0.00000000000E+00 0.  1.
          4    1    6    6  502    0 -0.10239803302E+03 -0.73235473512E+02  0.15251331969E+03  0.19776021953E+03  0.00000000000E+00 0. -1.
          1    1    5    5  503    0  0.17617475874E+03  0.43999534358E+03  0.36224934779E+03  0.59653837929E+03  0.00000000000E+00 0. -1.
         -2    1    5    5    0  503  0.79995106560E+02  0.10987282989E+03  0.66280430697E+02  0.15120962706E+03  0.00000000000E+00 0.  1.
         -3    1    6    6    0  502 -0.20283368812E+03 -0.44865664927E+02  0.36115597167E+03  0.41663901497E+03  0.00000000000E+00 0.  1.
<mgrwt>
<rscale>  0 0.14282589E+04</rscale>
<asrwt>0</asrwt>
<pdfrwt beam="1">  1        2 0.25427328E+00 0.14282589E+04</pdfrwt>
<pdfrwt beam="2">  1       -2 0.47470787E-01 0.14282589E+04</pdfrwt>
<totfact> 0.42555386E+01</totfact>
</mgrwt>
</event>
<event>
12    1  0.4612066E-007  0.1443086E+04  0.7818608E-02  0.8923208E-01
          2   -1    0    0  501    0  0.00000000000E+00  0.00000000000E+00  0.81399949949E+03  0.81399949949E+03  0.00000000000E+00 0. -1.
         -2   -1    0    0    0  501 -0.00000000000E+00 -0.00000000000E+00 -0.63958792138E+03  0.63958792138E+03  0.00000000000E+00 0.  1.
         23    2    1    2    0    0  0.31837405238E+03 -0.24770137586E+03  0.12855880319E+03  0.43256226693E+03  0.88683369685E+02 0.  0.
        254    2    1    2    0    0 -0.31837405238E+03  0.24770137586E+03  0.45852774915E+02  0.10210251539E+04  0.93684143759E+03 0.  0.
        -24    2    4    4    0    0 -0.21031567096E+03 -0.33238532593E+03  0.12442362552E+03  0.42023698232E+03  0.80032470804E+02 0.  0.
         24    2    4    4    0    0 -0.10805838143E+03  0.58008670179E+03 -0.78570850606E+02  0.60078817162E+03  0.81214858284E+02 0.  0.
         13    1    3    3    0    0  0.23388610186E+03 -0.14948972781E+03  0.53022542566E+02  0.28259737682E+03  0.00000000000E+00 0.  1.
        -13    1    3    3    0    0  0.84487950520E+02 -0.98211648053E+02  0.75536260628E+02  0.14996489011E+03  0.00000000000E+00 0. -1.
          4    1    6    6  502    0 -0.69512774021E+02  0.51549512922E+03 -0.74392670044E+02  0.52545363578E+03  0.00000000000E+00 0. -1.
          3    1    5    5  503    0 -0.89611918726E+02 -0.94920751286E+02  0.11948611380E+02  0.13108399718E+03  0.00000000000E+00 0. -1.
         -4    1    5    5    0  503 -0.12070375223E+03 -0.23746457464E+03  0.11247501414E+03  0.28915298514E+03  0.00000000000E+00 0.  1.
         -3    1    6    6    0  502 -0.38545607405E+02  0.64591572572E+02 -0.41781805623E+01  0.75334535841E+02  0.00000000000E+00 0.  1.
<mgrwt>
<rscale>  0 0.14430859E+04</rscale>
<asrwt>0</asrwt>
<pdfrwt beam="1">  1        2 0.12523069E+00 0.14430859E+04</pdfrwt>
<pdfrwt beam="2">  1       -2 0.98398142E-01 0.14430859E+04</pdfrwt>
<totfact> 0.28029909E+01</totfact>
</mgrwt>
</event>
<event>
12    1  0.4612066E-007  0.1187882E+04  0.7818608E-02  0.9123530E-01
          2   -1    0    0  501    0  0.00000000000E+00  0.00000000000E+00  0.16748520147E+04  0.16748520147E+04  0.00000000000E+00 0. -1.
         -2   -1    0    0    0  501 -0.00000000000E+00 -0.00000000000E+00 -0.21062508646E+03  0.21062508646E+03  0.00000000000E+00 0.  1.
         23    2    1    2    0    0  0.89167023673E+02 -0.53322035813E+02 -0.18675264596E+02  0.14817634582E+03  0.10398781822E+03 0.  0.
        254    2    1    2    0    0 -0.89167023673E+02  0.53322035813E+02  0.14829021928E+04  0.17373007554E+04  0.89912235175E+03 0.  0.
        -24    2    4    4    0    0 -0.32140607268E+03  0.33562130845E+03  0.11232190403E+04  0.12182504355E+04  0.81052975756E+02 0.  0.
         24    2    4    4    0    0  0.23223904901E+03 -0.28229927263E+03  0.35968315256E+03  0.51905031987E+03  0.80083763060E+02 0.  0.
         11    1    3    3    0    0  0.68617672989E+02  0.77509571089E+01 -0.40607249345E+02  0.80108745352E+02  0.00000000000E+00 0.  1.
        -11    1    3    3    0    0  0.20549350683E+02 -0.61072992922E+02  0.21931984748E+02  0.68067600464E+02  0.00000000000E+00 0. -1.
          4    1    6    6  502    0  0.76987919371E+02 -0.13445456230E+03  0.19297353335E+03  0.24747515760E+03  0.00000000000E+00 0. -1.
          1    1    5    5  503    0 -0.20996465547E+03  0.25604220784E+03  0.72207535300E+03  0.79437748215E+03  0.00000000000E+00 0. -1.
         -4    1    5    5    0  503 -0.11144141721E+03  0.79579100603E+02  0.40114368728E+03  0.42387295333E+03  0.00000000000E+00 0.  1.
         -3    1    6    6    0  502  0.15525112964E+03 -0.14784471033E+03  0.16670961921E+03  0.27157516227E+03  0.00000000000E+00 0.  1.
<mgrwt>
<rscale>  0 0.11878819E+04</rscale>
<asrwt>0</asrwt>
<pdfrwt beam="1">  1        2 0.25766953E+00 0.11878819E+04</pdfrwt>
<pdfrwt beam="2">  1       -2 0.32403861E-01 0.11878819E+04</pdfrwt>
<totfact> 0.88709807E+01</totfact>
</mgrwt>
</event>
<event>
12    1  0.4612066E-007  0.3059468E+04  0.7818608E-02  0.8226950E-01
          2   -1    0    0  501    0  0.00000000000E+00  0.00000000000E+00  0.16287784709E+04  0.16287784709E+04  0.00000000000E+00 0. -1.
         -2   -1    0    0    0  501 -0.00000000000E+00 -0.00000000000E+00 -0.14367122718E+04  0.14367122718E+04  0.00000000000E+00 0.  1.
         23    2    1    2    0    0 -0.34503398242E+03 -0.13514092529E+03  0.14329081321E+04  0.14829007074E+04  0.91963439144E+02 0.  0.
        254    2    1    2    0    0  0.34503398242E+03  0.13514092529E+03 -0.12408419331E+04  0.15825900353E+04  0.90972028570E+03 0.  0.
        -24    2    4    4    0    0  0.28847850050E+03 -0.14869514908E+03 -0.30852363087E+02  0.33587002740E+03  0.80788083204E+02 0.  0.
         24    2    4    4    0    0  0.56555481924E+02  0.28383607436E+03 -0.12099895700E+04  0.12467200079E+04  0.80464768399E+02 0.  0.
         13    1    3    3    0    0 -0.10269601653E+03 -0.67865903734E+02  0.61499762906E+03  0.62719561259E+03  0.00000000000E+00 0. -1.
        -13    1    3    3    0    0 -0.24233796589E+03 -0.67275021556E+02  0.81791050308E+03  0.85570509481E+03  0.00000000000E+00 0.  1.
          4    1    6    6  502    0  0.62981549863E+01  0.14793107851E+03 -0.74897227235E+03  0.76346757331E+03  0.00000000000E+00 0. -1.
          3    1    5    5  503    0  0.16613884573E+03 -0.44128093753E+02  0.52976251230E+00  0.17190021922E+03  0.00000000000E+00 0. -1.
         -4    1    5    5    0  503  0.12233965477E+03 -0.10456705532E+03 -0.31382125599E+02  0.16396980818E+03  0.00000000000E+00 0.  1.
         -3    1    6    6    0  502  0.50257326938E+02  0.13590499586E+03 -0.46101729764E+03  0.48325243458E+03  0.00000000000E+00 0.  1.
<mgrwt>
<rscale>  0 0.30594679E+04</rscale>
<asrwt>0</asrwt>
<pdfrwt beam="1">  1        2 0.25058130E+00 0.30594679E+04</pdfrwt>
<pdfrwt beam="2">  1       -2 0.22103266E+00 0.30594679E+04</pdfrwt>
<totfact> 0.89129064E-01</totfact>
</mgrwt>
</event>
<event>
12    1  0.6353144E-007  0.1923868E+04  0.7818608E-02  0.8643066E-01
         -1   -1    0    0    0  501 -0.00000000000E+00  0.00000000000E+00  0.85379768466E+03  0.85379768466E+03  0.00000000000E+00 0.  1.
          1   -1    0    0  501    0  0.00000000000E+00 -0.00000000000E+00 -0.10837656373E+04  0.10837656373E+04  0.00000000000E+00 0. -1.
         23    2    1    2    0    0  0.39610424611E+02 -0.73358284282E+03 -0.28558029131E+03  0.79362403327E+03  0.92575538728E+02 0.  0.
        254    2    1    2    0    0 -0.39610424611E+02  0.73358284282E+03  0.55612338669E+02  0.11439392887E+04  0.87509518967E+03 0.  0.
        -24    2    4    4    0    0 -0.41867850121E+02  0.73105906943E+01  0.34591473783E+03  0.35766886475E+03  0.80396824273E+02 0.  0.
         24    2    4    4    0    0  0.22574255101E+01  0.72627225213E+03 -0.29030239916E+03  0.78627042395E+03  0.80431439319E+02 0.  0.
         13    1    3    3    0    0  0.86133668692E+01 -0.58752452788E+03 -0.19556463841E+03  0.61927763463E+03  0.00000000000E+00 0.  1.
        -13    1    3    3    0    0  0.30997057741E+02 -0.14605831494E+03 -0.90015652896E+02  0.17434639864E+03  0.00000000000E+00 0. -1.
          4    1    6    6  502    0  0.45939452885E+01  0.50481798378E+02  0.17878130340E+00  0.50690711807E+02  0.00000000000E+00 0. -1.
          1    1    5    5  503    0 -0.25720713597E+02  0.10416611657E+01  0.23704796694E+02  0.34993678747E+02  0.00000000000E+00 0. -1.
         -2    1    5    5    0  503 -0.16147136524E+02  0.62689295286E+01  0.32220994113E+03  0.32267518600E+03  0.00000000000E+00 0.  1.
         -3    1    6    6    0  502 -0.23365197784E+01  0.67579045375E+03 -0.29048118046E+03  0.73557971214E+03  0.00000000000E+00 0.  1.
<mgrwt>
<rscale>  0 0.19238676E+04</rscale>
<asrwt>0</asrwt>
<pdfrwt beam="1">  1        1 0.16673317E+00 0.19238676E+04</pdfrwt>
<pdfrwt beam="2">  1       -1 0.13135349E+00 0.19238676E+04</pdfrwt>
<totfact> 0.60165698E+00</totfact>
</mgrwt>
</event>
<event>
12    1  0.4612066E-007  0.1854759E+04  0.7818608E-02  0.8677709E-01
          1   -1    0    0  501    0  0.00000000000E+00  0.00000000000E+00  0.15568852810E+04  0.15568852810E+04  0.00000000000E+00 0. -1.
         -1   -1    0    0    0  501 -0.00000000000E+00 -0.00000000000E+00 -0.55240588422E+03  0.55240588422E+03  0.00000000000E+00 0.  1.
         23    2    1    2    0    0  0.56411849014E+03  0.33969320694E+03  0.66484303121E+03  0.94277053963E+03  0.11479934006E+03 0.  0.
        254    2    1    2    0    0 -0.56411849014E+03 -0.33969320694E+03  0.33963636555E+03  0.11665206256E+04  0.90099742693E+03 0.  0.
        -24    2    4    4    0    0 -0.65978852978E+02 -0.26716331158E+03 -0.25406931403E+03  0.38404070940E+03  0.84891731364E+02 0.  0.
         24    2    4    4    0    0 -0.49813963716E+03 -0.72529895365E+02  0.59370567958E+03  0.78247991618E+03  0.79904326681E+02 0.  0.
         13    1    3    3    0    0  0.12760929524E+03  0.13651659302E+03  0.19254218946E+03  0.26831587192E+03  0.00000000000E+00 0.  1.
        -13    1    3    3    0    0  0.43650919490E+03  0.20317661393E+03  0.47230084175E+03  0.67445466771E+03  0.00000000000E+00 0. -1.
          4    1    6    6  502    0 -0.47143602304E+03 -0.77123423319E+02  0.53148953856E+03  0.71461953223E+03  0.00000000000E+00 0. -1.
          3    1    5    5  503    0 -0.82366261888E+02 -0.21921495824E+03 -0.22888271290E+03  0.32745487518E+03  0.00000000000E+00 0. -1.
         -2    1    5    5    0  503  0.16387408910E+02 -0.47948353335E+02 -0.25186601132E+02  0.56585834225E+02  0.00000000000E+00 0.  1.
         -3    1    6    6    0  502 -0.26703614120E+02  0.45935279534E+01  0.62216141017E+02  0.67860383945E+02  0.00000000000E+00 0.  1.
<mgrwt>
<rscale>  0 0.18547588E+04</rscale>
<asrwt>0</asrwt>
<pdfrwt beam="1">  1        1 0.23952081E+00 0.18547588E+04</pdfrwt>
<pdfrwt beam="2">  1       -1 0.84985521E-01 0.18547588E+04</pdfrwt>
<totfact> 0.76853092E+00</totfact>
</mgrwt>
</event>
<event>
12    1  0.4612066E-007  0.1372861E+04  0.7818608E-02  0.8973701E-01
          2   -1    0    0  501    0  0.00000000000E+00  0.00000000000E+00  0.23067705627E+04  0.23067705627E+04  0.00000000000E+00 0. -1.
         -2   -1    0    0    0  501 -0.00000000000E+00 -0.00000000000E+00 -0.20426241500E+03  0.20426241500E+03  0.00000000000E+00 0.  1.
         23    2    1    2    0    0  0.23867959949E+03 -0.25073152471E+03  0.30452321803E+03  0.47021611605E+03  0.92382664912E+02 0.  0.
        254    2    1    2    0    0 -0.23867959949E+03  0.25073152471E+03  0.17979849297E+04  0.20408168617E+04  0.90130428091E+03 0.  0.
        -24    2    4    4    0    0 -0.46252080620E+02 -0.33292440585E+03  0.62709144506E+03  0.71600510417E+03  0.80260287590E+02 0.  0.
         24    2    4    4    0    0 -0.19242751887E+03  0.58365593056E+03  0.11708934846E+04  0.13248117575E+04  0.80324623516E+02 0.  0.
         13    1    3    3    0    0  0.12967015907E+02 -0.32425708932E+02  0.70215671147E+02  0.78420727973E+02  0.00000000000E+00 0. -1.
        -13    1    3    3    0    0  0.22571258358E+03 -0.21830581578E+03  0.23430754688E+03  0.39179538807E+03  0.00000000000E+00 0.  1.
          2    1    6    6  502    0 -0.77878745468E+02  0.13187936557E+03  0.26592218001E+03  0.30687435846E+03  0.00000000000E+00 0. -1.
          3    1    5    5  503    0  0.92003184669E+01 -0.19467803082E+03  0.31963368817E+03  0.37436596554E+03  0.00000000000E+00 0. -1.
         -4    1    5    5    0  503 -0.55452399087E+02 -0.13824637504E+03  0.30745775689E+03  0.34163913863E+03  0.00000000000E+00 0.  1.
         -1    1    6    6    0  502 -0.11454877340E+03  0.45177656500E+03  0.90497130463E+03  0.10179373990E+04  0.00000000000E+00 0.  1.
<mgrwt>
<rscale>  0 0.13728606E+04</rscale>
<asrwt>0</asrwt>
<pdfrwt beam="1">  1        2 0.35488776E+00 0.13728606E+04</pdfrwt>
<pdfrwt beam="2">  1       -2 0.31424989E-01 0.13728606E+04</pdfrwt>
<totfact> 0.41290463E+01</totfact>
</mgrwt>
</event>
<event>
12    1  0.4612066E-007  0.1449561E+04  0.7818608E-02  0.8918705E-01
          1   -1    0    0  501    0  0.00000000000E+00  0.00000000000E+00  0.23901372461E+04  0.23901372461E+04  0.00000000000E+00 0. -1.
         -1   -1    0    0    0  501 -0.00000000000E+00 -0.00000000000E+00 -0.21978098085E+03  0.21978098085E+03  0.00000000000E+00 0.  1.
         23    2    1    2    0    0 -0.35242635648E+03 -0.11063588356E+03  0.24357897373E+03  0.45097820653E+03  0.87212331989E+02 0.  0.
        254    2    1    2    0    0  0.35242635648E+03  0.11063588356E+03  0.19267772915E+04  0.21589400204E+04  0.90116959845E+03 0.  0.
        -24    2    4    4    0    0  0.29537723428E+03  0.48224970189E+03  0.93491743638E+03  0.10956045730E+04  0.80413195500E+02 0.  0.
         24    2    4    4    0    0  0.57049122199E+02 -0.37161381833E+03  0.99185985514E+03  0.10633354474E+04  0.74463878456E+02 0.  0.
         11    1    3    3    0    0 -0.10448216813E+03 -0.19520242302E+02  0.27726664690E+02  0.10984685362E+03  0.00000000000E+00 0.  1.
        -11    1    3    3    0    0 -0.24794418835E+03 -0.91115641255E+02  0.21585230904E+03  0.34113135291E+03  0.00000000000E+00 0. -1.
          4    1    6    6  502    0  0.51458198542E+02 -0.36868210710E+03  0.98831113224E+03  0.10560934317E+04  0.00000000000E+00 0. -1.
          1    1    5    5  503    0  0.28118698018E+03  0.42727804979E+03  0.80412154558E+03  0.95301842045E+03  0.00000000000E+00 0. -1.
         -2    1    5    5    0  503  0.14190254104E+02  0.54971652093E+02  0.13079589080E+03  0.14258615254E+03  0.00000000000E+00 0.  1.
         -3    1    6    6    0  502  0.55909236572E+01 -0.29317112257E+01  0.35487229002E+01  0.72420157604E+01  0.00000000000E+00 0.  1.
<mgrwt>
<rscale>  0 0.14495609E+04</rscale>
<asrwt>0</asrwt>
<pdfrwt beam="1">  1        1 0.36771340E+00 0.14495609E+04</pdfrwt>
<pdfrwt beam="2">  1       -1 0.33812460E-01 0.14495609E+04</pdfrwt>
<totfact> 0.12969648E+01</totfact>
</mgrwt>
</event>
<event>
12    1  0.4612066E-007  0.2860546E+04  0.7818608E-02  0.8284714E-01
          1   -1    0    0  501    0  0.00000000000E+00  0.00000000000E+00  0.23752438243E+04  0.23752438243E+04  0.00000000000E+00 0. -1.
         -1   -1    0    0    0  501 -0.00000000000E+00 -0.00000000000E+00 -0.86125107925E+03  0.86125107925E+03  0.00000000000E+00 0.  1.
         23    2    1    2    0    0 -0.27923762175E+03 -0.11019529598E+04  0.13747100016E+04  0.17861782174E+04  0.91274642960E+02 0.  0.
        254    2    1    2    0    0  0.27923762175E+03  0.11019529598E+04  0.13928274339E+03  0.14503166862E+04  0.88980044531E+03 0.  0.
        -24    2    4    4    0    0 -0.24840440583E+03  0.63603942747E+03  0.25282520897E+03  0.73252789487E+03  0.80160017103E+02 0.  0.
         24    2    4    4    0    0  0.52764202758E+03  0.46591353238E+03 -0.11354246558E+03  0.71778879131E+03  0.82748586173E+02 0.  0.
         11    1    3    3    0    0 -0.62394171192E+02 -0.31155918300E+03  0.44475419849E+03  0.54659715897E+03  0.00000000000E+00 0. -1.
        -11    1    3    3    0    0 -0.21684345056E+03 -0.79039377685E+03  0.92995580314E+03  0.12395810584E+04  0.00000000000E+00 0.  1.
          2    1    6    6  502    0  0.34979048436E+03  0.35528083215E+03 -0.65116704849E+02  0.50281014100E+03  0.00000000000E+00 0. -1.
          3    1    5    5  503    0 -0.12217273365E+03  0.28286292745E+03  0.15506619530E+03  0.34493932437E+03  0.00000000000E+00 0. -1.
         -4    1    5    5    0  503 -0.12623167217E+03  0.35317650002E+03  0.97759013668E+02  0.38758857050E+03  0.00000000000E+00 0.  1.
         -1    1    6    6    0  502  0.17785154322E+03  0.11063270023E+03 -0.48425760733E+02  0.21497865031E+03  0.00000000000E+00 0.  1.
<mgrwt>
<rscale>  0 0.28605463E+04</rscale>
<asrwt>0</asrwt>
<pdfrwt beam="1">  1        1 0.36542212E+00 0.28605463E+04</pdfrwt>
<pdfrwt beam="2">  1       -1 0.13250017E+00 0.28605463E+04</pdfrwt>
<totfact> 0.68740006E-01</totfact>
</mgrwt>
</event>
<event>
12    1  0.4612066E-007  0.3136451E+04  0.7818608E-02  0.8205805E-01
         -2   -1    0    0    0  501 -0.00000000000E+00  0.00000000000E+00  0.13421035083E+04  0.13421035083E+04  0.00000000000E+00 0.  1.
          2   -1    0    0  501    0  0.00000000000E+00 -0.00000000000E+00 -0.18324454372E+04  0.18324454372E+04  0.00000000000E+00 0. -1.
         23    2    1    2    0    0 -0.11824877252E+04 -0.12511532136E+03  0.59318999844E+03  0.13320919203E+04  0.93077634700E+02 0.  0.
        254    2    1    2    0    0  0.11824877252E+04  0.12511532136E+03 -0.10835319274E+04  0.18424570252E+04  0.89815109443E+03 0.  0.
        -24    2    4    4    0    0  0.10665363399E+04 -0.22242284171E+03 -0.93569544807E+03  0.14382375950E+04  0.77651293113E+02 0.  0.
         24    2    4    4    0    0  0.11595138531E+03  0.34753816307E+03 -0.14783647930E+03  0.40421943026E+03  0.85499851695E+02 0.  0.
         11    1    3    3    0    0 -0.38227294153E+03 -0.70249829699E+01  0.22191609973E+03  0.44207319251E+03  0.00000000000E+00 0.  1.
        -11    1    3    3    0    0 -0.80021478363E+03 -0.11809033839E+03  0.37127389872E+03  0.89001872780E+03  0.00000000000E+00 0. -1.
          4    1    6    6  502    0  0.67308646725E+02  0.15883333716E+03 -0.11309362254E+03  0.20627324202E+03  0.00000000000E+00 0. -1.
          1    1    5    5  503    0  0.47370031139E+01 -0.33827864033E+01 -0.14286118401E+02  0.15426458483E+02  0.00000000000E+00 0. -1.
         -2    1    5    5    0  503  0.10617993367E+04 -0.21904005531E+03 -0.92140932967E+03  0.14228111365E+04  0.00000000000E+00 0.  1.
         -3    1    6    6    0  502  0.48642738580E+02  0.18870482592E+03 -0.34742856766E+02  0.19794618824E+03  0.00000000000E+00 0.  1.
<mgrwt>
<rscale>  0 0.31364511E+04</rscale>
<asrwt>0</asrwt>
<pdfrwt beam="1">  1        2 0.28191468E+00 0.31364511E+04</pdfrwt>
<pdfrwt beam="2">  1       -2 0.20647746E+00 0.31364511E+04</pdfrwt>
<totfact> 0.84563276E-01</totfact>
</mgrwt>
</event>
<event>
12    1  0.4834995E-007  0.3041885E+04  0.7818608E-02  0.8231871E-01
         -1   -1    0    0    0  501 -0.00000000000E+00  0.00000000000E+00  0.87797926579E+03  0.87797926579E+03  0.00000000000E+00 0.  1.
          1   -1    0    0  501    0  0.00000000000E+00 -0.00000000000E+00 -0.26347615668E+04  0.26347615668E+04  0.00000000000E+00 0. -1.
         23    2    1    2    0    0 -0.18429755134E+03 -0.13603938133E+04 -0.10315345047E+04  0.17195403166E+04  0.90103004398E+02 0.  0.
        254    2    1    2    0    0  0.18429755134E+03  0.13603938133E+04 -0.72524779632E+03  0.17932005160E+04  0.89718828018E+03 0.  0.
        -24    2    4    4    0    0  0.28573481854E+03  0.95960186615E+02 -0.34787521100E+03  0.46732953977E+03  0.80789803596E+02 0.  0.
         24    2    4    4    0    0 -0.10143726720E+03  0.12644336266E+04 -0.37737258532E+03  0.13258709763E+04  0.80261212416E+02 0.  0.
         11    1    3    3    0    0 -0.26159891254E+02 -0.47966415229E+03 -0.38433732097E+03  0.61520501883E+03  0.00000000000E+00 0.  1.
        -11    1    3    3    0    0 -0.15813766009E+03 -0.88072966096E+03 -0.64719718376E+03  0.11043352978E+04  0.00000000000E+00 0. -1.
          4    1    6    6  502    0  0.18063722829E+01  0.15165752506E+03 -0.22521194975E+02  0.15333124963E+03  0.00000000000E+00 0. -1.
          3    1    5    5  503    0  0.50640838841E+02  0.18544054962E+01 -0.10435170769E+03  0.11600522521E+03  0.00000000000E+00 0. -1.
         -4    1    5    5    0  503  0.23509397970E+03  0.94105781119E+02 -0.24352350331E+03  0.35132431455E+03  0.00000000000E+00 0.  1.
         -3    1    6    6    0  502 -0.10324363949E+03  0.11127761016E+04 -0.35485139034E+03  0.11725397266E+04  0.00000000000E+00 0.  1.
<mgrwt>
<rscale>  0 0.30418850E+04</rscale>
<asrwt>0</asrwt>
<pdfrwt beam="1">  1        1 0.40534792E+00 0.30418850E+04</pdfrwt>
<pdfrwt beam="2">  1       -1 0.13507374E+00 0.30418850E+04</pdfrwt>
<totfact> 0.42532770E-01</totfact>
</mgrwt>
</event>
<event>
12    1  0.5308756E-007  0.1921747E+04  0.7818608E-02  0.8644106E-01
         -2   -1    0    0    0  501 -0.00000000000E+00  0.00000000000E+00  0.83256021332E+03  0.83256021332E+03  0.00000000000E+00 0.  1.
          2   -1    0    0  501    0  0.00000000000E+00 -0.00000000000E+00 -0.11089626726E+04  0.11089626726E+04  0.00000000000E+00 0. -1.
         23    2    1    2    0    0 -0.59990216929E+03 -0.18307519949E+03 -0.52981518967E+03  0.82598043253E+03  0.90224155980E+02 0.  0.
        254    2    1    2    0    0  0.59990216929E+03  0.18307519949E+03  0.25341273039E+03  0.11155424534E+04  0.88702751480E+03 0.  0.
        -24    2    4    4    0    0  0.45507935864E+03  0.46110697371E+03  0.39345864158E+03  0.76198938668E+03  0.78110555720E+02 0.  0.
         24    2    4    4    0    0  0.14482281065E+03 -0.27803177421E+03 -0.14004591120E+03  0.35355306672E+03  0.84330301707E+02 0.  0.
         13    1    3    3    0    0 -0.42050239680E+03 -0.16811870749E+03 -0.39737563188E+03  0.60248946740E+03  0.00000000000E+00 0. -1.
        -13    1    3    3    0    0 -0.17939977249E+03 -0.14956492000E+02 -0.13243955780E+03  0.22349096513E+03  0.00000000000E+00 0.  1.
          4    1    6    6  502    0  0.28536051230E+02 -0.17055457622E+02  0.41735309556E+01  0.33505420683E+02  0.00000000000E+00 0. -1.
          1    1    5    5  503    0  0.74484389587E+02  0.40315992707E+02  0.61089534009E+02  0.10442813187E+03  0.00000000000E+00 0. -1.
         -2    1    5    5    0  503  0.38059496905E+03  0.42079098100E+03  0.33236910757E+03  0.65756125481E+03  0.00000000000E+00 0.  1.
         -3    1    6    6    0  502  0.11628675942E+03 -0.26097631659E+03 -0.14421944215E+03  0.32004764603E+03  0.00000000000E+00 0.  1.
<mgrwt>
<rscale>  0 0.19217473E+04</rscale>
<asrwt>0</asrwt>
<pdfrwt beam="1">  1        2 0.17060964E+00 0.19217473E+04</pdfrwt>
<pdfrwt beam="2">  1       -2 0.12808619E+00 0.19217473E+04</pdfrwt>
<totfact> 0.90690677E+00</totfact>
</mgrwt>
</event>
<event>
12    1  0.4612066E-007  0.1776427E+04  0.7818608E-02  0.8718937E-01
          2   -1    0    0  501    0  0.00000000000E+00  0.00000000000E+00  0.10897812613E+04  0.10897812613E+04  0.00000000000E+00 0. -1.
         -2   -1    0    0    0  501 -0.00000000000E+00 -0.00000000000E+00 -0.72392781744E+03  0.72392781744E+03  0.00000000000E+00 0.  1.
         23    2    1    2    0    0  0.56648882676E+03  0.18401385714E+02 -0.19817514998E+03  0.60668120990E+03  0.86836043974E+02 0.  0.
        254    2    1    2    0    0 -0.56648882676E+03 -0.18401385714E+02  0.56402859381E+03  0.12070278688E+04  0.90417908602E+03 0.  0.
        -24    2    4    4    0    0  0.71064637158E+01 -0.35250521915E+03  0.52196718481E+02  0.36560886332E+03  0.81454970151E+02 0.  0.
         24    2    4    4    0    0 -0.57359529048E+03  0.33410383343E+03  0.51183187533E+03  0.84141900549E+03  0.73329021716E+02 0.  0.
         11    1    3    3    0    0  0.47491227214E+03 -0.11380145049E+02 -0.18356772014E+03  0.50928212398E+03  0.00000000000E+00 0.  1.
        -11    1    3    3    0    0  0.91576554620E+02  0.29781530762E+02 -0.14607429841E+02  0.97399085915E+02  0.00000000000E+00 0. -1.
          4    1    6    6  502    0 -0.47055231871E+03  0.25757793365E+03  0.44338820409E+03  0.69595903333E+03  0.00000000000E+00 0. -1.
          1    1    5    5  503    0 -0.26980807586E+02 -0.21590508740E+03  0.68318605344E+01  0.21769162836E+03  0.00000000000E+00 0. -1.
         -2    1    5    5    0  503  0.34087271302E+02 -0.13660013175E+03  0.45364857947E+02  0.14791723495E+03  0.00000000000E+00 0.  1.
         -3    1    6    6    0  502 -0.10304297177E+03  0.76525899785E+02  0.68443671236E+02  0.14545997216E+03  0.00000000000E+00 0.  1.
<mgrwt>
<rscale>  0 0.17764267E+04</rscale>
<asrwt>0</asrwt>
<pdfrwt beam="1">  1        2 0.16765866E+00 0.17764267E+04</pdfrwt>
<pdfrwt beam="2">  1       -2 0.11137351E+00 0.17764267E+04</pdfrwt>
<totfact> 0.13331866E+01</totfact>
</mgrwt>
</event>
<event>
12    1  0.4612066E-007  0.1476707E+04  0.7818608E-02  0.8900092E-01
         -2   -1    0    0    0  501 -0.00000000000E+00  0.00000000000E+00  0.10953401612E+04  0.10953401612E+04  0.00000000000E+00 0.  1.
          2   -1    0    0  501    0  0.00000000000E+00 -0.00000000000E+00 -0.49771391538E+03  0.49771391538E+03  0.00000000000E+00 0. -1.
         23    2    1    2    0    0  0.34019664703E+03 -0.28464564032E+03  0.17458852054E+03  0.48532421851E+03  0.91112822201E+02 0.  0.
        254    2    1    2    0    0 -0.34019664703E+03  0.28464564032E+03  0.42303772528E+03  0.11077298581E+04  0.92268500705E+03 0.  0.
        -24    2    4    4    0    0  0.57611122349E+02  0.29866444309E+03  0.58979056466E+03  0.66849952320E+03  0.80741633382E+02 0.  0.
         24    2    4    4    0    0 -0.39780776938E+03 -0.14018802778E+02 -0.16675283938E+03  0.43923033486E+03  0.81665350136E+02 0.  0.
         13    1    3    3    0    0  0.24150442315E+03 -0.21752617999E+03  0.16778229222E+03  0.36577714932E+03  0.00000000000E+00 0.  1.
        -13    1    3    3    0    0  0.98692223883E+02 -0.67119460326E+02  0.68062283232E+01  0.11954706920E+03  0.00000000000E+00 0. -1.
          2    1    6    6  502    0 -0.18346878963E+02  0.17560950001E+02 -0.73542123110E+01  0.26440109140E+02  0.00000000000E+00 0. -1.
          3    1    5    5  503    0  0.20851967716E+02  0.21867608939E+02  0.28241596922E+02  0.41359215117E+02  0.00000000000E+00 0. -1.
         -4    1    5    5    0  503  0.36759154633E+02  0.27679683416E+03  0.56154896774E+03  0.62714030808E+03  0.00000000000E+00 0.  1.
         -1    1    6    6    0  502 -0.37946089042E+03 -0.31579752779E+02 -0.15939862707E+03  0.41279022572E+03  0.00000000000E+00 0.  1.
<mgrwt>
<rscale>  0 0.14767072E+04</rscale>
<asrwt>0</asrwt>
<pdfrwt beam="1">  1        2 0.76571372E-01 0.14767072E+04</pdfrwt>
<pdfrwt beam="2">  1       -2 0.16851387E+00 0.14767072E+04</pdfrwt>
<totfact> 0.13072913E+01</totfact>
</mgrwt>
</event>
<event>
12    1  0.4612066E-007  0.2098849E+04  0.7818608E-02  0.8561751E-01
         -4   -1    0    0    0  501 -0.00000000000E+00  0.00000000000E+00  0.18855353145E+04  0.18855353145E+04  0.00000000000E+00 0.  1.
          4   -1    0    0  501    0  0.00000000000E+00 -0.00000000000E+00 -0.58407376337E+03  0.58407376337E+03  0.00000000000E+00 0. -1.
         23    2    1    2    0    0 -0.52338470523E+02  0.80924506542E+03  0.74161239146E+03  0.11027032588E+04  0.91370927881E+02 0.  0.
        254    2    1    2    0    0  0.52338470523E+02 -0.80924506542E+03  0.55984915972E+03  0.13669058191E+04  0.94730330158E+03 0.  0.
        -24    2    4    4    0    0  0.16409322936E+03  0.13747101079E+03 -0.48515016207E+02  0.23327110116E+03  0.78973622870E+02 0.  0.
         24    2    4    4    0    0 -0.11175475884E+03 -0.94671607621E+03  0.60836417593E+03  0.11336347179E+04  0.79121729343E+02 0.  0.
         11    1    3    3    0    0 -0.14345902117E+02  0.40213100551E+03  0.30817831775E+03  0.50684221019E+03  0.00000000000E+00 0. -1.
        -11    1    3    3    0    0 -0.37992568406E+02  0.40711405991E+03  0.43343407371E+03  0.59586104864E+03  0.00000000000E+00 0.  1.
          2    1    6    6  502    0 -0.70001047208E+02 -0.50911561692E+03  0.37300441439E+03  0.63500484341E+03  0.00000000000E+00 0. -1.
          1    1    5    5  503    0  0.14609494160E+03  0.14746437932E+03 -0.44519829359E+02  0.21230047182E+03  0.00000000000E+00 0. -1.
         -2    1    5    5    0  503  0.17998287762E+02 -0.99933685306E+01 -0.39951868488E+01  0.20970629340E+02  0.00000000000E+00 0.  1.
         -1    1    6    6    0  502 -0.41753711628E+02 -0.43760045929E+03  0.23535976154E+03  0.49862987451E+03  0.00000000000E+00 0.  1.
<mgrwt>
<rscale>  0 0.20988489E+04</rscale>
<asrwt>0</asrwt>
<pdfrwt beam="1">  1        4 0.89857503E-01 0.20988489E+04</pdfrwt>
<pdfrwt beam="2">  1       -4 0.29008235E+00 0.20988489E+04</pdfrwt>
<totfact> 0.69786403E-02</totfact>
</mgrwt>
</event>
<event>
12    1  0.5479139E-007  0.2250783E+04  0.7818608E-02  0.8497583E-01
         -2   -1    0    0    0  501 -0.00000000000E+00  0.00000000000E+00  0.10006279785E+04  0.10006279785E+04  0.00000000000E+00 0.  1.
          2   -1    0    0  501    0  0.00000000000E+00 -0.00000000000E+00 -0.12657116104E+04  0.12657116104E+04  0.00000000000E+00 0. -1.
         23    2    1    2    0    0  0.64332168775E+03 -0.25886034899E+03  0.53422339134E+03  0.87992506609E+03  0.89453987483E+02 0.  0.
        254    2    1    2    0    0 -0.64332168775E+03  0.25886034899E+03 -0.79930702325E+03  0.13864145228E+04  0.89575780068E+03 0.  0.
        -24    2    4    4    0    0 -0.56940755920E+03  0.54936360159E+03 -0.43155926896E+03  0.90484041342E+03  0.80420369953E+02 0.  0.
         24    2    4    4    0    0 -0.73914128554E+02 -0.29050325260E+03 -0.36774775430E+03  0.48157410941E+03  0.82581922323E+02 0.  0.
         11    1    3    3    0    0  0.28926169211E+03 -0.71495416128E+02  0.20920202529E+03  0.36407335585E+03  0.00000000000E+00 0.  1.
        -11    1    3    3    0    0  0.35405999564E+03 -0.18736493286E+03  0.32502136605E+03  0.51585171025E+03  0.00000000000E+00 0. -1.
          4    1    6    6  502    0  0.12358064114E+02 -0.97202038512E+01 -0.97816255693E+01  0.18517135586E+02  0.00000000000E+00 0. -1.
          1    1    5    5  503    0 -0.17695264605E+01  0.82305881918E+00 -0.95390937601E+01  0.97366811326E+01  0.00000000000E+00 0. -1.
         -2    1    5    5    0  503 -0.56763803274E+03  0.54854054277E+03 -0.42202017520E+03  0.89510373228E+03  0.00000000000E+00 0.  1.
         -1    1    6    6    0  502 -0.86272192668E+02 -0.28078304875E+03 -0.35796612873E+03  0.46305697383E+03  0.00000000000E+00 0.  1.
<mgrwt>
<rscale>  0 0.22507834E+04</rscale>
<asrwt>0</asrwt>
<pdfrwt beam="1">  1        2 0.19472486E+00 0.22507834E+04</pdfrwt>
<pdfrwt beam="2">  1       -2 0.15394277E+00 0.22507834E+04</pdfrwt>
<totfact> 0.44072023E+00</totfact>
</mgrwt>
</event>
<event>
12    1  0.4612066E-007  0.1654057E+04  0.7818608E-02  0.8788010E-01
          2   -1    0    0  501    0  0.00000000000E+00  0.00000000000E+00  0.24218415747E+04  0.24218415747E+04  0.00000000000E+00 0. -1.
         -2   -1    0    0    0  501 -0.00000000000E+00 -0.00000000000E+00 -0.28241985104E+03  0.28241985104E+03  0.00000000000E+00 0.  1.
         23    2    1    2    0    0  0.47330099321E+03  0.29833753576E+03  0.53068846329E+03  0.77686742195E+03  0.94199951150E+02 0.  0.
        254    2    1    2    0    0 -0.47330099321E+03 -0.29833753576E+03  0.16087332603E+04  0.19273940038E+04  0.90211187077E+03 0.  0.
        -24    2    4    4    0    0 -0.46649347112E+03 -0.42284848916E+03  0.16565024547E+04  0.17739025016E+04  0.79452496222E+02 0.  0.
         24    2    4    4    0    0 -0.68075220870E+01  0.12451095339E+03 -0.47769194374E+02  0.15349150221E+03  0.75686362357E+02 0.  0.
         11    1    3    3    0    0  0.53600499470E+02  0.34740726567E+02  0.10805432401E+03  0.12552158605E+03  0.00000000000E+00 0. -1.
        -11    1    3    3    0    0  0.41970049374E+03  0.26359680920E+03  0.42263413928E+03  0.65134583591E+03  0.00000000000E+00 0.  1.
          4    1    6    6  502    0  0.19999827663E+02  0.31148294459E+02 -0.42290186275E+02  0.56202039193E+02  0.00000000000E+00 0. -1.
          3    1    5    5  503    0 -0.10678997629E+03 -0.61495241548E+02  0.37339716069E+03  0.39320631147E+03  0.00000000000E+00 0. -1.
         -4    1    5    5    0  503 -0.35970349484E+03 -0.36135324761E+03  0.12831052940E+04  0.13806961901E+04  0.00000000000E+00 0.  1.
         -3    1    6    6    0  502 -0.26807349750E+02  0.93362658933E+02 -0.54790080989E+01  0.97289463013E+02  0.00000000000E+00 0.  1.
<mgrwt>
<rscale>  0 0.16540570E+04</rscale>
<asrwt>0</asrwt>
<pdfrwt beam="1">  1        2 0.37259100E+00 0.16540570E+04</pdfrwt>
<pdfrwt beam="2">  1       -2 0.43449210E-01 0.16540570E+04</pdfrwt>
<totfact> 0.18553456E+01</totfact>
</mgrwt>
</event>
<event>
12    1  0.4612066E-007  0.3247528E+04  0.7818608E-02  0.8176377E-01
          2   -1    0    0  501    0  0.00000000000E+00  0.00000000000E+00  0.21120969462E+04  0.21120969462E+04  0.00000000000E+00 0. -1.
         -2   -1    0    0    0  501 -0.00000000000E+00 -0.00000000000E+00 -0.12483371309E+04  0.12483371309E+04  0.00000000000E+00 0.  1.
         23    2    1    2    0    0  0.78109276767E+03  0.12732556080E+04  0.25878805325E+03  0.15181264567E+04  0.80317664158E+02 0.  0.
        254    2    1    2    0    0 -0.78109276767E+03 -0.12732556080E+04  0.60497176205E+03  0.18423076205E+04  0.89264818412E+03 0.  0.
        -24    2    4    4    0    0 -0.24883791914E+03 -0.11154764596E+03  0.47729878831E+03  0.55549155699E+03  0.79959672604E+02 0.  0.
         24    2    4    4    0    0 -0.53225484853E+03 -0.11617079620E+04  0.12767297374E+03  0.12868160635E+04  0.82064488107E+02 0.  0.
         13    1    3    3    0    0  0.64436533233E+02  0.73957329696E+02  0.28659161015E+02  0.10219149153E+03  0.00000000000E+00 0. -1.
        -13    1    3    3    0    0  0.71665623444E+03  0.11992982783E+04  0.23012889223E+03  0.14159349652E+04  0.00000000000E+00 0.  1.
          2    1    6    6  502    0 -0.27383292612E+03 -0.54607761190E+03  0.96089843605E+02  0.61839994153E+03  0.00000000000E+00 0. -1.
          1    1    5    5  503    0 -0.40485110889E+02  0.10703050474E+02  0.57213286604E+02  0.70901055402E+02  0.00000000000E+00 0. -1.
         -2    1    5    5    0  503 -0.20835280825E+03 -0.12225069643E+03  0.42008550171E+03  0.48459050159E+03  0.00000000000E+00 0.  1.
         -1    1    6    6    0  502 -0.25842192241E+03 -0.61563035011E+03  0.31583130135E+02  0.66841612194E+03  0.00000000000E+00 0.  1.
<mgrwt>
<rscale>  0 0.32475277E+04</rscale>
<asrwt>0</asrwt>
<pdfrwt beam="1">  1        2 0.32493799E+00 0.32475277E+04</pdfrwt>
<pdfrwt beam="2">  1       -2 0.19205187E+00 0.32475277E+04</pdfrwt>
<totfact> 0.72871583E-01</totfact>
</mgrwt>
</event>
<event>
12    1  0.4612066E-007  0.1814500E+04  0.7818608E-02  0.8698626E-01
         -1   -1    0    0    0  501 -0.00000000000E+00  0.00000000000E+00  0.50934058688E+03  0.50934058688E+03  0.00000000000E+00 0.  1.
          1   -1    0    0  501    0  0.00000000000E+00 -0.00000000000E+00 -0.16160155462E+04  0.16160155462E+04  0.00000000000E+00 0. -1.
         23    2    1    2    0    0  0.29983982384E+03 -0.16356046414E+02 -0.11391693897E+04  0.11814988871E+04  0.89784641066E+02 0.  0.
        254    2    1    2    0    0 -0.29983982384E+03  0.16356046414E+02  0.32494430299E+02  0.94385724597E+03  0.89422545957E+03 0.  0.
        -24    2    4    4    0    0  0.10956986052E+02 -0.11258768746E+03  0.40946398880E+03  0.43224300082E+03  0.79857440038E+02 0.  0.
         24    2    4    4    0    0 -0.31079680990E+03  0.12894373387E+03 -0.37696955850E+03  0.51161424514E+03  0.80137034219E+02 0.  0.
         11    1    3    3    0    0  0.22963043537E+03 -0.14017106965E+02 -0.99332323821E+03  0.10196164336E+04  0.00000000000E+00 0. -1.
        -11    1    3    3    0    0  0.70209388471E+02 -0.23389394483E+01 -0.14584615145E+03  0.16188245353E+03  0.00000000000E+00 0.  1.
          2    1    6    6  502    0 -0.19838147433E+03  0.62769143675E+02 -0.28108021724E+03  0.34971597516E+03  0.00000000000E+00 0. -1.
          3    1    5    5  503    0 -0.56001444128E+01 -0.10937140494E+03  0.39538800540E+03  0.41027446990E+03  0.00000000000E+00 0. -1.
         -4    1    5    5    0  503  0.16557130464E+02 -0.32162825181E+01  0.14075983397E+02  0.21968530926E+02  0.00000000000E+00 0.  1.
         -1    1    6    6    0  502 -0.11241533557E+03  0.66174590196E+02 -0.95889341255E+02  0.16189826999E+03  0.00000000000E+00 0.  1.
<mgrwt>
<rscale>  0 0.18144997E+04</rscale>
<asrwt>0</asrwt>
<pdfrwt beam="1">  1        1 0.24861777E+00 0.18144997E+04</pdfrwt>
<pdfrwt beam="2">  1       -1 0.78360092E-01 0.18144997E+04</pdfrwt>
<totfact> 0.83578164E+00</totfact>
</mgrwt>
</event>
<event>
12    1  0.4612066E-007  0.1267768E+04  0.7818608E-02  0.9055523E-01
         -2   -1    0    0    0  501 -0.00000000000E+00  0.00000000000E+00  0.71891849186E+03  0.71891849186E+03  0.00000000000E+00 0.  1.
          2   -1    0    0  501    0  0.00000000000E+00 -0.00000000000E+00 -0.55890731700E+03  0.55890731700E+03  0.00000000000E+00 0. -1.
         23    2    1    2    0    0  0.63268501980E+02 -0.80074688934E+02 -0.25999269281E+03  0.29352568752E+03  0.90256688228E+02 0.  0.
        254    2    1    2    0    0 -0.63268501980E+02  0.80074688934E+02  0.42000386766E+03  0.98430012134E+03  0.88432382127E+03 0.  0.
        -24    2    4    4    0    0 -0.22515262069E+03 -0.18480235445E+03 -0.14470207299E+03  0.33497161140E+03  0.80135371109E+02 0.  0.
         24    2    4    4    0    0  0.16188411871E+03  0.26487704338E+03  0.56470594065E+03  0.64932850994E+03  0.79802245690E+02 0.  0.
         11    1    3    3    0    0  0.90943543719E+01 -0.55646337209E+02 -0.20480683331E+03  0.21242660167E+03  0.00000000000E+00 0. -1.
        -11    1    3    3    0    0  0.54174147608E+02 -0.24428351725E+02 -0.55185859492E+02  0.81099085846E+02  0.00000000000E+00 0.  1.
          2    1    6    6  502    0  0.33136346670E+01  0.72293706654E+01 -0.79020555287E+00  0.79917707512E+01  0.00000000000E+00 0. -1.
          1    1    5    5  503    0 -0.71865893862E+02 -0.94651567325E+02 -0.27472577791E+02  0.12197691760E+03  0.00000000000E+00 0. -1.
         -2    1    5    5    0  503 -0.15328672683E+03 -0.90150787121E+02 -0.11722949520E+03  0.21299469379E+03  0.00000000000E+00 0.  1.
         -1    1    6    6    0  502  0.15857048404E+03  0.25764767271E+03  0.56549614620E+03  0.64133673919E+03  0.00000000000E+00 0.  1.
<mgrwt>
<rscale>  0 0.12677678E+04</rscale>
<asrwt>0</asrwt>
<pdfrwt beam="1">  1        2 0.85985741E-01 0.12677678E+04</pdfrwt>
<pdfrwt beam="2">  1       -2 0.11060285E+00 0.12677678E+04</pdfrwt>
<totfact> 0.34399180E+01</totfact>
</mgrwt>
</event>
<event>
12    1  0.4612066E-007  0.1287225E+04  0.7818608E-02  0.9039758E-01
         -1   -1    0    0    0  501 -0.00000000000E+00  0.00000000000E+00  0.21070903701E+03  0.21070903701E+03  0.00000000000E+00 0.  1.
          1   -1    0    0  501    0  0.00000000000E+00 -0.00000000000E+00 -0.19659191797E+04  0.19659191797E+04  0.00000000000E+00 0. -1.
         23    2    1    2    0    0 -0.16849006076E+03 -0.14362091216E+03 -0.68313367092E+02  0.24938220002E+03  0.92243691251E+02 0.  0.
        254    2    1    2    0    0  0.16849006076E+03  0.14362091216E+03 -0.16868967756E+04  0.19272460167E+04  0.90534005232E+03 0.  0.
        -24    2    4    4    0    0 -0.32730773643E+03  0.18088723258E+03 -0.44273310536E+03  0.58507284192E+03  0.80293726590E+02 0.  0.
         24    2    4    4    0    0  0.49579779719E+03 -0.37266320421E+02 -0.12441636702E+04  0.13421731747E+04  0.79255021322E+02 0.  0.
         13    1    3    3    0    0 -0.63208892203E+02 -0.11410576781E+03 -0.34391926061E+02  0.13490105589E+03  0.00000000000E+00 0. -1.
        -13    1    3    3    0    0 -0.10528116856E+03 -0.29515144348E+02 -0.33921441030E+02  0.11448114413E+03  0.00000000000E+00 0.  1.
          4    1    6    6  502    0  0.25987518079E+03 -0.10886352360E+02 -0.54681037533E+03  0.60552060974E+03  0.00000000000E+00 0. -1.
          3    1    5    5  503    0 -0.13539475648E+03  0.31231175449E+02 -0.15253346562E+03  0.20633367281E+03  0.00000000000E+00 0. -1.
         -4    1    5    5    0  503 -0.19191297995E+03  0.14965605713E+03 -0.29019963974E+03  0.37873916910E+03  0.00000000000E+00 0.  1.
         -3    1    6    6    0  502  0.23592261640E+03 -0.26379968060E+02 -0.69735329488E+03  0.73665256501E+03  0.00000000000E+00 0.  1.
<mgrwt>
<rscale>  0 0.12872248E+04</rscale>
<asrwt>0</asrwt>
<pdfrwt beam="1">  1        1 0.30244912E+00 0.12872248E+04</pdfrwt>
<pdfrwt beam="2">  1       -1 0.32416773E-01 0.12872248E+04</pdfrwt>
<totfact> 0.27537662E+01</totfact>
</mgrwt>
</event>
<event>
12    1  0.4612066E-007  0.2402696E+04  0.7818608E-02  0.8438495E-01
         -2   -1    0    0    0  501 -0.00000000000E+00  0.00000000000E+00  0.88703210672E+03  0.88703210672E+03  0.00000000000E+00 0. -1.
          2   -1    0    0  501    0  0.00000000000E+00 -0.00000000000E+00 -0.16270408640E+04  0.16270408640E+04  0.00000000000E+00 0.  1.
         23    2    1    2    0    0  0.28551860493E+03 -0.63012280704E+01 -0.13533162992E+04  0.13860976234E+04  0.90780155766E+02 0.  0.
        254    2    1    2    0    0 -0.28551860493E+03  0.63012280704E+01  0.61330754187E+03  0.11279753474E+04  0.90256393909E+03 0.  0.
        -24    2    4    4    0    0  0.14454944784E+03 -0.43477358584E+02 -0.16216813106E+03  0.23553144301E+03  0.79948322905E+02 0.  0.
         24    2    4    4    0    0 -0.43006805277E+03  0.49778586654E+02  0.77547567293E+03  0.89244390437E+03  0.87505230984E+02 0.  0.
         13    1    3    3    0    0  0.14206218421E+03 -0.28074832024E+02 -0.85146118368E+03  0.86368744792E+03  0.00000000000E+00 0.  1.
        -13    1    3    3    0    0  0.14345642072E+03  0.21773603953E+02 -0.50185511548E+03  0.52241017544E+03  0.00000000000E+00 0. -1.
          4    1    6    6  502    0 -0.32302420499E+03 -0.57096043830E+00  0.58360333315E+03  0.66703659081E+03  0.00000000000E+00 0. -1.
          1    1    5    5  503    0  0.13274263679E+03 -0.10678107316E+02 -0.14429844763E+03  0.19635852817E+03  0.00000000000E+00 0. -1.
         -2    1    5    5    0  503  0.11806811051E+02 -0.32799251268E+02 -0.17869683421E+02  0.39172914833E+02  0.00000000000E+00 0.  1.
         -3    1    6    6    0  502 -0.10704384777E+03  0.50349547092E+02  0.19187233977E+03  0.22540731356E+03  0.00000000000E+00 0.  1.
<mgrwt>
<rscale>  0 0.24026964E+04</rscale>
<asrwt>0</asrwt>
<pdfrwt beam="1">  1        2 0.25031398E+00 0.24026964E+04</pdfrwt>
<pdfrwt beam="2">  1       -2 0.13646648E+00 0.24026964E+04</pdfrwt>
<totfact> 0.37163105E+00</totfact>
</mgrwt>
</event>
<event>
12    1  0.4612066E-007  0.1345136E+04  0.7818608E-02  0.8994519E-01
         -1   -1    0    0    0  501 -0.00000000000E+00  0.00000000000E+00  0.25557665073E+03  0.25557665073E+03  0.00000000000E+00 0.  1.
          1   -1    0    0  501    0  0.00000000000E+00 -0.00000000000E+00 -0.17699090827E+04  0.17699090827E+04  0.00000000000E+00 0. -1.
         23    2    1    2    0    0 -0.16105258283E+03 -0.18536942342E+03 -0.18721612974E+02  0.26268167440E+03  0.91386025732E+02 0.  0.
        254    2    1    2    0    0  0.16105258283E+03  0.18536942342E+03 -0.14956108190E+04  0.17628040591E+04  0.90018146563E+03 0.  0.
        -24    2    4    4    0    0  0.31145082031E+03  0.42391529323E+03 -0.51920632707E+03  0.74337335491E+03  0.79516950526E+02 0.  0.
         24    2    4    4    0    0 -0.15039823748E+03 -0.23854586981E+03 -0.97640449196E+03  0.10194307042E+04  0.79683541584E+02 0.  0.
         11    1    3    3    0    0 -0.12413084714E+03 -0.11105779817E+03  0.25747480856E+02  0.16853852532E+03  0.00000000000E+00 0.  1.
        -11    1    3    3    0    0 -0.36921735696E+02 -0.74311625248E+02 -0.44469093830E+02  0.94143149086E+02  0.00000000000E+00 0. -1.
          2    1    6    6  502    0 -0.33065666330E+02 -0.83408690730E+02 -0.20305335437E+03  0.22199327175E+03  0.00000000000E+00 0. -1.
          3    1    5    5  503    0  0.35558756933E+01  0.25418805422E+02 -0.11010826573E+02  0.27928448271E+02  0.00000000000E+00 0. -1.
         -4    1    5    5    0  503  0.30789494462E+03  0.39849648780E+03 -0.50819550050E+03  0.71544490664E+03  0.00000000000E+00 0.  1.
         -1    1    6    6    0  502 -0.11733257115E+03 -0.15513717908E+03 -0.77335113759E+03  0.79743743240E+03  0.00000000000E+00 0.  1.
<mgrwt>
<rscale>  0 0.13451356E+04</rscale>
<asrwt>0</asrwt>
<pdfrwt beam="1">  1        1 0.27229370E+00 0.13451356E+04</pdfrwt>
<pdfrwt beam="2">  1       -1 0.39319485E-01 0.13451356E+04</pdfrwt>
<totfact> 0.26292688E+01</totfact>
</mgrwt>
</event>
<event>
12    1  0.4612066E-007  0.2221156E+04  0.7818608E-02  0.8509674E-01
         -1   -1    0    0    0  501 -0.00000000000E+00  0.00000000000E+00  0.79403444364E+03  0.79403444364E+03  0.00000000000E+00 0.  1.
          1   -1    0    0  501    0  0.00000000000E+00 -0.00000000000E+00 -0.15533117129E+04  0.15533117129E+04  0.00000000000E+00 0. -1.
         23    2    1    2    0    0  0.75034629018E+03  0.47079875585E+03 -0.59149749429E+03  0.10689163495E+04  0.89676378511E+02 0.  0.
        254    2    1    2    0    0 -0.75034629018E+03 -0.47079875585E+03 -0.16777977492E+03  0.12784298070E+04  0.90640040531E+03 0.  0.
        -24    2    4    4    0    0 -0.50198447764E+03 -0.41685628682E+03 -0.52005157897E+03  0.83828317466E+03  0.80668807332E+02 0.  0.
         24    2    4    4    0    0 -0.24836181254E+03 -0.53942469036E+02  0.35227180404E+03  0.44014663230E+03  0.70994747037E+02 0.  0.
         11    1    3    3    0    0  0.37139215627E+02  0.47671151009E+02 -0.50726311615E+02  0.78898787481E+02  0.00000000000E+00 0. -1.
        -11    1    3    3    0    0  0.71320707455E+03  0.42312760484E+03 -0.54077118267E+03  0.99001756206E+03  0.00000000000E+00 0.  1.
          4    1    6    6  502    0 -0.80374082283E+01 -0.18611843462E+02  0.19320013438E+02  0.28004706164E+02  0.00000000000E+00 0. -1.
          1    1    5    5  503    0 -0.87037013744E+02 -0.38658475927E+02 -0.61360387777E+02  0.11329173275E+03  0.00000000000E+00 0. -1.
         -2    1    5    5    0  503 -0.41494746389E+03 -0.37819781089E+03 -0.45869119119E+03  0.72499144190E+03  0.00000000000E+00 0.  1.
         -3    1    6    6    0  502 -0.24032440431E+03 -0.35330625573E+02  0.33295179061E+03  0.41214192614E+03  0.00000000000E+00 0.  1.
<mgrwt>
<rscale>  0 0.22211556E+04</rscale>
<asrwt>0</asrwt>
<pdfrwt beam="1">  1        1 0.23897103E+00 0.22211556E+04</pdfrwt>
<pdfrwt beam="2">  1       -1 0.12215915E+00 0.22211556E+04</pdfrwt>
<totfact> 0.32398701E+00</totfact>
</mgrwt>
</event>
<event>
12    1  0.4612066E-007  0.2445529E+04  0.7818608E-02  0.8422652E-01
          2   -1    0    0  501    0  0.00000000000E+00  0.00000000000E+00  0.21668246054E+04  0.21668246054E+04  0.00000000000E+00 0. -1.
         -2   -1    0    0    0  501 -0.00000000000E+00 -0.00000000000E+00 -0.69002045719E+03  0.69002045719E+03  0.00000000000E+00 0.  1.
         23    2    1    2    0    0 -0.37621523831E+02  0.10422892520E+04  0.44818829275E+03  0.11383856150E+04  0.85245519987E+02 0.  0.
        254    2    1    2    0    0  0.37621523831E+02 -0.10422892520E+04  0.10286158555E+04  0.17184594476E+04  0.89848207048E+03 0.  0.
        -24    2    4    4    0    0 -0.35837472596E+03 -0.28615456958E+03  0.14524857325E+03  0.48764701964E+03  0.79909860697E+02 0.  0.
         24    2    4    4    0    0  0.39599624979E+03 -0.75613468247E+03  0.88336728223E+03  0.12308124280E+04  0.77516383165E+02 0.  0.
         11    1    3    3    0    0 -0.25768568930E+02  0.10177130725E+04  0.44451455548E+03  0.11108542241E+04  0.00000000000E+00 0.  1.
        -11    1    3    3    0    0 -0.11852954901E+02  0.24576179550E+02  0.36737372634E+01  0.27531390932E+02  0.00000000000E+00 0. -1.
          4    1    6    6  502    0  0.11426768427E+03 -0.18000528234E+03  0.18076997596E+03  0.27952958618E+03  0.00000000000E+00 0. -1.
          3    1    5    5  503    0 -0.62628594482E+02 -0.27290235102E+02 -0.89167270637E+00  0.68321979325E+02  0.00000000000E+00 0. -1.
         -4    1    5    5    0  503 -0.29574613148E+03 -0.25886433448E+03  0.14614024595E+03  0.41932504032E+03  0.00000000000E+00 0.  1.
         -3    1    6    6    0  502  0.28172856552E+03 -0.57612940012E+03  0.70259730626E+03  0.95128284179E+03  0.00000000000E+00 0.  1.
<mgrwt>
<rscale>  0 0.24455292E+04</rscale>
<asrwt>0</asrwt>
<pdfrwt beam="1">  1        2 0.33335763E+00 0.24455292E+04</pdfrwt>
<pdfrwt beam="2">  1       -2 0.10615699E+00 0.24455292E+04</pdfrwt>
<totfact> 0.34571269E+00</totfact>
</mgrwt>
</event>
<event>
12    1  0.4612066E-007  0.1442073E+04  0.7818608E-02  0.8923915E-01
          2   -1    0    0  501    0  0.00000000000E+00  0.00000000000E+00  0.16803979533E+04  0.16803979533E+04  0.00000000000E+00 0. -1.
         -2   -1    0    0    0  501 -0.00000000000E+00 -0.00000000000E+00 -0.30938719925E+03  0.30938719925E+03  0.00000000000E+00 0.  1.
         23    2    1    2    0    0 -0.10044433022E+03  0.41842246876E+03  0.43232265574E+03  0.61688673215E+03  0.92086566846E+02 0.  0.
        254    2    1    2    0    0  0.10044433022E+03 -0.41842246876E+03  0.93868809834E+03  0.13728984204E+04  0.90473659206E+03 0.  0.
        -24    2    4    4    0    0 -0.29665858044E+03 -0.46861835829E+03  0.71213474634E+03  0.90617793726E+03  0.80081695458E+02 0.  0.
         24    2    4    4    0    0  0.39710291066E+03  0.50195889529E+02  0.22655335200E+03  0.46672048318E+03  0.79317331853E+02 0.  0.
         11    1    3    3    0    0 -0.10894937039E+02  0.20287590678E+03  0.24002559568E+03  0.31446719985E+03  0.00000000000E+00 0. -1.
        -11    1    3    3    0    0 -0.89549393185E+02  0.21554656199E+03  0.19229706006E+03  0.30241953229E+03  0.00000000000E+00 0.  1.
          4    1    6    6  502    0  0.29574365724E+03  0.19367288827E+01  0.16149738677E+03  0.33697101900E+03  0.00000000000E+00 0. -1.
          1    1    5    5  503    0 -0.24930886722E+03 -0.33104466210E+03  0.51068042905E+03  0.65767771757E+03  0.00000000000E+00 0. -1.
         -2    1    5    5    0  503 -0.47349713211E+02 -0.13757369619E+03  0.20145431730E+03  0.24850021968E+03  0.00000000000E+00 0.  1.
         -3    1    6    6    0  502  0.10135925342E+03  0.48259160646E+02  0.65055965236E+02  0.12974946417E+03  0.00000000000E+00 0.  1.
<mgrwt>
<rscale>  0 0.14420730E+04</rscale>
<asrwt>0</asrwt>
<pdfrwt beam="1">  1        2 0.25852276E+00 0.14420730E+04</pdfrwt>
<pdfrwt beam="2">  1       -2 0.47598032E-01 0.14420730E+04</pdfrwt>
<totfact> 0.40810647E+01</totfact>
</mgrwt>
</event>
<event>
12    1  0.4612066E-007  0.1237258E+04  0.7818608E-02  0.9080856E-01
          2   -1    0    0  501    0  0.00000000000E+00  0.00000000000E+00  0.16815451136E+04  0.16815451136E+04  0.00000000000E+00 0. -1.
         -2   -1    0    0    0  501 -0.00000000000E+00 -0.00000000000E+00 -0.22758939024E+03  0.22758939024E+03  0.00000000000E+00 0.  1.
         23    2    1    2    0    0  0.10839220002E+03  0.14078753009E+03  0.13601724786E+02  0.19983912913E+03  0.90447072693E+02 0.  0.
        254    2    1    2    0    0 -0.10839220002E+03 -0.14078753009E+03  0.14403539986E+04  0.17092953747E+04  0.90305096156E+03 0.  0.
        -24    2    4    4    0    0  0.49041827275E+02 -0.49930025924E+03  0.66495631355E+03  0.83693129728E+03  0.81124889775E+02 0.  0.
         24    2    4    4    0    0 -0.15743402729E+03  0.35851272915E+03  0.77539768503E+03  0.87236407744E+03  0.80378254189E+02 0.  0.
         11    1    3    3    0    0  0.51348817456E+02  0.11331166086E+02 -0.16682376627E+02  0.55167001631E+02  0.00000000000E+00 0. -1.
        -11    1    3    3    0    0  0.57043382563E+02  0.12945636401E+03  0.30284101414E+02  0.14467212750E+03  0.00000000000E+00 0.  1.
          2    1    6    6  502    0 -0.13911202780E+03  0.22331811273E+03  0.49780299635E+03  0.56305502300E+03  0.00000000000E+00 0. -1.
          3    1    5    5  503    0  0.65490567902E+02 -0.30492073753E+03  0.43748132349E+03  0.53726676712E+03  0.00000000000E+00 0. -1.
         -4    1    5    5    0  503 -0.16448740627E+02 -0.19437952171E+03  0.22747499006E+03  0.29966453016E+03  0.00000000000E+00 0.  1.
         -1    1    6    6    0  502 -0.18321999490E+02  0.13519461642E+03  0.27759468868E+03  0.30930905444E+03  0.00000000000E+00 0.  1.
<mgrwt>
<rscale>  0 0.12372580E+04</rscale>
<asrwt>0</asrwt>
<pdfrwt beam="1">  1        2 0.25869924E+00 0.12372580E+04</pdfrwt>
<pdfrwt beam="2">  1       -2 0.35013753E-01 0.12372580E+04</pdfrwt>
<totfact> 0.75649991E+01</totfact>
</mgrwt>
</event>
<event>
12    1  0.4612066E-007  0.2319348E+04  0.7818608E-02  0.8470331E-01
          2   -1    0    0  501    0  0.00000000000E+00  0.00000000000E+00  0.24453981092E+04  0.24453981092E+04  0.00000000000E+00 0. -1.
         -2   -1    0    0    0  501 -0.00000000000E+00 -0.00000000000E+00 -0.54994892178E+03  0.54994892178E+03  0.00000000000E+00 0.  1.
         23    2    1    2    0    0  0.61273198428E+03 -0.15974990760E+03 -0.16201031329E+03  0.65994327940E+03  0.91199083718E+02 0.  0.
        254    2    1    2    0    0 -0.61273198428E+03  0.15974990760E+03  0.20574595007E+04  0.23354037515E+04  0.90554434917E+03 0.  0.
        -24    2    4    4    0    0 -0.16971975188E+03  0.32673809013E+03  0.22003211716E+03  0.43614585181E+03  0.79034788211E+02 0.  0.
         24    2    4    4    0    0 -0.44301223240E+03 -0.16698818253E+03  0.18374273835E+04  0.18992578997E+04  0.83043897438E+02 0.  0.
         13    1    3    3    0    0  0.58238989815E+03 -0.13915241445E+03 -0.13348233133E+03  0.61348098641E+03  0.00000000000E+00 0.  1.
        -13    1    3    3    0    0  0.30342086135E+02 -0.20597493157E+02 -0.28527981952E+02  0.46462292987E+02  0.00000000000E+00 0. -1.
          4    1    6    6  502    0 -0.34144106784E+03 -0.12754030346E+03  0.12608665231E+04  0.13124911127E+04  0.00000000000E+00 0. -1.
          1    1    5    5  503    0 -0.30368390438E+02  0.62348146117E+02  0.82273442099E+01  0.69837093688E+02  0.00000000000E+00 0. -1.
         -2    1    5    5    0  503 -0.13935136144E+03  0.26438994401E+03  0.21180477295E+03  0.36630875812E+03  0.00000000000E+00 0.  1.
         -3    1    6    6    0  502 -0.10157116456E+03 -0.39447879066E+02  0.57656086036E+03  0.58676678700E+03  0.00000000000E+00 0.  1.
<mgrwt>
<rscale>  0 0.23193482E+04</rscale>
<asrwt>0</asrwt>
<pdfrwt beam="1">  1        2 0.37621509E+00 0.23193482E+04</pdfrwt>
<pdfrwt beam="2">  1       -2 0.84607528E-01 0.23193482E+04</pdfrwt>
<totfact> 0.41259718E+00</totfact>
</mgrwt>
</event>
<event>
12    1  0.4612066E-007  0.3449980E+04  0.7818608E-02  0.8125747E-01
         -2   -1    0    0    0  501 -0.00000000000E+00  0.00000000000E+00  0.16439869722E+04  0.16439869722E+04  0.00000000000E+00 0.  1.
          2   -1    0    0  501    0  0.00000000000E+00 -0.00000000000E+00 -0.18099845491E+04  0.18099845491E+04  0.00000000000E+00 0. -1.
         23    2    1    2    0    0  0.18461308931E+03 -0.15695499017E+04  0.20343573274E+03  0.15959786119E+04  0.90513786240E+02 0.  0.
        254    2    1    2    0    0 -0.18461308931E+03  0.15695499017E+04 -0.36943330966E+03  0.18579929095E+04  0.90448205879E+03 0.  0.
        -24    2    4    4    0    0 -0.22108525856E+03  0.30866178965E+03  0.23958373683E+03  0.45498451012E+03  0.73890090990E+02 0.  0.
         24    2    4    4    0    0  0.36472169248E+02  0.12608881120E+04 -0.60901704649E+03  0.14030083994E+04  0.79760613734E+02 0.  0.
         13    1    3    3    0    0  0.15038508794E+03 -0.12743890580E+04  0.12928777774E+03  0.12897280626E+04  0.00000000000E+00 0. -1.
        -13    1    3    3    0    0  0.34228001375E+02 -0.29516084367E+03  0.74147954996E+02  0.30625054930E+03  0.00000000000E+00 0.  1.
          4    1    6    6  502    0 -0.22239264278E+02  0.21725596159E+03 -0.11611765546E+03  0.24734196497E+03  0.00000000000E+00 0. -1.
          3    1    5    5  503    0 -0.81241635659E+02  0.92361080137E+02  0.40697694032E+02  0.12956494429E+03  0.00000000000E+00 0. -1.
         -4    1    5    5    0  503 -0.13984362290E+03  0.21630070952E+03  0.19888604280E+03  0.32541956583E+03  0.00000000000E+00 0.  1.
         -3    1    6    6    0  502  0.58711433527E+02  0.10436321505E+04 -0.49289939103E+03  0.11556664344E+04  0.00000000000E+00 0.  1.
<mgrwt>
<rscale>  0 0.34499803E+04</rscale>
<asrwt>0</asrwt>
<pdfrwt beam="1">  1        2 0.27845916E+00 0.34499803E+04</pdfrwt>
<pdfrwt beam="2">  1       -2 0.25292107E+00 0.34499803E+04</pdfrwt>
<totfact> 0.43341749E-01</totfact>
</mgrwt>
</event>
<event>
12    1  0.4612066E-007  0.3217043E+04  0.7818608E-02  0.8184331E-01
         -2   -1    0    0    0  501 -0.00000000000E+00  0.00000000000E+00  0.12019574176E+04  0.12019574176E+04  0.00000000000E+00 0. -1.
          2   -1    0    0  501    0  0.00000000000E+00 -0.00000000000E+00 -0.21526060470E+04  0.21526060470E+04  0.00000000000E+00 0.  1.
         23    2    1    2    0    0  0.66700020571E+02 -0.14499649959E+04 -0.74531062637E+03  0.16350766522E+04  0.10554784039E+03 0.  0.
        254    2    1    2    0    0 -0.66700020571E+02  0.14499649959E+04 -0.20533800295E+03  0.17194868124E+04  0.89867893073E+03 0.  0.
        -24    2    4    4    0    0  0.96308727717E+02  0.15073964957E+04 -0.14318675526E+03  0.15192931575E+04  0.78928354236E+02 0.  0.
         24    2    4    4    0    0 -0.16300874829E+03 -0.57431499813E+02 -0.62151247694E+02  0.20019365496E+03  0.79652323920E+02 0.  0.
         13    1    3    3    0    0  0.78852384694E+02 -0.71980349060E+03 -0.40074761631E+03  0.82760704180E+03  0.00000000000E+00 0. -1.
        -13    1    3    3    0    0 -0.12152364123E+02 -0.73016150531E+03 -0.34456301006E+03  0.80746961038E+03  0.00000000000E+00 0.  1.
          2    1    6    6  502    0 -0.42076202538E+02 -0.12201893157E+02 -0.55773515200E+02  0.70922337908E+02  0.00000000000E+00 0. -1.
          3    1    5    5  503    0  0.24112211621E+02  0.37717554701E+03 -0.15699144948E+01  0.37794874870E+03  0.00000000000E+00 0. -1.
         -4    1    5    5    0  503  0.72196516096E+02  0.11302209487E+04 -0.14161684076E+03  0.11413444088E+04  0.00000000000E+00 0.  1.
         -1    1    6    6    0  502 -0.12093254575E+03 -0.45229606656E+02 -0.63777324947E+01  0.12927131705E+03  0.00000000000E+00 0.  1.
<mgrwt>
<rscale>  0 0.32170426E+04</rscale>
<asrwt>0</asrwt>
<pdfrwt beam="1">  1        2 0.33117016E+00 0.32170426E+04</pdfrwt>
<pdfrwt beam="2">  1       -2 0.18491653E+00 0.32170426E+04</pdfrwt>
<totfact> 0.77458685E-01</totfact>
</mgrwt>
</event>
<event>
12    1  0.4612066E-007  0.1889064E+04  0.7818608E-02  0.8660319E-01
         -2   -1    0    0    0  501 -0.00000000000E+00  0.00000000000E+00  0.76585179788E+03  0.76585179788E+03  0.00000000000E+00 0.  1.
          2   -1    0    0  501    0  0.00000000000E+00 -0.00000000000E+00 -0.11648997885E+04  0.11648997885E+04  0.00000000000E+00 0. -1.
         23    2    1    2    0    0  0.68823965557E+03 -0.20344822987E+03 -0.79995469782E+02  0.72796175300E+03  0.92000178836E+02 0.  0.
        254    2    1    2    0    0 -0.68823965557E+03  0.20344822987E+03 -0.31905252079E+03  0.12027898333E+04  0.91095766445E+03 0.  0.
        -24    2    4    4    0    0 -0.69044027750E+03 -0.86120501733E+02 -0.49248836448E+03  0.85610206623E+03  0.79002791303E+02 0.  0.
         24    2    4    4    0    0  0.22006219325E+01  0.28956873161E+03  0.17343584369E+03  0.34668776711E+03  0.79104506372E+02 0.  0.
         13    1    3    3    0    0  0.16488272335E+03 -0.72537909530E+02 -0.53158462233E+02  0.18781342573E+03  0.00000000000E+00 0. -1.
        -13    1    3    3    0    0  0.52335693221E+03 -0.13091032035E+03 -0.26837007549E+02  0.54014832726E+03  0.00000000000E+00 0.  1.
          2    1    6    6  502    0  0.16145371759E+02  0.14514562108E+03  0.44736395994E+02  0.15273922048E+03  0.00000000000E+00 0. -1.
          1    1    5    5  503    0 -0.26327294225E+03 -0.43856652543E+02 -0.14445523003E+03  0.30348535645E+03  0.00000000000E+00 0. -1.
         -2    1    5    5    0  503 -0.42716733525E+03 -0.42263849190E+02 -0.34803313445E+03  0.55261670978E+03  0.00000000000E+00 0.  1.
         -1    1    6    6    0  502 -0.13944749826E+02  0.14442311053E+03  0.12869944770E+03  0.19394854663E+03  0.00000000000E+00 0.  1.
<mgrwt>
<rscale>  0 0.18890639E+04</rscale>
<asrwt>0</asrwt>
<pdfrwt beam="1">  1        2 0.17921535E+00 0.18890639E+04</pdfrwt>
<pdfrwt beam="2">  1       -2 0.11782335E+00 0.18890639E+04</pdfrwt>
<totfact> 0.10358290E+01</totfact>
</mgrwt>
</event>
<event>
12    1  0.4612066E-007  0.1779514E+04  0.7818608E-02  0.8717270E-01
         -2   -1    0    0    0  501 -0.00000000000E+00  0.00000000000E+00  0.49549858060E+03  0.49549858060E+03  0.00000000000E+00 0.  1.
          2   -1    0    0  501    0  0.00000000000E+00 -0.00000000000E+00 -0.15977197855E+04  0.15977197855E+04  0.00000000000E+00 0. -1.
         23    2    1    2    0    0  0.46141584173E+03  0.36226749850E+03 -0.72665543486E+02  0.59823333655E+03  0.91981108308E+02 0.  0.
        254    2    1    2    0    0 -0.46141584173E+03 -0.36226749850E+03 -0.10295556614E+04  0.14949850295E+04  0.91151141470E+03 0.  0.
        -24    2    4    4    0    0 -0.30992333779E+03  0.28538280660E+02  0.57923921405E+02  0.32672858791E+03  0.80805202320E+02 0.  0.
         24    2    4    4    0    0 -0.15149250394E+03 -0.39080577916E+03 -0.10874795828E+04  0.11682564416E+04  0.80821621952E+02 0.  0.
         11    1    3    3    0    0  0.39883482501E+03  0.34122602726E+03 -0.82995874441E+02  0.53140637415E+03  0.00000000000E+00 0.  1.
        -11    1    3    3    0    0  0.62581016719E+02  0.21041471241E+02  0.10330330955E+02  0.66826962397E+02  0.00000000000E+00 0. -1.
          2    1    6    6  502    0 -0.14454819173E+03 -0.31472574414E+03 -0.82144210043E+03  0.89146710434E+03  0.00000000000E+00 0. -1.
          1    1    5    5  503    0 -0.28750328456E+03  0.27161700797E+02  0.75173301178E+02  0.29840730861E+03  0.00000000000E+00 0. -1.
         -2    1    5    5    0  503 -0.22420053226E+02  0.13765798625E+01 -0.17249379773E+02  0.28321279303E+02  0.00000000000E+00 0.  1.
         -1    1    6    6    0  502 -0.69443122153E+01 -0.76080035021E+02 -0.26603748238E+03  0.27678933728E+03  0.00000000000E+00 0.  1.
<mgrwt>
<rscale>  0 0.17795144E+04</rscale>
<asrwt>0</asrwt>
<pdfrwt beam="1">  1        2 0.24580304E+00 0.17795144E+04</pdfrwt>
<pdfrwt beam="2">  1       -2 0.76230551E-01 0.17795144E+04</pdfrwt>
<totfact> 0.16287246E+01</totfact>
</mgrwt>
</event>
<event>
12    1  0.4612066E-007  0.1461980E+04  0.7818608E-02  0.8910137E-01
         -2   -1    0    0    0  501 -0.00000000000E+00  0.00000000000E+00  0.15223041895E+03  0.15223041895E+03  0.00000000000E+00 0.  1.
          2   -1    0    0  501    0  0.00000000000E+00 -0.00000000000E+00 -0.35101177711E+04  0.35101177711E+04  0.00000000000E+00 0. -1.
         23    2    1    2    0    0  0.22132295381E+03 -0.21479551891E+03 -0.23974711407E+03  0.40190203245E+03  0.94475394429E+02 0.  0.
        254    2    1    2    0    0 -0.22132295381E+03  0.21479551891E+03 -0.31181402380E+04  0.32604461576E+04  0.90143753939E+03 0.  0.
        -24    2    4    4    0    0  0.29229762565E+03  0.29724619075E+03 -0.12974701776E+04  0.13652230591E+04  0.81313833342E+02 0.  0.
         24    2    4    4    0    0 -0.51362057946E+03 -0.82450671831E+02 -0.18206700604E+04  0.18952230985E+04  0.80168017169E+02 0.  0.
         11    1    3    3    0    0  0.13636858471E+03 -0.18975724682E+03 -0.18173631228E+03  0.29602751699E+03  0.00000000000E+00 0. -1.
        -11    1    3    3    0    0  0.84954369102E+02 -0.25038272099E+02 -0.58010801785E+02  0.10587451546E+03  0.00000000000E+00 0.  1.
          4    1    6    6  502    0 -0.24695095304E+03 -0.59222135729E+02 -0.76042455133E+03  0.80170913231E+03  0.00000000000E+00 0. -1.
          3    1    5    5  503    0  0.26937514888E+03  0.25940860766E+03 -0.12197706475E+04  0.12758119882E+04  0.00000000000E+00 0. -1.
         -4    1    5    5    0  503  0.22922476773E+02  0.37837583085E+02 -0.77699530067E+02  0.89411070946E+02  0.00000000000E+00 0.  1.
         -3    1    6    6    0  502 -0.26666962642E+03 -0.23228536102E+02 -0.10602455091E+04  0.10935139661E+04  0.00000000000E+00 0.  1.
<mgrwt>
<rscale>  0 0.14619804E+04</rscale>
<asrwt>0</asrwt>
<pdfrwt beam="1">  1        2 0.54001811E+00 0.14619804E+04</pdfrwt>
<pdfrwt beam="2">  1       -2 0.23420065E-01 0.14619804E+04</pdfrwt>
<totfact> 0.12704504E+01</totfact>
</mgrwt>
</event>
<event>
12    1  0.4612066E-007  0.1609685E+04  0.7818608E-02  0.8814620E-01
          2   -1    0    0  501    0  0.00000000000E+00  0.00000000000E+00  0.12067113211E+04  0.12067113211E+04  0.00000000000E+00 0. -1.
         -2   -1    0    0    0  501 -0.00000000000E+00 -0.00000000000E+00 -0.53680698158E+03  0.53680698158E+03  0.00000000000E+00 0.  1.
         23    2    1    2    0    0  0.54452220937E+03 -0.45208680066E+02  0.25747338987E+03  0.60648451029E+03  0.54613674900E+02 0.  0.
        254    2    1    2    0    0 -0.54452220937E+03  0.45208680066E+02  0.41243094965E+03  0.11370337924E+04  0.90785367520E+03 0.  0.
        -24    2    4    4    0    0 -0.35928153158E+02  0.38234586508E+03  0.33641396922E+03  0.51683301592E+03  0.80391634689E+02 0.  0.
         24    2    4    4    0    0 -0.50859405621E+03 -0.33713718501E+03  0.76016980429E+02  0.62020077648E+03  0.80876611610E+02 0.  0.
         11    1    3    3    0    0  0.50660904999E+03 -0.30093018071E+02  0.22936053570E+03  0.55692420903E+03  0.00000000000E+00 0.  1.
        -11    1    3    3    0    0  0.37913159377E+02 -0.15115661996E+02  0.28112854171E+02  0.49560301262E+02  0.00000000000E+00 0. -1.
          2    1    6    6  502    0 -0.33023472347E+03 -0.20448345270E+03  0.10873043164E+02  0.38857004270E+03  0.00000000000E+00 0. -1.
          3    1    5    5  503    0 -0.27719741130E+02  0.23452362583E+03  0.25624854995E+03  0.34847243001E+03  0.00000000000E+00 0. -1.
         -4    1    5    5    0  503 -0.82084120286E+01  0.14782223924E+03  0.80165419270E+02  0.16836058591E+03  0.00000000000E+00 0.  1.
         -1    1    6    6    0  502 -0.17835933274E+03 -0.13265373231E+03  0.65143937265E+02  0.23163073378E+03  0.00000000000E+00 0.  1.
<mgrwt>
<rscale>  0 0.16096845E+04</rscale>
<asrwt>0</asrwt>
<pdfrwt beam="1">  1        2 0.18564790E+00 0.16096845E+04</pdfrwt>
<pdfrwt beam="2">  1       -2 0.82585690E-01 0.16096845E+04</pdfrwt>
<totfact> 0.23136865E+01</totfact>
</mgrwt>
</event>
<event>
12    1  0.4612066E-007  0.2968248E+04  0.7818608E-02  0.8252857E-01
          1   -1    0    0  501    0  0.00000000000E+00  0.00000000000E+00  0.41323276857E+04  0.41323276857E+04  0.00000000000E+00 0. -1.
         -1   -1    0    0    0  501 -0.00000000000E+00 -0.00000000000E+00 -0.53302244241E+03  0.53302244241E+03  0.00000000000E+00 0.  1.
         23    2    1    2    0    0 -0.98382176528E+03  0.30848117015E+03  0.29891826611E+04  0.31632794589E+04  0.89766671814E+02 0.  0.
        254    2    1    2    0    0  0.98382176528E+03 -0.30848117015E+03  0.61012258218E+03  0.15020706692E+04  0.90603577849E+03 0.  0.
        -24    2    4    4    0    0  0.39308164439E+02  0.21691849282E+02 -0.19549649683E+03  0.21502585917E+03  0.77469811682E+02 0.  0.
         24    2    4    4    0    0  0.94451360084E+03 -0.33017301943E+03  0.80561907901E+03  0.12870448101E+04  0.79637162908E+02 0.  0.
         11    1    3    3    0    0 -0.42083723988E+03  0.16756445845E+03  0.13989463243E+04  0.14704532120E+04  0.00000000000E+00 0. -1.
        -11    1    3    3    0    0 -0.56298452540E+03  0.14091671170E+03  0.15902363368E+04  0.16928262470E+04  0.00000000000E+00 0.  1.
          2    1    6    6  502    0  0.35686770233E+03 -0.13825375692E+03  0.26171037788E+03  0.46363884669E+03  0.00000000000E+00 0. -1.
          1    1    5    5  503    0 -0.12615001247E+02  0.24327420645E+02 -0.12174765238E+03  0.12479363971E+03  0.00000000000E+00 0. -1.
         -2    1    5    5    0  503  0.51923165686E+02 -0.26355713627E+01 -0.73748844452E+02  0.90232219463E+02  0.00000000000E+00 0.  1.
         -1    1    6    6    0  502  0.58764589851E+03 -0.19191926251E+03  0.54390870113E+03  0.82340596338E+03  0.00000000000E+00 0.  1.
<mgrwt>
<rscale>  0 0.29682476E+04</rscale>
<asrwt>0</asrwt>
<pdfrwt beam="1">  1        1 0.63574270E+00 0.29682476E+04</pdfrwt>
<pdfrwt beam="2">  1       -1 0.82003455E-01 0.29682476E+04</pdfrwt>
<totfact> 0.92142263E-02</totfact>
</mgrwt>
</event>
<event>
12    1  0.4612066E-007  0.1495219E+04  0.7818608E-02  0.8887639E-01
          2   -1    0    0  501    0  0.00000000000E+00  0.00000000000E+00  0.59826103169E+03  0.59826103169E+03  0.00000000000E+00 0. -1.
         -2   -1    0    0    0  501 -0.00000000000E+00 -0.00000000000E+00 -0.93424058358E+03  0.93424058358E+03  0.00000000000E+00 0.  1.
         23    2    1    2    0    0 -0.13983612817E+03  0.30701963040E+03 -0.44006670869E+03  0.56279878014E+03  0.96273374456E+02 0.  0.
        254    2    1    2    0    0  0.13983612817E+03 -0.30701963040E+03  0.10408715681E+03  0.96970283514E+03  0.90314686296E+03 0.  0.
        -24    2    4    4    0    0 -0.22607029349E+03 -0.34734536747E+03  0.32560313005E+03  0.53270443739E+03  0.77459908421E+02 0.  0.
         24    2    4    4    0    0  0.36590642166E+03  0.40325737072E+02 -0.22151597324E+03  0.43699839775E+03  0.79903684233E+02 0.  0.
         11    1    3    3    0    0  0.60383924819E+01 -0.39476582809E+01 -0.11454373240E+02  0.13536944116E+02  0.00000000000E+00 0. -1.
        -11    1    3    3    0    0 -0.14587452065E+03  0.31096728868E+03 -0.42861233545E+03  0.54926183602E+03  0.00000000000E+00 0.  1.
          4    1    6    6  502    0  0.13413590876E+02 -0.13031495192E+02 -0.20399200102E+02  0.27674386207E+02  0.00000000000E+00 0. -1.
          3    1    5    5  503    0 -0.13997508519E+03 -0.14445128619E+03  0.15079728303E+03  0.25139415094E+03  0.00000000000E+00 0. -1.
         -4    1    5    5    0  503 -0.86095208301E+02 -0.20289408129E+03  0.17480584701E+03  0.28131028645E+03  0.00000000000E+00 0.  1.
         -3    1    6    6    0  502  0.35249283078E+03  0.53357232264E+02 -0.20111677314E+03  0.40932401154E+03  0.00000000000E+00 0.  1.
<mgrwt>
<rscale>  0 0.14952187E+04</rscale>
<asrwt>0</asrwt>
<pdfrwt beam="1">  1        2 0.92040158E-01 0.14952187E+04</pdfrwt>
<pdfrwt beam="2">  1       -2 0.14372932E+00 0.14952187E+04</pdfrwt>
<totfact> 0.16121048E+01</totfact>
</mgrwt>
</event>
<event>
12    1  0.4612066E-007  0.3327644E+04  0.7818608E-02  0.8155897E-01
          1   -1    0    0  501    0  0.00000000000E+00  0.00000000000E+00  0.10138406780E+04  0.10138406780E+04  0.00000000000E+00 0. -1.
         -1   -1    0    0    0  501 -0.00000000000E+00 -0.00000000000E+00 -0.27305119350E+04  0.27305119350E+04  0.00000000000E+00 0.  1.
         23    2    1    2    0    0 -0.62945546862E+03  0.12041812944E+04  0.18345255885E+02  0.13619061149E+04  0.90470661373E+02 0.  0.
        254    2    1    2    0    0  0.62945546862E+03 -0.12041812944E+04 -0.17350165129E+04  0.23824464981E+04  0.90526362981E+03 0.  0.
        -24    2    4    4    0    0  0.35988559415E+03 -0.19461149361E+03 -0.81542213334E+02  0.42481508629E+03  0.80171383044E+02 0.  0.
         24    2    4    4    0    0  0.26956987447E+03 -0.10095698008E+04 -0.16534742996E+04  0.19576314118E+04  0.80276928517E+02 0.  0.
         13    1    3    3    0    0 -0.26306402789E+03  0.56845752421E+03 -0.25036196661E+02  0.62687594526E+03  0.00000000000E+00 0.  1.
        -13    1    3    3    0    0 -0.36639144073E+03  0.63572377018E+03  0.43381452547E+02  0.73503016961E+03  0.00000000000E+00 0. -1.
          2    1    6    6  502    0  0.27238541877E+03 -0.99763676167E+03 -0.16196146059E+04  0.19216202529E+04  0.00000000000E+00 0. -1.
          3    1    5    5  503    0  0.18652044283E+03 -0.13978923770E+03 -0.25142104451E+02  0.23444195867E+03  0.00000000000E+00 0. -1.
         -4    1    5    5    0  503  0.17336515132E+03 -0.54822255912E+02 -0.56400108884E+02  0.19037312761E+03  0.00000000000E+00 0.  1.
         -1    1    6    6    0  502 -0.28155443007E+01 -0.11933039110E+02 -0.33859693649E+02  0.36011158911E+02  0.00000000000E+00 0.  1.
<mgrwt>
<rscale>  0 0.33276443E+04</rscale>
<asrwt>0</asrwt>
<pdfrwt beam="1">  1        1 0.15597549E+00 0.33276443E+04</pdfrwt>
<pdfrwt beam="2">  1       -1 0.42007876E+00 0.33276443E+04</pdfrwt>
<totfact> 0.63551256E-02</totfact>
</mgrwt>
</event>
<event>
12    1  0.4612066E-007  0.1359120E+04  0.7818608E-02  0.8983953E-01
          1   -1    0    0  501    0  0.00000000000E+00  0.00000000000E+00  0.92237039794E+03  0.92237039794E+03  0.00000000000E+00 0. -1.
         -1   -1    0    0    0  501 -0.00000000000E+00 -0.00000000000E+00 -0.50066855391E+03  0.50066855391E+03  0.00000000000E+00 0.  1.
         23    2    1    2    0    0  0.73797834889E+02  0.25923935118E+03  0.27654838926E+03  0.39644514650E+03  0.89658133755E+02 0.  0.
        254    2    1    2    0    0 -0.73797834889E+02 -0.25923935118E+03  0.14515345478E+03  0.10265938053E+04  0.97988476573E+03 0.  0.
        -24    2    4    4    0    0  0.99694413940E+02 -0.42384508946E+03  0.44978248972E+03  0.63104866347E+03  0.79589519258E+02 0.  0.
         24    2    4    4    0    0 -0.17349224883E+03  0.16460573828E+03 -0.30462903495E+03  0.39554514188E+03  0.80389681266E+02 0.  0.
         11    1    3    3    0    0  0.56772044634E+02  0.26066936643E+03  0.25624833750E+03  0.36991187345E+03  0.00000000000E+00 0. -1.
        -11    1    3    3    0    0  0.17025790256E+02 -0.14300152504E+01  0.20300051765E+02  0.26533273056E+02  0.00000000000E+00 0.  1.
          2    1    6    6  502    0  0.84383952923E+01  0.34160430274E+01 -0.13564054056E+02  0.16335832624E+02  0.00000000000E+00 0. -1.
          3    1    5    5  503    0  0.17852119849E+02 -0.23343949673E+03  0.21480062408E+03  0.31772945240E+03  0.00000000000E+00 0. -1.
         -4    1    5    5    0  503  0.81842294091E+02 -0.19040559272E+03  0.23498186564E+03  0.31331921106E+03  0.00000000000E+00 0.  1.
         -1    1    6    6    0  502 -0.18193064412E+03  0.16118969525E+03 -0.29106498089E+03  0.37920930926E+03  0.00000000000E+00 0.  1.
<mgrwt>
<rscale>  0 0.13591201E+04</rscale>
<asrwt>0</asrwt>
<pdfrwt beam="1">  1        1 0.14190314E+00 0.13591201E+04</pdfrwt>
<pdfrwt beam="2">  1       -1 0.77025932E-01 0.13591201E+04</pdfrwt>
<totfact> 0.28857158E+01</totfact>
</mgrwt>
</event>
<event>
12    1  0.4612066E-007  0.1266974E+04  0.7818608E-02  0.9056173E-01
         -2   -1    0    0    0  501 -0.00000000000E+00  0.00000000000E+00  0.19197296230E+03  0.19197296230E+03  0.00000000000E+00 0.  1.
          2   -1    0    0  501    0  0.00000000000E+00 -0.00000000000E+00 -0.20904287423E+04  0.20904287423E+04  0.00000000000E+00 0. -1.
         23    2    1    2    0    0  0.67390152714E+02  0.13559092647E+03 -0.82817531853E+01  0.17982732585E+03  0.96658924376E+02 0.  0.
        254    2    1    2    0    0 -0.67390152714E+02 -0.13559092647E+03 -0.18901740268E+04  0.21025743787E+04  0.90836932717E+03 0.  0.
        -24    2    4    4    0    0  0.34434431611E+03  0.14712753858E+03 -0.10928010218E+04  0.11582080449E+04  0.83739365732E+02 0.  0.
         24    2    4    4    0    0 -0.41173446883E+03 -0.28271846506E+03 -0.79737300501E+03  0.94436633385E+03  0.81049738408E+02 0.  0.
         13    1    3    3    0    0  0.19125951025E+02  0.44704903074E+02  0.42946735866E+02  0.64874898713E+02  0.00000000000E+00 0.  1.
        -13    1    3    3    0    0  0.48264201689E+02  0.90886023397E+02 -0.51228489051E+02  0.11495242713E+03  0.00000000000E+00 0. -1.
          2    1    6    6  502    0 -0.36140175800E+03 -0.27012307645E+03 -0.68046540417E+03  0.81646241394E+03  0.00000000000E+00 0. -1.
          1    1    5    5  503    0  0.17590664490E+03  0.11056867420E+03 -0.67491837510E+03  0.70617518540E+03  0.00000000000E+00 0. -1.
         -2    1    5    5    0  503  0.16843767122E+03  0.36558864386E+02 -0.41788264667E+03  0.45203285947E+03  0.00000000000E+00 0.  1.
         -1    1    6    6    0  502 -0.50332710830E+02 -0.12595388601E+02 -0.11690760084E+03  0.12790391991E+03  0.00000000000E+00 0.  1.
<mgrwt>
<rscale>  0 0.12669740E+04</rscale>
<asrwt>0</asrwt>
<pdfrwt beam="1">  1        2 0.32160442E+00 0.12669740E+04</pdfrwt>
<pdfrwt beam="2">  1       -2 0.29534302E-01 0.12669740E+04</pdfrwt>
<totfact> 0.61796900E+01</totfact>
</mgrwt>
</event>
<event>
12    1  0.4612066E-007  0.2342114E+04  0.7818608E-02  0.8461499E-01
          2   -1    0    0  501    0  0.00000000000E+00  0.00000000000E+00  0.29890385258E+04  0.29890385258E+04  0.00000000000E+00 0. -1.
         -2   -1    0    0    0  501 -0.00000000000E+00 -0.00000000000E+00 -0.45880134414E+03  0.45880134414E+03  0.00000000000E+00 0.  1.
         23    2    1    2    0    0 -0.62824343755E+03 -0.73964049017E+03  0.76245365321E+03  0.12375270597E+04  0.91541131401E+02 0.  0.
        254    2    1    2    0    0  0.62824343755E+03  0.73964049017E+03  0.17677835284E+04  0.22103128102E+04  0.90480177054E+03 0.  0.
        -24    2    4    4    0    0  0.54604509579E+03  0.31995229227E+03  0.35145149431E+03  0.72825995548E+03  0.79433581943E+02 0.  0.
         24    2    4    4    0    0  0.82198341763E+02  0.41968819790E+03  0.14163320341E+04  0.14820528547E+04  0.87117635569E+02 0.  0.
         11    1    3    3    0    0 -0.45609614712E+03 -0.59618276771E+03  0.59090983577E+03  0.95531775967E+03  0.00000000000E+00 0.  1.
        -11    1    3    3    0    0 -0.17214729043E+03 -0.14345772246E+03  0.17154381744E+03  0.28220930006E+03  0.00000000000E+00 0. -1.
          4    1    6    6  502    0  0.94330820207E+02  0.36637134982E+03  0.11668119520E+04  0.12266117564E+04  0.00000000000E+00 0. -1.
          1    1    5    5  503    0  0.53737003290E+03  0.30795803499E+03  0.32886178553E+03  0.70125229237E+03  0.00000000000E+00 0. -1.
         -2    1    5    5    0  503  0.86750628849E+01  0.11994257276E+02  0.22589708778E+02  0.27007663104E+02  0.00000000000E+00 0.  1.
         -3    1    6    6    0  502 -0.12132478444E+02  0.53316848073E+02  0.24952008216E+03  0.25544109834E+03  0.00000000000E+00 0.  1.
<mgrwt>
<rscale>  0 0.23421143E+04</rscale>
<asrwt>0</asrwt>
<pdfrwt beam="1">  1        2 0.45985207E+00 0.23421143E+04</pdfrwt>
<pdfrwt beam="2">  1       -2 0.70584824E-01 0.23421143E+04</pdfrwt>
<totfact> 0.29191897E+00</totfact>
</mgrwt>
</event>
<event>
12    1  0.4612066E-007  0.1741644E+04  0.7818608E-02  0.8737963E-01
          2   -1    0    0  501    0  0.00000000000E+00  0.00000000000E+00  0.12119437313E+04  0.12119437313E+04  0.00000000000E+00 0.  1.
         -2   -1    0    0    0  501 -0.00000000000E+00 -0.00000000000E+00 -0.62571480883E+03  0.62571480883E+03  0.00000000000E+00 0. -1.
         23    2    1    2    0    0 -0.19102029567E+03 -0.40318983429E+03  0.68418152879E+03  0.82173440516E+03  0.89957058894E+02 0.  0.
        254    2    1    2    0    0  0.19102029567E+03  0.40318983429E+03 -0.97952606336E+02  0.10159241350E+04  0.90744495099E+03 0.  0.
        -24    2    4    4    0    0  0.49070780357E+03  0.25657782452E+03 -0.28169446287E+03  0.62705541691E+03  0.84972918917E+02 0.  0.
         24    2    4    4    0    0 -0.29968750791E+03  0.14661200978E+03  0.18374185654E+03  0.38886871805E+03  0.78422740516E+02 0.  0.
         11    1    3    3    0    0 -0.54163618739E+02 -0.18159670118E+03  0.22831911330E+03  0.29671649259E+03  0.00000000000E+00 0. -1.
        -11    1    3    3    0    0 -0.13685667693E+03 -0.22159313311E+03  0.45586241549E+03  0.52501791257E+03  0.00000000000E+00 0.  1.
          4    1    6    6  502    0 -0.20849207779E+03  0.14018131779E+03  0.13140921687E+03  0.28352800680E+03  0.00000000000E+00 0. -1.
          3    1    5    5  503    0  0.31682591109E+03  0.13203430332E+03 -0.20523607299E+03  0.39991694244E+03  0.00000000000E+00 0. -1.
         -4    1    5    5    0  503  0.17388189249E+03  0.12454352119E+03 -0.76458389878E+02  0.22713847448E+03  0.00000000000E+00 0.  1.
         -3    1    6    6    0  502 -0.91195430118E+02  0.64306919850E+01  0.52332639663E+02  0.10534071126E+03  0.00000000000E+00 0.  1.
<mgrwt>
<rscale>  0 0.17416442E+04</rscale>
<asrwt>0</asrwt>
<pdfrwt beam="1">  1        2 0.18645288E+00 0.17416442E+04</pdfrwt>
<pdfrwt beam="2">  1       -2 0.96263817E-01 0.17416442E+04</pdfrwt>
<totfact> 0.15970534E+01</totfact>
</mgrwt>
</event>
<event>
12    1  0.4612066E-007  0.1674133E+04  0.7818608E-02  0.8776256E-01
         -2   -1    0    0    0  501 -0.00000000000E+00  0.00000000000E+00  0.96510789175E+03  0.96510789175E+03  0.00000000000E+00 0.  1.
          2   -1    0    0  501    0  0.00000000000E+00 -0.00000000000E+00 -0.72601233512E+03  0.72601233512E+03  0.00000000000E+00 0. -1.
         23    2    1    2    0    0 -0.55366169689E+03 -0.16162249975E+03 -0.44264433881E+02  0.58524625512E+03  0.88829792293E+02 0.  0.
        254    2    1    2    0    0  0.55366169689E+03  0.16162249975E+03  0.28335999051E+03  0.11058739717E+04  0.90000069452E+03 0.  0.
        -24    2    4    4    0    0 -0.37218144536E+02  0.38176207616E+03 -0.38114213227E+02  0.39370825912E+03  0.80162503535E+02 0.  0.
         24    2    4    4    0    0  0.59087984142E+03 -0.22013957641E+03  0.32147420374E+03  0.71216571263E+03  0.78955167461E+02 0.  0.
         11    1    3    3    0    0 -0.19901090659E+03 -0.28931192196E+02 -0.47226262197E+02  0.20657365433E+03  0.00000000000E+00 0. -1.
        -11    1    3    3    0    0 -0.35465079030E+03 -0.13269130755E+03  0.29618283162E+01  0.37867260079E+03  0.00000000000E+00 0.  1.
          2    1    6    6  502    0  0.32825198827E+03 -0.16383902460E+03  0.18307962671E+03  0.41001310162E+03  0.00000000000E+00 0. -1.
          1    1    5    5  503    0 -0.57274259794E+02  0.21648086239E+03 -0.51836551118E+01  0.22398922942E+03  0.00000000000E+00 0. -1.
         -2    1    5    5    0  503  0.20056115257E+02  0.16528121378E+03 -0.32930558116E+02  0.16971902971E+03  0.00000000000E+00 0.  1.
         -1    1    6    6    0  502  0.26262785316E+03 -0.56300551811E+02  0.13839457703E+03  0.30215261101E+03  0.00000000000E+00 0.  1.
<mgrwt>
<rscale>  0 0.16741329E+04</rscale>
<asrwt>0</asrwt>
<pdfrwt beam="1">  1        2 0.11169421E+00 0.16741329E+04</pdfrwt>
<pdfrwt beam="2">  1       -2 0.14847814E+00 0.16741329E+04</pdfrwt>
<totfact> 0.11472669E+01</totfact>
</mgrwt>
</event>
<event>
12    1  0.4612066E-007  0.2690211E+04  0.7818608E-02  0.8338188E-01
         -2   -1    0    0    0  501 -0.00000000000E+00  0.00000000000E+00  0.63170965379E+03  0.63170965379E+03  0.00000000000E+00 0.  1.
          2   -1    0    0  501    0  0.00000000000E+00 -0.00000000000E+00 -0.28641456046E+04  0.28641456046E+04  0.00000000000E+00 0. -1.
         23    2    1    2    0    0  0.15334538434E+03  0.97413505007E+03 -0.11942018545E+03  0.99753227116E+03  0.91408690212E+02 0.  0.
        254    2    1    2    0    0 -0.15334538434E+03 -0.97413505007E+03 -0.21130157653E+04  0.24983229872E+04  0.89684347639E+03 0.  0.
        -24    2    4    4    0    0 -0.60499883334E+02 -0.21898040915E+03  0.10727432878E+02  0.24121627344E+03  0.80358927817E+02 0.  0.
         24    2    4    4    0    0 -0.92845501006E+02 -0.75515464092E+03 -0.21237431982E+04  0.22571067138E+04  0.73257945669E+02 0.  0.
         11    1    3    3    0    0  0.81554944957E+02  0.26410587964E+03 -0.22382011544E+02  0.27731584727E+03  0.00000000000E+00 0. -1.
        -11    1    3    3    0    0  0.71790439383E+02  0.71002917043E+03 -0.97038173907E+02  0.72021642389E+03  0.00000000000E+00 0.  1.
          2    1    6    6  502    0 -0.14652318376E+02 -0.86304897510E+02 -0.32004525765E+03  0.33180143566E+03  0.00000000000E+00 0. -1.
          3    1    5    5  503    0 -0.13794376770E+02 -0.58832304274E+01  0.17384750762E+02  0.22959241925E+02  0.00000000000E+00 0. -1.
         -4    1    5    5    0  503 -0.46705506564E+02 -0.21309717872E+03 -0.66573178840E+01  0.21825703151E+03  0.00000000000E+00 0.  1.
         -1    1    6    6    0  502 -0.78193182630E+02 -0.66884974341E+03 -0.18036979406E+04  0.19253052781E+04  0.00000000000E+00 0.  1.
<mgrwt>
<rscale>  0 0.26902107E+04</rscale>
<asrwt>0</asrwt>
<pdfrwt beam="1">  1        2 0.44063779E+00 0.26902107E+04</pdfrwt>
<pdfrwt beam="2">  1       -2 0.97186099E-01 0.26902107E+04</pdfrwt>
<totfact> 0.16391444E+00</totfact>
</mgrwt>
</event>
<event>
12    1  0.4612066E-007  0.2104738E+04  0.7818608E-02  0.8559159E-01
         -1   -1    0    0    0  501 -0.00000000000E+00  0.00000000000E+00  0.35713959556E+03  0.35713959556E+03  0.00000000000E+00 0.  1.
          1   -1    0    0  501    0  0.00000000000E+00 -0.00000000000E+00 -0.31009729879E+04  0.31009729879E+04  0.00000000000E+00 0. -1.
         23    2    1    2    0    0  0.16846229678E+03 -0.72114043427E+03 -0.18213615104E+04  0.19682387860E+04  0.90460465240E+02 0.  0.
        254    2    1    2    0    0 -0.16846229678E+03  0.72114043427E+03 -0.92247188193E+03  0.14898737975E+04  0.90572980962E+03 0.  0.
        -24    2    4    4    0    0 -0.31317887014E+03 -0.72474523460E+02 -0.42412835336E+03  0.53807894560E+03  0.79438846427E+02 0.  0.
         24    2    4    4    0    0  0.14471657336E+03  0.79361495773E+03 -0.49834352857E+03  0.95179485186E+03  0.82459564741E+02 0.  0.
         11    1    3    3    0    0  0.56705454105E+02 -0.43549567253E+03 -0.10923544447E+04  0.11773318233E+04  0.00000000000E+00 0. -1.
        -11    1    3    3    0    0  0.11175684267E+03 -0.28564476174E+03 -0.72900706574E+03  0.79090696272E+03  0.00000000000E+00 0.  1.
          2    1    6    6  502    0  0.66029153161E+02  0.54868560986E+03 -0.36185045464E+03  0.66056907214E+03  0.00000000000E+00 0. -1.
          3    1    5    5  503    0 -0.30058657256E+03 -0.82723969236E+02 -0.41618064724E+03  0.52000180175E+03  0.00000000000E+00 0. -1.
         -4    1    5    5    0  503 -0.12592297586E+02  0.10249445776E+02 -0.79477061194E+01  0.18077143850E+02  0.00000000000E+00 0.  1.
         -1    1    6    6    0  502  0.78687420203E+02  0.24492934787E+03 -0.13649307393E+03  0.29122577973E+03  0.00000000000E+00 0.  1.
<mgrwt>
<rscale>  0 0.21047377E+04</rscale>
<asrwt>0</asrwt>
<pdfrwt beam="1">  1        1 0.47707278E+00 0.21047377E+04</pdfrwt>
<pdfrwt beam="2">  1       -1 0.54944552E-01 0.21047377E+04</pdfrwt>
<totfact> 0.15531571E+00</totfact>
</mgrwt>
</event>
<event>
12    1  0.4612066E-007  0.1541152E+04  0.7818608E-02  0.8857539E-01
          1   -1    0    0  501    0  0.00000000000E+00  0.00000000000E+00  0.11992170012E+04  0.11992170012E+04  0.00000000000E+00 0. -1.
         -1   -1    0    0    0  501 -0.00000000000E+00 -0.00000000000E+00 -0.49514620761E+03  0.49514620761E+03  0.00000000000E+00 0.  1.
         23    2    1    2    0    0 -0.48892285643E+03  0.10237740849E+03  0.17799624259E+03  0.53753406609E+03  0.87940414594E+02 0.  0.
        254    2    1    2    0    0  0.48892285643E+03 -0.10237740849E+03  0.52607455097E+03  0.11568291427E+04  0.90109518859E+03 0.  0.
        -24    2    4    4    0    0  0.29015682921E+02  0.36311814013E+03  0.19319450009E+03  0.41827702805E+03  0.70248585603E+02 0.  0.
         24    2    4    4    0    0  0.45990717351E+03 -0.46549554862E+03  0.33288005088E+03  0.73855211464E+03  0.80308055284E+02 0.  0.
         11    1    3    3    0    0 -0.17967128216E+03  0.24813461606E+02  0.22375081663E+02  0.18275153019E+03  0.00000000000E+00 0.  1.
        -11    1    3    3    0    0 -0.30925157428E+03  0.77563946884E+02  0.15562116093E+03  0.35478253589E+03  0.00000000000E+00 0. -1.
          2    1    6    6  502    0  0.93560722219E+02 -0.87370900476E+02  0.31207189519E+02  0.13176179898E+03  0.00000000000E+00 0. -1.
          1    1    5    5  503    0 -0.66583578022E+01  0.30606443363E+02 -0.14142844028E+01  0.31354239016E+02  0.00000000000E+00 0. -1.
         -2    1    5    5    0  503  0.35674040723E+02  0.33251169677E+03  0.19460878450E+03  0.38692278903E+03  0.00000000000E+00 0.  1.
         -1    1    6    6    0  502  0.36634645129E+03 -0.37812464814E+03  0.30167286136E+03  0.60679031567E+03  0.00000000000E+00 0.  1.
<mgrwt>
<rscale>  0 0.15411525E+04</rscale>
<asrwt>0</asrwt>
<pdfrwt beam="1">  1        1 0.18449492E+00 0.15411525E+04</pdfrwt>
<pdfrwt beam="2">  1       -1 0.76176340E-01 0.15411525E+04</pdfrwt>
<totfact> 0.17852607E+01</totfact>
</mgrwt>
</event>
<event>
12    1  0.4612066E-007  0.3557194E+04  0.7818608E-02  0.8100368E-01
         -2   -1    0    0    0  501 -0.00000000000E+00  0.00000000000E+00  0.16632159579E+04  0.16632159579E+04  0.00000000000E+00 0. -1.
          2   -1    0    0  501    0  0.00000000000E+00 -0.00000000000E+00 -0.19019825351E+04  0.19019825351E+04  0.00000000000E+00 0.  1.
         23    2    1    2    0    0 -0.10865796550E+04 -0.11329579168E+03 -0.13699659314E+04  0.17551608776E+04  0.10144836179E+03 0.  0.
        254    2    1    2    0    0  0.10865796550E+04  0.11329579168E+03  0.11311993541E+04  0.18100376154E+04  0.89617682821E+03 0.  0.
        -24    2    4    4    0    0  0.17633902908E+03  0.18509770906E+03  0.78660462206E+03  0.83074137434E+03  0.77638808127E+02 0.  0.
         24    2    4    4    0    0  0.91024062591E+03 -0.71801917383E+02  0.34459473205E+03  0.97929624106E+03  0.81130056200E+02 0.  0.
         13    1    3    3    0    0 -0.17007644195E+03  0.78001792128E+01 -0.17262439086E+03  0.24245828347E+03  0.00000000000E+00 0. -1.
        -13    1    3    3    0    0 -0.91650321303E+03 -0.12109597089E+03 -0.11973415405E+04  0.15127025941E+04  0.00000000000E+00 0.  1.
          4    1    6    6  502    0  0.12645678370E+03 -0.38441773776E+02  0.50271444053E+02  0.14140829609E+03  0.00000000000E+00 0. -1.
          3    1    5    5  503    0  0.77219414806E+02  0.31211587756E+02  0.21630608678E+03  0.23178723953E+03  0.00000000000E+00 0. -1.
         -4    1    5    5    0  503  0.99119614272E+02  0.15388612131E+03  0.57029853528E+03  0.59895413481E+03  0.00000000000E+00 0.  1.
         -3    1    6    6    0  502  0.78378384221E+03 -0.33360143606E+02  0.29432328799E+03  0.83788794498E+03  0.00000000000E+00 0.  1.
<mgrwt>
<rscale>  0 0.35571942E+04</rscale>
<asrwt>0</asrwt>
<pdfrwt beam="1">  1        2 0.29261270E+00 0.35571942E+04</pdfrwt>
<pdfrwt beam="2">  1       -2 0.25587938E+00 0.35571942E+04</pdfrwt>
<totfact> 0.36633800E-01</totfact>
</mgrwt>
</event>
<event>
12    1  0.4612066E-007  0.1162865E+04  0.7818608E-02  0.9145997E-01
         -1   -1    0    0    0  501 -0.00000000000E+00  0.00000000000E+00  0.28451287549E+03  0.28451287549E+03  0.00000000000E+00 0.  1.
          1   -1    0    0  501    0  0.00000000000E+00 -0.00000000000E+00 -0.11882190315E+04  0.11882190315E+04  0.00000000000E+00 0. -1.
         23    2    1    2    0    0  0.11903858096E+03  0.22042927254E+03 -0.23046566172E+03  0.35230190447E+03  0.90790763380E+02 0.  0.
        254    2    1    2    0    0 -0.11903858096E+03 -0.22042927254E+03 -0.67324049425E+03  0.11204300025E+04  0.85985544099E+03 0.  0.
        -24    2    4    4    0    0 -0.22696685461E+02  0.31936068052E+03 -0.33923985955E+03  0.47344290244E+03  0.80982194183E+02 0.  0.
         24    2    4    4    0    0 -0.96341895497E+02 -0.53978995305E+03 -0.33400063470E+03  0.64698710004E+03  0.79880719737E+02 0.  0.
         13    1    3    3    0    0  0.10283749739E+03  0.22504352705E+03 -0.20283395108E+03  0.31994023136E+03  0.00000000000E+00 0. -1.
        -13    1    3    3    0    0  0.16201083570E+02 -0.46142545084E+01 -0.27631710641E+02  0.32361673109E+02  0.00000000000E+00 0.  1.
          2    1    6    6  502    0 -0.10623846645E+02 -0.79412210737E+02 -0.84238095547E+02  0.11625498730E+03  0.00000000000E+00 0. -1.
          1    1    5    5  503    0 -0.80188721218E+01 -0.21528862361E+01 -0.10436415981E+02  0.13336266636E+02  0.00000000000E+00 0. -1.
         -4    1    5    5    0  503 -0.14677813339E+02  0.32151356675E+03 -0.32880344357E+03  0.46010663581E+03  0.00000000000E+00 0.  1.
         -1    1    6    6    0  502 -0.85718048852E+02 -0.46037774232E+03 -0.24976253916E+03  0.53073211273E+03  0.00000000000E+00 0.  1.
<mgrwt>
<rscale>  0 0.11628648E+04</rscale>
<asrwt>0</asrwt>
<pdfrwt beam="1">  1        1 0.18280293E+00 0.11628648E+04</pdfrwt>
<pdfrwt beam="2">  1       -1 0.43771212E-01 0.11628648E+04</pdfrwt>
<totfact> 0.55753401E+01</totfact>
</mgrwt>
</event>
<event>
12    1  0.4612066E-007  0.1555274E+04  0.7818608E-02  0.8848506E-01
         -2   -1    0    0    0  501 -0.00000000000E+00  0.00000000000E+00  0.38024473618E+03  0.38024473618E+03  0.00000000000E+00 0.  1.
          2   -1    0    0  501    0  0.00000000000E+00 -0.00000000000E+00 -0.15903418827E+04  0.15903418827E+04  0.00000000000E+00 0. -1.
         23    2    1    2    0    0  0.35896705835E+03 -0.33540125126E+03 -0.60794110690E+03  0.78694889751E+03  0.91350038371E+02 0.  0.
        254    2    1    2    0    0 -0.35896705835E+03  0.33540125126E+03 -0.60215603964E+03  0.11836377214E+04  0.89277937426E+03 0.  0.
        -24    2    4    4    0    0 -0.36101824954E+03  0.59476622362E+03 -0.25992136356E+03  0.74729580203E+03  0.82527954286E+02 0.  0.
         24    2    4    4    0    0  0.20511911941E+01 -0.25936497235E+03 -0.34223467607E+03  0.43634191936E+03  0.77429327900E+02 0.  0.
         13    1    3    3    0    0  0.18344711312E+03 -0.20046777416E+03 -0.39745958073E+03  0.48147096496E+03  0.00000000000E+00 0. -1.
        -13    1    3    3    0    0  0.17551994523E+03 -0.13493347710E+03 -0.21048152617E+03  0.30547793255E+03  0.00000000000E+00 0.  1.
          2    1    6    6  502    0  0.24480370266E+02 -0.10932383651E+03 -0.98107639525E+02  0.14891641512E+03  0.00000000000E+00 0. -1.
          1    1    5    5  503    0 -0.16333429353E+03  0.23854157422E+03 -0.14809602643E+03  0.32482704185E+03  0.00000000000E+00 0. -1.
         -2    1    5    5    0  503 -0.19768395601E+03  0.35622464939E+03 -0.11182533714E+03  0.42246876018E+03  0.00000000000E+00 0.  1.
         -1    1    6    6    0  502 -0.22429179072E+02 -0.15004113584E+03 -0.24412703655E+03  0.28742550424E+03  0.00000000000E+00 0.  1.
<mgrwt>
<rscale>  0 0.15552738E+04</rscale>
<asrwt>0</asrwt>
<pdfrwt beam="1">  1        2 0.24466798E+00 0.15552738E+04</pdfrwt>
<pdfrwt beam="2">  1       -2 0.58499191E-01 0.15552738E+04</pdfrwt>
<totfact> 0.29681196E+01</totfact>
</mgrwt>
</event>
<event>
12    1  0.4612066E-007  0.1466717E+04  0.7818608E-02  0.8906893E-01
          1   -1    0    0  501    0  0.00000000000E+00  0.00000000000E+00  0.70175526776E+03  0.70175526776E+03  0.00000000000E+00 0. -1.
         -1   -1    0    0    0  501 -0.00000000000E+00 -0.00000000000E+00 -0.76638481580E+03  0.76638481580E+03  0.00000000000E+00 0.  1.
         23    2    1    2    0    0  0.26065337155E+03  0.22387370025E+03  0.26935987806E+03  0.44594308235E+03  0.90834327336E+02 0.  0.
        254    2    1    2    0    0 -0.26065337155E+03 -0.22387370025E+03 -0.33398942610E+03  0.10221970012E+04  0.90292754901E+03 0.  0.
        -24    2    4    4    0    0  0.13022011987E+03 -0.44937322089E+03 -0.29988358678E+03  0.56275280387E+03  0.88696005380E+02 0.  0.
         24    2    4    4    0    0 -0.39087349143E+03  0.22549952065E+03 -0.34105839320E+02  0.45944419733E+03  0.79332478064E+02 0.  0.
         13    1    3    3    0    0  0.23447362627E+03  0.19478797616E+03  0.26939661833E+03  0.40681049033E+03  0.00000000000E+00 0. -1.
        -13    1    3    3    0    0  0.26179745288E+02  0.29085724083E+02 -0.36740266159E-01  0.39132592025E+02  0.00000000000E+00 0.  1.
          4    1    6    6  502    0 -0.14950474983E+03  0.11561578245E+03  0.15545463805E+02  0.18963211969E+03  0.00000000000E+00 0. -1.
          1    1    5    5  503    0  0.12525700210E+03 -0.28018665711E+03 -0.19600140481E+03  0.36415715026E+03  0.00000000000E+00 0. -1.
         -2    1    5    5    0  503  0.49631177718E+01 -0.16918656379E+03 -0.10388218197E+03  0.19859565361E+03  0.00000000000E+00 0.  1.
         -3    1    6    6    0  502 -0.24136874160E+03  0.10988373820E+03 -0.49651303125E+02  0.26981207765E+03  0.00000000000E+00 0.  1.
<mgrwt>
<rscale>  0 0.14667169E+04</rscale>
<asrwt>0</asrwt>
<pdfrwt beam="1">  1        1 0.10796235E+00 0.14667169E+04</pdfrwt>
<pdfrwt beam="2">  1       -1 0.11790536E+00 0.14667169E+04</pdfrwt>
<totfact> 0.17019147E+01</totfact>
</mgrwt>
</event>
<event>
12    1  0.4612066E-007  0.2174877E+04  0.7818608E-02  0.8528958E-01
          1   -1    0    0  501    0  0.00000000000E+00  0.00000000000E+00  0.10211060138E+04  0.10211060138E+04  0.00000000000E+00 0. -1.
         -1   -1    0    0    0  501 -0.00000000000E+00 -0.00000000000E+00 -0.11580798290E+04  0.11580798290E+04  0.00000000000E+00 0.  1.
         23    2    1    2    0    0 -0.26998423995E+02 -0.74382623189E+03  0.44491387303E+03  0.87200232773E+03  0.91833147682E+02 0.  0.
        254    2    1    2    0    0  0.26998423995E+02  0.74382623189E+03 -0.58188768817E+03  0.13071835150E+04  0.90339862861E+03 0.  0.
        -24    2    4    4    0    0 -0.53684920079E+02  0.23085008606E+03 -0.72141584352E+03  0.76364734176E+03  0.80886404389E+02 0.  0.
         24    2    4    4    0    0  0.80683344074E+02  0.51297614583E+03  0.13952815535E+03  0.54353617327E+03  0.79430078161E+02 0.  0.
         11    1    3    3    0    0 -0.14096468729E+02 -0.62337354702E+03  0.33206488516E+03  0.70644205531E+03  0.00000000000E+00 0.  1.
        -11    1    3    3    0    0 -0.12901955267E+02 -0.12045268487E+03  0.11284898787E+03  0.16556027242E+03  0.00000000000E+00 0. -1.
          2    1    6    6  502    0  0.35668573082E+02  0.11212429646E+03  0.30452179765E+01  0.11770037517E+03  0.00000000000E+00 0. -1.
          3    1    5    5  503    0 -0.57983880487E+02  0.85839298883E+02 -0.34606326194E+03  0.36123440713E+03  0.00000000000E+00 0. -1.
         -4    1    5    5    0  503  0.42989604079E+01  0.14501078718E+03 -0.37535258158E+03  0.40241293463E+03  0.00000000000E+00 0.  1.
         -1    1    6    6    0  502  0.45014770992E+02  0.40085184936E+03  0.13648293737E+03  0.42583579810E+03  0.00000000000E+00 0.  1.
<mgrwt>
<rscale>  0 0.21748768E+04</rscale>
<asrwt>0</asrwt>
<pdfrwt beam="1">  1        1 0.15709323E+00 0.21748768E+04</pdfrwt>
<pdfrwt beam="2">  1       -1 0.17816613E+00 0.21748768E+04</pdfrwt>
<totfact> 0.28559185E+00</totfact>
</mgrwt>
</event>
<event>
12    1  0.4612066E-007  0.1986119E+04  0.7818608E-02  0.8613138E-01
         -2   -1    0    0    0  501 -0.00000000000E+00  0.00000000000E+00  0.36055918673E+03  0.36055918673E+03  0.00000000000E+00 0.  1.
          2   -1    0    0  501    0  0.00000000000E+00 -0.00000000000E+00 -0.27351059788E+04  0.27351059788E+04  0.00000000000E+00 0. -1.
         23    2    1    2    0    0 -0.20167540150E+03  0.74688854438E+03 -0.10128248381E+04  0.12779800541E+04  0.94357833615E+02 0.  0.
        254    2    1    2    0    0  0.20167540150E+03 -0.74688854438E+03 -0.13617219540E+04  0.18176851114E+04  0.92259255309E+03 0.  0.
        -24    2    4    4    0    0  0.15261132409E+03  0.11178677462E+03 -0.69864465814E+03  0.72848065145E+03  0.82420883040E+02 0.  0.
         24    2    4    4    0    0  0.49064077409E+02 -0.85867531900E+03 -0.66307729582E+03  0.10892044600E+04  0.83452191107E+02 0.  0.
         11    1    3    3    0    0 -0.13314929292E+03  0.44672738461E+03 -0.68165144675E+03  0.82579827151E+03  0.00000000000E+00 0. -1.
        -11    1    3    3    0    0 -0.68526108579E+02  0.30016115978E+03 -0.33117339136E+03  0.45218178263E+03  0.00000000000E+00 0.  1.
          4    1    6    6  502    0  0.19219932509E+02 -0.42963843044E+03 -0.27937074692E+03  0.51284169190E+03  0.00000000000E+00 0. -1.
          3    1    5    5  503    0  0.11379350075E+03  0.69598207068E+02 -0.59759308210E+03  0.61229924303E+03  0.00000000000E+00 0. -1.
         -4    1    5    5    0  503  0.38817823343E+02  0.42188567555E+02 -0.10105157604E+03  0.11618140841E+03  0.00000000000E+00 0.  1.
         -3    1    6    6    0  502  0.29844144900E+02 -0.42903688856E+03 -0.38370654890E+03  0.57636276806E+03  0.00000000000E+00 0.  1.
<mgrwt>
<rscale>  0 0.19861194E+04</rscale>
<asrwt>0</asrwt>
<pdfrwt beam="1">  1        2 0.42078554E+00 0.19861194E+04</pdfrwt>
<pdfrwt beam="2">  1       -2 0.55470643E-01 0.19861194E+04</pdfrwt>
<totfact> 0.71973854E+00</totfact>
</mgrwt>
</event>
<event>
12    1  0.4612066E-007  0.2067196E+04  0.7818608E-02  0.8575833E-01
         -1   -1    0    0    0  501 -0.00000000000E+00  0.00000000000E+00  0.67175392056E+03  0.67175392056E+03  0.00000000000E+00 0.  1.
          1   -1    0    0  501    0  0.00000000000E+00 -0.00000000000E+00 -0.15903511777E+04  0.15903511777E+04  0.00000000000E+00 0. -1.
         23    2    1    2    0    0  0.67325211545E+03  0.20907489627E+03  0.12825983239E+03  0.72188226675E+03  0.87651008199E+02 0.  0.
        254    2    1    2    0    0 -0.67325211545E+03 -0.20907489627E+03 -0.10468570895E+04  0.15402228315E+04  0.88283400569E+03 0.  0.
        -24    2    4    4    0    0 -0.83456263505E+03 -0.33011126397E+02 -0.95890799128E+03  0.12740104572E+04  0.77547296004E+02 0.  0.
         24    2    4    4    0    0  0.16131051960E+03 -0.17606376988E+03 -0.87949098240E+02  0.26621237427E+03  0.78194945728E+02 0.  0.
         11    1    3    3    0    0  0.43446672902E+03  0.96318048682E+02  0.59229174669E+02  0.44893941714E+03  0.00000000000E+00 0. -1.
        -11    1    3    3    0    0  0.23878538643E+03  0.11275684759E+03  0.69030657717E+02  0.27294284961E+03  0.00000000000E+00 0.  1.
          4    1    6    6  502    0  0.62702145447E+02 -0.12542222640E+03 -0.54256343648E+02  0.15035306696E+03  0.00000000000E+00 0. -1.
          3    1    5    5  503    0 -0.78382302245E+03 -0.33590557582E+02 -0.86887415022E+03  0.11706618406E+04  0.00000000000E+00 0. -1.
         -4    1    5    5    0  503 -0.50739612592E+02  0.57943118510E+00 -0.90033841061E+02  0.10334861665E+03  0.00000000000E+00 0.  1.
         -3    1    6    6    0  502  0.98608374153E+02 -0.50641543482E+02 -0.33692754593E+02  0.11585930731E+03  0.00000000000E+00 0.  1.
<mgrwt>
<rscale>  0 0.20671958E+04</rscale>
<asrwt>0</asrwt>
<pdfrwt beam="1">  1        1 0.24466941E+00 0.20671958E+04</pdfrwt>
<pdfrwt beam="2">  1       -1 0.10334676E+00 0.20671958E+04</pdfrwt>
<totfact> 0.46160440E+00</totfact>
</mgrwt>
</event>
<event>
12    1  0.4612066E-007  0.1417207E+04  0.7818608E-02  0.8941457E-01
          2   -1    0    0  501    0  0.00000000000E+00  0.00000000000E+00  0.19745150130E+04  0.19745150130E+04  0.00000000000E+00 0. -1.
         -2   -1    0    0    0  501 -0.00000000000E+00 -0.00000000000E+00 -0.25429991451E+03  0.25429991451E+03  0.00000000000E+00 0.  1.
         23    2    1    2    0    0  0.13945621247E+03  0.38931274638E+03  0.35481505481E+03  0.55223601762E+03  0.89768849552E+02 0.  0.
        254    2    1    2    0    0 -0.13945621247E+03 -0.38931274638E+03  0.13654000437E+04  0.16765789099E+04  0.88067423722E+03 0.  0.
        -24    2    4    4    0    0  0.28523018456E+03  0.49372458491E+02  0.20760785083E+03  0.36511197784E+03  0.80073958257E+02 0.  0.
         24    2    4    4    0    0 -0.42468639703E+03 -0.43868520487E+03  0.11577921929E+04  0.13114669321E+04  0.81605803998E+02 0.  0.
         11    1    3    3    0    0  0.54984139397E+02  0.27473433043E+03  0.24939524543E+03  0.37510024839E+03  0.00000000000E+00 0. -1.
        -11    1    3    3    0    0  0.84472073072E+02  0.11457841595E+03  0.10541980938E+03  0.17713576923E+03  0.00000000000E+00 0.  1.
          2    1    6    6  502    0 -0.42747642938E+03 -0.43386766670E+03  0.11535239131E+04  0.13044518649E+04  0.00000000000E+00 0. -1.
          3    1    5    5  503    0  0.25719983898E+03  0.47373727007E+02  0.15119161944E+03  0.30208431434E+03  0.00000000000E+00 0. -1.
         -4    1    5    5    0  503  0.28030345577E+02  0.19987314838E+01  0.56416231396E+02  0.63027663495E+02  0.00000000000E+00 0.  1.
         -1    1    6    6    0  502  0.27900323452E+01 -0.48175381747E+01  0.42682797812E+01  0.70150671303E+01  0.00000000000E+00 0.  1.
<mgrwt>
<rscale>  0 0.14172071E+04</rscale>
<asrwt>0</asrwt>
<pdfrwt beam="1">  1        2 0.30377153E+00 0.14172071E+04</pdfrwt>
<pdfrwt beam="2">  1       -2 0.39123065E-01 0.14172071E+04</pdfrwt>
<totfact> 0.41465926E+01</totfact>
</mgrwt>
</event>
<event>
12    1  0.4612066E-007  0.1362348E+04  0.7818608E-02  0.8981533E-01
         -2   -1    0    0    0  501 -0.00000000000E+00  0.00000000000E+00  0.16945263216E+03  0.16945263216E+03  0.00000000000E+00 0.  1.
          2   -1    0    0  501    0  0.00000000000E+00 -0.00000000000E+00 -0.27382180087E+04  0.27382180087E+04  0.00000000000E+00 0. -1.
         23    2    1    2    0    0  0.25603317101E+03  0.11991684585E+03 -0.94798755014E+03  0.99187686914E+03  0.72154651507E+02 0.  0.
        254    2    1    2    0    0 -0.25603317101E+03 -0.11991684585E+03 -0.16207778264E+04  0.19157937717E+04  0.98153552083E+03 0.  0.
        -24    2    4    4    0    0 -0.53141488437E+03 -0.29402534129E+03 -0.67060321795E+03  0.90813187885E+03  0.78371887811E+02 0.  0.
         24    2    4    4    0    0  0.27538171336E+03  0.17410849544E+03 -0.95017460841E+03  0.10076618928E+04  0.80011546521E+02 0.  0.
         13    1    3    3    0    0  0.14323586460E+01  0.14206617822E+02 -0.76704879207E+02  0.78022548891E+02  0.00000000000E+00 0. -1.
        -13    1    3    3    0    0  0.25460081237E+03  0.10571022803E+03 -0.87128267093E+03  0.91385432025E+03  0.00000000000E+00 0.  1.
          2    1    6    6  502    0 -0.33638753519E+01  0.12670079181E+02 -0.45494940368E+02  0.47345920235E+02  0.00000000000E+00 0. -1.
          1    1    5    5  503    0 -0.25030609465E+03 -0.18326092989E+03 -0.33847123172E+03  0.45913013857E+03  0.00000000000E+00 0. -1.
         -2    1    5    5    0  503 -0.28110878972E+03 -0.11076441140E+03 -0.33213198623E+03  0.44900174028E+03  0.00000000000E+00 0.  1.
         -1    1    6    6    0  502  0.27874558871E+03  0.16143841626E+03 -0.90467966804E+03  0.96031597260E+03  0.00000000000E+00 0.  1.
<mgrwt>
<rscale>  0 0.13623483E+04</rscale>
<asrwt>0</asrwt>
<pdfrwt beam="1">  1        2 0.42126427E+00 0.13623483E+04</pdfrwt>
<pdfrwt beam="2">  1       -2 0.26069638E-01 0.13623483E+04</pdfrwt>
<totfact> 0.32896385E+01</totfact>
</mgrwt>
</event>
<event>
12    1  0.4612066E-007  0.1441758E+04  0.7818608E-02  0.8924135E-01
          2   -1    0    0  501    0  0.00000000000E+00  0.00000000000E+00  0.19963125041E+04  0.19963125041E+04  0.00000000000E+00 0. -1.
         -2   -1    0    0    0  501 -0.00000000000E+00 -0.00000000000E+00 -0.26031304795E+03  0.26031304795E+03  0.00000000000E+00 0.  1.
         23    2    1    2    0    0  0.14051523756E+03  0.25234768111E+03  0.10418161715E+04  0.10848424367E+04  0.89879325670E+02 0.  0.
        254    2    1    2    0    0 -0.14051523756E+03 -0.25234768111E+03  0.69418328461E+03  0.11717831153E+04  0.89875544641E+03 0.  0.
        -24    2    4    4    0    0 -0.22513737643E+03 -0.17648241897E+03  0.88739790113E+03  0.93566734362E+03  0.78520446518E+02 0.  0.
         24    2    4    4    0    0  0.84622138868E+02 -0.75865262139E+02 -0.19321461651E+03  0.23611577166E+03  0.74177659739E+02 0.  0.
         13    1    3    3    0    0  0.28521007784E+02  0.70715558297E+01  0.16173916458E+03  0.16438677607E+03  0.00000000000E+00 0.  1.
        -13    1    3    3    0    0  0.11199422978E+03  0.24527612528E+03  0.88007700691E+03  0.92045566065E+03  0.00000000000E+00 0. -1.
          4    1    6    6  502    0  0.10353483646E+02 -0.17269042362E+02 -0.10451053197E+03  0.10643244684E+03  0.00000000000E+00 0. -1.
          1    1    5    5  503    0 -0.17141854148E+03 -0.15343788068E+03  0.60459805823E+03  0.64688972137E+03  0.00000000000E+00 0. -1.
         -2    1    5    5    0  503 -0.53718834948E+02 -0.23044538289E+02  0.28279984290E+03  0.28877762225E+03  0.00000000000E+00 0.  1.
         -3    1    6    6    0  502  0.74268655222E+02 -0.58596219777E+02 -0.88704084542E+02  0.12968332481E+03  0.00000000000E+00 0.  1.
<mgrwt>
<rscale>  0 0.14417575E+04</rscale>
<asrwt>0</asrwt>
<pdfrwt beam="1">  1        2 0.30712499E+00 0.14417575E+04</pdfrwt>
<pdfrwt beam="2">  1       -2 0.40048163E-01 0.14417575E+04</pdfrwt>
<totfact> 0.38453359E+01</totfact>
</mgrwt>
</event>
<event>
12    1  0.4612066E-007  0.2158361E+04  0.7818608E-02  0.8535962E-01
          2   -1    0    0  501    0  0.00000000000E+00  0.00000000000E+00  0.27512598939E+04  0.27512598939E+04  0.00000000000E+00 0. -1.
         -2   -1    0    0    0  501 -0.00000000000E+00 -0.00000000000E+00 -0.42330795305E+03  0.42330795305E+03  0.00000000000E+00 0.  1.
         23    2    1    2    0    0 -0.17749442690E+03 -0.48108895787E+03  0.20238921819E+04  0.20897937539E+04  0.90263574975E+02 0.  0.
        254    2    1    2    0    0  0.17749442690E+03  0.48108895787E+03  0.30405975890E+03  0.10847740930E+04  0.90627349011E+03 0.  0.
        -24    2    4    4    0    0 -0.99816002907E+02  0.21936960876E+03 -0.28300760712E+03  0.38050260614E+03  0.81256802212E+02 0.  0.
         24    2    4    4    0    0  0.27731042980E+03  0.26171934911E+03  0.58706736601E+03  0.70427148685E+03  0.77150131415E+02 0.  0.
         13    1    3    3    0    0 -0.72902096700E+02 -0.22026562449E+03  0.74054898784E+03  0.77604411242E+03  0.00000000000E+00 0.  1.
        -13    1    3    3    0    0 -0.10459233020E+03 -0.26082333338E+03  0.12833431941E+04  0.13137496415E+04  0.00000000000E+00 0. -1.
          2    1    6    6  502    0  0.25351401637E+03  0.20116335573E+03  0.49951858216E+03  0.59519313345E+03  0.00000000000E+00 0. -1.
          3    1    5    5  503    0 -0.63166452159E+02  0.19196044960E+03 -0.19257195628E+03  0.27914650854E+03  0.00000000000E+00 0. -1.
         -4    1    5    5    0  503 -0.36649550748E+02  0.27409159164E+02 -0.90435650842E+02  0.10135609759E+03  0.00000000000E+00 0.  1.
         -1    1    6    6    0  502  0.23796413434E+02  0.60555993373E+02  0.87548783855E+02  0.10907835340E+03  0.00000000000E+00 0.  1.
<mgrwt>
<rscale>  0 0.21583607E+04</rscale>
<asrwt>0</asrwt>
<pdfrwt beam="1">  1        2 0.42327074E+00 0.21583607E+04</pdfrwt>
<pdfrwt beam="2">  1       -2 0.65124302E-01 0.21583607E+04</pdfrwt>
<totfact> 0.49375444E+00</totfact>
</mgrwt>
</event>
<event>
12    1  0.4612066E-007  0.2200055E+04  0.7818608E-02  0.8518405E-01
          1   -1    0    0  501    0  0.00000000000E+00  0.00000000000E+00  0.66164457660E+03  0.66164457660E+03  0.00000000000E+00 0. -1.
         -1   -1    0    0    0  501 -0.00000000000E+00 -0.00000000000E+00 -0.18288678205E+04  0.18288678205E+04  0.00000000000E+00 0.  1.
         23    2    1    2    0    0 -0.32473508433E+03 -0.59681661029E+03  0.20447834881E+03  0.71405569586E+03  0.80132392604E+02 0.  0.
        254    2    1    2    0    0  0.32473508433E+03  0.59681661029E+03 -0.13717015928E+04  0.17764567013E+04  0.90143785733E+03 0.  0.
        -24    2    4    4    0    0 -0.15822591014E+03  0.29709905994E+03 -0.68337632403E+02  0.35226124503E+03  0.78196308665E+02 0.  0.
         24    2    4    4    0    0  0.48296099447E+03  0.29971755034E+03 -0.13033639604E+04  0.14241954563E+04  0.80580098546E+02 0.  0.
         13    1    3    3    0    0 -0.15354517274E+03 -0.32121821063E+03  0.69975111156E+02  0.36284125330E+03  0.00000000000E+00 0.  1.
        -13    1    3    3    0    0 -0.17118991159E+03 -0.27559839965E+03  0.13450323766E+03  0.35121444256E+03  0.00000000000E+00 0. -1.
          2    1    6    6  502    0  0.29413926309E+02 -0.15692836197E+01 -0.73902559678E+02  0.79556458185E+02  0.00000000000E+00 0. -1.
          1    1    5    5  503    0 -0.70665062190E+02  0.11745545275E+03 -0.66622804560E+02  0.15240712740E+03  0.00000000000E+00 0. -1.
         -4    1    5    5    0  503 -0.87560847948E+02  0.17964360719E+03 -0.17148278431E+01  0.19985411763E+03  0.00000000000E+00 0.  1.
         -1    1    6    6    0  502  0.45354706816E+03  0.30128683396E+03 -0.12294614007E+04  0.13446389981E+04  0.00000000000E+00 0.  1.
<mgrwt>
<rscale>  0 0.22000550E+04</rscale>
<asrwt>0</asrwt>
<pdfrwt beam="1">  1        1 0.10179147E+00 0.22000550E+04</pdfrwt>
<pdfrwt beam="2">  1       -1 0.28136428E+00 0.22000550E+04</pdfrwt>
<totfact> 0.11795664E+00</totfact>
</mgrwt>
</event>
<event>
12    1  0.4612066E-007  0.1949378E+04  0.7818608E-02  0.8630661E-01
          2   -1    0    0  501    0  0.00000000000E+00  0.00000000000E+00  0.67325969392E+03  0.67325969392E+03  0.00000000000E+00 0.  1.
         -2   -1    0    0    0  501 -0.00000000000E+00 -0.00000000000E+00 -0.14110724761E+04  0.14110724761E+04  0.00000000000E+00 0. -1.
         23    2    1    2    0    0  0.41541906796E+03 -0.27140925421E+03 -0.89890571389E+03  0.10334845291E+04  0.11757042228E+03 0.  0.
        254    2    1    2    0    0 -0.41541906796E+03  0.27140925421E+03  0.16109293173E+03  0.10508476409E+04  0.91219178158E+03 0.  0.
        -24    2    4    4    0    0 -0.31977022726E+03  0.31231630247E+03 -0.31788249033E+03  0.55426267223E+03  0.79770678453E+02 0.  0.
         24    2    4    4    0    0 -0.95648840694E+02 -0.40907048257E+02  0.47897542207E+03  0.49658496864E+03  0.79731354013E+02 0.  0.
         13    1    3    3    0    0  0.33069179804E+03 -0.18293665191E+03 -0.58424441310E+03  0.69581924243E+03  0.00000000000E+00 0.  1.
        -13    1    3    3    0    0  0.84727269920E+02 -0.88472602304E+02 -0.31466130079E+03  0.33766528670E+03  0.00000000000E+00 0. -1.
          2    1    6    6  502    0 -0.99146319570E+01 -0.48875680149E+01  0.27849453728E+01  0.11399305622E+02  0.00000000000E+00 0. -1.
          1    1    5    5  503    0 -0.11380929807E+03  0.15487575088E+03 -0.16493369585E+03  0.25326306199E+03  0.00000000000E+00 0. -1.
         -2    1    5    5    0  503 -0.20596092919E+03  0.15744055158E+03 -0.15294879448E+03  0.30099961025E+03  0.00000000000E+00 0.  1.
         -1    1    6    6    0  502 -0.85734208737E+02 -0.36019480242E+02  0.47619047669E+03  0.48518566302E+03  0.00000000000E+00 0.  1.
<mgrwt>
<rscale>  0 0.19493776E+04</rscale>
<asrwt>0</asrwt>
<pdfrwt beam="1">  1        2 0.10357842E+00 0.19493776E+04</pdfrwt>
<pdfrwt beam="2">  1       -2 0.21708807E+00 0.19493776E+04</pdfrwt>
<totfact> 0.41380572E+00</totfact>
</mgrwt>
</event>
<event>
12    1  0.4612066E-007  0.2219885E+04  0.7818608E-02  0.8510197E-01
          2   -1    0    0  501    0  0.00000000000E+00  0.00000000000E+00  0.88577702737E+03  0.88577702737E+03  0.00000000000E+00 0. -1.
         -2   -1    0    0    0  501 -0.00000000000E+00 -0.00000000000E+00 -0.13908382664E+04  0.13908382664E+04  0.00000000000E+00 0.  1.
         23    2    1    2    0    0  0.82188134985E+03 -0.25889942518E+03 -0.56162231572E+03  0.10328471359E+04  0.93998483653E+02 0.  0.
        254    2    1    2    0    0 -0.82188134985E+03  0.25889942518E+03  0.56561076690E+02  0.12437681579E+04  0.89512133797E+03 0.  0.
        -24    2    4    4    0    0 -0.85785976700E+03  0.42500973201E+03 -0.14004697528E+03  0.97153574283E+03  0.87817379678E+02 0.  0.
         24    2    4    4    0    0  0.35978417147E+02 -0.16611030683E+03  0.19660805197E+03  0.27223241509E+03  0.81047400890E+02 0.  0.
         13    1    3    3    0    0  0.35154410387E+03 -0.62484774182E+02 -0.22586073371E+03  0.42249340232E+03  0.00000000000E+00 0. -1.
        -13    1    3    3    0    0  0.47033724598E+03 -0.19641465100E+03 -0.33576158201E+03  0.61035373353E+03  0.00000000000E+00 0.  1.
          2    1    6    6  502    0  0.35652752056E+02 -0.16971301498E+03  0.20169069825E+03  0.26599391712E+03  0.00000000000E+00 0. -1.
          3    1    5    5  503    0 -0.77968000011E+03  0.40344295214E+03 -0.14715637515E+03  0.89012477606E+03  0.00000000000E+00 0. -1.
         -4    1    5    5    0  503 -0.78179766887E+02  0.21566779875E+02  0.71093998680E+01  0.81410966775E+02  0.00000000000E+00 0.  1.
         -1    1    6    6    0  502  0.32566509161E+00  0.36027081489E+01 -0.50826462804E+01  0.62384979738E+01  0.00000000000E+00 0.  1.
<mgrwt>
<rscale>  0 0.22198852E+04</rscale>
<asrwt>0</asrwt>
<pdfrwt beam="1">  1        2 0.13627339E+00 0.22198852E+04</pdfrwt>
<pdfrwt beam="2">  1       -2 0.21397512E+00 0.22198852E+04</pdfrwt>
<totfact> 0.29530716E+00</totfact>
</mgrwt>
</event>
<event>
12    1  0.4612066E-007  0.2183936E+04  0.7818608E-02  0.8525144E-01
         -2   -1    0    0    0  501 -0.00000000000E+00  0.00000000000E+00  0.93394440156E+03  0.93394440156E+03  0.00000000000E+00 0. -1.
          2   -1    0    0  501    0  0.00000000000E+00 -0.00000000000E+00 -0.12767287470E+04  0.12767287470E+04  0.00000000000E+00 0.  1.
         23    2    1    2    0    0 -0.82712275003E+02 -0.70114740791E+03  0.43734465330E+03  0.83595930026E+03  0.95438974581E+02 0.  0.
        254    2    1    2    0    0  0.82712275003E+02  0.70114740791E+03 -0.78012899876E+03  0.13747138483E+04  0.88475301753E+03 0.  0.
        -24    2    4    4    0    0  0.25997307360E+03  0.82714839299E+03 -0.73259177741E+03  0.11380846358E+04  0.82373921697E+02 0.  0.
         24    2    4    4    0    0 -0.17726079860E+03 -0.12600098508E+03 -0.47537221348E+02  0.23662921250E+03  0.80224421679E+02 0.  0.
         11    1    3    3    0    0 -0.13504405786E+02 -0.95035751350E+02  0.10097632150E+03  0.13932114166E+03  0.00000000000E+00 0. -1.
        -11    1    3    3    0    0 -0.69207869217E+02 -0.60611165656E+03  0.33636833180E+03  0.69663815860E+03  0.00000000000E+00 0.  1.
          4    1    6    6  502    0 -0.26090403534E+02  0.91993793292E+01  0.23807311492E+01  0.27766987907E+02  0.00000000000E+00 0. -1.
          3    1    5    5  503    0  0.90271089699E+00  0.46034666487E+02 -0.23093977343E+02  0.51510554210E+02  0.00000000000E+00 0. -1.
         -4    1    5    5    0  503  0.25907036270E+03  0.78111372650E+03 -0.70949780006E+03  0.10865740816E+04  0.00000000000E+00 0.  1.
         -3    1    6    6    0  502 -0.15117039506E+03 -0.13520036441E+03 -0.49917952497E+02  0.20886222459E+03  0.00000000000E+00 0.  1.
<mgrwt>
<rscale>  0 0.21839356E+04</rscale>
<asrwt>0</asrwt>
<pdfrwt beam="1">  1        2 0.19641981E+00 0.21839356E+04</pdfrwt>
<pdfrwt beam="2">  1       -2 0.14368375E+00 0.21839356E+04</pdfrwt>
<totfact> 0.52404786E+00</totfact>
</mgrwt>
</event>
<event>
12    1  0.4612066E-007  0.1545273E+04  0.7818608E-02  0.8854893E-01
         -1   -1    0    0    0  501 -0.00000000000E+00  0.00000000000E+00  0.14426373986E+03  0.14426373986E+03  0.00000000000E+00 0.  1.
          1   -1    0    0  501    0  0.00000000000E+00 -0.00000000000E+00 -0.41380273472E+04  0.41380273472E+04  0.00000000000E+00 0. -1.
         23    2    1    2    0    0  0.18083128858E+03 -0.44821254832E+03 -0.17011129905E+04  0.17708511112E+04  0.92378614336E+02 0.  0.
        254    2    1    2    0    0 -0.18083128858E+03  0.44821254832E+03 -0.22926506169E+04  0.25114399758E+04  0.90415123611E+03 0.  0.
        -24    2    4    4    0    0 -0.35419219003E+03  0.61608302145E+03 -0.12645703800E+04  0.14527746716E+04  0.80035014987E+02 0.  0.
         24    2    4    4    0    0  0.17336090146E+03 -0.16787047312E+03 -0.10280802369E+04  0.10586653043E+04  0.74757976638E+02 0.  0.
         11    1    3    3    0    0  0.68586952665E+02 -0.16952735614E+03 -0.81236677244E+03  0.83269650384E+03  0.00000000000E+00 0. -1.
        -11    1    3    3    0    0  0.11224433591E+03 -0.27868519218E+03 -0.88874621805E+03  0.93815460740E+03  0.00000000000E+00 0.  1.
          4    1    6    6  502    0  0.10745370916E+03 -0.60652427978E+02 -0.59548640375E+03  0.60813573624E+03  0.00000000000E+00 0. -1.
          1    1    5    5  503    0 -0.20438413622E+02  0.61298962692E+02 -0.15821501756E+03  0.17090138490E+03  0.00000000000E+00 0. -1.
         -4    1    5    5    0  503 -0.33375377641E+03  0.55478405875E+03 -0.11063553624E+04  0.12818732867E+04  0.00000000000E+00 0.  1.
         -3    1    6    6    0  502  0.65907192299E+02 -0.10721804514E+03 -0.43259383313E+03  0.45052956802E+03  0.00000000000E+00 0.  1.
<mgrwt>
<rscale>  0 0.15452732E+04</rscale>
<asrwt>0</asrwt>
<pdfrwt beam="1">  1        1 0.63661972E+00 0.15452732E+04</pdfrwt>
<pdfrwt beam="2">  1       -1 0.22194417E-01 0.15452732E+04</pdfrwt>
<totfact> 0.12179936E+00</totfact>
</mgrwt>
</event>
<event>
12    1  0.5142961E-007  0.1639882E+04  0.7818608E-02  0.8796415E-01
          2   -1    0    0  501    0  0.00000000000E+00  0.00000000000E+00  0.75318575697E+03  0.75318575697E+03  0.00000000000E+00 0. -1.
         -2   -1    0    0    0  501 -0.00000000000E+00 -0.00000000000E+00 -0.89261237863E+03  0.89261237863E+03  0.00000000000E+00 0.  1.
         23    2    1    2    0    0  0.34658351846E+03  0.37832083305E+02  0.40244556132E+03  0.53812387708E+03  0.77868321350E+02 0.  0.
        254    2    1    2    0    0 -0.34658351846E+03 -0.37832083305E+02 -0.54187218298E+03  0.11076742585E+04  0.90098024312E+03 0.  0.
        -24    2    4    4    0    0 -0.25468956134E+03  0.33086114630E+03 -0.57813262886E+03  0.71764388165E+03  0.80246704166E+02 0.  0.
         24    2    4    4    0    0 -0.91893957121E+02 -0.36869322960E+03  0.36260445880E+02  0.39003037687E+03  0.80185273168E+02 0.  0.
         11    1    3    3    0    0  0.91183142927E+02 -0.57326398535E+01  0.62475399630E+02  0.11068154441E+03  0.00000000000E+00 0.  1.
        -11    1    3    3    0    0  0.25540037553E+03  0.43564723158E+02  0.33997016169E+03  0.42744233268E+03  0.00000000000E+00 0. -1.
          4    1    6    6  502    0 -0.93873308397E+02 -0.22143819889E+03  0.12326450701E+02  0.24082984728E+03  0.00000000000E+00 0. -1.
          3    1    5    5  503    0 -0.24253487230E+03  0.32714777797E+03 -0.57490447715E+03  0.70453104315E+03  0.00000000000E+00 0. -1.
         -2    1    5    5    0  503 -0.12154689037E+02  0.37133683298E+01 -0.32281517022E+01  0.13112838494E+02  0.00000000000E+00 0.  1.
         -3    1    6    6    0  502  0.19793512763E+01 -0.14725503072E+03  0.23933995179E+02  0.14920052959E+03  0.00000000000E+00 0.  1.
<mgrwt>
<rscale>  0 0.16398816E+04</rscale>
<asrwt>0</asrwt>
<pdfrwt beam="1">  1        2 0.11587473E+00 0.16398816E+04</pdfrwt>
<pdfrwt beam="2">  1       -2 0.13732498E+00 0.16398816E+04</pdfrwt>
<totfact> 0.13457644E+01</totfact>
</mgrwt>
</event>
<event>
12    1  0.4612066E-007  0.1355153E+04  0.7818608E-02  0.8986937E-01
          1   -1    0    0  501    0  0.00000000000E+00  0.00000000000E+00  0.24428157160E+03  0.24428157160E+03  0.00000000000E+00 0. -1.
         -1   -1    0    0    0  501 -0.00000000000E+00 -0.00000000000E+00 -0.18794280718E+04  0.18794280718E+04  0.00000000000E+00 0.  1.
         23    2    1    2    0    0 -0.16892617254E+02 -0.32427686680E+03 -0.75507294630E+03  0.82634819392E+03  0.85295583058E+02 0.  0.
        254    2    1    2    0    0  0.16892617254E+02  0.32427686680E+03 -0.88007355389E+03  0.12973614495E+04  0.89620110661E+03 0.  0.
        -24    2    4    4    0    0  0.38663387614E+03  0.14834046967E+03 -0.74977710059E+03  0.86029318552E+03  0.80299535268E+02 0.  0.
         24    2    4    4    0    0 -0.36974125889E+03  0.17593639713E+03 -0.13029645330E+03  0.43706826396E+03  0.79933017324E+02 0.  0.
         13    1    3    3    0    0 -0.38329903853E+02 -0.25206401998E+03 -0.51366394698E+03  0.57345976504E+03  0.00000000000E+00 0. -1.
        -13    1    3    3    0    0  0.21437286599E+02 -0.72212846819E+02 -0.24140899932E+03  0.25288842887E+03  0.00000000000E+00 0.  1.
          4    1    6    6  502    0 -0.32540594020E+03  0.15823855932E+03 -0.14066088872E+03  0.38821895006E+03  0.00000000000E+00 0. -1.
          3    1    5    5  503    0  0.36347830849E+03  0.11762780162E+03 -0.69904692823E+03  0.79663001972E+03  0.00000000000E+00 0. -1.
         -4    1    5    5    0  503  0.23155567650E+02  0.30712668046E+02 -0.50730172365E+02  0.63663165801E+02  0.00000000000E+00 0.  1.
         -3    1    6    6    0  502 -0.44335318685E+02  0.17697837815E+02  0.10364435424E+02  0.48849313894E+02  0.00000000000E+00 0.  1.
<mgrwt>
<rscale>  0 0.13551526E+04</rscale>
<asrwt>0</asrwt>
<pdfrwt beam="1">  1        1 0.37581781E-01 0.13551526E+04</pdfrwt>
<pdfrwt beam="2">  1       -1 0.28914277E+00 0.13551526E+04</pdfrwt>
<totfact> 0.43693748E+00</totfact>
</mgrwt>
</event>
<event>
12    1  0.4612066E-007  0.2950689E+04  0.7818608E-02  0.8257954E-01
         -1   -1    0    0    0  501 -0.00000000000E+00  0.00000000000E+00  0.92686087043E+03  0.92686087043E+03  0.00000000000E+00 0.  1.
          1   -1    0    0  501    0  0.00000000000E+00 -0.00000000000E+00 -0.23484007395E+04  0.23484007395E+04  0.00000000000E+00 0. -1.
         23    2    1    2    0    0  0.84254676635E+03 -0.10365216935E+04 -0.73552067876E+03  0.15276317590E+04  0.91683409695E+02 0.  0.
        254    2    1    2    0    0 -0.84254676635E+03  0.10365216935E+04 -0.68601919035E+03  0.17476298510E+04  0.89405004995E+03 0.  0.
        -24    2    4    4    0    0  0.13557853559E+03  0.38280683246E+03 -0.28284687562E+03  0.50143949721E+03  0.80725485579E+02 0.  0.
         24    2    4    4    0    0 -0.97812530193E+03  0.65371486107E+03 -0.40317231473E+03  0.12461903538E+04  0.79813887084E+02 0.  0.
         11    1    3    3    0    0  0.42754669690E+03 -0.50176410470E+03 -0.41222336348E+03  0.77749051196E+03  0.00000000000E+00 0. -1.
        -11    1    3    3    0    0  0.41500006945E+03 -0.53475758884E+03 -0.32329731528E+03  0.75014124705E+03  0.00000000000E+00 0.  1.
          2    1    6    6  502    0 -0.87763696733E+03  0.55620273464E+03 -0.34988346733E+03  0.10963697228E+04  0.00000000000E+00 0. -1.
          3    1    5    5  503    0  0.10061443163E+02  0.12739046688E+03 -0.10892676858E+03  0.16791249091E+03  0.00000000000E+00 0. -1.
         -4    1    5    5    0  503  0.12551709242E+03  0.25541636558E+03 -0.17392010703E+03  0.33352700629E+03  0.00000000000E+00 0.  1.
         -1    1    6    6    0  502 -0.10048833460E+03  0.97512126430E+02 -0.53288847404E+02  0.14982063092E+03  0.00000000000E+00 0.  1.
<mgrwt>
<rscale>  0 0.29506886E+04</rscale>
<asrwt>0</asrwt>
<pdfrwt beam="1">  1        1 0.36129242E+00 0.29506886E+04</pdfrwt>
<pdfrwt beam="2">  1       -1 0.14259398E+00 0.29506886E+04</pdfrwt>
<totfact> 0.58835197E-01</totfact>
</mgrwt>
</event>
<event>
12    1  0.4612066E-007  0.2533968E+04  0.7818608E-02  0.8390983E-01
         -2   -1    0    0    0  501 -0.00000000000E+00  0.00000000000E+00  0.90833435071E+03  0.90833435071E+03  0.00000000000E+00 0.  1.
          2   -1    0    0  501    0  0.00000000000E+00 -0.00000000000E+00 -0.17672446423E+04  0.17672446423E+04  0.00000000000E+00 0. -1.
         23    2    1    2    0    0  0.20496413147E+03  0.10864917258E+04 -0.40357202451E+03  0.11805649862E+04  0.91590077794E+02 0.  0.
        254    2    1    2    0    0 -0.20496413147E+03 -0.10864917258E+04 -0.45533826704E+03  0.14950140067E+04  0.89736245601E+03 0.  0.
        -24    2    4    4    0    0  0.24471614926E+03 -0.66006231477E+03  0.21954732598E+02  0.70868685755E+03  0.78656205668E+02 0.  0.
         24    2    4    4    0    0 -0.44968028073E+03 -0.42642941103E+03 -0.47729299964E+03  0.78632714918E+03  0.80295582457E+02 0.  0.
         13    1    3    3    0    0  0.94397485363E+02  0.73231547641E+03 -0.27301475805E+03  0.78723179582E+03  0.00000000000E+00 0. -1.
        -13    1    3    3    0    0  0.11056664611E+03  0.35417624938E+03 -0.13055726646E+03  0.39333319042E+03  0.00000000000E+00 0.  1.
          2    1    6    6  502    0 -0.41427699406E+03 -0.37733372124E+03 -0.45499413941E+03  0.72182119108E+03  0.00000000000E+00 0. -1.
          1    1    5    5  503    0  0.25066645369E+03 -0.63843152937E+03  0.20032577475E+02  0.68617038180E+03  0.00000000000E+00 0. -1.
         -2    1    5    5    0  503 -0.59503044289E+01 -0.21630785402E+02  0.19221551237E+01  0.22516475751E+02  0.00000000000E+00 0.  1.
         -1    1    6    6    0  502 -0.35403286671E+02 -0.49095689790E+02 -0.22298860230E+02  0.64505958102E+02  0.00000000000E+00 0.  1.
<mgrwt>
<rscale>  0 0.25339684E+04</rscale>
<asrwt>0</asrwt>
<pdfrwt beam="1">  1        2 0.27188379E+00 0.25339684E+04</pdfrwt>
<pdfrwt beam="2">  1       -2 0.13974375E+00 0.25339684E+04</pdfrwt>
<totfact> 0.28883474E+00</totfact>
</mgrwt>
</event>
<event>
12    1  0.4612066E-007  0.1153647E+04  0.7818608E-02  0.9154426E-01
          1   -1    0    0  501    0  0.00000000000E+00  0.00000000000E+00  0.11861486106E+04  0.11861486106E+04  0.00000000000E+00 0. -1.
         -1   -1    0    0    0  501 -0.00000000000E+00 -0.00000000000E+00 -0.28050900942E+03  0.28050900942E+03  0.00000000000E+00 0.  1.
         23    2    1    2    0    0 -0.20667252843E+03 -0.77737506042E+01  0.18939589649E+03  0.29477276153E+03  0.90808645660E+02 0.  0.
        254    2    1    2    0    0  0.20667252843E+03  0.77737506042E+01  0.71624370471E+03  0.11718848585E+04  0.90417648271E+03 0.  0.
        -24    2    4    4    0    0  0.19987640294E+03  0.43720432017E+03  0.42623319557E+03  0.64723088352E+03  0.78325510271E+02 0.  0.
         24    2    4    4    0    0  0.67961254906E+01 -0.42943056956E+03  0.29001050914E+03  0.52465397499E+03  0.81846787767E+02 0.  0.
         13    1    3    3    0    0 -0.99249361115E+02 -0.45564263857E+02  0.69671203392E+02  0.12954001083E+03  0.00000000000E+00 0.  1.
        -13    1    3    3    0    0 -0.10742316732E+03  0.37790513253E+02  0.11972469310E+03  0.16523275071E+03  0.00000000000E+00 0. -1.
          2    1    6    6  502    0  0.22289044005E+02 -0.13240931840E+03  0.13011594133E+03  0.18697376091E+03  0.00000000000E+00 0. -1.
          3    1    5    5  503    0  0.23233892029E+02  0.41765063124E+02  0.78082225269E+02  0.91547627711E+02  0.00000000000E+00 0. -1.
         -2    1    5    5    0  503  0.17664251091E+03  0.39543925704E+03  0.34815097030E+03  0.55568325581E+03  0.00000000000E+00 0.  1.
         -1    1    6    6    0  502 -0.15492918514E+02 -0.29702125116E+03  0.15989456781E+03  0.33768021408E+03  0.00000000000E+00 0.  1.
<mgrwt>
<rscale>  0 0.11536470E+04</rscale>
<asrwt>0</asrwt>
<pdfrwt beam="1">  1        1 0.18248440E+00 0.11536470E+04</pdfrwt>
<pdfrwt beam="2">  1       -1 0.43155233E-01 0.11536470E+04</pdfrwt>
<totfact> 0.57477410E+01</totfact>
</mgrwt>
</event>
<event>
12    1  0.4612066E-007  0.2150250E+04  0.7818608E-02  0.8539425E-01
         -1   -1    0    0    0  501 -0.00000000000E+00  0.00000000000E+00  0.97539785001E+03  0.97539785001E+03  0.00000000000E+00 0.  1.
          1   -1    0    0  501    0  0.00000000000E+00 -0.00000000000E+00 -0.11850485643E+04  0.11850485643E+04  0.00000000000E+00 0. -1.
         23    2    1    2    0    0  0.33734572235E+03  0.79387142066E+03 -0.30338444078E+03  0.91891429034E+03  0.91254507644E+02 0.  0.
        254    2    1    2    0    0 -0.33734572235E+03 -0.79387142066E+03  0.93733726495E+02  0.12415321240E+04  0.88802141551E+03 0.  0.
        -24    2    4    4    0    0 -0.10085889220E+03 -0.77185108776E+03 -0.24479980074E+03  0.81956851531E+03  0.76413291034E+02 0.  0.
         24    2    4    4    0    0 -0.23648683014E+03 -0.22020332903E+02  0.33853352723E+03  0.42196360864E+03  0.83889344187E+02 0.  0.
         13    1    3    3    0    0  0.78350019887E+02  0.23703793220E+03 -0.50180932774E+02  0.25464452268E+03  0.00000000000E+00 0.  1.
        -13    1    3    3    0    0  0.25899570246E+03  0.55683348846E+03 -0.25320350801E+03  0.66426976766E+03  0.00000000000E+00 0. -1.
          2    1    6    6  502    0 -0.16860771444E+03 -0.44628975203E+02  0.19522343880E+03  0.26178712316E+03  0.00000000000E+00 0. -1.
          1    1    5    5  503    0  0.75929694224E+00 -0.20196878289E+03 -0.84313049171E+02  0.21886218507E+03  0.00000000000E+00 0. -1.
         -2    1    5    5    0  503 -0.10161818915E+03 -0.56988230487E+03 -0.16048675156E+03  0.60070633025E+03  0.00000000000E+00 0.  1.
         -1    1    6    6    0  502 -0.67879115706E+02  0.22608642300E+02  0.14331008844E+03  0.16017648549E+03  0.00000000000E+00 0.  1.
<mgrwt>
<rscale>  0 0.21502501E+04</rscale>
<asrwt>0</asrwt>
<pdfrwt beam="1">  1        1 0.18231516E+00 0.21502501E+04</pdfrwt>
<pdfrwt beam="2">  1       -1 0.15006121E+00 0.21502501E+04</pdfrwt>
<totfact> 0.34976347E+00</totfact>
</mgrwt>
</event>
<event>
12    1  0.4612066E-007  0.1447384E+04  0.7818608E-02  0.8920216E-01
          1   -1    0    0  501    0  0.00000000000E+00  0.00000000000E+00  0.51475937120E+03  0.51475937120E+03  0.00000000000E+00 0. -1.
         -1   -1    0    0    0  501 -0.00000000000E+00 -0.00000000000E+00 -0.10174269587E+04  0.10174269587E+04  0.00000000000E+00 0.  1.
         23    2    1    2    0    0  0.38998067900E+02  0.37597561293E+03 -0.40791170038E+03  0.56415055021E+03  0.94843962262E+02 0.  0.
        254    2    1    2    0    0 -0.38998067900E+02 -0.37597561293E+03 -0.94755887148E+02  0.96803577972E+03  0.88613547601E+03 0.  0.
        -24    2    4    4    0    0 -0.14419742296E+03 -0.59588309301E+03 -0.25172269255E+03  0.66743055877E+03  0.78928318881E+02 0.  0.
         24    2    4    4    0    0  0.10519935506E+03  0.21990748008E+03  0.15696680540E+03  0.30060522094E+03  0.79364455269E+02 0.  0.
         13    1    3    3    0    0  0.24892059185E+02  0.90928231089E+02 -0.51068730888E+02  0.10721741040E+03  0.00000000000E+00 0. -1.
        -13    1    3    3    0    0  0.14106008715E+02  0.28504738184E+03 -0.35684296949E+03  0.45693313980E+03  0.00000000000E+00 0.  1.
          2    1    6    6  502    0  0.10846953063E+03  0.14746490279E+03  0.10157738100E+03  0.20935496402E+03  0.00000000000E+00 0. -1.
          3    1    5    5  503    0 -0.59728270087E+01 -0.49041768928E+01 -0.13237562302E+02  0.15328361595E+02  0.00000000000E+00 0. -1.
         -2    1    5    5    0  503 -0.13822459595E+03 -0.59097891611E+03 -0.23848513025E+03  0.65210219718E+03  0.00000000000E+00 0.  1.
         -1    1    6    6    0  502 -0.32701755678E+01  0.72442577287E+02  0.55389424405E+02  0.91250256921E+02  0.00000000000E+00 0.  1.
<mgrwt>
<rscale>  0 0.14473839E+04</rscale>
<asrwt>0</asrwt>
<pdfrwt beam="1">  1        1 0.79193749E-01 0.14473839E+04</pdfrwt>
<pdfrwt beam="2">  1       -1 0.15652722E+00 0.14473839E+04</pdfrwt>
<totfact> 0.12844833E+01</totfact>
</mgrwt>
</event>
<event>
12    1  0.4612066E-007  0.1478728E+04  0.7818608E-02  0.8898723E-01
         -1   -1    0    0    0  501 -0.00000000000E+00  0.00000000000E+00  0.46179343960E+03  0.46179343960E+03  0.00000000000E+00 0.  1.
          1   -1    0    0  501    0  0.00000000000E+00 -0.00000000000E+00 -0.11837747850E+04  0.11837747850E+04  0.00000000000E+00 0. -1.
         23    2    1    2    0    0 -0.23365657471E+03  0.69902733459E+02 -0.67477971272E+03  0.72346041655E+03  0.92658116526E+02 0.  0.
        254    2    1    2    0    0  0.23365657471E+03 -0.69902733459E+02 -0.47201632667E+02  0.92210780805E+03  0.88801634472E+03 0.  0.
        -24    2    4    4    0    0  0.44533928743E+01  0.35340646855E+03 -0.19464244972E+03  0.41219566502E+03  0.84282965711E+02 0.  0.
         24    2    4    4    0    0  0.22920318183E+03 -0.42330920201E+03  0.14744081705E+03  0.50991214303E+03  0.80912421850E+02 0.  0.
         13    1    3    3    0    0 -0.10329194345E+03  0.71343580740E+02 -0.26086293345E+03  0.28949715395E+03  0.00000000000E+00 0.  1.
        -13    1    3    3    0    0 -0.13036463126E+03 -0.14408472811E+01 -0.41391677927E+03  0.43396326260E+03  0.00000000000E+00 0. -1.
          2    1    6    6  502    0  0.17304970904E+03 -0.35224395670E+03  0.89946643752E+02  0.40263184866E+03  0.00000000000E+00 0. -1.
          3    1    5    5  503    0  0.50113136311E+00  0.23211156320E+03 -0.17162866788E+03  0.28867356745E+03  0.00000000000E+00 0. -1.
         -4    1    5    5    0  503  0.39522615112E+01  0.12129490535E+03 -0.23013781837E+02  0.12352209757E+03  0.00000000000E+00 0.  1.
         -1    1    6    6    0  502  0.56153472791E+02 -0.71065245304E+02  0.57494173297E+02  0.10728029437E+03  0.00000000000E+00 0.  1.
<mgrwt>
<rscale>  0 0.14787284E+04</rscale>
<asrwt>0</asrwt>
<pdfrwt beam="1">  1        1 0.18211920E+00 0.14787284E+04</pdfrwt>
<pdfrwt beam="2">  1       -1 0.71045144E-01 0.14787284E+04</pdfrwt>
<totfact> 0.21298324E+01</totfact>
</mgrwt>
</event>
<event>
12    1  0.4612066E-007  0.1693625E+04  0.7818608E-02  0.8765009E-01
         -2   -1    0    0    0  501 -0.00000000000E+00  0.00000000000E+00  0.12901654251E+04  0.12901654251E+04  0.00000000000E+00 0.  1.
          2   -1    0    0  501    0  0.00000000000E+00 -0.00000000000E+00 -0.55581352363E+03  0.55581352363E+03  0.00000000000E+00 0. -1.
         23    2    1    2    0    0 -0.29298712544E+03 -0.36176136684E+03 -0.15147410142E+03  0.49800141474E+03  0.91368832077E+02 0.  0.
        254    2    1    2    0    0  0.29298712544E+03  0.36176136684E+03  0.88582600287E+03  0.13479775340E+04  0.90312954914E+03 0.  0.
        -24    2    4    4    0    0 -0.20656314353E+03  0.45083394486E+03  0.45083770244E+03  0.67486597762E+03  0.79182546690E+02 0.  0.
         24    2    4    4    0    0  0.49955026897E+03 -0.89072578023E+02  0.43498830043E+03  0.67311155636E+03  0.79874591717E+02 0.  0.
         11    1    3    3    0    0 -0.15281798652E+03 -0.20506730425E+03 -0.36380558721E+02  0.25832050118E+03  0.00000000000E+00 0.  1.
        -11    1    3    3    0    0 -0.14016913892E+03 -0.15669406259E+03 -0.11509354270E+03  0.23968091356E+03  0.00000000000E+00 0. -1.
          4    1    6    6  502    0  0.14057902872E+03  0.94381729681E+01  0.10588165797E+03  0.17624547631E+03  0.00000000000E+00 0. -1.
          3    1    5    5  503    0 -0.52095269558E+02  0.52066080336E+02  0.81058072726E+02  0.10952262317E+03  0.00000000000E+00 0. -1.
         -4    1    5    5    0  503 -0.15446787398E+03  0.39876786452E+03  0.36977962972E+03  0.56534335445E+03  0.00000000000E+00 0.  1.
         -3    1    6    6    0  502  0.35897124025E+03 -0.98510750991E+02  0.32910664246E+03  0.49686608004E+03  0.00000000000E+00 0.  1.
<mgrwt>
<rscale>  0 0.16936250E+04</rscale>
<asrwt>0</asrwt>
<pdfrwt beam="1">  1        2 0.85509773E-01 0.16936250E+04</pdfrwt>
<pdfrwt beam="2">  1       -2 0.19848699E+00 0.16936250E+04</pdfrwt>
<totfact> 0.70372164E+00</totfact>
</mgrwt>
</event>
<event>
12    1  0.4612066E-007  0.2688363E+04  0.7818608E-02  0.8338791E-01
          2   -1    0    0  501    0  0.00000000000E+00  0.00000000000E+00  0.19081147959E+04  0.19081147959E+04  0.00000000000E+00 0.  1.
         -2   -1    0    0    0  501 -0.00000000000E+00 -0.00000000000E+00 -0.94691559074E+03  0.94691559074E+03  0.00000000000E+00 0. -1.
         23    2    1    2    0    0 -0.78741926814E+03  0.89934178056E+03  0.42758253976E+03  0.12723322729E+04  0.84604032399E+02 0.  0.
        254    2    1    2    0    0  0.78741926814E+03 -0.89934178056E+03  0.53361666538E+03  0.15826981137E+04  0.88957396066E+03 0.  0.
        -24    2    4    4    0    0 -0.73999158745E+02 -0.34461829862E+03  0.41071195685E+03  0.54710797558E+03  0.80032357201E+02 0.  0.
         24    2    4    4    0    0  0.86141842688E+03 -0.55472348194E+03  0.12290470853E+03  0.10355901381E+04  0.87071919972E+02 0.  0.
         13    1    3    3    0    0 -0.23965863463E+03  0.33147472492E+03  0.13252920908E+03  0.42997179637E+03  0.00000000000E+00 0. -1.
        -13    1    3    3    0    0 -0.54776063351E+03  0.56786705564E+03  0.29505333068E+03  0.84236047655E+03  0.00000000000E+00 0.  1.
          4    1    6    6  502    0  0.88982562572E+02 -0.53056314573E+02  0.39123416298E+02  0.11074073623E+03  0.00000000000E+00 0. -1.
          1    1    5    5  503    0 -0.62657414508E+02 -0.12681489285E+03  0.18939262735E+03  0.23638429714E+03  0.00000000000E+00 0. -1.
         -2    1    5    5    0  503 -0.11341744238E+02 -0.21780340578E+03  0.22131932950E+03  0.31072367844E+03  0.00000000000E+00 0.  1.
         -3    1    6    6    0  502  0.77243586431E+03 -0.50166716737E+03  0.83781292234E+02  0.92484940191E+03  0.00000000000E+00 0.  1.
<mgrwt>
<rscale>  0 0.26883628E+04</rscale>
<asrwt>0</asrwt>
<pdfrwt beam="1">  1        2 0.29355612E+00 0.26883628E+04</pdfrwt>
<pdfrwt beam="2">  1       -2 0.14567932E+00 0.26883628E+04</pdfrwt>
<totfact> 0.21362179E+00</totfact>
</mgrwt>
</event>
<event>
12    1  0.5279478E-007  0.1802939E+04  0.7818608E-02  0.8704738E-01
          2   -1    0    0  501    0  0.00000000000E+00  0.00000000000E+00  0.14159560457E+04  0.14159560457E+04  0.00000000000E+00 0. -1.
         -2   -1    0    0    0  501 -0.00000000000E+00 -0.00000000000E+00 -0.57392143634E+03  0.57392143634E+03  0.00000000000E+00 0.  1.
         23    2    1    2    0    0 -0.36680188503E+03  0.53356227755E+03  0.49111100792E+03  0.81761319148E+03  0.89827511885E+02 0.  0.
        254    2    1    2    0    0  0.36680188503E+03 -0.53356227755E+03  0.35092360140E+03  0.11722642905E+04  0.91204378510E+03 0.  0.
        -24    2    4    4    0    0 -0.29429024853E+03 -0.19877610311E+03  0.18774627429E+03  0.40982792579E+03  0.81188519495E+02 0.  0.
         24    2    4    4    0    0  0.66109213357E+03 -0.33478617444E+03  0.16317732710E+03  0.76243636474E+03  0.74550509942E+02 0.  0.
         11    1    3    3    0    0 -0.14729467679E+03  0.24266909312E+03  0.26753419069E+03  0.39007506170E+03  0.00000000000E+00 0. -1.
        -11    1    3    3    0    0 -0.21950720824E+03  0.29089318443E+03  0.22357681723E+03  0.42753812979E+03  0.00000000000E+00 0.  1.
          2    1    6    6  502    0  0.63527204430E+03 -0.30889224198E+03  0.16641326510E+03  0.72572609311E+03  0.00000000000E+00 0. -1.
          3    1    5    5  503    0 -0.26172801449E+03 -0.18593362744E+03  0.19275300294E+03  0.37446840658E+03  0.00000000000E+00 0. -1.
         -4    1    5    5    0  503 -0.32562234039E+02 -0.12842475669E+02 -0.50067286497E+01  0.35359519209E+02  0.00000000000E+00 0.  1.
         -1    1    6    6    0  502  0.25820089266E+02 -0.25893932464E+02 -0.32359379908E+01  0.36710271626E+02  0.00000000000E+00 0.  1.
<mgrwt>
<rscale>  0 0.18029393E+04</rscale>
<asrwt>0</asrwt>
<pdfrwt beam="1">  1        2 0.21783939E+00 0.18029393E+04</pdfrwt>
<pdfrwt beam="2">  1       -2 0.88295606E-01 0.18029393E+04</pdfrwt>
<totfact> 0.14771340E+01</totfact>
</mgrwt>
</event>
<event>
12    1  0.4612066E-007  0.1595935E+04  0.7818608E-02  0.8823049E-01
         -2   -1    0    0    0  501 -0.00000000000E+00  0.00000000000E+00  0.20436260593E+03  0.20436260593E+03  0.00000000000E+00 0.  1.
          2   -1    0    0  501    0  0.00000000000E+00 -0.00000000000E+00 -0.31157972820E+04  0.31157972820E+04  0.00000000000E+00 0. -1.
         23    2    1    2    0    0  0.42970166594E+03 -0.83806507812E+02 -0.16771364541E+04  0.17376639176E+04  0.12256489148E+03 0.  0.
        254    2    1    2    0    0 -0.42970166594E+03  0.83806507812E+02 -0.12342982220E+04  0.15824959703E+04  0.88833233798E+03 0.  0.
        -24    2    4    4    0    0  0.12092814282E+02  0.41448852265E+03 -0.42088654904E+03  0.59633258993E+03  0.80747130512E+02 0.  0.
         24    2    4    4    0    0 -0.44179448023E+03 -0.33068201484E+03 -0.81341167294E+03  0.98616338035E+03  0.79666212247E+02 0.  0.
         11    1    3    3    0    0  0.36156254803E+03 -0.34338505858E+02 -0.12230347924E+04  0.12758215833E+04  0.00000000000E+00 0. -1.
        -11    1    3    3    0    0  0.68139117911E+02 -0.49468001954E+02 -0.45410166169E+03  0.46184233430E+03  0.00000000000E+00 0.  1.
          2    1    6    6  502    0 -0.27731480850E+03 -0.23532047311E+03 -0.58664494038E+03  0.69024018584E+03  0.00000000000E+00 0. -1.
          1    1    5    5  503    0  0.30045946566E+02  0.20575011261E+03 -0.16387362988E+03  0.26474598073E+03  0.00000000000E+00 0. -1.
         -2    1    5    5    0  503 -0.17953132284E+02  0.20873841004E+03 -0.25701291917E+03  0.33158660920E+03  0.00000000000E+00 0.  1.
         -1    1    6    6    0  502 -0.16447967173E+03 -0.95361541723E+02 -0.22676673256E+03  0.29592319451E+03  0.00000000000E+00 0.  1.
<mgrwt>
<rscale>  0 0.15959354E+04</rscale>
<asrwt>0</asrwt>
<pdfrwt beam="1">  1        2 0.47935339E+00 0.15959354E+04</pdfrwt>
<pdfrwt beam="2">  1       -2 0.31440403E-01 0.15959354E+04</pdfrwt>
<totfact> 0.13339658E+01</totfact>
</mgrwt>
</event>
<event>
12    1  0.4612066E-007  0.4251766E+04  0.7818608E-02  0.7955598E-01
         -1   -1    0    0    0  501 -0.00000000000E+00  0.00000000000E+00  0.29567775632E+04  0.29567775632E+04  0.00000000000E+00 0.  1.
          1   -1    0    0  501    0  0.00000000000E+00 -0.00000000000E+00 -0.15284807498E+04  0.15284807498E+04  0.00000000000E+00 0. -1.
         23    2    1    2    0    0  0.31847766287E+03  0.16954132389E+04 -0.44477072457E+03  0.17837792497E+04  0.90517080762E+02 0.  0.
        254    2    1    2    0    0 -0.31847766287E+03 -0.16954132389E+04  0.18730675380E+04  0.27014790633E+04  0.90208262094E+03 0.  0.
        -24    2    4    4    0    0  0.15309578704E+03  0.12802529607E+02  0.17129345395E+03  0.24341812472E+03  0.79427396404E+02 0.  0.
         24    2    4    4    0    0 -0.47157344992E+03 -0.17082157685E+04  0.17017740841E+04  0.24580609386E+04  0.75139297837E+02 0.  0.
         11    1    3    3    0    0  0.30226298492E+03  0.15686495010E+04 -0.43466453135E+03  0.16555837109E+04  0.00000000000E+00 0. -1.
        -11    1    3    3    0    0  0.16214677955E+02  0.12676373792E+03 -0.10106193224E+02  0.12819553882E+03  0.00000000000E+00 0.  1.
          4    1    6    6  502    0 -0.35844178063E+03 -0.11730793048E+04  0.11901714446E+04  0.17091236447E+04  0.00000000000E+00 0. -1.
          1    1    5    5  503    0  0.12925296732E+03  0.17610028375E+02  0.89789228964E+02  0.15836207974E+03  0.00000000000E+00 0. -1.
         -2    1    5    5    0  503  0.23842819722E+02 -0.48074987682E+01  0.81504224991E+02  0.85056044983E+02  0.00000000000E+00 0.  1.
         -3    1    6    6    0  502 -0.11313166928E+03 -0.53513646375E+03  0.51160263943E+03  0.74893729384E+03  0.00000000000E+00 0.  1.
<mgrwt>
<rscale>  0 0.42517656E+04</rscale>
<asrwt>0</asrwt>
<pdfrwt beam="1">  1        1 0.23515089E+00 0.42517656E+04</pdfrwt>
<pdfrwt beam="2">  1       -1 0.45488885E+00 0.42517656E+04</pdfrwt>
<totfact> 0.14359804E-02</totfact>
</mgrwt>
</event>
<event>
12    1  0.4612066E-007  0.1455392E+04  0.7818608E-02  0.8914671E-01
         -2   -1    0    0    0  501 -0.00000000000E+00  0.00000000000E+00  0.31523888053E+03  0.31523888053E+03  0.00000000000E+00 0.  1.
          2   -1    0    0  501    0  0.00000000000E+00 -0.00000000000E+00 -0.16798098872E+04  0.16798098872E+04  0.00000000000E+00 0. -1.
         23    2    1    2    0    0  0.27615207611E+03 -0.34517095882E+03 -0.40156079561E+03  0.60287446963E+03  0.82483899072E+02 0.  0.
        254    2    1    2    0    0 -0.27615207611E+03  0.34517095882E+03 -0.96301021109E+03  0.13921742981E+04  0.90297156642E+03 0.  0.
        -24    2    4    4    0    0  0.12873088463E+03 -0.53917956419E+02 -0.76943087476E+03  0.78636223904E+03  0.82842702011E+02 0.  0.
         24    2    4    4    0    0 -0.40488296074E+03  0.39908891524E+03 -0.19357933632E+03  0.60581205908E+03  0.79580885365E+02 0.  0.
         11    1    3    3    0    0  0.93906423825E+02 -0.17740075301E+03 -0.15759787361E+03  0.25519900739E+03  0.00000000000E+00 0.  1.
        -11    1    3    3    0    0  0.18224565228E+03 -0.16777020581E+03 -0.24396292200E+03  0.34767546224E+03  0.00000000000E+00 0. -1.
          2    1    6    6  502    0 -0.15552325472E+02  0.32855762350E+02  0.25768497102E+01  0.36441955238E+02  0.00000000000E+00 0. -1.
          1    1    5    5  503    0  0.54780351135E+02  0.18480255018E+02 -0.23534089480E+03  0.24233807679E+03  0.00000000000E+00 0. -1.
         -2    1    5    5    0  503  0.73950533495E+02 -0.72398211437E+02 -0.53408997996E+03  0.54402416225E+03  0.00000000000E+00 0.  1.
         -1    1    6    6    0  502 -0.38933063527E+03  0.36623315289E+03 -0.19615618603E+03  0.56937010384E+03  0.00000000000E+00 0.  1.
<mgrwt>
<rscale>  0 0.14553919E+04</rscale>
<asrwt>0</asrwt>
<pdfrwt beam="1">  1        2 0.25843228E+00 0.14553919E+04</pdfrwt>
<pdfrwt beam="2">  1       -2 0.48498291E-01 0.14553919E+04</pdfrwt>
<totfact> 0.39280520E+01</totfact>
</mgrwt>
</event>
<event>
12    1  0.4612066E-007  0.2536322E+04  0.7818608E-02  0.8390159E-01
         -2   -1    0    0    0  501 -0.00000000000E+00  0.00000000000E+00  0.77737073059E+03  0.77737073059E+03  0.00000000000E+00 0.  1.
          2   -1    0    0  501    0  0.00000000000E+00 -0.00000000000E+00 -0.20688095388E+04  0.20688095388E+04  0.00000000000E+00 0. -1.
         23    2    1    2    0    0  0.97834675053E+03  0.48866409502E+03 -0.87211188971E+03  0.14017572035E+04  0.91592288149E+02 0.  0.
        254    2    1    2    0    0 -0.97834675053E+03 -0.48866409502E+03 -0.41932691845E+03  0.14444230659E+04  0.84532122100E+03 0.  0.
        -24    2    4    4    0    0 -0.10672352129E+04 -0.54723530860E+03 -0.48484775402E+03  0.12961228884E+04  0.79998216393E+02 0.  0.
         24    2    4    4    0    0  0.88888462363E+02  0.58571213580E+02  0.65520835575E+02  0.14830017748E+03  0.79801108672E+02 0.  0.
         11    1    3    3    0    0  0.44043203647E+03  0.17532692459E+03 -0.40457395447E+03  0.62321745312E+03  0.00000000000E+00 0. -1.
        -11    1    3    3    0    0  0.53791471406E+03  0.31333717044E+03 -0.46753793524E+03  0.77853975034E+03  0.00000000000E+00 0.  1.
          2    1    6    6  502    0 -0.12935458943E+02  0.29775620068E+01  0.19290633903E+02  0.23416245001E+02  0.00000000000E+00 0. -1.
          1    1    5    5  503    0 -0.76988846827E+02 -0.54628212096E+02 -0.56816757664E+02  0.11018016175E+03  0.00000000000E+00 0. -1.
         -2    1    5    5    0  503 -0.99024636607E+03 -0.49260709651E+03 -0.42803099636E+03  0.11859427266E+04  0.00000000000E+00 0.  1.
         -1    1    6    6    0  502  0.10182392131E+03  0.55593651573E+02  0.46230201672E+02  0.12488393248E+03  0.00000000000E+00 0.  1.
<mgrwt>
<rscale>  0 0.25363217E+04</rscale>
<asrwt>0</asrwt>
<pdfrwt beam="1">  1        2 0.31827839E+00 0.25363217E+04</pdfrwt>
<pdfrwt beam="2">  1       -2 0.11959550E+00 0.25363217E+04</pdfrwt>
<totfact> 0.29123135E+00</totfact>
</mgrwt>
</event>
<event>
12    1  0.4612066E-007  0.1951466E+04  0.7818608E-02  0.8629654E-01
          2   -1    0    0  501    0  0.00000000000E+00  0.00000000000E+00  0.15970457809E+04  0.15970457809E+04  0.00000000000E+00 0. -1.
         -2   -1    0    0    0  501 -0.00000000000E+00 -0.00000000000E+00 -0.59613472707E+03  0.59613472707E+03  0.00000000000E+00 0.  1.
         23    2    1    2    0    0  0.59901760017E+03  0.47117808525E+03  0.34456530592E+03  0.84134994986E+03  0.91179025907E+02 0.  0.
        254    2    1    2    0    0 -0.59901760017E+03 -0.47117808525E+03  0.65634574788E+03  0.13518305581E+04  0.90323044880E+03 0.  0.
        -24    2    4    4    0    0  0.69634928460E+02 -0.46966963691E+03  0.41703400319E+03  0.63712781112E+03  0.81091903327E+02 0.  0.
         24    2    4    4    0    0 -0.66865252863E+03 -0.15084483376E+01  0.23931174469E+03  0.71470274695E+03  0.80196171309E+02 0.  0.
         13    1    3    3    0    0  0.18120562217E+03  0.16178221234E+03  0.15404552936E+03  0.28764385419E+03  0.00000000000E+00 0. -1.
        -13    1    3    3    0    0  0.41781197799E+03  0.30939587291E+03  0.19051977656E+03  0.55370609568E+03  0.00000000000E+00 0.  1.
          2    1    6    6  502    0 -0.31048565982E+03  0.34351531567E+02  0.90772055299E+02  0.32530130449E+03  0.00000000000E+00 0. -1.
          1    1    5    5  503    0  0.87001545276E+02 -0.39869475718E+03  0.36414751380E+03  0.54692795695E+03  0.00000000000E+00 0. -1.
         -2    1    5    5    0  503 -0.17366616816E+02 -0.70974879733E+02  0.52886489394E+02  0.90199854175E+02  0.00000000000E+00 0.  1.
         -1    1    6    6    0  502 -0.35816686880E+03 -0.35859979904E+02  0.14853968939E+03  0.38940144246E+03  0.00000000000E+00 0.  1.
<mgrwt>
<rscale>  0 0.19514656E+04</rscale>
<asrwt>0</asrwt>
<pdfrwt beam="1">  1        2 0.24569935E+00 0.19514656E+04</pdfrwt>
<pdfrwt beam="2">  1       -2 0.91713036E-01 0.19514656E+04</pdfrwt>
<totfact> 0.10563418E+01</totfact>
</mgrwt>
</event>
<event>
12    1  0.4612066E-007  0.1702060E+04  0.7818608E-02  0.8760190E-01
          2   -1    0    0  501    0  0.00000000000E+00  0.00000000000E+00  0.29420875027E+04  0.29420875027E+04  0.00000000000E+00 0. -1.
         -2   -1    0    0    0  501 -0.00000000000E+00 -0.00000000000E+00 -0.24616957344E+03  0.24616957344E+03  0.00000000000E+00 0.  1.
         23    2    1    2    0    0  0.72332166337E+02 -0.57061293931E+03  0.13561589249E+04  0.14753117399E+04  0.80911256643E+02 0.  0.
        254    2    1    2    0    0 -0.72332166337E+02  0.57061293931E+03  0.13397590044E+04  0.17129453363E+04  0.89910870669E+03 0.  0.
        -24    2    4    4    0    0  0.32127625774E+03  0.20544095763E+03  0.99884675953E+03  0.10720502768E+04  0.78565426012E+02 0.  0.
         24    2    4    4    0    0 -0.39360842408E+03  0.36517198168E+03  0.34091224485E+03  0.64089505944E+03  0.79038919689E+02 0.  0.
         13    1    3    3    0    0  0.47530396722E+02 -0.11662968764E+03  0.27704321789E+03  0.30432641559E+03  0.00000000000E+00 0.  1.
        -13    1    3    3    0    0  0.24801769615E+02 -0.45398325167E+03  0.10791157070E+04  0.11709853243E+04  0.00000000000E+00 0. -1.
          4    1    6    6  502    0 -0.26514324565E+03  0.23701535813E+03  0.18108662606E+03  0.39908593916E+03  0.00000000000E+00 0. -1.
          3    1    5    5  503    0  0.10563659413E+03  0.10536494057E+03  0.32842400001E+03  0.36072591327E+03  0.00000000000E+00 0. -1.
         -4    1    5    5    0  503  0.21563966361E+03  0.10007601707E+03  0.67042275952E+03  0.71132436357E+03  0.00000000000E+00 0.  1.
         -3    1    6    6    0  502 -0.12846517843E+03  0.12815662355E+03  0.15982561880E+03  0.24180912028E+03  0.00000000000E+00 0.  1.
<mgrwt>
<rscale>  0 0.17020604E+04</rscale>
<asrwt>0</asrwt>
<pdfrwt beam="1">  1        2 0.45262882E+00 0.17020604E+04</pdfrwt>
<pdfrwt beam="2">  1       -2 0.37872244E-01 0.17020604E+04</pdfrwt>
<totfact> 0.11897173E+01</totfact>
</mgrwt>
</event>
<event>
12    1  0.4612066E-007  0.1497229E+04  0.7818608E-02  0.8886298E-01
         -1   -1    0    0    0  501 -0.00000000000E+00  0.00000000000E+00  0.17311737394E+03  0.17311737394E+03  0.00000000000E+00 0.  1.
          1   -1    0    0  501    0  0.00000000000E+00 -0.00000000000E+00 -0.32372458619E+04  0.32372458619E+04  0.00000000000E+00 0. -1.
         23    2    1    2    0    0  0.47003487801E+03  0.47463976870E+01 -0.97852095730E+03  0.10896658660E+04  0.94409326264E+02 0.  0.
        254    2    1    2    0    0 -0.47003487801E+03 -0.47463976870E+01 -0.20856075306E+04  0.23206973698E+04  0.90273041128E+03 0.  0.
        -24    2    4    4    0    0 -0.72448755942E+03 -0.50780023543E+02 -0.16925550882E+04  0.18435237400E+04  0.79851227512E+02 0.  0.
         24    2    4    4    0    0  0.25445268141E+03  0.46033625856E+02 -0.39305244241E+03  0.47717362984E+03  0.79619022457E+02 0.  0.
         11    1    3    3    0    0  0.12626822592E+03  0.42932680672E+02 -0.25847085536E+03  0.29085058538E+03  0.00000000000E+00 0.  1.
        -11    1    3    3    0    0  0.34376665209E+03 -0.38186282985E+02 -0.72005010194E+03  0.79881528065E+03  0.00000000000E+00 0. -1.
          2    1    6    6  502    0  0.20163539607E+03  0.57252429783E+02 -0.26265709057E+03  0.33604080242E+03  0.00000000000E+00 0. -1.
          1    1    5    5  503    0 -0.52641851395E+03 -0.18591528786E+02 -0.11448512423E+04  0.12602168320E+04  0.00000000000E+00 0. -1.
         -2    1    5    5    0  503 -0.19806904548E+03 -0.32188494758E+02 -0.54770384596E+03  0.58330690794E+03  0.00000000000E+00 0.  1.
         -1    1    6    6    0  502  0.52817285345E+02 -0.11218803926E+02 -0.13039535184E+03  0.14113282742E+03  0.00000000000E+00 0.  1.
<mgrwt>
<rscale>  0 0.14972288E+04</rscale>
<asrwt>0</asrwt>
<pdfrwt beam="1">  1        1 0.49803781E+00 0.14972288E+04</pdfrwt>
<pdfrwt beam="2">  1       -1 0.26633443E-01 0.14972288E+04</pdfrwt>
<totfact> 0.48843961E+00</totfact>
</mgrwt>
</event>
<event>
12    1  0.4612066E-007  0.1404378E+04  0.7818608E-02  0.8950656E-01
          1   -1    0    0  501    0  0.00000000000E+00  0.00000000000E+00  0.18707449013E+04  0.18707449013E+04  0.00000000000E+00 0. -1.
         -1   -1    0    0    0  501 -0.00000000000E+00 -0.00000000000E+00 -0.26356831292E+03  0.26356831292E+03  0.00000000000E+00 0.  1.
         23    2    1    2    0    0  0.18166083522E+03 -0.22086452499E+03  0.92047209868E+03  0.96840808088E+03  0.93613723486E+02 0.  0.
        254    2    1    2    0    0 -0.18166083522E+03  0.22086452499E+03  0.68670448974E+03  0.11659051334E+04  0.89776941713E+03 0.  0.
        -24    2    4    4    0    0  0.31431681691E+03  0.22938523958E+03  0.13184756255E+03  0.41764852735E+03  0.75059064182E+02 0.  0.
         24    2    4    4    0    0 -0.49597765213E+03 -0.85207145980E+01  0.55485692720E+03  0.74825660602E+03  0.77170621397E+02 0.  0.
         13    1    3    3    0    0  0.24289206828E+02 -0.36460231306E+02  0.59073188633E+02  0.73545602523E+02  0.00000000000E+00 0.  1.
        -13    1    3    3    0    0  0.15737162840E+03 -0.18440429368E+03  0.86139891004E+03  0.89486247836E+03  0.00000000000E+00 0. -1.
          2    1    6    6  502    0 -0.14844378523E+02 -0.10085623607E+02  0.73753079957E+01  0.19402848896E+02  0.00000000000E+00 0. -1.
          3    1    5    5  503    0  0.90271825223E+02  0.42012849823E+02  0.62163135831E+02  0.11738116304E+03  0.00000000000E+00 0. -1.
         -4    1    5    5    0  503  0.22404499169E+03  0.18737238976E+03  0.69684426716E+02  0.30026736431E+03  0.00000000000E+00 0.  1.
         -1    1    6    6    0  502 -0.48113327361E+03  0.15649090089E+01  0.54748161920E+03  0.72885375713E+03  0.00000000000E+00 0.  1.
<mgrwt>
<rscale>  0 0.14043776E+04</rscale>
<asrwt>0</asrwt>
<pdfrwt beam="1">  1        1 0.28780690E+00 0.14043776E+04</pdfrwt>
<pdfrwt beam="2">  1       -1 0.40548972E-01 0.14043776E+04</pdfrwt>
<totfact> 0.21128665E+01</totfact>
</mgrwt>
</event>
<event>
12    1  0.4612066E-007  0.1580121E+04  0.7818608E-02  0.8832854E-01
          1   -1    0    0  501    0  0.00000000000E+00  0.00000000000E+00  0.99889280176E+03  0.99889280176E+03  0.00000000000E+00 0. -1.
         -1   -1    0    0    0  501 -0.00000000000E+00 -0.00000000000E+00 -0.62488740842E+03  0.62488740842E+03  0.00000000000E+00 0.  1.
         23    2    1    2    0    0  0.66023829800E+02 -0.48356856270E+03 -0.72388485232E+02  0.50158147739E+03  0.90256217160E+02 0.  0.
        254    2    1    2    0    0 -0.66023829800E+02  0.48356856270E+03  0.44639387857E+03  0.11221987328E+04  0.90656759268E+03 0.  0.
        -24    2    4    4    0    0  0.13863729790E+03  0.56405487325E+03 -0.34576868572E+02  0.58730600812E+03  0.79715663009E+02 0.  0.
         24    2    4    4    0    0 -0.20466112770E+03 -0.80486310553E+02  0.48097074715E+03  0.53489272466E+03  0.80082107265E+02 0.  0.
         11    1    3    3    0    0  0.74241262084E+02 -0.43315155891E+03 -0.40425225463E+02  0.44132327928E+03  0.00000000000E+00 0. -1.
        -11    1    3    3    0    0 -0.82174322840E+01 -0.50417003785E+02 -0.31963259768E+02  0.60258198106E+02  0.00000000000E+00 0.  1.
          4    1    6    6  502    0 -0.94295727869E+02 -0.77541151094E+02  0.22163852491E+03  0.25303744808E+03  0.00000000000E+00 0. -1.
          3    1    5    5  503    0  0.11233226809E+03  0.51221407814E+03 -0.10798904759E+02  0.52449825228E+03  0.00000000000E+00 0. -1.
         -4    1    5    5    0  503  0.26305029812E+02  0.51840795112E+02 -0.23777963813E+02  0.62807755846E+02  0.00000000000E+00 0.  1.
         -3    1    6    6    0  502 -0.11036539984E+03 -0.29451594591E+01  0.25933222224E+03  0.28185527658E+03  0.00000000000E+00 0.  1.
<mgrwt>
<rscale>  0 0.15801209E+04</rscale>
<asrwt>0</asrwt>
<pdfrwt beam="1">  1        1 0.15367582E+00 0.15801209E+04</pdfrwt>
<pdfrwt beam="2">  1       -1 0.96136524E-01 0.15801209E+04</pdfrwt>
<totfact> 0.15193435E+01</totfact>
</mgrwt>
</event>
<event>
12    1  0.4612066E-007  0.2898334E+04  0.7818608E-02  0.8273373E-01
          2   -1    0    0  501    0  0.00000000000E+00  0.00000000000E+00  0.23501287979E+04  0.23501287979E+04  0.00000000000E+00 0. -1.
         -2   -1    0    0    0  501 -0.00000000000E+00 -0.00000000000E+00 -0.89360419989E+03  0.89360419989E+03  0.00000000000E+00 0.  1.
         23    2    1    2    0    0 -0.10532148156E+04 -0.75135830493E+03  0.50344949790E+03  0.13911699635E+04  0.89953989758E+02 0.  0.
        254    2    1    2    0    0  0.10532148156E+04  0.75135830493E+03  0.95307510007E+03  0.18525630342E+04  0.92186598759E+03 0.  0.
        -24    2    4    4    0    0  0.12448365235E+03  0.56377161360E+03  0.13516407744E+03  0.59834494322E+03  0.80079530725E+02 0.  0.
         24    2    4    4    0    0  0.92873116329E+03  0.18758669133E+03  0.81791102263E+03  0.12542180910E+04  0.79713476858E+02 0.  0.
         13    1    3    3    0    0 -0.37659336802E+03 -0.31177496648E+03  0.16231249135E+03  0.51514225163E+03  0.00000000000E+00 0.  1.
        -13    1    3    3    0    0 -0.67662144762E+03 -0.43958333845E+03  0.34113700655E+03  0.87602771192E+03  0.00000000000E+00 0. -1.
          2    1    6    6  502    0  0.69882358271E+02  0.11186073761E+02  0.91115959237E+02  0.11537239822E+03  0.00000000000E+00 0. -1.
          1    1    5    5  503    0  0.71249853026E+02  0.23871719919E+03  0.94565492258E+02  0.26646777492E+03  0.00000000000E+00 0. -1.
         -2    1    5    5    0  503  0.53233799326E+02  0.32505441442E+03  0.40598585181E+02  0.33187716830E+03  0.00000000000E+00 0.  1.
         -1    1    6    6    0  502  0.85884880501E+03  0.17640061757E+03  0.72679506339E+03  0.11388456928E+04  0.00000000000E+00 0.  1.
<mgrwt>
<rscale>  0 0.28983340E+04</rscale>
<asrwt>0</asrwt>
<pdfrwt beam="1">  1        2 0.36155827E+00 0.28983340E+04</pdfrwt>
<pdfrwt beam="2">  1       -2 0.13747757E+00 0.28983340E+04</pdfrwt>
<totfact> 0.13795497E+00</totfact>
</mgrwt>
</event>
<event>
12    1  0.4978481E-007  0.3156451E+04  0.7818608E-02  0.8200414E-01
          2   -1    0    0  501    0  0.00000000000E+00  0.00000000000E+00  0.16669485489E+04  0.16669485489E+04  0.00000000000E+00 0. -1.
         -2   -1    0    0    0  501 -0.00000000000E+00 -0.00000000000E+00 -0.14942251728E+04  0.14942251728E+04  0.00000000000E+00 0.  1.
         23    2    1    2    0    0  0.11422750521E+04 -0.89074758584E+03  0.21016465388E+02  0.14514545046E+04  0.89749265744E+02 0.  0.
        254    2    1    2    0    0 -0.11422750521E+04  0.89074758584E+03  0.15170691073E+03  0.17097192170E+04  0.89548939577E+03 0.  0.
        -24    2    4    4    0    0 -0.11852447162E+04  0.54111583759E+03 -0.30036999206E+02  0.13057053063E+04  0.79704069137E+02 0.  0.
         24    2    4    4    0    0  0.42969664050E+02  0.34963174825E+03  0.18174390993E+03  0.40401391074E+03  0.78151390681E+02 0.  0.
         13    1    3    3    0    0  0.67781129967E+03 -0.58328283528E+03  0.64471082301E+01  0.89425309007E+03  0.00000000000E+00 0. -1.
        -13    1    3    3    0    0  0.46446375245E+03 -0.30746475056E+03  0.14569357158E+02  0.55720141452E+03  0.00000000000E+00 0.  1.
          2    1    6    6  502    0  0.47763568854E+01  0.28983133998E+03  0.14582336581E+03  0.32448339439E+03  0.00000000000E+00 0. -1.
          1    1    5    5  503    0 -0.11447820469E+04  0.50987939689E+03 -0.18652205900E+02  0.12533358844E+04  0.00000000000E+00 0. -1.
         -2    1    5    5    0  503 -0.40462669242E+02  0.31236440698E+02 -0.11384793306E+02  0.52369421883E+02  0.00000000000E+00 0.  1.
         -1    1    6    6    0  502  0.38193307164E+02  0.59800408267E+02  0.35920544122E+02  0.79530516352E+02  0.00000000000E+00 0.  1.
<mgrwt>
<rscale>  0 0.31564515E+04</rscale>
<asrwt>0</asrwt>
<pdfrwt beam="1">  1        2 0.25645362E+00 0.31564515E+04</pdfrwt>
<pdfrwt beam="2">  1       -2 0.22988080E+00 0.31564515E+04</pdfrwt>
<totfact> 0.74060034E-01</totfact>
</mgrwt>
</event>
<event>
12    1  0.4612066E-007  0.1405448E+04  0.7818608E-02  0.8949884E-01
          2   -1    0    0  501    0  0.00000000000E+00  0.00000000000E+00  0.10332830456E+04  0.10332830456E+04  0.00000000000E+00 0. -1.
         -2   -1    0    0    0  501 -0.00000000000E+00 -0.00000000000E+00 -0.47791490248E+03  0.47791490248E+03  0.00000000000E+00 0.  1.
         23    2    1    2    0    0  0.34754800303E+03  0.11535927682E+03 -0.33264905174E+02  0.37909870090E+03  0.92259926020E+02 0.  0.
        254    2    1    2    0    0 -0.34754800303E+03 -0.11535927682E+03  0.58863304832E+03  0.11320992472E+04  0.89502092870E+03 0.  0.
        -24    2    4    4    0    0  0.16055907805E+03 -0.17073125477E+03  0.56189909539E+03  0.61401091832E+03  0.79689619928E+02 0.  0.
         24    2    4    4    0    0 -0.50810708107E+03  0.55371977946E+02  0.26733952927E+02  0.51808832889E+03  0.80386258255E+02 0.  0.
         11    1    3    3    0    0  0.31406936138E+03  0.92100697731E+02 -0.13030490540E+01  0.32729772413E+03  0.00000000000E+00 0. -1.
        -11    1    3    3    0    0  0.33478641642E+02  0.23258579093E+02 -0.31961856120E+02  0.51800976770E+02  0.00000000000E+00 0.  1.
          4    1    6    6  502    0 -0.44405811233E+03  0.38806239426E+02  0.48646587872E+02  0.44839716976E+03  0.00000000000E+00 0. -1.
          1    1    5    5  503    0  0.35876732663E+02 -0.58702273249E+01  0.48882242923E+02  0.60918578353E+02  0.00000000000E+00 0. -1.
         -2    1    5    5    0  503  0.12468234538E+03 -0.16486102745E+03  0.51301685247E+03  0.55309233997E+03  0.00000000000E+00 0.  1.
         -3    1    6    6    0  502 -0.64048968745E+02  0.16565738520E+02 -0.21912634945E+02  0.69691159125E+02  0.00000000000E+00 0.  1.
<mgrwt>
<rscale>  0 0.14054485E+04</rscale>
<asrwt>0</asrwt>
<pdfrwt beam="1">  1        2 0.15896662E+00 0.14054485E+04</pdfrwt>
<pdfrwt beam="2">  1       -2 0.73525370E-01 0.14054485E+04</pdfrwt>
<totfact> 0.38946390E+01</totfact>
</mgrwt>
</event>
<event>
12    1  0.4612066E-007  0.1535490E+04  0.7818608E-02  0.8861190E-01
         -2   -1    0    0    0  501 -0.00000000000E+00  0.00000000000E+00  0.38184059950E+03  0.38184059950E+03  0.00000000000E+00 0.  1.
          2   -1    0    0  501    0  0.00000000000E+00 -0.00000000000E+00 -0.15436607608E+04  0.15436607608E+04  0.00000000000E+00 0. -1.
         23    2    1    2    0    0  0.42479238296E+03 -0.21162292490E+03 -0.19460617693E+03  0.52092491479E+03  0.90875584110E+02 0.  0.
        254    2    1    2    0    0 -0.42479238296E+03  0.21162292490E+03 -0.96721398437E+03  0.14045764455E+04  0.90116550575E+03 0.  0.
        -24    2    4    4    0    0  0.25842823857E+02  0.36694499102E+02 -0.90605892891E+03  0.91085717380E+03  0.81875946346E+02 0.  0.
         24    2    4    4    0    0 -0.45063520682E+03  0.17492842580E+03 -0.61155055454E+02  0.49371927171E+03  0.79666396133E+02 0.  0.
         11    1    3    3    0    0  0.34976089043E+01 -0.18781993420E+02 -0.13783738653E+02  0.23558183209E+02  0.00000000000E+00 0. -1.
        -11    1    3    3    0    0  0.42129477405E+03 -0.19284093148E+03 -0.18082243828E+03  0.49736673158E+03  0.00000000000E+00 0.  1.
          2    1    6    6  502    0 -0.31615197346E+03  0.14444860074E+03 -0.73498724920E+02  0.35527388187E+03  0.00000000000E+00 0. -1.
          3    1    5    5  503    0  0.21665948345E+02 -0.11043159503E+02 -0.64361319258E+03  0.64407243875E+03  0.00000000000E+00 0. -1.
         -4    1    5    5    0  503  0.41768755123E+01  0.47737658605E+02 -0.26244573633E+03  0.26678473505E+03  0.00000000000E+00 0.  1.
         -1    1    6    6    0  502 -0.13448323336E+03  0.30479825059E+02  0.12343669465E+02  0.13844538983E+03  0.00000000000E+00 0.  1.
<mgrwt>
<rscale>  0 0.15354900E+04</rscale>
<asrwt>0</asrwt>
<pdfrwt beam="1">  1        2 0.23748627E+00 0.15354900E+04</pdfrwt>
<pdfrwt beam="2">  1       -2 0.58744708E-01 0.15354900E+04</pdfrwt>
<totfact> 0.31297157E+01</totfact>
</mgrwt>
</event>
<event>
12    1  0.4612066E-007  0.3109627E+04  0.7818608E-02  0.8213101E-01
          1   -1    0    0  501    0  0.00000000000E+00  0.00000000000E+00  0.67807628282E+03  0.67807628282E+03  0.00000000000E+00 0. -1.
         -1   -1    0    0    0  501 -0.00000000000E+00 -0.00000000000E+00 -0.35651511398E+04  0.35651511398E+04  0.00000000000E+00 0.  1.
         23    2    1    2    0    0 -0.11844259307E+04 -0.78138950417E+03 -0.11957837786E+04  0.18579555138E+04  0.93088686747E+02 0.  0.
        254    2    1    2    0    0  0.11844259307E+04  0.78138950417E+03 -0.16912910784E+04  0.23852719088E+04  0.90311805685E+03 0.  0.
        -24    2    4    4    0    0  0.79407951989E+03  0.70802749250E+03 -0.16675212962E+04  0.19796154518E+04  0.79905254805E+02 0.  0.
         24    2    4    4    0    0  0.39034641081E+03  0.73362011674E+02 -0.23769782169E+02  0.40565645698E+03  0.78992742418E+02 0.  0.
         13    1    3    3    0    0 -0.10797379257E+04 -0.72508278857E+03 -0.10630769627E+04  0.16797951265E+04  0.00000000000E+00 0. -1.
        -13    1    3    3    0    0 -0.10468800500E+03 -0.56306715603E+02 -0.13270681588E+03  0.17816038728E+03  0.00000000000E+00 0.  1.
          2    1    6    6  502    0  0.19306189873E+03  0.34048122507E+02  0.27762450055E+02  0.19799728538E+03  0.00000000000E+00 0. -1.
          1    1    5    5  503    0  0.76801777401E+03  0.67340957159E+03 -0.16215302737E+04  0.19164269308E+04  0.00000000000E+00 0. -1.
         -2    1    5    5    0  503  0.26061745884E+02  0.34617920910E+02 -0.45991022503E+02  0.63188521090E+02  0.00000000000E+00 0.  1.
         -1    1    6    6    0  502  0.19728451209E+03  0.39313889167E+02 -0.51532232224E+02  0.20765917160E+03  0.00000000000E+00 0.  1.
<mgrwt>
<rscale>  0 0.31096266E+04</rscale>
<asrwt>0</asrwt>
<pdfrwt beam="1">  1        1 0.10431943E+00 0.31096266E+04</pdfrwt>
<pdfrwt beam="2">  1       -1 0.54848479E+00 0.31096266E+04</pdfrwt>
<totfact> 0.18335779E-02</totfact>
</mgrwt>
</event>
<event>
12    1  0.4612066E-007  0.2359632E+04  0.7818608E-02  0.8454773E-01
         -2   -1    0    0    0  501 -0.00000000000E+00  0.00000000000E+00  0.45805763339E+03  0.45805763339E+03  0.00000000000E+00 0.  1.
          2   -1    0    0  501    0  0.00000000000E+00 -0.00000000000E+00 -0.30388436600E+04  0.30388436600E+04  0.00000000000E+00 0. -1.
         23    2    1    2    0    0 -0.79284489303E+03 -0.46203796096E+03 -0.49678149481E+03  0.10473738780E+04  0.90100416179E+02 0.  0.
        254    2    1    2    0    0  0.79284489303E+03  0.46203796096E+03 -0.20840045318E+04  0.24495274153E+04  0.90278877282E+03 0.  0.
        -24    2    4    4    0    0  0.19361732106E+03  0.14905440246E+03 -0.15844740100E+04  0.16052170012E+04  0.80366974119E+02 0.  0.
         24    2    4    4    0    0  0.59922757197E+03  0.31298355850E+03 -0.49953052175E+03  0.84431041418E+03  0.79353276098E+02 0.  0.
         11    1    3    3    0    0 -0.30490223691E+03 -0.14472706827E+03 -0.21994486602E+03  0.40284865949E+03  0.00000000000E+00 0. -1.
        -11    1    3    3    0    0 -0.48794265612E+03 -0.31731089269E+03 -0.27683662879E+03  0.64452521853E+03  0.00000000000E+00 0.  1.
          2    1    6    6  502    0  0.17663911628E+03  0.64244315920E+02 -0.17068608509E+03  0.25389456310E+03  0.00000000000E+00 0. -1.
          3    1    5    5  503    0  0.13662573871E+03  0.12196764278E+03 -0.94105702885E+03  0.95871321568E+03  0.00000000000E+00 0. -1.
         -4    1    5    5    0  503  0.56991582354E+02  0.27086759679E+02 -0.64341698115E+03  0.64650378548E+03  0.00000000000E+00 0.  1.
         -1    1    6    6    0  502  0.42258845569E+03  0.24873924258E+03 -0.32884443667E+03  0.59041585108E+03  0.00000000000E+00 0.  1.
<mgrwt>
<rscale>  0 0.23596318E+04</rscale>
<asrwt>0</asrwt>
<pdfrwt beam="1">  1        2 0.46751440E+00 0.23596318E+04</pdfrwt>
<pdfrwt beam="2">  1       -2 0.70470407E-01 0.23596318E+04</pdfrwt>
<totfact> 0.27219439E+00</totfact>
</mgrwt>
</event>
<event>
12    1  0.4612066E-007  0.2427966E+04  0.7818608E-02  0.8429107E-01
          2   -1    0    0  501    0  0.00000000000E+00  0.00000000000E+00  0.21518734198E+04  0.21518734198E+04  0.00000000000E+00 0. -1.
         -2   -1    0    0    0  501 -0.00000000000E+00 -0.00000000000E+00 -0.68487072422E+03  0.68487072422E+03  0.00000000000E+00 0.  1.
         23    2    1    2    0    0  0.54811353837E+03  0.88054021495E+03  0.74600958882E+03  0.12808299130E+04  0.90639055168E+02 0.  0.
        254    2    1    2    0    0 -0.54811353837E+03 -0.88054021495E+03  0.72099310674E+03  0.15559142310E+04  0.90843740190E+03 0.  0.
        -24    2    4    4    0    0  0.73337060241E+02  0.14191428005E+03  0.81650801057E+02  0.19689592180E+03  0.81136695907E+02 0.  0.
         24    2    4    4    0    0 -0.62145059861E+03 -0.10224544950E+04  0.63934230569E+03  0.13590183092E+04  0.80982344053E+02 0.  0.
         13    1    3    3    0    0  0.45098722053E+03  0.77728201132E+03  0.66065552805E+03  0.11153575772E+04  0.00000000000E+00 0. -1.
        -13    1    3    3    0    0  0.97126317839E+02  0.10325820363E+03  0.85354060769E+02  0.16547233583E+03  0.00000000000E+00 0.  1.
          4    1    6    6  502    0 -0.29267815947E+03 -0.46294881287E+03  0.24834697653E+03  0.60138035312E+03  0.00000000000E+00 0. -1.
          1    1    5    5  503    0  0.87263320130E+02  0.11202193299E+03  0.81885805980E+02  0.16391792376E+03  0.00000000000E+00 0. -1.
         -2    1    5    5    0  503 -0.13926259888E+02  0.29892347060E+02 -0.23500492365E+00  0.32977998037E+02  0.00000000000E+00 0.  1.
         -3    1    6    6    0  502 -0.32877243914E+03 -0.55950568213E+03  0.39099532915E+03  0.75763795608E+03  0.00000000000E+00 0.  1.
<mgrwt>
<rscale>  0 0.24279663E+04</rscale>
<asrwt>0</asrwt>
<pdfrwt beam="1">  1        2 0.33105745E+00 0.24279663E+04</pdfrwt>
<pdfrwt beam="2">  1       -2 0.10536473E+00 0.24279663E+04</pdfrwt>
<totfact> 0.35938794E+00</totfact>
</mgrwt>
</event>
<event>
12    1  0.4612066E-007  0.1598450E+04  0.7818608E-02  0.8821501E-01
         -1   -1    0    0    0  501 -0.00000000000E+00  0.00000000000E+00  0.46976816014E+03  0.46976816014E+03  0.00000000000E+00 0.  1.
          1   -1    0    0  501    0  0.00000000000E+00 -0.00000000000E+00 -0.13597355697E+04  0.13597355697E+04  0.00000000000E+00 0. -1.
         23    2    1    2    0    0  0.45922901587E+03 -0.12522712747E+03 -0.58381581785E+03  0.75864113998E+03  0.90124068019E+02 0.  0.
        254    2    1    2    0    0 -0.45922901587E+03  0.12522712747E+03 -0.30615159173E+03  0.10708625899E+04  0.90909007628E+03 0.  0.
        -24    2    4    4    0    0 -0.16606280831E+03  0.48728918747E+03 -0.29313593232E+03  0.59780442678E+03  0.80086511566E+02 0.  0.
         24    2    4    4    0    0 -0.29316620756E+03 -0.36206205999E+03 -0.13015659413E+02  0.47305816309E+03  0.81112623770E+02 0.  0.
         13    1    3    3    0    0  0.13950933133E+03 -0.45174961268E+02 -0.11910296676E+03  0.18891571492E+03  0.00000000000E+00 0.  1.
        -13    1    3    3    0    0  0.31971968454E+03 -0.80052166206E+02 -0.46471285109E+03  0.56972542507E+03  0.00000000000E+00 0. -1.
          2    1    6    6  502    0 -0.54958633861E+02 -0.89840976373E+02 -0.34142014639E+02  0.11071372830E+03  0.00000000000E+00 0. -1.
          3    1    5    5  503    0 -0.90114487810E+01  0.19604095921E+02  0.39143575643E+01  0.21928268996E+02  0.00000000000E+00 0. -1.
         -4    1    5    5    0  503 -0.15705135953E+03  0.46768509155E+03 -0.29705028988E+03  0.57587615778E+03  0.00000000000E+00 0.  1.
         -1    1    6    6    0  502 -0.23820757370E+03 -0.27222108362E+03  0.21126355226E+02  0.36234443479E+03  0.00000000000E+00 0.  1.
<mgrwt>
<rscale>  0 0.15984498E+04</rscale>
<asrwt>0</asrwt>
<pdfrwt beam="1">  1        1 0.20919009E+00 0.15984498E+04</pdfrwt>
<pdfrwt beam="2">  1       -1 0.72272024E-01 0.15984498E+04</pdfrwt>
<totfact> 0.15202975E+01</totfact>
</mgrwt>
</event>
<event>
12    1  0.4612066E-007  0.1649118E+04  0.7818608E-02  0.8790928E-01
         -2   -1    0    0    0  501 -0.00000000000E+00  0.00000000000E+00  0.10357422401E+04  0.10357422401E+04  0.00000000000E+00 0.  1.
          2   -1    0    0  501    0  0.00000000000E+00 -0.00000000000E+00 -0.65643509150E+03  0.65643509150E+03  0.00000000000E+00 0. -1.
         23    2    1    2    0    0 -0.55453509438E+03 -0.59973790491E+02 -0.62734725418E+01  0.56515859337E+03  0.90878230359E+02 0.  0.
        254    2    1    2    0    0  0.55453509438E+03  0.59973790491E+02  0.38558062111E+03  0.11270187382E+04  0.90021819267E+03 0.  0.
        -24    2    4    4    0    0  0.55217386138E+03 -0.96155927358E+02 -0.13097006521E+03  0.58141878744E+03  0.82174891833E+02 0.  0.
         24    2    4    4    0    0  0.23612329965E+01  0.15612971785E+03  0.51655068632E+03  0.54559995075E+03  0.80452660005E+02 0.  0.
         13    1    3    3    0    0 -0.43690853960E+03 -0.12287758930E+02 -0.19702376018E+02  0.43752513598E+03  0.00000000000E+00 0. -1.
        -13    1    3    3    0    0 -0.11762655478E+03 -0.47686031561E+02  0.13428903476E+02  0.12763345738E+03  0.00000000000E+00 0.  1.
          2    1    6    6  502    0 -0.74374624522E+01  0.44997268133E+02  0.28439956621E+03  0.28803330232E+03  0.00000000000E+00 0. -1.
          3    1    5    5  503    0  0.51150472960E+03 -0.10881077672E+03 -0.11208360745E+03  0.53482670894E+03  0.00000000000E+00 0. -1.
         -4    1    5    5    0  503  0.40669131782E+02  0.12654849364E+02 -0.18886457768E+02  0.46592078504E+02  0.00000000000E+00 0.  1.
         -1    1    6    6    0  502  0.97986954487E+01  0.11113244972E+03  0.23215112011E+03  0.25756664843E+03  0.00000000000E+00 0.  1.
<mgrwt>
<rscale>  0 0.16491180E+04</rscale>
<asrwt>0</asrwt>
<pdfrwt beam="1">  1        2 0.10099001E+00 0.16491180E+04</pdfrwt>
<pdfrwt beam="2">  1       -2 0.15934496E+00 0.16491180E+04</pdfrwt>
<totfact> 0.10800448E+01</totfact>
</mgrwt>
</event>
<event>
12    1  0.4612066E-007  0.1202637E+04  0.7818608E-02  0.9110551E-01
          1   -1    0    0  501    0  0.00000000000E+00  0.00000000000E+00  0.43171430782E+03  0.43171430782E+03  0.00000000000E+00 0. -1.
         -1   -1    0    0    0  501 -0.00000000000E+00 -0.00000000000E+00 -0.83755383470E+03  0.83755383470E+03  0.00000000000E+00 0.  1.
         23    2    1    2    0    0 -0.49869137802E+02  0.20559577494E+03 -0.22978851853E+03  0.32619934076E+03  0.94056860915E+02 0.  0.
        254    2    1    2    0    0  0.49869137802E+02 -0.20559577494E+03 -0.17605100835E+03  0.94306880175E+03  0.90201344431E+03 0.  0.
        -24    2    4    4    0    0 -0.15378094190E+03  0.17022722168E+03  0.23955410321E+03  0.34112275053E+03  0.79703685419E+02 0.  0.
         24    2    4    4    0    0  0.20365007971E+03 -0.37582299662E+03 -0.41560511156E+03  0.60194605122E+03  0.83037100549E+02 0.  0.
         11    1    3    3    0    0 -0.19957743303E+02  0.15321092030E+03 -0.21381585602E+03  0.26379749412E+03  0.00000000000E+00 0.  1.
        -11    1    3    3    0    0 -0.29911394499E+02  0.52384854641E+02 -0.15972662508E+02  0.62401846641E+02  0.00000000000E+00 0. -1.
          4    1    6    6  502    0  0.14495447497E+02 -0.42060557681E+02 -0.83140537254E+02  0.94295055255E+02  0.00000000000E+00 0. -1.
          1    1    5    5  503    0 -0.65122899900E+02  0.42838237502E+02  0.37948757064E+02  0.86696106293E+02  0.00000000000E+00 0. -1.
         -2    1    5    5    0  503 -0.88658042004E+02  0.12738898418E+03  0.20160534615E+03  0.25442664424E+03  0.00000000000E+00 0.  1.
         -3    1    6    6    0  502  0.18915463221E+03 -0.33376243894E+03 -0.33246457431E+03  0.50765099597E+03  0.00000000000E+00 0.  1.
<mgrwt>
<rscale>  0 0.12026371E+04</rscale>
<asrwt>0</asrwt>
<pdfrwt beam="1">  1        1 0.66417586E-01 0.12026371E+04</pdfrwt>
<pdfrwt beam="2">  1       -1 0.12885444E+00 0.12026371E+04</pdfrwt>
<totfact> 0.27801761E+01</totfact>
</mgrwt>
</event>
<event>
12    1  0.4612066E-007  0.1589417E+04  0.7818608E-02  0.8827076E-01
         -2   -1    0    0    0  501 -0.00000000000E+00  0.00000000000E+00  0.63065466826E+03  0.63065466826E+03  0.00000000000E+00 0. -1.
          2   -1    0    0  501    0  0.00000000000E+00 -0.00000000000E+00 -0.10014384442E+04  0.10014384442E+04  0.00000000000E+00 0.  1.
         23    2    1    2    0    0 -0.37946732399E+02 -0.23015913516E+03  0.34778368206E+03  0.42778661597E+03  0.87376869365E+02 0.  0.
        254    2    1    2    0    0  0.37946732399E+02  0.23015913516E+03 -0.71856745797E+03  0.12043064965E+04  0.93787086731E+03 0.  0.
        -24    2    4    4    0    0  0.40527870287E+03  0.14494179170E+03 -0.69200978382E+03  0.81888420219E+03  0.80217490020E+02 0.  0.
         24    2    4    4    0    0 -0.36733197047E+03  0.85217343452E+02 -0.26557674148E+02  0.38542229427E+03  0.75168229391E+02 0.  0.
         11    1    3    3    0    0 -0.16929793544E+02 -0.10273151228E+03  0.82878077894E+02  0.13307575782E+03  0.00000000000E+00 0.  1.
        -11    1    3    3    0    0 -0.21016938855E+02 -0.12742762288E+03  0.26490560417E+03  0.29471085815E+03  0.00000000000E+00 0. -1.
          4    1    6    6  502    0 -0.17083361164E+03  0.75912108373E+02 -0.16106642142E+00  0.18694062428E+03  0.00000000000E+00 0. -1.
          3    1    5    5  503    0  0.27766940596E+03  0.81993785580E+02 -0.52445955291E+03  0.59906685980E+03  0.00000000000E+00 0. -1.
         -4    1    5    5    0  503  0.12760929691E+03  0.62948006125E+02 -0.16755023091E+03  0.21981734238E+03  0.00000000000E+00 0.  1.
         -3    1    6    6    0  502 -0.19649835883E+03  0.93052350793E+01 -0.26396607726E+02  0.19848166999E+03  0.00000000000E+00 0.  1.
<mgrwt>
<rscale>  0 0.15894173E+04</rscale>
<asrwt>0</asrwt>
<pdfrwt beam="1">  1        2 0.15406745E+00 0.15894173E+04</pdfrwt>
<pdfrwt beam="2">  1       -2 0.97023796E-01 0.15894173E+04</pdfrwt>
<totfact> 0.21402025E+01</totfact>
</mgrwt>
</event>
<event>
12    1  0.4612066E-007  0.1160669E+04  0.7818608E-02  0.9147997E-01
         -2   -1    0    0    0  501 -0.00000000000E+00  0.00000000000E+00  0.43099497821E+03  0.43099497821E+03  0.00000000000E+00 0.  1.
          2   -1    0    0  501    0  0.00000000000E+00 -0.00000000000E+00 -0.78142047499E+03  0.78142047499E+03  0.00000000000E+00 0. -1.
         23    2    1    2    0    0 -0.10519280478E+03 -0.92363873271E+02  0.94531465449E+02  0.19249043535E+03  0.92302537767E+02 0.  0.
        254    2    1    2    0    0  0.10519280478E+03  0.92363873271E+02 -0.44495696222E+03  0.10199250179E+04  0.90700812155E+03 0.  0.
        -24    2    4    4    0    0  0.34282898823E+03  0.38087508740E+01 -0.61215603065E+03  0.70620766307E+03  0.80299662241E+02 0.  0.
         24    2    4    4    0    0 -0.23763618345E+03  0.88555122397E+02  0.16719906843E+03  0.31371735479E+03  0.78422476528E+02 0.  0.
         11    1    3    3    0    0 -0.12094943529E+03 -0.68573306674E+02  0.75797527575E+02  0.15835507403E+03  0.00000000000E+00 0.  1.
        -11    1    3    3    0    0  0.15756630511E+02 -0.23790566597E+02  0.18733937875E+02  0.34135361319E+02  0.00000000000E+00 0. -1.
          2    1    6    6  502    0 -0.15753189482E+02  0.22338348671E+02 -0.12694652753E+01  0.27363777924E+02  0.00000000000E+00 0. -1.
          1    1    5    5  503    0  0.46033974630E+02  0.12240739791E+02 -0.14552790707E+03  0.15312522413E+03  0.00000000000E+00 0. -1.
         -2    1    5    5    0  503  0.29679501360E+03 -0.84319889175E+01 -0.46662812359E+03  0.55308243893E+03  0.00000000000E+00 0.  1.
         -1    1    6    6    0  502 -0.22188299397E+03  0.66216773726E+02  0.16846853370E+03  0.28635357686E+03  0.00000000000E+00 0.  1.
<mgrwt>
<rscale>  0 0.11606693E+04</rscale>
<asrwt>0</asrwt>
<pdfrwt beam="1">  1        2 0.12021853E+00 0.11606693E+04</pdfrwt>
<pdfrwt beam="2">  1       -2 0.66306920E-01 0.11606693E+04</pdfrwt>
<totfact> 0.73552976E+01</totfact>
</mgrwt>
</event>
<event>
12    1  0.4612066E-007  0.1999319E+04  0.7818608E-02  0.8606939E-01
         -2   -1    0    0    0  501 -0.00000000000E+00  0.00000000000E+00  0.61556468634E+03  0.61556468634E+03  0.00000000000E+00 0.  1.
          2   -1    0    0  501    0  0.00000000000E+00 -0.00000000000E+00 -0.16234190977E+04  0.16234190977E+04  0.00000000000E+00 0. -1.
         23    2    1    2    0    0  0.52739803006E+03 -0.51316165798E+03 -0.74289245815E+03  0.10494312325E+04  0.89068165728E+02 0.  0.
        254    2    1    2    0    0 -0.52739803006E+03  0.51316165798E+03 -0.26496195323E+03  0.11895525515E+04  0.89629619369E+03 0.  0.
        -24    2    4    4    0    0  0.17353121875E+03  0.20147259586E+03  0.14796018543E+03  0.31480341394E+03  0.80651609985E+02 0.  0.
         24    2    4    4    0    0 -0.70092924881E+03  0.31168906213E+03 -0.41292213865E+03  0.87474913757E+03  0.78927041067E+02 0.  0.
         13    1    3    3    0    0  0.21655643319E+03 -0.16641070387E+03 -0.23422138459E+03  0.35979003338E+03  0.00000000000E+00 0.  1.
        -13    1    3    3    0    0  0.31084159686E+03 -0.34675095411E+03 -0.50867107355E+03  0.68964119917E+03  0.00000000000E+00 0. -1.
          4    1    6    6  502    0 -0.63143860009E+02  0.50293087051E+02 -0.29067739952E+02  0.85799039434E+02  0.00000000000E+00 0. -1.
          3    1    5    5  503    0  0.56924946793E+02  0.70250966729E+02  0.89065786736E+01  0.90856893175E+02  0.00000000000E+00 0. -1.
         -4    1    5    5    0  503  0.11660627196E+03  0.13122162913E+03  0.13905360675E+03  0.22394652076E+03  0.00000000000E+00 0.  1.
         -3    1    6    6    0  502 -0.63778538880E+03  0.26139597507E+03 -0.38385439870E+03  0.78895009814E+03  0.00000000000E+00 0.  1.
<mgrwt>
<rscale>  0 0.19993194E+04</rscale>
<asrwt>0</asrwt>
<pdfrwt beam="1">  1        2 0.24975678E+00 0.19993194E+04</pdfrwt>
<pdfrwt beam="2">  1       -2 0.94702261E-01 0.19993194E+04</pdfrwt>
<totfact> 0.94393134E+00</totfact>
</mgrwt>
</event>
<event>
12    1  0.4612066E-007  0.1041412E+04  0.7818608E-02  0.9264255E-01
         -1   -1    0    0    0  501 -0.00000000000E+00  0.00000000000E+00  0.18857434716E+03  0.18857434716E+03  0.00000000000E+00 0.  1.
          1   -1    0    0  501    0  0.00000000000E+00 -0.00000000000E+00 -0.14378143357E+04  0.14378143357E+04  0.00000000000E+00 0. -1.
         23    2    1    2    0    0 -0.44558485357E+02 -0.53762757637E+02 -0.67279777486E+02  0.13645545557E+03  0.96008490095E+02 0.  0.
        254    2    1    2    0    0  0.44558485357E+02  0.53762757637E+02 -0.11819602110E+04  0.14899332273E+04  0.90443086443E+03 0.  0.
        -24    2    4    4    0    0  0.30351667478E+03  0.28487880926E+03 -0.24962978767E+03  0.49202877698E+03  0.80616243034E+02 0.  0.
         24    2    4    4    0    0 -0.25895818943E+03 -0.23111605163E+03 -0.93233042335E+03  0.99790445029E+03  0.78098017935E+02 0.  0.
         13    1    3    3    0    0 -0.57392291106E+01  0.15613144359E+01 -0.68600520722E+02  0.68857881879E+02  0.00000000000E+00 0. -1.
        -13    1    3    3    0    0 -0.38819256246E+02 -0.55324072073E+02  0.13207432361E+01  0.67597573691E+02  0.00000000000E+00 0.  1.
          2    1    6    6  502    0 -0.21442716426E+03 -0.21865334071E+03 -0.75756645806E+03  0.81712620235E+03  0.00000000000E+00 0. -1.
          1    1    5    5  503    0  0.16560344975E+03  0.19070787997E+03 -0.18447955210E+03  0.31277260620E+03  0.00000000000E+00 0. -1.
         -2    1    5    5    0  503  0.13791322504E+03  0.94170929298E+02 -0.65150235574E+02  0.17925617077E+03  0.00000000000E+00 0.  1.
         -1    1    6    6    0  502 -0.44531025165E+02 -0.12462710917E+02 -0.17476396529E+03  0.18077824794E+03  0.00000000000E+00 0.  1.
<mgrwt>
<rscale>  0 0.10414123E+04</rscale>
<asrwt>0</asrwt>
<pdfrwt beam="1">  1        1 0.22120221E+00 0.10414123E+04</pdfrwt>
<pdfrwt beam="2">  1       -1 0.29011437E-01 0.10414123E+04</pdfrwt>
<totfact> 0.78194679E+01</totfact>
</mgrwt>
</event>
<event>
12    1  0.4612066E-007  0.3340450E+04  0.7818608E-02  0.8152678E-01
         -2   -1    0    0    0  501 -0.00000000000E+00  0.00000000000E+00  0.85983793927E+03  0.85983793927E+03  0.00000000000E+00 0.  1.
          2   -1    0    0  501    0  0.00000000000E+00 -0.00000000000E+00 -0.32443928910E+04  0.32443928910E+04  0.00000000000E+00 0. -1.
         23    2    1    2    0    0  0.99695343543E+03  0.10729592671E+04 -0.17166804046E+04  0.22587311909E+04  0.98576062028E+02 0.  0.
        254    2    1    2    0    0 -0.99695343543E+03 -0.10729592671E+04 -0.66787454712E+03  0.18454996394E+04  0.90258227717E+03 0.  0.
        -24    2    4    4    0    0 -0.58402169206E+03 -0.10632046010E+04 -0.22813615936E+03  0.12368919544E+04  0.79813778719E+02 0.  0.
         24    2    4    4    0    0 -0.41293174336E+03 -0.97546661029E+01 -0.43973838777E+03  0.60860768501E+03  0.80160379173E+02 0.  0.
         11    1    3    3    0    0  0.75587479671E+03  0.87100343318E+03 -0.13641632097E+04  0.17863188269E+04  0.00000000000E+00 0. -1.
        -11    1    3    3    0    0  0.24107863872E+03  0.20195583388E+03 -0.35251719499E+03  0.47241236398E+03  0.00000000000E+00 0.  1.
          2    1    6    6  502    0 -0.37375515243E+03  0.96254743985E+01 -0.36800801922E+03  0.52460982257E+03  0.00000000000E+00 0. -1.
          1    1    5    5  503    0 -0.58124546611E+03 -0.10438917621E+04 -0.23168718624E+03  0.12170600869E+04  0.00000000000E+00 0. -1.
         -2    1    5    5    0  503 -0.27762259512E+01 -0.19312838865E+02  0.35510268839E+01  0.19831867473E+02  0.00000000000E+00 0.  1.
         -3    1    6    6    0  502 -0.39176590938E+02 -0.19380140501E+02 -0.71730368544E+02  0.83997862442E+02  0.00000000000E+00 0.  1.
<mgrwt>
<rscale>  0 0.33404503E+04</rscale>
<asrwt>0</asrwt>
<pdfrwt beam="1">  1        2 0.49913736E+00 0.33404503E+04</pdfrwt>
<pdfrwt beam="2">  1       -2 0.13228276E+00 0.33404503E+04</pdfrwt>
<totfact> 0.41900073E-01</totfact>
</mgrwt>
</event>
<event>
12    1  0.4612066E-007  0.1993118E+04  0.7818608E-02  0.8609845E-01
          1   -1    0    0  501    0  0.00000000000E+00  0.00000000000E+00  0.12903663545E+04  0.12903663545E+04  0.00000000000E+00 0. -1.
         -1   -1    0    0    0  501 -0.00000000000E+00 -0.00000000000E+00 -0.76964944970E+03  0.76964944970E+03  0.00000000000E+00 0.  1.
         23    2    1    2    0    0 -0.71488550439E+03  0.26738666304E+03  0.42925119761E+03  0.88045122880E+03  0.91547057251E+02 0.  0.
        254    2    1    2    0    0  0.71488550439E+03 -0.26738666304E+03  0.91465707203E+02  0.11795645754E+04  0.89467854563E+03 0.  0.
        -24    2    4    4    0    0  0.76060426449E+03  0.12289848333E+03  0.37661921490E+02  0.77497095887E+03  0.74422324557E+02 0.  0.
         24    2    4    4    0    0 -0.45718760107E+02 -0.39028514637E+03  0.53803785712E+02  0.40459361654E+03  0.79927759161E+02 0.  0.
         13    1    3    3    0    0 -0.56296962387E+03  0.20361966060E+03  0.29230888608E+03  0.66621336557E+03  0.00000000000E+00 0.  1.
        -13    1    3    3    0    0 -0.15191588051E+03  0.63767002442E+02  0.13694231154E+03  0.21423786323E+03  0.00000000000E+00 0. -1.
          2    1    6    6  502    0 -0.67996240813E+02 -0.31126083725E+03  0.36496087720E+02  0.32068483280E+03  0.00000000000E+00 0. -1.
          3    1    5    5  503    0  0.68684168215E+03  0.97975273860E+02  0.52240819174E+02  0.69575840190E+03  0.00000000000E+00 0. -1.
         -4    1    5    5    0  503  0.73762582347E+02  0.24923209468E+02 -0.14578897684E+02  0.79212556974E+02  0.00000000000E+00 0.  1.
         -1    1    6    6    0  502  0.22277480706E+02 -0.79024309119E+02  0.17307697992E+02  0.83908783737E+02  0.00000000000E+00 0.  1.
<mgrwt>
<rscale>  0 0.19931179E+04</rscale>
<asrwt>0</asrwt>
<pdfrwt beam="1">  1        1 0.19851790E+00 0.19931179E+04</pdfrwt>
<pdfrwt beam="2">  1       -1 0.11840761E+00 0.19931179E+04</pdfrwt>
<totfact> 0.54570793E+00</totfact>
</mgrwt>
</event>
<event>
12    1  0.4612066E-007  0.1837436E+04  0.7818608E-02  0.8686641E-01
          2   -1    0    0  501    0  0.00000000000E+00  0.00000000000E+00  0.24115079038E+04  0.24115079038E+04  0.00000000000E+00 0.  1.
         -2   -1    0    0    0  501 -0.00000000000E+00 -0.00000000000E+00 -0.35000626527E+03  0.35000626527E+03  0.00000000000E+00 0. -1.
         23    2    1    2    0    0  0.33826753552E+03 -0.38914091107E+02  0.16794102884E+04  0.17162103491E+04  0.94972698848E+02 0.  0.
        254    2    1    2    0    0 -0.33826753552E+03  0.38914091107E+02  0.38209135013E+03  0.10453038200E+04  0.91144228786E+03 0.  0.
        -24    2    4    4    0    0 -0.41787676353E+03 -0.21587903383E+03 -0.10172007613E+03  0.48703742531E+03  0.75058197607E+02 0.  0.
         24    2    4    4    0    0  0.79609228005E+02  0.25479312494E+03  0.48381142626E+03  0.55826639465E+03  0.79565730784E+02 0.  0.
         11    1    3    3    0    0  0.16873321920E+03  0.28125254189E+02  0.83593427800E+03  0.85325731542E+03  0.00000000000E+00 0. -1.
        -11    1    3    3    0    0  0.16953431632E+03 -0.67039345296E+02  0.84347601043E+03  0.86295303372E+03  0.00000000000E+00 0.  1.
          4    1    6    6  502    0  0.69515571180E+02  0.16318113662E+03  0.38054915907E+03  0.41985492787E+03  0.00000000000E+00 0. -1.
          1    1    5    5  503    0 -0.31800561711E+03 -0.15906162092E+03 -0.10901584975E+03  0.37190405653E+03  0.00000000000E+00 0. -1.
         -2    1    5    5    0  503 -0.99871146415E+02 -0.56817412907E+02  0.72957736231E+01  0.11513336879E+03  0.00000000000E+00 0.  1.
         -3    1    6    6    0  502  0.10093656826E+02  0.91611988312E+02  0.10326226718E+03  0.13841146677E+03  0.00000000000E+00 0.  1.
<mgrwt>
<rscale>  0 0.18374361E+04</rscale>
<asrwt>0</asrwt>
<pdfrwt beam="1">  1        2 0.37100121E+00 0.18374361E+04</pdfrwt>
<pdfrwt beam="2">  1       -2 0.53847119E-01 0.18374361E+04</pdfrwt>
<totfact> 0.11982285E+01</totfact>
</mgrwt>
</event>
<event>
12    1  0.4612066E-007  0.2169113E+04  0.7818608E-02  0.8531395E-01
         -1   -1    0    0    0  501 -0.00000000000E+00  0.00000000000E+00  0.53145909187E+03  0.53145909187E+03  0.00000000000E+00 0.  1.
          1   -1    0    0  501    0  0.00000000000E+00 -0.00000000000E+00 -0.22132696248E+04  0.22132696248E+04  0.00000000000E+00 0. -1.
         23    2    1    2    0    0  0.79506555014E+03  0.22835409195E+03 -0.11367322280E+04  0.14088525394E+04  0.91817750445E+02 0.  0.
        254    2    1    2    0    0 -0.79506555014E+03 -0.22835409195E+03 -0.54507830498E+03  0.13358761773E+04  0.89620309204E+03 0.  0.
        -24    2    4    4    0    0 -0.28991218828E+03 -0.37807260911E+03  0.10610925056E+03  0.49448326306E+03  0.79161541939E+02 0.  0.
         24    2    4    4    0    0 -0.50515336186E+03  0.14971851717E+03 -0.65118755554E+03  0.84139291423E+03  0.79380414764E+02 0.  0.
         13    1    3    3    0    0  0.61380288176E+03  0.15194992966E+03 -0.81169136431E+03  0.10289245014E+04  0.00000000000E+00 0.  1.
        -13    1    3    3    0    0  0.18126266838E+03  0.76404162288E+02 -0.32504086366E+03  0.37992803794E+03  0.00000000000E+00 0. -1.
          4    1    6    6  502    0 -0.87334629196E+02 -0.42975946708E+01 -0.11227237370E+03  0.14230563120E+03  0.00000000000E+00 0. -1.
          3    1    5    5  503    0 -0.20523629007E+03 -0.20406060621E+03  0.61074116403E+02  0.29579167240E+03  0.00000000000E+00 0. -1.
         -4    1    5    5    0  503 -0.84675898213E+02 -0.17401200290E+03  0.45035134161E+02  0.19869159066E+03  0.00000000000E+00 0.  1.
         -3    1    6    6    0  502 -0.41781873267E+03  0.15401611184E+03 -0.53891518184E+03  0.69908728303E+03  0.00000000000E+00 0.  1.
<mgrwt>
<rscale>  0 0.21691125E+04</rscale>
<asrwt>0</asrwt>
<pdfrwt beam="1">  1        1 0.34050302E+00 0.21691125E+04</pdfrwt>
<pdfrwt beam="2">  1       -1 0.81762936E-01 0.21691125E+04</pdfrwt>
<totfact> 0.29035356E+00</totfact>
</mgrwt>
</event>
<event>
12    1  0.4612066E-007  0.1959962E+04  0.7818608E-02  0.8625572E-01
         -2   -1    0    0    0  501 -0.00000000000E+00  0.00000000000E+00  0.60995643210E+03  0.60995643210E+03  0.00000000000E+00 0.  1.
          2   -1    0    0  501    0  0.00000000000E+00 -0.00000000000E+00 -0.15744773038E+04  0.15744773038E+04  0.00000000000E+00 0. -1.
         23    2    1    2    0    0 -0.63374121402E+03  0.92725949292E+02  0.83011332268E+02  0.65232211071E+03  0.91690930951E+02 0.  0.
        254    2    1    2    0    0  0.63374121402E+03 -0.92725949292E+02 -0.10475322039E+04  0.15321116252E+04  0.91641490910E+03 0.  0.
        -24    2    4    4    0    0  0.62475275260E+03  0.16410091356E+03 -0.26070461806E+03  0.70056771829E+03  0.74720267168E+02 0.  0.
         24    2    4    4    0    0  0.89884614240E+01 -0.25682686285E+03 -0.78682758589E+03  0.83154390686E+03  0.79541116467E+02 0.  0.
         11    1    3    3    0    0 -0.30363644258E+03  0.71837491447E+02  0.30701387169E+01  0.31203387667E+03  0.00000000000E+00 0. -1.
        -11    1    3    3    0    0 -0.33010477145E+03  0.20888457845E+02  0.79941193551E+02  0.34028823404E+03  0.00000000000E+00 0.  1.
          4    1    6    6  502    0  0.15519332796E+02 -0.14695647608E+03 -0.56368679828E+03  0.58273481285E+03  0.00000000000E+00 0. -1.
          1    1    5    5  503    0  0.44729352436E+03  0.91692368120E+02 -0.15826446706E+03  0.48324592997E+03  0.00000000000E+00 0. -1.
         -2    1    5    5    0  503  0.17745922824E+03  0.72408545442E+02 -0.10244015100E+03  0.21732178832E+03  0.00000000000E+00 0.  1.
         -3    1    6    6    0  502 -0.65308713723E+01 -0.10987038677E+03 -0.22314078761E+03  0.24880909402E+03  0.00000000000E+00 0.  1.
<mgrwt>
<rscale>  0 0.19599618E+04</rscale>
<asrwt>0</asrwt>
<pdfrwt beam="1">  1        2 0.24222727E+00 0.19599618E+04</pdfrwt>
<pdfrwt beam="2">  1       -2 0.93839453E-01 0.19599618E+04</pdfrwt>
<totfact> 0.10304180E+01</totfact>
</mgrwt>
</event>
<event>
12    1  0.4612066E-007  0.1228150E+04  0.7818608E-02  0.9088567E-01
         -2   -1    0    0    0  501 -0.00000000000E+00  0.00000000000E+00  0.97842326478E+02  0.97842326478E+02  0.00000000000E+00 0.  1.
          2   -1    0    0  501    0  0.00000000000E+00 -0.00000000000E+00 -0.38540396352E+04  0.38540396352E+04  0.00000000000E+00 0. -1.
         23    2    1    2    0    0  0.11985713924E+03 -0.10524496757E+03 -0.19202238527E+03  0.26610176407E+03  0.92170035098E+02 0.  0.
        254    2    1    2    0    0 -0.11985713924E+03  0.10524496757E+03 -0.35641749235E+04  0.36857801976E+04  0.92530564848E+03 0.  0.
        -24    2    4    4    0    0 -0.95948617749E+02  0.42473335787E+03 -0.91952825234E+03  0.10206379001E+04  0.81024402553E+02 0.  0.
         24    2    4    4    0    0 -0.23908521491E+02 -0.31948839030E+03 -0.26446466711E+04  0.26651422975E+04  0.78632066044E+02 0.  0.
         13    1    3    3    0    0  0.55344962102E+02  0.37397611358E+01 -0.40849028589E+02  0.68888996074E+02  0.00000000000E+00 0.  1.
        -13    1    3    3    0    0  0.64512177139E+02 -0.10898472870E+03 -0.15117335668E+03  0.19721276799E+03  0.00000000000E+00 0. -1.
          2    1    6    6  502    0  0.92997974810E+01 -0.16543410462E+03 -0.10889712821E+04  0.11015050533E+04  0.00000000000E+00 0. -1.
          1    1    5    5  503    0 -0.41087741071E+02  0.31981158270E+03 -0.71433206917E+03  0.78373334492E+03  0.00000000000E+00 0. -1.
         -2    1    5    5    0  503 -0.54860876678E+02  0.10492177518E+03 -0.20519618317E+03  0.23690455522E+03  0.00000000000E+00 0.  1.
         -1    1    6    6    0  502 -0.33208318972E+02 -0.15405428568E+03 -0.15556753890E+04  0.15636372442E+04  0.00000000000E+00 0.  1.
<mgrwt>
<rscale>  0 0.12281502E+04</rscale>
<asrwt>0</asrwt>
<pdfrwt beam="1">  1        2 0.59292915E+00 0.12281502E+04</pdfrwt>
<pdfrwt beam="2">  1       -2 0.15052666E-01 0.12281502E+04</pdfrwt>
<totfact> 0.15874740E+01</totfact>
</mgrwt>
</event>
<event>
12    1  0.4612066E-007  0.3095697E+04  0.7818608E-02  0.8216920E-01
         -1   -1    0    0    0  501 -0.00000000000E+00  0.00000000000E+00  0.10817393289E+04  0.10817393289E+04  0.00000000000E+00 0.  1.
          1   -1    0    0  501    0  0.00000000000E+00 -0.00000000000E+00 -0.22147992860E+04  0.22147992860E+04  0.00000000000E+00 0. -1.
         23    2    1    2    0    0 -0.90728639288E+03  0.21042330175E+03 -0.16510163305E+04  0.18978267664E+04  0.91896393047E+02 0.  0.
        254    2    1    2    0    0  0.90728639288E+03 -0.21042330175E+03  0.51795637347E+03  0.13987118485E+04  0.90590808897E+03 0.  0.
        -24    2    4    4    0    0  0.23435179650E+02 -0.31070634618E+03 -0.70422120993E+02  0.32918264292E+03  0.79462545093E+02 0.  0.
         24    2    4    4    0    0  0.88385121323E+03  0.10028304443E+03  0.58837849447E+03  0.10695292056E+04  0.80335625250E+02 0.  0.
         11    1    3    3    0    0 -0.27117216958E+03  0.10616422644E+03 -0.52500979905E+03  0.60036695248E+03  0.00000000000E+00 0. -1.
        -11    1    3    3    0    0 -0.63611422330E+03  0.10425907532E+03 -0.11260065315E+04  0.12974598139E+04  0.00000000000E+00 0.  1.
          2    1    6    6  502    0  0.80451247627E+03  0.96768892695E+02  0.56086534505E+03  0.98548185084E+03  0.00000000000E+00 0. -1.
          3    1    5    5  503    0  0.19444849250E+02 -0.31080666098E+03 -0.77629051117E+02  0.32094415753E+03  0.00000000000E+00 0. -1.
         -4    1    5    5    0  503  0.39903304008E+01  0.10031480185E+00  0.72069301238E+01  0.82384853933E+01  0.00000000000E+00 0.  1.
         -1    1    6    6    0  502  0.79338736967E+02  0.35141517359E+01  0.27513149413E+02  0.84047354727E+02  0.00000000000E+00 0.  1.
<mgrwt>
<rscale>  0 0.30956973E+04</rscale>
<asrwt>0</asrwt>
<pdfrwt beam="1">  1        1 0.34073835E+00 0.30956973E+04</pdfrwt>
<pdfrwt beam="2">  1       -1 0.16642144E+00 0.30956973E+04</pdfrwt>
<totfact> 0.46983104E-01</totfact>
</mgrwt>
</event>
<event>
12    1  0.4612066E-007  0.1821249E+04  0.7818608E-02  0.8695080E-01
         -2   -1    0    0    0  501 -0.00000000000E+00  0.00000000000E+00  0.73886181788E+03  0.73886181788E+03  0.00000000000E+00 0.  1.
          2   -1    0    0  501    0  0.00000000000E+00 -0.00000000000E+00 -0.11223168173E+04  0.11223168173E+04  0.00000000000E+00 0. -1.
         23    2    1    2    0    0 -0.56339911168E+02  0.36514948050E+03 -0.73814833125E+03  0.83067663787E+03  0.93018219078E+02 0.  0.
        254    2    1    2    0    0  0.56339911168E+02 -0.36514948050E+03  0.35469333183E+03  0.10305019973E+04  0.89421400018E+03 0.  0.
        -24    2    4    4    0    0  0.39292989613E+03 -0.41522136330E+03  0.36210567188E+03  0.68169995158E+03  0.82411301189E+02 0.  0.
         24    2    4    4    0    0 -0.33658998496E+03  0.50071882803E+02 -0.74123400526E+01  0.34880204573E+03  0.76209664040E+02 0.  0.
         13    1    3    3    0    0 -0.77466303827E+02  0.20082156505E+03 -0.42521780283E+03  0.47659260282E+03  0.00000000000E+00 0. -1.
        -13    1    3    3    0    0  0.21126392659E+02  0.16432791545E+03 -0.31293052842E+03  0.35408403505E+03  0.00000000000E+00 0.  1.
          2    1    6    6  502    0 -0.26724076798E+03  0.48745659965E+02 -0.35517989936E+02  0.27396221463E+03  0.00000000000E+00 0. -1.
          1    1    5    5  503    0  0.38898437590E+03 -0.41716687804E+03  0.36428870009E+03  0.67678896700E+03  0.00000000000E+00 0. -1.
         -2    1    5    5    0  503  0.39455202279E+01  0.19455147380E+01 -0.21830282104E+01  0.49109845888E+01  0.00000000000E+00 0.  1.
         -1    1    6    6    0  502 -0.69349216979E+02  0.13262228383E+01  0.28105649883E+02  0.74839831093E+02  0.00000000000E+00 0.  1.
<mgrwt>
<rscale>  0 0.18212491E+04</rscale>
<asrwt>0</asrwt>
<pdfrwt beam="1">  1        2 0.17266412E+00 0.18212491E+04</pdfrwt>
<pdfrwt beam="2">  1       -2 0.11367105E+00 0.18212491E+04</pdfrwt>
<totfact> 0.12069625E+01</totfact>
</mgrwt>
</event>
<event>
12    1  0.4612066E-007  0.1620346E+04  0.7818608E-02  0.8808145E-01
          1   -1    0    0  501    0  0.00000000000E+00  0.00000000000E+00  0.13088687720E+04  0.13088687720E+04  0.00000000000E+00 0.  1.
         -1   -1    0    0    0  501 -0.00000000000E+00 -0.00000000000E+00 -0.50148690764E+03  0.50148690764E+03  0.00000000000E+00 0. -1.
         23    2    1    2    0    0  0.34068653805E+03 -0.41672815808E+03  0.47602516085E+03  0.72402855609E+03  0.88812844373E+02 0.  0.
        254    2    1    2    0    0 -0.34068653805E+03  0.41672815808E+03  0.33135670349E+03  0.10863271235E+04  0.88350420451E+03 0.  0.
        -24    2    4    4    0    0 -0.22107632850E+03 -0.23516769316E+03  0.24471348491E+03  0.41323329695E+03  0.81844248933E+02 0.  0.
         24    2    4    4    0    0 -0.11961020955E+03  0.65189585124E+03  0.86643218578E+02  0.67309382656E+03  0.79205106735E+02 0.  0.
         13    1    3    3    0    0  0.23873457861E+03 -0.30861392681E+03  0.39305773047E+03  0.55383312859E+03  0.00000000000E+00 0.  1.
        -13    1    3    3    0    0  0.10195195944E+03 -0.10811423127E+03  0.82967430383E+02  0.17019542750E+03  0.00000000000E+00 0. -1.
          2    1    6    6  502    0 -0.67409991672E+02  0.17222718443E+03  0.27464868200E+02  0.18697761636E+03  0.00000000000E+00 0. -1.
          1    1    5    5  503    0 -0.89463399984E+01 -0.28837873693E+02  0.51875916396E+02  0.60023084396E+02  0.00000000000E+00 0. -1.
         -2    1    5    5    0  503 -0.21212998850E+03 -0.20632981947E+03  0.19283756851E+03  0.35321021255E+03  0.00000000000E+00 0.  1.
         -1    1    6    6    0  502 -0.52200217882E+02  0.47966866681E+03  0.59178350379E+02  0.48611621020E+03  0.00000000000E+00 0.  1.
<mgrwt>
<rscale>  0 0.16203463E+04</rscale>
<asrwt>0</asrwt>
<pdfrwt beam="1">  1        1 0.20136443E+00 0.16203463E+04</pdfrwt>
<pdfrwt beam="2">  1       -1 0.77151832E-01 0.16203463E+04</pdfrwt>
<totfact> 0.14386277E+01</totfact>
</mgrwt>
</event>
<event>
12    1  0.4612066E-007  0.1197084E+04  0.7818608E-02  0.9115412E-01
         -1   -1    0    0    0  501 -0.00000000000E+00  0.00000000000E+00  0.26050172027E+03  0.26050172027E+03  0.00000000000E+00 0.  1.
          1   -1    0    0  501    0  0.00000000000E+00 -0.00000000000E+00 -0.13752413282E+04  0.13752413282E+04  0.00000000000E+00 0. -1.
         23    2    1    2    0    0 -0.14157914597E+02  0.23989809698E+03 -0.20720918600E+03  0.32887843637E+03  0.86451348553E+02 0.  0.
        254    2    1    2    0    0  0.14157914597E+02 -0.23989809698E+03 -0.90753042192E+03  0.13068646121E+04  0.90913811062E+03 0.  0.
        -24    2    4    4    0    0  0.23173759300E+03 -0.44351763861E+03 -0.21876422792E+03  0.55208224750E+03  0.80788692352E+02 0.  0.
         24    2    4    4    0    0 -0.21757967840E+03  0.20361954164E+03 -0.68876619401E+03  0.75478236461E+03  0.80595990764E+02 0.  0.
         13    1    3    3    0    0  0.26792293199E+02  0.26417717563E+02 -0.37286309408E+02  0.52971611693E+02  0.00000000000E+00 0.  1.
        -13    1    3    3    0    0 -0.40950207796E+02  0.21348037941E+03 -0.16992287659E+03  0.27590682468E+03  0.00000000000E+00 0. -1.
          4    1    6    6  502    0  0.24154673864E+01 -0.48704382640E+01 -0.15852601347E+02  0.16758896773E+02  0.00000000000E+00 0. -1.
          3    1    5    5  503    0  0.20394681665E+02 -0.72344914621E+01 -0.14378428372E+02  0.25981149116E+02  0.00000000000E+00 0. -1.
         -4    1    5    5    0  503  0.21134291133E+03 -0.43628314715E+03 -0.20438579955E+03  0.52610109838E+03  0.00000000000E+00 0.  1.
         -3    1    6    6    0  502 -0.21999514579E+03  0.20848997990E+03 -0.67291359266E+03  0.73802346784E+03  0.00000000000E+00 0.  1.
<mgrwt>
<rscale>  0 0.11970843E+04</rscale>
<asrwt>0</asrwt>
<pdfrwt beam="1">  1        1 0.21157559E+00 0.11970843E+04</pdfrwt>
<pdfrwt beam="2">  1       -1 0.40077187E-01 0.11970843E+04</pdfrwt>
<totfact> 0.48033827E+01</totfact>
</mgrwt>
</event>
<event>
12    1  0.4612066E-007  0.1444762E+04  0.7818608E-02  0.8922040E-01
         -1   -1    0    0    0  501 -0.00000000000E+00  0.00000000000E+00  0.11765688313E+04  0.11765688313E+04  0.00000000000E+00 0.  1.
          1   -1    0    0  501    0  0.00000000000E+00 -0.00000000000E+00 -0.44352206258E+03  0.44352206258E+03  0.00000000000E+00 0. -1.
         23    2    1    2    0    0 -0.34898196956E+02  0.34441168846E+03  0.52873292574E+03  0.63872801162E+03  0.92615715570E+02 0.  0.
        254    2    1    2    0    0  0.34898196956E+02 -0.34441168846E+03  0.20431384294E+03  0.98136288222E+03  0.89526066868E+03 0.  0.
        -24    2    4    4    0    0 -0.11222000548E+03  0.24993656899E+03  0.22493731615E+03  0.36364980336E+03  0.81134241472E+02 0.  0.
         24    2    4    4    0    0  0.14711820243E+03 -0.59434825745E+03 -0.20623473205E+02  0.61771307887E+03  0.79060126094E+02 0.  0.
         11    1    3    3    0    0 -0.61403291512E+02  0.29545315638E+03  0.46200051092E+03  0.55182189510E+03  0.00000000000E+00 0.  1.
        -11    1    3    3    0    0  0.26505094556E+02  0.48958532085E+02  0.66732414816E+02  0.86906116520E+02  0.00000000000E+00 0. -1.
          2    1    6    6  502    0  0.10248794668E+03 -0.35518441176E+03  0.23626014766E+02  0.37042939158E+03  0.00000000000E+00 0. -1.
          3    1    5    5  503    0 -0.44817125689E+02  0.33488272625E+02  0.67358996433E+02  0.87562969108E+02  0.00000000000E+00 0. -1.
         -4    1    5    5    0  503 -0.67402879788E+02  0.21644829636E+03  0.15757831971E+03  0.27608683425E+03  0.00000000000E+00 0.  1.
         -1    1    6    6    0  502  0.44630255749E+02 -0.23916384569E+03 -0.44249487971E+02  0.24728368729E+03  0.00000000000E+00 0.  1.
<mgrwt>
<rscale>  0 0.14447619E+04</rscale>
<asrwt>0</asrwt>
<pdfrwt beam="1">  1        1 0.68234164E-01 0.14447619E+04</pdfrwt>
<pdfrwt beam="2">  1       -1 0.18101059E+00 0.14447619E+04</pdfrwt>
<totfact> 0.10382927E+01</totfact>
</mgrwt>
</event>
<event>
12    1  0.4612066E-007  0.2454816E+04  0.7818608E-02  0.8419262E-01
          1   -1    0    0  501    0  0.00000000000E+00  0.00000000000E+00  0.11587420155E+04  0.11587420155E+04  0.00000000000E+00 0. -1.
         -1   -1    0    0    0  501 -0.00000000000E+00 -0.00000000000E+00 -0.13001431825E+04  0.13001431825E+04  0.00000000000E+00 0.  1.
         23    2    1    2    0    0 -0.14976598941E+03 -0.59350745485E+03  0.80555814357E+03  0.10158478190E+04  0.91334101769E+02 0.  0.
        254    2    1    2    0    0  0.14976598941E+03  0.59350745485E+03 -0.94695931056E+03  0.14430373791E+04  0.90052428674E+03 0.  0.
        -24    2    4    4    0    0  0.32706714943E+03  0.75520351632E+03 -0.64303704284E+03  0.10476682146E+04  0.82503201126E+02 0.  0.
         24    2    4    4    0    0 -0.17730116003E+03 -0.16169606147E+03 -0.30392226772E+03  0.39536916444E+03  0.79791689598E+02 0.  0.
         13    1    3    3    0    0 -0.13481562046E+03 -0.47337725217E+03  0.69683038117E+03  0.85313179200E+03  0.00000000000E+00 0. -1.
        -13    1    3    3    0    0 -0.14950368943E+02 -0.12013020267E+03  0.10872776241E+03  0.16271602700E+03  0.00000000000E+00 0.  1.
          4    1    6    6  502    0 -0.58225129052E+02 -0.11827309732E+02 -0.51854667424E+02  0.78860366739E+02  0.00000000000E+00 0. -1.
          3    1    5    5  503    0  0.65943803912E+02  0.13374474185E+03 -0.79133008223E+02  0.16881431882E+03  0.00000000000E+00 0. -1.
         -4    1    5    5    0  503  0.26112334552E+03  0.62145877446E+03 -0.56390403462E+03  0.87885389582E+03  0.00000000000E+00 0.  1.
         -3    1    6    6    0  502 -0.11907603098E+03 -0.14986875174E+03 -0.25206760030E+03  0.31650879770E+03  0.00000000000E+00 0.  1.
<mgrwt>
<rscale>  0 0.24548161E+04</rscale>
<asrwt>0</asrwt>
<pdfrwt beam="1">  1        1 0.17826800E+00 0.24548161E+04</pdfrwt>
<pdfrwt beam="2">  1       -1 0.20002203E+00 0.24548161E+04</pdfrwt>
<totfact> 0.15377830E+00</totfact>
</mgrwt>
</event>
<event>
12    1  0.4612066E-007  0.1985744E+04  0.7818608E-02  0.8613315E-01
         -2   -1    0    0    0  501 -0.00000000000E+00  0.00000000000E+00  0.35404142146E+04  0.35404142146E+04  0.00000000000E+00 0.  1.
          2   -1    0    0  501    0  0.00000000000E+00 -0.00000000000E+00 -0.27844057207E+03  0.27844057207E+03  0.00000000000E+00 0. -1.
         23    2    1    2    0    0 -0.10111426177E+03 -0.68972103532E+03  0.19914181320E+04  0.21122672659E+04  0.99938109813E+02 0.  0.
        254    2    1    2    0    0  0.10111426177E+03  0.68972103532E+03  0.12705555106E+04  0.17065875208E+04  0.90121610069E+03 0.  0.
        -24    2    4    4    0    0  0.60144067032E+02 -0.12767650008E+03 -0.33022296739E+02  0.16520094766E+03  0.79260857629E+02 0.  0.
         24    2    4    4    0    0  0.40970194741E+02  0.81739753540E+03  0.13035778073E+04  0.15413865731E+04  0.82098601376E+02 0.  0.
         13    1    3    3    0    0 -0.10763269055E+03 -0.64654580202E+03  0.17915168607E+04  0.19076527284E+04  0.00000000000E+00 0.  1.
        -13    1    3    3    0    0  0.65184287722E+01 -0.43175233298E+02  0.19990127130E+03  0.20461453749E+03  0.00000000000E+00 0. -1.
          2    1    6    6  502    0  0.37361801315E+02  0.61403540115E+03  0.91107846355E+03  0.10993176724E+04  0.00000000000E+00 0. -1.
          3    1    5    5  503    0  0.59194598455E+02 -0.11363894645E+03  0.12660173480E+01  0.12813825907E+03  0.00000000000E+00 0. -1.
         -4    1    5    5    0  503  0.94946857645E+00 -0.14037553633E+02 -0.34288314087E+02  0.37062688590E+02  0.00000000000E+00 0.  1.
         -1    1    6    6    0  502  0.36083934259E+01  0.20336213425E+03  0.39249934375E+03  0.44206890073E+03  0.00000000000E+00 0.  1.
<mgrwt>
<rscale>  0 0.19857442E+04</rscale>
<asrwt>0</asrwt>
<pdfrwt beam="1">  1        2 0.42837014E-01 0.19857442E+04</pdfrwt>
<pdfrwt beam="2">  1       -2 0.54467908E+00 0.19857442E+04</pdfrwt>
<totfact> 0.99822477E-02</totfact>
</mgrwt>
</event>
<event>
12    1  0.4612066E-007  0.1253702E+04  0.7818608E-02  0.9067108E-01
         -1   -1    0    0    0  501 -0.00000000000E+00  0.00000000000E+00  0.19010485053E+03  0.19010485053E+03  0.00000000000E+00 0.  1.
          1   -1    0    0  501    0  0.00000000000E+00 -0.00000000000E+00 -0.20669748550E+04  0.20669748550E+04  0.00000000000E+00 0. -1.
         23    2    1    2    0    0  0.64973380142E+02  0.10400072448E+03  0.22303470307E+02  0.15359202614E+03  0.89751740301E+02 0.  0.
        254    2    1    2    0    0 -0.64973380142E+02 -0.10400072448E+03 -0.18991734748E+04  0.21034876794E+04  0.89597033389E+03 0.  0.
        -24    2    4    4    0    0 -0.14497972154E+03  0.33087693588E+03 -0.43154163446E+03  0.56874438711E+03  0.82117776656E+02 0.  0.
         24    2    4    4    0    0  0.80006341394E+02 -0.43487766036E+03 -0.14676318403E+04  0.15347432923E+04  0.77292692501E+02 0.  0.
         11    1    3    3    0    0  0.78867302270E+02  0.11112883327E+03  0.18508267696E+02  0.13752172528E+03  0.00000000000E+00 0.  1.
        -11    1    3    3    0    0 -0.13893922128E+02 -0.71281087856E+01  0.37952026111E+01  0.16070300863E+02  0.00000000000E+00 0. -1.
          2    1    6    6  502    0  0.48251689952E+02 -0.29852054792E+03 -0.11165690905E+04  0.11567926681E+04  0.00000000000E+00 0. -1.
          1    1    5    5  503    0 -0.43810232108E+02  0.15664499362E+03 -0.14148694709E+03  0.21558187925E+03  0.00000000000E+00 0. -1.
         -2    1    5    5    0  503 -0.10116948943E+03  0.17423194227E+03 -0.29005468736E+03  0.35316250786E+03  0.00000000000E+00 0.  1.
         -1    1    6    6    0  502  0.31754651442E+02 -0.13635711245E+03 -0.35106274985E+03  0.37795062421E+03  0.00000000000E+00 0.  1.
<mgrwt>
<rscale>  0 0.12537016E+04</rscale>
<asrwt>0</asrwt>
<pdfrwt beam="1">  1        1 0.31799615E+00 0.12537016E+04</pdfrwt>
<pdfrwt beam="2">  1       -1 0.29246899E-01 0.12537016E+04</pdfrwt>
<totfact> 0.28283154E+01</totfact>
</mgrwt>
</event>
<event>
12    1  0.4612066E-007  0.2633915E+04  0.7818608E-02  0.8356771E-01
          1   -1    0    0  501    0  0.00000000000E+00  0.00000000000E+00  0.29020830120E+04  0.29020830120E+04  0.00000000000E+00 0. -1.
         -1   -1    0    0    0  501 -0.00000000000E+00 -0.00000000000E+00 -0.59763184774E+03  0.59763184774E+03  0.00000000000E+00 0.  1.
         23    2    1    2    0    0 -0.89005300757E+03  0.67461107982E+03  0.14463279945E+04  0.18296981477E+04  0.92931044155E+02 0.  0.
        254    2    1    2    0    0  0.89005300757E+03 -0.67461107982E+03  0.85812316983E+03  0.16700167120E+04  0.89737727773E+03 0.  0.
        -24    2    4    4    0    0  0.81831870167E+03 -0.17576345194E+03  0.25161374456E+03  0.87775111223E+03  0.81235768197E+02 0.  0.
         24    2    4    4    0    0  0.71734305904E+02 -0.49884762788E+03  0.60650942527E+03  0.79226559981E+03  0.76395884815E+02 0.  0.
         13    1    3    3    0    0 -0.21381267519E+03  0.19030738942E+03  0.31686068393E+03  0.42700521725E+03  0.00000000000E+00 0.  1.
        -13    1    3    3    0    0 -0.67624033238E+03  0.48430369040E+03  0.11294673105E+04  0.14026929305E+04  0.00000000000E+00 0. -1.
          2    1    6    6  502    0  0.44483182658E+02 -0.44793004699E+03  0.55737663607E+03  0.71644175965E+03  0.00000000000E+00 0. -1.
          1    1    5    5  503    0  0.68721659124E+03 -0.14800181826E+03  0.17931341831E+03  0.72548224201E+03  0.00000000000E+00 0. -1.
         -2    1    5    5    0  503  0.13110211043E+03 -0.27761633682E+02  0.72300326248E+02  0.15226887022E+03  0.00000000000E+00 0.  1.
         -1    1    6    6    0  502  0.27251123246E+02 -0.50917580892E+02  0.49132789199E+02  0.75823840160E+02  0.00000000000E+00 0.  1.
<mgrwt>
<rscale>  0 0.26339151E+04</rscale>
<asrwt>0</asrwt>
<pdfrwt beam="1">  1        1 0.44647430E+00 0.26339151E+04</pdfrwt>
<pdfrwt beam="2">  1       -1 0.91943363E-01 0.26339151E+04</pdfrwt>
<totfact> 0.71198625E-01</totfact>
</mgrwt>
</event>
<event>
12    1  0.4612066E-007  0.1753143E+04  0.7818608E-02  0.8731622E-01
         -2   -1    0    0    0  501 -0.00000000000E+00  0.00000000000E+00  0.13998090104E+04  0.13998090104E+04  0.00000000000E+00 0.  1.
          2   -1    0    0  501    0  0.00000000000E+00 -0.00000000000E+00 -0.54891630852E+03  0.54891630852E+03  0.00000000000E+00 0. -1.
         23    2    1    2    0    0 -0.40245971862E+03  0.47326005646E+03  0.49544607999E+03  0.80003731703E+03  0.92973030042E+02 0.  0.
        254    2    1    2    0    0  0.40245971862E+03 -0.47326005646E+03  0.35544662187E+03  0.11486880019E+04  0.89843915681E+03 0.  0.
        -24    2    4    4    0    0  0.42243157244E+03 -0.86221584226E+02 -0.18781589404E+03  0.47684984884E+03  0.78920043802E+02 0.  0.
         24    2    4    4    0    0 -0.19971853811E+02 -0.38703847223E+03  0.54326251591E+03  0.67183815303E+03  0.77683259071E+02 0.  0.
         11    1    3    3    0    0 -0.28345133172E+03  0.34107350349E+03  0.40460107774E+03  0.60031477105E+03  0.00000000000E+00 0.  1.
        -11    1    3    3    0    0 -0.11900838691E+03  0.13218655296E+03  0.90845002251E+02  0.19972254598E+03  0.00000000000E+00 0. -1.
          2    1    6    6  502    0 -0.41888992436E+00 -0.24194519443E+03  0.39683191360E+03  0.46477222402E+03  0.00000000000E+00 0. -1.
          1    1    5    5  503    0  0.30873597428E+03 -0.91876472419E+02 -0.15999605523E+03  0.35966362853E+03  0.00000000000E+00 0. -1.
         -2    1    5    5    0  503  0.11369559816E+03  0.56548881929E+01 -0.27819838810E+02  0.11718622032E+03  0.00000000000E+00 0.  1.
         -1    1    6    6    0  502 -0.19552963886E+02 -0.14509327780E+03  0.14643060231E+03  0.20706592901E+03  0.00000000000E+00 0.  1.
<mgrwt>
<rscale>  0 0.17531435E+04</rscale>
<asrwt>0</asrwt>
<pdfrwt beam="1">  1        2 0.84448663E-01 0.17531435E+04</pdfrwt>
<pdfrwt beam="2">  1       -2 0.21535523E+00 0.17531435E+04</pdfrwt>
<totfact> 0.55277479E+00</totfact>
</mgrwt>
</event>
<event>
12    1  0.4612066E-007  0.1450919E+04  0.7818608E-02  0.8917764E-01
         -2   -1    0    0    0  501 -0.00000000000E+00  0.00000000000E+00  0.23699097727E+03  0.23699097727E+03  0.00000000000E+00 0.  1.
          2   -1    0    0  501    0  0.00000000000E+00 -0.00000000000E+00 -0.22207234599E+04  0.22207234599E+04  0.00000000000E+00 0. -1.
         23    2    1    2    0    0 -0.71389441210E+02 -0.23297966491E+03 -0.10851382118E+04  0.11161044644E+04  0.93745720043E+02 0.  0.
        254    2    1    2    0    0  0.71389441210E+02  0.23297966491E+03 -0.89859427074E+03  0.13416099727E+04  0.96595531935E+03 0.  0.
        -24    2    4    4    0    0 -0.10349474223E+03  0.44708186947E+03 -0.94207618437E+03  0.10508638454E+04  0.78828451204E+02 0.  0.
         24    2    4    4    0    0  0.17488418344E+03 -0.21410220457E+03  0.43481913632E+02  0.29074612735E+03  0.78856845847E+02 0.  0.
         13    1    3    3    0    0 -0.81683845776E+02 -0.23215050920E+03 -0.97875883320E+03  0.10092249319E+04  0.00000000000E+00 0.  1.
        -13    1    3    3    0    0  0.10294404566E+02 -0.82915571298E+00 -0.10637937864E+03  0.10687953249E+03  0.00000000000E+00 0. -1.
          2    1    6    6  502    0  0.97414283493E+02 -0.16496773355E+03  0.60858531595E+01  0.19167924600E+03  0.00000000000E+00 0. -1.
          1    1    5    5  503    0 -0.38906940199E+02  0.32259954254E+03 -0.63655321404E+03  0.71469168817E+03  0.00000000000E+00 0. -1.
         -2    1    5    5    0  503 -0.64587802034E+02  0.12448232694E+03 -0.30552297033E+03  0.33617215722E+03  0.00000000000E+00 0.  1.
         -1    1    6    6    0  502  0.77469899950E+02 -0.49134471019E+02  0.37396060472E+02  0.99066881345E+02  0.00000000000E+00 0.  1.
<mgrwt>
<rscale>  0 0.14509189E+04</rscale>
<asrwt>0</asrwt>
<pdfrwt beam="1">  1        2 0.34164975E+00 0.14509189E+04</pdfrwt>
<pdfrwt beam="2">  1       -2 0.36460151E-01 0.14509189E+04</pdfrwt>
<totfact> 0.34570106E+01</totfact>
</mgrwt>
</event>
<event>
12    1  0.4612066E-007  0.1095207E+04  0.7818608E-02  0.9209876E-01
         -2   -1    0    0    0  501 -0.00000000000E+00  0.00000000000E+00  0.69573434671E+03  0.69573434671E+03  0.00000000000E+00 0.  1.
          2   -1    0    0  501    0  0.00000000000E+00 -0.00000000000E+00 -0.43101190093E+03  0.43101190093E+03  0.00000000000E+00 0. -1.
         23    2    1    2    0    0 -0.16402176764E+02  0.15131816236E+03  0.58311887884E+02  0.18597762500E+03  0.89561057762E+02 0.  0.
        254    2    1    2    0    0  0.16402176764E+02 -0.15131816236E+03  0.20641055790E+03  0.94076862265E+03  0.90513759467E+03 0.  0.
        -24    2    4    4    0    0 -0.39429425743E+03  0.10562957532E+03  0.24912040754E+02  0.41679948851E+03  0.80471331696E+02 0.  0.
         24    2    4    4    0    0  0.41069643419E+03 -0.25694773768E+03  0.18149851715E+03  0.52396913414E+03  0.83115827871E+02 0.  0.
         13    1    3    3    0    0 -0.12565277490E+02  0.28370737227E+02  0.54735128127E+02  0.62918353287E+02  0.00000000000E+00 0.  1.
        -13    1    3    3    0    0 -0.38368992737E+01  0.12294742513E+03  0.35767597569E+01  0.12305927171E+03  0.00000000000E+00 0. -1.
          4    1    6    6  502    0  0.34745398204E+03 -0.17807520663E+03  0.14326273228E+03  0.41588370888E+03  0.00000000000E+00 0. -1.
          3    1    5    5  503    0 -0.20010341564E+03  0.61667136305E+02 -0.26774957867E+02  0.21109502841E+03  0.00000000000E+00 0. -1.
         -4    1    5    5    0  503 -0.19419084179E+03  0.43962439013E+02  0.51686998621E+02  0.20570446010E+03  0.00000000000E+00 0.  1.
         -3    1    6    6    0  502  0.63242452154E+02 -0.78872531046E+02  0.38235784866E+02  0.10808542525E+03  0.00000000000E+00 0.  1.
<mgrwt>
<rscale>  0 0.10952073E+04</rscale>
<asrwt>0</asrwt>
<pdfrwt beam="1">  1        2 0.66309523E-01 0.10952073E+04</pdfrwt>
<pdfrwt beam="2">  1       -2 0.10703605E+00 0.10952073E+04</pdfrwt>
<totfact> 0.50929307E+01</totfact>
</mgrwt>
</event>
<event>
12    1  0.4612066E-007  0.1799012E+04  0.7818608E-02  0.8706825E-01
         -1   -1    0    0    0  501 -0.00000000000E+00  0.00000000000E+00  0.91474770451E+03  0.91474770451E+03  0.00000000000E+00 0. -1.
          1   -1    0    0  501    0  0.00000000000E+00 -0.00000000000E+00 -0.88451830212E+03  0.88451830212E+03  0.00000000000E+00 0.  1.
         23    2    1    2    0    0 -0.15008807729E+03  0.62445362065E+03 -0.17450616603E+03  0.67173227373E+03  0.91121294435E+02 0.  0.
        254    2    1    2    0    0  0.15008807729E+03 -0.62445362065E+03  0.20473556842E+03  0.11275337329E+04  0.90385115509E+03 0.  0.
        -24    2    4    4    0    0  0.12173243019E+03 -0.70187170582E+03 -0.16888202286E+03  0.73636529609E+03  0.79183556666E+02 0.  0.
         24    2    4    4    0    0  0.28355647098E+02  0.77418085170E+02  0.37361759128E+03  0.39116843681E+03  0.81394341367E+02 0.  0.
         11    1    3    3    0    0 -0.10329034035E+03  0.52833517447E+03 -0.11923322048E+03  0.55138327129E+03  0.00000000000E+00 0. -1.
        -11    1    3    3    0    0 -0.46797736936E+02  0.96118446182E+02 -0.55272945550E+02  0.12034900244E+03  0.00000000000E+00 0.  1.
          2    1    6    6  502    0 -0.16180508315E+02 -0.88836936152E+01  0.70294125281E+02  0.72677320469E+02  0.00000000000E+00 0. -1.
          1    1    5    5  503    0 -0.22566286568E+01 -0.99044109009E+02 -0.43880245674E+02  0.10835268277E+03  0.00000000000E+00 0. -1.
         -2    1    5    5    0  503  0.12398905885E+03 -0.60282759681E+03 -0.12500177718E+03  0.62801261332E+03  0.00000000000E+00 0.  1.
         -1    1    6    6    0  502  0.44536155413E+02  0.86301778786E+02  0.30332346600E+03  0.31849111634E+03  0.00000000000E+00 0.  1.
<mgrwt>
<rscale>  0 0.17990120E+04</rscale>
<asrwt>0</asrwt>
<pdfrwt beam="1">  1        1 0.13607974E+00 0.17990120E+04</pdfrwt>
<pdfrwt beam="2">  1       -1 0.14073042E+00 0.17990120E+04</pdfrwt>
<totfact> 0.73130353E+00</totfact>
</mgrwt>
</event>
<event>
12    1  0.4612066E-007  0.2486904E+04  0.7818608E-02  0.8407666E-01
         -2   -1    0    0    0  501 -0.00000000000E+00  0.00000000000E+00  0.64451180721E+03  0.64451180721E+03  0.00000000000E+00 0.  1.
          2   -1    0    0  501    0  0.00000000000E+00 -0.00000000000E+00 -0.23989838090E+04  0.23989838090E+04  0.00000000000E+00 0. -1.
         23    2    1    2    0    0 -0.53256626804E+03  0.18091721530E+03 -0.18872750638E+04  0.19715053639E+04  0.93104053635E+02 0.  0.
        254    2    1    2    0    0  0.53256626804E+03 -0.18091721530E+03  0.13280306200E+03  0.10719902523E+04  0.90286686679E+03 0.  0.
        -24    2    4    4    0    0  0.12721700555E+03 -0.46267986459E+01 -0.36936417402E+03  0.39849802200E+03  0.78518830399E+02 0.  0.
         24    2    4    4    0    0  0.40534926249E+03 -0.17629041666E+03  0.50216723601E+03  0.67349223032E+03  0.77675708994E+02 0.  0.
         13    1    3    3    0    0 -0.38968384534E+03  0.15851418601E+03 -0.15083253066E+04  0.15658944655E+04  0.00000000000E+00 0. -1.
        -13    1    3    3    0    0 -0.14288242270E+03  0.22403029295E+02 -0.37894975723E+03  0.40561089845E+03  0.00000000000E+00 0.  1.
          4    1    6    6  502    0  0.20525893676E+03 -0.83694672024E+02  0.30951424213E+03  0.38070342174E+03  0.00000000000E+00 0. -1.
          1    1    5    5  503    0  0.12044840264E+03  0.96590052764E+01 -0.24547001111E+03  0.27359941600E+03  0.00000000000E+00 0. -1.
         -2    1    5    5    0  503  0.67686029066E+01 -0.14285803922E+02 -0.12389416290E+03  0.12489860600E+03  0.00000000000E+00 0.  1.
         -3    1    6    6    0  502  0.20009032574E+03 -0.92595744631E+02  0.19265299388E+03  0.29278880858E+03  0.00000000000E+00 0.  1.
<mgrwt>
<rscale>  0 0.24869044E+04</rscale>
<asrwt>0</asrwt>
<pdfrwt beam="1">  1        2 0.36907443E+00 0.24869044E+04</pdfrwt>
<pdfrwt beam="2">  1       -2 0.99155663E-01 0.24869044E+04</pdfrwt>
<totfact> 0.29948599E+00</totfact>
</mgrwt>
</event>
<event>
12    1  0.4612066E-007  0.1681057E+04  0.7818608E-02  0.8772243E-01
          2   -1    0    0  501    0  0.00000000000E+00  0.00000000000E+00  0.27579329533E+04  0.27579329533E+04  0.00000000000E+00 0. -1.
         -2   -1    0    0    0  501 -0.00000000000E+00 -0.00000000000E+00 -0.25616584420E+03  0.25616584420E+03  0.00000000000E+00 0.  1.
         23    2    1    2    0    0  0.11952482410E+01 -0.17495942733E+03 -0.12453152681E+03  0.23343859420E+03  0.91505443901E+02 0.  0.
        254    2    1    2    0    0 -0.11952482410E+01  0.17495942733E+03  0.26262986359E+04  0.27806602033E+04  0.89666850695E+03 0.  0.
        -24    2    4    4    0    0 -0.33506613527E+03  0.16348848071E+03  0.22015837686E+04  0.22343662793E+04  0.80148496811E+02 0.  0.
         24    2    4    4    0    0  0.33387088703E+03  0.11470946616E+02  0.42471486733E+03  0.54629392402E+03  0.80330449188E+02 0.  0.
         13    1    3    3    0    0  0.23013288720E+02 -0.36229606731E+02  0.39447086634E+01  0.43101700524E+02  0.00000000000E+00 0. -1.
        -13    1    3    3    0    0 -0.21818040479E+02 -0.13872982060E+03 -0.12847623548E+03  0.19033689368E+03  0.00000000000E+00 0.  1.
          4    1    6    6  502    0  0.31026770020E+03  0.47553762647E+01  0.41848010557E+03  0.52097433540E+03  0.00000000000E+00 0. -1.
          1    1    5    5  503    0 -0.23429928796E+03  0.10533229418E+03  0.17109010196E+04  0.17300790004E+04  0.00000000000E+00 0. -1.
         -2    1    5    5    0  503 -0.10076684732E+03  0.58156186536E+02  0.49068274896E+03  0.50428727891E+03  0.00000000000E+00 0.  1.
         -3    1    6    6    0  502  0.23603186829E+02  0.67155703511E+01  0.62347617658E+01  0.25319588620E+02  0.00000000000E+00 0.  1.
<mgrwt>
<rscale>  0 0.16810571E+04</rscale>
<asrwt>0</asrwt>
<pdfrwt beam="1">  1        2 0.42429736E+00 0.16810571E+04</pdfrwt>
<pdfrwt beam="2">  1       -2 0.39410132E-01 0.16810571E+04</pdfrwt>
<totfact> 0.14271195E+01</totfact>
</mgrwt>
</event>
<event>
12    1  0.4612066E-007  0.2414575E+04  0.7818608E-02  0.8434067E-01
          1   -1    0    0  501    0  0.00000000000E+00  0.00000000000E+00  0.48573247922E+03  0.48573247922E+03  0.00000000000E+00 0. -1.
         -1   -1    0    0    0  501 -0.00000000000E+00 -0.00000000000E+00 -0.30007128146E+04  0.30007128146E+04  0.00000000000E+00 0.  1.
         23    2    1    2    0    0  0.43746763589E+03  0.88788863225E+03 -0.68481410528E+03  0.12068844030E+04  0.88743719265E+02 0.  0.
        254    2    1    2    0    0 -0.43746763589E+03 -0.88788863225E+03 -0.18301662301E+04  0.22795608908E+04  0.93121709035E+03 0.  0.
        -24    2    4    4    0    0  0.22878523960E+03  0.34917323870E+01 -0.35705761535E+03  0.43164182125E+03  0.80434091736E+02 0.  0.
         24    2    4    4    0    0 -0.66625287549E+03 -0.89138036464E+03 -0.14731086147E+04  0.18479190696E+04  0.79398036663E+02 0.  0.
         13    1    3    3    0    0  0.38220121827E+03  0.75007236168E+03 -0.54442246537E+03  0.10025378496E+04  0.00000000000E+00 0. -1.
        -13    1    3    3    0    0  0.55266417625E+02  0.13781627058E+03 -0.14039163991E+03  0.20434655346E+03  0.00000000000E+00 0.  1.
          4    1    6    6  502    0 -0.45035357878E+03 -0.63880795737E+03 -0.10809435284E+04  0.13339163631E+04  0.00000000000E+00 0. -1.
          1    1    5    5  503    0  0.21175932938E+03  0.46626656669E+01 -0.27123987999E+03  0.34414361323E+03  0.00000000000E+00 0. -1.
         -2    1    5    5    0  503  0.17025910226E+02 -0.11709332799E+01 -0.85817735361E+02  0.87498208017E+02  0.00000000000E+00 0.  1.
         -3    1    6    6    0  502 -0.21589929672E+03 -0.25257240727E+03 -0.39216508638E+03  0.51400270643E+03  0.00000000000E+00 0.  1.
<mgrwt>
<rscale>  0 0.24145755E+04</rscale>
<asrwt>0</asrwt>
<pdfrwt beam="1">  1        1 0.74728073E-01 0.24145755E+04</pdfrwt>
<pdfrwt beam="2">  1       -1 0.46164813E+00 0.24145755E+04</pdfrwt>
<totfact> 0.11095709E-01</totfact>
</mgrwt>
</event>
<event>
12    1  0.4612066E-007  0.3690814E+04  0.7818608E-02  0.8070001E-01
         -2   -1    0    0    0  501 -0.00000000000E+00  0.00000000000E+00  0.12745883488E+04  0.12745883488E+04  0.00000000000E+00 0.  1.
          2   -1    0    0  501    0  0.00000000000E+00 -0.00000000000E+00 -0.26718648652E+04  0.26718648652E+04  0.00000000000E+00 0. -1.
         23    2    1    2    0    0  0.26254090950E+03  0.16730083682E+04 -0.10497750279E+04  0.19944862410E+04  0.89794359143E+02 0.  0.
        254    2    1    2    0    0 -0.26254090950E+03 -0.16730083682E+04 -0.34750148847E+03  0.19519669731E+04  0.90638460394E+03 0.  0.
        -24    2    4    4    0    0 -0.18034027445E+03 -0.90455660846E+03  0.26466599192E+03  0.96285734968E+03  0.79378309671E+02 0.  0.
         24    2    4    4    0    0 -0.82200635054E+02 -0.76845175974E+03 -0.61216748039E+03  0.98910962340E+03  0.79459244927E+02 0.  0.
         11    1    3    3    0    0  0.25696906812E+03  0.14808439976E+04 -0.94783433045E+03  0.17768854677E+04  0.00000000000E+00 0. -1.
        -11    1    3    3    0    0  0.55718413757E+01  0.19216437058E+03 -0.10194069750E+03  0.21760077330E+03  0.00000000000E+00 0.  1.
          4    1    6    6  502    0 -0.33771951810E+02 -0.11443882189E+03 -0.11946419789E+03  0.16884455355E+03  0.00000000000E+00 0. -1.
          1    1    5    5  503    0 -0.12269566179E+03 -0.49369675413E+03  0.11294662970E+03  0.52110234275E+03  0.00000000000E+00 0. -1.
         -2    1    5    5    0  503 -0.57644612661E+02 -0.41085985434E+03  0.15171936223E+03  0.44175500693E+03  0.00000000000E+00 0.  1.
         -3    1    6    6    0  502 -0.48428683244E+02 -0.65401293785E+03 -0.49270328250E+03  0.82026506985E+03  0.00000000000E+00 0.  1.
<mgrwt>
<rscale>  0 0.36908145E+04</rscale>
<asrwt>0</asrwt>
<pdfrwt beam="1">  1        2 0.41105613E+00 0.36908145E+04</pdfrwt>
<pdfrwt beam="2">  1       -2 0.19609052E+00 0.36908145E+04</pdfrwt>
<totfact> 0.31507172E-01</totfact>
</mgrwt>
</event>
<event>
12    1  0.4612066E-007  0.1358910E+04  0.7818608E-02  0.8984110E-01
          1   -1    0    0  501    0  0.00000000000E+00  0.00000000000E+00  0.10932004450E+04  0.10932004450E+04  0.00000000000E+00 0. -1.
         -1   -1    0    0    0  501 -0.00000000000E+00 -0.00000000000E+00 -0.42230076093E+03  0.42230076093E+03  0.00000000000E+00 0.  1.
         23    2    1    2    0    0 -0.34795170552E+03 -0.63744662814E+02  0.53690144327E+02  0.36929297072E+03  0.91437930945E+02 0.  0.
        254    2    1    2    0    0  0.34795170552E+03  0.63744662814E+02  0.61720953970E+03  0.11462082352E+04  0.89872795163E+03 0.  0.
        -24    2    4    4    0    0  0.43905576054E+03  0.40054304439E+03  0.31256332819E+03  0.67617826736E+03  0.79476561589E+02 0.  0.
         24    2    4    4    0    0 -0.91104055024E+02 -0.33679838158E+03  0.30464621151E+03  0.47002996780E+03  0.79910936482E+02 0.  0.
         13    1    3    3    0    0 -0.16679651399E+03  0.84290999554E+00  0.58914403470E+02  0.17689741240E+03  0.00000000000E+00 0. -1.
        -13    1    3    3    0    0 -0.18115519153E+03 -0.64587572810E+02 -0.52242591431E+01  0.19239555832E+03  0.00000000000E+00 0.  1.
          2    1    6    6  502    0  0.22698679653E+01 -0.47501888726E+02  0.75982574081E+02  0.89637789448E+02  0.00000000000E+00 0. -1.
          1    1    5    5  503    0  0.27179891500E+02  0.33720685588E+02  0.23358147133E+01  0.43373807406E+02  0.00000000000E+00 0. -1.
         -2    1    5    5    0  503  0.41187586904E+03  0.36682235880E+03  0.31022751348E+03  0.63280445995E+03  0.00000000000E+00 0.  1.
         -1    1    6    6    0  502 -0.93373922989E+02 -0.28929649285E+03  0.22866363743E+03  0.38039217835E+03  0.00000000000E+00 0.  1.
<mgrwt>
<rscale>  0 0.13589104E+04</rscale>
<asrwt>0</asrwt>
<pdfrwt beam="1">  1        1 0.16818468E+00 0.13589104E+04</pdfrwt>
<pdfrwt beam="2">  1       -1 0.64969348E-01 0.13589104E+04</pdfrwt>
<totfact> 0.30144856E+01</totfact>
</mgrwt>
</event>
<event>
12    1  0.4612066E-007  0.2516014E+04  0.7818608E-02  0.8397303E-01
         -1   -1    0    0    0  501 -0.00000000000E+00  0.00000000000E+00  0.93031759864E+03  0.93031759864E+03  0.00000000000E+00 0.  1.
          1   -1    0    0  501    0  0.00000000000E+00 -0.00000000000E+00 -0.17011197697E+04  0.17011197697E+04  0.00000000000E+00 0. -1.
         23    2    1    2    0    0 -0.96231425403E+03  0.43205642316E+03 -0.64550445997E+03  0.12401061469E+04  0.92009626575E+02 0.  0.
        254    2    1    2    0    0  0.96231425403E+03 -0.43205642316E+03 -0.12529771109E+03  0.13913312215E+04  0.89854414199E+03 0.  0.
        -24    2    4    4    0    0  0.99130477956E+03 -0.34501101020E+03  0.17512362846E+03  0.10671574468E+04  0.80243179855E+02 0.  0.
         24    2    4    4    0    0 -0.28990525538E+02 -0.87045412962E+02 -0.30042133955E+03  0.32417377464E+03  0.80114295953E+02 0.  0.
         11    1    3    3    0    0 -0.49179965244E+03  0.25927746866E+03 -0.37413027630E+03  0.67012324802E+03  0.00000000000E+00 0. -1.
        -11    1    3    3    0    0 -0.47051460159E+03  0.17277895450E+03 -0.27137418367E+03  0.56998289886E+03  0.00000000000E+00 0.  1.
          2    1    6    6  502    0 -0.41327284086E+00 -0.66164530146E+02 -0.26843227380E+03  0.27646663716E+03  0.00000000000E+00 0. -1.
          3    1    5    5  503    0  0.21531638553E+03 -0.96924538269E+02  0.66177054477E+02  0.24522421278E+03  0.00000000000E+00 0. -1.
         -4    1    5    5    0  503  0.77598839403E+03 -0.24808647193E+03  0.10894657398E+03  0.82193323403E+03  0.00000000000E+00 0.  1.
         -1    1    6    6    0  502 -0.28577252697E+02 -0.20880882816E+02 -0.31989065753E+02  0.47707137481E+02  0.00000000000E+00 0.  1.
<mgrwt>
<rscale>  0 0.25160140E+04</rscale>
<asrwt>0</asrwt>
<pdfrwt beam="1">  1        1 0.26171073E+00 0.25160140E+04</pdfrwt>
<pdfrwt beam="2">  1       -1 0.14312578E+00 0.25160140E+04</pdfrwt>
<totfact> 0.16692761E+00</totfact>
</mgrwt>
</event>
<event>
12    1  0.4612066E-007  0.1945022E+04  0.7818608E-02  0.8632765E-01
         -1   -1    0    0    0  501 -0.00000000000E+00  0.00000000000E+00  0.62576847613E+03  0.62576847613E+03  0.00000000000E+00 0.  1.
          1   -1    0    0  501    0  0.00000000000E+00 -0.00000000000E+00 -0.15113862134E+04  0.15113862134E+04  0.00000000000E+00 0. -1.
         23    2    1    2    0    0 -0.74418542509E+03  0.76380118292E+02 -0.51645322828E+03  0.91360367329E+03  0.91114573273E+02 0.  0.
        254    2    1    2    0    0  0.74418542509E+03 -0.76380118292E+02 -0.36916450899E+03  0.12235510162E+04  0.89506915110E+03 0.  0.
        -24    2    4    4    0    0  0.32113550661E+02 -0.23848198226E+03 -0.41594902888E+03  0.48716343580E+03  0.80060493115E+02 0.  0.
         24    2    4    4    0    0  0.71207187443E+03  0.16210186397E+03  0.46784519883E+02  0.73638758044E+03  0.82185817899E+02 0.  0.
         13    1    3    3    0    0 -0.16306666700E+03 -0.53382634908E+01 -0.15080095064E+03  0.22217146904E+03  0.00000000000E+00 0. -1.
        -13    1    3    3    0    0 -0.58111875809E+03  0.81718381783E+02 -0.36565227764E+03  0.69143220425E+03  0.00000000000E+00 0.  1.
          4    1    6    6  502    0  0.50686316451E+03  0.77782704659E+02  0.23890135485E+02  0.51335285648E+03  0.00000000000E+00 0. -1.
          1    1    5    5  503    0 -0.93040026846E+01 -0.55376906193E+02 -0.16130132667E+03  0.17079603096E+03  0.00000000000E+00 0. -1.
         -2    1    5    5    0  503  0.41417553345E+02 -0.18310507607E+03 -0.25464770220E+03  0.31636740484E+03  0.00000000000E+00 0.  1.
         -1    1    6    6    0  502  0.20520870991E+03  0.84319159311E+02  0.22894384398E+02  0.22303472395E+03  0.00000000000E+00 0.  1.
<mgrwt>
<rscale>  0 0.19450222E+04</rscale>
<asrwt>0</asrwt>
<pdfrwt beam="1">  1        1 0.23252095E+00 0.19450222E+04</pdfrwt>
<pdfrwt beam="2">  1       -1 0.96272075E-01 0.19450222E+04</pdfrwt>
<totfact> 0.62211856E+00</totfact>
</mgrwt>
</event>
<event>
12    1  0.4612066E-007  0.1995726E+04  0.7818608E-02  0.8608621E-01
         -2   -1    0    0    0  501 -0.00000000000E+00  0.00000000000E+00  0.40412059858E+03  0.40412059858E+03  0.00000000000E+00 0.  1.
          2   -1    0    0  501    0  0.00000000000E+00 -0.00000000000E+00 -0.24639449620E+04  0.24639449620E+04  0.00000000000E+00 0. -1.
         23    2    1    2    0    0  0.53016356002E+03  0.22199314597E+03 -0.18018999711E+02  0.58261261565E+03  0.93586421736E+02 0.  0.
        254    2    1    2    0    0 -0.53016356002E+03 -0.22199314597E+03 -0.20418053637E+04  0.22854529449E+04  0.85086524375E+03 0.  0.
        -24    2    4    4    0    0  0.16179310005E+03 -0.17454405363E+03 -0.21639864837E+03  0.33096318470E+03  0.77882095035E+02 0.  0.
         24    2    4    4    0    0 -0.69195666008E+03 -0.47449092339E+02 -0.18254067153E+04  0.19544897602E+04  0.82855963452E+02 0.  0.
         13    1    3    3    0    0  0.81071281418E+02  0.43777612436E+02 -0.36489691510E+02  0.99098585297E+02  0.00000000000E+00 0. -1.
        -13    1    3    3    0    0  0.44909227860E+03  0.17821553353E+03  0.18470691799E+02  0.48351403036E+03  0.00000000000E+00 0.  1.
          4    1    6    6  502    0 -0.19276477581E+03 -0.23161627770E+02 -0.61642921764E+03  0.64628144036E+03  0.00000000000E+00 0. -1.
          3    1    5    5  503    0  0.33565170607E+02 -0.60196615155E+02 -0.23908421515E+02  0.72951119068E+02  0.00000000000E+00 0. -1.
         -4    1    5    5    0  503  0.12822792945E+03 -0.11434743848E+03 -0.19249022686E+03  0.25801206563E+03  0.00000000000E+00 0.  1.
         -3    1    6    6    0  502 -0.49919188427E+03 -0.24287464569E+02 -0.12089774977E+04  0.13082083199E+04  0.00000000000E+00 0.  1.
<mgrwt>
<rscale>  0 0.19957263E+04</rscale>
<asrwt>0</asrwt>
<pdfrwt beam="1">  1        2 0.37906846E+00 0.19957263E+04</pdfrwt>
<pdfrwt beam="2">  1       -2 0.62172399E-01 0.19957263E+04</pdfrwt>
<totfact> 0.81556492E+00</totfact>
</mgrwt>
</event>
<event>
12    1  0.4612066E-007  0.1294326E+04  0.7818608E-02  0.9034077E-01
         -2   -1    0    0    0  501 -0.00000000000E+00  0.00000000000E+00  0.62475618689E+03  0.62475618689E+03  0.00000000000E+00 0.  1.
          2   -1    0    0  501    0  0.00000000000E+00 -0.00000000000E+00 -0.67037299940E+03  0.67037299940E+03  0.00000000000E+00 0. -1.
         23    2    1    2    0    0  0.49046026438E+02 -0.13029326788E+03 -0.30616469747E+03  0.34857885134E+03  0.91589001833E+02 0.  0.
        254    2    1    2    0    0 -0.49046026438E+02  0.13029326788E+03  0.26054788497E+03  0.94655033496E+03  0.89927219899E+03 0.  0.
        -24    2    4    4    0    0 -0.29696045816E+02 -0.21178370393E+03 -0.24253314220E+03  0.33271191245E+03  0.78362613776E+02 0.  0.
         24    2    4    4    0    0 -0.19349980623E+02  0.34207697181E+03  0.50308102716E+03  0.61383842250E+03  0.79473345570E+02 0.  0.
         13    1    3    3    0    0  0.52485128223E+02 -0.77859581579E+02 -0.26703750182E+03  0.28306506408E+03  0.00000000000E+00 0. -1.
        -13    1    3    3    0    0 -0.34391017847E+01 -0.52433686304E+02 -0.39127195656E+02  0.65513787255E+02  0.00000000000E+00 0.  1.
          2    1    6    6  502    0 -0.66634011923E+01  0.10503885402E+03  0.22374804745E+03  0.24726655760E+03  0.00000000000E+00 0. -1.
          3    1    5    5  503    0 -0.36208097083E+01 -0.14604974780E+03 -0.11138329295E+03  0.18371139607E+03  0.00000000000E+00 0. -1.
         -4    1    5    5    0  503 -0.26075236107E+02 -0.65733956126E+02 -0.13114984925E+03  0.14900051639E+03  0.00000000000E+00 0.  1.
         -1    1    6    6    0  502 -0.12686579430E+02  0.23703811779E+03  0.27933297971E+03  0.36657186490E+03  0.00000000000E+00 0.  1.
<mgrwt>
<rscale>  0 0.12943256E+04</rscale>
<asrwt>0</asrwt>
<pdfrwt beam="1">  1        2 0.10313431E+00 0.12943256E+04</pdfrwt>
<pdfrwt beam="2">  1       -2 0.96116337E-01 0.12943256E+04</pdfrwt>
<totfact> 0.38485839E+01</totfact>
</mgrwt>
</event>
<event>
12    1  0.4612066E-007  0.1401529E+04  0.7818608E-02  0.8952713E-01
         -1   -1    0    0    0  501 -0.00000000000E+00  0.00000000000E+00  0.14806720911E+04  0.14806720911E+04  0.00000000000E+00 0.  1.
          1   -1    0    0  501    0  0.00000000000E+00 -0.00000000000E+00 -0.33165402088E+03  0.33165402088E+03  0.00000000000E+00 0. -1.
         23    2    1    2    0    0  0.32460590767E+03  0.73716444839E+02  0.63853950435E+03  0.72623257932E+03  0.94222880031E+02 0.  0.
        254    2    1    2    0    0 -0.32460590767E+03 -0.73716444839E+02  0.51047856587E+03  0.10860935327E+04  0.89900371853E+03 0.  0.
        -24    2    4    4    0    0  0.16623842281E+03 -0.21117748318E+03 -0.90125547003E+02  0.29462394279E+03  0.80308846473E+02 0.  0.
         24    2    4    4    0    0 -0.49084433048E+03  0.13746103834E+03  0.60060411287E+03  0.79146958986E+03  0.76649314733E+02 0.  0.
         13    1    3    3    0    0  0.36000491467E+02 -0.21331842875E+02  0.86646857816E+02  0.96222455153E+02  0.00000000000E+00 0. -1.
        -13    1    3    3    0    0  0.28860541620E+03  0.95048287714E+02  0.55189264654E+03  0.63001012417E+03  0.00000000000E+00 0.  1.
          2    1    6    6  502    0 -0.10924137624E+03  0.64656356060E+02  0.14411264683E+03  0.19204837317E+03  0.00000000000E+00 0. -1.
          3    1    5    5  503    0  0.83626612588E+02 -0.16711770350E+03 -0.59824925320E+02  0.19621610241E+03  0.00000000000E+00 0. -1.
         -4    1    5    5    0  503  0.82611810224E+02 -0.44059779683E+02 -0.30300621682E+02  0.98407840382E+02  0.00000000000E+00 0.  1.
         -1    1    6    6    0  502 -0.38160295424E+03  0.72804682284E+02  0.45649146604E+03  0.59942121669E+03  0.00000000000E+00 0.  1.
<mgrwt>
<rscale>  0 0.14015290E+04</rscale>
<asrwt>0</asrwt>
<pdfrwt beam="1">  1        1 0.51023696E-01 0.14015290E+04</pdfrwt>
<pdfrwt beam="2">  1       -1 0.22779570E+00 0.14015290E+04</pdfrwt>
<totfact> 0.73199318E+00</totfact>
</mgrwt>
</event>
<event>
12    1  0.4612066E-007  0.2482121E+04  0.7818608E-02  0.8409383E-01
          1   -1    0    0  501    0  0.00000000000E+00  0.00000000000E+00  0.85903940110E+03  0.85903940110E+03  0.00000000000E+00 0. -1.
         -1   -1    0    0    0  501 -0.00000000000E+00 -0.00000000000E+00 -0.17929693726E+04  0.17929693726E+04  0.00000000000E+00 0.  1.
         23    2    1    2    0    0  0.65190121770E+03 -0.71851954058E+03  0.86866360088E+02  0.97826524764E+03  0.90617892248E+02 0.  0.
        254    2    1    2    0    0 -0.65190121770E+03  0.71851954058E+03 -0.10207963316E+04  0.16737435260E+04  0.90451462819E+03 0.  0.
        -24    2    4    4    0    0  0.19316365346E+03  0.23963924026E+03 -0.43029404978E+03  0.53441619108E+03  0.75554837908E+02 0.  0.
         24    2    4    4    0    0 -0.84506487116E+03  0.47888030033E+03 -0.59050228179E+03  0.11393273350E+04  0.76895077064E+02 0.  0.
         11    1    3    3    0    0  0.47589999113E+03 -0.56007956226E+03  0.96425523334E+02  0.74126095214E+03  0.00000000000E+00 0. -1.
        -11    1    3    3    0    0  0.17600122657E+03 -0.15843997832E+03 -0.95591632460E+01  0.23700429550E+03  0.00000000000E+00 0.  1.
          2    1    6    6  502    0 -0.71955328128E+03  0.38822808036E+03 -0.52194205220E+03  0.97000075919E+03  0.00000000000E+00 0. -1.
          1    1    5    5  503    0  0.40918277954E+01  0.18897210163E+02 -0.63785399124E+02  0.66651517223E+02  0.00000000000E+00 0. -1.
         -2    1    5    5    0  503  0.18907182567E+03  0.22074203009E+03 -0.36650865065E+03  0.46776467386E+03  0.00000000000E+00 0.  1.
         -1    1    6    6    0  502 -0.12551158988E+03  0.90652219966E+02 -0.68560229586E+02  0.16932657576E+03  0.00000000000E+00 0.  1.
<mgrwt>
<rscale>  0 0.24821211E+04</rscale>
<asrwt>0</asrwt>
<pdfrwt beam="1">  1        1 0.13215991E+00 0.24821211E+04</pdfrwt>
<pdfrwt beam="2">  1       -1 0.27584144E+00 0.24821211E+04</pdfrwt>
<totfact> 0.82920011E-01</totfact>
</mgrwt>
</event>
<event>
12    1  0.4612066E-007  0.1835157E+04  0.7818608E-02  0.8687824E-01
          1   -1    0    0  501    0  0.00000000000E+00  0.00000000000E+00  0.12682589023E+04  0.12682589023E+04  0.00000000000E+00 0. -1.
         -1   -1    0    0    0  501 -0.00000000000E+00 -0.00000000000E+00 -0.66386311286E+03  0.66386311286E+03  0.00000000000E+00 0.  1.
         23    2    1    2    0    0  0.59753997761E+03  0.34963875524E+03  0.18353768284E+03  0.72339743195E+03  0.10157007197E+03 0.  0.
        254    2    1    2    0    0 -0.59753997761E+03 -0.34963875524E+03  0.42085810663E+03  0.12087245832E+04  0.89699068458E+03 0.  0.
        -24    2    4    4    0    0 -0.37137984166E+03  0.24144756714E+03  0.11005613010E+02  0.45030251994E+03  0.80195520297E+02 0.  0.
         24    2    4    4    0    0 -0.22616013595E+03 -0.59108632238E+03  0.40985249362E+03  0.75842206330E+03  0.81813886232E+02 0.  0.
         13    1    3    3    0    0  0.68000524959E+02  0.32445552191E+02  0.53956076349E+02  0.92671697010E+02  0.00000000000E+00 0. -1.
        -13    1    3    3    0    0  0.52953945265E+03  0.31719320305E+03  0.12958160649E+03  0.63072573494E+03  0.00000000000E+00 0.  1.
          4    1    6    6  502    0 -0.17605520203E+03 -0.40313296695E+03  0.24549819056E+03  0.50376679602E+03  0.00000000000E+00 0. -1.
          1    1    5    5  503    0 -0.10400665261E+03  0.10982302018E+03  0.17133808487E+02  0.15222367405E+03  0.00000000000E+00 0. -1.
         -2    1    5    5    0  503 -0.26737318905E+03  0.13162454696E+03 -0.61281954770E+01  0.29807884589E+03  0.00000000000E+00 0.  1.
         -3    1    6    6    0  502 -0.50104933916E+02 -0.18795335543E+03  0.16435430306E+03  0.25465526728E+03  0.00000000000E+00 0.  1.
<mgrwt>
<rscale>  0 0.18351570E+04</rscale>
<asrwt>0</asrwt>
<pdfrwt beam="1">  1        1 0.19511675E+00 0.18351570E+04</pdfrwt>
<pdfrwt beam="2">  1       -1 0.10213279E+00 0.18351570E+04</pdfrwt>
<totfact> 0.81430715E+00</totfact>
</mgrwt>
</event>
<event>
12    1  0.4612066E-007  0.1977271E+04  0.7818608E-02  0.8617321E-01
         -2   -1    0    0    0  501 -0.00000000000E+00  0.00000000000E+00  0.56544516393E+03  0.56544516393E+03  0.00000000000E+00 0.  1.
          2   -1    0    0  501    0  0.00000000000E+00 -0.00000000000E+00 -0.17285502483E+04  0.17285502483E+04  0.00000000000E+00 0. -1.
         23    2    1    2    0    0 -0.13262493764E+03  0.76783588208E+03 -0.54482588355E+03  0.95390760918E+03  0.77091942342E+02 0.  0.
        254    2    1    2    0    0  0.13262493764E+03 -0.76783588208E+03 -0.61827920083E+03  0.13400878031E+04  0.89800046428E+03 0.  0.
        -24    2    4    4    0    0  0.48156829430E+03 -0.44458358008E+03 -0.53674034950E+03  0.85097808247E+03  0.80690224352E+02 0.  0.
         24    2    4    4    0    0 -0.34894335667E+03 -0.32325230200E+03 -0.81538851336E+02  0.48910972060E+03  0.79537523194E+02 0.  0.
         13    1    3    3    0    0 -0.15206332199E+02  0.13464217206E+03 -0.61935233458E+02  0.14898228143E+03  0.00000000000E+00 0.  1.
        -13    1    3    3    0    0 -0.11741860544E+03  0.63319371002E+03 -0.48289065009E+03  0.80492532775E+03  0.00000000000E+00 0. -1.
          4    1    6    6  502    0 -0.52831507699E+02 -0.67371581574E+02  0.12745421669E+02  0.86559482340E+02  0.00000000000E+00 0. -1.
          3    1    5    5  503    0  0.16465403807E+03 -0.12063254988E+03 -0.12975109916E+03  0.24186465653E+03  0.00000000000E+00 0. -1.
         -4    1    5    5    0  503  0.31691425623E+03 -0.32395103020E+03 -0.40698925033E+03  0.60911342594E+03  0.00000000000E+00 0.  1.
         -3    1    6    6    0  502 -0.29611184897E+03 -0.25588072043E+03 -0.94284273005E+02  0.40255023826E+03  0.00000000000E+00 0.  1.
<mgrwt>
<rscale>  0 0.19772712E+04</rscale>
<asrwt>0</asrwt>
<pdfrwt beam="1">  1        2 0.26593081E+00 0.19772712E+04</pdfrwt>
<pdfrwt beam="2">  1       -2 0.86991564E-01 0.19772712E+04</pdfrwt>
<totfact> 0.10056332E+01</totfact>
</mgrwt>
</event>
<event>
12    1  0.5112619E-007  0.1803688E+04  0.7818608E-02  0.8704341E-01
         -1   -1    0    0    0  501 -0.00000000000E+00  0.00000000000E+00  0.67024042338E+03  0.67024042338E+03  0.00000000000E+00 0.  1.
          1   -1    0    0  501    0  0.00000000000E+00 -0.00000000000E+00 -0.12134785419E+04  0.12134785419E+04  0.00000000000E+00 0. -1.
         23    2    1    2    0    0 -0.51247395082E+03  0.37972034464E+03  0.17244849991E+02  0.64475441573E+03  0.92702650175E+02 0.  0.
        254    2    1    2    0    0  0.51247395082E+03 -0.37972034464E+03 -0.56048296846E+03  0.12389645495E+04  0.90226099694E+03 0.  0.
        -24    2    4    4    0    0  0.13856131119E+03 -0.62720326339E+03 -0.36821533739E+03  0.74487622228E+03  0.81699946512E+02 0.  0.
         24    2    4    4    0    0  0.37391263963E+03  0.24748291875E+03 -0.19226763107E+03  0.49408832723E+03  0.78089538370E+02 0.  0.
         13    1    3    3    0    0 -0.26275808412E+03  0.21567395697E+03 -0.33922315172E+02  0.34162521856E+03  0.00000000000E+00 0. -1.
        -13    1    3    3    0    0 -0.24971586670E+03  0.16404638766E+03  0.51167165163E+02  0.30312919717E+03  0.00000000000E+00 0.  1.
          4    1    6    6  502    0  0.77627723559E+02  0.23723902226E+02 -0.14565265684E+02  0.82468381615E+02  0.00000000000E+00 0. -1.
          1    1    5    5  503    0  0.47060942879E+01 -0.47337855687E+01  0.35776709878E+01  0.75733598194E+01  0.00000000000E+00 0. -1.
         -2    1    5    5    0  503  0.13385521690E+03 -0.62246947782E+03 -0.37179300838E+03  0.73730286246E+03  0.00000000000E+00 0.  1.
         -3    1    6    6    0  502  0.29628491607E+03  0.22375901652E+03 -0.17770236539E+03  0.41161994562E+03  0.00000000000E+00 0.  1.
<mgrwt>
<rscale>  0 0.18036877E+04</rscale>
<asrwt>0</asrwt>
<pdfrwt beam="1">  1        1 0.18668900E+00 0.18036877E+04</pdfrwt>
<pdfrwt beam="2">  1       -1 0.10311391E+00 0.18036877E+04</pdfrwt>
<totfact> 0.87512717E+00</totfact>
</mgrwt>
</event>
<event>
12    1  0.4612066E-007  0.1674005E+04  0.7818608E-02  0.8776331E-01
          1   -1    0    0  501    0  0.00000000000E+00  0.00000000000E+00  0.12369455027E+04  0.12369455027E+04  0.00000000000E+00 0. -1.
         -1   -1    0    0    0  501 -0.00000000000E+00 -0.00000000000E+00 -0.56637341914E+03  0.56637341914E+03  0.00000000000E+00 0.  1.
         23    2    1    2    0    0  0.14903157297E+02 -0.13844222088E+03  0.94366730181E+03  0.95831347699E+03  0.92023861387E+02 0.  0.
        254    2    1    2    0    0 -0.14903157297E+02  0.13844222088E+03 -0.27309521826E+03  0.84500544484E+03  0.78744196672E+03 0.  0.
        -24    2    4    4    0    0  0.22579755008E+03  0.33631456850E+03 -0.31691373900E+03  0.52050788805E+03  0.80013254822E+02 0.  0.
         24    2    4    4    0    0 -0.24070070737E+03 -0.19787234761E+03  0.43818520740E+02  0.32449755680E+03  0.79298834332E+02 0.  0.
         13    1    3    3    0    0 -0.20494883555E+02 -0.57967446223E+02  0.61586436175E+03  0.61892582523E+03  0.00000000000E+00 0. -1.
        -13    1    3    3    0    0  0.35398040853E+02 -0.80474774660E+02  0.32780294006E+03  0.33938765176E+03  0.00000000000E+00 0.  1.
          4    1    6    6  502    0 -0.12243616020E+03 -0.91860521081E+02  0.60946818289E+02  0.16475279457E+03  0.00000000000E+00 0. -1.
          1    1    5    5  503    0  0.16647135814E+03  0.18224338289E+03 -0.20731488911E+03  0.32234271658E+03  0.00000000000E+00 0. -1.
         -2    1    5    5    0  503  0.59326191939E+02  0.15407118560E+03 -0.10959884990E+03  0.19816517146E+03  0.00000000000E+00 0.  1.
         -3    1    6    6    0  502 -0.11826454717E+03 -0.10601182653E+03 -0.17128297549E+02  0.15974476223E+03  0.00000000000E+00 0.  1.
<mgrwt>
<rscale>  0 0.16740048E+04</rscale>
<asrwt>0</asrwt>
<pdfrwt beam="1">  1        1 0.19029931E+00 0.16740048E+04</pdfrwt>
<pdfrwt beam="2">  1       -1 0.87134372E-01 0.16740048E+04</pdfrwt>
<totfact> 0.12424032E+01</totfact>
</mgrwt>
</event>
<event>
12    1  0.4612066E-007  0.4007233E+04  0.7818608E-02  0.8003089E-01
         -2   -1    0    0    0  501 -0.00000000000E+00  0.00000000000E+00  0.88163199404E+03  0.88163199404E+03  0.00000000000E+00 0.  1.
          2   -1    0    0  501    0  0.00000000000E+00 -0.00000000000E+00 -0.45534631304E+04  0.45534631304E+04  0.00000000000E+00 0. -1.
         23    2    1    2    0    0 -0.17787975334E+04 -0.81616464083E+02 -0.26493182951E+04  0.31934476056E+04  0.91860049907E+02 0.  0.
        254    2    1    2    0    0  0.17787975334E+04  0.81616464083E+02 -0.10225128413E+04  0.22416475188E+04  0.89926034947E+03 0.  0.
        -24    2    4    4    0    0  0.14067352935E+04  0.29572719497E+03 -0.10813811583E+04  0.18006215988E+04  0.80586431262E+02 0.  0.
         24    2    4    4    0    0  0.37206223996E+03 -0.21411073089E+03  0.58868317053E+02  0.44102592003E+03  0.82247601150E+02 0.  0.
         13    1    3    3    0    0 -0.83238437162E+03 -0.76401125972E+02 -0.12880384980E+04  0.15354947237E+04  0.00000000000E+00 0. -1.
        -13    1    3    3    0    0 -0.94641316179E+03 -0.52153381114E+01 -0.13612797971E+04  0.16579528819E+04  0.00000000000E+00 0.  1.
          4    1    6    6  502    0  0.23591048857E+03 -0.17633911757E+03  0.55351105088E+02  0.29968815098E+03  0.00000000000E+00 0. -1.
          1    1    5    5  503    0  0.92728486775E+03  0.16541942525E+03 -0.73921112150E+03  0.11973528696E+04  0.00000000000E+00 0. -1.
         -2    1    5    5    0  503  0.47945042570E+03  0.13030776973E+03 -0.34217003681E+03  0.60326872921E+03  0.00000000000E+00 0.  1.
         -3    1    6    6    0  502  0.13615175139E+03 -0.37771613325E+02  0.35172119648E+01  0.14133776905E+03  0.00000000000E+00 0.  1.
<mgrwt>
<rscale>  0 0.40072329E+04</rscale>
<asrwt>0</asrwt>
<pdfrwt beam="1">  1        2 0.70053280E+00 0.40072329E+04</pdfrwt>
<pdfrwt beam="2">  1       -2 0.13563569E+00 0.40072329E+04</pdfrwt>
<totfact> 0.33225538E-02</totfact>
</mgrwt>
</event>
<event>
12    1  0.4612066E-007  0.2229036E+04  0.7818608E-02  0.8506439E-01
         -2   -1    0    0    0  501 -0.00000000000E+00  0.00000000000E+00  0.96305628843E+03  0.96305628843E+03  0.00000000000E+00 0.  1.
          2   -1    0    0  501    0  0.00000000000E+00 -0.00000000000E+00 -0.12898008812E+04  0.12898008812E+04  0.00000000000E+00 0. -1.
         23    2    1    2    0    0 -0.72299635463E+03  0.22327828963E+03  0.40619817455E+03  0.86366527251E+03  0.91344526388E+02 0.  0.
        254    2    1    2    0    0  0.72299635463E+03 -0.22327828963E+03 -0.73294276734E+03  0.13891918971E+04  0.90557832542E+03 0.  0.
        -24    2    4    4    0    0  0.18707048696E+03 -0.31218926921E+03  0.10632292380E+03  0.38631060255E+03  0.73985205357E+02 0.  0.
         24    2    4    4    0    0  0.53592586767E+03  0.88910979576E+02 -0.83926569114E+03  0.10028812946E+04  0.79260916031E+02 0.  0.
         11    1    3    3    0    0 -0.39494189045E+03  0.11910158121E+03  0.16971963144E+03  0.44605945431E+03  0.00000000000E+00 0. -1.
        -11    1    3    3    0    0 -0.32805446418E+03  0.10417670842E+03  0.23647854311E+03  0.41760581821E+03  0.00000000000E+00 0.  1.
          4    1    6    6  502    0  0.97753967295E+02  0.15160510164E+02 -0.21461525181E+03  0.23631628277E+03  0.00000000000E+00 0. -1.
          1    1    5    5  503    0  0.51375127703E+02 -0.56975199488E+02 -0.42548356302E+01  0.76835413251E+02  0.00000000000E+00 0. -1.
         -2    1    5    5    0  503  0.13569535926E+03 -0.25521406972E+03  0.11057775943E+03  0.30947518929E+03  0.00000000000E+00 0.  1.
         -3    1    6    6    0  502  0.43817190037E+03  0.73750469412E+02 -0.62465043933E+03  0.76656501183E+03  0.00000000000E+00 0.  1.
<mgrwt>
<rscale>  0 0.22290364E+04</rscale>
<asrwt>0</asrwt>
<pdfrwt beam="1">  1        2 0.19843090E+00 0.22290364E+04</pdfrwt>
<pdfrwt beam="2">  1       -2 0.14816251E+00 0.22290364E+04</pdfrwt>
<totfact> 0.47316335E+00</totfact>
</mgrwt>
</event>
<event>
12    1  0.4612066E-007  0.1196897E+04  0.7818608E-02  0.9115577E-01
          1   -1    0    0  501    0  0.00000000000E+00  0.00000000000E+00  0.98231588195E+03  0.98231588195E+03  0.00000000000E+00 0. -1.
         -1   -1    0    0    0  501 -0.00000000000E+00 -0.00000000000E+00 -0.36458776823E+03  0.36458776823E+03  0.00000000000E+00 0.  1.
         23    2    1    2    0    0  0.24277040435E+03 -0.40288939012E+02  0.96405431070E+02  0.27900192771E+03  0.89372259080E+02 0.  0.
        254    2    1    2    0    0 -0.24277040435E+03  0.40288939012E+02  0.52132268265E+03  0.10679017225E+04  0.89893052100E+03 0.  0.
        -24    2    4    4    0    0  0.31144985911E+03 -0.56259668455E+01  0.32522445947E+02  0.32312310024E+03  0.79486867953E+02 0.  0.
         24    2    4    4    0    0 -0.55422026345E+03  0.45914905858E+02  0.48880023670E+03  0.74477862224E+03  0.80630302843E+02 0.  0.
         13    1    3    3    0    0  0.41136325168E+02  0.84679115847E+01 -0.13661945433E+02  0.44165048715E+02  0.00000000000E+00 0.  1.
        -13    1    3    3    0    0  0.20163407918E+03 -0.48756850597E+02  0.11006737650E+03  0.23483687900E+03  0.00000000000E+00 0. -1.
          4    1    6    6  502    0 -0.42680537504E+02 -0.13483761865E+02  0.58702659031E+02  0.73820337936E+02  0.00000000000E+00 0. -1.
          1    1    5    5  503    0  0.22275329946E+03 -0.71973290994E+01  0.58997596286E+02  0.23054620000E+03  0.00000000000E+00 0. -1.
         -2    1    5    5    0  503  0.88696559646E+02  0.15713622539E+01 -0.26475150339E+02  0.92576900239E+02  0.00000000000E+00 0.  1.
         -3    1    6    6    0  502 -0.51153972595E+03  0.59398667723E+02  0.43009757767E+03  0.67095828430E+03  0.00000000000E+00 0.  1.
<mgrwt>
<rscale>  0 0.11968966E+04</rscale>
<asrwt>0</asrwt>
<pdfrwt beam="1">  1        1 0.15112552E+00 0.11968966E+04</pdfrwt>
<pdfrwt beam="2">  1       -1 0.56090426E-01 0.11968966E+04</pdfrwt>
<totfact> 0.49729319E+01</totfact>
</mgrwt>
</event>
<event>
12    1  0.4612066E-007  0.1694551E+04  0.7818608E-02  0.8764478E-01
          2   -1    0    0  501    0  0.00000000000E+00  0.00000000000E+00  0.20594094030E+04  0.20594094030E+04  0.00000000000E+00 0. -1.
         -2   -1    0    0    0  501 -0.00000000000E+00 -0.00000000000E+00 -0.34858321643E+03  0.34858321643E+03  0.00000000000E+00 0.  1.
         23    2    1    2    0    0 -0.41592388514E+03 -0.23742288049E+03  0.85923508550E+02  0.49526019135E+03  0.92398622323E+02 0.  0.
        254    2    1    2    0    0  0.41592388514E+03  0.23742288049E+03  0.16249026780E+04  0.19127324280E+04  0.88818597485E+03 0.  0.
        -24    2    4    4    0    0 -0.15633704362E+02 -0.18829987670E+03  0.32534460992E+02  0.20708169075E+03  0.78250106796E+02 0.  0.
         24    2    4    4    0    0  0.43155758950E+03  0.42572275719E+03  0.15923682170E+04  0.17056507373E+04  0.78269279127E+02 0.  0.
         11    1    3    3    0    0 -0.15551019070E+03 -0.13430133730E+03  0.59561638130E+02  0.21393423604E+03  0.00000000000E+00 0. -1.
        -11    1    3    3    0    0 -0.26041369444E+03 -0.10312154319E+03  0.26361870419E+02  0.28132595532E+03  0.00000000000E+00 0.  1.
          2    1    6    6  502    0  0.34033513985E+03  0.33104099578E+03  0.13295907166E+04  0.14118171348E+04  0.00000000000E+00 0. -1.
          3    1    5    5  503    0 -0.24675998295E+02 -0.14780672839E+03 -0.66674455778E+01  0.15000062893E+03  0.00000000000E+00 0. -1.
         -4    1    5    5    0  503  0.90422939330E+01 -0.40493148319E+02  0.39201906570E+02  0.57081061825E+02  0.00000000000E+00 0.  1.
         -1    1    6    6    0  502  0.91222449653E+02  0.94681761410E+02  0.26277750039E+03  0.29383360253E+03  0.00000000000E+00 0.  1.
<mgrwt>
<rscale>  0 0.16945507E+04</rscale>
<asrwt>0</asrwt>
<pdfrwt beam="1">  1        2 0.31683221E+00 0.16945507E+04</pdfrwt>
<pdfrwt beam="2">  1       -2 0.53628188E-01 0.16945507E+04</pdfrwt>
<totfact> 0.19312986E+01</totfact>
</mgrwt>
</event>
<event>
12    1  0.4612066E-007  0.1415951E+04  0.7818608E-02  0.8942353E-01
          4   -1    0    0  501    0  0.00000000000E+00  0.00000000000E+00  0.25639827460E+04  0.25639827460E+04  0.00000000000E+00 0. -1.
         -4   -1    0    0    0  501 -0.00000000000E+00 -0.00000000000E+00 -0.19548860511E+03  0.19548860511E+03  0.00000000000E+00 0.  1.
         23    2    1    2    0    0  0.82744346217E+01  0.40038597611E+03  0.49995539539E+03  0.64721777237E+03  0.92509736519E+02 0.  0.
        254    2    1    2    0    0 -0.82744346217E+01 -0.40038597611E+03  0.18685387455E+04  0.21122535787E+04  0.89988929391E+03 0.  0.
        -24    2    4    4    0    0 -0.35187835843E+03  0.97713198265E+02  0.69082245953E+03  0.78575930030E+03  0.82557611243E+02 0.  0.
         24    2    4    4    0    0  0.34360392381E+03 -0.49809917438E+03  0.11777162859E+04  0.13264942784E+04  0.80031097026E+02 0.  0.
         13    1    3    3    0    0 -0.23332767977E+02  0.12328631418E+03  0.21194786561E+03  0.24630434641E+03  0.00000000000E+00 0. -1.
        -13    1    3    3    0    0  0.31607202599E+02  0.27709966193E+03  0.28800752978E+03  0.40091342595E+03  0.00000000000E+00 0.  1.
          2    1    6    6  502    0  0.27426574319E+03 -0.37295391536E+03  0.82774335615E+03  0.94840676111E+03  0.00000000000E+00 0. -1.
          1    1    5    5  503    0 -0.22135873437E+03  0.58107922971E+02  0.51229745952E+03  0.56109260112E+03  0.00000000000E+00 0. -1.
         -2    1    5    5    0  503 -0.13051962406E+03  0.39605275294E+02  0.17852500001E+03  0.22466669918E+03  0.00000000000E+00 0.  1.
         -1    1    6    6    0  502  0.69338180626E+02 -0.12514525902E+03  0.34997292978E+03  0.37808751728E+03  0.00000000000E+00 0.  1.
<mgrwt>
<rscale>  0 0.14159511E+04</rscale>
<asrwt>0</asrwt>
<pdfrwt beam="1">  1        4 0.39445886E+00 0.14159511E+04</pdfrwt>
<pdfrwt beam="2">  1       -4 0.30075172E-01 0.14159511E+04</pdfrwt>
<totfact> 0.15795739E-01</totfact>
</mgrwt>
</event>
<event>
12    1  0.4612066E-007  0.1917699E+04  0.7818608E-02  0.8646096E-01
          2   -1    0    0  501    0  0.00000000000E+00  0.00000000000E+00  0.66277151063E+03  0.66277151063E+03  0.00000000000E+00 0. -1.
         -2   -1    0    0    0  501 -0.00000000000E+00 -0.00000000000E+00 -0.13871942537E+04  0.13871942537E+04  0.00000000000E+00 0.  1.
         23    2    1    2    0    0  0.61552815905E+03 -0.43085975958E+03 -0.29803702604E+03  0.81291467486E+03  0.86539890837E+02 0.  0.
        254    2    1    2    0    0 -0.61552815905E+03  0.43085975958E+03 -0.42638571704E+03  0.12370510895E+04  0.88542395001E+03 0.  0.
        -24    2    4    4    0    0  0.74130556131E+02  0.38555996225E+03  0.34879896130E+02  0.40173411256E+03  0.77600684293E+02 0.  0.
         24    2    4    4    0    0 -0.68965871519E+03  0.45299797331E+02 -0.46126561317E+03  0.83531697691E+03  0.85482576891E+02 0.  0.
         11    1    3    3    0    0  0.83844091061E+02 -0.66652693402E+02 -0.75761799727E+02  0.13119551609E+03  0.00000000000E+00 0.  1.
        -11    1    3    3    0    0  0.53168406799E+03 -0.36420706618E+03 -0.22227522631E+03  0.68171915878E+03  0.00000000000E+00 0. -1.
          2    1    6    6  502    0 -0.53225431403E+03 -0.72630055112E+00 -0.36017880906E+03  0.64266939931E+03  0.00000000000E+00 0. -1.
          3    1    5    5  503    0  0.68142824121E+02  0.17611246692E+03  0.35796995381E+02  0.19219903840E+03  0.00000000000E+00 0. -1.
         -4    1    5    5    0  503  0.59877320096E+01  0.20944749532E+03 -0.91709925045E+00  0.20953507416E+03  0.00000000000E+00 0.  1.
         -1    1    6    6    0  502 -0.15740440116E+03  0.46026097882E+02 -0.10108680411E+03  0.19264757760E+03  0.00000000000E+00 0.  1.
<mgrwt>
<rscale>  0 0.19176995E+04</rscale>
<asrwt>0</asrwt>
<pdfrwt beam="1">  1        2 0.10196485E+00 0.19176995E+04</pdfrwt>
<pdfrwt beam="2">  1       -2 0.21341450E+00 0.19176995E+04</pdfrwt>
<totfact> 0.44655606E+00</totfact>
</mgrwt>
</event>
<event>
12    1  0.4612066E-007  0.1431370E+04  0.7818608E-02  0.8931419E-01
         -2   -1    0    0    0  501 -0.00000000000E+00  0.00000000000E+00  0.29876871310E+03  0.29876871310E+03  0.00000000000E+00 0.  1.
          2   -1    0    0  501    0  0.00000000000E+00 -0.00000000000E+00 -0.17143859525E+04  0.17143859525E+04  0.00000000000E+00 0. -1.
         23    2    1    2    0    0 -0.32372642495E+03  0.18912371122E+02 -0.82201191436E+03  0.88819455324E+03  0.89607483302E+02 0.  0.
        254    2    1    2    0    0  0.32372642495E+03 -0.18912371122E+02 -0.59360532503E+03  0.11249601123E+04  0.89889459697E+03 0.  0.
        -24    2    4    4    0    0 -0.21726440551E+03 -0.15582222268E+03 -0.47299099181E+03  0.54906898858E+03  0.79195258091E+02 0.  0.
         24    2    4    4    0    0  0.54099083046E+03  0.13690985155E+03 -0.12061433322E+03  0.57589112376E+03  0.75414739639E+02 0.  0.
         13    1    3    3    0    0 -0.13897441203E+03  0.20847585854E+02 -0.47110688588E+03  0.49161998226E+03  0.00000000000E+00 0. -1.
        -13    1    3    3    0    0 -0.18475201293E+03 -0.19352147320E+01 -0.35090502848E+03  0.39657457099E+03  0.00000000000E+00 0.  1.
          4    1    6    6  502    0  0.10151562582E+03  0.11250655116E+02  0.36879824330E+01  0.10220372176E+03  0.00000000000E+00 0. -1.
          1    1    5    5  503    0 -0.50227286399E+02 -0.26009874500E+01 -0.11261271128E+03  0.12333356468E+03  0.00000000000E+00 0. -1.
         -2    1    5    5    0  503 -0.16703711911E+03 -0.15322123523E+03 -0.36037828054E+03  0.42573542391E+03  0.00000000000E+00 0.  1.
         -1    1    6    6    0  502  0.43947520464E+03  0.12565919644E+03 -0.12430231565E+03  0.47368740201E+03  0.00000000000E+00 0.  1.
<mgrwt>
<rscale>  0 0.14313698E+04</rscale>
<asrwt>0</asrwt>
<pdfrwt beam="1">  1        2 0.26375169E+00 0.14313698E+04</pdfrwt>
<pdfrwt beam="2">  1       -2 0.45964417E-01 0.14313698E+04</pdfrwt>
<totfact> 0.41956742E+01</totfact>
</mgrwt>
</event>
<event>
12    1  0.4612066E-007  0.2062883E+04  0.7818608E-02  0.8577772E-01
          1   -1    0    0  501    0  0.00000000000E+00  0.00000000000E+00  0.75009118299E+03  0.75009118299E+03  0.00000000000E+00 0. -1.
         -1   -1    0    0    0  501 -0.00000000000E+00 -0.00000000000E+00 -0.14183225861E+04  0.14183225861E+04  0.00000000000E+00 0.  1.
         23    2    1    2    0    0 -0.65246740098E+03  0.49733191160E+03 -0.10756094661E+03  0.83302100427E+03  0.96446340879E+02 0.  0.
        254    2    1    2    0    0  0.65246740098E+03 -0.49733191160E+03 -0.56067045654E+03  0.13353927649E+04  0.89211531539E+03 0.  0.
        -24    2    4    4    0    0  0.50410201446E+03 -0.74835014496E+03 -0.39192145518E+03  0.98697445442E+03  0.79808309036E+02 0.  0.
         24    2    4    4    0    0  0.14836538652E+03  0.25101823336E+03 -0.16874900135E+03  0.34841831045E+03  0.88863109334E+02 0.  0.
         13    1    3    3    0    0 -0.52621154583E+03  0.35401214543E+03 -0.98422237460E+02  0.64180224906E+03  0.00000000000E+00 0.  1.
        -13    1    3    3    0    0 -0.12625585515E+03  0.14331976617E+03 -0.91387091515E+01  0.19121875520E+03  0.00000000000E+00 0. -1.
          2    1    6    6  502    0  0.13835654966E+03  0.18807116359E+03 -0.98059920156E+02  0.25323713265E+03  0.00000000000E+00 0. -1.
          1    1    5    5  503    0  0.48862089317E+03 -0.69024938841E+03 -0.36519377821E+03  0.92117375727E+03  0.00000000000E+00 0. -1.
         -2    1    5    5    0  503  0.15481121287E+02 -0.58100756551E+02 -0.26727676975E+02  0.65800697144E+02  0.00000000000E+00 0.  1.
         -1    1    6    6    0  502  0.10008836865E+02  0.62947069760E+02 -0.70689081198E+02  0.95181177800E+02  0.00000000000E+00 0.  1.
<mgrwt>
<rscale>  0 0.20628827E+04</rscale>
<asrwt>0</asrwt>
<pdfrwt beam="1">  1        1 0.11539864E+00 0.20628827E+04</pdfrwt>
<pdfrwt beam="2">  1       -1 0.21820347E+00 0.20628827E+04</pdfrwt>
<totfact> 0.25561110E+00</totfact>
</mgrwt>
</event>
<event>
12    1  0.4612066E-007  0.2787211E+04  0.7818608E-02  0.8307250E-01
         -2   -1    0    0    0  501 -0.00000000000E+00  0.00000000000E+00  0.17132438033E+04  0.17132438033E+04  0.00000000000E+00 0.  1.
          2   -1    0    0  501    0  0.00000000000E+00 -0.00000000000E+00 -0.11336015700E+04  0.11336015700E+04  0.00000000000E+00 0. -1.
         23    2    1    2    0    0 -0.93995963750E+02 -0.10660980700E+04  0.91046702362E+03  0.14080435359E+04  0.90752750349E+02 0.  0.
        254    2    1    2    0    0  0.93995963750E+02  0.10660980700E+04 -0.33082479030E+03  0.14388018374E+04  0.90294260567E+03 0.  0.
        -24    2    4    4    0    0  0.26588893082E+02  0.10452978414E+03  0.26905830881E+03  0.30076138424E+03  0.80197205064E+02 0.  0.
         24    2    4    4    0    0  0.67407070668E+02  0.96156828590E+03 -0.59988309911E+03  0.11380404531E+04  0.78224412372E+02 0.  0.
         13    1    3    3    0    0 -0.90511473445E+02 -0.94186827694E+03  0.83945124817E+03  0.12649057577E+04  0.00000000000E+00 0.  1.
        -13    1    3    3    0    0 -0.34844903050E+01 -0.12422979310E+03  0.71015775452E+02  0.14313777814E+03  0.00000000000E+00 0. -1.
          2    1    6    6  502    0  0.70190590438E+02  0.67842598797E+03 -0.45583613742E+03  0.82035061060E+03  0.00000000000E+00 0. -1.
          3    1    5    5  503    0  0.37641731480E+02  0.93605453864E+02  0.26656919521E+03  0.28502283554E+03  0.00000000000E+00 0. -1.
         -4    1    5    5    0  503 -0.11052838398E+02  0.10924330278E+02  0.24891135988E+01  0.15738548700E+02  0.00000000000E+00 0.  1.
         -1    1    6    6    0  502 -0.27835197695E+01  0.28314229794E+03 -0.14404696169E+03  0.31768984251E+03  0.00000000000E+00 0.  1.
<mgrwt>
<rscale>  0 0.27872107E+04</rscale>
<asrwt>0</asrwt>
<pdfrwt beam="1">  1        2 0.17440024E+00 0.27872107E+04</pdfrwt>
<pdfrwt beam="2">  1       -2 0.26357597E+00 0.27872107E+04</pdfrwt>
<totfact> 0.96002338E-01</totfact>
</mgrwt>
</event>
<event>
12    1  0.4612066E-007  0.2087765E+04  0.7818608E-02  0.8566652E-01
          1   -1    0    0  501    0  0.00000000000E+00  0.00000000000E+00  0.76504306170E+03  0.76504306170E+03  0.00000000000E+00 0. -1.
         -1   -1    0    0    0  501 -0.00000000000E+00 -0.00000000000E+00 -0.14243519441E+04  0.14243519441E+04  0.00000000000E+00 0.  1.
         23    2    1    2    0    0  0.75286385358E+03 -0.31206544489E+03 -0.29071785032E+02  0.82011518522E+03  0.86919068199E+02 0.  0.
        254    2    1    2    0    0 -0.75286385358E+03  0.31206544489E+03 -0.63023709740E+03  0.13692798206E+04  0.90196430322E+03 0.  0.
        -24    2    4    4    0    0 -0.43080623251E+02  0.46230108488E+03 -0.35408933143E+03  0.58898884173E+03  0.77138627582E+02 0.  0.
         24    2    4    4    0    0 -0.70978323033E+03 -0.15023563999E+03 -0.27614776597E+03  0.78029097889E+03  0.78952146931E+02 0.  0.
         13    1    3    3    0    0  0.69133766721E+03 -0.30679214950E+03 -0.13689616505E+02  0.75647643631E+03  0.00000000000E+00 0. -1.
        -13    1    3    3    0    0  0.61526186372E+02 -0.52732953946E+01 -0.15382168527E+02  0.63638748906E+02  0.00000000000E+00 0.  1.
          4    1    6    6  502    0 -0.64938921634E+03 -0.15932917777E+03 -0.25595933171E+03  0.71596600525E+03  0.00000000000E+00 0. -1.
          1    1    5    5  503    0  0.16898643341E+02  0.23434060100E+03 -0.17662705640E+03  0.29393570467E+03  0.00000000000E+00 0. -1.
         -2    1    5    5    0  503 -0.59979266592E+02  0.22796048388E+03 -0.17746227503E+03  0.29505313706E+03  0.00000000000E+00 0.  1.
         -3    1    6    6    0  502 -0.60394013990E+02  0.90935377879E+01 -0.20188434260E+02  0.64324973635E+02  0.00000000000E+00 0.  1.
<mgrwt>
<rscale>  0 0.20877649E+04</rscale>
<asrwt>0</asrwt>
<pdfrwt beam="1">  1        1 0.11769893E+00 0.20877649E+04</pdfrwt>
<pdfrwt beam="2">  1       -1 0.21913107E+00 0.20877649E+04</pdfrwt>
<totfact> 0.24375809E+00</totfact>
</mgrwt>
</event>
<event>
12    1  0.4612066E-007  0.1540155E+04  0.7818608E-02  0.8858181E-01
          1   -1    0    0  501    0  0.00000000000E+00  0.00000000000E+00  0.20691802113E+04  0.20691802113E+04  0.00000000000E+00 0. -1.
         -1   -1    0    0    0  501 -0.00000000000E+00 -0.00000000000E+00 -0.28659639979E+03  0.28659639979E+03  0.00000000000E+00 0.  1.
         23    2    1    2    0    0  0.10443625402E+03 -0.31549643518E+03  0.13848735111E+02  0.34510430374E+03  0.91979678382E+02 0.  0.
        254    2    1    2    0    0 -0.10443625402E+03  0.31549643518E+03  0.17687350764E+04  0.20106723073E+04  0.89662390404E+03 0.  0.
        -24    2    4    4    0    0 -0.24120349183E+03  0.17355445737E+03  0.92781196593E+02  0.32125721946E+03  0.79357271057E+02 0.  0.
         24    2    4    4    0    0  0.13676723781E+03  0.14194197781E+03  0.16759538798E+04  0.16894150879E+04  0.80306472703E+02 0.  0.
         11    1    3    3    0    0  0.11199321885E+03 -0.30571723276E+03 -0.12566649839E+01  0.32558729502E+03  0.00000000000E+00 0.  1.
        -11    1    3    3    0    0 -0.75569648286E+01 -0.97792024174E+01  0.15105400095E+02  0.19517008720E+02  0.00000000000E+00 0. -1.
          4    1    6    6  502    0  0.25756421667E+02  0.12619323744E+02  0.93256302171E+02  0.97567302328E+02  0.00000000000E+00 0. -1.
          3    1    5    5  503    0 -0.15642596954E+02  0.18752608373E+02  0.33299233147E+02  0.41293947359E+02  0.00000000000E+00 0. -1.
         -4    1    5    5    0  503 -0.22556089488E+03  0.15480184900E+03  0.59481963446E+02  0.27996327210E+03  0.00000000000E+00 0.  1.
         -3    1    6    6    0  502  0.11101081614E+03  0.12932265406E+03  0.15826975776E+04  0.15918477855E+04  0.00000000000E+00 0.  1.
<mgrwt>
<rscale>  0 0.15401553E+04</rscale>
<asrwt>0</asrwt>
<pdfrwt beam="1">  1        1 0.31833541E+00 0.15401553E+04</pdfrwt>
<pdfrwt beam="2">  1       -1 0.44091755E-01 0.15401553E+04</pdfrwt>
<totfact> 0.13128367E+01</totfact>
</mgrwt>
</event>
<event>
12    1  0.4612066E-007  0.1235766E+04  0.7818608E-02  0.9082114E-01
          2   -1    0    0  501    0  0.00000000000E+00  0.00000000000E+00  0.61839921786E+03  0.61839921786E+03  0.00000000000E+00 0. -1.
         -2   -1    0    0    0  501 -0.00000000000E+00 -0.00000000000E+00 -0.61736727684E+03  0.61736727684E+03  0.00000000000E+00 0.  1.
         23    2    1    2    0    0  0.14440510713E+03 -0.49058011288E+02 -0.23313886191E+03  0.29253765634E+03  0.89247005584E+02 0.  0.
        254    2    1    2    0    0 -0.14440510713E+03  0.49058011288E+02  0.23417080293E+03  0.94322883836E+03  0.90088021021E+03 0.  0.
        -24    2    4    4    0    0 -0.15839503882E+03  0.42315534493E+03  0.31019502739E+03  0.55386636323E+03  0.79984742494E+02 0.  0.
         24    2    4    4    0    0  0.13989931692E+02 -0.37409733365E+03 -0.76024224465E+02  0.38936247513E+03  0.75358616663E+02 0.  0.
         11    1    3    3    0    0  0.13794782115E+03 -0.21239192881E+02 -0.22126685560E+03  0.26160987378E+03  0.00000000000E+00 0.  1.
        -11    1    3    3    0    0  0.64572859799E+01 -0.27818818406E+02 -0.11872006308E+02  0.30927782551E+02  0.00000000000E+00 0. -1.
          4    1    6    6  502    0 -0.17376264187E+02 -0.33203049951E+02 -0.19987889992E+02  0.42472259529E+02  0.00000000000E+00 0. -1.
          3    1    5    5  503    0 -0.26806284996E+01  0.14632674199E+02 -0.40931052557E+01  0.15429012736E+02  0.00000000000E+00 0. -1.
         -4    1    5    5    0  503 -0.15571441033E+03  0.40852267073E+03  0.31428813265E+03  0.53843735050E+03  0.00000000000E+00 0.  1.
         -3    1    6    6    0  502  0.31366195880E+02 -0.34089428369E+03 -0.56036334474E+02  0.34689021560E+03  0.00000000000E+00 0.  1.
<mgrwt>
<rscale>  0 0.12357661E+04</rscale>
<asrwt>0</asrwt>
<pdfrwt beam="1">  1        2 0.95138342E-01 0.12357661E+04</pdfrwt>
<pdfrwt beam="2">  1       -2 0.94979581E-01 0.12357661E+04</pdfrwt>
<totfact> 0.43899341E+01</totfact>
</mgrwt>
</event>
<event>
12    1  0.4612066E-007  0.2356620E+04  0.7818608E-02  0.8455925E-01
          2   -1    0    0  501    0  0.00000000000E+00  0.00000000000E+00  0.10801966560E+04  0.10801966560E+04  0.00000000000E+00 0. -1.
         -2   -1    0    0    0  501 -0.00000000000E+00 -0.00000000000E+00 -0.12853347011E+04  0.12853347011E+04  0.00000000000E+00 0.  1.
         23    2    1    2    0    0 -0.38021958629E+03 -0.82191170428E+03  0.35311950909E+03  0.97638909673E+03  0.92393165765E+02 0.  0.
        254    2    1    2    0    0  0.38021958629E+03  0.82191170428E+03 -0.55825755411E+03  0.13891422604E+04  0.89328547473E+03 0.  0.
        -24    2    4    4    0    0  0.18345231567E+03  0.54632604746E+03  0.14922594313E+03  0.60056257090E+03  0.79247190549E+02 0.  0.
         24    2    4    4    0    0  0.19676727062E+03  0.27558565682E+03 -0.70748349724E+03  0.78857968945E+03  0.81610138615E+02 0.  0.
         11    1    3    3    0    0 -0.20965732139E+03 -0.50116262645E+03  0.25482816094E+03  0.60004796656E+03  0.00000000000E+00 0. -1.
        -11    1    3    3    0    0 -0.17056226490E+03 -0.32074907783E+03  0.98291348145E+02  0.37634113017E+03  0.00000000000E+00 0.  1.
          2    1    6    6  502    0  0.62193557284E+02  0.11530427605E+03 -0.19408372504E+03  0.23416149762E+03  0.00000000000E+00 0. -1.
          3    1    5    5  503    0  0.13721236238E+03  0.33426178562E+03  0.61827248333E+02  0.36657984445E+03  0.00000000000E+00 0. -1.
         -4    1    5    5    0  503  0.46239953291E+02  0.21206426184E+03  0.87398694794E+02  0.23398272646E+03  0.00000000000E+00 0.  1.
         -1    1    6    6    0  502  0.13457371333E+03  0.16028138077E+03 -0.51339977220E+03  0.55441819183E+03  0.00000000000E+00 0.  1.
<mgrwt>
<rscale>  0 0.23566198E+04</rscale>
<asrwt>0</asrwt>
<pdfrwt beam="1">  1        2 0.16618410E+00 0.23566198E+04</pdfrwt>
<pdfrwt beam="2">  1       -2 0.19774380E+00 0.23566198E+04</pdfrwt>
<totfact> 0.27831453E+00</totfact>
</mgrwt>
</event>
<event>
12    1  0.4612066E-007  0.1939320E+04  0.7818608E-02  0.8635528E-01
         -2   -1    0    0    0  501 -0.00000000000E+00  0.00000000000E+00  0.62737897244E+03  0.62737897244E+03  0.00000000000E+00 0.  1.
          2   -1    0    0  501    0  0.00000000000E+00 -0.00000000000E+00 -0.14986797391E+04  0.14986797391E+04  0.00000000000E+00 0. -1.
         23    2    1    2    0    0  0.48108793347E+03  0.50322599942E+02 -0.98087496502E+03  0.10974397825E+04  0.90996788455E+02 0.  0.
        254    2    1    2    0    0 -0.48108793347E+03 -0.50322599942E+02  0.10957419834E+03  0.10286189290E+04  0.90115061581E+03 0.  0.
        -24    2    4    4    0    0 -0.47480554268E+03 -0.38124805056E+03 -0.10815751592E+03  0.62404961487E+03  0.83363626033E+02 0.  0.
         24    2    4    4    0    0 -0.62823907913E+01  0.33092545062E+03  0.21773171425E+03  0.40456931414E+03  0.81964066814E+02 0.  0.
         13    1    3    3    0    0  0.86395806934E+02  0.39630433943E+02 -0.15102076548E+03  0.17844348785E+03  0.00000000000E+00 0.  1.
        -13    1    3    3    0    0  0.39469212654E+03  0.10692165998E+02 -0.82985419953E+03  0.91899629469E+03  0.00000000000E+00 0. -1.
          4    1    6    6  502    0 -0.17362168179E+02  0.29653854010E+02  0.31123671272E+01  0.34503373323E+02  0.00000000000E+00 0. -1.
          1    1    5    5  503    0 -0.22137083777E+03 -0.19810743002E+03 -0.91834826211E+02  0.31094249782E+03  0.00000000000E+00 0. -1.
         -4    1    5    5    0  503 -0.25343470491E+03 -0.18314062054E+03 -0.16322689704E+02  0.31310711705E+03  0.00000000000E+00 0.  1.
         -3    1    6    6    0  502  0.11079777388E+02  0.30127159661E+03  0.21461934713E+03  0.37006594082E+03  0.00000000000E+00 0.  1.
<mgrwt>
<rscale>  0 0.19393196E+04</rscale>
<asrwt>0</asrwt>
<pdfrwt beam="1">  1        2 0.23056611E+00 0.19393196E+04</pdfrwt>
<pdfrwt beam="2">  1       -2 0.96519844E-01 0.19393196E+04</pdfrwt>
<totfact> 0.10661326E+01</totfact>
</mgrwt>
</event>
<event>
12    1  0.4612066E-007  0.4090922E+04  0.7818608E-02  0.7986452E-01
          2   -1    0    0  501    0  0.00000000000E+00  0.00000000000E+00  0.31481516493E+04  0.31481516493E+04  0.00000000000E+00 0. -1.
         -2   -1    0    0    0  501 -0.00000000000E+00 -0.00000000000E+00 -0.13290051954E+04  0.13290051954E+04  0.00000000000E+00 0.  1.
         23    2    1    2    0    0 -0.16962641826E+03  0.99658762925E+03 -0.95159271768E+03  0.13913894840E+04  0.92065038458E+02 0.  0.
        254    2    1    2    0    0  0.16962641826E+03 -0.99658762925E+03  0.27707391716E+04  0.30857673608E+04  0.90719602241E+03 0.  0.
        -24    2    4    4    0    0 -0.30234589038E+03 -0.53812848290E+03  0.18446503368E+04  0.19468528283E+04  0.80658345453E+02 0.  0.
         24    2    4    4    0    0  0.47197230864E+03 -0.45845914636E+03  0.92608883482E+03  0.11389145324E+04  0.80889635674E+02 0.  0.
         11    1    3    3    0    0 -0.12441606141E+03  0.58200300277E+03 -0.61085205953E+03  0.85284646344E+03  0.00000000000E+00 0.  1.
        -11    1    3    3    0    0 -0.45210356846E+02  0.41458462648E+03 -0.34074065815E+03  0.53854302057E+03  0.00000000000E+00 0. -1.
          4    1    6    6  502    0  0.43848320759E+03 -0.39147506624E+03  0.83085111769E+03  0.10177592203E+04  0.00000000000E+00 0. -1.
          1    1    5    5  503    0 -0.16621994509E+03 -0.25527234307E+03  0.10183861905E+04  0.10629691774E+04  0.00000000000E+00 0. -1.
         -2    1    5    5    0  503 -0.13612594529E+03 -0.28285613983E+03  0.82626414633E+03  0.88388365090E+03  0.00000000000E+00 0.  1.
         -3    1    6    6    0  502  0.33489101048E+02 -0.66984080119E+02  0.95237717126E+02  0.12115531207E+03  0.00000000000E+00 0.  1.
<mgrwt>
<rscale>  0 0.40909216E+04</rscale>
<asrwt>0</asrwt>
<pdfrwt beam="1">  1        2 0.48433102E+00 0.40909216E+04</pdfrwt>
<pdfrwt beam="2">  1       -2 0.20446234E+00 0.40909216E+04</pdfrwt>
<totfact> 0.13635003E-01</totfact>
</mgrwt>
</event>
<event>
12    1  0.4612066E-007  0.1814460E+04  0.7818608E-02  0.8698648E-01
         -1   -1    0    0    0  501 -0.00000000000E+00  0.00000000000E+00  0.56008104732E+03  0.56008104732E+03  0.00000000000E+00 0.  1.
          1   -1    0    0  501    0  0.00000000000E+00 -0.00000000000E+00 -0.14695481028E+04  0.14695481028E+04  0.00000000000E+00 0. -1.
         23    2    1    2    0    0 -0.15853916002E+03  0.42071891063E+03 -0.91562644249E+03  0.10242533765E+04  0.92650580893E+02 0.  0.
        254    2    1    2    0    0  0.15853916002E+03 -0.42071891063E+03  0.61593870370E+01  0.10053757736E+04  0.89922379917E+03 0.  0.
        -24    2    4    4    0    0 -0.27403901344E+03 -0.26149330468E+02 -0.23127749030E+03  0.36859780679E+03  0.81202815729E+02 0.  0.
         24    2    4    4    0    0  0.43257817345E+03 -0.39456958016E+03  0.23743687734E+03  0.63677796677E+03  0.79378073166E+02 0.  0.
         13    1    3    3    0    0 -0.14217477254E+03  0.25200834558E+03 -0.56282961528E+03  0.63284994116E+03  0.00000000000E+00 0. -1.
        -13    1    3    3    0    0 -0.16364387484E+02  0.16871056505E+03 -0.35279682721E+03  0.39140343538E+03  0.00000000000E+00 0.  1.
          4    1    6    6  502    0  0.54548041305E+02 -0.69441123347E+02  0.10419120772E+02  0.88916345514E+02  0.00000000000E+00 0. -1.
          1    1    5    5  503    0 -0.11085360631E+03 -0.46501125332E+02 -0.74710300306E+02  0.14153623445E+03  0.00000000000E+00 0. -1.
         -2    1    5    5    0  503 -0.16318540712E+03  0.20351794864E+02 -0.15656719000E+03  0.22706157234E+03  0.00000000000E+00 0.  1.
         -1    1    6    6    0  502  0.37803013215E+03 -0.32512845682E+03  0.22701775657E+03  0.54786162125E+03  0.00000000000E+00 0.  1.
<mgrwt>
<rscale>  0 0.18144597E+04</rscale>
<asrwt>0</asrwt>
<pdfrwt beam="1">  1        1 0.22608432E+00 0.18144597E+04</pdfrwt>
<pdfrwt beam="2">  1       -1 0.86166315E-01 0.18144597E+04</pdfrwt>
<totfact> 0.86030425E+00</totfact>
</mgrwt>
</event>
<event>
12    1  0.4612066E-007  0.2750320E+04  0.7818608E-02  0.8318860E-01
          1   -1    0    0  501    0  0.00000000000E+00  0.00000000000E+00  0.22938852019E+04  0.22938852019E+04  0.00000000000E+00 0. -1.
         -1   -1    0    0    0  501 -0.00000000000E+00 -0.00000000000E+00 -0.82439395105E+03  0.82439395105E+03  0.00000000000E+00 0.  1.
         23    2    1    2    0    0  0.16334788829E+03  0.11948262518E+04  0.40505087522E+03  0.12757361788E+04  0.95625738872E+02 0.  0.
        254    2    1    2    0    0 -0.16334788829E+03 -0.11948262518E+04  0.10644403756E+04  0.18425429741E+04  0.89868737252E+03 0.  0.
        -24    2    4    4    0    0 -0.48320513089E+03 -0.65476853044E+03  0.35411167370E+03  0.89113284111E+03  0.80707100654E+02 0.  0.
         24    2    4    4    0    0  0.31985724260E+03 -0.54005772135E+03  0.71032870190E+03  0.95141013296E+03  0.81506921887E+02 0.  0.
         13    1    3    3    0    0  0.24802325607E+02  0.25407778781E+03  0.12633267540E+03  0.28483437729E+03  0.00000000000E+00 0. -1.
        -13    1    3    3    0    0  0.13854556268E+03  0.94074846398E+03  0.27871819982E+03  0.99090180155E+03  0.00000000000E+00 0.  1.
          2    1    6    6  502    0  0.22787917571E+03 -0.30838020716E+03  0.44300946226E+03  0.58590498764E+03  0.00000000000E+00 0. -1.
          1    1    5    5  503    0 -0.22254231102E+03 -0.32589211844E+03  0.21269781857E+03  0.44829802038E+03  0.00000000000E+00 0. -1.
         -2    1    5    5    0  503 -0.26066281987E+03 -0.32887641200E+03  0.14141385513E+03  0.44283482073E+03  0.00000000000E+00 0.  1.
         -1    1    6    6    0  502  0.91978066888E+02 -0.23167751419E+03  0.26731923965E+03  0.36550514532E+03  0.00000000000E+00 0.  1.
<mgrwt>
<rscale>  0 0.27503200E+04</rscale>
<asrwt>0</asrwt>
<pdfrwt beam="1">  1        1 0.35290541E+00 0.27503200E+04</pdfrwt>
<pdfrwt beam="2">  1       -1 0.12682984E+00 0.27503200E+04</pdfrwt>
<totfact> 0.88143147E-01</totfact>
</mgrwt>
</event>
<event>
12    1  0.4612066E-007  0.1850913E+04  0.7818608E-02  0.8679683E-01
         -1   -1    0    0    0  501 -0.00000000000E+00  0.00000000000E+00  0.58749061326E+03  0.58749061326E+03  0.00000000000E+00 0.  1.
          1   -1    0    0  501    0  0.00000000000E+00 -0.00000000000E+00 -0.14578444540E+04  0.14578444540E+04  0.00000000000E+00 0. -1.
         23    2    1    2    0    0 -0.10339369332E+03  0.69738072137E+03 -0.30203376639E+03  0.77225677411E+03  0.90144344021E+02 0.  0.
        254    2    1    2    0    0  0.10339369332E+03 -0.69738072137E+03 -0.56832007438E+03  0.12730782932E+04  0.89482428848E+03 0.  0.
        -24    2    4    4    0    0  0.68924556664E+02 -0.52341912875E+03  0.12884670004E+03  0.54900517876E+03  0.78019454914E+02 0.  0.
         24    2    4    4    0    0  0.34469136656E+02 -0.17396159263E+03 -0.69716677443E+03  0.72407311442E+03  0.82399068954E+02 0.  0.
         13    1    3    3    0    0 -0.10400186436E+02  0.25703111198E+03 -0.14676721978E+03  0.29616511139E+03  0.00000000000E+00 0. -1.
        -13    1    3    3    0    0 -0.92993506884E+02  0.44034960939E+03 -0.15526654661E+03  0.47609166272E+03  0.00000000000E+00 0.  1.
          4    1    6    6  502    0  0.37059379616E+02 -0.75019487922E+02 -0.19418016292E+03  0.21144090630E+03  0.00000000000E+00 0. -1.
          3    1    5    5  503    0 -0.14373205691E+02 -0.16822247736E+03  0.41614832353E+02  0.17388842746E+03  0.00000000000E+00 0. -1.
         -4    1    5    5    0  503  0.83297762355E+02 -0.35519665138E+03  0.87231867691E+02  0.37511675130E+03  0.00000000000E+00 0.  1.
         -3    1    6    6    0  502 -0.25902429605E+01 -0.98942104704E+02 -0.50298661151E+03  0.51263220812E+03  0.00000000000E+00 0.  1.
<mgrwt>
<rscale>  0 0.18509132E+04</rscale>
<asrwt>0</asrwt>
<pdfrwt beam="1">  1        1 0.22428376E+00 0.18509132E+04</pdfrwt>
<pdfrwt beam="2">  1       -1 0.90383173E-01 0.18509132E+04</pdfrwt>
<totfact> 0.78682027E+00</totfact>
</mgrwt>
</event>
<event>
12    1  0.4612066E-007  0.2333901E+04  0.7818608E-02  0.8464673E-01
          1   -1    0    0  501    0  0.00000000000E+00  0.00000000000E+00  0.72295879839E+03  0.72295879839E+03  0.00000000000E+00 0. -1.
         -1   -1    0    0    0  501 -0.00000000000E+00 -0.00000000000E+00 -0.18836109056E+04  0.18836109056E+04  0.00000000000E+00 0.  1.
         23    2    1    2    0    0 -0.64150822957E+03 -0.39935519955E+03  0.21991710346E+03  0.79212456233E+03  0.89891077622E+02 0.  0.
        254    2    1    2    0    0  0.64150822957E+03  0.39935519955E+03 -0.13805692107E+04  0.18144451417E+04  0.90289669542E+03 0.  0.
        -24    2    4    4    0    0  0.39569439952E+03  0.26964990624E+03 -0.14395611792E+04  0.15195291523E+04  0.85716545918E+02 0.  0.
         24    2    4    4    0    0  0.24581383006E+03  0.12970529331E+03  0.58991968535E+02  0.29491598936E+03  0.79041041682E+02 0.  0.
         11    1    3    3    0    0 -0.18067618554E+02 -0.14290479553E+02 -0.85373179189E+01  0.24567100833E+02  0.00000000000E+00 0.  1.
        -11    1    3    3    0    0 -0.62344061102E+03 -0.38506471999E+03  0.22845442138E+03  0.76755746150E+03  0.00000000000E+00 0. -1.
          4    1    6    6  502    0  0.28428574842E+01  0.17248437314E+02 -0.75422004032E+01  0.19038781877E+02  0.00000000000E+00 0. -1.
          1    1    5    5  503    0  0.95188115458E+02  0.10965062031E+03 -0.39149469427E+03  0.41755494429E+03  0.00000000000E+00 0. -1.
         -2    1    5    5    0  503  0.30050628406E+03  0.15999928593E+03 -0.10480664849E+04  0.11019742080E+04  0.00000000000E+00 0.  1.
         -3    1    6    6    0  502  0.24297097257E+03  0.11245685599E+03  0.66534168939E+02  0.27587720748E+03  0.00000000000E+00 0.  1.
<mgrwt>
<rscale>  0 0.23339007E+04</rscale>
<asrwt>0</asrwt>
<pdfrwt beam="1">  1        1 0.11122443E+00 0.23339007E+04</pdfrwt>
<pdfrwt beam="2">  1       -1 0.28978629E+00 0.23339007E+04</pdfrwt>
<totfact> 0.89897126E-01</totfact>
</mgrwt>
</event>
<event>
12    1  0.4612066E-007  0.2223596E+04  0.7818608E-02  0.8508671E-01
         -2   -1    0    0    0  501 -0.00000000000E+00  0.00000000000E+00  0.65883779020E+03  0.65883779020E+03  0.00000000000E+00 0. -1.
          2   -1    0    0  501    0  0.00000000000E+00 -0.00000000000E+00 -0.18761741281E+04  0.18761741281E+04  0.00000000000E+00 0.  1.
         23    2    1    2    0    0 -0.16273566837E+03  0.88729025864E+03 -0.26810231323E+03  0.94533195996E+03  0.89480519199E+02 0.  0.
        254    2    1    2    0    0  0.16273566837E+03 -0.88729025864E+03 -0.94923402464E+03  0.15896799583E+04  0.90126035942E+03 0.  0.
        -24    2    4    4    0    0 -0.53234706147E+02 -0.99778099975E+03 -0.64220929986E+03  0.11904132634E+04  0.79057544647E+02 0.  0.
         24    2    4    4    0    0  0.21597037452E+03  0.11049074111E+03 -0.30702472478E+03  0.39926669494E+03  0.79361864392E+02 0.  0.
         13    1    3    3    0    0 -0.13117832281E+03  0.54470721080E+03 -0.13396282060E+03  0.57607268220E+03  0.00000000000E+00 0. -1.
        -13    1    3    3    0    0 -0.31557345560E+02  0.34258304784E+03 -0.13413949263E+03  0.36925927775E+03  0.00000000000E+00 0.  1.
          2    1    6    6  502    0  0.38486307421E+02 -0.46925517260E+01 -0.80185809366E+02  0.89067277517E+02  0.00000000000E+00 0. -1.
          1    1    5    5  503    0 -0.94214723451E+01 -0.58408729408E+03 -0.41329099140E+03  0.71558100507E+03  0.00000000000E+00 0. -1.
         -2    1    5    5    0  503 -0.43813233802E+02 -0.41369370567E+03 -0.22891830846E+03  0.47483225830E+03  0.00000000000E+00 0.  1.
         -1    1    6    6    0  502  0.17748406710E+03  0.11518329284E+03 -0.22683891541E+03  0.31019941742E+03  0.00000000000E+00 0.  1.
<mgrwt>
<rscale>  0 0.22235957E+04</rscale>
<asrwt>0</asrwt>
<pdfrwt beam="1">  1        2 0.28864217E+00 0.22235957E+04</pdfrwt>
<pdfrwt beam="2">  1       -2 0.10135966E+00 0.22235957E+04</pdfrwt>
<totfact> 0.57122171E+00</totfact>
</mgrwt>
</event>
<event>
12    1  0.4612066E-007  0.1449245E+04  0.7818608E-02  0.8918924E-01
         -2   -1    0    0    0  501 -0.00000000000E+00  0.00000000000E+00  0.24155266792E+03  0.24155266792E+03  0.00000000000E+00 0.  1.
          2   -1    0    0  501    0  0.00000000000E+00 -0.00000000000E+00 -0.21737609149E+04  0.21737609149E+04  0.00000000000E+00 0. -1.
         23    2    1    2    0    0  0.24081665072E+03  0.34764438826E+03 -0.40561932686E+03  0.59272950144E+03  0.89173671016E+02 0.  0.
        254    2    1    2    0    0 -0.24081665072E+03 -0.34764438826E+03 -0.15265889201E+04  0.18225840814E+04  0.90138211804E+03 0.  0.
        -24    2    4    4    0    0 -0.29896102971E+03 -0.95158961633E+02 -0.15180644886E+04  0.15527320146E+04  0.89576739819E+02 0.  0.
         24    2    4    4    0    0  0.58144378986E+02 -0.25248542662E+03 -0.85244315473E+01  0.26985206682E+03  0.74952068473E+02 0.  0.
         11    1    3    3    0    0  0.14380334102E+03  0.25435824403E+03 -0.23226012333E+03  0.37325900134E+03  0.00000000000E+00 0.  1.
        -11    1    3    3    0    0  0.97013309702E+02  0.93286144227E+02 -0.17335920352E+03  0.21947050009E+03  0.00000000000E+00 0. -1.
          4    1    6    6  502    0  0.30287664455E+02 -0.23341387724E+03 -0.15316956720E+01  0.23537571412E+03  0.00000000000E+00 0. -1.
          3    1    5    5  503    0 -0.21828178870E+03 -0.10936204009E+03 -0.11604597343E+04  0.11858641533E+04  0.00000000000E+00 0. -1.
         -4    1    5    5    0  503 -0.80679241002E+02  0.14203078453E+02 -0.35760475427E+03  0.36686786128E+03  0.00000000000E+00 0.  1.
         -3    1    6    6    0  502  0.27856714531E+02 -0.19071549384E+02 -0.69927358753E+01  0.34476352698E+02  0.00000000000E+00 0.  1.
<mgrwt>
<rscale>  0 0.14492450E+04</rscale>
<asrwt>0</asrwt>
<pdfrwt beam="1">  1        2 0.33442476E+00 0.14492450E+04</pdfrwt>
<pdfrwt beam="2">  1       -2 0.37161949E-01 0.14492450E+04</pdfrwt>
<totfact> 0.35407215E+01</totfact>
</mgrwt>
</event>
<event>
12    1  0.4612066E-007  0.1629094E+04  0.7818608E-02  0.8802871E-01
         -2   -1    0    0    0  501 -0.00000000000E+00  0.00000000000E+00  0.73301851692E+03  0.73301851692E+03  0.00000000000E+00 0.  1.
          2   -1    0    0  501    0  0.00000000000E+00 -0.00000000000E+00 -0.90514357148E+03  0.90514357148E+03  0.00000000000E+00 0. -1.
         23    2    1    2    0    0  0.21160086311E+03  0.47089522276E+03  0.16001224638E+03  0.54787751089E+03  0.89714056087E+02 0.  0.
        254    2    1    2    0    0 -0.21160086311E+03 -0.47089522276E+03 -0.33213730094E+03  0.10902845775E+04  0.90104829904E+03 0.  0.
        -24    2    4    4    0    0  0.29126162123E+03 -0.16375260051E+03 -0.35684223185E+03  0.49532367155E+03  0.79755344578E+02 0.  0.
         24    2    4    4    0    0 -0.50286248434E+03 -0.30714262225E+03  0.24704930918E+02  0.59496090596E+03  0.78491257177E+02 0.  0.
         11    1    3    3    0    0  0.15955211984E+03  0.32407897441E+03  0.69917991992E+02  0.36793013767E+03  0.00000000000E+00 0. -1.
        -11    1    3    3    0    0  0.52048743268E+02  0.14681624834E+03  0.90094254384E+02  0.17994737321E+03  0.00000000000E+00 0.  1.
          2    1    6    6  502    0 -0.34012909280E+03 -0.22403875244E+03  0.50576914988E+02  0.41041343386E+03  0.00000000000E+00 0. -1.
          1    1    5    5  503    0  0.14343691206E+03 -0.47633091052E+02 -0.19884780194E+03  0.24976690621E+03  0.00000000000E+00 0. -1.
         -2    1    5    5    0  503  0.14782470917E+03 -0.11611950946E+03 -0.15799442992E+03  0.24555676534E+03  0.00000000000E+00 0.  1.
         -1    1    6    6    0  502 -0.16273339154E+03 -0.83103869809E+02 -0.25871984070E+02  0.18454747210E+03  0.00000000000E+00 0.  1.
<mgrwt>
<rscale>  0 0.16290942E+04</rscale>
<asrwt>0</asrwt>
<pdfrwt beam="1">  1        2 0.13925286E+00 0.16290942E+04</pdfrwt>
<pdfrwt beam="2">  1       -2 0.11277208E+00 0.16290942E+04</pdfrwt>
<totfact> 0.17213965E+01</totfact>
</mgrwt>
</event>
<event>
12    1  0.4612066E-007  0.2157071E+04  0.7818608E-02  0.8536512E-01
         -2   -1    0    0    0  501 -0.00000000000E+00  0.00000000000E+00  0.83651201976E+03  0.83651201976E+03  0.00000000000E+00 0.  1.
          2   -1    0    0  501    0  0.00000000000E+00 -0.00000000000E+00 -0.13905822127E+04  0.13905822127E+04  0.00000000000E+00 0. -1.
         23    2    1    2    0    0 -0.84382518120E+03 -0.96337445210E+02 -0.50471416989E+03  0.99214884176E+03  0.91110323977E+02 0.  0.
        254    2    1    2    0    0  0.84382518120E+03  0.96337445210E+02 -0.49356023090E+02  0.12349453908E+04  0.89517163793E+03 0.  0.
        -24    2    4    4    0    0  0.99163359069E+03  0.23505362795E+02  0.93254690199E+02  0.99968640206E+03  0.82381945627E+02 0.  0.
         24    2    4    4    0    0 -0.14780840949E+03  0.72832082415E+02 -0.14261071329E+03  0.23525898869E+03  0.88640499039E+02 0.  0.
         11    1    3    3    0    0 -0.22866062731E+03 -0.60651940118E+02 -0.16593645272E+03  0.28896236201E+03  0.00000000000E+00 0. -1.
        -11    1    3    3    0    0 -0.61516455389E+03 -0.35685505091E+02 -0.33877771717E+03  0.70318647974E+03  0.00000000000E+00 0.  1.
          2    1    6    6  502    0 -0.94621905004E+02  0.43978334376E+02 -0.14011483919E+03  0.17469850303E+03  0.00000000000E+00 0. -1.
          3    1    5    5  503    0  0.63630141978E+03  0.46388102643E+02  0.84016681512E+02  0.64349837269E+03  0.00000000000E+00 0. -1.
         -4    1    5    5    0  503  0.35533217091E+03 -0.22882739848E+02  0.92380086868E+01  0.35618802938E+03  0.00000000000E+00 0.  1.
         -1    1    6    6    0  502 -0.53186504484E+02  0.28853748039E+02 -0.24958740975E+01  0.60560485653E+02  0.00000000000E+00 0.  1.
<mgrwt>
<rscale>  0 0.21570709E+04</rscale>
<asrwt>0</asrwt>
<pdfrwt beam="1">  1        2 0.21393572E+00 0.21570709E+04</pdfrwt>
<pdfrwt beam="2">  1       -2 0.12869416E+00 0.21570709E+04</pdfrwt>
<totfact> 0.59889813E+00</totfact>
</mgrwt>
</event>
<event>
12    1  0.4612066E-007  0.1385228E+04  0.7818608E-02  0.8964581E-01
         -2   -1    0    0    0  501 -0.00000000000E+00  0.00000000000E+00  0.22047617895E+03  0.22047617895E+03  0.00000000000E+00 0. -1.
          2   -1    0    0  501    0  0.00000000000E+00 -0.00000000000E+00 -0.21758108661E+04  0.21758108661E+04  0.00000000000E+00 0.  1.
         23    2    1    2    0    0 -0.30763551918E+03 -0.67203991248E+02 -0.15543960641E+03  0.36271859748E+03  0.90814759886E+02 0.  0.
        254    2    1    2    0    0  0.30763551918E+03  0.67203991248E+02 -0.17998950808E+04  0.20335684476E+04  0.89253702453E+03 0.  0.
        -24    2    4    4    0    0  0.12732910065E+03  0.22009849723E+03 -0.17607545779E+04  0.17807820326E+04  0.79195426250E+02 0.  0.
         24    2    4    4    0    0  0.18030641854E+03 -0.15289450598E+03 -0.39140502850E+02  0.25278641501E+03  0.80509987754E+02 0.  0.
         13    1    3    3    0    0 -0.28238936660E+03 -0.55623526916E+02 -0.10734908964E+03  0.30718326478E+03  0.00000000000E+00 0. -1.
        -13    1    3    3    0    0 -0.25246152583E+02 -0.11580464332E+02 -0.48090516773E+02  0.55535332699E+02  0.00000000000E+00 0.  1.
          4    1    6    6  502    0  0.13977830285E+03 -0.10309133473E+03  0.68295255556E+01  0.17381725939E+03  0.00000000000E+00 0. -1.
          1    1    5    5  503    0  0.48979785043E+02  0.31030996670E+02 -0.52537283492E+03  0.52856272832E+03  0.00000000000E+00 0. -1.
         -2    1    5    5    0  503  0.78349315605E+02  0.18906750056E+03 -0.12353817430E+04  0.12522193042E+04  0.00000000000E+00 0.  1.
         -3    1    6    6    0  502  0.40528115685E+02 -0.49803171252E+02 -0.45970028406E+02  0.78969155620E+02  0.00000000000E+00 0.  1.
<mgrwt>
<rscale>  0 0.13852285E+04</rscale>
<asrwt>0</asrwt>
<pdfrwt beam="1">  1        2 0.33474014E+00 0.13852285E+04</pdfrwt>
<pdfrwt beam="2">  1       -2 0.33919411E-01 0.13852285E+04</pdfrwt>
<totfact> 0.42288996E+01</totfact>
</mgrwt>
</event>
<event>
12    1  0.4612066E-007  0.2418846E+04  0.7818608E-02  0.8432482E-01
          2   -1    0    0  501    0  0.00000000000E+00  0.00000000000E+00  0.16129968120E+04  0.16129968120E+04  0.00000000000E+00 0. -1.
         -2   -1    0    0    0  501 -0.00000000000E+00 -0.00000000000E+00 -0.90682368031E+03  0.90682368031E+03  0.00000000000E+00 0.  1.
         23    2    1    2    0    0 -0.71794652606E+03 -0.28256355357E+03 -0.41948788497E+03  0.88347554762E+03  0.96278665946E+02 0.  0.
        254    2    1    2    0    0  0.71794652606E+03  0.28256355357E+03  0.11256610166E+04  0.16363449447E+04  0.90289682552E+03 0.  0.
        -24    2    4    4    0    0  0.99713632659E+02  0.44630495557E+03  0.77495656208E+03  0.90329167113E+03  0.79039535073E+02 0.  0.
         24    2    4    4    0    0  0.61823289340E+03 -0.16374140200E+03  0.35070445456E+03  0.73305327356E+03  0.73145951486E+02 0.  0.
         11    1    3    3    0    0 -0.62432492416E+03 -0.24276881187E+03 -0.39904115394E+03  0.77971286348E+03  0.00000000000E+00 0.  1.
        -11    1    3    3    0    0 -0.93621601895E+02 -0.39794741703E+02 -0.20446731031E+02  0.10376268413E+03  0.00000000000E+00 0. -1.
          4    1    6    6  502    0  0.12591577470E+02  0.14801838994E+01 -0.22273398348E+01  0.12872443836E+02  0.00000000000E+00 0. -1.
          1    1    5    5  503    0  0.41680154744E+02  0.13563964422E+03  0.31194125806E+03  0.34269913462E+03  0.00000000000E+00 0. -1.
         -2    1    5    5    0  503  0.58033477915E+02  0.31066531135E+03  0.46301530402E+03  0.56059253651E+03  0.00000000000E+00 0.  1.
         -3    1    6    6    0  502  0.60564131593E+03 -0.16522158590E+03  0.35293179440E+03  0.72018082973E+03  0.00000000000E+00 0.  1.
<mgrwt>
<rscale>  0 0.24188458E+04</rscale>
<asrwt>0</asrwt>
<pdfrwt beam="1">  1        2 0.24815336E+00 0.24188458E+04</pdfrwt>
<pdfrwt beam="2">  1       -2 0.13951134E+00 0.24188458E+04</pdfrwt>
<totfact> 0.35693074E+00</totfact>
</mgrwt>
</event>
<event>
12    1  0.4612066E-007  0.1761440E+04  0.7818608E-02  0.8727078E-01
         -2   -1    0    0    0  501 -0.00000000000E+00  0.00000000000E+00  0.69670340329E+03  0.69670340329E+03  0.00000000000E+00 0. -1.
          2   -1    0    0  501    0  0.00000000000E+00 -0.00000000000E+00 -0.11133398252E+04  0.11133398252E+04  0.00000000000E+00 0.  1.
         23    2    1    2    0    0 -0.18474250306E+02 -0.42578238808E+03 -0.65841731400E+03  0.79012970068E+03  0.95706032134E+02 0.  0.
        254    2    1    2    0    0  0.18474250306E+02  0.42578238808E+03  0.24178089204E+03  0.10199135279E+04  0.89450190868E+03 0.  0.
        -24    2    4    4    0    0  0.41136973163E+03  0.41245850601E+03  0.16956925337E+03  0.61195933585E+03  0.79958875384E+02 0.  0.
         24    2    4    4    0    0 -0.39289548133E+03  0.13323882070E+02  0.72211638675E+02  0.40795419202E+03  0.81656089437E+02 0.  0.
         11    1    3    3    0    0 -0.46624345321E-01 -0.39778928288E+03 -0.63477174101E+03  0.74911379572E+03  0.00000000000E+00 0.  1.
        -11    1    3    3    0    0 -0.18427625961E+02 -0.27993105207E+02 -0.23645572991E+02  0.41015904961E+02  0.00000000000E+00 0. -1.
          4    1    6    6  502    0 -0.39334172432E+03  0.20792853918E+02  0.69382954071E+02  0.39995505895E+03  0.00000000000E+00 0. -1.
          1    1    5    5  503    0  0.28177069972E+03  0.29615611620E+03  0.81520395846E+02  0.41683179740E+03  0.00000000000E+00 0. -1.
         -2    1    5    5    0  503  0.12959903192E+03  0.11630238982E+03  0.88048857523E+02  0.19512753845E+03  0.00000000000E+00 0.  1.
         -3    1    6    6    0  502  0.44624298767E+00 -0.74689718480E+01  0.28286846042E+01  0.79991330693E+01  0.00000000000E+00 0.  1.
<mgrwt>
<rscale>  0 0.17614399E+04</rscale>
<asrwt>0</asrwt>
<pdfrwt beam="1">  1        2 0.17128305E+00 0.17614399E+04</pdfrwt>
<pdfrwt beam="2">  1       -2 0.10718514E+00 0.17614399E+04</pdfrwt>
<totfact> 0.14163276E+01</totfact>
</mgrwt>
</event>
<event>
12    1  0.4612066E-007  0.1377178E+04  0.7818608E-02  0.8970506E-01
          2   -1    0    0  501    0  0.00000000000E+00  0.00000000000E+00  0.43970220087E+03  0.43970220087E+03  0.00000000000E+00 0. -1.
         -2   -1    0    0    0  501 -0.00000000000E+00 -0.00000000000E+00 -0.10783545310E+04  0.10783545310E+04  0.00000000000E+00 0.  1.
         23    2    1    2    0    0 -0.28707668821E+03 -0.89403190263E+02  0.79972137847E+02  0.32421063608E+03  0.91164896602E+02 0.  0.
        254    2    1    2    0    0  0.28707668821E+03  0.89403190263E+02 -0.71862446795E+03  0.11938460958E+04  0.90467752215E+03 0.  0.
        -24    2    4    4    0    0  0.50624480506E+03  0.14869628377E+03 -0.78080297610E+03  0.94552070360E+03  0.77212214007E+02 0.  0.
         24    2    4    4    0    0 -0.21916811685E+03 -0.59293093508E+02  0.62178508147E+02  0.24832539216E+03  0.79050611232E+02 0.  0.
         13    1    3    3    0    0 -0.20462392260E+03 -0.50288684612E+02  0.96004576201E+02  0.23155297483E+03  0.00000000000E+00 0. -1.
        -13    1    3    3    0    0 -0.82452765614E+02 -0.39114505650E+02 -0.16032438353E+02  0.92657661255E+02  0.00000000000E+00 0.  1.
          4    1    6    6  502    0 -0.17163865012E+03 -0.52897414895E+02  0.13689242101E+02  0.18012595056E+03  0.00000000000E+00 0. -1.
          1    1    5    5  503    0  0.19847092610E+03  0.68197236690E+02 -0.24704566419E+03  0.32414986008E+03  0.00000000000E+00 0. -1.
         -2    1    5    5    0  503  0.30777387896E+03  0.80499047080E+02 -0.53375731191E+03  0.62137084352E+03  0.00000000000E+00 0.  1.
         -3    1    6    6    0  502 -0.47529466729E+02 -0.63956786132E+01  0.48489266047E+02  0.68199441598E+02  0.00000000000E+00 0.  1.
<mgrwt>
<rscale>  0 0.13771781E+04</rscale>
<asrwt>0</asrwt>
<pdfrwt beam="1">  1        2 0.67646493E-01 0.13771781E+04</pdfrwt>
<pdfrwt beam="2">  1       -2 0.16590069E+00 0.13771781E+04</pdfrwt>
<totfact> 0.15860450E+01</totfact>
</mgrwt>
</event>
<event>
12    1  0.4612066E-007  0.2251302E+04  0.7818608E-02  0.8497373E-01
         -1   -1    0    0    0  501 -0.00000000000E+00  0.00000000000E+00  0.22926014254E+04  0.22926014254E+04  0.00000000000E+00 0.  1.
          1   -1    0    0  501    0  0.00000000000E+00 -0.00000000000E+00 -0.55268685948E+03  0.55268685948E+03  0.00000000000E+00 0. -1.
         23    2    1    2    0    0  0.88296047873E+03 -0.17321724532E+03  0.38641270271E+03  0.98360625252E+03  0.92428686493E+02 0.  0.
        254    2    1    2    0    0 -0.88296047873E+03  0.17321724532E+03  0.13535018632E+04  0.18616820324E+04  0.90789276618E+03 0.  0.
        -24    2    4    4    0    0 -0.85886558495E+03 -0.20401266330E+03  0.10223153799E+04  0.13530631328E+04  0.79873935487E+02 0.  0.
         24    2    4    4    0    0 -0.24094893789E+02  0.37722990862E+03  0.33118648332E+03  0.50861889958E+03  0.78267045536E+02 0.  0.
         11    1    3    3    0    0  0.95263495084E+01 -0.11711806118E+02  0.36814422203E+00  0.15101432637E+02  0.00000000000E+00 0.  1.
        -11    1    3    3    0    0  0.87343412923E+03 -0.16150543920E+03  0.38604455849E+03  0.96850481988E+03  0.00000000000E+00 0. -1.
          2    1    6    6  502    0 -0.12839925094E+02  0.56508762888E+01  0.15592726568E+02  0.20974489293E+02  0.00000000000E+00 0. -1.
          3    1    5    5  503    0 -0.28224409262E+03 -0.65247385554E+02  0.39412339395E+03  0.48913413170E+03  0.00000000000E+00 0. -1.
         -4    1    5    5    0  503 -0.57662149233E+03 -0.13876527775E+03  0.62819198596E+03  0.86392900110E+03  0.00000000000E+00 0.  1.
         -1    1    6    6    0  502 -0.11254968694E+02  0.37157903233E+03  0.31559375675E+03  0.48764441029E+03  0.00000000000E+00 0.  1.
<mgrwt>
<rscale>  0 0.22513025E+04</rscale>
<asrwt>0</asrwt>
<pdfrwt beam="1">  1        1 0.85028749E-01 0.22513025E+04</pdfrwt>
<pdfrwt beam="2">  1       -1 0.35270791E+00 0.22513025E+04</pdfrwt>
<totfact> 0.52170513E-01</totfact>
</mgrwt>
</event>
<event>
12    1  0.4612066E-007  0.1810644E+04  0.7818608E-02  0.8700659E-01
          2   -1    0    0  501    0  0.00000000000E+00  0.00000000000E+00  0.26159419112E+04  0.26159419112E+04  0.00000000000E+00 0. -1.
         -2   -1    0    0    0  501 -0.00000000000E+00 -0.00000000000E+00 -0.31331281267E+03  0.31331281267E+03  0.00000000000E+00 0.  1.
         23    2    1    2    0    0 -0.55593857145E+03  0.41643697624E+03  0.72917439789E+03  0.10114316283E+04  0.93867916761E+02 0.  0.
        254    2    1    2    0    0  0.55593857145E+03 -0.41643697624E+03  0.15734547007E+04  0.19178230956E+04  0.84840926477E+03 0.  0.
        -24    2    4    4    0    0  0.59682132642E+03 -0.27399074615E+03  0.49434223332E+03  0.82578373716E+03  0.79233277590E+02 0.  0.
         24    2    4    4    0    0 -0.40882754963E+02 -0.14244623009E+03  0.10791124673E+04  0.10920393584E+04  0.78127556375E+02 0.  0.
         11    1    3    3    0    0 -0.27516753877E+03  0.16029031718E+03  0.29082656332E+03  0.43126586940E+03  0.00000000000E+00 0.  1.
        -11    1    3    3    0    0 -0.28077103268E+03  0.25614665906E+03  0.43834783457E+03  0.58016575891E+03  0.00000000000E+00 0. -1.
          2    1    6    6  502    0 -0.47080542551E+02 -0.36896602842E+02  0.47397358219E+03  0.47773307757E+03  0.00000000000E+00 0. -1.
          3    1    5    5  503    0  0.32351252175E+03 -0.19157252737E+03  0.27730264775E+03  0.46717999039E+03  0.00000000000E+00 0. -1.
         -4    1    5    5    0  503  0.27330880467E+03 -0.82418218783E+02  0.21703958557E+03  0.35860374678E+03  0.00000000000E+00 0.  1.
         -1    1    6    6    0  502  0.61977875878E+01 -0.10554962724E+03  0.60513888515E+03  0.61430628086E+03  0.00000000000E+00 0.  1.
<mgrwt>
<rscale>  0 0.18106442E+04</rscale>
<asrwt>0</asrwt>
<pdfrwt beam="1">  1        2 0.40245259E+00 0.18106442E+04</pdfrwt>
<pdfrwt beam="2">  1       -2 0.48201973E-01 0.18106442E+04</pdfrwt>
<totfact> 0.11472377E+01</totfact>
</mgrwt>
</event>
<event>
12    1  0.4612066E-007  0.1697616E+04  0.7818608E-02  0.8762725E-01
         -1   -1    0    0    0  501 -0.00000000000E+00  0.00000000000E+00  0.48009802970E+03  0.48009802970E+03  0.00000000000E+00 0.  1.
          1   -1    0    0  501    0  0.00000000000E+00 -0.00000000000E+00 -0.15006839576E+04  0.15006839576E+04  0.00000000000E+00 0. -1.
         23    2    1    2    0    0  0.13585766085E+03  0.45957335233E+03  0.66087470041E+02  0.49230231272E+03  0.91263592033E+02 0.  0.
        254    2    1    2    0    0 -0.13585766085E+03 -0.45957335233E+03 -0.10866733979E+04  0.14884796745E+04  0.89724450270E+03 0.  0.
        -24    2    4    4    0    0 -0.44139702186E+03 -0.39762203576E+03 -0.37603929346E+03  0.70854909092E+03  0.87759043918E+02 0.  0.
         24    2    4    4    0    0  0.30553936102E+03 -0.61951316573E+02 -0.71063410445E+03  0.77993058362E+03  0.78093649639E+02 0.  0.
         13    1    3    3    0    0  0.35028891941E+02  0.97617913076E+02 -0.22812418033E+02  0.10619174469E+03  0.00000000000E+00 0. -1.
        -13    1    3    3    0    0  0.10082876891E+03  0.36195543926E+03  0.88899888074E+02  0.38611056803E+03  0.00000000000E+00 0.  1.
          2    1    6    6  502    0  0.14852791761E+03 -0.80300789359E+01 -0.25792281994E+03  0.29774016445E+03  0.00000000000E+00 0. -1.
          1    1    5    5  503    0 -0.62174376026E+02 -0.34134107492E+02 -0.74481663187E+02  0.10285090413E+03  0.00000000000E+00 0. -1.
         -4    1    5    5    0  503 -0.37922264584E+03 -0.36348792827E+03 -0.30155763028E+03  0.60569818680E+03  0.00000000000E+00 0.  1.
         -1    1    6    6    0  502  0.15701144340E+03 -0.53921237637E+02 -0.45271128450E+03  0.48219041917E+03  0.00000000000E+00 0.  1.
<mgrwt>
<rscale>  0 0.16976165E+04</rscale>
<asrwt>0</asrwt>
<pdfrwt beam="1">  1        1 0.23087445E+00 0.16976165E+04</pdfrwt>
<pdfrwt beam="2">  1       -1 0.73861236E-01 0.16976165E+04</pdfrwt>
<totfact> 0.11480985E+01</totfact>
</mgrwt>
</event>
<event>
12    1  0.4612066E-007  0.1324635E+04  0.7818608E-02  0.9010254E-01
          2   -1    0    0  501    0  0.00000000000E+00  0.00000000000E+00  0.19281786868E+04  0.19281786868E+04  0.00000000000E+00 0. -1.
         -2   -1    0    0    0  501 -0.00000000000E+00 -0.00000000000E+00 -0.22750204810E+03  0.22750204810E+03  0.00000000000E+00 0.  1.
         23    2    1    2    0    0 -0.11898557536E+03  0.23806831794E+03  0.10355411309E+03  0.29986137145E+03  0.91429188988E+02 0.  0.
        254    2    1    2    0    0  0.11898557536E+03 -0.23806831794E+03  0.15971225257E+04  0.18558193635E+04  0.90687984697E+03 0.  0.
        -24    2    4    4    0    0  0.29249381578E+03  0.16413758667E+03  0.12353773517E+04  0.12820892342E+04  0.71427051846E+02 0.  0.
         24    2    4    4    0    0 -0.17350824042E+03 -0.40220590460E+03  0.36174517397E+03  0.57373012932E+03  0.80199695787E+02 0.  0.
         13    1    3    3    0    0 -0.37980137770E+01  0.27174971046E+02 -0.15682892578E+02  0.31604700277E+02  0.00000000000E+00 0. -1.
        -13    1    3    3    0    0 -0.11518756159E+03  0.21089334689E+03  0.11923700567E+03  0.26825667117E+03  0.00000000000E+00 0.  1.
          2    1    6    6  502    0 -0.20436792213E+02 -0.11357191528E+03  0.12592023416E+03  0.17079855909E+03  0.00000000000E+00 0. -1.
          1    1    5    5  503    0  0.50861483070E+02  0.28296255599E+02  0.12912772834E+03  0.14163876153E+03  0.00000000000E+00 0. -1.
         -2    1    5    5    0  503  0.24163233271E+03  0.13584133107E+03  0.11062496233E+04  0.11404504727E+04  0.00000000000E+00 0.  1.
         -1    1    6    6    0  502 -0.15307144820E+03 -0.28863398933E+03  0.23582493981E+03  0.40293157023E+03  0.00000000000E+00 0.  1.
<mgrwt>
<rscale>  0 0.13246352E+04</rscale>
<asrwt>0</asrwt>
<pdfrwt beam="1">  1        2 0.29664286E+00 0.13246352E+04</pdfrwt>
<pdfrwt beam="2">  1       -2 0.35000316E-01 0.13246352E+04</pdfrwt>
<totfact> 0.54933982E+01</totfact>
</mgrwt>
</event>
<event>
12    1  0.4612066E-007  0.1512378E+04  0.7818608E-02  0.8876263E-01
         -2   -1    0    0    0  501 -0.00000000000E+00  0.00000000000E+00  0.60509529529E+03  0.60509529529E+03  0.00000000000E+00 0.  1.
          2   -1    0    0  501    0  0.00000000000E+00 -0.00000000000E+00 -0.94501056733E+03  0.94501056733E+03  0.00000000000E+00 0. -1.
         23    2    1    2    0    0  0.17704626999E+03  0.13355220023E+03  0.32886974257E+03  0.40887317266E+03  0.99198749169E+02 0.  0.
        254    2    1    2    0    0 -0.17704626999E+03 -0.13355220023E+03 -0.66878501462E+03  0.11412326900E+04  0.89775112641E+03 0.  0.
        -24    2    4    4    0    0  0.26850433340E+03  0.37886848268E+02  0.37091274080E+02  0.28541308952E+03  0.80962205581E+02 0.  0.
         24    2    4    4    0    0 -0.44555060339E+03 -0.17143904850E+03 -0.70587628870E+03  0.85581960044E+03  0.79114891327E+02 0.  0.
         11    1    3    3    0    0  0.78119471687E+01  0.56422419120E+02  0.76435738481E+02  0.95325432152E+02  0.00000000000E+00 0. -1.
        -11    1    3    3    0    0  0.16923432282E+03  0.77129781109E+02  0.25243400409E+03  0.31354774051E+03  0.00000000000E+00 0.  1.
          2    1    6    6  502    0 -0.35673280267E+03 -0.15799406743E+03 -0.61284108757E+03  0.72649474634E+03  0.00000000000E+00 0. -1.
          1    1    5    5  503    0  0.16593028111E+03  0.57763616033E+02  0.42592848014E+02  0.18078618374E+03  0.00000000000E+00 0. -1.
         -2    1    5    5    0  503  0.10257405228E+03 -0.19876767765E+02 -0.55015739343E+01  0.10462690579E+03  0.00000000000E+00 0.  1.
         -1    1    6    6    0  502 -0.88817800724E+02 -0.13444981070E+02 -0.93035201127E+02  0.12932485411E+03  0.00000000000E+00 0.  1.
<mgrwt>
<rscale>  0 0.15123775E+04</rscale>
<asrwt>0</asrwt>
<pdfrwt beam="1">  1        2 0.14538624E+00 0.15123775E+04</pdfrwt>
<pdfrwt beam="2">  1       -2 0.93091585E-01 0.15123775E+04</pdfrwt>
<totfact> 0.25811718E+01</totfact>
</mgrwt>
</event>
<event>
12    1  0.4612066E-007  0.3188629E+04  0.7818608E-02  0.8191827E-01
         -2   -1    0    0    0  501 -0.00000000000E+00  0.00000000000E+00  0.16230305133E+04  0.16230305133E+04  0.00000000000E+00 0. -1.
          2   -1    0    0  501    0  0.00000000000E+00 -0.00000000000E+00 -0.15661063695E+04  0.15661063695E+04  0.00000000000E+00 0.  1.
         23    2    1    2    0    0  0.64775240808E+03 -0.75305157591E+03 -0.10512060883E+04  0.14490505940E+04  0.89685704593E+02 0.  0.
        254    2    1    2    0    0 -0.64775240808E+03  0.75305157591E+03  0.11081302322E+04  0.17400862888E+04  0.90181917420E+03 0.  0.
        -24    2    4    4    0    0  0.16796716624E+03  0.39128186268E+02  0.39543930774E+03  0.44013053678E+03  0.87170289698E+02 0.  0.
         24    2    4    4    0    0 -0.81571957432E+03  0.71392338964E+03  0.71269092445E+03  0.12999557521E+04  0.82894953398E+02 0.  0.
         11    1    3    3    0    0  0.92973092620E+02 -0.64719219211E+02 -0.11867179868E+03  0.16405965101E+03  0.00000000000E+00 0. -1.
        -11    1    3    3    0    0  0.55477931546E+03 -0.68833235670E+03 -0.93253428967E+03  0.12849909430E+04  0.00000000000E+00 0.  1.
          2    1    6    6  502    0 -0.31128338191E+01  0.13152959012E+02  0.14202753874E+02  0.19606332721E+02  0.00000000000E+00 0. -1.
          1    1    5    5  503    0 -0.97659798050E+01  0.33909606165E+01  0.37501260072E+02  0.38900096175E+02  0.00000000000E+00 0. -1.
         -2    1    5    5    0  503  0.17773314605E+03  0.35737225651E+02  0.35793804767E+03  0.40123044060E+03  0.00000000000E+00 0.  1.
         -1    1    6    6    0  502 -0.81260674050E+03  0.70077043063E+03  0.69848817058E+03  0.12803494193E+04  0.00000000000E+00 0.  1.
<mgrwt>
<rscale>  0 0.31886288E+04</rscale>
<asrwt>0</asrwt>
<pdfrwt beam="1">  1        2 0.24093944E+00 0.31886288E+04</pdfrwt>
<pdfrwt beam="2">  1       -2 0.24969700E+00 0.31886288E+04</pdfrwt>
<totfact> 0.63377629E-01</totfact>
</mgrwt>
</event>
<event>
12    1  0.4612066E-007  0.1417138E+04  0.7818608E-02  0.8941506E-01
          1   -1    0    0  501    0  0.00000000000E+00  0.00000000000E+00  0.11989839687E+04  0.11989839687E+04  0.00000000000E+00 0. -1.
         -1   -1    0    0    0  501 -0.00000000000E+00 -0.00000000000E+00 -0.41874641274E+03  0.41874641274E+03  0.00000000000E+00 0.  1.
         23    2    1    2    0    0  0.22112655366E+02  0.13451965585E+03 -0.21457487288E+03  0.27021976869E+03  0.91606986528E+02 0.  0.
        254    2    1    2    0    0 -0.22112655366E+02 -0.13451965585E+03  0.99481242881E+03  0.13475106127E+04  0.89863706551E+03 0.  0.
        -24    2    4    4    0    0 -0.20344275358E+02  0.14202306288E+03  0.10430061956E+04  0.10558044141E+04  0.79224975906E+02 0.  0.
         24    2    4    4    0    0 -0.17683800085E+01 -0.27654271873E+03 -0.48193766781E+02  0.29170619864E+03  0.79314971586E+02 0.  0.
         13    1    3    3    0    0 -0.26122439289E+02  0.67682976815E+02 -0.56529892301E+02  0.91972799829E+02  0.00000000000E+00 0. -1.
        -13    1    3    3    0    0  0.48235094655E+02  0.66836679039E+02 -0.15804498058E+03  0.17824696886E+03  0.00000000000E+00 0.  1.
          4    1    6    6  502    0  0.12227836400E+01 -0.12968260917E+03  0.17372388110E+02  0.13084675842E+03  0.00000000000E+00 0. -1.
          3    1    5    5  503    0  0.19781606810E+01 -0.36160682714E+01  0.23001293951E+01  0.47201339660E+01  0.00000000000E+00 0. -1.
         -4    1    5    5    0  503 -0.22322436039E+02  0.14563913115E+03  0.10407060662E+04  0.10510842801E+04  0.00000000000E+00 0.  1.
         -1    1    6    6    0  502 -0.29911636485E+01 -0.14686010956E+03 -0.65566154891E+02  0.16085944022E+03  0.00000000000E+00 0.  1.
<mgrwt>
<rscale>  0 0.14171383E+04</rscale>
<asrwt>0</asrwt>
<pdfrwt beam="1">  1        1 0.18445907E+00 0.14171383E+04</pdfrwt>
<pdfrwt beam="2">  1       -1 0.64422525E-01 0.14171383E+04</pdfrwt>
<totfact> 0.25466772E+01</totfact>
</mgrwt>
</event>
<event>
12    1  0.4612066E-007  0.2185535E+04  0.7818608E-02  0.8524473E-01
          2   -1    0    0  501    0  0.00000000000E+00  0.00000000000E+00  0.93612917667E+03  0.93612917667E+03  0.00000000000E+00 0. -1.
         -2   -1    0    0    0  501 -0.00000000000E+00 -0.00000000000E+00 -0.12756155723E+04  0.12756155723E+04  0.00000000000E+00 0.  1.
         23    2    1    2    0    0 -0.83750504852E+03 -0.31925088356E+03 -0.26011685182E+03  0.93787035707E+03  0.92758811510E+02 0.  0.
        254    2    1    2    0    0  0.83750504852E+03  0.31925088356E+03 -0.79369543786E+02  0.12738743919E+04  0.90173200499E+03 0.  0.
        -24    2    4    4    0    0  0.10041691460E+04  0.19302787794E+03 -0.15573749388E+03  0.10373669154E+04  0.79123414730E+02 0.  0.
         24    2    4    4    0    0 -0.16666409745E+03  0.12622300562E+03  0.76367950091E+02  0.23650747648E+03  0.79965955911E+02 0.  0.
         13    1    3    3    0    0 -0.10682585242E+03 -0.72916406715E+02 -0.50025532303E+02  0.13867631014E+03  0.00000000000E+00 0. -1.
        -13    1    3    3    0    0 -0.73067919611E+03 -0.24633447685E+03 -0.21009131952E+03  0.79919404693E+03  0.00000000000E+00 0.  1.
          4    1    6    6  502    0 -0.95763448062E+02  0.44998263210E+02  0.73169125947E+02  0.12864370435E+03  0.00000000000E+00 0. -1.
          3    1    5    5  503    0  0.89790328556E+03  0.18094214622E+03 -0.16227264779E+03  0.93021652464E+03  0.00000000000E+00 0. -1.
         -4    1    5    5    0  503  0.10626586041E+03  0.12085731722E+02  0.65351539110E+01  0.10715039074E+03  0.00000000000E+00 0.  1.
         -3    1    6    6    0  502 -0.70900649384E+02  0.81224742411E+02  0.31988241448E+01  0.10786377213E+03  0.00000000000E+00 0.  1.
<mgrwt>
<rscale>  0 0.21855351E+04</rscale>
<asrwt>0</asrwt>
<pdfrwt beam="1">  1        2 0.14401987E+00 0.21855351E+04</pdfrwt>
<pdfrwt beam="2">  1       -2 0.19624855E+00 0.21855351E+04</pdfrwt>
<totfact> 0.35719993E+00</totfact>
</mgrwt>
</event>
<event>
12    1  0.4612066E-007  0.1563980E+04  0.7818608E-02  0.8842987E-01
         -1   -1    0    0    0  501 -0.00000000000E+00  0.00000000000E+00  0.33821405200E+03  0.33821405200E+03  0.00000000000E+00 0.  1.
          1   -1    0    0  501    0  0.00000000000E+00 -0.00000000000E+00 -0.18080514174E+04  0.18080514174E+04  0.00000000000E+00 0. -1.
         23    2    1    2    0    0 -0.32860271177E+03 -0.38755785575E+03 -0.61213321424E+03  0.80054854931E+03  0.89387214339E+02 0.  0.
        254    2    1    2    0    0  0.32860271177E+03  0.38755785575E+03 -0.85770415121E+03  0.13457169201E+04  0.90394512247E+03 0.  0.
        -24    2    4    4    0    0  0.10005035840E+03  0.64923583924E+03 -0.42995467648E+03  0.78915518920E+03  0.79922710436E+02 0.  0.
         24    2    4    4    0    0  0.22855235337E+03 -0.26167798350E+03 -0.42774947473E+03  0.55656173094E+03  0.77973084733E+02 0.  0.
         11    1    3    3    0    0 -0.18659395872E+03 -0.28298402881E+03 -0.38419083731E+03  0.51234740700E+03  0.00000000000E+00 0.  1.
        -11    1    3    3    0    0 -0.14200875306E+03 -0.10457382694E+03 -0.22794237694E+03  0.28820114231E+03  0.00000000000E+00 0. -1.
          4    1    6    6  502    0  0.23036577385E+03 -0.24215267030E+03 -0.38704866784E+03  0.51138339509E+03  0.00000000000E+00 0. -1.
          3    1    5    5  503    0  0.75500816141E+02  0.56130282440E+03 -0.33786057388E+03  0.65947782472E+03  0.00000000000E+00 0. -1.
         -4    1    5    5    0  503  0.24549542262E+02  0.87933014841E+02 -0.92094102602E+02  0.12967736448E+03  0.00000000000E+00 0.  1.
         -3    1    6    6    0  502 -0.18134204828E+01 -0.19525313202E+02 -0.40700806885E+02  0.45178335855E+02  0.00000000000E+00 0.  1.
<mgrwt>
<rscale>  0 0.15639800E+04</rscale>
<asrwt>0</asrwt>
<pdfrwt beam="1">  1        1 0.27816175E+00 0.15639800E+04</pdfrwt>
<pdfrwt beam="2">  1       -1 0.52032931E-01 0.15639800E+04</pdfrwt>
<totfact> 0.14400631E+01</totfact>
</mgrwt>
</event>
<event>
12    1  0.4612066E-007  0.1390883E+04  0.7818608E-02  0.8960445E-01
         -2   -1    0    0    0  501 -0.00000000000E+00  0.00000000000E+00  0.22854305909E+03  0.22854305909E+03  0.00000000000E+00 0. -1.
          2   -1    0    0  501    0  0.00000000000E+00 -0.00000000000E+00 -0.21161820797E+04  0.21161820797E+04  0.00000000000E+00 0.  1.
         23    2    1    2    0    0 -0.38346725759E+03  0.68564172901E+02 -0.63563510768E+03  0.75112043401E+03  0.91660966729E+02 0.  0.
        254    2    1    2    0    0  0.38346725759E+03 -0.68564172901E+02 -0.12520039129E+04  0.15936047047E+04  0.90571186015E+03 0.  0.
        -24    2    4    4    0    0  0.66672915609E+03  0.36299586866E+02 -0.87437593270E+03  0.11033201038E+04  0.83285966861E+02 0.  0.
         24    2    4    4    0    0 -0.28326189850E+03 -0.10486375977E+03 -0.37762798020E+03  0.49028460090E+03  0.80885024526E+02 0.  0.
         11    1    3    3    0    0 -0.12760865004E+03  0.14971655584E+01 -0.14079551106E+03  0.19002522202E+03  0.00000000000E+00 0. -1.
        -11    1    3    3    0    0 -0.25585860755E+03  0.67067007343E+02 -0.49483959662E+03  0.56109521199E+03  0.00000000000E+00 0.  1.
          2    1    6    6  502    0 -0.27204827218E+03 -0.77263227530E+02 -0.33803413718E+03  0.44073455347E+03  0.00000000000E+00 0. -1.
          1    1    5    5  503    0  0.45744356672E+03  0.13543952814E+02 -0.53590368470E+03  0.70472038048E+03  0.00000000000E+00 0. -1.
         -2    1    5    5    0  503  0.20928558937E+03  0.22755634052E+02 -0.33847224800E+03  0.39859972336E+03  0.00000000000E+00 0.  1.
         -1    1    6    6    0  502 -0.11213626326E+02 -0.27600532237E+02 -0.39593843018E+02  0.49550047428E+02  0.00000000000E+00 0.  1.
<mgrwt>
<rscale>  0 0.13908828E+04</rscale>
<asrwt>0</asrwt>
<pdfrwt beam="1">  1        2 0.32556646E+00 0.13908828E+04</pdfrwt>
<pdfrwt beam="2">  1       -2 0.35160472E-01 0.13908828E+04</pdfrwt>
<totfact> 0.42610441E+01</totfact>
</mgrwt>
</event>
<event>
12    1  0.4612066E-007  0.1538418E+04  0.7818608E-02  0.8859300E-01
          1   -1    0    0  501    0  0.00000000000E+00  0.00000000000E+00  0.16254450366E+04  0.16254450366E+04  0.00000000000E+00 0. -1.
         -1   -1    0    0    0  501 -0.00000000000E+00 -0.00000000000E+00 -0.36401258559E+03  0.36401258559E+03  0.00000000000E+00 0.  1.
         23    2    1    2    0    0 -0.57031590493E+02  0.40103335004E+03  0.39164766379E+02  0.41712473652E+03  0.91535876773E+02 0.  0.
        254    2    1    2    0    0  0.57031590493E+02 -0.40103335004E+03  0.12222676846E+04  0.15723328857E+04  0.90233699930E+03 0.  0.
        -24    2    4    4    0    0  0.10627316974E+03 -0.61027884293E+03  0.45909732379E+03  0.77535199292E+03  0.81646233765E+02 0.  0.
         24    2    4    4    0    0 -0.49241579243E+02  0.20924549289E+03  0.76317036082E+03  0.79698089273E+03  0.80877279397E+02 0.  0.
         13    1    3    3    0    0 -0.49694913119E+02  0.31946773745E+03  0.67847683886E+02  0.33035212708E+03  0.00000000000E+00 0. -1.
        -13    1    3    3    0    0 -0.73366773745E+01  0.81565612592E+02 -0.28682917507E+02  0.86772609440E+02  0.00000000000E+00 0.  1.
          2    1    6    6  502    0 -0.65408238708E+02  0.17376313324E+03  0.55622294881E+03  0.58639221767E+03  0.00000000000E+00 0. -1.
          3    1    5    5  503    0  0.79703821721E+02 -0.50542113090E+03  0.33930086863E+03  0.61394486577E+03  0.00000000000E+00 0. -1.
         -4    1    5    5    0  503  0.26569348016E+02 -0.10485771203E+03  0.11979645516E+03  0.16140712715E+03  0.00000000000E+00 0.  1.
         -1    1    6    6    0  502  0.16166659465E+02  0.35482359642E+02  0.20694741202E+03  0.21058867506E+03  0.00000000000E+00 0.  1.
<mgrwt>
<rscale>  0 0.15384180E+04</rscale>
<asrwt>0</asrwt>
<pdfrwt beam="1">  1        1 0.25006846E+00 0.15384180E+04</pdfrwt>
<pdfrwt beam="2">  1       -1 0.56001937E-01 0.15384180E+04</pdfrwt>
<totfact> 0.16673212E+01</totfact>
</mgrwt>
</event>
<event>
12    1  0.4612066E-007  0.2004528E+04  0.7818608E-02  0.8604506E-01
          1   -1    0    0  501    0  0.00000000000E+00  0.00000000000E+00  0.13918425659E+04  0.13918425659E+04  0.00000000000E+00 0. -1.
         -1   -1    0    0    0  501 -0.00000000000E+00 -0.00000000000E+00 -0.72172915466E+03  0.72172915466E+03  0.00000000000E+00 0.  1.
         23    2    1    2    0    0 -0.71435904584E+03 -0.26067357757E+03  0.53102786194E+03  0.93047430933E+03  0.74379363692E+02 0.  0.
        254    2    1    2    0    0  0.71435904584E+03  0.26067357757E+03  0.13908554925E+03  0.11830974112E+04  0.89560880630E+03 0.  0.
        -24    2    4    4    0    0  0.30577588882E+02  0.61441246702E+02 -0.31651201755E+03  0.33371351967E+03  0.80466391882E+02 0.  0.
         24    2    4    4    0    0  0.68378145695E+03  0.19923233087E+03  0.45559756680E+03  0.84938389151E+03  0.81444764984E+02 0.  0.
         11    1    3    3    0    0 -0.55042487667E+03 -0.19137913194E+03  0.36871208969E+03  0.68959562215E+03  0.00000000000E+00 0.  1.
        -11    1    3    3    0    0 -0.16393416917E+03 -0.69294445637E+02  0.16231577225E+03  0.24087868718E+03  0.00000000000E+00 0. -1.
          4    1    6    6  502    0  0.28217940459E+03  0.11840633498E+03  0.17074650238E+03  0.35042780228E+03  0.00000000000E+00 0. -1.
          1    1    5    5  503    0  0.23086657332E+02 -0.15689203909E+02 -0.96325698295E+02  0.10028850890E+03  0.00000000000E+00 0. -1.
         -2    1    5    5    0  503  0.74909315505E+01  0.77130450611E+02 -0.22018631925E+03  0.23342501077E+03  0.00000000000E+00 0.  1.
         -3    1    6    6    0  502  0.40160205236E+03  0.80825995892E+02  0.28485106442E+03  0.49895608923E+03  0.00000000000E+00 0.  1.
<mgrwt>
<rscale>  0 0.20045282E+04</rscale>
<asrwt>0</asrwt>
<pdfrwt beam="1">  1        1 0.21412963E+00 0.20045282E+04</pdfrwt>
<pdfrwt beam="2">  1       -1 0.11103525E+00 0.20045282E+04</pdfrwt>
<totfact> 0.53884558E+00</totfact>
</mgrwt>
</event>
<event>
12    1  0.4612066E-007  0.2303189E+04  0.7818608E-02  0.8476665E-01
         -2   -1    0    0    0  501 -0.00000000000E+00  0.00000000000E+00  0.80418015014E+03  0.80418015014E+03  0.00000000000E+00 0.  1.
          2   -1    0    0  501    0  0.00000000000E+00 -0.00000000000E+00 -0.16490960695E+04  0.16490960695E+04  0.00000000000E+00 0. -1.
         23    2    1    2    0    0  0.34864958688E+03 -0.48191603411E+03 -0.11820383902E+04  0.13264124542E+04  0.91409213825E+02 0.  0.
        254    2    1    2    0    0 -0.34864958688E+03  0.48191603411E+03  0.33712247093E+03  0.11268637654E+04  0.89575152074E+03 0.  0.
        -24    2    4    4    0    0 -0.56563211514E+03  0.57632877912E+03  0.17460247038E+03  0.82983812908E+03  0.77786544400E+02 0.  0.
         24    2    4    4    0    0  0.21698252826E+03 -0.94412745010E+02  0.16252000054E+03  0.29702563628E+03  0.76264631648E+02 0.  0.
         11    1    3    3    0    0  0.14442094080E+02 -0.16110092290E+02 -0.15510091598E+02  0.26620895860E+02  0.00000000000E+00 0.  1.
        -11    1    3    3    0    0  0.33420749280E+03 -0.46580594182E+03 -0.11665282986E+04  0.12997915584E+04  0.00000000000E+00 0. -1.
          4    1    6    6  502    0  0.18842771649E+03 -0.81543776327E+02  0.10285137729E+03  0.22963622887E+03  0.00000000000E+00 0. -1.
          3    1    5    5  503    0 -0.52058360424E+03  0.49558487111E+03  0.15744148928E+03  0.73579852951E+03  0.00000000000E+00 0. -1.
         -4    1    5    5    0  503 -0.45048510899E+02  0.80743908019E+02  0.17160981101E+02  0.94039599578E+02  0.00000000000E+00 0.  1.
         -1    1    6    6    0  502  0.28554811769E+02 -0.12868968683E+02  0.59668623250E+02  0.67389407407E+02  0.00000000000E+00 0.  1.
<mgrwt>
<rscale>  0 0.23031894E+04</rscale>
<asrwt>0</asrwt>
<pdfrwt beam="1">  1        2 0.25370708E+00 0.23031894E+04</pdfrwt>
<pdfrwt beam="2">  1       -2 0.12372003E+00 0.23031894E+04</pdfrwt>
<totfact> 0.46694022E+00</totfact>
</mgrwt>
</event>
<event>
12    1  0.4612066E-007  0.1664655E+04  0.7818608E-02  0.8781783E-01
          2   -1    0    0  501    0  0.00000000000E+00  0.00000000000E+00  0.12110250903E+04  0.12110250903E+04  0.00000000000E+00 0. -1.
         -2   -1    0    0    0  501 -0.00000000000E+00 -0.00000000000E+00 -0.57205210795E+03  0.57205210795E+03  0.00000000000E+00 0.  1.
         23    2    1    2    0    0  0.91887989664E+02  0.14624958339E+03  0.82576317542E+03  0.84866601273E+03  0.92286705445E+02 0.  0.
        254    2    1    2    0    0 -0.91887989664E+02 -0.14624958339E+03 -0.18679019308E+03  0.93441118551E+03  0.89911141918E+03 0.  0.
        -24    2    4    4    0    0 -0.40714216507E+03  0.18216959466E+03 -0.10813985354E+03  0.46566429265E+03  0.78730564092E+02 0.  0.
         24    2    4    4    0    0  0.31525417541E+03 -0.32841917805E+03 -0.78650339536E+02  0.46874689287E+03  0.79331091264E+02 0.  0.
         13    1    3    3    0    0  0.10374127801E+03  0.86984843205E+02  0.57437827594E+03  0.59011780144E+03  0.00000000000E+00 0. -1.
        -13    1    3    3    0    0 -0.11853288343E+02  0.59264740187E+02  0.25138489948E+03  0.25854821129E+03  0.00000000000E+00 0.  1.
          4    1    6    6  502    0  0.28480673638E+03 -0.25466715170E+03 -0.59190220804E+02  0.38661830981E+03  0.00000000000E+00 0. -1.
          1    1    5    5  503    0 -0.29067513935E+03  0.12423098096E+03 -0.39456233911E+02  0.31856265892E+03  0.00000000000E+00 0. -1.
         -2    1    5    5    0  503 -0.11646702573E+03  0.57938613693E+02 -0.68683619630E+02  0.14710163372E+03  0.00000000000E+00 0.  1.
         -3    1    6    6    0  502  0.30447439032E+02 -0.73752026350E+02 -0.19460118732E+02  0.82128583060E+02  0.00000000000E+00 0.  1.
<mgrwt>
<rscale>  0 0.16646555E+04</rscale>
<asrwt>0</asrwt>
<pdfrwt beam="1">  1        2 0.18631155E+00 0.16646555E+04</pdfrwt>
<pdfrwt beam="2">  1       -2 0.88008017E-01 0.16646555E+04</pdfrwt>
<totfact> 0.19810302E+01</totfact>
</mgrwt>
</event>
<event>
12    1  0.4612066E-007  0.1755002E+04  0.7818608E-02  0.8730602E-01
         -1   -1    0    0    0  501 -0.00000000000E+00  0.00000000000E+00  0.24618352147E+03  0.24618352147E+03  0.00000000000E+00 0.  1.
          1   -1    0    0  501    0  0.00000000000E+00 -0.00000000000E+00 -0.31277815512E+04  0.31277815512E+04  0.00000000000E+00 0. -1.
         23    2    1    2    0    0  0.59132257917E+02  0.60596138795E+03 -0.67206138684E+03  0.91134101106E+03  0.90499188669E+02 0.  0.
        254    2    1    2    0    0 -0.59132257917E+02 -0.60596138795E+03 -0.22095366429E+04  0.24626240617E+04  0.90098793830E+03 0.  0.
        -24    2    4    4    0    0 -0.22825489830E+03 -0.21753051987E+03 -0.14980101898E+03  0.35827209397E+03  0.80614653491E+02 0.  0.
         24    2    4    4    0    0  0.16912264038E+03 -0.38843086807E+03 -0.20597356240E+04  0.21043519677E+04  0.79406275137E+02 0.  0.
         13    1    3    3    0    0 -0.16628171590E+02  0.29462391676E+03 -0.31917946169E+03  0.43468986321E+03  0.00000000000E+00 0.  1.
        -13    1    3    3    0    0  0.75760429507E+02  0.31133747119E+03 -0.35288192515E+03  0.47665114785E+03  0.00000000000E+00 0. -1.
          4    1    6    6  502    0  0.51495996084E+02 -0.57919570265E+02 -0.28985635083E+03  0.30003869476E+03  0.00000000000E+00 0. -1.
          1    1    5    5  503    0 -0.77062846240E+02 -0.51112121928E+02 -0.88337065201E+01  0.92893302501E+02  0.00000000000E+00 0. -1.
         -2    1    5    5    0  503 -0.15119205206E+03 -0.16641839795E+03 -0.14096731246E+03  0.26537879147E+03  0.00000000000E+00 0.  1.
         -3    1    6    6    0  502  0.11762664430E+03 -0.33051129781E+03 -0.17698792731E+04  0.18043132729E+04  0.00000000000E+00 0.  1.
<mgrwt>
<rscale>  0 0.17550023E+04</rscale>
<asrwt>0</asrwt>
<pdfrwt beam="1">  1        1 0.48119715E+00 0.17550023E+04</pdfrwt>
<pdfrwt beam="2">  1       -1 0.37874389E-01 0.17550023E+04</pdfrwt>
<totfact> 0.30808888E+00</totfact>
</mgrwt>
</event>
<event>
12    1  0.4612066E-007  0.2136201E+04  0.7818608E-02  0.8545462E-01
         -2   -1    0    0    0  501 -0.00000000000E+00  0.00000000000E+00  0.96105814258E+03  0.96105814258E+03  0.00000000000E+00 0.  1.
          2   -1    0    0  501    0  0.00000000000E+00 -0.00000000000E+00 -0.11870652220E+04  0.11870652220E+04  0.00000000000E+00 0. -1.
         23    2    1    2    0    0  0.10420629589E+03 -0.43547620994E+02 -0.96513997249E+03  0.97598758924E+03  0.91111253128E+02 0.  0.
        254    2    1    2    0    0 -0.10420629589E+03  0.43547620994E+02  0.73913289309E+03  0.11721357753E+04  0.90267906520E+03 0.  0.
        -24    2    4    4    0    0  0.26606182494E+03 -0.27760242232E+02  0.73542967119E+03  0.78676421287E+03  0.81127058704E+02 0.  0.
         24    2    4    4    0    0 -0.37026812082E+03  0.71307863226E+02  0.37032218980E+01  0.38537156245E+03  0.79462158517E+02 0.  0.
         11    1    3    3    0    0  0.10606268586E+03 -0.18082620098E+02 -0.89308339320E+03  0.89954111729E+03  0.00000000000E+00 0. -1.
        -11    1    3    3    0    0 -0.18563899685E+01 -0.25465000895E+02 -0.72056579288E+02  0.76446471946E+02  0.00000000000E+00 0.  1.
          4    1    6    6  502    0 -0.68036099074E+02 -0.16834115035E+02  0.78156140077E+01  0.70522209470E+02  0.00000000000E+00 0. -1.
          3    1    5    5  503    0  0.14364993356E+03  0.24043863408E+01  0.28704046850E+03  0.32098802944E+03  0.00000000000E+00 0. -1.
         -4    1    5    5    0  503  0.12241189138E+03 -0.30164628573E+02  0.44838920269E+03  0.46577618343E+03  0.00000000000E+00 0.  1.
         -3    1    6    6    0  502 -0.30223202175E+03  0.88141978261E+02 -0.41123921096E+01  0.31484935298E+03  0.00000000000E+00 0.  1.
<mgrwt>
<rscale>  0 0.21362010E+04</rscale>
<asrwt>0</asrwt>
<pdfrwt beam="1">  1        2 0.18262542E+00 0.21362010E+04</pdfrwt>
<pdfrwt beam="2">  1       -2 0.14785510E+00 0.21362010E+04</pdfrwt>
<totfact> 0.55151545E+00</totfact>
</mgrwt>
</event>
<event>
12    1  0.4612066E-007  0.2102416E+04  0.7818608E-02  0.8560180E-01
         -1   -1    0    0    0  501 -0.00000000000E+00  0.00000000000E+00  0.67014112176E+03  0.67014112176E+03  0.00000000000E+00 0.  1.
          1   -1    0    0  501    0  0.00000000000E+00 -0.00000000000E+00 -0.16489627507E+04  0.16489627507E+04  0.00000000000E+00 0. -1.
         23    2    1    2    0    0  0.48827556824E+03  0.59965708608E+03 -0.75333124128E+01  0.77851057548E+03  0.89556205326E+02 0.  0.
        254    2    1    2    0    0 -0.48827556824E+03 -0.59965708608E+03 -0.97128831657E+03  0.15405932970E+04  0.91215407771E+03 0.  0.
        -24    2    4    4    0    0  0.23878631560E+03 -0.27923726170E+03 -0.18000742262E+03  0.41637396783E+03  0.77280373010E+02 0.  0.
         24    2    4    4    0    0 -0.72706188384E+03 -0.32041982438E+03 -0.79128089395E+03  0.11242193292E+04  0.80347994318E+02 0.  0.
         11    1    3    3    0    0  0.28830396144E+03  0.32524582641E+03  0.36322344635E+02  0.43614600136E+03  0.00000000000E+00 0.  1.
        -11    1    3    3    0    0  0.19997160680E+03  0.27441125967E+03 -0.43855657048E+02  0.34236457412E+03  0.00000000000E+00 0. -1.
          2    1    6    6  502    0 -0.50336522269E+03 -0.22660676534E+03 -0.59995460385E+03  0.81527461642E+03  0.00000000000E+00 0. -1.
          1    1    5    5  503    0  0.40447068779E+02 -0.60837799420E+02 -0.47197086646E+01  0.73208461676E+02  0.00000000000E+00 0. -1.
         -2    1    5    5    0  503  0.19833924682E+03 -0.21839946228E+03 -0.17528771395E+03  0.34316550616E+03  0.00000000000E+00 0.  1.
         -1    1    6    6    0  502 -0.22369666115E+03 -0.93813059038E+02 -0.19132629010E+03  0.30894471276E+03  0.00000000000E+00 0.  1.
<mgrwt>
<rscale>  0 0.21024155E+04</rscale>
<asrwt>0</asrwt>
<pdfrwt beam="1">  1        1 0.25368658E+00 0.21024155E+04</pdfrwt>
<pdfrwt beam="2">  1       -1 0.10309863E+00 0.21024155E+04</pdfrwt>
<totfact> 0.42182726E+00</totfact>
</mgrwt>
</event>
<event>
12    1  0.4612066E-007  0.1236744E+04  0.7818608E-02  0.9081289E-01
         -2   -1    0    0    0  501 -0.00000000000E+00  0.00000000000E+00  0.25637963517E+03  0.25637963517E+03  0.00000000000E+00 0. -1.
          2   -1    0    0  501    0  0.00000000000E+00 -0.00000000000E+00 -0.14914743735E+04  0.14914743735E+04  0.00000000000E+00 0.  1.
         23    2    1    2    0    0  0.11428020711E+03 -0.24457432208E+03 -0.21335560884E+03  0.35794134463E+03  0.98614530452E+02 0.  0.
        254    2    1    2    0    0 -0.11428020711E+03  0.24457432208E+03 -0.10217391295E+04  0.13899126640E+04  0.90279000889E+03 0.  0.
        -24    2    4    4    0    0  0.23888033637E+03 -0.22574599992E+03 -0.27374578803E+03  0.43518419301E+03  0.80146452163E+02 0.  0.
         24    2    4    4    0    0 -0.35316054348E+03  0.47032032200E+03 -0.74799334143E+03  0.95472847100E+03  0.78031017948E+02 0.  0.
         13    1    3    3    0    0  0.11724875379E+03 -0.17929156975E+03 -0.12494473056E+03  0.24799984465E+03  0.00000000000E+00 0. -1.
        -13    1    3    3    0    0 -0.29685466825E+01 -0.65282752322E+02 -0.88410878280E+02  0.10994149998E+03  0.00000000000E+00 0.  1.
          4    1    6    6  502    0 -0.31404417447E+03  0.39699180047E+03 -0.67772628296E+03  0.84589547095E+03  0.00000000000E+00 0. -1.
          3    1    5    5  503    0  0.16230901791E+03 -0.16945319701E+03 -0.23637323443E+03  0.33306292082E+03  0.00000000000E+00 0. -1.
         -4    1    5    5    0  503  0.76571318458E+02 -0.56292802908E+02 -0.37372553602E+02  0.10212127218E+03  0.00000000000E+00 0.  1.
         -3    1    6    6    0  502 -0.39116369006E+02  0.73328521530E+02 -0.70267058466E+02  0.10883300005E+03  0.00000000000E+00 0.  1.
<mgrwt>
<rscale>  0 0.12367436E+04</rscale>
<asrwt>0</asrwt>
<pdfrwt beam="1">  1        2 0.22945760E+00 0.12367436E+04</pdfrwt>
<pdfrwt beam="2">  1       -2 0.39443021E-01 0.12367436E+04</pdfrwt>
<totfact> 0.76768022E+01</totfact>
</mgrwt>
</event>
<event>
12    1  0.4612066E-007  0.1648894E+04  0.7818608E-02  0.8791061E-01
          3   -1    0    0  501    0  0.00000000000E+00  0.00000000000E+00  0.41406335521E+03  0.41406335521E+03  0.00000000000E+00 0. -1.
         -3   -1    0    0    0  501 -0.00000000000E+00 -0.00000000000E+00 -0.16415674961E+04  0.16415674961E+04  0.00000000000E+00 0.  1.
         23    2    1    2    0    0 -0.41498784966E+03  0.46182788324E+03 -0.57920074626E+03  0.85401686811E+03  0.91495341138E+02 0.  0.
        254    2    1    2    0    0  0.41498784966E+03 -0.46182788324E+03 -0.64830339463E+03  0.12016139832E+04  0.79879845021E+03 0.  0.
        -24    2    4    4    0    0  0.49047516777E+02 -0.60384195654E+03 -0.38563693150E+03  0.72263494766E+03  0.80340881645E+02 0.  0.
         24    2    4    4    0    0  0.36594033288E+03  0.14201407330E+03 -0.26266646313E+03  0.47897903555E+03  0.79667568040E+02 0.  0.
         13    1    3    3    0    0 -0.13478680350E+03  0.13597762530E+03 -0.12460089479E+03  0.22843550504E+03  0.00000000000E+00 0. -1.
        -13    1    3    3    0    0 -0.28020104616E+03  0.32585025794E+03 -0.45459985147E+03  0.62558136307E+03  0.00000000000E+00 0.  1.
          4    1    6    6  502    0  0.10652344405E+03  0.83804540773E+01 -0.50477909279E+02  0.11817569745E+03  0.00000000000E+00 0. -1.
          3    1    5    5  503    0  0.22545045759E+02 -0.55102930778E+03 -0.33891729014E+03  0.64730711929E+03  0.00000000000E+00 0. -1.
         -4    1    5    5    0  503  0.26502471019E+02 -0.52812648763E+02 -0.46719641355E+02  0.75327828376E+02  0.00000000000E+00 0.  1.
         -3    1    6    6    0  502  0.25941688883E+03  0.13363361922E+03 -0.21218855385E+03  0.36080333810E+03  0.00000000000E+00 0.  1.
<mgrwt>
<rscale>  0 0.16488941E+04</rscale>
<asrwt>0</asrwt>
<pdfrwt beam="1">  1        3 0.63702057E-01 0.16488941E+04</pdfrwt>
<pdfrwt beam="2">  1       -3 0.25254884E+00 0.16488941E+04</pdfrwt>
<totfact> 0.42318062E-01</totfact>
</mgrwt>
</event>
<event>
12    1  0.4612066E-007  0.1588726E+04  0.7818608E-02  0.8827504E-01
          2   -1    0    0  501    0  0.00000000000E+00  0.00000000000E+00  0.72012871305E+03  0.72012871305E+03  0.00000000000E+00 0.  1.
         -2   -1    0    0    0  501 -0.00000000000E+00 -0.00000000000E+00 -0.87624982001E+03  0.87624982001E+03  0.00000000000E+00 0. -1.
         23    2    1    2    0    0 -0.64452031419E+02  0.40286824823E+03 -0.40348514296E+03  0.58107599678E+03  0.91608753164E+02 0.  0.
        254    2    1    2    0    0  0.64452031419E+02 -0.40286824823E+03  0.24736403600E+03  0.10153025363E+04  0.89621056906E+03 0.  0.
        -24    2    4    4    0    0 -0.29959243406E+02  0.64880856610E+02 -0.27925028207E+03  0.30030755263E+03  0.84242651383E+02 0.  0.
         24    2    4    4    0    0  0.94411274824E+02 -0.46774910484E+03  0.52661431807E+03  0.71499498365E+03  0.78692266157E+02 0.  0.
         13    1    3    3    0    0 -0.15995466637E+02  0.33146330022E+03 -0.31892758441E+03  0.46025925134E+03  0.00000000000E+00 0.  1.
        -13    1    3    3    0    0 -0.48456564782E+02  0.71404948018E+02 -0.84557558551E+02  0.12081674545E+03  0.00000000000E+00 0. -1.
          2    1    6    6  502    0  0.82987380573E+02 -0.46124936587E+03  0.52080390278E+03  0.70062442721E+03  0.00000000000E+00 0. -1.
          3    1    5    5  503    0 -0.25042482743E+02  0.68658883521E+02 -0.28351422364E+03  0.29278231373E+03  0.00000000000E+00 0. -1.
         -4    1    5    5    0  503 -0.49167606629E+01 -0.37780269119E+01  0.42639415711E+01  0.75252388988E+01  0.00000000000E+00 0.  1.
         -3    1    6    6    0  502  0.11423894251E+02 -0.64997389754E+01  0.58104152860E+01  0.14370556440E+02  0.00000000000E+00 0.  1.
<mgrwt>
<rscale>  0 0.15887261E+04</rscale>
<asrwt>0</asrwt>
<pdfrwt beam="1">  1        2 0.11078903E+00 0.15887261E+04</pdfrwt>
<pdfrwt beam="2">  1       -2 0.13480766E+00 0.15887261E+04</pdfrwt>
<totfact> 0.15012759E+01</totfact>
</mgrwt>
</event>
<event>
12    1  0.4612066E-007  0.1409920E+04  0.7818608E-02  0.8946669E-01
          2   -1    0    0  501    0  0.00000000000E+00  0.00000000000E+00  0.24934137185E+04  0.24934137185E+04  0.00000000000E+00 0.  1.
         -2   -1    0    0    0  501 -0.00000000000E+00 -0.00000000000E+00 -0.19931264350E+03  0.19931264350E+03  0.00000000000E+00 0. -1.
         23    2    1    2    0    0 -0.45772742177E+02  0.15447803009E+03  0.14111508642E+04  0.14232053500E+04  0.90598570046E+02 0.  0.
        254    2    1    2    0    0  0.45772742177E+02 -0.15447803009E+03  0.88295021084E+03  0.12695210121E+04  0.89784403968E+03 0.  0.
        -24    2    4    4    0    0 -0.30713207373E+03  0.33075168583E+02  0.25193287014E+02  0.31998870696E+03  0.79586389414E+02 0.  0.
         24    2    4    4    0    0  0.35290481591E+03 -0.18755319867E+03  0.85775692383E+03  0.94953230513E+03  0.78400552825E+02 0.  0.
         13    1    3    3    0    0 -0.60283082872E+02  0.11236207034E+03  0.12327511901E+04  0.12393283591E+04  0.00000000000E+00 0.  1.
        -13    1    3    3    0    0  0.14510340695E+02  0.42115959749E+02  0.17839967410E+03  0.18387699087E+03  0.00000000000E+00 0. -1.
          2    1    6    6  502    0  0.42430859390E+02 -0.20265816357E+01  0.13162536817E+03  0.13831023970E+03  0.00000000000E+00 0. -1.
          1    1    5    5  503    0 -0.14853086101E+03  0.43997617777E+02  0.40954157820E+02  0.16023248761E+03  0.00000000000E+00 0. -1.
         -2    1    5    5    0  503 -0.15860121271E+03 -0.10922449194E+02 -0.15760870806E+02  0.15975621934E+03  0.00000000000E+00 0.  1.
         -1    1    6    6    0  502  0.31047395652E+03 -0.18552661704E+03  0.72613155566E+03  0.81122206543E+03  0.00000000000E+00 0.  1.
<mgrwt>
<rscale>  0 0.14099204E+04</rscale>
<asrwt>0</asrwt>
<pdfrwt beam="1">  1        2 0.38360209E+00 0.14099204E+04</pdfrwt>
<pdfrwt beam="2">  1       -2 0.30663485E-01 0.14099204E+04</pdfrwt>
<totfact> 0.33739820E+01</totfact>
</mgrwt>
</event>
<event>
12    1  0.4612066E-007  0.1867584E+04  0.7818608E-02  0.8671162E-01
          2   -1    0    0  501    0  0.00000000000E+00  0.00000000000E+00  0.24264161567E+04  0.24264161567E+04  0.00000000000E+00 0. -1.
         -2   -1    0    0    0  501 -0.00000000000E+00 -0.00000000000E+00 -0.35936445237E+03  0.35936445237E+03  0.00000000000E+00 0.  1.
         23    2    1    2    0    0 -0.32259882070E+03  0.63211566613E+03  0.79049235046E+03  0.10661945820E+04  0.90843359950E+02 0.  0.
        254    2    1    2    0    0  0.32259882070E+03 -0.63211566613E+03  0.12765593538E+04  0.17195860270E+04  0.90759688522E+03 0.  0.
        -24    2    4    4    0    0  0.57984478008E+02 -0.64115327060E+03  0.12882567030E+04  0.14423946951E+04  0.80357995134E+02 0.  0.
         24    2    4    4    0    0  0.26461434269E+03  0.90376044701E+01 -0.11697349211E+02  0.27719133196E+03  0.81214394545E+02 0.  0.
         11    1    3    3    0    0 -0.28229397941E+02  0.43759756324E+02  0.98263114245E+02  0.11120905900E+03  0.00000000000E+00 0. -1.
        -11    1    3    3    0    0 -0.29436942276E+03  0.58835590980E+03  0.69222923621E+03  0.95498552299E+03  0.00000000000E+00 0.  1.
          4    1    6    6  502    0  0.24502674428E+02  0.68674841820E+00  0.23990224570E+02  0.34298448251E+02  0.00000000000E+00 0. -1.
          3    1    5    5  503    0 -0.17026280254E+02 -0.71869508010E+02  0.16925937621E+03  0.18467229580E+03  0.00000000000E+00 0. -1.
         -4    1    5    5    0  503  0.75010758261E+02 -0.56928376259E+03  0.11189973268E+04  0.12577223993E+04  0.00000000000E+00 0.  1.
         -3    1    6    6    0  502  0.24011166826E+03  0.83508560519E+01 -0.35687573781E+02  0.24289288370E+03  0.00000000000E+00 0.  1.
<mgrwt>
<rscale>  0 0.18675842E+04</rscale>
<asrwt>0</asrwt>
<pdfrwt beam="1">  1        2 0.37329478E+00 0.18675842E+04</pdfrwt>
<pdfrwt beam="2">  1       -2 0.55286840E-01 0.18675842E+04</pdfrwt>
<totfact> 0.11094222E+01</totfact>
</mgrwt>
</event>
<event>
12    1  0.4612066E-007  0.2512757E+04  0.7818608E-02  0.8398455E-01
          2   -1    0    0  501    0  0.00000000000E+00  0.00000000000E+00  0.25670755601E+04  0.25670755601E+04  0.00000000000E+00 0. -1.
         -2   -1    0    0    0  501 -0.00000000000E+00 -0.00000000000E+00 -0.61489690613E+03  0.61489690613E+03  0.00000000000E+00 0.  1.
         23    2    1    2    0    0 -0.62826257665E+03 -0.73690224741E+03  0.14959112128E+04  0.17843133432E+04  0.91021771222E+02 0.  0.
        254    2    1    2    0    0  0.62826257665E+03  0.73690224741E+03  0.45626744124E+03  0.13976591231E+04  0.89862798691E+03 0.  0.
        -24    2    4    4    0    0  0.69918339849E+03  0.55567602901E+03  0.65326773231E+03  0.11094126150E+04  0.80027160420E+02 0.  0.
         24    2    4    4    0    0 -0.70920821847E+02  0.18122621840E+03 -0.19700029106E+03  0.28824650800E+03  0.80026429943E+02 0.  0.
         11    1    3    3    0    0 -0.54072874507E+03 -0.67557777724E+03  0.13143075165E+04  0.15735937077E+04  0.00000000000E+00 0.  1.
        -11    1    3    3    0    0 -0.87533831578E+02 -0.61324470173E+02  0.18160369626E+03  0.21071963555E+03  0.00000000000E+00 0. -1.
          2    1    6    6  502    0 -0.49830468944E+02  0.38973290632E+02 -0.85065907728E+02  0.10601038475E+03  0.00000000000E+00 0. -1.
          1    1    5    5  503    0  0.11600545521E+03  0.94978135980E+02  0.74359041063E+02  0.16735405265E+03  0.00000000000E+00 0. -1.
         -2    1    5    5    0  503  0.58317794329E+03  0.46069789303E+03  0.57890869125E+03  0.94205856239E+03  0.00000000000E+00 0.  1.
         -1    1    6    6    0  502 -0.21090352903E+02  0.14225292777E+03 -0.11193438334E+03  0.18223612325E+03  0.00000000000E+00 0.  1.
<mgrwt>
<rscale>  0 0.25127569E+04</rscale>
<asrwt>0</asrwt>
<pdfrwt beam="1">  1        2 0.39493470E+00 0.25127569E+04</pdfrwt>
<pdfrwt beam="2">  1       -2 0.94599526E-01 0.25127569E+04</pdfrwt>
<totfact> 0.26676326E+00</totfact>
</mgrwt>
</event>
<event>
12    1  0.4612066E-007  0.1818315E+04  0.7818608E-02  0.8696620E-01
         -1   -1    0    0    0  501 -0.00000000000E+00  0.00000000000E+00  0.75554039247E+03  0.75554039247E+03  0.00000000000E+00 0.  1.
          1   -1    0    0  501    0  0.00000000000E+00 -0.00000000000E+00 -0.10940078381E+04  0.10940078381E+04  0.00000000000E+00 0. -1.
         23    2    1    2    0    0 -0.14491351784E+02  0.66779825350E+03 -0.56489932434E+02  0.67557160445E+03  0.83912892992E+02 0.  0.
        254    2    1    2    0    0  0.14491351784E+02 -0.66779825350E+03 -0.28197751324E+03  0.11739766262E+04  0.92333379346E+03 0.  0.
        -24    2    4    4    0    0 -0.33885756879E+03 -0.67040043200E+03 -0.29696163259E+03  0.81187326842E+03  0.81797320229E+02 0.  0.
         24    2    4    4    0    0  0.35334892058E+03  0.26021784986E+01  0.14984119353E+02  0.36210335773E+03  0.77666510445E+02 0.  0.
         11    1    3    3    0    0  0.28133447685E+02  0.47117209949E+03 -0.39030811368E+02  0.47362225713E+03  0.00000000000E+00 0.  1.
        -11    1    3    3    0    0 -0.42624799470E+02  0.19662615401E+03 -0.17459121065E+02  0.20194934731E+03  0.00000000000E+00 0. -1.
          4    1    6    6  502    0  0.86310677469E+02  0.29845254289E+00 -0.29831009324E+02  0.91320924417E+02  0.00000000000E+00 0. -1.
          1    1    5    5  503    0 -0.28743998966E+02 -0.58149098022E+02 -0.20920469093E+01  0.64899242967E+02  0.00000000000E+00 0. -1.
         -2    1    5    5    0  503 -0.31011356983E+03 -0.61225133398E+03 -0.29486958568E+03  0.74697402546E+03  0.00000000000E+00 0.  1.
         -3    1    6    6    0  502  0.26703824311E+03  0.23037259557E+01  0.44815128677E+02  0.27078243332E+03  0.00000000000E+00 0.  1.
<mgrwt>
<rscale>  0 0.18183147E+04</rscale>
<asrwt>0</asrwt>
<pdfrwt beam="1">  1        1 0.16830890E+00 0.18183147E+04</pdfrwt>
<pdfrwt beam="2">  1       -1 0.11623698E+00 0.18183147E+04</pdfrwt>
<totfact> 0.80755386E+00</totfact>
</mgrwt>
</event>
<event>
12    1  0.4612066E-007  0.2983705E+04  0.7818608E-02  0.8248399E-01
          2   -1    0    0  501    0  0.00000000000E+00  0.00000000000E+00  0.47182965878E+04  0.47182965878E+04  0.00000000000E+00 0. -1.
         -2   -1    0    0    0  501 -0.00000000000E+00 -0.00000000000E+00 -0.47170061062E+03  0.47170061062E+03  0.00000000000E+00 0.  1.
         23    2    1    2    0    0 -0.41128468938E+03 -0.12322047298E+04  0.10999073313E+04  0.17043497513E+04  0.86766037929E+02 0.  0.
        254    2    1    2    0    0  0.41128468938E+03  0.12322047298E+04  0.31466886459E+04  0.34856474472E+04  0.74873566775E+03 0.  0.
        -24    2    4    4    0    0  0.77346365065E+02  0.13663576012E+03  0.50055413586E+02  0.18305270027E+03  0.79692882465E+02 0.  0.
         24    2    4    4    0    0  0.33393832431E+03  0.10955689697E+04  0.30966332323E+04  0.33025947469E+04  0.78794132174E+02 0.  0.
         11    1    3    3    0    0 -0.69949195240E+02 -0.27766520512E+03  0.28081615129E+03  0.40105930593E+03  0.00000000000E+00 0. -1.
        -11    1    3    3    0    0 -0.34133549414E+03 -0.95453952465E+03  0.81909118005E+03  0.13032904453E+04  0.00000000000E+00 0.  1.
          2    1    6    6  502    0  0.11288418349E+03  0.30439335435E+03  0.79350021562E+03  0.85734517276E+03  0.00000000000E+00 0. -1.
          3    1    5    5  503    0 -0.87499107041E+01  0.91245018250E+01 -0.11738221786E+02  0.17251183194E+02  0.00000000000E+00 0. -1.
         -4    1    5    5    0  503  0.86096275769E+02  0.12751125829E+03  0.61793635371E+02  0.16580151708E+03  0.00000000000E+00 0.  1.
         -1    1    6    6    0  502  0.22105414083E+03  0.79117561531E+03  0.23031330167E+04  0.24452495742E+04  0.00000000000E+00 0.  1.
<mgrwt>
<rscale>  0 0.29837047E+04</rscale>
<asrwt>0</asrwt>
<pdfrwt beam="1">  1        2 0.72589175E+00 0.29837047E+04</pdfrwt>
<pdfrwt beam="2">  1       -2 0.72569328E-01 0.29837047E+04</pdfrwt>
<totfact> 0.10788830E-01</totfact>
</mgrwt>
</event>
<event>
12    1  0.4612066E-007  0.3424924E+04  0.7818608E-02  0.8131816E-01
          2   -1    0    0  501    0  0.00000000000E+00  0.00000000000E+00  0.40648287589E+04  0.40648287589E+04  0.00000000000E+00 0. -1.
         -2   -1    0    0    0  501 -0.00000000000E+00 -0.00000000000E+00 -0.72143913119E+03  0.72143913119E+03  0.00000000000E+00 0.  1.
         23    2    1    2    0    0  0.23927021967E+03 -0.11826489516E+04  0.30111467402E+04  0.32451635349E+04  0.90404073763E+02 0.  0.
        254    2    1    2    0    0 -0.23927021967E+03  0.11826489516E+04  0.33224288751E+03  0.15411043552E+04  0.89928222303E+03 0.  0.
        -24    2    4    4    0    0  0.74436335677E+01  0.12244251388E+04  0.35681816882E+03  0.12778379720E+04  0.79236031797E+02 0.  0.
         24    2    4    4    0    0 -0.24671385323E+03 -0.41776187269E+02 -0.24575281309E+02  0.26326638323E+03  0.78052987681E+02 0.  0.
         13    1    3    3    0    0  0.75583344634E+02 -0.21761093695E+03  0.62146391371E+03  0.66278560479E+03  0.00000000000E+00 0. -1.
        -13    1    3    3    0    0  0.16368687503E+03 -0.96503801461E+03  0.23896828265E+04  0.25823779301E+04  0.00000000000E+00 0.  1.
          2    1    6    6  502    0 -0.20424561639E+03 -0.44808936355E+02  0.86168537669E+01  0.20928058381E+03  0.00000000000E+00 0. -1.
          3    1    5    5  503    0  0.36479116530E+01  0.90366196293E+03  0.22672937790E+03  0.93167830355E+03  0.00000000000E+00 0. -1.
         -4    1    5    5    0  503  0.37957219147E+01  0.32076317590E+03  0.13008879092E+03  0.34615966842E+03  0.00000000000E+00 0.  1.
         -3    1    6    6    0  502 -0.42468236844E+02  0.30327490856E+01 -0.33192135076E+02  0.53985799416E+02  0.00000000000E+00 0.  1.
<mgrwt>
<rscale>  0 0.34249242E+04</rscale>
<asrwt>0</asrwt>
<pdfrwt beam="1">  1        2 0.62535826E+00 0.34249242E+04</pdfrwt>
<pdfrwt beam="2">  1       -2 0.11099064E+00 0.34249242E+04</pdfrwt>
<totfact> 0.16048708E-01</totfact>
</mgrwt>
</event>
<event>
12    1  0.4612066E-007  0.1345038E+04  0.7818608E-02  0.8994593E-01
          1   -1    0    0  501    0  0.00000000000E+00  0.00000000000E+00  0.11662470976E+04  0.11662470976E+04  0.00000000000E+00 0. -1.
         -1   -1    0    0    0  501 -0.00000000000E+00 -0.00000000000E+00 -0.38780942301E+03  0.38780942301E+03  0.00000000000E+00 0.  1.
         23    2    1    2    0    0 -0.23422657961E+02 -0.25160458354E+03 -0.89889099030E+02  0.28329032105E+03  0.91213313265E+02 0.  0.
        254    2    1    2    0    0  0.23422657961E+02  0.25160458354E+03  0.86832677359E+03  0.12707661995E+04  0.89274960699E+03 0.  0.
        -24    2    4    4    0    0 -0.21601985394E+03 -0.11808586840E+03 -0.36506764716E+02  0.26127874829E+03  0.79529810910E+02 0.  0.
         24    2    4    4    0    0  0.23944251190E+03  0.36969045194E+03  0.90483353831E+03  0.10094874512E+04  0.79608010993E+02 0.  0.
         13    1    3    3    0    0 -0.54019352378E+02 -0.14363873028E+03 -0.72532410808E+02  0.16973840427E+03  0.00000000000E+00 0.  1.
        -13    1    3    3    0    0  0.30596694418E+02 -0.10796585326E+03 -0.17356688223E+02  0.11355191678E+03  0.00000000000E+00 0. -1.
          4    1    6    6  502    0  0.23327553827E+03  0.31211304990E+03  0.79175916609E+03  0.88244807766E+03  0.00000000000E+00 0. -1.
          1    1    5    5  503    0 -0.10307818189E+03 -0.12489392224E+02 -0.20488136584E+02  0.10583411662E+03  0.00000000000E+00 0. -1.
         -2    1    5    5    0  503 -0.11294167205E+03 -0.10559647618E+03 -0.16018628133E+02  0.15544463167E+03  0.00000000000E+00 0.  1.
         -3    1    6    6    0  502  0.61669736343E+01  0.57577402040E+02  0.11307437221E+03  0.12703937359E+03  0.00000000000E+00 0.  1.
<mgrwt>
<rscale>  0 0.13450377E+04</rscale>
<asrwt>0</asrwt>
<pdfrwt beam="1">  1        1 0.17942263E+00 0.13450377E+04</pdfrwt>
<pdfrwt beam="2">  1       -1 0.59662989E-01 0.13450377E+04</pdfrwt>
<totfact> 0.31553267E+01</totfact>
</mgrwt>
</event>
<event>
12    1  0.4612066E-007  0.2076456E+04  0.7818608E-02  0.8571686E-01
          2   -1    0    0  501    0  0.00000000000E+00  0.00000000000E+00  0.19959598482E+04  0.19959598482E+04  0.00000000000E+00 0. -1.
         -2   -1    0    0    0  501 -0.00000000000E+00 -0.00000000000E+00 -0.54004977038E+03  0.54004977038E+03  0.00000000000E+00 0.  1.
         23    2    1    2    0    0  0.20042260997E+03  0.73176698257E+03  0.10499336744E+04  0.12983263915E+04  0.87398849502E+02 0.  0.
        254    2    1    2    0    0 -0.20042260997E+03 -0.73176698257E+03  0.40597640336E+03  0.12376832270E+04  0.88960147875E+03 0.  0.
        -24    2    4    4    0    0 -0.19552659516E+03 -0.75633686093E+03 -0.36204402800E+02  0.78613453481E+03  0.80128967402E+02 0.  0.
         24    2    4    4    0    0 -0.48960148096E+01  0.24569878359E+02  0.44218080616E+03  0.45154869221E+03  0.88004012500E+02 0.  0.
         13    1    3    3    0    0 -0.19348355866E+01  0.14870407349E+02  0.44872808117E+02  0.47312170863E+02  0.00000000000E+00 0.  1.
        -13    1    3    3    0    0  0.20235744556E+03  0.71689657522E+03  0.10050608663E+04  0.12510142207E+04  0.00000000000E+00 0. -1.
          4    1    6    6  502    0  0.11469158081E+02 -0.11645453754E+02  0.35889587375E+03  0.35926787551E+03  0.00000000000E+00 0. -1.
          3    1    5    5  503    0 -0.18192093634E+03 -0.74408718947E+03 -0.41347078604E+02  0.76711834388E+03  0.00000000000E+00 0. -1.
         -4    1    5    5    0  503 -0.13605658821E+02 -0.12249671461E+02  0.51426758046E+01  0.19016190925E+02  0.00000000000E+00 0.  1.
         -3    1    6    6    0  502 -0.16365172891E+02  0.36215332113E+02  0.83284932409E+02  0.92280816696E+02  0.00000000000E+00 0.  1.
<mgrwt>
<rscale>  0 0.20764563E+04</rscale>
<asrwt>0</asrwt>
<pdfrwt beam="1">  1        2 0.30707074E+00 0.20764563E+04</pdfrwt>
<pdfrwt beam="2">  1       -2 0.83084581E-01 0.20764563E+04</pdfrwt>
<totfact> 0.78682310E+00</totfact>
</mgrwt>
</event>
<event>
12    1  0.4612066E-007  0.1714606E+04  0.7818608E-02  0.8753078E-01
          2   -1    0    0  501    0  0.00000000000E+00  0.00000000000E+00  0.24763447389E+04  0.24763447389E+04  0.00000000000E+00 0. -1.
         -2   -1    0    0    0  501 -0.00000000000E+00 -0.00000000000E+00 -0.29679561128E+03  0.29679561128E+03  0.00000000000E+00 0.  1.
         23    2    1    2    0    0  0.51005343451E+03  0.24269261130E+02  0.23109118375E+03  0.56753946295E+03  0.89187463858E+02 0.  0.
        254    2    1    2    0    0 -0.51005343451E+03 -0.24269261130E+02  0.19484579438E+04  0.22056008872E+04  0.89857855060E+03 0.  0.
        -24    2    4    4    0    0 -0.72081599728E+03 -0.12564734760E+03  0.17125252675E+04  0.18640012839E+04  0.79968971468E+02 0.  0.
         24    2    4    4    0    0  0.21076256277E+03  0.10137808647E+03  0.23593267630E+03  0.34159960333E+03  0.79546759624E+02 0.  0.
         11    1    3    3    0    0  0.41115473579E+03  0.40902827740E+02  0.15363563197E+03  0.44082328147E+03  0.00000000000E+00 0.  1.
        -11    1    3    3    0    0  0.98898698719E+02 -0.16633566610E+02  0.77455551776E+02  0.12671618147E+03  0.00000000000E+00 0. -1.
          2    1    6    6  502    0  0.15343733003E+03  0.33162352902E+02  0.13586444736E+03  0.20760998038E+03  0.00000000000E+00 0. -1.
          3    1    5    5  503    0 -0.58505815799E+03 -0.81302133872E+02  0.14369267896E+04  0.15535963710E+04  0.00000000000E+00 0. -1.
         -4    1    5    5    0  503 -0.13575783929E+03 -0.44345213730E+02  0.27559847788E+03  0.31040491285E+03  0.00000000000E+00 0.  1.
         -1    1    6    6    0  502  0.57325232742E+02  0.68215733570E+02  0.10006822894E+03  0.13398962295E+03  0.00000000000E+00 0.  1.
<mgrwt>
<rscale>  0 0.17146058E+04</rscale>
<asrwt>0</asrwt>
<pdfrwt beam="1">  1        2 0.38097610E+00 0.17146058E+04</pdfrwt>
<pdfrwt beam="2">  1       -2 0.45660865E-01 0.17146058E+04</pdfrwt>
<totfact> 0.15553651E+01</totfact>
</mgrwt>
</event>
<event>
12    1  0.4612066E-007  0.1394615E+04  0.7818608E-02  0.8957725E-01
         -2   -1    0    0    0  501 -0.00000000000E+00  0.00000000000E+00  0.20599686490E+03  0.20599686490E+03  0.00000000000E+00 0.  1.
          2   -1    0    0  501    0  0.00000000000E+00 -0.00000000000E+00 -0.23604146798E+04  0.23604146798E+04  0.00000000000E+00 0. -1.
         23    2    1    2    0    0  0.84523064930E+02 -0.89914525371E+02  0.67447878841E+02  0.16689298586E+03  0.89862572806E+02 0.  0.
        254    2    1    2    0    0 -0.84523064930E+02  0.89914525371E+02 -0.22218656937E+04  0.23995185588E+04  0.89764880814E+03 0.  0.
        -24    2    4    4    0    0 -0.37219264399E+03 -0.24270027729E+03 -0.97469061523E+03  0.10744661660E+04  0.83815020286E+02 0.  0.
         24    2    4    4    0    0  0.28766957906E+03  0.33261480266E+03 -0.12471750785E+04  0.13250523928E+04  0.83257273574E+02 0.  0.
         11    1    3    3    0    0  0.76898995072E+02 -0.10822712370E+03  0.60173606521E+02  0.14576497751E+03  0.00000000000E+00 0.  1.
        -11    1    3    3    0    0  0.76240698578E+01  0.18312598332E+02  0.72742723207E+01  0.21128008346E+02  0.00000000000E+00 0. -1.
          4    1    6    6  502    0  0.29275790267E+03  0.32830876179E+03 -0.12370460266E+04  0.13129267705E+04  0.00000000000E+00 0. -1.
          1    1    5    5  503    0 -0.35436920561E+03 -0.22075006108E+03 -0.85511885710E+03  0.95159675447E+03  0.00000000000E+00 0. -1.
         -2    1    5    5    0  503 -0.17823438381E+02 -0.21950216208E+02 -0.11957175813E+03  0.12286941153E+03  0.00000000000E+00 0.  1.
         -3    1    6    6    0  502 -0.50883236049E+01  0.43060408732E+01 -0.10129051832E+02  0.12125622298E+02  0.00000000000E+00 0.  1.
<mgrwt>
<rscale>  0 0.13946154E+04</rscale>
<asrwt>0</asrwt>
<pdfrwt beam="1">  1        2 0.36314073E+00 0.13946154E+04</pdfrwt>
<pdfrwt beam="2">  1       -2 0.31691825E-01 0.13946154E+04</pdfrwt>
<totfact> 0.37827231E+01</totfact>
</mgrwt>
</event>
<event>
12    1  0.4612066E-007  0.1576148E+04  0.7818608E-02  0.8835336E-01
         -2   -1    0    0    0  501 -0.00000000000E+00  0.00000000000E+00  0.20398882589E+03  0.20398882589E+03  0.00000000000E+00 0.  1.
          2   -1    0    0  501    0  0.00000000000E+00 -0.00000000000E+00 -0.30445827155E+04  0.30445827155E+04  0.00000000000E+00 0. -1.
         23    2    1    2    0    0  0.73885612554E+02  0.46764101960E+03 -0.47906597423E+03  0.67943857260E+03  0.89360837695E+02 0.  0.
        254    2    1    2    0    0 -0.73885612554E+02 -0.46764101960E+03 -0.23615279154E+04  0.25691329688E+04  0.89413808179E+03 0.  0.
        -24    2    4    4    0    0  0.86814689373E+02 -0.14524138309E+03 -0.91761115353E+01  0.18796119237E+03  0.81322562437E+02 0.  0.
         24    2    4    4    0    0 -0.16070030193E+03 -0.32239963651E+03 -0.23523518039E+04  0.23811717765E+04  0.81571484987E+02 0.  0.
         13    1    3    3    0    0  0.94001840381E+02  0.40755500156E+03 -0.40958628332E+03  0.58540443181E+03  0.00000000000E+00 0.  1.
        -13    1    3    3    0    0 -0.20116227827E+02  0.60086018038E+02 -0.69479690910E+02  0.94034140793E+02  0.00000000000E+00 0. -1.
          2    1    6    6  502    0 -0.14013955360E+03 -0.28423746431E+03 -0.18494236672E+04  0.18763789413E+04  0.00000000000E+00 0. -1.
          3    1    5    5  503    0  0.94707664009E+02 -0.90957182404E+02 -0.17519744418E+02  0.13247525089E+03  0.00000000000E+00 0. -1.
         -4    1    5    5    0  503 -0.78929746362E+01 -0.54284200682E+02  0.83436328823E+01  0.55485941480E+02  0.00000000000E+00 0.  1.
         -1    1    6    6    0  502 -0.20560748328E+02 -0.38162172201E+02 -0.50292813670E+03  0.50479283517E+03  0.00000000000E+00 0.  1.
<mgrwt>
<rscale>  0 0.15761483E+04</rscale>
<asrwt>0</asrwt>
<pdfrwt beam="1">  1        2 0.46839734E+00 0.15761483E+04</pdfrwt>
<pdfrwt beam="2">  1       -2 0.31382896E-01 0.15761483E+04</pdfrwt>
<totfact> 0.14875184E+01</totfact>
</mgrwt>
</event>
<event>
12    1  0.4612066E-007  0.1565047E+04  0.7818608E-02  0.8842314E-01
          2   -1    0    0  501    0  0.00000000000E+00  0.00000000000E+00  0.41441559199E+04  0.41441559199E+04  0.00000000000E+00 0.  1.
         -2   -1    0    0    0  501 -0.00000000000E+00 -0.00000000000E+00 -0.14776053966E+03  0.14776053966E+03  0.00000000000E+00 0. -1.
         23    2    1    2    0    0  0.14493935265E+03  0.12018591267E+03  0.26668157710E+04  0.26749777744E+04  0.90264430659E+02 0.  0.
        254    2    1    2    0    0 -0.14493935265E+03 -0.12018591267E+03  0.13295796093E+04  0.16169386852E+04  0.90069789875E+03 0.  0.
        -24    2    4    4    0    0  0.23511348712E+02  0.13278934409E+03 -0.78069699177E+02  0.17469364255E+03  0.78975929216E+02 0.  0.
         24    2    4    4    0    0 -0.16845070136E+03 -0.25297525676E+03  0.14076493085E+04  0.14422450427E+04  0.78880087483E+02 0.  0.
         11    1    3    3    0    0  0.41180474888E+02  0.42057107151E+00  0.94156033614E+03  0.94246054293E+03  0.00000000000E+00 0.  1.
        -11    1    3    3    0    0  0.10375887776E+03  0.11976534160E+03  0.17252554349E+04  0.17325172314E+04  0.00000000000E+00 0. -1.
          2    1    6    6  502    0 -0.18174542950E+02 -0.16859030524E+02  0.47302037405E+02  0.53404341250E+02  0.00000000000E+00 0. -1.
          3    1    5    5  503    0  0.18456368064E-01  0.41895483844E+01  0.14120205125E+02  0.14728640435E+02  0.00000000000E+00 0. -1.
         -4    1    5    5    0  503  0.23492892344E+02  0.12859979570E+03 -0.92189904302E+02  0.15996500211E+03  0.00000000000E+00 0.  1.
         -1    1    6    6    0  502 -0.15027615841E+03 -0.23611622623E+03  0.13603472711E+04  0.13888407014E+04  0.00000000000E+00 0.  1.
<mgrwt>
<rscale>  0 0.15650466E+04</rscale>
<asrwt>0</asrwt>
<pdfrwt beam="1">  1        2 0.63756236E+00 0.15650466E+04</pdfrwt>
<pdfrwt beam="2">  1       -2 0.22732394E-01 0.15650466E+04</pdfrwt>
<totfact> 0.43569204E+00</totfact>
</mgrwt>
</event>
<event>
12    1  0.4612066E-007  0.1729385E+04  0.7818608E-02  0.8744780E-01
         -2   -1    0    0    0  501 -0.00000000000E+00  0.00000000000E+00  0.11718439906E+04  0.11718439906E+04  0.00000000000E+00 0. -1.
          2   -1    0    0  501    0  0.00000000000E+00 -0.00000000000E+00 -0.63804824014E+03  0.63804824014E+03  0.00000000000E+00 0.  1.
         23    2    1    2    0    0  0.18733614747E+03  0.58403699756E+03  0.17412199487E+03  0.64382141992E+03  0.89406403445E+02 0.  0.
        254    2    1    2    0    0 -0.18733614747E+03 -0.58403699756E+03  0.35967375555E+03  0.11660708108E+04  0.92420878521E+03 0.  0.
        -24    2    4    4    0    0 -0.60317680189E+02 -0.70505582345E+03 -0.49202715343E+02  0.71358249155E+03  0.77698959662E+02 0.  0.
         24    2    4    4    0    0 -0.12701846728E+03  0.12101882588E+03  0.40887647089E+03  0.45248831923E+03  0.82379993574E+02 0.  0.
         11    1    3    3    0    0  0.62649211616E+02  0.19421527481E+03  0.14725399882E+02  0.20460042543E+03  0.00000000000E+00 0.  1.
        -11    1    3    3    0    0  0.12468693585E+03  0.38982172275E+03  0.15939659499E+03  0.43922099448E+03  0.00000000000E+00 0. -1.
          4    1    6    6  502    0 -0.44518427530E+02 -0.30354939867E+01  0.85511733871E+02  0.96453933269E+02  0.00000000000E+00 0. -1.
          1    1    5    5  503    0 -0.33573927137E+02 -0.33857946047E+03  0.14974012745E+02  0.34056934785E+03  0.00000000000E+00 0. -1.
         -2    1    5    5    0  503 -0.26743753052E+02 -0.36647636297E+03 -0.64176728089E+02  0.37301314370E+03  0.00000000000E+00 0.  1.
         -3    1    6    6    0  502 -0.82500039752E+02  0.12405431987E+03  0.32336473702E+03  0.35603438596E+03  0.00000000000E+00 0.  1.
<mgrwt>
<rscale>  0 0.17293849E+04</rscale>
<asrwt>0</asrwt>
<pdfrwt beam="1">  1        2 0.98161268E-01 0.17293849E+04</pdfrwt>
<pdfrwt beam="2">  1       -2 0.18028369E+00 0.17293849E+04</pdfrwt>
<totfact> 0.78773580E+00</totfact>
</mgrwt>
</event>
<event>
12    1  0.4612066E-007  0.2369956E+04  0.7818608E-02  0.8450838E-01
          2   -1    0    0  501    0  0.00000000000E+00  0.00000000000E+00  0.11491397346E+04  0.11491397346E+04  0.00000000000E+00 0. -1.
         -2   -1    0    0    0  501 -0.00000000000E+00 -0.00000000000E+00 -0.12219342729E+04  0.12219342729E+04  0.00000000000E+00 0.  1.
         23    2    1    2    0    0  0.49117985544E+03 -0.12694290041E+03 -0.90576229335E+03  0.10415072840E+04  0.83426255694E+02 0.  0.
        254    2    1    2    0    0 -0.49117985544E+03  0.12694290041E+03  0.83296775509E+03  0.13295667236E+04  0.90362616221E+03 0.  0.
        -24    2    4    4    0    0 -0.36469019197E+03 -0.77277832626E+02  0.96946473462E+03  0.10417445149E+04  0.79993519003E+02 0.  0.
         24    2    4    4    0    0 -0.12648966347E+03  0.20422073304E+03 -0.13649697954E+03  0.28782220867E+03  0.80650205299E+02 0.  0.
         11    1    3    3    0    0  0.40040562057E+03 -0.73480940828E+02 -0.68361991497E+03  0.79565086425E+03  0.00000000000E+00 0. -1.
        -11    1    3    3    0    0  0.90774234877E+02 -0.53461959586E+02 -0.22214237839E+03  0.24585641972E+03  0.00000000000E+00 0.  1.
          4    1    6    6  502    0 -0.50800930397E+02  0.36402801959E+02 -0.73166651686E+01  0.62924018537E+02  0.00000000000E+00 0. -1.
          1    1    5    5  503    0 -0.89325828791E+02 -0.54993929418E+02  0.27820833240E+03  0.29732694492E+03  0.00000000000E+00 0. -1.
         -2    1    5    5    0  503 -0.27536436318E+03 -0.22283903208E+02  0.69125640223E+03  0.74441756996E+03  0.00000000000E+00 0.  1.
         -3    1    6    6    0  502 -0.75688733077E+02  0.16781793108E+03 -0.12918031437E+03  0.22489819014E+03  0.00000000000E+00 0.  1.
<mgrwt>
<rscale>  0 0.23699563E+04</rscale>
<asrwt>0</asrwt>
<pdfrwt beam="1">  1        2 0.17679073E+00 0.23699563E+04</pdfrwt>
<pdfrwt beam="2">  1       -2 0.18798989E+00 0.23699563E+04</pdfrwt>
<totfact> 0.29299232E+00</totfact>
</mgrwt>
</event>
<event>
12    1  0.4612066E-007  0.1828351E+04  0.7818608E-02  0.8691367E-01
         -2   -1    0    0    0  501 -0.00000000000E+00  0.00000000000E+00  0.41906348486E+03  0.41906348486E+03  0.00000000000E+00 0.  1.
          2   -1    0    0  501    0  0.00000000000E+00 -0.00000000000E+00 -0.19942478149E+04  0.19942478149E+04  0.00000000000E+00 0. -1.
         23    2    1    2    0    0  0.67498046318E+03  0.77234226249E+02 -0.44116964314E+03  0.81504225602E+03  0.89997076009E+02 0.  0.
        254    2    1    2    0    0 -0.67498046318E+03 -0.77234226249E+02 -0.11340146869E+04  0.15982690437E+04  0.89828217987E+03 0.  0.
        -24    2    4    4    0    0 -0.66414380917E+03  0.43191444310E+02 -0.27065924818E+03  0.72294198003E+03  0.80225792264E+02 0.  0.
         24    2    4    4    0    0 -0.10836654005E+02 -0.12042567056E+03 -0.86335543870E+03  0.87532706368E+03  0.78708828532E+02 0.  0.
         13    1    3    3    0    0  0.20002929314E+03  0.24991995172E+02 -0.18135494528E+03  0.27115665973E+03  0.00000000000E+00 0. -1.
        -13    1    3    3    0    0  0.47495117004E+03  0.52242231078E+02 -0.25981469786E+03  0.54388559629E+03  0.00000000000E+00 0.  1.
          4    1    6    6  502    0 -0.43744308278E+02 -0.84936381085E+02 -0.54418964974E+03  0.55251255933E+03  0.00000000000E+00 0. -1.
          1    1    5    5  503    0 -0.83489453093E+02  0.13803002196E+00 -0.70105606191E+01  0.83783386123E+02  0.00000000000E+00 0. -1.
         -2    1    5    5    0  503 -0.58065435608E+03  0.43053414288E+02 -0.26364868756E+03  0.63915859391E+03  0.00000000000E+00 0.  1.
         -3    1    6    6    0  502  0.32907654273E+02 -0.35489289474E+02 -0.31916578896E+03  0.32281450435E+03  0.00000000000E+00 0.  1.
<mgrwt>
<rscale>  0 0.18283506E+04</rscale>
<asrwt>0</asrwt>
<pdfrwt beam="1">  1        2 0.30680736E+00 0.18283506E+04</pdfrwt>
<pdfrwt beam="2">  1       -2 0.64471304E-01 0.18283506E+04</pdfrwt>
<totfact> 0.14085573E+01</totfact>
</mgrwt>
</event>
<event>
12    1  0.4612066E-007  0.1252846E+04  0.7818608E-02  0.9067818E-01
          1   -1    0    0  501    0  0.00000000000E+00  0.00000000000E+00  0.14425454065E+04  0.14425454065E+04  0.00000000000E+00 0. -1.
         -1   -1    0    0    0  501 -0.00000000000E+00 -0.00000000000E+00 -0.27202331902E+03  0.27202331902E+03  0.00000000000E+00 0.  1.
         23    2    1    2    0    0 -0.42249350126E+02 -0.27885962561E+03  0.17294801556E+03  0.34437136320E+03  0.95566319004E+02 0.  0.
        254    2    1    2    0    0  0.42249350126E+02  0.27885962561E+03  0.99757407197E+03  0.13701973624E+04  0.89595707731E+03 0.  0.
        -24    2    4    4    0    0  0.39543379853E+03  0.28389708392E+03  0.28146479302E+03  0.56754674832E+03  0.76950884030E+02 0.  0.
         24    2    4    4    0    0 -0.35318444840E+03 -0.50374583104E+01  0.71610927895E+03  0.80265061403E+03  0.81675444514E+02 0.  0.
         11    1    3    3    0    0 -0.20790720815E+02 -0.68424759941E+02  0.95070241801E+02  0.11896450194E+03  0.00000000000E+00 0. -1.
        -11    1    3    3    0    0 -0.21458629311E+02 -0.21043486566E+03  0.77877773756E+02  0.22540686126E+03  0.00000000000E+00 0.  1.
          4    1    6    6  502    0 -0.34032071490E+03 -0.12625073477E+01  0.63506417239E+03  0.72050418872E+03  0.00000000000E+00 0. -1.
          1    1    5    5  503    0  0.34296344502E+03  0.25812119801E+03  0.27241689362E+03  0.50839103199E+03  0.00000000000E+00 0. -1.
         -2    1    5    5    0  503  0.52470353502E+02  0.25775885910E+02  0.90478993982E+01  0.59155716331E+02  0.00000000000E+00 0.  1.
         -3    1    6    6    0  502 -0.12863733502E+02 -0.37749509627E+01  0.81045106564E+02  0.82146425317E+02  0.00000000000E+00 0.  1.
<mgrwt>
<rscale>  0 0.12528463E+04</rscale>
<asrwt>0</asrwt>
<pdfrwt beam="1">  1        1 0.22193006E+00 0.12528463E+04</pdfrwt>
<pdfrwt beam="2">  1       -1 0.41849742E-01 0.12528463E+04</pdfrwt>
<totfact> 0.39627354E+01</totfact>
</mgrwt>
</event>
<event>
12    1  0.4612066E-007  0.2446250E+04  0.7818608E-02  0.8422388E-01
         -2   -1    0    0    0  501 -0.00000000000E+00  0.00000000000E+00  0.57919530265E+03  0.57919530265E+03  0.00000000000E+00 0.  1.
          2   -1    0    0  501    0  0.00000000000E+00 -0.00000000000E+00 -0.25829540933E+04  0.25829540933E+04  0.00000000000E+00 0. -1.
         23    2    1    2    0    0  0.47878210266E+03 -0.91587828315E+03 -0.57229614794E+03  0.11849758091E+04  0.92625351576E+02 0.  0.
        254    2    1    2    0    0 -0.47878210266E+03  0.91587828315E+03 -0.14314626427E+04  0.19771735869E+04  0.88998020419E+03 0.  0.
        -24    2    4    4    0    0 -0.86819136736E+02  0.89778418402E+03 -0.12341400342E+04  0.15307011168E+04  0.79939234737E+02 0.  0.
         24    2    4    4    0    0 -0.39196296592E+03  0.18094099133E+02 -0.19732260846E+03  0.44647247010E+03  0.80243950945E+02 0.  0.
         13    1    3    3    0    0  0.26641900753E+03 -0.41078692954E+03 -0.26278787126E+03  0.55568197229E+03  0.00000000000E+00 0. -1.
        -13    1    3    3    0    0  0.21236309513E+03 -0.50509135361E+03 -0.30950827669E+03  0.62929383677E+03  0.00000000000E+00 0.  1.
          4    1    6    6  502    0 -0.14664388729E+03  0.45653406646E+02 -0.72146165344E+02  0.16968716037E+03  0.00000000000E+00 0. -1.
          3    1    5    5  503    0  0.23360041949E+01  0.29319803966E+03 -0.43721375117E+03  0.52642797379E+03  0.00000000000E+00 0. -1.
         -4    1    5    5    0  503 -0.89155140931E+02  0.60458614435E+03 -0.79692628308E+03  0.10042731430E+04  0.00000000000E+00 0.  1.
         -3    1    6    6    0  502 -0.24531907863E+03 -0.27559307513E+02 -0.12517644312E+03  0.27678530973E+03  0.00000000000E+00 0.  1.
<mgrwt>
<rscale>  0 0.24462501E+04</rscale>
<asrwt>0</asrwt>
<pdfrwt beam="1">  1        2 0.39737756E+00 0.24462501E+04</pdfrwt>
<pdfrwt beam="2">  1       -2 0.89106968E-01 0.24462501E+04</pdfrwt>
<totfact> 0.30165036E+00</totfact>
</mgrwt>
</event>
<event>
12    1  0.4612066E-007  0.3634323E+04  0.7818608E-02  0.8082674E-01
         -1   -1    0    0    0  501 -0.00000000000E+00  0.00000000000E+00  0.18782514908E+04  0.18782514908E+04  0.00000000000E+00 0.  1.
          1   -1    0    0  501    0  0.00000000000E+00 -0.00000000000E+00 -0.17580587929E+04  0.17580587929E+04  0.00000000000E+00 0. -1.
         23    2    1    2    0    0  0.52853901058E+03 -0.15115652568E+04 -0.52817982662E+03  0.16888076282E+04  0.94415383491E+02 0.  0.
        254    2    1    2    0    0 -0.52853901058E+03  0.15115652568E+04  0.64837252458E+03  0.19475026555E+04  0.89899758128E+03 0.  0.
        -24    2    4    4    0    0 -0.69826779337E+03  0.66305773684E+03  0.30417125337E+03  0.10129597116E+04  0.79647676423E+02 0.  0.
         24    2    4    4    0    0  0.16972878279E+03  0.84850751996E+03  0.34420127121E+03  0.93454294384E+03  0.78250416248E+02 0.  0.
         11    1    3    3    0    0  0.74799834490E+02 -0.28235525568E+03 -0.66505058772E+02  0.29957040657E+03  0.00000000000E+00 0.  1.
        -11    1    3    3    0    0  0.45373917609E+03 -0.12292100011E+04 -0.46167476785E+03  0.13892372217E+04  0.00000000000E+00 0. -1.
          4    1    6    6  502    0  0.42552445137E+02  0.39706515624E+03  0.14258957152E+03  0.42403211528E+03  0.00000000000E+00 0. -1.
          1    1    5    5  503    0 -0.18979131334E+03  0.21659686535E+03  0.64636818445E+02  0.29514888276E+03  0.00000000000E+00 0. -1.
         -2    1    5    5    0  503 -0.50847648003E+03  0.44646087149E+03  0.23953443492E+03  0.71781082886E+03  0.00000000000E+00 0.  1.
         -3    1    6    6    0  502  0.12717633765E+03  0.45144236372E+03  0.20161169969E+03  0.51051082856E+03  0.00000000000E+00 0.  1.
<mgrwt>
<rscale>  0 0.36343233E+04</rscale>
<asrwt>0</asrwt>
<pdfrwt beam="1">  1        1 0.27047058E+00 0.36343233E+04</pdfrwt>
<pdfrwt beam="2">  1       -1 0.28896177E+00 0.36343233E+04</pdfrwt>
<totfact> 0.13666611E-01</totfact>
</mgrwt>
</event>
<event>
12    1  0.4612066E-007  0.1091154E+04  0.7818608E-02  0.9213857E-01
         -1   -1    0    0    0  501 -0.00000000000E+00  0.00000000000E+00  0.13159415502E+03  0.13159415502E+03  0.00000000000E+00 0.  1.
          1   -1    0    0  501    0  0.00000000000E+00 -0.00000000000E+00 -0.22619108012E+04  0.22619108012E+04  0.00000000000E+00 0. -1.
         23    2    1    2    0    0  0.58136003486E+02 -0.12899034203E+03 -0.52221255571E+03  0.54861110289E+03  0.90828881053E+02 0.  0.
        254    2    1    2    0    0 -0.58136003486E+02  0.12899034203E+03 -0.16081040904E+04  0.18448938533E+04  0.89309364626E+03 0.  0.
        -24    2    4    4    0    0  0.10858352430E+03  0.52994681902E+02  0.65669577330E+02  0.15921554139E+03  0.80238875703E+02 0.  0.
         24    2    4    4    0    0 -0.16671952779E+03  0.75995660129E+02 -0.16737736678E+04  0.16856783119E+04  0.80139497103E+02 0.  0.
         13    1    3    3    0    0 -0.62492659401E+01 -0.91682339985E+02 -0.32802712343E+03  0.34065598262E+03  0.00000000000E+00 0. -1.
        -13    1    3    3    0    0  0.64385269426E+02 -0.37308002046E+02 -0.19418543228E+03  0.20795512026E+03  0.00000000000E+00 0.  1.
          2    1    6    6  502    0 -0.19925199558E+02  0.75734887121E+01 -0.57734313887E+02  0.61543661808E+02  0.00000000000E+00 0. -1.
          3    1    5    5  503    0  0.43063231634E+02  0.86745339507E+01 -0.14821891595E+02  0.46361384023E+02  0.00000000000E+00 0. -1.
         -4    1    5    5    0  503  0.65520292666E+02  0.44320147951E+02  0.80491468925E+02  0.11285415737E+03  0.00000000000E+00 0.  1.
         -1    1    6    6    0  502 -0.14679432823E+03  0.68422171417E+02 -0.16160393539E+04  0.16241346501E+04  0.00000000000E+00 0.  1.
<mgrwt>
<rscale>  0 0.10911540E+04</rscale>
<asrwt>0</asrwt>
<pdfrwt beam="1">  1        1 0.34798625E+00 0.10911540E+04</pdfrwt>
<pdfrwt beam="2">  1       -1 0.20245256E-01 0.10911540E+04</pdfrwt>
<totfact> 0.39725482E+01</totfact>
</mgrwt>
</event>
<event>
12    1  0.4612066E-007  0.1474519E+04  0.7818608E-02  0.8901576E-01
          2   -1    0    0  501    0  0.00000000000E+00  0.00000000000E+00  0.35606412045E+03  0.35606412045E+03  0.00000000000E+00 0.  1.
         -2   -1    0    0    0  501 -0.00000000000E+00 -0.00000000000E+00 -0.15265554052E+04  0.15265554052E+04  0.00000000000E+00 0. -1.
         23    2    1    2    0    0  0.11975586353E+03 -0.44349968558E+03 -0.41398397917E+03  0.62500637104E+03  0.90646516033E+02 0.  0.
        254    2    1    2    0    0 -0.11975586353E+03  0.44349968558E+03 -0.75650730555E+03  0.12576131546E+04  0.89345067309E+03 0.  0.
        -24    2    4    4    0    0  0.31698012636E+03 -0.31704883213E+02 -0.39480874480E+03  0.51330819571E+03  0.78292775446E+02 0.  0.
         24    2    4    4    0    0 -0.43673598988E+03  0.47520456880E+03 -0.36169856074E+03  0.74430495886E+03  0.81279246272E+02 0.  0.
         13    1    3    3    0    0  0.48954282620E+02 -0.17400764432E+03 -0.10543587220E+03  0.20926515528E+03  0.00000000000E+00 0.  1.
        -13    1    3    3    0    0  0.70801580906E+02 -0.26949204126E+03 -0.30854810698E+03  0.41574121576E+03  0.00000000000E+00 0. -1.
          4    1    6    6  502    0 -0.15362240063E+03  0.16475603441E+03 -0.82766662623E+02  0.23998898577E+03  0.00000000000E+00 0. -1.
          1    1    5    5  503    0  0.28043318294E+03 -0.33213530910E+02 -0.30154855679E+03  0.41313126344E+03  0.00000000000E+00 0. -1.
         -2    1    5    5    0  503  0.36546943413E+02  0.15086476967E+01 -0.93260188011E+02  0.10017693227E+03  0.00000000000E+00 0.  1.
         -3    1    6    6    0  502 -0.28311358925E+03  0.31044853439E+03 -0.27893189812E+03  0.50431597309E+03  0.00000000000E+00 0.  1.
<mgrwt>
<rscale>  0 0.14745191E+04</rscale>
<asrwt>0</asrwt>
<pdfrwt beam="1">  1        2 0.54779097E-01 0.14745191E+04</pdfrwt>
<pdfrwt beam="2">  1       -2 0.23485467E+00 0.14745191E+04</pdfrwt>
<totfact> 0.69964310E+00</totfact>
</mgrwt>
</event>
<event>
12    1  0.4612066E-007  0.1587627E+04  0.7818608E-02  0.8828186E-01
         -2   -1    0    0    0  501 -0.00000000000E+00  0.00000000000E+00  0.80638667921E+03  0.80638667921E+03  0.00000000000E+00 0.  1.
          2   -1    0    0  501    0  0.00000000000E+00 -0.00000000000E+00 -0.78143613988E+03  0.78143613988E+03  0.00000000000E+00 0. -1.
         23    2    1    2    0    0  0.18052059546E+03  0.39300764650E+03 -0.29915304065E+03  0.53384563706E+03  0.91956113870E+02 0.  0.
        254    2    1    2    0    0 -0.18052059546E+03 -0.39300764650E+03  0.32410357997E+03  0.10539771820E+04  0.90486577684E+03 0.  0.
        -24    2    4    4    0    0 -0.37281945798E+03 -0.58644371067E+03  0.32160494564E+03  0.76909491764E+03  0.71879602437E+02 0.  0.
         24    2    4    4    0    0  0.19229886253E+03  0.19343606416E+03  0.24986343302E+01  0.28488226439E+03  0.82190619575E+02 0.  0.
         11    1    3    3    0    0  0.48511589463E+02  0.62192319899E+02 -0.94368704950E+02  0.12299069656E+03  0.00000000000E+00 0.  1.
        -11    1    3    3    0    0  0.13200900599E+03  0.33081532661E+03 -0.20478433570E+03  0.41085494049E+03  0.00000000000E+00 0. -1.
          2    1    6    6  502    0  0.17633345623E+03  0.16181483005E+03 -0.24167006857E+02  0.24054432280E+03  0.00000000000E+00 0. -1.
          3    1    5    5  503    0 -0.35389347110E+03 -0.57024483606E+03  0.29644652947E+03  0.73368951660E+03  0.00000000000E+00 0. -1.
         -4    1    5    5    0  503 -0.18925986886E+02 -0.16198874603E+02  0.25158416175E+02  0.35405401035E+02  0.00000000000E+00 0.  1.
         -1    1    6    6    0  502  0.15965406292E+02  0.31621234112E+02  0.26665641188E+02  0.44337941594E+02  0.00000000000E+00 0.  1.
<mgrwt>
<rscale>  0 0.15876268E+04</rscale>
<asrwt>0</asrwt>
<pdfrwt beam="1">  1        2 0.12022094E+00 0.15876268E+04</pdfrwt>
<pdfrwt beam="2">  1       -2 0.12405949E+00 0.15876268E+04</pdfrwt>
<totfact> 0.16665455E+01</totfact>
</mgrwt>
</event>
<event>
12    1  0.4612066E-007  0.2689874E+04  0.7818608E-02  0.8338298E-01
         -2   -1    0    0    0  501 -0.00000000000E+00  0.00000000000E+00  0.12936396016E+04  0.12936396016E+04  0.00000000000E+00 0.  1.
          2   -1    0    0  501    0  0.00000000000E+00 -0.00000000000E+00 -0.13982682932E+04  0.13982682932E+04  0.00000000000E+00 0. -1.
         23    2    1    2    0    0 -0.79979174249E+03  0.88297873942E+03 -0.73031586924E+02  0.11969853015E+04  0.90121660762E+02 0.  0.
        254    2    1    2    0    0  0.79979174249E+03 -0.88297873942E+03 -0.31597104645E+02  0.14949225932E+04  0.90248373788E+03 0.  0.
        -24    2    4    4    0    0  0.79662034914E+03 -0.27879682049E+03 -0.18289441870E+03  0.86699152565E+03  0.76761249294E+02 0.  0.
         24    2    4    4    0    0  0.31713933584E+01 -0.60418191893E+03  0.15129731406E+03  0.62793106759E+03  0.79753993649E+02 0.  0.
         13    1    3    3    0    0 -0.35767657706E+03  0.41806733333E+03  0.84942243773E+01  0.55025901249E+03  0.00000000000E+00 0.  1.
        -13    1    3    3    0    0 -0.44211516543E+03  0.46491140608E+03 -0.81525811301E+02  0.64672628903E+03  0.00000000000E+00 0. -1.
          2    1    6    6  502    0  0.21994921583E+02 -0.55829206590E+03  0.12834124400E+03  0.57327592164E+03  0.00000000000E+00 0. -1.
          1    1    5    5  503    0  0.26590122983E+03 -0.57051236147E+02 -0.70316007632E+02  0.28089615252E+03  0.00000000000E+00 0. -1.
         -2    1    5    5    0  503  0.53071911931E+03 -0.22174558434E+03 -0.11257841107E+03  0.58609537314E+03  0.00000000000E+00 0.  1.
         -1    1    6    6    0  502 -0.18823528224E+02 -0.45889853031E+02  0.22956070057E+02  0.54655145947E+02  0.00000000000E+00 0.  1.
<mgrwt>
<rscale>  0 0.26898738E+04</rscale>
<asrwt>0</asrwt>
<pdfrwt beam="1">  1        2 0.21511820E+00 0.26898738E+04</pdfrwt>
<pdfrwt beam="2">  1       -2 0.19902148E+00 0.26898738E+04</pdfrwt>
<totfact> 0.17191476E+00</totfact>
</mgrwt>
</event>
<event>
12    1  0.4612066E-007  0.1187210E+04  0.7818608E-02  0.9124126E-01
          2   -1    0    0  501    0  0.00000000000E+00  0.00000000000E+00  0.25972412535E+04  0.25972412535E+04  0.00000000000E+00 0. -1.
         -2   -1    0    0    0  501 -0.00000000000E+00 -0.00000000000E+00 -0.13566958885E+03  0.13566958885E+03  0.00000000000E+00 0.  1.
         23    2    1    2    0    0 -0.10719895582E+02  0.17808531835E+03  0.16512373204E+03  0.25940481767E+03  0.90530192606E+02 0.  0.
        254    2    1    2    0    0  0.10719895582E+02 -0.17808531835E+03  0.22964479327E+04  0.24735060247E+04  0.90151519689E+03 0.  0.
        -24    2    4    4    0    0  0.70085765144E+02 -0.41447378050E+03  0.49607274068E+03  0.65505097899E+03  0.79392013676E+02 0.  0.
         24    2    4    4    0    0 -0.59365869561E+02  0.23638846215E+03  0.18003751920E+04  0.18184550457E+04  0.77615140280E+02 0.  0.
         13    1    3    3    0    0 -0.20601153722E+02  0.54290697714E+01  0.42063703064E+02  0.47151218953E+02  0.00000000000E+00 0. -1.
        -13    1    3    3    0    0  0.98812581402E+01  0.17265624858E+03  0.12306002898E+03  0.21225359872E+03  0.00000000000E+00 0.  1.
          4    1    6    6  502    0 -0.46250229940E+02  0.15303171605E+03  0.14118357915E+04  0.14208582238E+04  0.00000000000E+00 0. -1.
          1    1    5    5  503    0  0.78608096341E+02 -0.31680450296E+03  0.34488725051E+03  0.47485949656E+03  0.00000000000E+00 0. -1.
         -2    1    5    5    0  503 -0.85223311976E+01 -0.97669277538E+02  0.15118549017E+03  0.18019148244E+03  0.00000000000E+00 0.  1.
         -3    1    6    6    0  502 -0.13115639622E+02  0.83356746099E+02  0.38853940046E+03  0.39759682196E+03  0.00000000000E+00 0.  1.
<mgrwt>
<rscale>  0 0.11872096E+04</rscale>
<asrwt>0</asrwt>
<pdfrwt beam="1">  1        2 0.39957554E+00 0.11872096E+04</pdfrwt>
<pdfrwt beam="2">  1       -2 0.20872246E-01 0.11872096E+04</pdfrwt>
<totfact> 0.60285532E+01</totfact>
</mgrwt>
</event>
<event>
12    1  0.4612066E-007  0.1788870E+04  0.7818608E-02  0.8712241E-01
         -1   -1    0    0    0  501 -0.00000000000E+00  0.00000000000E+00  0.66168407630E+03  0.66168407630E+03  0.00000000000E+00 0.  1.
          1   -1    0    0  501    0  0.00000000000E+00 -0.00000000000E+00 -0.12090574205E+04  0.12090574205E+04  0.00000000000E+00 0. -1.
         23    2    1    2    0    0 -0.43455582536E+03  0.37244397032E+03 -0.56268630854E+03  0.80742010112E+03  0.88079858643E+02 0.  0.
        254    2    1    2    0    0  0.43455582536E+03 -0.37244397032E+03  0.15312964320E+02  0.10633213957E+04  0.89602713535E+03 0.  0.
        -24    2    4    4    0    0  0.33096001192E+03  0.63737034581E+02  0.35407650511E+03  0.49573403108E+03  0.82371833966E+02 0.  0.
         24    2    4    4    0    0  0.10359581344E+03 -0.43618100490E+03 -0.33876354079E+03  0.56758736462E+03  0.80054470906E+02 0.  0.
         13    1    3    3    0    0 -0.38002493270E+03  0.35114608460E+03 -0.47765834972E+03  0.70418749014E+03  0.00000000000E+00 0. -1.
        -13    1    3    3    0    0 -0.54530892651E+02  0.21297885714E+02 -0.85027958819E+02  0.10323261098E+03  0.00000000000E+00 0.  1.
          2    1    6    6  502    0  0.45936734201E+01 -0.26806574516E+02 -0.19031152158E+00  0.27197986897E+02  0.00000000000E+00 0. -1.
          1    1    5    5  503    0  0.10664855109E+02 -0.10660753389E+02  0.43374847214E+01  0.15690907272E+02  0.00000000000E+00 0. -1.
         -2    1    5    5    0  503  0.32029515681E+03  0.74397787970E+02  0.34973902039E+03  0.48004312380E+03  0.00000000000E+00 0.  1.
         -1    1    6    6    0  502  0.99002140017E+02 -0.40937443038E+03 -0.33857322927E+03  0.54038937772E+03  0.00000000000E+00 0.  1.
<mgrwt>
<rscale>  0 0.17888701E+04</rscale>
<asrwt>0</asrwt>
<pdfrwt beam="1">  1        1 0.18600883E+00 0.17888701E+04</pdfrwt>
<pdfrwt beam="2">  1       -1 0.10179755E+00 0.17888701E+04</pdfrwt>
<totfact> 0.90941383E+00</totfact>
</mgrwt>
</event>
<event>
12    1  0.4612066E-007  0.1717602E+04  0.7818608E-02  0.8751389E-01
          1   -1    0    0  501    0  0.00000000000E+00  0.00000000000E+00  0.12944020708E+04  0.12944020708E+04  0.00000000000E+00 0. -1.
         -1   -1    0    0    0  501 -0.00000000000E+00 -0.00000000000E+00 -0.56979134435E+03  0.56979134435E+03  0.00000000000E+00 0.  1.
         23    2    1    2    0    0  0.36532251763E+03  0.41381352049E+03 -0.32195322887E+02  0.56038254033E+03  0.91048784027E+02 0.  0.
        254    2    1    2    0    0 -0.36532251763E+03 -0.41381352049E+03  0.75680604938E+03  0.13038108749E+04  0.90689868750E+03 0.  0.
        -24    2    4    4    0    0 -0.61491778902E+02 -0.65494240186E+03  0.42891307864E+03  0.78938464331E+03  0.80192876494E+02 0.  0.
         24    2    4    4    0    0 -0.30383073873E+03  0.24112888137E+03  0.32789297075E+03  0.51442623155E+03  0.81635116302E+02 0.  0.
         13    1    3    3    0    0  0.10596650736E+03  0.18643901783E+03 -0.17371743076E+02  0.21515154080E+03  0.00000000000E+00 0. -1.
        -13    1    3    3    0    0  0.25935601027E+03  0.22737450265E+03 -0.14823579811E+02  0.34523099953E+03  0.00000000000E+00 0.  1.
          4    1    6    6  502    0 -0.74643265602E+02  0.81735888069E+02  0.13749609107E+03  0.17651500660E+03  0.00000000000E+00 0. -1.
          1    1    5    5  503    0 -0.35643249176E+02 -0.51648270101E+03  0.29946482201E+03  0.59808360726E+03  0.00000000000E+00 0. -1.
         -2    1    5    5    0  503 -0.25848529725E+02 -0.13845970084E+03  0.12944825663E+03  0.19130103604E+03  0.00000000000E+00 0.  1.
         -3    1    6    6    0  502 -0.22918747312E+03  0.15939299330E+03  0.19039687968E+03  0.33791122494E+03  0.00000000000E+00 0.  1.
<mgrwt>
<rscale>  0 0.17176019E+04</rscale>
<asrwt>0</asrwt>
<pdfrwt beam="1">  1        1 0.19913878E+00 0.17176019E+04</pdfrwt>
<pdfrwt beam="2">  1       -1 0.87660207E-01 0.17176019E+04</pdfrwt>
<totfact> 0.11104987E+01</totfact>
</mgrwt>
</event>
<event>
12    1  0.6214174E-007  0.2230569E+04  0.7818608E-02  0.8505811E-01
          2   -1    0    0  501    0  0.00000000000E+00  0.00000000000E+00  0.16970274960E+04  0.16970274960E+04  0.00000000000E+00 0. -1.
         -2   -1    0    0    0  501 -0.00000000000E+00 -0.00000000000E+00 -0.73296382278E+03  0.73296382278E+03  0.00000000000E+00 0.  1.
         23    2    1    2    0    0 -0.24986437337E+03  0.86628823253E+03  0.65788203729E+03  0.11198399952E+04  0.91352793984E+02 0.  0.
        254    2    1    2    0    0  0.24986437337E+03 -0.86628823253E+03  0.30618163590E+03  0.13101513235E+04  0.89992321313E+03 0.  0.
        -24    2    4    4    0    0  0.21852378830E+03 -0.76557502581E+03  0.59186293964E+03  0.99521865759E+03  0.79376765498E+02 0.  0.
         24    2    4    4    0    0  0.31340585076E+02 -0.10071320672E+03 -0.28568130374E+03  0.31493266596E+03  0.80270757450E+02 0.  0.
         13    1    3    3    0    0 -0.19655536526E+03  0.52168607142E+03  0.40014008201E+03  0.68622332659E+03  0.00000000000E+00 0. -1.
        -13    1    3    3    0    0 -0.53309008112E+02  0.34460216111E+03  0.25774195528E+03  0.43361666861E+03  0.00000000000E+00 0.  1.
          4    1    6    6  502    0  0.38841825311E+02 -0.99046501907E+02 -0.28790474269E+03  0.30693327906E+03  0.00000000000E+00 0. -1.
          1    1    5    5  503    0  0.18943581640E+03 -0.54278261264E+03  0.40916519638E+03  0.70563095953E+03  0.00000000000E+00 0. -1.
         -2    1    5    5    0  503  0.29087971898E+02 -0.22279241317E+03  0.18269774326E+03  0.28958769806E+03  0.00000000000E+00 0.  1.
         -3    1    6    6    0  502 -0.75012402350E+01 -0.16667048134E+01  0.22234389479E+01  0.79993868986E+01  0.00000000000E+00 0.  1.
<mgrwt>
<rscale>  0 0.22305692E+04</rscale>
<asrwt>0</asrwt>
<pdfrwt beam="1">  1        2 0.26108115E+00 0.22305692E+04</pdfrwt>
<pdfrwt beam="2">  1       -2 0.11276367E+00 0.22305692E+04</pdfrwt>
<totfact> 0.55526732E+00</totfact>
</mgrwt>
</event>
<event>
12    1  0.4612066E-007  0.4822848E+04  0.7818608E-02  0.7856431E-01
         -2   -1    0    0    0  501 -0.00000000000E+00  0.00000000000E+00  0.21756964708E+04  0.21756964708E+04  0.00000000000E+00 0.  1.
          2   -1    0    0  501    0  0.00000000000E+00 -0.00000000000E+00 -0.26726916642E+04  0.26726916642E+04  0.00000000000E+00 0. -1.
         23    2    1    2    0    0 -0.16173557432E+04  0.11176124350E+02  0.14401769544E+04  0.21675023591E+04  0.89399724815E+02 0.  0.
        254    2    1    2    0    0  0.16173557432E+04 -0.11176124350E+02 -0.19371721478E+04  0.26808857760E+04  0.90473648529E+03 0.  0.
        -24    2    4    4    0    0  0.12711858313E+04 -0.38051930703E+03 -0.15238505485E+04  0.20224482870E+04  0.86418857920E+02 0.  0.
         24    2    4    4    0    0  0.34616991195E+03  0.36934318268E+03 -0.41332159934E+03  0.65843748896E+03  0.80356629247E+02 0.  0.
         13    1    3    3    0    0 -0.10043199303E+04  0.57280793290E+01  0.83574209121E+03  0.13065818674E+04  0.00000000000E+00 0. -1.
        -13    1    3    3    0    0 -0.61303581293E+03  0.54480450213E+01  0.60443486315E+03  0.86092049164E+03  0.00000000000E+00 0.  1.
          4    1    6    6  502    0  0.24329646594E+03  0.28687272263E+03 -0.26582152728E+03  0.46059767009E+03  0.00000000000E+00 0. -1.
          3    1    5    5  503    0  0.65561997933E+03 -0.15116864723E+03 -0.77271886424E+03  0.10245896546E+04  0.00000000000E+00 0. -1.
         -4    1    5    5    0  503  0.61556585193E+03 -0.22935065980E+03 -0.75113168422E+03  0.99785863240E+03  0.00000000000E+00 0.  1.
         -3    1    6    6    0  502  0.10287344601E+03  0.82470460050E+02 -0.14750007206E+03  0.19783981888E+03  0.00000000000E+00 0.  1.
<mgrwt>
<rscale>  0 0.48228480E+04</rscale>
<asrwt>0</asrwt>
<pdfrwt beam="1">  1        2 0.41118333E+00 0.48228480E+04</pdfrwt>
<pdfrwt beam="2">  1       -2 0.33472253E+00 0.48228480E+04</pdfrwt>
<totfact> 0.39482823E-02</totfact>
</mgrwt>
</event>
<event>
12    1  0.4612066E-007  0.1348256E+04  0.7818608E-02  0.8992150E-01
         -1   -1    0    0    0  501 -0.00000000000E+00  0.00000000000E+00  0.29424205223E+03  0.29424205223E+03  0.00000000000E+00 0.  1.
          1   -1    0    0  501    0  0.00000000000E+00 -0.00000000000E+00 -0.15444707351E+04  0.15444707351E+04  0.00000000000E+00 0. -1.
         23    2    1    2    0    0  0.29166768084E+03  0.20938565456E+03 -0.23319355973E+03  0.43778335413E+03  0.91447473854E+02 0.  0.
        254    2    1    2    0    0 -0.29166768084E+03 -0.20938565456E+03 -0.10170351231E+04  0.14009294332E+04  0.89405282097E+03 0.  0.
        -24    2    4    4    0    0  0.23200395248E+02 -0.50292522517E+03 -0.67143410961E+03  0.84290466578E+03  0.78692258811E+02 0.  0.
         24    2    4    4    0    0 -0.31486807609E+03  0.29353957060E+03 -0.34560101353E+03  0.55802476741E+03  0.81511935542E+02 0.  0.
         13    1    3    3    0    0  0.29695876693E+03  0.21173373963E+03 -0.22981763941E+03  0.43108216518E+03  0.00000000000E+00 0.  1.
        -13    1    3    3    0    0 -0.52910860838E+01 -0.23480850662E+01 -0.33759203187E+01  0.67011889559E+01  0.00000000000E+00 0. -1.
          2    1    6    6  502    0 -0.30541460326E+03  0.27602153889E+03 -0.34652927367E+03  0.53809711701E+03  0.00000000000E+00 0. -1.
          3    1    5    5  503    0  0.21983948461E+02 -0.50212734028E+03 -0.67350650191E+03  0.84037263637E+03  0.00000000000E+00 0. -1.
         -4    1    5    5    0  503  0.12164467869E+01 -0.79788488732E+00  0.20723923004E+01  0.25320294085E+01  0.00000000000E+00 0.  1.
         -1    1    6    6    0  502 -0.94534728264E+01  0.17518031713E+02  0.92826014372E+00  0.19927650400E+02  0.00000000000E+00 0.  1.
<mgrwt>
<rscale>  0 0.13482555E+04</rscale>
<asrwt>0</asrwt>
<pdfrwt beam="1">  1        1 0.23761089E+00 0.13482555E+04</pdfrwt>
<pdfrwt beam="2">  1       -1 0.45268007E-01 0.13482555E+04</pdfrwt>
<totfact> 0.28891987E+01</totfact>
</mgrwt>
</event>
<event>
12    1  0.4612066E-007  0.2516307E+04  0.7818608E-02  0.8397199E-01
          2   -1    0    0  501    0  0.00000000000E+00  0.00000000000E+00  0.21085361536E+04  0.21085361536E+04  0.00000000000E+00 0.  1.
         -2   -1    0    0    0  501 -0.00000000000E+00 -0.00000000000E+00 -0.75073450958E+03  0.75073450958E+03  0.00000000000E+00 0. -1.
         23    2    1    2    0    0 -0.30838985553E+03 -0.83455668999E+03  0.13262399566E+04  0.15996671064E+04  0.91832766469E+02 0.  0.
        254    2    1    2    0    0  0.30838985553E+03  0.83455668999E+03  0.31561687471E+02  0.12596035568E+04  0.89107564688E+03 0.  0.
        -24    2    4    4    0    0  0.14703209270E+03  0.62755224870E+03 -0.38921515421E+03  0.75735125270E+03  0.81561158448E+02 0.  0.
         24    2    4    4    0    0  0.16135776283E+03  0.20700444128E+03  0.42077684168E+03  0.50225230413E+03  0.79479935650E+02 0.  0.
         11    1    3    3    0    0 -0.57299477270E+02 -0.78368059131E+02  0.16252999840E+03  0.18931662147E+03  0.00000000000E+00 0. -1.
        -11    1    3    3    0    0 -0.25109037826E+03 -0.75618863086E+03  0.11637099582E+04  0.14103504849E+04  0.00000000000E+00 0.  1.
          2    1    6    6  502    0  0.15135373155E+03  0.21274315620E+03  0.38944917160E+03  0.46886912867E+03  0.00000000000E+00 0. -1.
          3    1    5    5  503    0  0.10227912711E+03  0.35067414962E+03 -0.26108880883E+03  0.44899971621E+03  0.00000000000E+00 0. -1.
         -4    1    5    5    0  503  0.44752965590E+02  0.27687809908E+03 -0.12812634538E+03  0.30835153650E+03  0.00000000000E+00 0.  1.
         -1    1    6    6    0  502  0.10004031282E+02 -0.57387149151E+01  0.31327670083E+02  0.33383175457E+02  0.00000000000E+00 0.  1.
<mgrwt>
<rscale>  0 0.25163075E+04</rscale>
<asrwt>0</asrwt>
<pdfrwt beam="1">  1        2 0.32439018E+00 0.25163075E+04</pdfrwt>
<pdfrwt beam="2">  1       -2 0.11549762E+00 0.25163075E+04</pdfrwt>
<totfact> 0.30199693E+00</totfact>
</mgrwt>
</event>
<event>
12    1  0.4612066E-007  0.1477379E+04  0.7818608E-02  0.8899636E-01
          2   -1    0    0  501    0  0.00000000000E+00  0.00000000000E+00  0.23059879762E+04  0.23059879762E+04  0.00000000000E+00 0. -1.
         -2   -1    0    0    0  501 -0.00000000000E+00 -0.00000000000E+00 -0.23662842161E+03  0.23662842161E+03  0.00000000000E+00 0.  1.
         23    2    1    2    0    0  0.43956166478E+03 -0.13809633672E+03  0.57288857243E+03  0.74099373594E+03  0.92657136401E+02 0.  0.
        254    2    1    2    0    0 -0.43956166478E+03  0.13809633672E+03  0.14964709822E+04  0.18016226619E+04  0.89114182929E+03 0.  0.
        -24    2    4    4    0    0 -0.54830741619E+03  0.35118908069E+02  0.38233008296E+03  0.67462964577E+03  0.84110084214E+02 0.  0.
         24    2    4    4    0    0  0.10874575141E+03  0.10297742866E+03  0.11141408992E+04  0.11269930161E+04  0.79833112024E+02 0.  0.
         11    1    3    3    0    0  0.29503653418E+03 -0.10612758340E+03  0.32023542439E+03  0.44817446100E+03  0.00000000000E+00 0.  1.
        -11    1    3    3    0    0  0.14452513060E+03 -0.31968753324E+02  0.25265314803E+03  0.29281927494E+03  0.00000000000E+00 0. -1.
          2    1    6    6  502    0  0.59029764956E+02  0.35107546597E+02  0.75554766443E+03  0.75866285411E+03  0.00000000000E+00 0. -1.
          3    1    5    5  503    0 -0.53189380149E+03  0.49214897627E+02  0.36606808548E+03  0.64756386976E+03  0.00000000000E+00 0. -1.
         -4    1    5    5    0  503 -0.16413614702E+02 -0.14095989558E+02  0.16261997484E+02  0.27065776016E+02  0.00000000000E+00 0.  1.
         -1    1    6    6    0  502  0.49715986454E+02  0.67869882059E+02  0.35859323477E+03  0.36833016198E+03  0.00000000000E+00 0.  1.
<mgrwt>
<rscale>  0 0.14773792E+04</rscale>
<asrwt>0</asrwt>
<pdfrwt beam="1">  1        2 0.35476737E+00 0.14773792E+04</pdfrwt>
<pdfrwt beam="2">  1       -2 0.36404374E-01 0.14773792E+04</pdfrwt>
<totfact> 0.30975848E+01</totfact>
</mgrwt>
</event>
<event>
12    1  0.4612066E-007  0.2901275E+04  0.7818608E-02  0.8272498E-01
         -2   -1    0    0    0  501 -0.00000000000E+00  0.00000000000E+00  0.16107607559E+04  0.16107607559E+04  0.00000000000E+00 0.  1.
          2   -1    0    0  501    0  0.00000000000E+00 -0.00000000000E+00 -0.13064315294E+04  0.13064315294E+04  0.00000000000E+00 0. -1.
         23    2    1    2    0    0 -0.48920122778E+03  0.67637934732E+03 -0.88157460618E+03  0.12176259582E+04  0.92910307155E+02 0.  0.
        254    2    1    2    0    0  0.48920122778E+03 -0.67637934732E+03  0.11859038327E+04  0.16995663271E+04  0.88620028048E+03 0.  0.
        -24    2    4    4    0    0  0.57854175922E+03 -0.70185118192E+03  0.12601761800E+04  0.15562970736E+04  0.81920253245E+02 0.  0.
         24    2    4    4    0    0 -0.89340531442E+02  0.25471834601E+02 -0.74272347342E+02  0.14326925349E+03  0.79869596849E+02 0.  0.
         11    1    3    3    0    0 -0.44572426586E+03  0.65148668526E+03 -0.81925697037E+03  0.11376673529E+04  0.00000000000E+00 0.  1.
        -11    1    3    3    0    0 -0.43476961924E+02  0.24892662056E+02 -0.62317635810E+02  0.79958605386E+02  0.00000000000E+00 0. -1.
          4    1    6    6  502    0 -0.57260002610E+02 -0.89204003699E+00  0.10309456363E+01  0.57276229652E+02  0.00000000000E+00 0. -1.
          1    1    5    5  503    0  0.22117058853E+02 -0.84028173686E+01  0.25120619754E+02  0.34508218859E+02  0.00000000000E+00 0. -1.
         -2    1    5    5    0  503  0.55642470037E+03 -0.69344836455E+03  0.12350555603E+04  0.15217888548E+04  0.00000000000E+00 0.  1.
         -3    1    6    6    0  502 -0.32080528832E+02  0.26363874638E+02 -0.75303292979E+02  0.85993023842E+02  0.00000000000E+00 0.  1.
<mgrwt>
<rscale>  0 0.29012746E+04</rscale>
<asrwt>0</asrwt>
<pdfrwt beam="1">  1        2 0.20098947E+00 0.29012746E+04</pdfrwt>
<pdfrwt beam="2">  1       -2 0.24780935E+00 0.29012746E+04</pdfrwt>
<totfact> 0.93757121E-01</totfact>
</mgrwt>
</event>
<event>
12    1  0.4612066E-007  0.1682936E+04  0.7818608E-02  0.8771157E-01
         -2   -1    0    0    0  501 -0.00000000000E+00  0.00000000000E+00  0.31030798140E+03  0.31030798140E+03  0.00000000000E+00 0.  1.
          2   -1    0    0  501    0  0.00000000000E+00 -0.00000000000E+00 -0.22818248584E+04  0.22818248584E+04  0.00000000000E+00 0. -1.
         23    2    1    2    0    0  0.52967075904E+03  0.22711172270E+03 -0.46409023996E+03  0.74569346477E+03  0.92456178793E+02 0.  0.
        254    2    1    2    0    0 -0.52967075904E+03 -0.22711172270E+03 -0.15074266370E+04  0.18464393750E+04  0.89714683975E+03 0.  0.
        -24    2    4    4    0    0 -0.19692493396E+03  0.22814732460E+03 -0.98493994825E+02  0.32649339463E+03  0.77886060272E+02 0.  0.
         24    2    4    4    0    0 -0.33274582509E+03 -0.45525904730E+03 -0.14089326422E+04  0.15199459804E+04  0.84640467916E+02 0.  0.
         11    1    3    3    0    0  0.11363982451E+03  0.63144582061E+02 -0.15392006084E+03  0.20147613528E+03  0.00000000000E+00 0. -1.
        -11    1    3    3    0    0  0.41603093454E+03  0.16396714063E+03 -0.31017017912E+03  0.54421732949E+03  0.00000000000E+00 0.  1.
          4    1    6    6  502    0 -0.30325440503E+03 -0.44512759019E+03 -0.13175921298E+04  0.14234292488E+04  0.00000000000E+00 0. -1.
          1    1    5    5  503    0 -0.11106831851E+03  0.14666459433E+03 -0.21356603536E+02  0.18521009454E+03  0.00000000000E+00 0. -1.
         -2    1    5    5    0  503 -0.85856615453E+02  0.81482730271E+02 -0.77137391289E+02  0.14128330009E+03  0.00000000000E+00 0.  1.
         -3    1    6    6    0  502 -0.29491420059E+02 -0.10131457106E+02 -0.91340512378E+02  0.96516731615E+02  0.00000000000E+00 0.  1.
<mgrwt>
<rscale>  0 0.16829361E+04</rscale>
<asrwt>0</asrwt>
<pdfrwt beam="1">  1        2 0.35104997E+00 0.16829361E+04</pdfrwt>
<pdfrwt beam="2">  1       -2 0.47739691E-01 0.16829361E+04</pdfrwt>
<totfact> 0.18406197E+01</totfact>
</mgrwt>
</event>
<event>
12    1  0.4612066E-007  0.1550553E+04  0.7818608E-02  0.8851514E-01
          1   -1    0    0  501    0  0.00000000000E+00  0.00000000000E+00  0.13253152605E+04  0.13253152605E+04  0.00000000000E+00 0. -1.
         -1   -1    0    0    0  501 -0.00000000000E+00 -0.00000000000E+00 -0.45351758178E+03  0.45351758178E+03  0.00000000000E+00 0.  1.
         23    2    1    2    0    0 -0.20525863941E+03  0.28190171352E+03 -0.13858678602E+03  0.38555119241E+03  0.88564889065E+02 0.  0.
        254    2    1    2    0    0  0.20525863941E+03 -0.28190171352E+03  0.10103844648E+04  0.13932816499E+04  0.89373223292E+03 0.  0.
        -24    2    4    4    0    0  0.47823130390E+03 -0.41866729039E+03  0.62776787164E+03  0.89734917093E+03  0.84590506795E+02 0.  0.
         24    2    4    4    0    0 -0.27297266449E+03  0.13676557688E+03  0.38261659314E+03  0.49593247898E+03  0.79590626200E+02 0.  0.
         13    1    3    3    0    0 -0.16188723693E+03  0.22643106577E+03 -0.14675171874E+03  0.31466580999E+03  0.00000000000E+00 0.  1.
        -13    1    3    3    0    0 -0.43371402479E+02  0.55470647752E+02  0.81649327144E+01  0.70885382423E+02  0.00000000000E+00 0. -1.
          4    1    6    6  502    0 -0.21195992627E+03  0.10859975347E+03  0.34408908638E+03  0.41847128475E+03  0.00000000000E+00 0. -1.
          3    1    5    5  503    0  0.43783677434E+03 -0.38979165407E+03  0.54270119371E+03  0.79885115022E+03  0.00000000000E+00 0. -1.
         -4    1    5    5    0  503  0.40394529552E+02 -0.28875636325E+02  0.85066677930E+02  0.98498020716E+02  0.00000000000E+00 0.  1.
         -3    1    6    6    0  502 -0.61012738221E+02  0.28165823402E+02  0.38527506768E+02  0.77461194226E+02  0.00000000000E+00 0.  1.
<mgrwt>
<rscale>  0 0.15505532E+04</rscale>
<asrwt>0</asrwt>
<pdfrwt beam="1">  1        1 0.20389465E+00 0.15505532E+04</pdfrwt>
<pdfrwt beam="2">  1       -1 0.69771936E-01 0.15505532E+04</pdfrwt>
<totfact> 0.17363369E+01</totfact>
</mgrwt>
</event>
<event>
12    1  0.4612066E-007  0.1260491E+04  0.7818608E-02  0.9061497E-01
         -1   -1    0    0    0  501 -0.00000000000E+00  0.00000000000E+00  0.70607803933E+03  0.70607803933E+03  0.00000000000E+00 0.  1.
          1   -1    0    0  501    0  0.00000000000E+00 -0.00000000000E+00 -0.56255727241E+03  0.56255727241E+03  0.00000000000E+00 0. -1.
         23    2    1    2    0    0 -0.23252536740E+03 -0.28193793172E+02 -0.13675667523E+03  0.29911382969E+03  0.12611010440E+03 0.  0.
        254    2    1    2    0    0  0.23252536740E+03  0.28193793172E+02  0.28027744215E+03  0.96952148206E+03  0.89808324956E+03 0.  0.
        -24    2    4    4    0    0 -0.25280704667E+03 -0.24887651004E+03  0.10816731511E+03  0.37919998465E+03  0.79003418964E+02 0.  0.
         24    2    4    4    0    0  0.48533241407E+03  0.27707030321E+03  0.17211012704E+03  0.59032149741E+03  0.80883060071E+02 0.  0.
         13    1    3    3    0    0 -0.33408443264E+02 -0.55730267641E+02 -0.35388095606E+02  0.73988540486E+02  0.00000000000E+00 0.  1.
        -13    1    3    3    0    0 -0.19911692414E+03  0.27536474469E+02 -0.10136857962E+03  0.22512528920E+03  0.00000000000E+00 0. -1.
          2    1    6    6  502    0  0.45110041185E+03  0.26412023726E+03  0.18004449438E+03  0.55287168607E+03  0.00000000000E+00 0. -1.
          3    1    5    5  503    0 -0.14302023443E+03 -0.18794051119E+03  0.87968761664E+02  0.25202167810E+03  0.00000000000E+00 0. -1.
         -4    1    5    5    0  503 -0.10978681223E+03 -0.60935998852E+02  0.20198553443E+02  0.12717830655E+03  0.00000000000E+00 0.  1.
         -1    1    6    6    0  502  0.34232002215E+02  0.12950065949E+02 -0.79343673452E+01  0.37449811333E+02  0.00000000000E+00 0.  1.
<mgrwt>
<rscale>  0 0.12604909E+04</rscale>
<asrwt>0</asrwt>
<pdfrwt beam="1">  1        1 0.86547272E-01 0.12604909E+04</pdfrwt>
<pdfrwt beam="2">  1       -1 0.10862739E+00 0.12604909E+04</pdfrwt>
<totfact> 0.29117823E+01</totfact>
</mgrwt>
</event>
<event>
12    1  0.4612066E-007  0.2702582E+04  0.7818608E-02  0.8334168E-01
          1   -1    0    0  501    0  0.00000000000E+00  0.00000000000E+00  0.27299063220E+04  0.27299063220E+04  0.00000000000E+00 0. -1.
         -1   -1    0    0    0  501 -0.00000000000E+00 -0.00000000000E+00 -0.66888262837E+03  0.66888262837E+03  0.00000000000E+00 0.  1.
         23    2    1    2    0    0  0.64574705791E+03 -0.76522356900E+03  0.91192861429E+02  0.10093102300E+04  0.88513439910E+02 0.  0.
        254    2    1    2    0    0 -0.64574705791E+03  0.76522356900E+03  0.19698308322E+04  0.23894787204E+04  0.90929570235E+03 0.  0.
        -24    2    4    4    0    0 -0.65417585890E+03  0.12368599805E+03  0.12741769753E+04  0.14398415573E+04  0.79827722944E+02 0.  0.
         24    2    4    4    0    0  0.84288009899E+01  0.64153757095E+03  0.69565385691E+03  0.94963716306E+03  0.78961719858E+02 0.  0.
         13    1    3    3    0    0  0.43339020270E+03 -0.45151684020E+03  0.41316746526E+02  0.62721734536E+03  0.00000000000E+00 0.  1.
        -13    1    3    3    0    0  0.21235685521E+03 -0.31370672880E+03  0.49876114903E+02  0.38209288464E+03  0.00000000000E+00 0. -1.
          4    1    6    6  502    0  0.50815942500E+00 -0.11324013334E+01 -0.11413709394E+01  0.16862047332E+01  0.00000000000E+00 0. -1.
          3    1    5    5  503    0 -0.62391027857E+02  0.32355593476E+02  0.10679401483E+03  0.12784555679E+03  0.00000000000E+00 0. -1.
         -4    1    5    5    0  503 -0.59178483104E+03  0.91330404571E+02  0.11673829604E+04  0.13119960005E+04  0.00000000000E+00 0.  1.
         -3    1    6    6    0  502  0.79206415649E+01  0.64266997228E+03  0.69679522785E+03  0.94795095833E+03  0.00000000000E+00 0.  1.
<mgrwt>
<rscale>  0 0.27025817E+04</rscale>
<asrwt>0</asrwt>
<pdfrwt beam="1">  1        1 0.41998558E+00 0.27025817E+04</pdfrwt>
<pdfrwt beam="2">  1       -1 0.10290502E+00 0.27025817E+04</pdfrwt>
<totfact> 0.72765620E-01</totfact>
</mgrwt>
</event>
<event>
12    1  0.4612066E-007  0.2011565E+04  0.7818608E-02  0.8601232E-01
          1   -1    0    0  501    0  0.00000000000E+00  0.00000000000E+00  0.46287448969E+03  0.46287448969E+03  0.00000000000E+00 0. -1.
         -1   -1    0    0    0  501 -0.00000000000E+00 -0.00000000000E+00 -0.21854713577E+04  0.21854713577E+04  0.00000000000E+00 0.  1.
         23    2    1    2    0    0  0.24377903093E+03 -0.84413923049E+02 -0.16866764545E+04  0.17086429345E+04  0.89606299937E+02 0.  0.
        254    2    1    2    0    0 -0.24377903093E+03  0.84413923049E+02 -0.35920413466E+02  0.93970291288E+03  0.90288280638E+03 0.  0.
        -24    2    4    4    0    0  0.60800312117E+02  0.41012098207E+03 -0.18822155308E+03  0.46197550445E+03  0.78090433354E+02 0.  0.
         24    2    4    4    0    0 -0.30457934304E+03 -0.32570705902E+03  0.15230113961E+03  0.47772740843E+03  0.78575919569E+02 0.  0.
         13    1    3    3    0    0  0.12651997860E+03 -0.15619448901E+02 -0.10433155023E+04  0.10510749305E+04  0.00000000000E+00 0.  1.
        -13    1    3    3    0    0  0.11725905232E+03 -0.68794474148E+02 -0.64336095219E+03  0.65756800396E+03  0.00000000000E+00 0. -1.
          2    1    6    6  502    0 -0.30953026213E+03 -0.32090150407E+03  0.14913652468E+03  0.47013664129E+03  0.00000000000E+00 0. -1.
          3    1    5    5  503    0  0.58268968458E+02  0.14656598878E+03 -0.58591478363E+02  0.16825523198E+03  0.00000000000E+00 0. -1.
         -4    1    5    5    0  503  0.25313436591E+01  0.26355499329E+03 -0.12963007471E+03  0.29372027247E+03  0.00000000000E+00 0.  1.
         -1    1    6    6    0  502  0.49509190862E+01 -0.48055549550E+01  0.31646149268E+01  0.75907671456E+01  0.00000000000E+00 0.  1.
<mgrwt>
<rscale>  0 0.20115655E+04</rscale>
<asrwt>0</asrwt>
<pdfrwt beam="1">  1        1 0.71211461E-01 0.20115655E+04</pdfrwt>
<pdfrwt beam="2">  1       -1 0.33622636E+00 0.20115655E+04</pdfrwt>
<totfact> 0.87607686E-01</totfact>
</mgrwt>
</event>
<event>
12    1  0.4612066E-007  0.1299944E+04  0.7818608E-02  0.9029609E-01
         -1   -1    0    0    0  501 -0.00000000000E+00  0.00000000000E+00  0.52908265175E+03  0.52908265175E+03  0.00000000000E+00 0.  1.
          1   -1    0    0  501    0  0.00000000000E+00 -0.00000000000E+00 -0.79848349791E+03  0.79848349791E+03  0.00000000000E+00 0. -1.
         23    2    1    2    0    0 -0.30626096678E+03 -0.12781450390E+03 -0.11588024106E+03  0.36306608541E+03  0.90864871774E+02 0.  0.
        254    2    1    2    0    0  0.30626096678E+03  0.12781450390E+03 -0.15352060509E+03  0.96450006425E+03  0.89250180424E+03 0.  0.
        -24    2    4    4    0    0  0.56669391913E+03  0.26216775086E+02  0.95480162630E+02  0.58178174434E+03  0.86742257932E+02 0.  0.
         24    2    4    4    0    0 -0.26043295235E+03  0.10159772882E+03 -0.24900076772E+03  0.38271831992E+03  0.79526781042E+02 0.  0.
         13    1    3    3    0    0 -0.21431738864E+03 -0.77746137317E+02 -0.12127968296E+03  0.25823471192E+03  0.00000000000E+00 0. -1.
        -13    1    3    3    0    0 -0.91943578144E+02 -0.50068366586E+02  0.53994419028E+01  0.10483137349E+03  0.00000000000E+00 0.  1.
          4    1    6    6  502    0 -0.16736907383E+03  0.10364563018E+03 -0.15652415188E+03  0.25150473882E+03  0.00000000000E+00 0. -1.
          3    1    5    5  503    0  0.19191832168E+03  0.49817600537E+02  0.27920942895E+02  0.20023489848E+03  0.00000000000E+00 0. -1.
         -4    1    5    5    0  503  0.37477559745E+03 -0.23600825451E+02  0.67559219735E+02  0.38154684585E+03  0.00000000000E+00 0.  1.
         -3    1    6    6    0  502 -0.93063878523E+02 -0.20479013610E+01 -0.92476615844E+02  0.13121358109E+03  0.00000000000E+00 0.  1.
<mgrwt>
<rscale>  0 0.12999443E+04</rscale>
<asrwt>0</asrwt>
<pdfrwt beam="1">  1        1 0.12284361E+00 0.12999443E+04</pdfrwt>
<pdfrwt beam="2">  1       -1 0.81397332E-01 0.12999443E+04</pdfrwt>
<totfact> 0.32767609E+01</totfact>
</mgrwt>
</event>
<event>
12    1  0.4612066E-007  0.2628404E+04  0.7818608E-02  0.8358617E-01
         -2   -1    0    0    0  501 -0.00000000000E+00  0.00000000000E+00  0.56909498975E+03  0.56909498975E+03  0.00000000000E+00 0.  1.
          2   -1    0    0  501    0  0.00000000000E+00 -0.00000000000E+00 -0.30348651829E+04  0.30348651829E+04  0.00000000000E+00 0. -1.
         23    2    1    2    0    0 -0.10223412745E+04 -0.22982459702E+03 -0.17469897644E+04  0.20390171016E+04  0.87272429006E+02 0.  0.
        254    2    1    2    0    0  0.10223412745E+04  0.22982459702E+03 -0.71878042872E+03  0.15649430710E+04  0.91345524462E+03 0.  0.
        -24    2    4    4    0    0  0.58679661571E+03  0.32221454596E+03  0.47324214108E+02  0.67585786534E+03  0.79948677641E+02 0.  0.
         24    2    4    4    0    0  0.43554465876E+03 -0.92389948932E+02 -0.76610464283E+03  0.88908520568E+03  0.72946053760E+02 0.  0.
         13    1    3    3    0    0 -0.95877660180E+03 -0.23041690621E+03 -0.16674404620E+04  0.19371892569E+04  0.00000000000E+00 0. -1.
        -13    1    3    3    0    0 -0.63564672675E+02  0.59230918899E+00 -0.79549302435E+02  0.10182784472E+03  0.00000000000E+00 0.  1.
          4    1    6    6  502    0  0.30984093820E+03 -0.97316384206E+02 -0.53105202556E+03  0.62248545323E+03  0.00000000000E+00 0. -1.
          3    1    5    5  503    0  0.96560352813E+02  0.64409278073E+02 -0.20372862394E+02  0.11784528145E+03  0.00000000000E+00 0. -1.
         -4    1    5    5    0  503  0.49023626290E+03  0.25780526788E+03  0.67697076502E+02  0.55801258389E+03  0.00000000000E+00 0.  1.
         -3    1    6    6    0  502  0.12570372055E+03  0.49264352742E+01 -0.23505261727E+03  0.26659975246E+03  0.00000000000E+00 0.  1.
<mgrwt>
<rscale>  0 0.26284038E+04</rscale>
<asrwt>0</asrwt>
<pdfrwt beam="1">  1        2 0.46690234E+00 0.26284038E+04</pdfrwt>
<pdfrwt beam="2">  1       -2 0.87553074E-01 0.26284038E+04</pdfrwt>
<totfact> 0.16447721E+00</totfact>
</mgrwt>
</event>
<event>
12    1  0.4612066E-007  0.1882120E+04  0.7818608E-02  0.8663808E-01
         -1   -1    0    0    0  501 -0.00000000000E+00  0.00000000000E+00  0.52215278453E+03  0.52215278453E+03  0.00000000000E+00 0.  1.
          1   -1    0    0  501    0  0.00000000000E+00 -0.00000000000E+00 -0.16960434540E+04  0.16960434540E+04  0.00000000000E+00 0. -1.
         23    2    1    2    0    0 -0.69127435004E+03 -0.15814210698E+03 -0.57414207176E+03  0.91682949076E+03  0.89822288705E+02 0.  0.
        254    2    1    2    0    0  0.69127435004E+03  0.15814210698E+03 -0.59974859766E+03  0.13013667477E+04  0.91158536553E+03 0.  0.
        -24    2    4    4    0    0  0.71313426812E+03  0.35673306880E+03 -0.16878837774E+03  0.81954203363E+03  0.85677661526E+02 0.  0.
         24    2    4    4    0    0 -0.21859918077E+02 -0.19859096182E+03 -0.43096021992E+03  0.48182471409E+03  0.80697694038E+02 0.  0.
         11    1    3    3    0    0 -0.57492878406E+03 -0.16481919885E+03 -0.47293762450E+03  0.76248178451E+03  0.00000000000E+00 0.  1.
        -11    1    3    3    0    0 -0.11634556598E+03  0.66770918732E+01 -0.10120444726E+03  0.15434770625E+03  0.00000000000E+00 0. -1.
          4    1    6    6  502    0  0.24204535902E+02 -0.32590355930E+02 -0.11494240339E+03  0.12190056175E+03  0.00000000000E+00 0. -1.
          3    1    5    5  503    0  0.14990467405E+03  0.66989822810E+02 -0.55167332037E+00  0.16419303275E+03  0.00000000000E+00 0. -1.
         -4    1    5    5    0  503  0.56322959407E+03  0.28974324599E+03 -0.16823670442E+03  0.65534900087E+03  0.00000000000E+00 0.  1.
         -3    1    6    6    0  502 -0.46064453979E+02 -0.16600060589E+03 -0.31601781653E+03  0.35992415235E+03  0.00000000000E+00 0.  1.
<mgrwt>
<rscale>  0 0.18821199E+04</rscale>
<asrwt>0</asrwt>
<pdfrwt beam="1">  1        1 0.26092976E+00 0.18821199E+04</pdfrwt>
<pdfrwt beam="2">  1       -1 0.80331199E-01 0.18821199E+04</pdfrwt>
<totfact> 0.69477031E+00</totfact>
</mgrwt>
</event>
<event>
12    1  0.4612066E-007  0.1307587E+04  0.7818608E-02  0.9023570E-01
         -2   -1    0    0    0  501 -0.00000000000E+00  0.00000000000E+00  0.19295286644E+03  0.19295286644E+03  0.00000000000E+00 0.  1.
          2   -1    0    0  501    0  0.00000000000E+00 -0.00000000000E+00 -0.22152880699E+04  0.22152880699E+04  0.00000000000E+00 0. -1.
         23    2    1    2    0    0 -0.26265751857E+03  0.20098908408E+03 -0.55288160633E+03  0.65070038906E+03  0.91363787831E+02 0.  0.
        254    2    1    2    0    0  0.26265751857E+03 -0.20098908408E+03 -0.14694535972E+04  0.17575405473E+04  0.90568720719E+03 0.  0.
        -24    2    4    4    0    0  0.16510428138E+02  0.15502720689E+03  0.44436513577E+02  0.18099894796E+03  0.80498362148E+02 0.  0.
         24    2    4    4    0    0  0.24614709044E+03 -0.35601629097E+03 -0.15138901107E+04  0.15765415994E+04  0.79272678411E+02 0.  0.
         13    1    3    3    0    0 -0.11413333847E+03  0.10868004897E+03 -0.18262935922E+03  0.24122863604E+03  0.00000000000E+00 0.  1.
        -13    1    3    3    0    0 -0.14852418011E+03  0.92309035105E+02 -0.37025224710E+03  0.40947175302E+03  0.00000000000E+00 0. -1.
          4    1    6    6  502    0  0.24104809721E+03 -0.35860744588E+03 -0.14672150940E+04  0.15295174459E+04  0.00000000000E+00 0. -1.
          3    1    5    5  503    0  0.29334615551E+02  0.10259773376E+03 -0.63355233188E+01  0.10689692932E+03  0.00000000000E+00 0. -1.
         -4    1    5    5    0  503 -0.12824187412E+02  0.52429473136E+02  0.50772036896E+02  0.74102018641E+02  0.00000000000E+00 0.  1.
         -3    1    6    6    0  502  0.50989932253E+01  0.25911549106E+01 -0.46675016790E+02  0.47024153454E+02  0.00000000000E+00 0.  1.
<mgrwt>
<rscale>  0 0.13075874E+04</rscale>
<asrwt>0</asrwt>
<pdfrwt beam="1">  1        2 0.34081354E+00 0.13075874E+04</pdfrwt>
<pdfrwt beam="2">  1       -2 0.29685057E-01 0.13075874E+04</pdfrwt>
<totfact> 0.51981521E+01</totfact>
</mgrwt>
</event>
<event>
12    1  0.4612066E-007  0.3315463E+04  0.7818608E-02  0.8158972E-01
          2   -1    0    0  501    0  0.00000000000E+00  0.00000000000E+00  0.15815010866E+04  0.15815010866E+04  0.00000000000E+00 0. -1.
         -2   -1    0    0    0  501 -0.00000000000E+00 -0.00000000000E+00 -0.17376361623E+04  0.17376361623E+04  0.00000000000E+00 0.  1.
         23    2    1    2    0    0 -0.95384490466E+02 -0.14628976999E+04 -0.53286843542E+03  0.15634481287E+04  0.10608204414E+03 0.  0.
        254    2    1    2    0    0  0.95384490466E+02  0.14628976999E+04  0.37673335966E+03  0.17556891202E+04  0.88957764199E+03 0.  0.
        -24    2    4    4    0    0 -0.16714886767E+03  0.79400911391E+03 -0.18974812123E+03  0.83727897759E+03  0.81501655647E+02 0.  0.
         24    2    4    4    0    0  0.26253335814E+03  0.66888858604E+03  0.56648148090E+03  0.91841014266E+03  0.78995045796E+02 0.  0.
         11    1    3    3    0    0 -0.10476799025E+03 -0.10620750013E+04 -0.35382165394E+03  0.11243528818E+04  0.00000000000E+00 0. -1.
        -11    1    3    3    0    0  0.93834997888E+01 -0.40082269868E+03 -0.17904678148E+03  0.43909524685E+03  0.00000000000E+00 0.  1.
          4    1    6    6  502    0  0.22166255694E+03  0.60751684358E+03  0.53007782492E+03  0.83617791459E+03  0.00000000000E+00 0. -1.
          3    1    5    5  503    0 -0.13933529889E+03  0.56303024209E+03 -0.16668648283E+03  0.60349131111E+03  0.00000000000E+00 0. -1.
         -4    1    5    5    0  503 -0.27813568782E+02  0.23097887182E+03 -0.23061638409E+02  0.23378766648E+03  0.00000000000E+00 0.  1.
         -3    1    6    6    0  502  0.40870801201E+02  0.61371742461E+02  0.36403655979E+02  0.82232228062E+02  0.00000000000E+00 0.  1.
<mgrwt>
<rscale>  0 0.33154629E+04</rscale>
<asrwt>0</asrwt>
<pdfrwt beam="1">  1        2 0.24330786E+00 0.33154629E+04</pdfrwt>
<pdfrwt beam="2">  1       -2 0.26732864E+00 0.33154629E+04</pdfrwt>
<totfact> 0.47943809E-01</totfact>
</mgrwt>
</event>
<event>
12    1  0.4612066E-007  0.2079481E+04  0.7818608E-02  0.8570337E-01
          2   -1    0    0  501    0  0.00000000000E+00  0.00000000000E+00  0.13963229904E+04  0.13963229904E+04  0.00000000000E+00 0. -1.
         -2   -1    0    0    0  501 -0.00000000000E+00 -0.00000000000E+00 -0.77421902173E+03  0.77421902173E+03  0.00000000000E+00 0.  1.
         23    2    1    2    0    0 -0.15296351659E+03 -0.57765731431E+03 -0.36564897641E+03  0.70662191104E+03  0.92355514362E+02 0.  0.
        254    2    1    2    0    0  0.15296351659E+03  0.57765731431E+03  0.98775294506E+03  0.14639201011E+04  0.90017796665E+03 0.  0.
        -24    2    4    4    0    0  0.27900947247E+03 -0.97667231232E+02  0.59414246772E+03  0.66832285989E+03  0.79151748695E+02 0.  0.
         24    2    4    4    0    0 -0.12604595588E+03  0.67532454555E+03  0.39361047734E+03  0.79559724117E+03  0.78070080565E+02 0.  0.
         11    1    3    3    0    0 -0.78055903393E+02 -0.42823962008E+03 -0.23647475095E+03  0.49538086772E+03  0.00000000000E+00 0. -1.
        -11    1    3    3    0    0 -0.74907613193E+02 -0.14941769423E+03 -0.12917422545E+03  0.21124104333E+03  0.00000000000E+00 0.  1.
          2    1    6    6  502    0 -0.12725047979E+03  0.59436869000E+03  0.32386784732E+03  0.68873594852E+03  0.00000000000E+00 0. -1.
          1    1    5    5  503    0  0.15180178354E+03 -0.40932301030E+02  0.23141218360E+03  0.27976925040E+03  0.00000000000E+00 0. -1.
         -2    1    5    5    0  503  0.12720768893E+03 -0.56734930202E+02  0.36273028412E+03  0.38855360949E+03  0.00000000000E+00 0.  1.
         -1    1    6    6    0  502  0.12045239108E+01  0.80955855549E+02  0.69742630015E+02  0.10686129265E+03  0.00000000000E+00 0.  1.
<mgrwt>
<rscale>  0 0.20794805E+04</rscale>
<asrwt>0</asrwt>
<pdfrwt beam="1">  1        2 0.21481892E+00 0.20794805E+04</pdfrwt>
<pdfrwt beam="2">  1       -2 0.11911062E+00 0.20794805E+04</pdfrwt>
<totfact> 0.72617925E+00</totfact>
</mgrwt>
</event>
<event>
12    1  0.4612066E-007  0.4929425E+04  0.7818608E-02  0.7839487E-01
          2   -1    0    0  501    0  0.00000000000E+00  0.00000000000E+00  0.37471391229E+04  0.37471391229E+04  0.00000000000E+00 0. -1.
         -2   -1    0    0    0  501 -0.00000000000E+00 -0.00000000000E+00 -0.16211856448E+04  0.16211856448E+04  0.00000000000E+00 0.  1.
         23    2    1    2    0    0 -0.84405609349E+03  0.21003994306E+04  0.22348237321E+03  0.22767188902E+04  0.96933362644E+02 0.  0.
        254    2    1    2    0    0  0.84405609349E+03 -0.21003994306E+04  0.19024711049E+04  0.30916058776E+04  0.90250880350E+03 0.  0.
        -24    2    4    4    0    0  0.83271878793E+03 -0.18833070731E+04  0.12762162754E+04  0.24239101630E+04  0.79664205229E+02 0.  0.
         24    2    4    4    0    0  0.11337305558E+02 -0.21709235748E+03  0.62625482950E+03  0.66769571452E+03  0.79779881900E+02 0.  0.
         11    1    3    3    0    0 -0.48526672205E+03  0.13035735209E+04  0.16812330534E+03  0.14010899906E+04  0.00000000000E+00 0. -1.
        -11    1    3    3    0    0 -0.35878937144E+03  0.79682590966E+03  0.55359067875E+02  0.87562889957E+03  0.00000000000E+00 0.  1.
          2    1    6    6  502    0 -0.33791962056E+02 -0.11014226233E+03  0.32818604474E+03  0.34782077945E+03  0.00000000000E+00 0. -1.
          1    1    5    5  503    0  0.44161666930E+03 -0.10797365456E+04  0.69662759849E+03  0.13587296646E+04  0.00000000000E+00 0. -1.
         -2    1    5    5    0  503  0.39110211863E+03 -0.80357052748E+03  0.57958867689E+03  0.10651804984E+04  0.00000000000E+00 0.  1.
         -1    1    6    6    0  502  0.45129267615E+02 -0.10695009514E+03  0.29806878475E+03  0.31987493508E+03  0.00000000000E+00 0.  1.
<mgrwt>
<rscale>  0 0.49294252E+04</rscale>
<asrwt>0</asrwt>
<pdfrwt beam="1">  1        2 0.57648294E+00 0.49294252E+04</pdfrwt>
<pdfrwt beam="2">  1       -2 0.24941318E+00 0.49294252E+04</pdfrwt>
<totfact> 0.25462518E-02</totfact>
</mgrwt>
</event>
<event>
12    1  0.4612066E-007  0.2308768E+04  0.7818608E-02  0.8474472E-01
         -2   -1    0    0    0  501 -0.00000000000E+00  0.00000000000E+00  0.12010150529E+04  0.12010150529E+04  0.00000000000E+00 0.  1.
          2   -1    0    0  501    0  0.00000000000E+00 -0.00000000000E+00 -0.11095637092E+04  0.11095637092E+04  0.00000000000E+00 0. -1.
         23    2    1    2    0    0 -0.35215248747E+03 -0.59925833545E+03  0.71093142650E+03  0.99992715435E+03  0.10634328271E+03 0.  0.
        254    2    1    2    0    0  0.35215248747E+03  0.59925833545E+03 -0.61948008272E+03  0.13106516077E+04  0.92245874539E+03 0.  0.
        -24    2    4    4    0    0  0.57898777274E+03  0.34307605884E+03 -0.10278818358E+03  0.68556973118E+03  0.80699581814E+02 0.  0.
         24    2    4    4    0    0 -0.22683528527E+03  0.25618227661E+03 -0.51669189914E+03  0.62508187655E+03  0.81689829609E+02 0.  0.
         11    1    3    3    0    0 -0.76333990780E+01 -0.15040325788E+02  0.50581403626E+02  0.53319401479E+02  0.00000000000E+00 0. -1.
        -11    1    3    3    0    0 -0.34451908839E+03 -0.58421800966E+03  0.66035002288E+03  0.94660775287E+03  0.00000000000E+00 0.  1.
          4    1    6    6  502    0 -0.17552130012E+03  0.21537690987E+03 -0.46462707868E+03  0.54136241313E+03  0.00000000000E+00 0. -1.
          3    1    5    5  503    0  0.90993788576E+02  0.36451470728E+02  0.92197342100E+01  0.98455994112E+02  0.00000000000E+00 0. -1.
         -4    1    5    5    0  503  0.48799398416E+03  0.30662458811E+03 -0.11200791779E+03  0.58711373707E+03  0.00000000000E+00 0.  1.
         -3    1    6    6    0  502 -0.51313985149E+02  0.40805366739E+02 -0.52064820459E+02  0.83719463424E+02  0.00000000000E+00 0.  1.
<mgrwt>
<rscale>  0 0.23087683E+04</rscale>
<asrwt>0</asrwt>
<pdfrwt beam="1">  1        2 0.17070211E+00 0.23087683E+04</pdfrwt>
<pdfrwt beam="2">  1       -2 0.18477155E+00 0.23087683E+04</pdfrwt>
<totfact> 0.32738541E+00</totfact>
</mgrwt>
</event>
<event>
12    1  0.4612066E-007  0.2011224E+04  0.7818608E-02  0.8601391E-01
          2   -1    0    0  501    0  0.00000000000E+00  0.00000000000E+00  0.25665097955E+04  0.25665097955E+04  0.00000000000E+00 0. -1.
         -2   -1    0    0    0  501 -0.00000000000E+00 -0.00000000000E+00 -0.39401991457E+03  0.39401991457E+03  0.00000000000E+00 0.  1.
         23    2    1    2    0    0 -0.22074261908E+03 -0.69614118445E+03  0.39278502261E+03  0.83423189634E+03  0.91230095460E+02 0.  0.
        254    2    1    2    0    0  0.22074261908E+03  0.69614118445E+03  0.17797048583E+04  0.21262978137E+04  0.90578869357E+03 0.  0.
        -24    2    4    4    0    0  0.41006213286E+03  0.15838777112E+03  0.30043466207E+03  0.53896844936E+03  0.83596437645E+02 0.  0.
         24    2    4    4    0    0 -0.18931951378E+03  0.53775341333E+03  0.14792701963E+04  0.15873293644E+04  0.79709382386E+02 0.  0.
         13    1    3    3    0    0 -0.35997860143E+02 -0.24692921529E+03  0.11595999238E+03  0.27516650074E+03  0.00000000000E+00 0.  1.
        -13    1    3    3    0    0 -0.18474475893E+03 -0.44921196916E+03  0.27682503023E+03  0.55906539559E+03  0.00000000000E+00 0. -1.
          4    1    6    6  502    0 -0.44991186530E+02  0.61130620788E+02  0.15686980305E+03  0.17426788221E+03  0.00000000000E+00 0. -1.
          3    1    5    5  503    0  0.34724919752E+02 -0.90423250781E+01  0.32038435657E+02  0.48104522178E+02  0.00000000000E+00 0. -1.
         -4    1    5    5    0  503  0.37533721311E+03  0.16743009620E+03  0.26839622641E+03  0.49086392718E+03  0.00000000000E+00 0.  1.
         -3    1    6    6    0  502 -0.14432832725E+03  0.47662279254E+03  0.13224003932E+04  0.14130614822E+04  0.00000000000E+00 0.  1.
<mgrwt>
<rscale>  0 0.20112245E+04</rscale>
<asrwt>0</asrwt>
<pdfrwt beam="1">  1        2 0.39484765E+00 0.20112245E+04</pdfrwt>
<pdfrwt beam="2">  1       -2 0.60618450E-01 0.20112245E+04</pdfrwt>
<totfact> 0.74950350E+00</totfact>
</mgrwt>
</event>
<event>
12    1  0.4612066E-007  0.1926563E+04  0.7818608E-02  0.8641746E-01
         -2   -1    0    0    0  501 -0.00000000000E+00  0.00000000000E+00  0.91508703120E+03  0.91508703120E+03  0.00000000000E+00 0. -1.
          2   -1    0    0  501    0  0.00000000000E+00 -0.00000000000E+00 -0.10140141018E+04  0.10140141018E+04  0.00000000000E+00 0.  1.
         23    2    1    2    0    0 -0.74485072155E+02 -0.61915317859E+03  0.36760462703E+03  0.72972238838E+03  0.91994118107E+02 0.  0.
        254    2    1    2    0    0  0.74485072155E+02  0.61915317859E+03 -0.46653169764E+03  0.11993787446E+04  0.91211779045E+03 0.  0.
        -24    2    4    4    0    0  0.41562341756E+03  0.61649619591E+03 -0.37703501127E+03  0.83786423328E+03  0.83968380295E+02 0.  0.
         24    2    4    4    0    0 -0.34113834541E+03  0.26569826819E+01 -0.89496686377E+02  0.36151451137E+03  0.79376664017E+02 0.  0.
         11    1    3    3    0    0 -0.28336459826E+02 -0.51820132761E+03  0.31247956855E+03  0.60578795932E+03  0.00000000000E+00 0. -1.
        -11    1    3    3    0    0 -0.46148612329E+02 -0.10095185098E+03  0.55125058474E+02  0.12393442906E+03  0.00000000000E+00 0.  1.
          4    1    6    6  502    0 -0.25945941648E+02 -0.14901123653E+02 -0.25719525965E+02  0.39455410148E+02  0.00000000000E+00 0. -1.
          3    1    5    5  503    0  0.33756299377E+02  0.24716119467E+02 -0.36700648780E+02  0.55653498812E+02  0.00000000000E+00 0. -1.
         -4    1    5    5    0  503  0.38186711819E+03  0.59178007644E+03 -0.34033436249E+03  0.78221073446E+03  0.00000000000E+00 0.  1.
         -3    1    6    6    0  502 -0.31519240376E+03  0.17558106335E+02 -0.63777160412E+02  0.32205910122E+03  0.00000000000E+00 0.  1.
<mgrwt>
<rscale>  0 0.19265629E+04</rscale>
<asrwt>0</asrwt>
<pdfrwt beam="1">  1        2 0.15600217E+00 0.19265629E+04</pdfrwt>
<pdfrwt beam="2">  1       -2 0.14078262E+00 0.19265629E+04</pdfrwt>
<totfact> 0.81618837E+00</totfact>
</mgrwt>
</event>
<event>
12    1  0.4612066E-007  0.2262067E+04  0.7818608E-02  0.8493030E-01
          1   -1    0    0  501    0  0.00000000000E+00  0.00000000000E+00  0.12200298048E+04  0.12200298048E+04  0.00000000000E+00 0. -1.
         -1   -1    0    0    0  501 -0.00000000000E+00 -0.00000000000E+00 -0.10485287486E+04  0.10485287486E+04  0.00000000000E+00 0.  1.
         23    2    1    2    0    0  0.15774937497E+03 -0.48022161581E+03 -0.73415089197E+03  0.89913597581E+03  0.11819604569E+03 0.  0.
        254    2    1    2    0    0 -0.15774937497E+03  0.48022161581E+03  0.90565194810E+03  0.13694225776E+04  0.89421198795E+03 0.  0.
        -24    2    4    4    0    0  0.13957604632E+03  0.46413435374E+03  0.93887280464E+03  0.10596135784E+04  0.79978879890E+02 0.  0.
         24    2    4    4    0    0 -0.29732542129E+03  0.16087262070E+02 -0.33220856536E+02  0.30980899921E+03  0.78846588615E+02 0.  0.
         11    1    3    3    0    0  0.12134679862E+03 -0.24296954415E+03 -0.31312585134E+03  0.41449613231E+03  0.00000000000E+00 0.  1.
        -11    1    3    3    0    0  0.36402576350E+02 -0.23725207166E+03 -0.42102504063E+03  0.48463984350E+03  0.00000000000E+00 0. -1.
          2    1    6    6  502    0 -0.12678236358E+03  0.28007663408E+02 -0.47498960979E+02  0.13825464990E+03  0.00000000000E+00 0. -1.
          3    1    5    5  503    0  0.87392943967E+02  0.29008749874E+03  0.66736732244E+03  0.73291706668E+03  0.00000000000E+00 0. -1.
         -4    1    5    5    0  503  0.52183102354E+02  0.17404685500E+03  0.27150548220E+03  0.32669651173E+03  0.00000000000E+00 0.  1.
         -1    1    6    6    0  502 -0.17054305770E+03 -0.11920401339E+02  0.14278104443E+02  0.17155434931E+03  0.00000000000E+00 0.  1.
<mgrwt>
<rscale>  0 0.22620666E+04</rscale>
<asrwt>0</asrwt>
<pdfrwt beam="1">  1        1 0.18769689E+00 0.22620666E+04</pdfrwt>
<pdfrwt beam="2">  1       -1 0.16131211E+00 0.22620666E+04</pdfrwt>
<totfact> 0.26763611E+00</totfact>
</mgrwt>
</event>
<event>
12    1  0.4612066E-007  0.1276571E+04  0.7818608E-02  0.9048354E-01
         -1   -1    0    0    0  501 -0.00000000000E+00  0.00000000000E+00  0.65183890280E+03  0.65183890280E+03  0.00000000000E+00 0.  1.
          1   -1    0    0  501    0  0.00000000000E+00 -0.00000000000E+00 -0.62501395960E+03  0.62501395960E+03  0.00000000000E+00 0. -1.
         23    2    1    2    0    0 -0.24316005837E+02 -0.13938159640E+03 -0.27777824659E+03  0.32467720269E+03  0.90752598408E+02 0.  0.
        254    2    1    2    0    0  0.24316005837E+02  0.13938159640E+03  0.30460318978E+03  0.95217565971E+03  0.89097524442E+03 0.  0.
        -24    2    4    4    0    0 -0.35657139669E+03  0.26226318229E+03  0.30706134538E+03  0.54468087531E+03  0.80408011941E+02 0.  0.
         24    2    4    4    0    0  0.38088740253E+03 -0.12288158589E+03 -0.24581555973E+01  0.40749478439E+03  0.76621532377E+02 0.  0.
         13    1    3    3    0    0  0.18718337496E+01 -0.14621687086E+02 -0.12425857499E+03  0.12512989632E+03  0.00000000000E+00 0. -1.
        -13    1    3    3    0    0 -0.26187839587E+02 -0.12475990931E+03 -0.15351967160E+03  0.19954730638E+03  0.00000000000E+00 0.  1.
          2    1    6    6  502    0  0.34498637023E+03 -0.96173910730E+02  0.17349133538E+02  0.35856102574E+03  0.00000000000E+00 0. -1.
          3    1    5    5  503    0 -0.33933936508E+03  0.23343364205E+03  0.26076431198E+03  0.48748384212E+03  0.00000000000E+00 0. -1.
         -4    1    5    5    0  503 -0.17232031614E+02  0.28829540245E+02  0.46297033398E+02  0.57197033190E+02  0.00000000000E+00 0.  1.
         -1    1    6    6    0  502  0.35901032302E+02 -0.26707675163E+02 -0.19807289135E+02  0.48933758652E+02  0.00000000000E+00 0.  1.
<mgrwt>
<rscale>  0 0.12765711E+04</rscale>
<asrwt>0</asrwt>
<pdfrwt beam="1">  1        1 0.96155994E-01 0.12765711E+04</pdfrwt>
<pdfrwt beam="2">  1       -1 0.10028291E+00 0.12765711E+04</pdfrwt>
<totfact> 0.30092119E+01</totfact>
</mgrwt>
</event>
<event>
12    1  0.4612066E-007  0.1271889E+04  0.7818608E-02  0.9052159E-01
          2   -1    0    0  501    0  0.00000000000E+00  0.00000000000E+00  0.43024485296E+03  0.43024485296E+03  0.00000000000E+00 0. -1.
         -2   -1    0    0    0  501 -0.00000000000E+00 -0.00000000000E+00 -0.93998918743E+03  0.93998918743E+03  0.00000000000E+00 0.  1.
         23    2    1    2    0    0  0.14502363688E+03  0.26270086892E+03 -0.88852552475E+02  0.32595976071E+03  0.91166812697E+02 0.  0.
        254    2    1    2    0    0 -0.14502363688E+03 -0.26270086892E+03 -0.42089178199E+03  0.10442742797E+04  0.90736722294E+03 0.  0.
        -24    2    4    4    0    0 -0.13332058137E+03 -0.58127828508E+03 -0.38186800979E+03  0.71257772909E+03  0.79278124148E+02 0.  0.
         24    2    4    4    0    0 -0.11703055501E+02  0.31857741616E+03 -0.39023772203E+02  0.33169655059E+03  0.82892793893E+02 0.  0.
         13    1    3    3    0    0  0.15671504717E+03  0.22736235156E+03 -0.82490039067E+02  0.28819759101E+03  0.00000000000E+00 0. -1.
        -13    1    3    3    0    0 -0.11691410296E+02  0.35338517357E+02 -0.63625134077E+01  0.37762169702E+02  0.00000000000E+00 0.  1.
          2    1    6    6  502    0 -0.34009225389E+02  0.59888319350E+02  0.15947280353E+01  0.68889631758E+02  0.00000000000E+00 0. -1.
          3    1    5    5  503    0 -0.79210735177E+02 -0.34765097467E+03 -0.18160993579E+03  0.40014710987E+03  0.00000000000E+00 0. -1.
         -4    1    5    5    0  503 -0.54109846197E+02 -0.23362731041E+03 -0.20025807400E+03  0.31243061922E+03  0.00000000000E+00 0.  1.
         -1    1    6    6    0  502  0.22306169888E+02  0.25868909681E+03 -0.40618500238E+02  0.26280691883E+03  0.00000000000E+00 0.  1.
<mgrwt>
<rscale>  0 0.12718892E+04</rscale>
<asrwt>0</asrwt>
<pdfrwt beam="1">  1        2 0.66191516E-01 0.12718892E+04</pdfrwt>
<pdfrwt beam="2">  1       -2 0.14461372E+00 0.12718892E+04</pdfrwt>
<totfact> 0.23701954E+01</totfact>
</mgrwt>
</event>
<event>
12    1  0.4612066E-007  0.1708714E+04  0.7818608E-02  0.8756410E-01
          1   -1    0    0  501    0  0.00000000000E+00  0.00000000000E+00  0.63024860308E+03  0.63024860308E+03  0.00000000000E+00 0. -1.
         -1   -1    0    0    0  501 -0.00000000000E+00 -0.00000000000E+00 -0.11581554440E+04  0.11581554440E+04  0.00000000000E+00 0.  1.
         23    2    1    2    0    0 -0.32699640789E+03  0.46147107890E+02 -0.72379654076E+03  0.80075023607E+03  0.90902705194E+02 0.  0.
        254    2    1    2    0    0  0.32699640789E+03 -0.46147107890E+02  0.19588969989E+03  0.98765381096E+03  0.90996212528E+03 0.  0.
        -24    2    4    4    0    0  0.36635006118E+03 -0.89246306848E+02 -0.29584427906E+03  0.48595450092E+03  0.80316056316E+02 0.  0.
         24    2    4    4    0    0 -0.39353653288E+02  0.43099198958E+02  0.49173397895E+03  0.50169931004E+03  0.80583128906E+02 0.  0.
         13    1    3    3    0    0 -0.99160287873E+02  0.15460334661E+02 -0.13162998200E+03  0.16552412754E+03  0.00000000000E+00 0. -1.
        -13    1    3    3    0    0 -0.22783612001E+03  0.30686773229E+02 -0.59216655876E+03  0.63522610853E+03  0.00000000000E+00 0.  1.
          4    1    6    6  502    0 -0.24035140918E+02  0.47470538510E+02  0.47713153331E+03  0.48008920016E+03  0.00000000000E+00 0. -1.
          3    1    5    5  503    0  0.33513498964E+03 -0.81731990032E+02 -0.23574705368E+03  0.41781844478E+03  0.00000000000E+00 0. -1.
         -4    1    5    5    0  503  0.31215071531E+02 -0.75143168156E+01 -0.60097225383E+02  0.68136056142E+02  0.00000000000E+00 0.  1.
         -3    1    6    6    0  502 -0.15318512370E+02 -0.43713395521E+01  0.14602445640E+02  0.21610109888E+02  0.00000000000E+00 0.  1.
<mgrwt>
<rscale>  0 0.17087140E+04</rscale>
<asrwt>0</asrwt>
<pdfrwt beam="1">  1        1 0.96961324E-01 0.17087140E+04</pdfrwt>
<pdfrwt beam="2">  1       -1 0.17817776E+00 0.17087140E+04</pdfrwt>
<totfact> 0.65012410E+00</totfact>
</mgrwt>
</event>
<event>
12    1  0.4612066E-007  0.1476714E+04  0.7818608E-02  0.8900087E-01
          2   -1    0    0  501    0  0.00000000000E+00  0.00000000000E+00  0.24242202729E+04  0.24242202729E+04  0.00000000000E+00 0. -1.
         -2   -1    0    0    0  501 -0.00000000000E+00 -0.00000000000E+00 -0.22488526643E+03  0.22488526643E+03  0.00000000000E+00 0.  1.
         23    2    1    2    0    0 -0.21625888212E+03  0.41579045963E+03  0.80986539842E+03  0.93990710405E+03  0.88847004827E+02 0.  0.
        254    2    1    2    0    0  0.21625888212E+03 -0.41579045963E+03  0.13894696080E+04  0.17091984352E+04  0.87811382464E+03 0.  0.
        -24    2    4    4    0    0  0.38569131303E+03 -0.43079852913E+03  0.41392864043E+03  0.71569138257E+03  0.80821247620E+02 0.  0.
         24    2    4    4    0    0 -0.16943243090E+03  0.15008069500E+02  0.97554096758E+03  0.99350705268E+03  0.80271374072E+02 0.  0.
         11    1    3    3    0    0 -0.14307285696E+03  0.26524546880E+03  0.60022908623E+03  0.67163975245E+03  0.00000000000E+00 0. -1.
        -11    1    3    3    0    0 -0.73186025165E+02  0.15054499084E+03  0.20963631219E+03  0.26826735160E+03  0.00000000000E+00 0.  1.
          2    1    6    6  502    0  0.17549852464E+01  0.16068560583E+02  0.62527327617E+02  0.64582856173E+02  0.00000000000E+00 0. -1.
          3    1    5    5  503    0  0.11211322615E+03 -0.15072855521E+03  0.17678641831E+03  0.25795718740E+03  0.00000000000E+00 0. -1.
         -4    1    5    5    0  503  0.27357808688E+03 -0.28006997393E+03  0.23714222212E+03  0.45773419517E+03  0.00000000000E+00 0.  1.
         -1    1    6    6    0  502 -0.17118741615E+03 -0.10604910830E+01  0.91301363997E+03  0.92892419651E+03  0.00000000000E+00 0.  1.
<mgrwt>
<rscale>  0 0.14767145E+04</rscale>
<asrwt>0</asrwt>
<pdfrwt beam="1">  1        2 0.37295695E+00 0.14767145E+04</pdfrwt>
<pdfrwt beam="2">  1       -2 0.34597735E-01 0.14767145E+04</pdfrwt>
<totfact> 0.29258301E+01</totfact>
</mgrwt>
</event>
<event>
12    1  0.4612066E-007  0.1445545E+04  0.7818608E-02  0.8921495E-01
         -1   -1    0    0    0  501 -0.00000000000E+00  0.00000000000E+00  0.22061157690E+03  0.22061157690E+03  0.00000000000E+00 0.  1.
          1   -1    0    0  501    0  0.00000000000E+00 -0.00000000000E+00 -0.23679625443E+04  0.23679625443E+04  0.00000000000E+00 0. -1.
         23    2    1    2    0    0  0.22562831331E+03 -0.25630541805E+03 -0.17619458839E+03  0.39478071098E+03  0.90590693209E+02 0.  0.
        254    2    1    2    0    0 -0.22562831331E+03  0.25630541805E+03 -0.19711563790E+04  0.21937934102E+04  0.90037295223E+03 0.  0.
        -24    2    4    4    0    0 -0.52284542243E+03  0.26195390324E+03 -0.16357882353E+04  0.17389516103E+04  0.78500758630E+02 0.  0.
         24    2    4    4    0    0  0.29721710911E+03 -0.56484851851E+01 -0.33536814373E+03  0.45484179991E+03  0.77713292214E+02 0.  0.
         11    1    3    3    0    0  0.19451745240E+02 -0.75071931518E+02 -0.52771392359E+02  0.93802905851E+02  0.00000000000E+00 0. -1.
        -11    1    3    3    0    0  0.20617656808E+03 -0.18123348653E+03 -0.12342319603E+03  0.30097780513E+03  0.00000000000E+00 0.  1.
          2    1    6    6  502    0  0.89728241876E+02 -0.10825819221E+02 -0.15708920627E+03  0.18123292879E+03  0.00000000000E+00 0. -1.
          1    1    5    5  503    0 -0.10317866642E+03  0.74294318631E+02 -0.28486209952E+03  0.31194855141E+03  0.00000000000E+00 0. -1.
         -2    1    5    5    0  503 -0.41966675601E+03  0.18765958461E+03 -0.13509261358E+04  0.14270030589E+04  0.00000000000E+00 0.  1.
         -1    1    6    6    0  502  0.20748886724E+03  0.51773340361E+01 -0.17827893746E+03  0.27360887112E+03  0.00000000000E+00 0.  1.
<mgrwt>
<rscale>  0 0.14455448E+04</rscale>
<asrwt>0</asrwt>
<pdfrwt beam="1">  1        1 0.36430195E+00 0.14455448E+04</pdfrwt>
<pdfrwt beam="2">  1       -1 0.33940240E-01 0.14455448E+04</pdfrwt>
<totfact> 0.13346538E+01</totfact>
</mgrwt>
</event>
<event>
12    1  0.4612066E-007  0.1879975E+04  0.7818608E-02  0.8664889E-01
          2   -1    0    0  501    0  0.00000000000E+00  0.00000000000E+00  0.83967348222E+03  0.83967348222E+03  0.00000000000E+00 0. -1.
         -2   -1    0    0    0  501 -0.00000000000E+00 -0.00000000000E+00 -0.10522857168E+04  0.10522857168E+04  0.00000000000E+00 0.  1.
         23    2    1    2    0    0 -0.39607175140E+03 -0.57235029307E+03  0.12625355091E+03  0.71307136301E+03  0.89850539164E+02 0.  0.
        254    2    1    2    0    0  0.39607175140E+03  0.57235029307E+03 -0.33886578548E+03  0.11788878360E+04  0.88909438142E+03 0.  0.
        -24    2    4    4    0    0  0.40439313176E+03 -0.52232462032E+02  0.78913632602E+02  0.42293309483E+03  0.79893718052E+02 0.  0.
         24    2    4    4    0    0 -0.83213803606E+01  0.62458275510E+03 -0.41777941808E+03  0.75595474117E+03  0.82189203609E+02 0.  0.
         11    1    3    3    0    0 -0.13180225180E+03 -0.18003438603E+03  0.83055087172E+02  0.23808057720E+03  0.00000000000E+00 0. -1.
        -11    1    3    3    0    0 -0.26426949959E+03 -0.39231590704E+03  0.43198463734E+02  0.47499078580E+03  0.00000000000E+00 0.  1.
          2    1    6    6  502    0  0.12567313217E+02  0.49487497587E+03 -0.29578430621E+03  0.57666934625E+03  0.00000000000E+00 0. -1.
          1    1    5    5  503    0  0.37445321529E+03 -0.67988643408E+02  0.80760243015E+02  0.38904997484E+03  0.00000000000E+00 0. -1.
         -2    1    5    5    0  503  0.29939916471E+02  0.15756181376E+02 -0.18466104131E+01  0.33883119984E+02  0.00000000000E+00 0.  1.
         -1    1    6    6    0  502 -0.20888693578E+02  0.12970777923E+03 -0.12199511187E+03  0.17928539492E+03  0.00000000000E+00 0.  1.
<mgrwt>
<rscale>  0 0.18799749E+04</rscale>
<asrwt>0</asrwt>
<pdfrwt beam="1">  1        2 0.12918054E+00 0.18799749E+04</pdfrwt>
<pdfrwt beam="2">  1       -2 0.16189011E+00 0.18799749E+04</pdfrwt>
<totfact> 0.73820225E+00</totfact>
</mgrwt>
</event>
<event>
12    1  0.4612066E-007  0.1709966E+04  0.7818608E-02  0.8755701E-01
         -1   -1    0    0    0  501 -0.00000000000E+00  0.00000000000E+00  0.11423331735E+04  0.11423331735E+04  0.00000000000E+00 0.  1.
          1   -1    0    0  501    0  0.00000000000E+00 -0.00000000000E+00 -0.63991469498E+03  0.63991469498E+03  0.00000000000E+00 0. -1.
         23    2    1    2    0    0  0.30176326137E+03 -0.11932053267E+03 -0.35872590363E+03  0.49211271523E+03  0.90510745950E+02 0.  0.
        254    2    1    2    0    0 -0.30176326137E+03  0.11932053267E+03  0.86114438210E+03  0.12901351532E+04  0.90420164305E+03 0.  0.
        -24    2    4    4    0    0 -0.31950924964E+03 -0.21756175390E+03  0.85687497653E+03  0.94344128700E+03  0.80171436601E+02 0.  0.
         24    2    4    4    0    0  0.17745988276E+02  0.33688228657E+03  0.42694055734E+01  0.34669386621E+03  0.79836169374E+02 0.  0.
         13    1    3    3    0    0  0.11466919953E+03 -0.72271331898E+02 -0.20345019818E+03  0.24446708137E+03  0.00000000000E+00 0. -1.
        -13    1    3    3    0    0  0.18709406184E+03 -0.47049200771E+02 -0.15527570545E+03  0.24764563386E+03  0.00000000000E+00 0.  1.
          2    1    6    6  502    0  0.19968265196E+02  0.27251285381E+03  0.34738279537E+02  0.27544279836E+03  0.00000000000E+00 0. -1.
          1    1    5    5  503    0 -0.10723578428E+03 -0.58641194798E+02  0.19157121342E+03  0.22723959375E+03  0.00000000000E+00 0. -1.
         -4    1    5    5    0  503 -0.21227346536E+03 -0.15892055910E+03  0.66530376311E+03  0.71620169325E+03  0.00000000000E+00 0.  1.
         -1    1    6    6    0  502 -0.22222769194E+01  0.64369432764E+02 -0.30468873964E+02  0.71251067849E+02  0.00000000000E+00 0.  1.
<mgrwt>
<rscale>  0 0.17099658E+04</rscale>
<asrwt>0</asrwt>
<pdfrwt beam="1">  1        1 0.98448415E-01 0.17099658E+04</pdfrwt>
<pdfrwt beam="2">  1       -1 0.17574356E+00 0.17099658E+04</pdfrwt>
<totfact> 0.66199152E+00</totfact>
</mgrwt>
</event>
<event>
12    1  0.4612066E-007  0.1509000E+04  0.7818608E-02  0.8878490E-01
          3   -1    0    0  501    0  0.00000000000E+00  0.00000000000E+00  0.55212807317E+03  0.55212807317E+03  0.00000000000E+00 0.  1.
         -3   -1    0    0    0  501 -0.00000000000E+00 -0.00000000000E+00 -0.10310480571E+04  0.10310480571E+04  0.00000000000E+00 0. -1.
         23    2    1    2    0    0  0.17391341032E+03  0.30386881549E+03  0.19286975986E+03  0.40988269809E+03  0.90680486381E+02 0.  0.
        254    2    1    2    0    0 -0.17391341032E+03 -0.30386881549E+03 -0.67178974382E+03  0.11732934322E+04  0.89595417677E+03 0.  0.
        -24    2    4    4    0    0 -0.19163468857E+03  0.31483763160E+02  0.16576728198E+03  0.26746717743E+03  0.79654366008E+02 0.  0.
         24    2    4    4    0    0  0.17721278245E+02 -0.33535257865E+03 -0.83755702580E+03  0.90582625478E+03  0.79019217154E+02 0.  0.
         11    1    3    3    0    0  0.32145862842E+02  0.62313572655E+02  0.83915099110E+02  0.10935301410E+03  0.00000000000E+00 0. -1.
        -11    1    3    3    0    0  0.14176754748E+03  0.24155524283E+03  0.10895466075E+03  0.30052968399E+03  0.00000000000E+00 0.  1.
          2    1    6    6  502    0  0.14175295893E+01 -0.71349630204E+01 -0.13967442878E+01  0.74072924908E+01  0.00000000000E+00 0. -1.
          1    1    5    5  503    0 -0.28311603489E+02  0.34286137544E+02  0.20883743164E+02  0.49124503543E+02  0.00000000000E+00 0. -1.
         -2    1    5    5    0  503 -0.16332308508E+03 -0.28023743841E+01  0.14488353882E+03  0.21834267389E+03  0.00000000000E+00 0.  1.
         -1    1    6    6    0  502  0.16303748655E+02 -0.32821761563E+03 -0.83616028151E+03  0.89841896229E+03  0.00000000000E+00 0.  1.
<mgrwt>
<rscale>  0 0.15090004E+04</rscale>
<asrwt>0</asrwt>
<pdfrwt beam="1">  1        3 0.84942781E-01 0.15090004E+04</pdfrwt>
<pdfrwt beam="2">  1       -3 0.15862278E+00 0.15090004E+04</pdfrwt>
<totfact> 0.89600494E-01</totfact>
</mgrwt>
</event>
<event>
12    1  0.4612066E-007  0.1278441E+04  0.7818608E-02  0.9046838E-01
         -2   -1    0    0    0  501 -0.00000000000E+00  0.00000000000E+00  0.50289733520E+03  0.50289733520E+03  0.00000000000E+00 0.  1.
          2   -1    0    0  501    0  0.00000000000E+00 -0.00000000000E+00 -0.81249760124E+03  0.81249760124E+03  0.00000000000E+00 0. -1.
         23    2    1    2    0    0 -0.17781861245E+03 -0.27610282195E+03 -0.19749701081E+02  0.34205292825E+03  0.93583801010E+02 0.  0.
        254    2    1    2    0    0  0.17781861245E+03  0.27610282195E+03 -0.28985056496E+03  0.97334200819E+03  0.86921176227E+03 0.  0.
        -24    2    4    4    0    0 -0.13577311305E+03  0.26296042012E+03  0.21448735340E+03  0.37419791394E+03  0.80229254342E+02 0.  0.
         24    2    4    4    0    0  0.31359172550E+03  0.13142401830E+02 -0.50433791837E+03  0.59914409424E+03  0.78130766918E+02 0.  0.
         13    1    3    3    0    0 -0.49257073674E+02 -0.16289795643E+03 -0.94631562564E+01  0.17044516667E+03  0.00000000000E+00 0.  1.
        -13    1    3    3    0    0 -0.12856153878E+03 -0.11320486552E+03 -0.10286544824E+02  0.17160776158E+03  0.00000000000E+00 0. -1.
          2    1    6    6  502    0  0.23948389124E+03  0.37320503249E+02 -0.34338361403E+03  0.42030662678E+03  0.00000000000E+00 0. -1.
          3    1    5    5  503    0 -0.98461954510E+02  0.18498709898E+03  0.19353202749E+03  0.28525362213E+03  0.00000000000E+00 0. -1.
         -4    1    5    5    0  503 -0.37311158537E+02  0.77973321143E+02  0.20955325909E+02  0.88944291809E+02  0.00000000000E+00 0.  1.
         -1    1    6    6    0  502  0.74107834257E+02 -0.24178101419E+02 -0.16095430433E+03  0.17883746747E+03  0.00000000000E+00 0.  1.
<mgrwt>
<rscale>  0 0.12784410E+04</rscale>
<asrwt>0</asrwt>
<pdfrwt beam="1">  1        2 0.12499963E+00 0.12784410E+04</pdfrwt>
<pdfrwt beam="2">  1       -2 0.77368821E-01 0.12784410E+04</pdfrwt>
<totfact> 0.49367399E+01</totfact>
</mgrwt>
</event>
<event>
12    1  0.4612066E-007  0.2062717E+04  0.7818608E-02  0.8577847E-01
         -2   -1    0    0    0  501 -0.00000000000E+00  0.00000000000E+00  0.68763687804E+03  0.68763687804E+03  0.00000000000E+00 0.  1.
          2   -1    0    0  501    0  0.00000000000E+00 -0.00000000000E+00 -0.15468919781E+04  0.15468919781E+04  0.00000000000E+00 0. -1.
         23    2    1    2    0    0  0.62974879632E+03 -0.13662086415E+03 -0.90206874708E+03  0.11122830370E+04  0.90535754821E+02 0.  0.
        254    2    1    2    0    0 -0.62974879632E+03  0.13662086415E+03  0.42813647003E+02  0.11222458192E+04  0.91779837836E+03 0.  0.
        -24    2    4    4    0    0 -0.63392979151E+03 -0.10027760608E+02  0.38055865183E+03  0.74395512028E+03  0.81711669674E+02 0.  0.
         24    2    4    4    0    0  0.41809951894E+01  0.14664862476E+03 -0.33774500482E+03  0.37829069891E+03  0.86653705819E+02 0.  0.
         11    1    3    3    0    0  0.62327610824E+03 -0.13249586611E+03 -0.86462025875E+03  0.10740560756E+04  0.00000000000E+00 0.  1.
        -11    1    3    3    0    0  0.64726880777E+01 -0.41249980394E+01 -0.37448488325E+02  0.38226961397E+02  0.00000000000E+00 0. -1.
          4    1    6    6  502    0 -0.23836565708E+02  0.13892600132E+03 -0.28892304364E+03  0.32147339058E+03  0.00000000000E+00 0. -1.
          3    1    5    5  503    0 -0.28195405290E+03 -0.43210410733E+02  0.18415607149E+03  0.33952715092E+03  0.00000000000E+00 0. -1.
         -4    1    5    5    0  503 -0.35197573861E+03  0.33182650125E+02  0.19640258034E+03  0.40442796936E+03  0.00000000000E+00 0.  1.
         -3    1    6    6    0  502  0.28017560898E+02  0.77226234436E+01 -0.48821961183E+02  0.56817308325E+02  0.00000000000E+00 0.  1.
<mgrwt>
<rscale>  0 0.20627166E+04</rscale>
<asrwt>0</asrwt>
<pdfrwt beam="1">  1        2 0.23798338E+00 0.20627166E+04</pdfrwt>
<pdfrwt beam="2">  1       -2 0.10579029E+00 0.20627166E+04</pdfrwt>
<totfact> 0.79716176E+00</totfact>
</mgrwt>
</event>
<event>
12    1  0.4612066E-007  0.2105701E+04  0.7818608E-02  0.8558736E-01
         -2   -1    0    0    0  501 -0.00000000000E+00  0.00000000000E+00  0.77343534253E+03  0.77343534253E+03  0.00000000000E+00 0.  1.
          2   -1    0    0  501    0  0.00000000000E+00 -0.00000000000E+00 -0.14332089847E+04  0.14332089847E+04  0.00000000000E+00 0. -1.
         23    2    1    2    0    0 -0.66554071392E+03  0.84888648349E+02 -0.82749808497E+03  0.10692895009E+04  0.92067538859E+02 0.  0.
        254    2    1    2    0    0  0.66554071392E+03 -0.84888648349E+02  0.16772444278E+03  0.11373548263E+04  0.90293631432E+03 0.  0.
        -24    2    4    4    0    0  0.31807679490E+03  0.35806950224E+03  0.27560897715E+03  0.55836991978E+03  0.80187549805E+02 0.  0.
         24    2    4    4    0    0  0.34746391903E+03 -0.44295815059E+03 -0.10788453437E+03  0.57898490652E+03  0.81494484631E+02 0.  0.
         11    1    3    3    0    0 -0.29335204616E+03  0.57557915163E+02 -0.43372255574E+03  0.52676711357E+03  0.00000000000E+00 0. -1.
        -11    1    3    3    0    0 -0.37218866776E+03  0.27330733186E+02 -0.39377552922E+03  0.54252238737E+03  0.00000000000E+00 0.  1.
          2    1    6    6  502    0  0.48579126822E+02 -0.89274918067E+02  0.70320094516E+01  0.10187929974E+03  0.00000000000E+00 0. -1.
          1    1    5    5  503    0  0.30875492003E+02  0.60917245712E+02  0.66067057540E+02  0.95021381402E+02  0.00000000000E+00 0. -1.
         -2    1    5    5    0  503  0.28720130289E+03  0.29715225653E+03  0.20954191961E+03  0.46334853838E+03  0.00000000000E+00 0.  1.
         -1    1    6    6    0  502  0.29888479220E+03 -0.35368323253E+03 -0.11491654382E+03  0.47710560678E+03  0.00000000000E+00 0.  1.
<mgrwt>
<rscale>  0 0.21057013E+04</rscale>
<asrwt>0</asrwt>
<pdfrwt beam="1">  1        2 0.22049369E+00 0.21057013E+04</pdfrwt>
<pdfrwt beam="2">  1       -2 0.11899005E+00 0.21057013E+04</pdfrwt>
<totfact> 0.69201703E+00</totfact>
</mgrwt>
</event>
<event>
12    1  0.4612066E-007  0.1688008E+04  0.7818608E-02  0.8768234E-01
         -1   -1    0    0    0  501 -0.00000000000E+00  0.00000000000E+00  0.66998885087E+03  0.66998885087E+03  0.00000000000E+00 0.  1.
          1   -1    0    0  501    0  0.00000000000E+00 -0.00000000000E+00 -0.10632152022E+04  0.10632152022E+04  0.00000000000E+00 0. -1.
         23    2    1    2    0    0  0.16803987183E+03  0.26156874670E+03 -0.66970275153E+03  0.74381700142E+03  0.90035262050E+02 0.  0.
        254    2    1    2    0    0 -0.16803987183E+03 -0.26156874670E+03  0.27647640017E+03  0.98938705167E+03  0.89765913931E+03 0.  0.
        -24    2    4    4    0    0  0.23404260698E+03 -0.11237807502E+03  0.44637181575E+03  0.52185842095E+03  0.75389919745E+02 0.  0.
         24    2    4    4    0    0 -0.40208247881E+03 -0.14919067169E+03 -0.16989541558E+03  0.46752863072E+03  0.76094625467E+02 0.  0.
         13    1    3    3    0    0  0.12356518275E+02  0.21908290475E+02 -0.14581888682E+02  0.29073840698E+02  0.00000000000E+00 0.  1.
        -13    1    3    3    0    0  0.15568335355E+03  0.23966045623E+03 -0.65512086285E+03  0.71474316072E+03  0.00000000000E+00 0. -1.
          2    1    6    6  502    0 -0.21340432001E+03 -0.93252864833E+02 -0.53736316129E+02  0.23900856108E+03  0.00000000000E+00 0. -1.
          1    1    5    5  503    0  0.14813517692E+03 -0.30936310091E+02  0.26816169228E+03  0.30791521419E+03  0.00000000000E+00 0. -1.
         -2    1    5    5    0  503  0.85907430061E+02 -0.81441764925E+02  0.17821012347E+03  0.21394320676E+03  0.00000000000E+00 0.  1.
         -1    1    6    6    0  502 -0.18867815880E+03 -0.55937806853E+02 -0.11615909945E+03  0.22852006964E+03  0.00000000000E+00 0.  1.
<mgrwt>
<rscale>  0 0.16880075E+04</rscale>
<asrwt>0</asrwt>
<pdfrwt beam="1">  1        1 0.16357157E+00 0.16880075E+04</pdfrwt>
<pdfrwt beam="2">  1       -1 0.10307521E+00 0.16880075E+04</pdfrwt>
<totfact> 0.11449095E+01</totfact>
</mgrwt>
</event>
<event>
12    1  0.4612066E-007  0.1060418E+04  0.7818608E-02  0.9244654E-01
         -2   -1    0    0    0  501 -0.00000000000E+00  0.00000000000E+00  0.26067085690E+03  0.26067085690E+03  0.00000000000E+00 0.  1.
          2   -1    0    0  501    0  0.00000000000E+00 -0.00000000000E+00 -0.10784541724E+04  0.10784541724E+04  0.00000000000E+00 0. -1.
         23    2    1    2    0    0 -0.18141197110E+02  0.84878951353E+02 -0.68645142988E+02  0.15309549501E+03  0.10579478022E+03 0.  0.
        254    2    1    2    0    0  0.18141197110E+02 -0.84878951353E+02 -0.74913817253E+03  0.11860295343E+04  0.91538216898E+03 0.  0.
        -24    2    4    4    0    0  0.11335624181E+03  0.34514347304E+03 -0.61417309816E+03  0.71806005793E+03  0.80174794925E+02 0.  0.
         24    2    4    4    0    0 -0.95215044703E+02 -0.43002242440E+03 -0.13496507437E+03  0.46796947638E+03  0.82429784091E+02 0.  0.
         11    1    3    3    0    0 -0.82955545007E+01 -0.18810317161E+02 -0.40157986418E+02  0.45114389382E+02  0.00000000000E+00 0. -1.
        -11    1    3    3    0    0 -0.98456426091E+01  0.10368926851E+03 -0.28487156570E+02  0.10798110563E+03  0.00000000000E+00 0.  1.
          2    1    6    6  502    0 -0.68966591133E+02 -0.28423522143E+03 -0.48579265915E+02  0.29648945490E+03  0.00000000000E+00 0. -1.
          1    1    5    5  503    0  0.11513310402E+03  0.33123606534E+03 -0.60968078230E+03  0.70333748580E+03  0.00000000000E+00 0. -1.
         -2    1    5    5    0  503 -0.17768622106E+01  0.13907407698E+02 -0.44923158632E+01  0.14722572126E+02  0.00000000000E+00 0.  1.
         -1    1    6    6    0  502 -0.26248453569E+02 -0.14578720297E+03 -0.86385808453E+02  0.17148002148E+03  0.00000000000E+00 0.  1.
<mgrwt>
<rscale>  0 0.10604180E+04</rscale>
<asrwt>0</asrwt>
<pdfrwt beam="1">  1        2 0.16591602E+00 0.10604180E+04</pdfrwt>
<pdfrwt beam="2">  1       -2 0.40103209E-01 0.10604180E+04</pdfrwt>
<totfact> 0.13145458E+02</totfact>
</mgrwt>
</event>
<event>
12    1  0.4612066E-007  0.1532952E+04  0.7818608E-02  0.8862831E-01
         -1   -1    0    0    0  501 -0.00000000000E+00  0.00000000000E+00  0.59031407035E+03  0.59031407035E+03  0.00000000000E+00 0. -1.
          1   -1    0    0  501    0  0.00000000000E+00 -0.00000000000E+00 -0.99520825409E+03  0.99520825409E+03  0.00000000000E+00 0.  1.
         23    2    1    2    0    0  0.36075301375E+03 -0.35242361187E+03 -0.10880135400E+03  0.52362831606E+03  0.89463621737E+02 0.  0.
        254    2    1    2    0    0 -0.36075301375E+03  0.35242361187E+03 -0.29609282974E+03  0.10618940084E+04  0.88634236167E+03 0.  0.
        -24    2    4    4    0    0 -0.58841850105E+03  0.44029946412E+01 -0.14299804427E+03  0.61099331054E+03  0.81293702822E+02 0.  0.
         24    2    4    4    0    0  0.22766548730E+03  0.34802061723E+03 -0.15309478547E+03  0.45090069785E+03  0.83207582955E+02 0.  0.
         11    1    3    3    0    0  0.44537086980E+02 -0.78249222121E+02  0.41396062658E+01  0.90131177842E+02  0.00000000000E+00 0. -1.
        -11    1    3    3    0    0  0.31621592677E+03 -0.27417438975E+03 -0.11294096026E+03  0.43349713822E+03  0.00000000000E+00 0.  1.
          2    1    6    6  502    0  0.19771729380E+03  0.31577145953E+03 -0.16155706966E+03  0.40608426426E+03  0.00000000000E+00 0. -1.
          1    1    5    5  503    0 -0.28662186105E+03  0.33132342792E+02 -0.42707640972E+02  0.29167410918E+03  0.00000000000E+00 0. -1.
         -2    1    5    5    0  503 -0.30179664000E+03 -0.28729348151E+02 -0.10029040330E+03  0.31931920136E+03  0.00000000000E+00 0.  1.
         -1    1    6    6    0  502  0.29948193493E+02  0.32249157698E+02  0.84622841940E+01  0.44816433588E+02  0.00000000000E+00 0.  1.
<mgrwt>
<rscale>  0 0.15329520E+04</rscale>
<asrwt>0</asrwt>
<pdfrwt beam="1">  1        1 0.15310896E+00 0.15329520E+04</pdfrwt>
<pdfrwt beam="2">  1       -1 0.90817551E-01 0.15329520E+04</pdfrwt>
<totfact> 0.17438535E+01</totfact>
</mgrwt>
</event>
<event>
12    1  0.4612066E-007  0.3494918E+04  0.7818608E-02  0.8114995E-01
         -1   -1    0    0    0  501 -0.00000000000E+00  0.00000000000E+00  0.72748738595E+03  0.72748738595E+03  0.00000000000E+00 0.  1.
          1   -1    0    0  501    0  0.00000000000E+00 -0.00000000000E+00 -0.41974782983E+04  0.41974782983E+04  0.00000000000E+00 0. -1.
         23    2    1    2    0    0 -0.11681400242E+03 -0.56914767817E+03  0.51995835914E+03  0.78440335887E+03  0.85774958187E+02 0.  0.
        254    2    1    2    0    0  0.11681400242E+03  0.56914767817E+03 -0.39899492714E+04  0.41405623253E+04  0.94179965524E+03 0.  0.
        -24    2    4    4    0    0 -0.29079524839E+03  0.48115898314E+03 -0.31317650922E+04  0.31829366484E+04  0.84007566038E+02 0.  0.
         24    2    4    4    0    0  0.40760925081E+03  0.87988695028E+02 -0.85818417921E+03  0.95762567696E+03  0.81728452364E+02 0.  0.
         13    1    3    3    0    0 -0.29649160833E+02 -0.19620170959E+03  0.12652810516E+03  0.23533708798E+03  0.00000000000E+00 0. -1.
        -13    1    3    3    0    0 -0.87164841585E+02 -0.37294596858E+03  0.39343025398E+03  0.54906627089E+03  0.00000000000E+00 0.  1.
          4    1    6    6  502    0  0.13772248395E+03  0.49263481104E+02 -0.22664805094E+03  0.26974749703E+03  0.00000000000E+00 0. -1.
          3    1    5    5  503    0 -0.21432032996E+03  0.38341557476E+03 -0.22493324169E+04  0.22918195890E+04  0.00000000000E+00 0. -1.
         -4    1    5    5    0  503 -0.76474918426E+02  0.97743408376E+02 -0.88243267532E+03  0.89111705937E+03  0.00000000000E+00 0.  1.
         -3    1    6    6    0  502  0.26988676685E+03  0.38725213924E+02 -0.63153612827E+03  0.68787817993E+03  0.00000000000E+00 0.  1.
<mgrwt>
<rscale>  0 0.34949177E+04</rscale>
<asrwt>0</asrwt>
<pdfrwt beam="1">  1        1 0.64576590E+00 0.34949177E+04</pdfrwt>
<pdfrwt beam="2">  1       -1 0.11192114E+00 0.34949177E+04</pdfrwt>
<totfact> 0.37901693E-02</totfact>
</mgrwt>
</event>
<event>
12    1  0.4612066E-007  0.1540448E+04  0.7818608E-02  0.8857992E-01
          2   -1    0    0  501    0  0.00000000000E+00  0.00000000000E+00  0.24603753441E+04  0.24603753441E+04  0.00000000000E+00 0.  1.
         -2   -1    0    0    0  501 -0.00000000000E+00 -0.00000000000E+00 -0.24111969715E+03  0.24111969715E+03  0.00000000000E+00 0. -1.
         23    2    1    2    0    0  0.30784149174E+03 -0.13851475707E+03  0.12941881186E+04  0.13410132911E+04  0.97165008343E+02 0.  0.
        254    2    1    2    0    0 -0.30784149174E+03  0.13851475707E+03  0.92506752835E+03  0.13604817501E+04  0.93872676443E+03 0.  0.
        -24    2    4    4    0    0  0.17978171784E+03 -0.23509557801E+02  0.80169397637E+03  0.82579293880E+03  0.79665429434E+02 0.  0.
         24    2    4    4    0    0 -0.48762320958E+03  0.16202431487E+03  0.12337355197E+03  0.53468881125E+03  0.81503487168E+02 0.  0.
         11    1    3    3    0    0  0.15677368137E+02  0.16618849592E+01  0.16293922531E+02  0.22672310089E+02  0.00000000000E+00 0. -1.
        -11    1    3    3    0    0  0.29216412360E+03 -0.14017664203E+03  0.12778941960E+04  0.13183409811E+04  0.00000000000E+00 0.  1.
          4    1    6    6  502    0 -0.33401584748E+03  0.12990699924E+03  0.11924312965E+03  0.37770535976E+03  0.00000000000E+00 0. -1.
          1    1    5    5  503    0  0.10177267258E+02 -0.17518755448E+02  0.34124898934E+02  0.39686172510E+02  0.00000000000E+00 0. -1.
         -2    1    5    5    0  503  0.16960445058E+03 -0.59908023523E+01  0.76756907744E+03  0.78610676629E+03  0.00000000000E+00 0.  1.
         -3    1    6    6    0  502 -0.15360736210E+03  0.32117315629E+02  0.41304223199E+01  0.15698345149E+03  0.00000000000E+00 0.  1.
<mgrwt>
<rscale>  0 0.15404479E+04</rscale>
<asrwt>0</asrwt>
<pdfrwt beam="1">  1        2 0.37851927E+00 0.15404479E+04</pdfrwt>
<pdfrwt beam="2">  1       -2 0.37095340E-01 0.15404479E+04</pdfrwt>
<totfact> 0.24268225E+01</totfact>
</mgrwt>
</event>
<event>
12    1  0.4612066E-007  0.2066000E+04  0.7818608E-02  0.8576370E-01
         -2   -1    0    0    0  501 -0.00000000000E+00  0.00000000000E+00  0.18171299807E+04  0.18171299807E+04  0.00000000000E+00 0. -1.
          2   -1    0    0  501    0  0.00000000000E+00 -0.00000000000E+00 -0.58723855345E+03  0.58723855345E+03  0.00000000000E+00 0.  1.
         23    2    1    2    0    0 -0.48220199534E+03 -0.66521561490E+03  0.67514414921E+03  0.10673348682E+04  0.91397592747E+02 0.  0.
        254    2    1    2    0    0  0.48220199534E+03  0.66521561490E+03  0.55474727807E+03  0.13370336660E+04  0.89715322155E+03 0.  0.
        -24    2    4    4    0    0  0.31011586539E+03 -0.91274871817E+02 -0.66734945304E+02  0.33972351577E+03  0.80346512335E+02 0.  0.
         24    2    4    4    0    0  0.17208612995E+03  0.75649048672E+03  0.62148222338E+03  0.99731015026E+03  0.80597079530E+02 0.  0.
         11    1    3    3    0    0 -0.26308873271E+03 -0.41604213805E+03  0.36128261070E+03  0.61059959605E+03  0.00000000000E+00 0.  1.
        -11    1    3    3    0    0 -0.21911326263E+03 -0.24917347685E+03  0.31386153851E+03  0.45673527211E+03  0.00000000000E+00 0. -1.
          4    1    6    6  502    0  0.94982764636E+02  0.48363668395E+03  0.34779902922E+03  0.60323323215E+03  0.00000000000E+00 0. -1.
          1    1    5    5  503    0  0.33216893854E+02 -0.36709118886E+02  0.87292602847E+00  0.49514477141E+02  0.00000000000E+00 0. -1.
         -2    1    5    5    0  503  0.27689897154E+03 -0.54565752931E+02 -0.67607871333E+02  0.29020903862E+03  0.00000000000E+00 0.  1.
         -3    1    6    6    0  502  0.77103365311E+02  0.27285380276E+03  0.27368319416E+03  0.39407691811E+03  0.00000000000E+00 0.  1.
<mgrwt>
<rscale>  0 0.20659998E+04</rscale>
<asrwt>0</asrwt>
<pdfrwt beam="1">  1        2 0.90344394E-01 0.20659998E+04</pdfrwt>
<pdfrwt beam="2">  1       -2 0.27955846E+00 0.20659998E+04</pdfrwt>
<totfact> 0.19939750E+00</totfact>
</mgrwt>
</event>
<event>
12    1  0.4612066E-007  0.2625101E+04  0.7818608E-02  0.8359725E-01
         -2   -1    0    0    0  501 -0.00000000000E+00  0.00000000000E+00  0.93592971989E+03  0.93592971989E+03  0.00000000000E+00 0.  1.
          2   -1    0    0  501    0  0.00000000000E+00 -0.00000000000E+00 -0.18407240515E+04  0.18407240515E+04  0.00000000000E+00 0. -1.
         23    2    1    2    0    0  0.72016680395E+03 -0.77871989430E+03  0.75187823132E+02  0.10673662072E+04  0.92587861872E+02 0.  0.
        254    2    1    2    0    0 -0.72016680395E+03  0.77871989430E+03 -0.97998215470E+03  0.17092875642E+04  0.91446927463E+03 0.  0.
        -24    2    4    4    0    0 -0.78136250752E+03  0.25109512591E+03 -0.78169485578E+03  0.11365806146E+04  0.84808699233E+02 0.  0.
         24    2    4    4    0    0  0.61195703566E+02  0.52762476839E+03 -0.19828729891E+03  0.57270694960E+03  0.80886258754E+02 0.  0.
         13    1    3    3    0    0  0.52928244474E+03 -0.57387671232E+03  0.14262281631E+02  0.78081867288E+03  0.00000000000E+00 0. -1.
        -13    1    3    3    0    0  0.19088435922E+03 -0.20484318198E+03  0.60925541501E+02  0.28654753429E+03  0.00000000000E+00 0.  1.
          2    1    6    6  502    0 -0.14515345096E+02  0.24735437208E+02 -0.12335014567E+02  0.31220020524E+02  0.00000000000E+00 0. -1.
          3    1    5    5  503    0 -0.79140472436E+02  0.43013464088E+02 -0.59187434906E+02  0.10777998386E+03  0.00000000000E+00 0. -1.
         -4    1    5    5    0  503 -0.70222203508E+03  0.20808166182E+03 -0.72250742088E+03  0.10288006307E+04  0.00000000000E+00 0.  1.
         -1    1    6    6    0  502  0.75711048662E+02  0.50288933118E+03 -0.18595228435E+03  0.54148692908E+03  0.00000000000E+00 0.  1.
<mgrwt>
<rscale>  0 0.26251006E+04</rscale>
<asrwt>0</asrwt>
<pdfrwt beam="1">  1        2 0.28318831E+00 0.26251006E+04</pdfrwt>
<pdfrwt beam="2">  1       -2 0.14398919E+00 0.26251006E+04</pdfrwt>
<totfact> 0.24134843E+00</totfact>
</mgrwt>
</event>
<event>
12    1  0.4612066E-007  0.1968989E+04  0.7818608E-02  0.8621258E-01
          2   -1    0    0  501    0  0.00000000000E+00  0.00000000000E+00  0.10851035020E+04  0.10851035020E+04  0.00000000000E+00 0. -1.
         -2   -1    0    0    0  501 -0.00000000000E+00 -0.00000000000E+00 -0.89321409047E+03  0.89321409047E+03  0.00000000000E+00 0.  1.
         23    2    1    2    0    0  0.11479907425E+03 -0.59880105040E+03 -0.40673319778E+03  0.73851295373E+03  0.90708121096E+02 0.  0.
        254    2    1    2    0    0 -0.11479907425E+03  0.59880105040E+03  0.59862260932E+03  0.12398046387E+04  0.89834569541E+03 0.  0.
        -24    2    4    4    0    0 -0.64049799370E+02  0.15763987687E+02  0.63938724817E+03  0.64772824780E+03  0.79905880698E+02 0.  0.
         24    2    4    4    0    0 -0.50749274876E+02  0.58303706271E+03 -0.40764638847E+02  0.59207639095E+03  0.79906142079E+02 0.  0.
         13    1    3    3    0    0  0.12739124749E+03 -0.51711027056E+03 -0.33583592564E+03  0.62961681268E+03  0.00000000000E+00 0. -1.
        -13    1    3    3    0    0 -0.12592173243E+02 -0.81690779843E+02 -0.70897272139E+02  0.10889614105E+03  0.00000000000E+00 0.  1.
          4    1    6    6  502    0 -0.23818683385E+02  0.46415454777E+03 -0.40872356974E+01  0.46478326066E+03  0.00000000000E+00 0. -1.
          1    1    5    5  503    0 -0.13071700964E+02  0.35802294051E+01  0.11841523878E+02  0.17997474724E+02  0.00000000000E+00 0. -1.
         -2    1    5    5    0  503 -0.50978098406E+02  0.12183758282E+02  0.62754572429E+03  0.62973077307E+03  0.00000000000E+00 0.  1.
         -3    1    6    6    0  502 -0.26930591491E+02  0.11888251495E+03 -0.36677403150E+02  0.12729313029E+03  0.00000000000E+00 0.  1.
<mgrwt>
<rscale>  0 0.19689893E+04</rscale>
<asrwt>0</asrwt>
<pdfrwt beam="1">  1        2 0.16693900E+00 0.19689893E+04</pdfrwt>
<pdfrwt beam="2">  1       -2 0.13741755E+00 0.19689893E+04</pdfrwt>
<totfact> 0.78130867E+00</totfact>
</mgrwt>
</event>
<event>
12    1  0.4612066E-007  0.1752584E+04  0.7818608E-02  0.8731929E-01
          2   -1    0    0  501    0  0.00000000000E+00  0.00000000000E+00  0.57316782221E+03  0.57316782221E+03  0.00000000000E+00 0.  1.
         -2   -1    0    0    0  501 -0.00000000000E+00 -0.00000000000E+00 -0.13397259169E+04  0.13397259169E+04  0.00000000000E+00 0. -1.
         23    2    1    2    0    0  0.60600736964E+03  0.10974803718E+03 -0.47450119900E+03  0.78299679088E+03  0.92967859725E+02 0.  0.
        254    2    1    2    0    0 -0.60600736964E+03 -0.10974803718E+03 -0.29205689573E+03  0.11298969483E+04  0.90115499202E+03 0.  0.
        -24    2    4    4    0    0 -0.55804972719E+03  0.12800614490E+03 -0.52769730513E+03  0.78262190054E+03  0.78914651433E+02 0.  0.
         24    2    4    4    0    0 -0.47957642451E+02 -0.23775418207E+03  0.23564040940E+03  0.34727504773E+03  0.79035243253E+02 0.  0.
         13    1    3    3    0    0  0.12314345113E+03  0.49733392642E+02 -0.69344013200E+02  0.14982093334E+03  0.00000000000E+00 0.  1.
        -13    1    3    3    0    0  0.48286391851E+03  0.60014644534E+02 -0.40515718580E+03  0.63317585754E+03  0.00000000000E+00 0. -1.
          2    1    6    6  502    0  0.22020101928E+02 -0.58531918813E+02  0.52603994567E+02  0.81719340754E+02  0.00000000000E+00 0. -1.
          1    1    5    5  503    0 -0.27753186255E+03  0.39401369221E+02 -0.21480310983E+03  0.35315262793E+03  0.00000000000E+00 0. -1.
         -2    1    5    5    0  503 -0.28051786465E+03  0.88604775675E+02 -0.31289419530E+03  0.42946927261E+03  0.00000000000E+00 0.  1.
         -1    1    6    6    0  502 -0.69977744380E+02 -0.17922226326E+03  0.18303641483E+03  0.26555570698E+03  0.00000000000E+00 0.  1.
<mgrwt>
<rscale>  0 0.17525841E+04</rscale>
<asrwt>0</asrwt>
<pdfrwt beam="1">  1        2 0.88179665E-01 0.17525841E+04</pdfrwt>
<pdfrwt beam="2">  1       -2 0.20611168E+00 0.17525841E+04</pdfrwt>
<totfact> 0.60204188E+00</totfact>
</mgrwt>
</event>
<event>
12    1  0.4612066E-007  0.2434238E+04  0.7818608E-02  0.8426795E-01
         -1   -1    0    0    0  501 -0.00000000000E+00  0.00000000000E+00  0.10179072362E+04  0.10179072362E+04  0.00000000000E+00 0.  1.
          1   -1    0    0  501    0  0.00000000000E+00 -0.00000000000E+00 -0.14553180020E+04  0.14553180020E+04  0.00000000000E+00 0. -1.
         23    2    1    2    0    0  0.17642294973E+03 -0.10160413078E+04 -0.32189609956E+03  0.10843438198E+04  0.93377857749E+02 0.  0.
        254    2    1    2    0    0 -0.17642294973E+03  0.10160413078E+04 -0.11551466624E+03  0.13888814185E+04  0.92313756298E+03 0.  0.
        -24    2    4    4    0    0  0.29291296247E+03  0.35682503134E+03  0.20923008970E+03  0.51322481552E+03  0.80624898473E+02 0.  0.
         24    2    4    4    0    0 -0.46933591220E+03  0.65921627643E+03 -0.32474475594E+03  0.87565660295E+03  0.80455156380E+02 0.  0.
         13    1    3    3    0    0  0.16601441313E+03 -0.73318892841E+03 -0.21636059435E+03  0.78226510654E+03  0.00000000000E+00 0. -1.
        -13    1    3    3    0    0  0.10408536601E+02 -0.28285237936E+03 -0.10553550521E+03  0.30207871326E+03  0.00000000000E+00 0.  1.
          2    1    6    6  502    0 -0.29244882812E+03  0.44838796469E+03 -0.24778004196E+03  0.58989239115E+03  0.00000000000E+00 0. -1.
          3    1    5    5  503    0  0.20789940570E+03  0.29806594735E+03  0.18157387587E+03  0.40624443905E+03  0.00000000000E+00 0. -1.
         -4    1    5    5    0  503  0.85013556770E+02  0.58759083987E+02  0.27656213836E+02  0.10698037647E+03  0.00000000000E+00 0.  1.
         -1    1    6    6    0  502 -0.17688708408E+03  0.21082831174E+03 -0.76964713985E+02  0.28576421180E+03  0.00000000000E+00 0.  1.
<mgrwt>
<rscale>  0 0.24342381E+04</rscale>
<asrwt>0</asrwt>
<pdfrwt beam="1">  1        1 0.22389508E+00 0.24342381E+04</pdfrwt>
<pdfrwt beam="2">  1       -1 0.15660111E+00 0.24342381E+04</pdfrwt>
<totfact> 0.19477819E+00</totfact>
</mgrwt>
</event>
<event>
12    1  0.4612066E-007  0.1699928E+04  0.7818608E-02  0.8761405E-01
         -1   -1    0    0    0  501 -0.00000000000E+00  0.00000000000E+00  0.37568049805E+03  0.37568049805E+03  0.00000000000E+00 0.  1.
          1   -1    0    0  501    0  0.00000000000E+00 -0.00000000000E+00 -0.19230142044E+04  0.19230142044E+04  0.00000000000E+00 0. -1.
         23    2    1    2    0    0  0.45043384287E+03  0.31311743430E+03 -0.20264936186E+03  0.59157832943E+03  0.89246745142E+02 0.  0.
        254    2    1    2    0    0 -0.45043384287E+03 -0.31311743430E+03 -0.13446843445E+04  0.17071163730E+04  0.89729434984E+03 0.  0.
        -24    2    4    4    0    0 -0.45641938016E+02  0.19684876872E+03 -0.70321513473E+01  0.21729794827E+03  0.79601023336E+02 0.  0.
         24    2    4    4    0    0 -0.40479190486E+03 -0.50996620302E+03 -0.13376521931E+04  0.14898184247E+04  0.79520654401E+02 0.  0.
         11    1    3    3    0    0  0.18501640999E+02  0.88795309432E+01  0.90366609598E+01  0.22423604321E+02  0.00000000000E+00 0.  1.
        -11    1    3    3    0    0  0.43193220187E+03  0.30423790336E+03 -0.21168602282E+03  0.56915472511E+03  0.00000000000E+00 0. -1.
          2    1    6    6  502    0 -0.81433148023E+02 -0.13181009752E+03 -0.25635165071E+03  0.29953535389E+03  0.00000000000E+00 0. -1.
          3    1    5    5  503    0 -0.60295930054E+02  0.85342483798E+02  0.15575483843E+01  0.10450533325E+03  0.00000000000E+00 0. -1.
         -4    1    5    5    0  503  0.14653992037E+02  0.11150628492E+03 -0.85896997316E+01  0.11279261501E+03  0.00000000000E+00 0.  1.
         -1    1    6    6    0  502 -0.32335875683E+03 -0.37815610550E+03 -0.10813005424E+04  0.11902830709E+04  0.00000000000E+00 0.  1.
<mgrwt>
<rscale>  0 0.16999282E+04</rscale>
<asrwt>0</asrwt>
<pdfrwt beam="1">  1        1 0.29584834E+00 0.16999282E+04</pdfrwt>
<pdfrwt beam="2">  1       -1 0.57796999E-01 0.16999282E+04</pdfrwt>
<totfact> 0.97004213E+00</totfact>
</mgrwt>
</event>
<event>
12    1  0.4612066E-007  0.2169968E+04  0.7818608E-02  0.8531033E-01
          2   -1    0    0  501    0  0.00000000000E+00  0.00000000000E+00  0.25119846734E+04  0.25119846734E+04  0.00000000000E+00 0. -1.
         -2   -1    0    0    0  501 -0.00000000000E+00 -0.00000000000E+00 -0.46862968898E+03  0.46862968898E+03  0.00000000000E+00 0.  1.
         23    2    1    2    0    0 -0.70577702606E+03  0.12997270523E+03  0.15659435111E+04  0.17247553095E+04  0.87107307935E+02 0.  0.
        254    2    1    2    0    0  0.70577702606E+03 -0.12997270523E+03  0.47741147326E+03  0.12558590528E+04  0.91337075227E+03 0.  0.
        -24    2    4    4    0    0 -0.85701722323E+02 -0.86010991980E+02  0.43374833498E+03  0.45793412287E+03  0.82603673255E+02 0.  0.
         24    2    4    4    0    0  0.79147874839E+03 -0.43961713254E+02  0.43663138282E+02  0.79792492995E+03  0.80040507277E+02 0.  0.
         13    1    3    3    0    0 -0.28136825978E+03  0.34130343419E+02  0.52696968227E+03  0.59835610132E+03  0.00000000000E+00 0.  1.
        -13    1    3    3    0    0 -0.42440876629E+03  0.95842361815E+02  0.10389738288E+04  0.11263992082E+04  0.00000000000E+00 0. -1.
          4    1    6    6  502    0  0.26692598645E+03 -0.37496904525E+02  0.45317086419E+02  0.27332972471E+03  0.00000000000E+00 0. -1.
          1    1    5    5  503    0 -0.10988097423E+02  0.16603718455E+02  0.56933907295E+02  0.60314936387E+02  0.00000000000E+00 0. -1.
         -2    1    5    5    0  503 -0.74713624900E+02 -0.10261471043E+03  0.37681442769E+03  0.39761918648E+03  0.00000000000E+00 0.  1.
         -3    1    6    6    0  502  0.52455276194E+03 -0.64648087297E+01 -0.16539481366E+01  0.52459520523E+03  0.00000000000E+00 0.  1.
<mgrwt>
<rscale>  0 0.21699683E+04</rscale>
<asrwt>0</asrwt>
<pdfrwt beam="1">  1        2 0.38645917E+00 0.21699683E+04</pdfrwt>
<pdfrwt beam="2">  1       -2 0.72096876E-01 0.21699683E+04</pdfrwt>
<totfact> 0.54703514E+00</totfact>
</mgrwt>
</event>
<event>
12    1  0.4612066E-007  0.2296174E+04  0.7818608E-02  0.8479431E-01
         -1   -1    0    0    0  501 -0.00000000000E+00  0.00000000000E+00  0.89527336300E+03  0.89527336300E+03  0.00000000000E+00 0.  1.
          1   -1    0    0  501    0  0.00000000000E+00 -0.00000000000E+00 -0.14722925665E+04  0.14722925665E+04  0.00000000000E+00 0. -1.
         23    2    1    2    0    0  0.31724173338E+03  0.85376589142E+03 -0.59483564193E+03  0.10914695163E+04  0.88981736296E+02 0.  0.
        254    2    1    2    0    0 -0.31724173338E+03 -0.85376589142E+03  0.17816438374E+02  0.12760964132E+04  0.89361407534E+03 0.  0.
        -24    2    4    4    0    0  0.52649554077E+02  0.12760431967E+02 -0.27045119141E+03  0.28755176311E+03  0.81285702080E+02 0.  0.
         24    2    4    4    0    0 -0.36989128745E+03 -0.86652632338E+03  0.28826762979E+03  0.98854465012E+03  0.80217611832E+02 0.  0.
         11    1    3    3    0    0  0.10645947216E+03  0.22473073483E+03 -0.12336402239E+03  0.27758999335E+03  0.00000000000E+00 0.  1.
        -11    1    3    3    0    0  0.21078226122E+03  0.62903515659E+03 -0.47147161954E+03  0.81387952297E+03  0.00000000000E+00 0. -1.
          2    1    6    6  502    0 -0.14267289650E+03 -0.43604204186E+03  0.14312823264E+03  0.48059744968E+03  0.00000000000E+00 0. -1.
          1    1    5    5  503    0  0.58005697456E-01  0.17014838129E+02 -0.19351215226E+03  0.19425874794E+03  0.00000000000E+00 0. -1.
         -2    1    5    5    0  503  0.52591548380E+02 -0.42544061619E+01 -0.76939039155E+02  0.93293015167E+02  0.00000000000E+00 0.  1.
         -1    1    6    6    0  502 -0.22721839095E+03 -0.43048428153E+03  0.14513939715E+03  0.50794720044E+03  0.00000000000E+00 0.  1.
<mgrwt>
<rscale>  0 0.22961745E+04</rscale>
<asrwt>0</asrwt>
<pdfrwt beam="1">  1        1 0.22650655E+00 0.22961745E+04</pdfrwt>
<pdfrwt beam="2">  1       -1 0.13773436E+00 0.22961745E+04</pdfrwt>
<totfact> 0.27045346E+00</totfact>
</mgrwt>
</event>
<event>
12    1  0.4612066E-007  0.2947295E+04  0.7818608E-02  0.8258943E-01
          2   -1    0    0  501    0  0.00000000000E+00  0.00000000000E+00  0.30850187670E+04  0.30850187670E+04  0.00000000000E+00 0. -1.
         -2   -1    0    0    0  501 -0.00000000000E+00 -0.00000000000E+00 -0.70392992869E+03  0.70392992869E+03  0.00000000000E+00 0.  1.
         23    2    1    2    0    0  0.56435410366E+01  0.12614593880E+04  0.16086919032E+04  0.20463356758E+04  0.91040768650E+02 0.  0.
        254    2    1    2    0    0 -0.56435410366E+01 -0.12614593880E+04  0.77239693505E+03  0.17426130198E+04  0.92129879766E+03 0.  0.
        -24    2    4    4    0    0  0.16177206067E+03  0.40535368744E+02 -0.49838731644E+02  0.19166472689E+03  0.80238099607E+02 0.  0.
         24    2    4    4    0    0 -0.16741560171E+03 -0.13019947567E+04  0.82223566669E+03  0.15509482930E+04  0.78426944366E+02 0.  0.
         13    1    3    3    0    0 -0.32620199712E+02  0.23611523442E+03  0.28504136164E+03  0.37156837755E+03  0.00000000000E+00 0. -1.
        -13    1    3    3    0    0  0.38263740749E+02  0.10253441536E+04  0.13236505416E+04  0.16747672983E+04  0.00000000000E+00 0.  1.
          2    1    6    6  502    0 -0.10886674939E+03 -0.56548035916E+03  0.37799349516E+03  0.68883894206E+03  0.00000000000E+00 0. -1.
          1    1    5    5  503    0  0.10469195263E+03 -0.10964092604E+01  0.86919342874E+00  0.10470130159E+03  0.00000000000E+00 0. -1.
         -2    1    5    5    0  503  0.57080108048E+02  0.41631778004E+02 -0.50707925073E+02  0.86963425299E+02  0.00000000000E+00 0.  1.
         -1    1    6    6    0  502 -0.58548852322E+02 -0.73651439756E+03  0.44424217153E+03  0.86210935089E+03  0.00000000000E+00 0.  1.
<mgrwt>
<rscale>  0 0.29472951E+04</rscale>
<asrwt>0</asrwt>
<pdfrwt beam="1">  1        2 0.47461826E+00 0.29472951E+04</pdfrwt>
<pdfrwt beam="2">  1       -2 0.10829691E+00 0.29472951E+04</pdfrwt>
<totfact> 0.90185982E-01</totfact>
</mgrwt>
</event>
<event>
12    1  0.4612066E-007  0.1448021E+04  0.7818608E-02  0.8919774E-01
          1   -1    0    0  501    0  0.00000000000E+00  0.00000000000E+00  0.10120686362E+04  0.10120686362E+04  0.00000000000E+00 0. -1.
         -1   -1    0    0    0  501 -0.00000000000E+00 -0.00000000000E+00 -0.51794037222E+03  0.51794037222E+03  0.00000000000E+00 0.  1.
         23    2    1    2    0    0 -0.33773573927E+02 -0.40175871757E+03 -0.17173294099E+02  0.41176981177E+03  0.81906864274E+02 0.  0.
        254    2    1    2    0    0  0.33773573927E+02  0.40175871757E+03  0.51130155803E+03  0.11182391966E+04  0.90910884725E+03 0.  0.
        -24    2    4    4    0    0 -0.93000786559E+02  0.53081747022E+03  0.67102700073E+03  0.86408088807E+03  0.77085747261E+02 0.  0.
         24    2    4    4    0    0  0.12677436049E+03 -0.12905875266E+03 -0.15972544270E+03  0.25415830854E+03  0.79726586787E+02 0.  0.
         11    1    3    3    0    0 -0.45693406799E+02 -0.22170790691E+03  0.20972222058E+02  0.22733701307E+03  0.00000000000E+00 0. -1.
        -11    1    3    3    0    0  0.11919832872E+02 -0.18005081065E+03 -0.38145516157E+02  0.18443279870E+03  0.00000000000E+00 0.  1.
          4    1    6    6  502    0  0.14871869897E+02 -0.31611438933E+02 -0.76327914843E+02  0.83942874444E+02  0.00000000000E+00 0. -1.
          1    1    5    5  503    0  0.21644468514E+01  0.95362412822E+02  0.15707050548E+03  0.18376566138E+03  0.00000000000E+00 0. -1.
         -2    1    5    5    0  503 -0.95165233411E+02  0.43545505740E+03  0.51395649525E+03  0.68031522669E+03  0.00000000000E+00 0.  1.
         -3    1    6    6    0  502  0.11190249059E+03 -0.97447313723E+02 -0.83397527853E+02  0.17021543409E+03  0.00000000000E+00 0.  1.
<mgrwt>
<rscale>  0 0.14480210E+04</rscale>
<asrwt>0</asrwt>
<pdfrwt beam="1">  1        1 0.15570287E+00 0.14480210E+04</pdfrwt>
<pdfrwt beam="2">  1       -1 0.79683135E-01 0.14480210E+04</pdfrwt>
<totfact> 0.22630877E+01</totfact>
</mgrwt>
</event>
<event>
12    1  0.4612066E-007  0.1340961E+04  0.7818608E-02  0.8997699E-01
          2   -1    0    0  501    0  0.00000000000E+00  0.00000000000E+00  0.18334035822E+04  0.18334035822E+04  0.00000000000E+00 0. -1.
         -2   -1    0    0    0  501 -0.00000000000E+00 -0.00000000000E+00 -0.24519631321E+03  0.24519631321E+03  0.00000000000E+00 0.  1.
         23    2    1    2    0    0 -0.68627207370E+02  0.70103761157E+02  0.97242503647E+03  0.98170156738E+03  0.92213257824E+02 0.  0.
        254    2    1    2    0    0  0.68627207370E+02 -0.70103761157E+02  0.61578223249E+03  0.10968983280E+04  0.90242670240E+03 0.  0.
        -24    2    4    4    0    0  0.53082251146E+02 -0.25208249853E+02  0.84450302436E+03  0.85035554129E+03  0.80411486752E+02 0.  0.
         24    2    4    4    0    0  0.15544956225E+02 -0.44895511304E+02 -0.22872079187E+03  0.24654278671E+03  0.78821903348E+02 0.  0.
         13    1    3    3    0    0 -0.47233432191E+02  0.91640033018E+02  0.80127758157E+03  0.80788282288E+03  0.00000000000E+00 0. -1.
        -13    1    3    3    0    0 -0.21393775179E+02 -0.21536271862E+02  0.17114745490E+03  0.17381874450E+03  0.00000000000E+00 0.  1.
          2    1    6    6  502    0 -0.11681652289E+02 -0.51982689480E+02 -0.19729988933E+03  0.20436708966E+03  0.00000000000E+00 0. -1.
          1    1    5    5  503    0  0.58991628506E+02  0.32755039712E+01  0.72335424099E+03  0.72576311501E+03  0.00000000000E+00 0. -1.
         -2    1    5    5    0  503 -0.59093773606E+01 -0.28483753824E+02  0.12114878337E+03  0.12459242628E+03  0.00000000000E+00 0.  1.
         -1    1    6    6    0  502  0.27226608513E+02  0.70871781759E+01 -0.31420902538E+02  0.42175697053E+02  0.00000000000E+00 0.  1.
<mgrwt>
<rscale>  0 0.13409605E+04</rscale>
<asrwt>0</asrwt>
<pdfrwt beam="1">  1        2 0.28206208E+00 0.13409605E+04</pdfrwt>
<pdfrwt beam="2">  1       -2 0.37722511E-01 0.13409605E+04</pdfrwt>
<totfact> 0.53592058E+01</totfact>
</mgrwt>
</event>
<event>
12    1  0.4612066E-007  0.1194124E+04  0.7818608E-02  0.9118016E-01
          2   -1    0    0  501    0  0.00000000000E+00  0.00000000000E+00  0.36672417481E+04  0.36672417481E+04  0.00000000000E+00 0. -1.
         -2   -1    0    0    0  501 -0.00000000000E+00 -0.00000000000E+00 -0.97207348452E+02  0.97207348452E+02  0.00000000000E+00 0.  1.
         23    2    1    2    0    0 -0.14322849419E+03 -0.41432537698E+02  0.16870723257E+03  0.24179208816E+03  0.88148890237E+02 0.  0.
        254    2    1    2    0    0  0.14322849419E+03  0.41432537698E+02  0.34013271671E+04  0.35226570084E+04  0.90435327417E+03 0.  0.
        -24    2    4    4    0    0  0.43489499850E+03  0.34799863676E+02  0.29242209107E+04  0.29575904841E+04  0.76999002956E+02 0.  0.
         24    2    4    4    0    0 -0.29166650431E+03  0.66326740219E+01  0.47710625638E+03  0.56506652435E+03  0.80971939371E+02 0.  0.
         13    1    3    3    0    0 -0.81393577986E+02 -0.29143624629E+02  0.15468803742E+03  0.17720794089E+03  0.00000000000E+00 0. -1.
        -13    1    3    3    0    0 -0.61834916205E+02 -0.12288913069E+02  0.14019195148E+02  0.64584147273E+02  0.00000000000E+00 0.  1.
          4    1    6    6  502    0 -0.15394064856E+03 -0.36734512762E+02  0.25725723809E+03  0.30204045136E+03  0.00000000000E+00 0. -1.
          3    1    5    5  503    0  0.40147971967E+03  0.50041550990E+02  0.27438695544E+04  0.27735374981E+04  0.00000000000E+00 0. -1.
         -4    1    5    5    0  503  0.33415278828E+02 -0.15241687313E+02  0.18035135638E+03  0.18405298596E+03  0.00000000000E+00 0.  1.
         -3    1    6    6    0  502 -0.13772585574E+03  0.43367186784E+02  0.21984901829E+03  0.26302607299E+03  0.00000000000E+00 0.  1.
<mgrwt>
<rscale>  0 0.11941237E+04</rscale>
<asrwt>0</asrwt>
<pdfrwt beam="1">  1        2 0.56419093E+00 0.11941237E+04</pdfrwt>
<pdfrwt beam="2">  1       -2 0.14954980E-01 0.11941237E+04</pdfrwt>
<totfact> 0.22163931E+01</totfact>
</mgrwt>
</event>
<event>
12    1  0.4612066E-007  0.1311229E+04  0.7818608E-02  0.9020708E-01
          3   -1    0    0  501    0  0.00000000000E+00  0.00000000000E+00  0.88959341988E+03  0.88959341988E+03  0.00000000000E+00 0. -1.
         -3   -1    0    0    0  501 -0.00000000000E+00 -0.00000000000E+00 -0.48317606819E+03  0.48317606819E+03  0.00000000000E+00 0.  1.
         23    2    1    2    0    0  0.22200049851E+03  0.23609000278E+03  0.20185833403E+03  0.39474956128E+03  0.10028817658E+03 0.  0.
        254    2    1    2    0    0 -0.22200049851E+03 -0.23609000278E+03  0.20455901766E+03  0.97801992678E+03  0.89980879898E+03 0.  0.
        -24    2    4    4    0    0  0.31982846545E+03 -0.83014849691E+02 -0.69118880024E+02  0.34711529492E+03  0.80807770733E+02 0.  0.
         24    2    4    4    0    0 -0.54182896397E+03 -0.15307515309E+03  0.27367789768E+03  0.63090463186E+03  0.78297088911E+02 0.  0.
         11    1    3    3    0    0  0.87765679570E+02  0.48561645832E+02  0.10319418802E+03  0.14391000104E+03  0.00000000000E+00 0. -1.
        -11    1    3    3    0    0  0.13423481894E+03  0.18752835695E+03  0.98664146010E+02  0.25083956025E+03  0.00000000000E+00 0.  1.
          2    1    6    6  502    0 -0.50894387091E+03 -0.12807108827E+03  0.26776427134E+03  0.58917210762E+03  0.00000000000E+00 0. -1.
          3    1    5    5  503    0  0.26444211603E+03 -0.35031029017E+02 -0.50249068452E+02  0.27144387008E+03  0.00000000000E+00 0. -1.
         -4    1    5    5    0  503  0.55386349423E+02 -0.47983820674E+02 -0.18869811572E+02  0.75671424842E+02  0.00000000000E+00 0.  1.
         -1    1    6    6    0  502 -0.32885093055E+02 -0.25004064824E+02  0.59136263452E+01  0.41732524241E+02  0.00000000000E+00 0.  1.
<mgrwt>
<rscale>  0 0.13112288E+04</rscale>
<asrwt>0</asrwt>
<pdfrwt beam="1">  1        3 0.13686053E+00 0.13112288E+04</pdfrwt>
<pdfrwt beam="2">  1       -3 0.74334780E-01 0.13112288E+04</pdfrwt>
<totfact> 0.17967049E+00</totfact>
</mgrwt>
</event>
<event>
12    1  0.4612066E-007  0.2564544E+04  0.7818608E-02  0.8380345E-01
          2   -1    0    0  501    0  0.00000000000E+00  0.00000000000E+00  0.25287274066E+04  0.25287274066E+04  0.00000000000E+00 0. -1.
         -2   -1    0    0    0  501 -0.00000000000E+00 -0.00000000000E+00 -0.65021699905E+03  0.65021699905E+03  0.00000000000E+00 0.  1.
         23    2    1    2    0    0  0.39891441375E+03  0.80012387747E+03  0.16651512177E+04  0.18918850918E+04  0.84674045288E+02 0.  0.
        254    2    1    2    0    0 -0.39891441375E+03 -0.80012387747E+03  0.21335918985E+03  0.12870593139E+04  0.90092652568E+03 0.  0.
        -24    2    4    4    0    0 -0.76584884970E+02 -0.25392233576E+03  0.51097981384E+03  0.58188377471E+03  0.84537328523E+02 0.  0.
         24    2    4    4    0    0 -0.32232952878E+03 -0.54620154172E+03 -0.29762062398E+03  0.70517553915E+03  0.80386913724E+02 0.  0.
         13    1    3    3    0    0  0.30924881233E+03  0.63062386057E+03  0.12311679675E+04  0.14174257813E+04  0.00000000000E+00 0.  1.
        -13    1    3    3    0    0  0.89665601415E+02  0.16950001691E+03  0.43398325023E+03  0.47445931047E+03  0.00000000000E+00 0. -1.
          4    1    6    6  502    0 -0.16943801423E+03 -0.25186559725E+03 -0.10266723249E+03  0.32044668881E+03  0.00000000000E+00 0. -1.
          3    1    5    5  503    0 -0.53838681154E+01 -0.14594962761E+03  0.31306629373E+03  0.34545735497E+03  0.00000000000E+00 0. -1.
         -4    1    5    5    0  503 -0.71201016855E+02 -0.10797270815E+03  0.19791352011E+03  0.23642641973E+03  0.00000000000E+00 0.  1.
         -3    1    6    6    0  502 -0.15289151455E+03 -0.29433594447E+03 -0.19495339149E+03  0.38472885034E+03  0.00000000000E+00 0.  1.
<mgrwt>
<rscale>  0 0.25645440E+04</rscale>
<asrwt>0</asrwt>
<pdfrwt beam="1">  1        2 0.38903498E+00 0.25645440E+04</pdfrwt>
<pdfrwt beam="2">  1       -2 0.10003339E+00 0.25645440E+04</pdfrwt>
<totfact> 0.24523280E+00</totfact>
</mgrwt>
</event>
<event>
12    1  0.4612066E-007  0.1835726E+04  0.7818608E-02  0.8687528E-01
         -2   -1    0    0    0  501 -0.00000000000E+00  0.00000000000E+00  0.26954194858E+03  0.26954194858E+03  0.00000000000E+00 0.  1.
          2   -1    0    0  501    0  0.00000000000E+00 -0.00000000000E+00 -0.31255721223E+04  0.31255721223E+04  0.00000000000E+00 0. -1.
         23    2    1    2    0    0 -0.34514405631E+03  0.79476071068E+02  0.25160126728E+02  0.36611381883E+03  0.89249262614E+02 0.  0.
        254    2    1    2    0    0  0.34514405631E+03 -0.79476071068E+02 -0.28811903004E+04  0.30290002520E+04  0.86495324387E+03 0.  0.
        -24    2    4    4    0    0 -0.23978542149E+03 -0.17132719677E+03 -0.63125004238E+03  0.70112081612E+03  0.79017251737E+02 0.  0.
         24    2    4    4    0    0  0.58492947780E+03  0.91851125704E+02 -0.22499402580E+04  0.23278794359E+04  0.78818653336E+02 0.  0.
         11    1    3    3    0    0 -0.85965736135E+02  0.43232759373E+02  0.39510540473E+02  0.10402048875E+03  0.00000000000E+00 0. -1.
        -11    1    3    3    0    0 -0.25917832018E+03  0.36243311695E+02 -0.14350413745E+02  0.26209333007E+03  0.00000000000E+00 0.  1.
          4    1    6    6  502    0  0.56314519008E+02 -0.11914079556E+02 -0.26140737359E+03  0.26766973178E+03  0.00000000000E+00 0. -1.
          3    1    5    5  503    0  0.56839832561E+01 -0.70298056756E+01 -0.11936453293E+02  0.14973468225E+02  0.00000000000E+00 0. -1.
         -4    1    5    5    0  503 -0.24546940474E+03 -0.16429739110E+03 -0.61931358909E+03  0.68614734789E+03  0.00000000000E+00 0.  1.
         -3    1    6    6    0  502  0.52861495879E+03  0.10376520526E+03 -0.19885328844E+04  0.20602097041E+04  0.00000000000E+00 0.  1.
<mgrwt>
<rscale>  0 0.18357263E+04</rscale>
<asrwt>0</asrwt>
<pdfrwt beam="1">  1        2 0.48085722E+00 0.18357263E+04</pdfrwt>
<pdfrwt beam="2">  1       -2 0.41467994E-01 0.18357263E+04</pdfrwt>
<totfact> 0.75489613E+00</totfact>
</mgrwt>
</event>
<event>
12    1  0.4612066E-007  0.1314490E+04  0.7818608E-02  0.9018153E-01
         -2   -1    0    0    0  501 -0.00000000000E+00  0.00000000000E+00  0.41856364413E+03  0.41856364413E+03  0.00000000000E+00 0.  1.
          2   -1    0    0  501    0  0.00000000000E+00 -0.00000000000E+00 -0.10320320481E+04  0.10320320481E+04  0.00000000000E+00 0. -1.
         23    2    1    2    0    0  0.12352223920E+03  0.23746011496E+03  0.63265956311E+02  0.29356697845E+03  0.10263498349E+03 0.  0.
        254    2    1    2    0    0 -0.12352223920E+03 -0.23746011496E+03 -0.67673436025E+03  0.11570287137E+04  0.89950041707E+03 0.  0.
        -24    2    4    4    0    0 -0.26128147149E+03 -0.16383543154E+03 -0.84952132972E+03  0.90730789308E+03  0.80069140184E+02 0.  0.
         24    2    4    4    0    0  0.13775923229E+03 -0.73624683418E+02  0.17278696948E+03  0.24972082067E+03  0.90038610415E+02 0.  0.
         11    1    3    3    0    0  0.13647190194E+03  0.22575363669E+03  0.72823690442E+02  0.27366507703E+03  0.00000000000E+00 0.  1.
        -11    1    3    3    0    0 -0.12949662735E+02  0.11706478267E+02 -0.95577341314E+01  0.19901901419E+02  0.00000000000E+00 0. -1.
          2    1    6    6  502    0  0.14197356991E+03 -0.84403580120E+02  0.17145674387E+03  0.23807115304E+03  0.00000000000E+00 0. -1.
          1    1    5    5  503    0 -0.19459870070E+03 -0.11809882758E+03 -0.71493493760E+03  0.75029857550E+03  0.00000000000E+00 0. -1.
         -2    1    5    5    0  503 -0.66682770792E+02 -0.45736603955E+02 -0.13458639212E+03  0.15700931758E+03  0.00000000000E+00 0.  1.
         -1    1    6    6    0  502 -0.42143376230E+01  0.10778896703E+02  0.13302256061E+01  0.11649667630E+02  0.00000000000E+00 0.  1.
<mgrwt>
<rscale>  0 0.13144902E+04</rscale>
<asrwt>0</asrwt>
<pdfrwt beam="1">  1        2 0.15877416E+00 0.13144902E+04</pdfrwt>
<pdfrwt beam="2">  1       -2 0.64394407E-01 0.13144902E+04</pdfrwt>
<totfact> 0.52420058E+01</totfact>
</mgrwt>
</event>
<event>
12    1  0.4612066E-007  0.1591789E+04  0.7818608E-02  0.8825608E-01
          1   -1    0    0  501    0  0.00000000000E+00  0.00000000000E+00  0.32973112493E+04  0.32973112493E+04  0.00000000000E+00 0. -1.
         -1   -1    0    0    0  501 -0.00000000000E+00 -0.00000000000E+00 -0.19211050561E+03  0.19211050561E+03  0.00000000000E+00 0.  1.
         23    2    1    2    0    0  0.18388117491E+03 -0.51155100308E+03  0.72871181728E+03  0.91294172569E+03  0.83336466319E+02 0.  0.
        254    2    1    2    0    0 -0.18388117491E+03  0.51155100308E+03  0.23764889264E+04  0.25764800293E+04  0.83369839176E+03 0.  0.
        -24    2    4    4    0    0 -0.26202381305E+03 -0.18836541133E+02  0.21991834420E+03  0.35282164905E+03  0.84307437584E+02 0.  0.
         24    2    4    4    0    0  0.78142638144E+02  0.53038754421E+03  0.21565705822E+04  0.22236583802E+04  0.80266411149E+02 0.  0.
         13    1    3    3    0    0  0.49063898232E+00 -0.44433065550E+02  0.92633435267E+02  0.10273992101E+03  0.00000000000E+00 0. -1.
        -13    1    3    3    0    0  0.18339053592E+03 -0.46711793753E+03  0.63607838202E+03  0.81020180467E+03  0.00000000000E+00 0.  1.
          4    1    6    6  502    0 -0.21145325546E+01  0.11207838369E+02  0.11554904312E+03  0.11611058631E+03  0.00000000000E+00 0. -1.
          3    1    5    5  503    0 -0.97362659165E+02 -0.41706489392E+02  0.11447471183E+03  0.15595954061E+03  0.00000000000E+00 0. -1.
         -4    1    5    5    0  503 -0.16466115388E+03  0.22869948260E+02  0.10544363237E+03  0.19686210844E+03  0.00000000000E+00 0.  1.
         -3    1    6    6    0  502  0.80257170698E+02  0.51917970585E+03  0.20410215391E+04  0.21075477939E+04  0.00000000000E+00 0.  1.
<mgrwt>
<rscale>  0 0.15917891E+04</rscale>
<asrwt>0</asrwt>
<pdfrwt beam="1">  1        1 0.50727861E+00 0.15917891E+04</pdfrwt>
<pdfrwt beam="2">  1       -1 0.29555465E-01 0.15917891E+04</pdfrwt>
<totfact> 0.36366969E+00</totfact>
</mgrwt>
</event>
<event>
12    1  0.4612066E-007  0.1588315E+04  0.7818608E-02  0.8827759E-01
         -1   -1    0    0    0  501 -0.00000000000E+00  0.00000000000E+00  0.70738368759E+03  0.70738368759E+03  0.00000000000E+00 0.  1.
          1   -1    0    0  501    0  0.00000000000E+00 -0.00000000000E+00 -0.89157583825E+03  0.89157583825E+03  0.00000000000E+00 0. -1.
         23    2    1    2    0    0 -0.39877981788E+03  0.23627316804E+03  0.20947621744E+03  0.51668100736E+03  0.90711766696E+02 0.  0.
        254    2    1    2    0    0  0.39877981788E+03 -0.23627316804E+03 -0.39366836810E+03  0.10822785185E+04  0.89526624779E+03 0.  0.
        -24    2    4    4    0    0  0.66928768442E+03 -0.15953016680E+03 -0.16785637591E+03  0.71309376159E+03  0.83253055475E+02 0.  0.
         24    2    4    4    0    0 -0.27050786654E+03 -0.76743001234E+02 -0.22581199219E+03  0.36918475689E+03  0.79008447666E+02 0.  0.
         11    1    3    3    0    0 -0.22053908949E+03  0.18213039522E+03  0.12824267940E+03  0.31345678438E+03  0.00000000000E+00 0. -1.
        -11    1    3    3    0    0 -0.17824072838E+03  0.54142772820E+02  0.81233538037E+02  0.20322422298E+03  0.00000000000E+00 0.  1.
          2    1    6    6  502    0 -0.27308012894E+03 -0.68373304788E+02 -0.21035962588E+03  0.35142401431E+03  0.00000000000E+00 0. -1.
          1    1    5    5  503    0  0.94022456566E+02 -0.32011460535E+02 -0.53693824181E+02  0.11290696480E+03  0.00000000000E+00 0. -1.
         -2    1    5    5    0  503  0.57526522785E+03 -0.12751870627E+03 -0.11416255173E+03  0.60018679679E+03  0.00000000000E+00 0.  1.
         -1    1    6    6    0  502  0.25722624031E+01 -0.83696964464E+01 -0.15452366305E+02  0.17760742577E+02  0.00000000000E+00 0.  1.
<mgrwt>
<rscale>  0 0.15883151E+04</rscale>
<asrwt>0</asrwt>
<pdfrwt beam="1">  1        1 0.13716551E+00 0.15883151E+04</pdfrwt>
<pdfrwt beam="2">  1       -1 0.10882826E+00 0.15883151E+04</pdfrwt>
<totfact> 0.13904206E+01</totfact>
</mgrwt>
</event>
<event>
12    1  0.4612066E-007  0.1663080E+04  0.7818608E-02  0.8782706E-01
          2   -1    0    0  501    0  0.00000000000E+00  0.00000000000E+00  0.47297052630E+03  0.47297052630E+03  0.00000000000E+00 0. -1.
         -2   -1    0    0    0  501 -0.00000000000E+00 -0.00000000000E+00 -0.14619483577E+04  0.14619483577E+04  0.00000000000E+00 0.  1.
         23    2    1    2    0    0 -0.46518657569E+03 -0.21689698592E+03 -0.11890523256E+02  0.52134729156E+03  0.90657383402E+02 0.  0.
        254    2    1    2    0    0  0.46518657569E+03  0.21689698592E+03 -0.97708730813E+03  0.14135715924E+04  0.88319996972E+03 0.  0.
        -24    2    4    4    0    0  0.62842621076E+03  0.36999254281E+03 -0.52293991270E+03  0.90096935025E+03  0.80409164202E+02 0.  0.
         24    2    4    4    0    0 -0.16323963507E+03 -0.15309555689E+03 -0.45414739543E+03  0.51260224218E+03  0.80160925146E+02 0.  0.
         13    1    3    3    0    0 -0.36604658582E+03 -0.13420453942E+03  0.11989929141E+02  0.39005732886E+03  0.00000000000E+00 0. -1.
        -13    1    3    3    0    0 -0.99139989871E+02 -0.82692446501E+02 -0.23880452397E+02  0.13128996270E+03  0.00000000000E+00 0.  1.
          4    1    6    6  502    0 -0.34905385843E+01  0.92627063884E+01 -0.16889493738E+02  0.19576429397E+02  0.00000000000E+00 0. -1.
          3    1    5    5  503    0  0.33325671750E+03  0.15578792609E+03 -0.23794134807E+03  0.43811642607E+03  0.00000000000E+00 0. -1.
         -4    1    5    5    0  503  0.29516949326E+03  0.21420461672E+03 -0.28499856464E+03  0.46285292417E+03  0.00000000000E+00 0.  1.
         -3    1    6    6    0  502 -0.15974909648E+03 -0.16235826327E+03 -0.43725790169E+03  0.49302581279E+03  0.00000000000E+00 0.  1.
<mgrwt>
<rscale>  0 0.16630797E+04</rscale>
<asrwt>0</asrwt>
<pdfrwt beam="1">  1        2 0.72764698E-01 0.16630797E+04</pdfrwt>
<pdfrwt beam="2">  1       -2 0.22491513E+00 0.16630797E+04</pdfrwt>
<totfact> 0.57638272E+00</totfact>
</mgrwt>
</event>
<event>
12    1  0.4612066E-007  0.1306925E+04  0.7818608E-02  0.9024092E-01
          1   -1    0    0  501    0  0.00000000000E+00  0.00000000000E+00  0.35881766220E+03  0.35881766220E+03  0.00000000000E+00 0. -1.
         -1   -1    0    0    0  501 -0.00000000000E+00 -0.00000000000E+00 -0.11900556943E+04  0.11900556943E+04  0.00000000000E+00 0.  1.
         23    2    1    2    0    0 -0.32074884789E+03  0.67159980248E+02 -0.30396710431E+03  0.45615121065E+03  0.91036476760E+02 0.  0.
        254    2    1    2    0    0  0.32074884789E+03 -0.67159980248E+02 -0.52727092777E+03  0.10927221458E+04  0.89924233126E+03 0.  0.
        -24    2    4    4    0    0  0.59080337497E+03  0.48061595772E+02 -0.51260160721E+03  0.78801324118E+03  0.82740048860E+02 0.  0.
         24    2    4    4    0    0 -0.27005452708E+03 -0.11522157602E+03 -0.14669320552E+02  0.30470890465E+03  0.80167751806E+02 0.  0.
         13    1    3    3    0    0 -0.81107013009E+02  0.41528280306E+02 -0.13068070955E+03  0.15931225148E+03  0.00000000000E+00 0.  1.
        -13    1    3    3    0    0 -0.23964183488E+03  0.25631699942E+02 -0.17328639476E+03  0.29683895917E+03  0.00000000000E+00 0. -1.
          2    1    6    6  502    0 -0.23672363429E+03 -0.12742344491E+03 -0.11789647733E+02  0.26909814034E+03  0.00000000000E+00 0. -1.
          3    1    5    5  503    0  0.46117350742E+03  0.71650387472E+02 -0.40335563497E+03  0.61685537222E+03  0.00000000000E+00 0. -1.
         -2    1    5    5    0  503  0.12962986755E+03 -0.23588791699E+02 -0.10924597224E+03  0.17115786896E+03  0.00000000000E+00 0.  1.
         -1    1    6    6    0  502 -0.33330892792E+02  0.12201868891E+02 -0.28796728188E+01  0.35610764304E+02  0.00000000000E+00 0.  1.
<mgrwt>
<rscale>  0 0.13069246E+04</rscale>
<asrwt>0</asrwt>
<pdfrwt beam="1">  1        1 0.55202716E-01 0.13069246E+04</pdfrwt>
<pdfrwt beam="2">  1       -1 0.18308549E+00 0.13069246E+04</pdfrwt>
<totfact> 0.13460054E+01</totfact>
</mgrwt>
</event>
<event>
12    1  0.4612066E-007  0.3019558E+04  0.7818608E-02  0.8238168E-01
         -2   -1    0    0    0  501 -0.00000000000E+00  0.00000000000E+00  0.16988303715E+04  0.16988303715E+04  0.00000000000E+00 0.  1.
          2   -1    0    0  501    0  0.00000000000E+00 -0.00000000000E+00 -0.13417658709E+04  0.13417658709E+04  0.00000000000E+00 0. -1.
         23    2    1    2    0    0 -0.56681378900E+02  0.28437371194E+02 -0.12205251273E+04  0.12254175004E+04  0.89134735238E+02 0.  0.
        254    2    1    2    0    0  0.56681378900E+02 -0.28437371194E+02  0.15775896279E+04  0.18151787420E+04  0.89557990633E+03 0.  0.
        -24    2    4    4    0    0  0.30372926280E+03 -0.31821592721E+03  0.11665698444E+04  0.12492469212E+04  0.78865879914E+02 0.  0.
         24    2    4    4    0    0 -0.24704788390E+03  0.28977855602E+03  0.41101978350E+03  0.56593182076E+03  0.79607128118E+02 0.  0.
         13    1    3    3    0    0  0.19257708253E+02  0.22589397408E+02 -0.49938913521E+03  0.50027057535E+03  0.00000000000E+00 0.  1.
        -13    1    3    3    0    0 -0.75939087153E+02  0.58479737858E+01 -0.72113599214E+03  0.72514692505E+03  0.00000000000E+00 0. -1.
          4    1    6    6  502    0 -0.20163588076E+02  0.34825558527E+02  0.84556660099E+02  0.93644105943E+02  0.00000000000E+00 0. -1.
          3    1    5    5  503    0  0.74925523738E+02 -0.13237786888E+03  0.40481347884E+03  0.43244847893E+03  0.00000000000E+00 0. -1.
         -4    1    5    5    0  503  0.22880373906E+03 -0.18583805833E+03  0.76175636551E+03  0.81679844230E+03  0.00000000000E+00 0.  1.
         -3    1    6    6    0  502 -0.22688429583E+03  0.25495299749E+03  0.32646312341E+03  0.47228771482E+03  0.00000000000E+00 0.  1.
<mgrwt>
<rscale>  0 0.30195580E+04</rscale>
<asrwt>0</asrwt>
<pdfrwt beam="1">  1        2 0.20642552E+00 0.30195580E+04</pdfrwt>
<pdfrwt beam="2">  1       -2 0.26135852E+00 0.30195580E+04</pdfrwt>
<totfact> 0.73126681E-01</totfact>
</mgrwt>
</event>
<event>
12    1  0.4612066E-007  0.2365881E+04  0.7818608E-02  0.8452389E-01
         -1   -1    0    0    0  501 -0.00000000000E+00  0.00000000000E+00  0.10917097789E+04  0.10917097789E+04  0.00000000000E+00 0.  1.
          1   -1    0    0  501    0  0.00000000000E+00 -0.00000000000E+00 -0.12817953814E+04  0.12817953814E+04  0.00000000000E+00 0. -1.
         23    2    1    2    0    0 -0.18455960841E+03 -0.97543018040E+03  0.95760613696E+02  0.10015617241E+04  0.91812342297E+02 0.  0.
        254    2    1    2    0    0  0.18455960841E+03  0.97543018040E+03 -0.28584621613E+03  0.13719434362E+04  0.90277042871E+03 0.  0.
        -24    2    4    4    0    0 -0.17450708390E+02  0.35871250330E+03  0.31476693007E+03  0.48406160364E+03  0.79108966637E+02 0.  0.
         24    2    4    4    0    0  0.20201031680E+03  0.61671767710E+03 -0.60061314620E+03  0.88788183256E+03  0.80306511953E+02 0.  0.
         11    1    3    3    0    0 -0.13907197621E+03 -0.69515051245E+03  0.10925270418E+03  0.71729450221E+03  0.00000000000E+00 0.  1.
        -11    1    3    3    0    0 -0.45487632199E+02 -0.28027966795E+03 -0.13492090482E+02  0.28426722191E+03  0.00000000000E+00 0. -1.
          4    1    6    6  502    0  0.32448102622E+02  0.50366819380E+02 -0.81321073761E+02  0.10100897433E+03  0.00000000000E+00 0. -1.
          3    1    5    5  503    0 -0.18735556280E+00 -0.47461516939E+00  0.17475613294E+02  0.17483060993E+02  0.00000000000E+00 0. -1.
         -4    1    5    5    0  503 -0.17263352827E+02  0.35918711847E+03  0.29729131677E+03  0.46657854264E+03  0.00000000000E+00 0.  1.
         -3    1    6    6    0  502  0.16956221418E+03  0.56635085772E+03 -0.51929207244E+03  0.78687285823E+03  0.00000000000E+00 0.  1.
<mgrwt>
<rscale>  0 0.23658813E+04</rscale>
<asrwt>0</asrwt>
<pdfrwt beam="1">  1        1 0.19719929E+00 0.23658813E+04</pdfrwt>
<pdfrwt beam="2">  1       -1 0.16795535E+00 0.23658813E+04</pdfrwt>
<totfact> 0.21345508E+00</totfact>
</mgrwt>
</event>
<event>
12    1  0.5428863E-007  0.2248490E+04  0.7818608E-02  0.8498512E-01
         -2   -1    0    0    0  501 -0.00000000000E+00  0.00000000000E+00  0.13817015540E+04  0.13817015540E+04  0.00000000000E+00 0.  1.
          2   -1    0    0  501    0  0.00000000000E+00 -0.00000000000E+00 -0.91476073339E+03  0.91476073339E+03  0.00000000000E+00 0. -1.
         23    2    1    2    0    0  0.92881534263E+03  0.13313772873E+03  0.24304385081E+03  0.97614729442E+03  0.11562712257E+03 0.  0.
        254    2    1    2    0    0 -0.92881534263E+03 -0.13313772873E+03  0.22389696979E+03  0.13203149929E+04  0.90148667877E+03 0.  0.
        -24    2    4    4    0    0 -0.47321430737E+03 -0.44205649272E+03  0.36458024667E+03  0.74774711077E+03  0.82832734735E+02 0.  0.
         24    2    4    4    0    0 -0.45560103527E+03  0.30891876400E+03 -0.14068327688E+03  0.57256788218E+03  0.70986542566E+02 0.  0.
         11    1    3    3    0    0  0.50945210222E+03  0.12437220452E+03  0.10733748950E+03  0.53528611636E+03  0.00000000000E+00 0.  1.
        -11    1    3    3    0    0  0.41936324041E+03  0.87655242022E+01  0.13570636131E+03  0.44086117806E+03  0.00000000000E+00 0. -1.
          2    1    6    6  502    0 -0.45161756379E+03  0.29886371993E+03 -0.12911297821E+03  0.55672983408E+03  0.00000000000E+00 0. -1.
          3    1    5    5  503    0 -0.41385522739E+03 -0.41966790736E+03  0.32932377830E+03  0.67516772187E+03  0.00000000000E+00 0. -1.
         -4    1    5    5    0  503 -0.59359079980E+02 -0.22388585364E+02  0.35256468367E+02  0.72579388895E+02  0.00000000000E+00 0.  1.
         -1    1    6    6    0  502 -0.39834714786E+01  0.10055044070E+02 -0.11570298677E+02  0.15838048104E+02  0.00000000000E+00 0.  1.
<mgrwt>
<rscale>  0 0.22484896E+04</rscale>
<asrwt>0</asrwt>
<pdfrwt beam="1">  1        2 0.14073242E+00 0.22484896E+04</pdfrwt>
<pdfrwt beam="2">  1       -2 0.21256947E+00 0.22484896E+04</pdfrwt>
<totfact> 0.28750582E+00</totfact>
</mgrwt>
</event>
<event>
12    1  0.4612066E-007  0.1077482E+04  0.7818608E-02  0.9227422E-01
          2   -1    0    0  501    0  0.00000000000E+00  0.00000000000E+00  0.69251900825E+03  0.69251900825E+03  0.00000000000E+00 0. -1.
         -2   -1    0    0    0  501 -0.00000000000E+00 -0.00000000000E+00 -0.41910993940E+03  0.41910993940E+03  0.00000000000E+00 0.  1.
         23    2    1    2    0    0  0.91356459994E+02  0.86684133628E+02  0.78965302985E+02  0.17411569578E+03  0.90667605226E+02 0.  0.
        254    2    1    2    0    0 -0.91356459994E+02 -0.86684133628E+02  0.19444376587E+03  0.93751325187E+03  0.90843963891E+03 0.  0.
        -24    2    4    4    0    0  0.40021406990E+03 -0.25446810248E+02  0.37719582671E+02  0.41197701859E+03  0.86506965179E+02 0.  0.
         24    2    4    4    0    0 -0.49157052990E+03 -0.61237323379E+02  0.15672418320E+03  0.52553623328E+03  0.78957376192E+02 0.  0.
         13    1    3    3    0    0  0.67161142836E+02  0.10253889683E+03  0.47724118030E+02  0.13153872400E+03  0.00000000000E+00 0. -1.
        -13    1    3    3    0    0  0.24195317158E+02 -0.15854763204E+02  0.31241184955E+02  0.42576971781E+02  0.00000000000E+00 0.  1.
          2    1    6    6  502    0 -0.19941886779E+03 -0.34386033195E+02  0.24865326342E+02  0.20388371334E+03  0.00000000000E+00 0. -1.
          1    1    5    5  503    0  0.43814063636E+02  0.24410491402E+02  0.19578190798E+00  0.50155583870E+02  0.00000000000E+00 0. -1.
         -2    1    5    5    0  503  0.35640000627E+03 -0.49857301650E+02  0.37523800763E+02  0.36182143472E+03  0.00000000000E+00 0.  1.
         -1    1    6    6    0  502 -0.29215166211E+03 -0.26851290184E+02  0.13185885685E+03  0.32165251995E+03  0.00000000000E+00 0.  1.
<mgrwt>
<rscale>  0 0.10774815E+04</rscale>
<asrwt>0</asrwt>
<pdfrwt beam="1">  1        2 0.10654139E+00 0.10774815E+04</pdfrwt>
<pdfrwt beam="2">  1       -2 0.64478453E-01 0.10774815E+04</pdfrwt>
<totfact> 0.91773622E+01</totfact>
</mgrwt>
</event>
<event>
12    1  0.4612066E-007  0.2185908E+04  0.7818608E-02  0.8524317E-01
         -1   -1    0    0    0  501 -0.00000000000E+00  0.00000000000E+00  0.73570841034E+03  0.73570841034E+03  0.00000000000E+00 0.  1.
          1   -1    0    0  501    0  0.00000000000E+00 -0.00000000000E+00 -0.16236703695E+04  0.16236703695E+04  0.00000000000E+00 0. -1.
         23    2    1    2    0    0 -0.77576019867E+03 -0.32482348953E+03 -0.70052329886E+03  0.10980901794E+04  0.88062277015E+02 0.  0.
        254    2    1    2    0    0  0.77576019867E+03  0.32482348953E+03 -0.18743866026E+03  0.12612886004E+04  0.92108712777E+03 0.  0.
        -24    2    4    4    0    0 -0.79331174948E+02  0.26523037705E+03 -0.27257246976E+03  0.39666910877E+03  0.80062740104E+02 0.  0.
         24    2    4    4    0    0  0.85509137362E+03  0.59593112483E+02  0.85133809501E+02  0.86461949163E+03  0.74742915951E+02 0.  0.
         11    1    3    3    0    0 -0.77775574793E+03 -0.32130722305E+03 -0.69619698864E+03  0.10921687516E+04  0.00000000000E+00 0. -1.
        -11    1    3    3    0    0  0.19955492513E+01 -0.35162664838E+01 -0.43263102158E+01  0.59214277740E+01  0.00000000000E+00 0.  1.
          2    1    6    6  502    0  0.14622708450E+03 -0.15933805398E+01 -0.11025647689E+02  0.14665082342E+03  0.00000000000E+00 0. -1.
          1    1    5    5  503    0  0.14507981287E+02  0.71047599130E+02 -0.67776432489E+02  0.99256675665E+02  0.00000000000E+00 0. -1.
         -2    1    5    5    0  503 -0.93839156235E+02  0.19418277792E+03 -0.20479603728E+03  0.29741243311E+03  0.00000000000E+00 0.  1.
         -1    1    6    6    0  502  0.70886428912E+03  0.61186493023E+02  0.96159457190E+02  0.71796866821E+03  0.00000000000E+00 0.  1.
<mgrwt>
<rscale>  0 0.21859075E+04</rscale>
<asrwt>0</asrwt>
<pdfrwt beam="1">  1        1 0.24979544E+00 0.21859075E+04</pdfrwt>
<pdfrwt beam="2">  1       -1 0.11318591E+00 0.21859075E+04</pdfrwt>
<totfact> 0.34985364E+00</totfact>
</mgrwt>
</event>
<event>
12    1  0.4612066E-007  0.1467579E+04  0.7818608E-02  0.8906304E-01
         -2   -1    0    0    0  501 -0.00000000000E+00  0.00000000000E+00  0.32439873082E+03  0.32439873082E+03  0.00000000000E+00 0.  1.
          2   -1    0    0  501    0  0.00000000000E+00 -0.00000000000E+00 -0.16598301275E+04  0.16598301275E+04  0.00000000000E+00 0. -1.
         23    2    1    2    0    0  0.19949907916E+02 -0.43122695805E+03 -0.24067579487E+03  0.50206074157E+03  0.88235264015E+02 0.  0.
        254    2    1    2    0    0 -0.19949907916E+02  0.43122695805E+03 -0.10947556018E+04  0.14821681167E+04  0.90109811363E+03 0.  0.
        -24    2    4    4    0    0  0.27335843545E+03  0.94360540430E+02 -0.34867032397E+01  0.30019170223E+03  0.80462134989E+02 0.  0.
         24    2    4    4    0    0 -0.29330834336E+03  0.33686641762E+03 -0.10912688986E+04  0.11819764145E+04  0.81802615194E+02 0.  0.
         11    1    3    3    0    0 -0.20328004952E+02 -0.24880790130E+03 -0.17141088534E+03  0.30282055933E+03  0.00000000000E+00 0. -1.
        -11    1    3    3    0    0  0.40277912868E+02 -0.18241905675E+03 -0.69264909527E+02  0.19924018225E+03  0.00000000000E+00 0.  1.
          4    1    6    6  502    0 -0.82547067688E+02  0.11523092044E+03 -0.25838082117E+03  0.29470804563E+03  0.00000000000E+00 0. -1.
          1    1    5    5  503    0  0.16256193218E+03  0.60913554576E+02 -0.41284132305E+02  0.17844108973E+03  0.00000000000E+00 0. -1.
         -2    1    5    5    0  503  0.11079650327E+03  0.33446985855E+02  0.37797429065E+02  0.12175061250E+03  0.00000000000E+00 0.  1.
         -3    1    6    6    0  502 -0.21076127568E+03  0.22163549718E+03 -0.83288807738E+03  0.88726836886E+03  0.00000000000E+00 0.  1.
<mgrwt>
<rscale>  0 0.14675787E+04</rscale>
<asrwt>0</asrwt>
<pdfrwt beam="1">  1        2 0.25535848E+00 0.14675787E+04</pdfrwt>
<pdfrwt beam="2">  1       -2 0.49907497E-01 0.14675787E+04</pdfrwt>
<totfact> 0.37982479E+01</totfact>
</mgrwt>
</event>
<event>
12    1  0.4612066E-007  0.1355724E+04  0.7818608E-02  0.8986507E-01
          1   -1    0    0  501    0  0.00000000000E+00  0.00000000000E+00  0.16898930941E+04  0.16898930941E+04  0.00000000000E+00 0. -1.
         -1   -1    0    0    0  501 -0.00000000000E+00 -0.00000000000E+00 -0.27190872290E+03  0.27190872290E+03  0.00000000000E+00 0.  1.
         23    2    1    2    0    0 -0.16744630037E+02 -0.29436364427E+03  0.69400247959E+02  0.31662672123E+03  0.92226614812E+02 0.  0.
        254    2    1    2    0    0  0.16744630037E+02  0.29436364427E+03  0.13485841232E+04  0.16451750957E+04  0.89498135206E+03 0.  0.
        -24    2    4    4    0    0  0.27889622848E+03  0.37164582020E+03  0.30228231636E+03  0.56080305561E+03  0.84980859410E+02 0.  0.
         24    2    4    4    0    0 -0.26215159844E+03 -0.77282175930E+02  0.10463018068E+04  0.10843720401E+04  0.80120254001E+02 0.  0.
         11    1    3    3    0    0  0.38108765515E+02 -0.10170839999E+03  0.23886108932E+02  0.11120891528E+03  0.00000000000E+00 0. -1.
        -11    1    3    3    0    0 -0.54853395551E+02 -0.19265524427E+03  0.45514139027E+02  0.20541780595E+03  0.00000000000E+00 0.  1.
          2    1    6    6  502    0 -0.16976043659E+03 -0.73625901628E+02  0.80422216163E+03  0.82523491472E+03  0.00000000000E+00 0. -1.
          3    1    5    5  503    0  0.96596972988E+02  0.19678407606E+03  0.15385789028E+03  0.26781933870E+03  0.00000000000E+00 0. -1.
         -4    1    5    5    0  503  0.18229925549E+03  0.17486174414E+03  0.14842442608E+03  0.29298371690E+03  0.00000000000E+00 0.  1.
         -1    1    6    6    0  502 -0.92391161856E+02 -0.36562743014E+01  0.24207964521E+03  0.25913712539E+03  0.00000000000E+00 0.  1.
<mgrwt>
<rscale>  0 0.13557237E+04</rscale>
<asrwt>0</asrwt>
<pdfrwt beam="1">  1        1 0.25998355E+00 0.13557237E+04</pdfrwt>
<pdfrwt beam="2">  1       -1 0.41832112E-01 0.13557237E+04</pdfrwt>
<totfact> 0.26578183E+01</totfact>
</mgrwt>
</event>
<event>
12    1  0.4612066E-007  0.1673251E+04  0.7818608E-02  0.8776769E-01
          2   -1    0    0  501    0  0.00000000000E+00  0.00000000000E+00  0.87514762251E+03  0.87514762251E+03  0.00000000000E+00 0.  1.
         -2   -1    0    0    0  501 -0.00000000000E+00 -0.00000000000E+00 -0.79979916258E+03  0.79979916258E+03  0.00000000000E+00 0. -1.
         23    2    1    2    0    0 -0.59256366141E+03 -0.11027569901E+03 -0.24822751772E+02  0.61006614088E+03  0.90951111180E+02 0.  0.
        254    2    1    2    0    0  0.59256366141E+03  0.11027569901E+03  0.10017121171E+03  0.10648806442E+04  0.87214912265E+03 0.  0.
        -24    2    4    4    0    0 -0.10291572513E+03 -0.22000261322E+03 -0.82775789908E+02  0.26936670382E+03  0.81937741200E+02 0.  0.
         24    2    4    4    0    0  0.69547938654E+03  0.33027831222E+03  0.18294700162E+03  0.79551394039E+03  0.81224893482E+02 0.  0.
         11    1    3    3    0    0 -0.11792155595E+03 -0.59739611037E+02 -0.23085464768E+01  0.13221060423E+03  0.00000000000E+00 0.  1.
        -11    1    3    3    0    0 -0.47464210546E+03 -0.50536087971E+02 -0.22514205295E+02  0.47785553665E+03  0.00000000000E+00 0. -1.
          4    1    6    6  502    0  0.53975847306E+03  0.22073642189E+03  0.15190117780E+03  0.60260911461E+03  0.00000000000E+00 0. -1.
          3    1    5    5  503    0 -0.93214451987E+02 -0.11419795557E+03 -0.67113023111E+02  0.16196995088E+03  0.00000000000E+00 0. -1.
         -4    1    5    5    0  503 -0.97012731419E+01 -0.10580465764E+03 -0.15662766797E+02  0.10739675294E+03  0.00000000000E+00 0.  1.
         -3    1    6    6    0  502  0.15572091348E+03  0.10954189033E+03  0.31045823813E+02  0.19290482578E+03  0.00000000000E+00 0.  1.
<mgrwt>
<rscale>  0 0.16732511E+04</rscale>
<asrwt>0</asrwt>
<pdfrwt beam="1">  1        2 0.13463810E+00 0.16732511E+04</pdfrwt>
<pdfrwt beam="2">  1       -2 0.12304602E+00 0.16732511E+04</pdfrwt>
<totfact> 0.14501129E+01</totfact>
</mgrwt>
</event>
<event>
12    1  0.4612066E-007  0.1718444E+04  0.7818608E-02  0.8750915E-01
          2   -1    0    0  501    0  0.00000000000E+00  0.00000000000E+00  0.93108729488E+03  0.93108729488E+03  0.00000000000E+00 0. -1.
         -2   -1    0    0    0  501 -0.00000000000E+00 -0.00000000000E+00 -0.79290312261E+03  0.79290312261E+03  0.00000000000E+00 0.  1.
         23    2    1    2    0    0 -0.58912829930E+03 -0.18846514240E+03 -0.18235569517E+02  0.62557860807E+03  0.91786687153E+02 0.  0.
        254    2    1    2    0    0  0.58912829930E+03  0.18846514240E+03  0.15641974179E+03  0.10984118094E+04  0.89411973724E+03 0.  0.
        -24    2    4    4    0    0  0.76531533054E+03 -0.59453061998E+02  0.91422895536E+02  0.77729304932E+03  0.81142571802E+02 0.  0.
         24    2    4    4    0    0 -0.17618703124E+03  0.24791820440E+03  0.64996846256E+02  0.32111876010E+03  0.79920973572E+02 0.  0.
         11    1    3    3    0    0 -0.11039908280E+03 -0.36674832134E+02 -0.39656336433E+02  0.12290494625E+03  0.00000000000E+00 0.  1.
        -11    1    3    3    0    0 -0.47872921651E+03 -0.15179031027E+03  0.21420766915E+02  0.50267366182E+03  0.00000000000E+00 0. -1.
          4    1    6    6  502    0 -0.18138620102E+03  0.21820978005E+03  0.64312146536E+02  0.29095105125E+03  0.00000000000E+00 0. -1.
          3    1    5    5  503    0  0.65618143859E+03 -0.24468375990E+02  0.66376406222E+02  0.65998379456E+03  0.00000000000E+00 0. -1.
         -4    1    5    5    0  503  0.10913389195E+03 -0.34984686007E+02  0.25046489314E+02  0.11730925476E+03  0.00000000000E+00 0.  1.
         -3    1    6    6    0  502  0.51991697831E+01  0.29708424348E+02  0.68469972010E+00  0.30167708853E+02  0.00000000000E+00 0.  1.
<mgrwt>
<rscale>  0 0.17184435E+04</rscale>
<asrwt>0</asrwt>
<pdfrwt beam="1">  1        2 0.14324420E+00 0.17184435E+04</pdfrwt>
<pdfrwt beam="2">  1       -2 0.12198510E+00 0.17184435E+04</pdfrwt>
<totfact> 0.13534500E+01</totfact>
</mgrwt>
</event>
<event>
12    1  0.4612066E-007  0.1355344E+04  0.7818608E-02  0.8986792E-01
         -1   -1    0    0    0  501 -0.00000000000E+00  0.00000000000E+00  0.38806245758E+03  0.38806245758E+03  0.00000000000E+00 0.  1.
          1   -1    0    0  501    0  0.00000000000E+00 -0.00000000000E+00 -0.11834168819E+04  0.11834168819E+04  0.00000000000E+00 0. -1.
         23    2    1    2    0    0 -0.57996899067E+01  0.37238056728E+03 -0.36619263588E+03  0.53033596994E+03  0.91968859682E+02 0.  0.
        254    2    1    2    0    0  0.57996899067E+01 -0.37238056728E+03 -0.42916178842E+03  0.10411433695E+04  0.87240973857E+03 0.  0.
        -24    2    4    4    0    0 -0.40514395560E+03 -0.80148886697E+02 -0.29204754794E+03  0.51241695915E+03  0.81938397417E+02 0.  0.
         24    2    4    4    0    0  0.41094364551E+03 -0.29223168058E+03 -0.13711424049E+03  0.52872641036E+03  0.80481470834E+02 0.  0.
         11    1    3    3    0    0  0.40341475523E+02  0.23929162201E+03 -0.23704487228E+03  0.33923175925E+03  0.00000000000E+00 0. -1.
        -11    1    3    3    0    0 -0.46141165430E+02  0.13308894527E+03 -0.12914776359E+03  0.19110421068E+03  0.00000000000E+00 0.  1.
          4    1    6    6  502    0  0.40959984573E+03 -0.27521423302E+03 -0.13434547865E+03  0.51143290402E+03  0.00000000000E+00 0. -1.
          1    1    5    5  503    0 -0.81545811223E+02 -0.45646285603E+02 -0.44347643685E+02  0.10344088272E+03  0.00000000000E+00 0. -1.
         -2    1    5    5    0  503 -0.32359814438E+03 -0.34502601093E+02 -0.24769990425E+03  0.40897607643E+03  0.00000000000E+00 0.  1.
         -3    1    6    6    0  502  0.13437997780E+01 -0.17017447566E+02 -0.27687618321E+01  0.17293506341E+02  0.00000000000E+00 0.  1.
<mgrwt>
<rscale>  0 0.13553445E+04</rscale>
<asrwt>0</asrwt>
<pdfrwt beam="1">  1        1 0.18206413E+00 0.13553445E+04</pdfrwt>
<pdfrwt beam="2">  1       -1 0.59701918E-01 0.13553445E+04</pdfrwt>
<totfact> 0.30583128E+01</totfact>
</mgrwt>
</event>
<event>
12    1  0.4612066E-007  0.1113473E+04  0.7818608E-02  0.9192159E-01
         -2   -1    0    0    0  501 -0.00000000000E+00  0.00000000000E+00  0.61343735405E+03  0.61343735405E+03  0.00000000000E+00 0.  1.
          2   -1    0    0  501    0  0.00000000000E+00 -0.00000000000E+00 -0.50527677336E+03  0.50527677336E+03  0.00000000000E+00 0. -1.
         23    2    1    2    0    0  0.14943288820E+02 -0.17696838886E+03 -0.22285587629E+02  0.20044159502E+03  0.90216811423E+02 0.  0.
        254    2    1    2    0    0 -0.14943288820E+02  0.17696838886E+03  0.13044616832E+03  0.91827253239E+03  0.89144104032E+03 0.  0.
        -24    2    4    4    0    0 -0.46784909243E+02  0.39998796070E+03  0.38933015270E+03  0.56584699379E+03  0.80160190541E+02 0.  0.
         24    2    4    4    0    0  0.31841620423E+02 -0.22301957184E+03 -0.25888398438E+03  0.35242553860E+03  0.80194916754E+02 0.  0.
         13    1    3    3    0    0 -0.46464895746E+01 -0.51114246968E+02 -0.48259871276E+02  0.70450488175E+02  0.00000000000E+00 0. -1.
        -13    1    3    3    0    0  0.19589778395E+02 -0.12585414189E+03  0.25974283647E+02  0.12999110685E+03  0.00000000000E+00 0.  1.
          4    1    6    6  502    0  0.64776495533E+01  0.10426763486E+01 -0.31552509233E+02  0.32227441050E+02  0.00000000000E+00 0. -1.
          3    1    5    5  503    0 -0.36628016353E+02  0.69921335661E+02  0.94797255861E+02  0.12335770945E+03  0.00000000000E+00 0. -1.
         -4    1    5    5    0  503 -0.10156892890E+02  0.33006662504E+03  0.29453289684E+03  0.44248928434E+03  0.00000000000E+00 0.  1.
         -3    1    6    6    0  502  0.25363970869E+02 -0.22406224819E+03 -0.22733147515E+03  0.32019809755E+03  0.00000000000E+00 0.  1.
<mgrwt>
<rscale>  0 0.11134732E+04</rscale>
<asrwt>0</asrwt>
<pdfrwt beam="1">  1        2 0.77734888E-01 0.11134732E+04</pdfrwt>
<pdfrwt beam="2">  1       -2 0.94374978E-01 0.11134732E+04</pdfrwt>
<totfact> 0.57141629E+01</totfact>
</mgrwt>
</event>
<event>
12    1  0.4612066E-007  0.1832031E+04  0.7818608E-02  0.8689449E-01
         -1   -1    0    0    0  501 -0.00000000000E+00  0.00000000000E+00  0.10924470576E+04  0.10924470576E+04  0.00000000000E+00 0.  1.
          1   -1    0    0  501    0  0.00000000000E+00 -0.00000000000E+00 -0.76807763460E+03  0.76807763460E+03  0.00000000000E+00 0. -1.
         23    2    1    2    0    0 -0.38545241508E+03  0.55928305813E+03  0.24947199040E+03  0.72929499220E+03  0.90905490827E+02 0.  0.
        254    2    1    2    0    0  0.38545241508E+03 -0.55928305813E+03  0.74897432563E+02  0.11312297000E+04  0.90149869954E+03 0.  0.
        -24    2    4    4    0    0 -0.18158623090E+03 -0.50593191872E+03  0.11187079206E+03  0.55504760756E+03  0.81376328942E+02 0.  0.
         24    2    4    4    0    0  0.56703864597E+03 -0.53351139408E+02 -0.36973359495E+02  0.57618209240E+03  0.78991165233E+02 0.  0.
         13    1    3    3    0    0 -0.19630518599E+03  0.29018229901E+03  0.17683956719E+03  0.39244582457E+03  0.00000000000E+00 0.  1.
        -13    1    3    3    0    0 -0.18914722909E+03  0.26910075912E+03  0.72632423215E+02  0.33684916763E+03  0.00000000000E+00 0. -1.
          4    1    6    6  502    0  0.15213756093E+03  0.11689840236E+02  0.13546893145E+02  0.15318618777E+03  0.00000000000E+00 0. -1.
          1    1    5    5  503    0 -0.90611122415E+02 -0.19429200728E+03  0.93064637583E+01  0.21458417898E+03  0.00000000000E+00 0. -1.
         -2    1    5    5    0  503 -0.90975108484E+02 -0.31163991143E+03  0.10256432830E+03  0.34046342858E+03  0.00000000000E+00 0.  1.
         -3    1    6    6    0  502  0.41490108505E+03 -0.65040979644E+02 -0.50520252641E+02  0.42299590463E+03  0.00000000000E+00 0.  1.
<mgrwt>
<rscale>  0 0.18320307E+04</rscale>
<asrwt>0</asrwt>
<pdfrwt beam="1">  1        1 0.11816579E+00 0.18320307E+04</pdfrwt>
<pdfrwt beam="2">  1       -1 0.16806878E+00 0.18320307E+04</pdfrwt>
<totfact> 0.56451553E+00</totfact>
</mgrwt>
</event>
<event>
12    1  0.4612066E-007  0.2005368E+04  0.7818608E-02  0.8604115E-01
         -2   -1    0    0    0  501 -0.00000000000E+00  0.00000000000E+00  0.11050544224E+04  0.11050544224E+04  0.00000000000E+00 0. -1.
          2   -1    0    0  501    0  0.00000000000E+00 -0.00000000000E+00 -0.90979665048E+03  0.90979665048E+03  0.00000000000E+00 0.  1.
         23    2    1    2    0    0  0.22598515593E+03 -0.40097612972E+03  0.73251520827E+03  0.86978712006E+03  0.89999758707E+02 0.  0.
        254    2    1    2    0    0 -0.22598515593E+03  0.40097612972E+03 -0.53725743631E+03  0.11450639529E+04  0.90037478640E+03 0.  0.
        -24    2    4    4    0    0 -0.32368742978E+03  0.63685882210E+03 -0.27374267701E+03  0.76935934532E+03  0.81339028369E+02 0.  0.
         24    2    4    4    0    0  0.97702273847E+02 -0.23588269239E+03 -0.26351475930E+03  0.37570460754E+03  0.80793222989E+02 0.  0.
         11    1    3    3    0    0  0.13583838907E+03 -0.26674714734E+03  0.54818581932E+03  0.62459090696E+03  0.00000000000E+00 0. -1.
        -11    1    3    3    0    0  0.90146766856E+02 -0.13422898237E+03  0.18432938896E+03  0.24519621310E+03  0.00000000000E+00 0.  1.
          2    1    6    6  502    0  0.51015772609E+02 -0.87403706286E+02 -0.15811394275E+03  0.18772862280E+03  0.00000000000E+00 0. -1.
          1    1    5    5  503    0 -0.70988146131E+02  0.11696505491E+03 -0.20827363056E+02  0.13839768789E+03  0.00000000000E+00 0. -1.
         -2    1    5    5    0  503 -0.25269928364E+03  0.51989376719E+03 -0.25291531396E+03  0.63096165744E+03  0.00000000000E+00 0.  1.
         -1    1    6    6    0  502  0.46686501238E+02 -0.14847898610E+03 -0.10540081655E+03  0.18797598474E+03  0.00000000000E+00 0.  1.
<mgrwt>
<rscale>  0 0.20053676E+04</rscale>
<asrwt>0</asrwt>
<pdfrwt beam="1">  1        2 0.13996872E+00 0.20053676E+04</pdfrwt>
<pdfrwt beam="2">  1       -2 0.17000837E+00 0.20053676E+04</pdfrwt>
<totfact> 0.57131676E+00</totfact>
</mgrwt>
</event>
<event>
12    1  0.4612066E-007  0.1492151E+04  0.7818608E-02  0.8889689E-01
          2   -1    0    0  501    0  0.00000000000E+00  0.00000000000E+00  0.96679983044E+03  0.96679983044E+03  0.00000000000E+00 0. -1.
         -2   -1    0    0    0  501 -0.00000000000E+00 -0.00000000000E+00 -0.57574350835E+03  0.57574350835E+03  0.00000000000E+00 0.  1.
         23    2    1    2    0    0 -0.15237156973E+03  0.41081127135E+03  0.29499888386E+03  0.53783502228E+03  0.10128757960E+03 0.  0.
        254    2    1    2    0    0  0.15237156973E+03 -0.41081127135E+03  0.96057438232E+02  0.10047083165E+04  0.89901544697E+03 0.  0.
        -24    2    4    4    0    0  0.82625427775E+02  0.27766743851E+03  0.64529729617E+02  0.30730501770E+03  0.79662539356E+02 0.  0.
         24    2    4    4    0    0  0.69746141957E+02 -0.68847870986E+03  0.31527708615E+02  0.69740329881E+03  0.80683991815E+02 0.  0.
         13    1    3    3    0    0 -0.13363023841E+03  0.32248625071E+03  0.27732725613E+03  0.44583049415E+03  0.00000000000E+00 0. -1.
        -13    1    3    3    0    0 -0.18741331323E+02  0.88325020639E+02  0.17671627723E+02  0.92004528133E+02  0.00000000000E+00 0.  1.
          2    1    6    6  502    0 -0.25047504035E+01 -0.12380114487E+02  0.11621327999E+02  0.17163807088E+02  0.00000000000E+00 0. -1.
          3    1    5    5  503    0  0.37562812578E+02  0.34744225084E+02  0.25513945277E+02  0.57175934353E+02  0.00000000000E+00 0. -1.
         -4    1    5    5    0  503  0.45062615197E+02  0.24292321342E+03  0.39015784340E+02  0.25012908335E+03  0.00000000000E+00 0.  1.
         -1    1    6    6    0  502  0.72250892361E+02 -0.67609859537E+03  0.19906380616E+02  0.68023949172E+03  0.00000000000E+00 0.  1.
<mgrwt>
<rscale>  0 0.14921511E+04</rscale>
<asrwt>0</asrwt>
<pdfrwt beam="1">  1        2 0.14873844E+00 0.14921511E+04</pdfrwt>
<pdfrwt beam="2">  1       -2 0.88575925E-01 0.14921511E+04</pdfrwt>
<totfact> 0.28062926E+01</totfact>
</mgrwt>
</event>
<event>
12    1  0.4612066E-007  0.2698464E+04  0.7818608E-02  0.8335504E-01
         -1   -1    0    0    0  501 -0.00000000000E+00  0.00000000000E+00  0.52717033498E+04  0.52717033498E+04  0.00000000000E+00 0.  1.
          1   -1    0    0  501    0  0.00000000000E+00 -0.00000000000E+00 -0.34532038647E+03  0.34532038647E+03  0.00000000000E+00 0. -1.
         23    2    1    2    0    0  0.50776156248E+03 -0.94391781591E+03  0.33861237968E+04  0.35528951165E+04  0.91797024888E+02 0.  0.
        254    2    1    2    0    0 -0.50776156248E+03  0.94391781591E+03  0.15402591665E+04  0.20641286198E+04  0.85989883798E+03 0.  0.
        -24    2    4    4    0    0 -0.59873167814E+03  0.22509096125E+03  0.75498711663E+03  0.99263998604E+03  0.78632260371E+02 0.  0.
         24    2    4    4    0    0  0.90970115661E+02  0.71882685466E+03  0.78527204990E+03  0.10714886338E+04  0.80300006445E+02 0.  0.
         11    1    3    3    0    0  0.32088890042E+03 -0.54089802773E+03  0.21043737987E+04  0.21963445648E+04  0.00000000000E+00 0. -1.
        -11    1    3    3    0    0  0.18687266206E+03 -0.40301978818E+03  0.12817499982E+04  0.13565505517E+04  0.00000000000E+00 0.  1.
          4    1    6    6  502    0  0.31900207951E+02  0.52813531088E+03  0.58296814438E+03  0.78727148255E+03  0.00000000000E+00 0. -1.
          3    1    5    5  503    0 -0.22505570325E+03  0.12360103422E+03  0.28230997666E+03  0.38161002103E+03  0.00000000000E+00 0. -1.
         -4    1    5    5    0  503 -0.37367597489E+03  0.10148992702E+03  0.47267713997E+03  0.61102996502E+03  0.00000000000E+00 0.  1.
         -3    1    6    6    0  502  0.59069907710E+02  0.19069154378E+03  0.20230390552E+03  0.28421715123E+03  0.00000000000E+00 0.  1.
<mgrwt>
<rscale>  0 0.26984637E+04</rscale>
<asrwt>0</asrwt>
<pdfrwt beam="1">  1        1 0.53126217E-01 0.26984637E+04</pdfrwt>
<pdfrwt beam="2">  1       -1 0.81103123E+00 0.26984637E+04</pdfrwt>
<totfact> 0.38078018E-03</totfact>
</mgrwt>
</event>
<event>
12    1  0.4612066E-007  0.1585546E+04  0.7818608E-02  0.8829477E-01
          4   -1    0    0  501    0  0.00000000000E+00  0.00000000000E+00  0.10483451464E+04  0.10483451464E+04  0.00000000000E+00 0. -1.
         -4   -1    0    0    0  501 -0.00000000000E+00 -0.00000000000E+00 -0.59950573231E+03  0.59950573231E+03  0.00000000000E+00 0.  1.
         23    2    1    2    0    0 -0.40597751853E+03 -0.26566125698E+03  0.40077938083E+03  0.63657878080E+03  0.95993661543E+02 0.  0.
        254    2    1    2    0    0  0.40597751853E+03  0.26566125698E+03  0.48060033263E+02  0.10112720979E+04  0.88598410832E+03 0.  0.
        -24    2    4    4    0    0 -0.17391210718E+03  0.35579553732E+03 -0.63341037295E+02  0.40864481008E+03  0.78374794401E+02 0.  0.
         24    2    4    4    0    0  0.57988962572E+03 -0.90134280334E+02  0.11140107056E+03  0.60262728783E+03  0.79707484072E+02 0.  0.
         11    1    3    3    0    0 -0.66240839041E+02 -0.64772700370E+02  0.36817897646E+02  0.99694077342E+02  0.00000000000E+00 0.  1.
        -11    1    3    3    0    0 -0.33973667949E+03 -0.20088855661E+03  0.36396148319E+03  0.53688470346E+03  0.00000000000E+00 0. -1.
          2    1    6    6  502    0  0.69365663060E+02 -0.24419291492E+01  0.38932484680E+02  0.79582011743E+02  0.00000000000E+00 0. -1.
          1    1    5    5  503    0 -0.49870218034E+01  0.23224477513E+02 -0.23659526662E+02  0.33526406668E+02  0.00000000000E+00 0. -1.
         -2    1    5    5    0  503 -0.16892508538E+03  0.33257105980E+03 -0.39681510634E+02  0.37511840341E+03  0.00000000000E+00 0.  1.
         -1    1    6    6    0  502  0.51052396266E+03 -0.87692351185E+02  0.72468585877E+02  0.52304527609E+03  0.00000000000E+00 0.  1.
<mgrwt>
<rscale>  0 0.15855459E+04</rscale>
<asrwt>0</asrwt>
<pdfrwt beam="1">  1        4 0.16128387E+00 0.15855459E+04</pdfrwt>
<pdfrwt beam="2">  1       -4 0.92231651E-01 0.15855459E+04</pdfrwt>
<totfact> 0.46971763E-01</totfact>
</mgrwt>
</event>
<event>
12    1  0.4612066E-007  0.1211064E+04  0.7818608E-02  0.9103227E-01
         -2   -1    0    0    0  501 -0.00000000000E+00  0.00000000000E+00  0.61701993847E+03  0.61701993847E+03  0.00000000000E+00 0.  1.
          2   -1    0    0  501    0  0.00000000000E+00 -0.00000000000E+00 -0.59425757739E+03  0.59425757739E+03  0.00000000000E+00 0. -1.
         23    2    1    2    0    0 -0.18884180312E+03 -0.17731591880E+03 -0.13372335312E+02  0.27557877643E+03  0.93073524708E+02 0.  0.
        254    2    1    2    0    0  0.18884180312E+03  0.17731591880E+03  0.36134696398E+02  0.93569873942E+03  0.89840094223E+03 0.  0.
        -24    2    4    4    0    0  0.10987871559E+03  0.38223927615E+03 -0.31528648067E+03  0.51362255118E+03  0.78881961294E+02 0.  0.
         24    2    4    4    0    0  0.78963087529E+02 -0.20492335734E+03  0.35142117707E+03  0.42207618824E+03  0.80141833096E+02 0.  0.
         11    1    3    3    0    0 -0.45385928286E+02 -0.90446210755E+02 -0.33664880487E+02  0.10664766150E+03  0.00000000000E+00 0. -1.
        -11    1    3    3    0    0 -0.14345587484E+03 -0.86869708049E+02  0.20292545175E+02  0.16893111493E+03  0.00000000000E+00 0.  1.
          2    1    6    6  502    0  0.54553998441E+02 -0.20054575460E+03  0.29963414549E+03  0.36465786647E+03  0.00000000000E+00 0. -1.
          3    1    5    5  503    0  0.11545360959E+03  0.35717102431E+03 -0.27298175455E+03  0.46413329431E+03  0.00000000000E+00 0. -1.
         -4    1    5    5    0  503 -0.55748939983E+01  0.25068251843E+02 -0.42304726115E+02  0.49489256867E+02  0.00000000000E+00 0.  1.
         -1    1    6    6    0  502  0.24409089088E+02 -0.43776027482E+01  0.51787031575E+02  0.57418321773E+02  0.00000000000E+00 0.  1.
<mgrwt>
<rscale>  0 0.12110636E+04</rscale>
<asrwt>0</asrwt>
<pdfrwt beam="1">  1        2 0.91424242E-01 0.12110636E+04</pdfrwt>
<pdfrwt beam="2">  1       -2 0.94926145E-01 0.12110636E+04</pdfrwt>
<totfact> 0.46212381E+01</totfact>
</mgrwt>
</event>
<event>
12    1  0.4612066E-007  0.2613474E+04  0.7818608E-02  0.8363639E-01
         -1   -1    0    0    0  501 -0.00000000000E+00  0.00000000000E+00  0.18625949740E+04  0.18625949740E+04  0.00000000000E+00 0.  1.
          1   -1    0    0  501    0  0.00000000000E+00 -0.00000000000E+00 -0.91676499819E+03  0.91676499819E+03  0.00000000000E+00 0. -1.
         23    2    1    2    0    0 -0.10523236116E+04 -0.39253050341E+03  0.67833737040E+03  0.13158650701E+04  0.99469166086E+02 0.  0.
        254    2    1    2    0    0  0.10523236116E+04  0.39253050341E+03  0.26749260542E+03  0.14634949021E+04  0.89933300559E+03 0.  0.
        -24    2    4    4    0    0  0.62629998704E+03  0.58741811474E+03  0.42732448618E+03  0.96232271515E+03  0.78403292659E+02 0.  0.
         24    2    4    4    0    0  0.42602362454E+03 -0.19488761133E+03 -0.15983188076E+03  0.50117218696E+03  0.78422070631E+02 0.  0.
         13    1    3    3    0    0 -0.80019874532E+03 -0.28984417444E+03  0.46372860461E+03  0.96921199755E+03  0.00000000000E+00 0. -1.
        -13    1    3    3    0    0 -0.25212486627E+03 -0.10268632897E+03  0.21460876579E+03  0.34665307254E+03  0.00000000000E+00 0.  1.
          4    1    6    6  502    0  0.39837967508E+03 -0.15773874282E+03 -0.13960126891E+03  0.45063997912E+03  0.00000000000E+00 0. -1.
          3    1    5    5  503    0  0.59921909477E+03  0.53802133952E+03  0.40797495697E+03  0.90275913224E+03  0.00000000000E+00 0. -1.
         -4    1    5    5    0  503  0.27080892270E+02  0.49396775223E+02  0.19349529210E+02  0.59563582912E+02  0.00000000000E+00 0.  1.
         -3    1    6    6    0  502  0.27643949460E+02 -0.37148868510E+02 -0.20230611850E+02  0.50532207839E+02  0.00000000000E+00 0.  1.
<mgrwt>
<rscale>  0 0.26134742E+04</rscale>
<asrwt>0</asrwt>
<pdfrwt beam="1">  1        1 0.14104077E+00 0.26134742E+04</pdfrwt>
<pdfrwt beam="2">  1       -1 0.28655307E+00 0.26134742E+04</pdfrwt>
<totfact> 0.62604471E-01</totfact>
</mgrwt>
</event>
<event>
12    1  0.4612066E-007  0.1357535E+04  0.7818608E-02  0.8985144E-01
         -2   -1    0    0    0  501 -0.00000000000E+00  0.00000000000E+00  0.54143059304E+03  0.54143059304E+03  0.00000000000E+00 0.  1.
          2   -1    0    0  501    0  0.00000000000E+00 -0.00000000000E+00 -0.85094040363E+03  0.85094040363E+03  0.00000000000E+00 0. -1.
         23    2    1    2    0    0  0.33162359162E+03  0.45912614190E+02  0.79708930409E+02  0.35638228325E+03  0.92588571468E+02 0.  0.
        254    2    1    2    0    0 -0.33162359162E+03 -0.45912614190E+02 -0.38921874099E+03  0.10359887134E+04  0.89983287967E+03 0.  0.
        -24    2    4    4    0    0 -0.27170045923E+03  0.37207130378E+03 -0.18148367343E+02  0.46838826415E+03  0.82462161701E+02 0.  0.
         24    2    4    4    0    0 -0.59923132391E+02 -0.41798391797E+03 -0.37107037365E+03  0.56760044927E+03  0.78585687805E+02 0.  0.
         13    1    3    3    0    0  0.32795329919E+03  0.35211989980E+02  0.62376092289E+02  0.33568441664E+03  0.00000000000E+00 0.  1.
        -13    1    3    3    0    0  0.36702924373E+01  0.10700624209E+02  0.17332838120E+02  0.20697866613E+02  0.00000000000E+00 0. -1.
          4    1    6    6  502    0 -0.66687707166E+01 -0.29975948210E+03 -0.26074122167E+03  0.39734897041E+03  0.00000000000E+00 0. -1.
          1    1    5    5  503    0 -0.22301862633E+03  0.32054643219E+03  0.13565828033E+02  0.39073181924E+03  0.00000000000E+00 0. -1.
         -2    1    5    5    0  503 -0.48681832905E+02  0.51524871594E+02 -0.31714195375E+02  0.77656444910E+02  0.00000000000E+00 0.  1.
         -3    1    6    6    0  502 -0.53254361675E+02 -0.11822443588E+03 -0.11032915198E+03  0.17025147886E+03  0.00000000000E+00 0.  1.
<mgrwt>
<rscale>  0 0.13575348E+04</rscale>
<asrwt>0</asrwt>
<pdfrwt beam="1">  1        2 0.13091391E+00 0.13575348E+04</pdfrwt>
<pdfrwt beam="2">  1       -2 0.83297015E-01 0.13575348E+04</pdfrwt>
<totfact> 0.39047796E+01</totfact>
</mgrwt>
</event>
<event>
12    1  0.4612066E-007  0.2815939E+04  0.7818608E-02  0.8298337E-01
          1   -1    0    0  501    0  0.00000000000E+00  0.00000000000E+00  0.21930036400E+04  0.21930036400E+04  0.00000000000E+00 0. -1.
         -1   -1    0    0    0  501 -0.00000000000E+00 -0.00000000000E+00 -0.90395594941E+03  0.90395594941E+03  0.00000000000E+00 0.  1.
         23    2    1    2    0    0  0.14971289603E+03 -0.10728874488E+04  0.12983811207E+04  0.16935159447E+04  0.93280712948E+02 0.  0.
        254    2    1    2    0    0 -0.14971289603E+03  0.10728874488E+04 -0.93334300653E+01  0.14034436447E+04  0.89222503999E+03 0.  0.
        -24    2    4    4    0    0 -0.27584120995E+03  0.93643542868E+03  0.30853758295E+03  0.10269254460E+04  0.79879573763E+02 0.  0.
         24    2    4    4    0    0  0.12612831393E+03  0.13645202012E+03 -0.31787101302E+03  0.37651819875E+03  0.78717645447E+02 0.  0.
         11    1    3    3    0    0  0.16244774491E+03 -0.97601355050E+03  0.11894326695E+04  0.15471721934E+04  0.00000000000E+00 0. -1.
        -11    1    3    3    0    0 -0.12734848883E+02 -0.96873898297E+02  0.10894845115E+03  0.14634375134E+03  0.00000000000E+00 0.  1.
          4    1    6    6  502    0 -0.10778539648E+02  0.11686074190E+02 -0.34383266905E+02  0.37880737717E+02  0.00000000000E+00 0. -1.
          3    1    5    5  503    0 -0.37726824863E+02  0.16096426343E+03  0.22921878067E+02  0.16690781860E+03  0.00000000000E+00 0. -1.
         -4    1    5    5    0  503 -0.23811438509E+03  0.77547116526E+03  0.28561570489E+03  0.86001762738E+03  0.00000000000E+00 0.  1.
         -3    1    6    6    0  502  0.13690685357E+03  0.12476594593E+03 -0.28348774611E+03  0.33863746103E+03  0.00000000000E+00 0.  1.
<mgrwt>
<rscale>  0 0.28159394E+04</rscale>
<asrwt>0</asrwt>
<pdfrwt beam="1">  1        1 0.33738517E+00 0.28159394E+04</pdfrwt>
<pdfrwt beam="2">  1       -1 0.13907015E+00 0.28159394E+04</pdfrwt>
<totfact> 0.81204937E-01</totfact>
</mgrwt>
</event>
<event>
12    1  0.4612066E-007  0.2027150E+04  0.7818608E-02  0.8594031E-01
         -2   -1    0    0    0  501 -0.00000000000E+00  0.00000000000E+00  0.56621053595E+03  0.56621053595E+03  0.00000000000E+00 0.  1.
          2   -1    0    0  501    0  0.00000000000E+00 -0.00000000000E+00 -0.18144027130E+04  0.18144027130E+04  0.00000000000E+00 0. -1.
         23    2    1    2    0    0  0.13085327499E+03  0.76273931601E+03 -0.80531305465E+03  0.11206724796E+04  0.92107799386E+02 0.  0.
        254    2    1    2    0    0 -0.13085327499E+03 -0.76273931601E+03 -0.44287912235E+03  0.12599407693E+04  0.89017693828E+03 0.  0.
        -24    2    4    4    0    0  0.67350857877E+02 -0.89567697648E+03 -0.45231322949E+03  0.10085106218E+04  0.75716791371E+02 0.  0.
         24    2    4    4    0    0 -0.19820413287E+03  0.13293766047E+03  0.94341071421E+01  0.25143014751E+03  0.78554546920E+02 0.  0.
         11    1    3    3    0    0 -0.11864007029E+02  0.93176606456E+02 -0.81117383771E+02  0.12410747199E+03  0.00000000000E+00 0. -1.
        -11    1    3    3    0    0  0.14271728202E+03  0.66956270955E+03 -0.72419567088E+03  0.99656500758E+03  0.00000000000E+00 0.  1.
          4    1    6    6  502    0 -0.16548021066E+03  0.11534737173E+03 -0.21805456686E+02  0.20288961093E+03  0.00000000000E+00 0. -1.
          3    1    5    5  503    0  0.27538363358E+02 -0.73887453509E+03 -0.37971086848E+03  0.83118847664E+03  0.00000000000E+00 0. -1.
         -4    1    5    5    0  503  0.39812494519E+02 -0.15680244138E+03 -0.72602361015E+02  0.17732214517E+03  0.00000000000E+00 0.  1.
         -1    1    6    6    0  502 -0.32723922210E+02  0.17590288744E+02  0.31239563828E+02  0.48540536576E+02  0.00000000000E+00 0.  1.
<mgrwt>
<rscale>  0 0.20271497E+04</rscale>
<asrwt>0</asrwt>
<pdfrwt beam="1">  1        2 0.27913888E+00 0.20271497E+04</pdfrwt>
<pdfrwt beam="2">  1       -2 0.87109314E-01 0.20271497E+04</pdfrwt>
<totfact> 0.89462531E+00</totfact>
</mgrwt>
</event>
<event>
12    1  0.4612066E-007  0.1636367E+04  0.7818608E-02  0.8798513E-01
         -1   -1    0    0    0  501 -0.00000000000E+00  0.00000000000E+00  0.72968560874E+03  0.72968560874E+03  0.00000000000E+00 0.  1.
          1   -1    0    0  501    0  0.00000000000E+00 -0.00000000000E+00 -0.91741437515E+03  0.91741437515E+03  0.00000000000E+00 0. -1.
         23    2    1    2    0    0  0.10523499686E+02 -0.11634733431E+03  0.50628791977E+03  0.52729577687E+03  0.89810535833E+02 0.  0.
        254    2    1    2    0    0 -0.10523499686E+02  0.11634733431E+03 -0.69401668619E+03  0.11198042070E+04  0.87100795354E+03 0.  0.
        -24    2    4    4    0    0 -0.31386453909E+03  0.98267746952E+02  0.20896373130E+02  0.33909094368E+03  0.79865578839E+02 0.  0.
         24    2    4    4    0    0  0.30334103941E+03  0.18079587361E+02 -0.71491305932E+03  0.78071326335E+03  0.77909303190E+02 0.  0.
         11    1    3    3    0    0 -0.24426313960E+02 -0.88707465551E+02  0.23494933859E+03  0.25232291011E+03  0.00000000000E+00 0. -1.
        -11    1    3    3    0    0  0.34949813646E+02 -0.27639868761E+02  0.27133858118E+03  0.27497286676E+03  0.00000000000E+00 0.  1.
          2    1    6    6  502    0  0.66689544832E+02 -0.25897999367E+02 -0.13389094285E+03  0.15180575200E+03  0.00000000000E+00 0. -1.
          3    1    5    5  503    0 -0.74482464711E+01  0.20589158528E+02  0.56611528025E+01  0.22615005537E+02  0.00000000000E+00 0. -1.
         -4    1    5    5    0  503 -0.30641629262E+03  0.77678588424E+02  0.15235220328E+02  0.31647593814E+03  0.00000000000E+00 0.  1.
         -1    1    6    6    0  502  0.23665149457E+03  0.43977586727E+02 -0.58102211646E+03  0.62890751136E+03  0.00000000000E+00 0.  1.
<mgrwt>
<rscale>  0 0.16363668E+04</rscale>
<asrwt>0</asrwt>
<pdfrwt beam="1">  1        1 0.14114067E+00 0.16363668E+04</pdfrwt>
<pdfrwt beam="2">  1       -1 0.11225932E+00 0.16363668E+04</pdfrwt>
<totfact> 0.12253745E+01</totfact>
</mgrwt>
</event>
<event>
12    1  0.4612066E-007  0.1977284E+04  0.7818608E-02  0.8617315E-01
          4   -1    0    0  501    0  0.00000000000E+00  0.00000000000E+00  0.15948043567E+04  0.15948043567E+04  0.00000000000E+00 0. -1.
         -4   -1    0    0    0  501 -0.00000000000E+00 -0.00000000000E+00 -0.61287333438E+03  0.61287333438E+03  0.00000000000E+00 0.  1.
         23    2    1    2    0    0  0.43892752335E+03 -0.53389728638E+03  0.79799877417E+03  0.10590374861E+04  0.83992084207E+02 0.  0.
        254    2    1    2    0    0 -0.43892752335E+03  0.53389728638E+03  0.18393224811E+03  0.11486402050E+04  0.89879895716E+03 0.  0.
        -24    2    4    4    0    0 -0.81301304956E+02  0.71127483745E+03  0.63041669149E+02  0.72398764675E+03  0.87533216739E+02 0.  0.
         24    2    4    4    0    0 -0.35762621839E+03 -0.17737755107E+03  0.12089057896E+03  0.42465255820E+03  0.79724246024E+02 0.  0.
         13    1    3    3    0    0  0.66204494199E+02 -0.66863299654E+02  0.70337561317E+02  0.11747811892E+03  0.00000000000E+00 0.  1.
        -13    1    3    3    0    0  0.37272302915E+03 -0.46703398672E+03  0.72766121285E+03  0.94155936717E+03  0.00000000000E+00 0. -1.
          4    1    6    6  502    0 -0.89736203406E+02 -0.77162214422E+02  0.58004989403E+02  0.13179974329E+03  0.00000000000E+00 0. -1.
          3    1    5    5  503    0 -0.53454207389E+02  0.49910505575E+03  0.38946516580E+01  0.50197447871E+03  0.00000000000E+00 0. -1.
         -4    1    5    5    0  503 -0.27847097567E+02  0.21216978169E+03  0.59147017491E+02  0.22201316804E+03  0.00000000000E+00 0.  1.
         -3    1    6    6    0  502 -0.26789001498E+03 -0.10021533665E+03  0.62885589559E+02  0.29285281491E+03  0.00000000000E+00 0.  1.
<mgrwt>
<rscale>  0 0.19772841E+04</rscale>
<asrwt>0</asrwt>
<pdfrwt beam="1">  1        4 0.24535451E+00 0.19772841E+04</pdfrwt>
<pdfrwt beam="2">  1       -4 0.94288206E-01 0.19772841E+04</pdfrwt>
<totfact> 0.11932682E-01</totfact>
</mgrwt>
</event>
<event>
12    1  0.4612066E-007  0.2154994E+04  0.7818608E-02  0.8537398E-01
         -2   -1    0    0    0  501 -0.00000000000E+00  0.00000000000E+00  0.13566444507E+04  0.13566444507E+04  0.00000000000E+00 0. -1.
          2   -1    0    0  501    0  0.00000000000E+00 -0.00000000000E+00 -0.85578799134E+03  0.85578799134E+03  0.00000000000E+00 0.  1.
         23    2    1    2    0    0  0.45810647614E+03  0.45009346782E+03 -0.42065162953E+03  0.77445640646E+03  0.10192771378E+03 0.  0.
        254    2    1    2    0    0 -0.45810647614E+03 -0.45009346782E+03  0.92150808889E+03  0.14379760356E+04  0.89785981520E+03 0.  0.
        -24    2    4    4    0    0 -0.47426518511E+03 -0.14863566021E+03  0.99708166316E+03  0.11168572211E+04  0.78601425511E+02 0.  0.
         24    2    4    4    0    0  0.16158708971E+02 -0.30145780760E+03 -0.75573574275E+02  0.32111881444E+03  0.79170791436E+02 0.  0.
         11    1    3    3    0    0  0.88138640118E+02  0.14794075412E+03 -0.12322805098E+03  0.21175466739E+03  0.00000000000E+00 0. -1.
        -11    1    3    3    0    0  0.36996783602E+03  0.30215271369E+03 -0.29742357855E+03  0.56270173908E+03  0.00000000000E+00 0.  1.
          2    1    6    6  502    0  0.20824380457E+02 -0.26057197763E+03 -0.91556267145E+02  0.27697285138E+03  0.00000000000E+00 0. -1.
          1    1    5    5  503    0 -0.47705540021E+03 -0.14954649599E+03  0.98761490963E+03  0.11069458971E+04  0.00000000000E+00 0. -1.
         -2    1    5    5    0  503  0.27902150999E+01  0.91083578005E+00  0.94667535387E+01  0.99113240631E+01  0.00000000000E+00 0.  1.
         -1    1    6    6    0  502 -0.46656714858E+01 -0.40885829976E+02  0.15982692870E+02  0.44145963062E+02  0.00000000000E+00 0.  1.
<mgrwt>
<rscale>  0 0.21549942E+04</rscale>
<asrwt>0</asrwt>
<pdfrwt beam="1">  1        2 0.13165969E+00 0.21549942E+04</pdfrwt>
<pdfrwt beam="2">  1       -2 0.20871453E+00 0.21549942E+04</pdfrwt>
<totfact> 0.33656633E+00</totfact>
</mgrwt>
</event>
<event>
12    1  0.4612066E-007  0.1120789E+04  0.7818608E-02  0.9185163E-01
          1   -1    0    0  501    0  0.00000000000E+00  0.00000000000E+00  0.17156315432E+04  0.17156315432E+04  0.00000000000E+00 0. -1.
         -1   -1    0    0    0  501 -0.00000000000E+00 -0.00000000000E+00 -0.18304737388E+03  0.18304737388E+03  0.00000000000E+00 0.  1.
         23    2    1    2    0    0  0.13093607003E+03 -0.48173512764E+02  0.17574497750E+03  0.24003666439E+03  0.85242954947E+02 0.  0.
        254    2    1    2    0    0 -0.13093607003E+03  0.48173512764E+02  0.13568391919E+04  0.16586422527E+04  0.94372484773E+03 0.  0.
        -24    2    4    4    0    0  0.17885063136E+03 -0.33377755213E+03  0.30155122351E+03  0.49169505431E+03  0.86231568399E+02 0.  0.
         24    2    4    4    0    0 -0.30978670140E+03  0.38195106489E+03  0.10552879684E+04  0.11669471984E+04  0.79237941855E+02 0.  0.
         13    1    3    3    0    0  0.14337087344E+02  0.18348681272E+02  0.54021720511E+02  0.58826630576E+02  0.00000000000E+00 0. -1.
        -13    1    3    3    0    0  0.11659898269E+03 -0.66522194036E+02  0.12172325699E+03  0.18121003381E+03  0.00000000000E+00 0.  1.
          2    1    6    6  502    0 -0.22167040912E+03  0.21775345053E+03  0.62245086495E+03  0.69570066464E+03  0.00000000000E+00 0. -1.
          3    1    5    5  503    0  0.17929264018E+03 -0.27915598100E+03  0.27516121021E+03  0.43103086219E+03  0.00000000000E+00 0. -1.
         -4    1    5    5    0  503 -0.44200881666E+00 -0.54621571127E+02  0.26390013299E+02  0.60664192124E+02  0.00000000000E+00 0.  1.
         -3    1    6    6    0  502 -0.88116292273E+02  0.16419761437E+03  0.43283710340E+03  0.47124653379E+03  0.00000000000E+00 0.  1.
<mgrwt>
<rscale>  0 0.11207887E+04</rscale>
<asrwt>0</asrwt>
<pdfrwt beam="1">  1        1 0.26394330E+00 0.11207887E+04</pdfrwt>
<pdfrwt beam="2">  1       -1 0.28161136E-01 0.11207887E+04</pdfrwt>
<totfact> 0.52784916E+01</totfact>
</mgrwt>
</event>
